Generated with MDTraj, t= 72130.0
 6520
    1MOL     C1    1   2.678   1.003   0.017
    1MOL     C2    2   2.779   1.066  -0.055
    1MOL     C3    3   2.880   0.985  -0.104
    1MOL     C4    4   2.877   0.848  -0.084
    1MOL     C5    5   2.779   0.788  -0.006
    1MOL     C6    6   2.678   0.868   0.046
    1MOL     C7    7   2.988   1.040  -0.182
    1MOL     N1    8   3.070   1.081  -0.250
    1MOL     C8    9   2.573   0.812   0.135
    1MOL     O1   10   2.478   0.882   0.164
    1MOL     O2   11   2.574   0.694   0.164
    1MOL     H1   12   2.596   1.068   0.048
    1MOL     H2   13   2.772   1.173  -0.072
    1MOL     H3   14   2.952   0.781  -0.124
    1MOL     H4   15   2.789   0.682   0.013
    2OCB     C1   16   3.254   1.280   3.929
    2OCB     C2   17   3.328   1.011   3.989
    2OCB     C3   18   3.331   1.202   3.843
    2OCB     C4   19   3.225   1.219   4.050
    2OCB     C5   20   3.253   1.086   4.078
    2OCB     C6   21   3.360   1.069   3.867
    2OCB     O1   22   3.363   0.881   4.017
    2OCB     C7   23   3.426   0.984   3.761
    2OCB     C8   24   3.272   0.782   3.966
    2OCB     O2   25   3.322   0.721   3.845
    2OCB     C9   26   3.281   0.775   3.725
    2OCB    C10   27   3.325   0.901   3.685
    2OCB    C11   28   3.262   0.958   3.576
    2OCB    C12   29   3.196   0.701   3.645
    2OCB    C13   30   3.158   0.896   3.509
    2OCB    C14   31   3.128   0.765   3.542
    2OCB     O3   32   3.019   0.698   3.492
    2OCB    C15   33   3.081   0.961   3.396
    2OCB    C16   34   2.956   1.031   3.446
    2OCB    C17   35   2.835   0.971   3.480
    2OCB    C18   36   2.896   0.743   3.553
    2OCB     O4   37   2.822   0.835   3.470
    2OCB     O5   38   3.151   1.280   4.148
    2OCB    C19   39   3.209   1.420   3.894
    2OCB    C20   40   3.066   1.426   3.846
    2OCB     O6   41   2.992   1.426   4.073
    2OCB    C21   42   2.965   1.438   3.940
    2OCB    C22   43   2.730   1.046   3.530
    2OCB    C23   44   2.740   1.184   3.535
    2OCB    C24   45   2.830   1.443   3.908
    2OCB    C25   46   2.799   1.424   3.774
    2OCB     O7   47   2.632   1.251   3.588
    2OCB     O8   48   2.665   1.401   3.750
    2OCB    C26   49   2.626   1.264   3.731
    2OCB    C27   50   3.029   1.410   3.713
    2OCB    C28   51   2.895   1.409   3.676
    2OCB    C29   52   2.965   1.170   3.451
    2OCB    C30   53   2.871   1.393   3.527
    2OCB    C31   54   2.859   1.245   3.498
    2OCB    C32   55   3.010   1.291   4.119
    2OCB    C33   56   3.169   1.043   3.301
    2OCB    C34   57   3.248   0.943   3.215
    2OCB    C35   58   3.324   1.011   3.104
    2OCB     O9   59   3.403   1.101   3.127
    2OCB    C36   60   3.523   1.060   3.669
    2OCB    C37   61   3.607   0.982   3.567
    2OCB    C38   62   3.713   0.907   3.643
    2OCB    O10   63   3.747   0.807   3.582
    2OCB    C39   64   3.310   1.500   3.811
    2OCB    C40   65   3.282   1.651   3.802
    2OCB    C41   66   3.407   1.734   3.821
    2OCB    O11   67   3.421   1.812   3.912
    2OCB    C42   68   2.952   1.478   3.429
    2OCB    C43   69   2.922   1.457   3.280
    2OCB    C44   70   2.955   1.579   3.198
    2OCB    O12   71   2.972   1.687   3.251
    2OCB    C45   72   3.230   0.678   4.068
    2OCB    C46   73   3.125   0.493   4.246
    2OCB    C47   74   3.184   0.555   4.025
    2OCB    C48   75   3.221   0.705   4.203
    2OCB    C49   76   3.156   0.620   4.292
    2OCB    C50   77   3.139   0.458   4.113
    2OCB    C51   78   2.927   1.270   4.244
    2OCB    C52   79   2.784   1.222   4.472
    2OCB    C53   80   2.804   1.332   4.260
    2OCB    C54   81   2.978   1.185   4.341
    2OCB    C55   82   2.904   1.155   4.455
    2OCB    C56   83   2.736   1.314   4.380
    2OCB    C57   84   2.484   1.232   3.774
    2OCB    C58   85   2.264   1.128   3.906
    2OCB    C59   86   2.403   1.139   3.711
    2OCB    C60   87   2.450   1.279   3.900
    2OCB    C61   88   2.338   1.228   3.966
    2OCB    C62   89   2.295   1.082   3.779
    2OCB    C63   90   2.797   0.632   3.584
    2OCB    C64   91   2.656   0.412   3.706
    2OCB    C65   92   2.678   0.651   3.652
    2OCB    C66   93   2.845   0.502   3.586
    2OCB    C67   94   2.777   0.394   3.641
    2OCB    C68   95   2.608   0.542   3.702
    2OCB    O13   96   2.926   1.055   4.547
    2OCB    O14   97   2.296   1.266   4.091
    2OCB    O15   98   2.221   0.977   3.730
    2OCB    O16   99   3.140   0.641   4.427
    2OCB    O17  100   3.107   0.329   4.077
    2OCB    O18  101   2.489   0.576   3.759
    2OCB    O19  102   2.841   0.277   3.675
    2OCB    C69  103   2.356   1.364   4.165
    2OCB    C70  104   2.524   1.549   4.276
    2OCB    C71  105   2.445   1.319   4.261
    2OCB    C72  106   2.344   1.499   4.135
    2OCB    C73  107   2.426   1.596   4.190
    2OCB    C74  108   2.524   1.417   4.319
    2OCB    O20  109   2.618   1.376   4.411
    2OCB    C75  110   3.135   0.767   4.480
    2OCB    C76  111   3.150   1.005   4.611
    2OCB    C77  112   3.249   0.802   4.551
    2OCB    C78  113   3.023   0.848   4.479
    2OCB    C79  114   3.035   0.972   4.540
    2OCB    C80  115   3.261   0.922   4.619
    2OCB    C81  116   2.270   0.859   3.679
    2OCB    C82  117   2.356   0.629   3.565
    2OCB    C83  118   2.227   0.828   3.551
    2OCB    C84  119   2.350   0.773   3.752
    2OCB    C85  120   2.398   0.656   3.694
    2OCB    C86  121   2.274   0.712   3.491
    2OCB    C87  122   2.234   0.685   3.350
    2OCB    O21  123   2.308   0.610   3.290
    2OCB    C88  124   3.301   0.189   3.654
    2OCB    O22  125   3.417   0.183   3.690
    2OCB    C89  126   3.385   0.971   4.684
    2OCB    O23  127   3.391   1.084   4.726
    2OCB    O24  128   3.300   0.978   2.990
    2OCB    O25  129   2.954   1.573   3.077
    2OCB    O26  130   3.478   1.750   3.724
    2OCB    C90  131   2.411   1.744   4.180
    2OCB    O27  132   2.317   1.793   4.121
    2OCB    O28  133   3.280   0.172   3.536
    2OCB    O29  134   2.151   0.755   3.295
    2OCB    O30  135   2.512   1.810   4.195
    2OCB    O31  136   3.491   0.911   4.674
    2OCB    O32  137   3.780   0.951   3.734
    2OCB    C91  138   3.081   0.288   3.949
    2OCB    C92  139   3.057   0.227   3.684
    2OCB    C93  140   2.955   0.307   3.893
    2OCB    C94  141   3.192   0.248   3.876
    2OCB    C95  142   3.184   0.221   3.740
    2OCB    C96  143   2.950   0.271   3.759
    2OCB    C97  144   2.837   0.359   3.971
    2OCB    C98  145   2.898   0.803   4.406
    2OCB    C99  146   2.456   1.179   4.317
    2OCB      C  147   2.385   0.808   3.895
    2OCB     H1  148   3.363   1.244   3.748
    2OCB     H2  149   3.229   1.046   4.176
    2OCB     H3  150   3.488   0.913   3.817
    2OCB     H4  151   3.179   0.830   3.932
    2OCB     H5  152   3.283   1.062   3.553
    2OCB     H6  153   3.177   0.598   3.675
    2OCB     H7  154   3.048   0.879   3.333
    2OCB     H8  155   2.926   0.795   3.645
    2OCB     H9  156   3.213   1.474   3.989
    2OCB    H10  157   2.634   1.002   3.558
    2OCB    H11  158   2.755   1.453   3.986
    2OCB    H12  159   2.704   1.197   3.770
    2OCB    H13  160   3.105   1.403   3.635
    2OCB    H14  161   3.057   1.226   3.443
    2OCB    H15  162   2.771   1.437   3.515
    2OCB    H16  163   2.977   1.218   4.044
    2OCB    H17  164   3.104   1.097   3.232
    2OCB    H18  165   3.234   1.117   3.349
    2OCB    H19  166   3.317   0.895   3.285
    2OCB    H20  167   3.182   0.867   3.173
    2OCB    H21  168   3.592   1.117   3.731
    2OCB    H22  169   3.469   1.135   3.611
    2OCB    H23  170   3.548   0.919   3.499
    2OCB    H24  171   3.651   1.057   3.500
    2OCB    H25  172   3.409   1.486   3.856
    2OCB    H26  173   3.312   1.462   3.709
    2OCB    H27  174   3.240   1.669   3.703
    2OCB    H28  175   3.204   1.690   3.868
    2OCB    H29  176   2.920   1.577   3.464
    2OCB    H30  177   3.060   1.464   3.441
    2OCB    H31  178   2.983   1.374   3.243
    2OCB    H32  179   2.819   1.423   3.271
    2OCB    H33  180   3.084   0.420   4.315
    2OCB    H34  181   3.178   0.538   3.918
    2OCB    H35  182   3.256   0.802   4.239
    2OCB    H36  183   2.723   1.205   4.560
    2OCB    H37  184   2.764   1.398   4.183
    2OCB    H38  185   3.072   1.132   4.329
    2OCB    H39  186   2.173   1.091   3.953
    2OCB    H40  187   2.430   1.106   3.612
    2OCB    H41  188   2.513   1.357   3.942
    2OCB    H42  189   2.610   0.328   3.758
    2OCB    H43  190   2.637   0.751   3.665
    2OCB    H44  191   2.946   0.477   3.555
    2OCB    H45  192   2.584   1.613   4.340
    2OCB    H46  193   2.267   1.536   4.067
    2OCB    H47  194   3.146   1.105   4.654
    2OCB    H48  195   3.335   0.735   4.549
    2OCB    H49  196   2.394   0.542   3.512
    2OCB    H50  197   2.163   0.899   3.499
    2OCB    H51  198   3.047   0.217   3.576
    2OCB    H52  199   3.288   0.238   3.925
    2OCB    H53  200   2.743   0.311   3.944
    2OCB    H54  201   2.852   0.337   4.077
    2OCB    H55  202   2.828   0.467   3.956
    2OCB    H56  203   2.807   0.850   4.443
    2OCB    H57  204   2.903   0.832   4.301
    2OCB    H58  205   2.882   0.695   4.404
    2OCB    H59  206   2.558   1.139   4.317
    2OCB    H60  207   2.424   1.180   4.421
    2OCB    H61  208   2.403   1.110   4.252
    2OCB    H62  209   2.431   0.726   3.951
    2OCB    H63  210   2.451   0.894   3.905
    2OCB    H64  211   2.292   0.838   3.944
    3Na+    Na+  212   0.046   1.681   1.961
    4Na+    Na+  213   2.350   3.806   0.940
    5Na+    Na+  214   3.269   0.884   1.864
    6Na+    Na+  215   2.572   3.515   0.902
    7Na+    Na+  216   0.173   1.525   3.995
    8Na+    Na+  217   3.617   1.913   3.852
    9Na+    Na+  218   2.111   2.372   3.266
   10Na+    Na+  219   0.838   0.063   0.710
   11Na+    Na+  220   3.325   1.146   2.840
   12HOH      O  221   1.464   3.623   1.299
   12HOH     H1  222   1.542   3.603   1.351
   12HOH     H2  223   1.415   3.541   1.297
   13HOH      O  224   3.296   0.437   3.425
   13HOH     H1  225   3.382   0.427   3.466
   13HOH     H2  226   3.246   0.360   3.453
   14HOH      O  227   3.619   0.567   2.493
   14HOH     H1  228   3.640   0.641   2.550
   14HOH     H2  229   3.657   0.491   2.536
   15HOH      O  230   3.968   3.352   2.169
   15HOH     H1  231   3.920   3.269   2.174
   15HOH     H2  232   4.059   3.325   2.155
   16HOH      O  233   3.913   3.021   2.533
   16HOH     H1  234   3.842   3.072   2.494
   16HOH     H2  235   3.943   2.964   2.463
   17HOH      O  236   0.564   1.462   0.990
   17HOH     H1  237   0.528   1.406   1.059
   17HOH     H2  238   0.658   1.447   0.994
   18HOH      O  239   2.199   0.655   2.132
   18HOH     H1  240   2.135   0.711   2.176
   18HOH     H2  241   2.146   0.585   2.094
   19HOH      O  242   2.368   2.558   1.455
   19HOH     H1  243   2.423   2.538   1.531
   19HOH     H2  244   2.418   2.525   1.380
   20HOH      O  245   1.769   2.238   0.898
   20HOH     H1  246   1.725   2.299   0.838
   20HOH     H2  247   1.804   2.170   0.842
   21HOH      O  248   1.014   0.417   1.734
   21HOH     H1  249   0.966   0.483   1.684
   21HOH     H2  250   1.015   0.340   1.678
   22HOH      O  251   2.299   2.797   0.141
   22HOH     H1  252   2.268   2.735   0.074
   22HOH     H2  253   2.388   2.818   0.115
   23HOH      O  254   2.690   1.791   3.305
   23HOH     H1  255   2.784   1.781   3.288
   23HOH     H2  256   2.650   1.718   3.258
   24HOH      O  257   2.166   3.278   2.882
   24HOH     H1  258   2.148   3.192   2.920
   24HOH     H2  259   2.257   3.272   2.851
   25HOH      O  260   1.602   1.131   3.170
   25HOH     H1  261   1.592   1.081   3.251
   25HOH     H2  262   1.513   1.132   3.133
   26HOH      O  263   1.828   1.877   1.777
   26HOH     H1  264   1.878   1.876   1.859
   26HOH     H2  265   1.745   1.918   1.801
   27HOH      O  266   0.934   1.725   3.798
   27HOH     H1  267   0.963   1.634   3.792
   27HOH     H2  268   1.014   1.777   3.802
   28HOH      O  269   1.638   3.941   2.252
   28HOH     H1  270   1.653   3.865   2.308
   28HOH     H2  271   1.571   3.992   2.298
   29HOH      O  272   2.809   2.384   3.081
   29HOH     H1  273   2.813   2.473   3.115
   29HOH     H2  274   2.886   2.340   3.117
   30HOH      O  275   1.032   2.533   2.761
   30HOH     H1  276   1.083   2.496   2.833
   30HOH     H2  277   1.055   2.626   2.760
   31HOH      O  278   0.507   0.471   3.146
   31HOH     H1  279   0.468   0.444   3.229
   31HOH     H2  280   0.552   0.393   3.114
   32HOH      O  281   1.998   0.557   2.750
   32HOH     H1  282   1.983   0.563   2.844
   32HOH     H2  283   2.000   0.648   2.720
   33HOH      O  284   0.535   2.553   2.460
   33HOH     H1  285   0.540   2.624   2.397
   33HOH     H2  286   0.625   2.519   2.465
   34HOH      O  287   0.023   0.698   0.431
   34HOH     H1  288   0.025   0.615   0.478
   34HOH     H2  289   0.028   0.765   0.499
   35HOH      O  290   0.100   2.800   1.426
   35HOH     H1  291   0.079   2.881   1.471
   35HOH     H2  292   0.158   2.754   1.487
   36HOH      O  293   2.638   1.588   2.885
   36HOH     H1  294   2.601   1.597   2.973
   36HOH     H2  295   2.600   1.506   2.852
   37HOH      O  296   1.803   1.366   2.800
   37HOH     H1  297   1.744   1.363   2.875
   37HOH     H2  298   1.754   1.325   2.729
   38HOH      O  299   2.852   2.114   0.303
   38HOH     H1  300   2.893   2.064   0.232
   38HOH     H2  301   2.766   2.072   0.315
   39HOH      O  302   3.720   0.099   3.175
   39HOH     H1  303   3.806   0.088   3.216
   39HOH     H2  304   3.703   0.193   3.180
   40HOH      O  305   2.212   2.241   0.686
   40HOH     H1  306   2.150   2.185   0.639
   40HOH     H2  307   2.160   2.280   0.756
   41HOH      O  308   0.187   2.245   0.202
   41HOH     H1  309   0.161   2.157   0.229
   41HOH     H2  310   0.279   2.252   0.227
   42HOH      O  311   3.512   0.110   1.149
   42HOH     H1  312   3.440   0.107   1.213
   42HOH     H2  313   3.538   0.019   1.137
   43HOH      O  314   0.655   3.800   1.434
   43HOH     H1  315   0.578   3.835   1.389
   43HOH     H2  316   0.626   3.782   1.523
   44HOH      O  317   3.906   3.907   1.258
   44HOH     H1  318   3.992   3.887   1.295
   44HOH     H2  319   3.922   3.978   1.196
   45HOH      O  320   3.979   3.349   3.067
   45HOH     H1  321   3.948   3.439   3.072
   45HOH     H2  322   3.987   3.332   2.973
   46HOH      O  323   0.042   2.111   1.998
   46HOH     H1  324  -0.025   2.138   2.061
   46HOH     H2  325   0.017   2.156   1.917
   47HOH      O  326   0.911   0.351   4.003
   47HOH     H1  327   0.953   0.334   3.919
   47HOH     H2  328   0.975   0.324   4.068
   48HOH      O  329   1.999   1.751   2.893
   48HOH     H1  330   2.094   1.764   2.889
   48HOH     H2  331   1.987   1.662   2.926
   49HOH      O  332   0.933   2.363   3.140
   49HOH     H1  333   0.926   2.443   3.089
   49HOH     H2  334   1.005   2.379   3.201
   50HOH      O  335   2.524   3.605   0.155
   50HOH     H1  336   2.574   3.612   0.236
   50HOH     H2  337   2.568   3.535   0.106
   51HOH      O  338   2.170   2.559   1.661
   51HOH     H1  339   2.245   2.575   1.603
   51HOH     H2  340   2.209   2.552   1.749
   52HOH      O  341   3.161   0.312   1.459
   52HOH     H1  342   3.114   0.381   1.413
   52HOH     H2  343   3.093   0.259   1.500
   53HOH      O  344   2.030   3.449   3.043
   53HOH     H1  345   2.080   3.381   2.997
   53HOH     H2  346   1.981   3.493   2.973
   54HOH      O  347   2.083   0.519   0.108
   54HOH     H1  348   2.077   0.578   0.183
   54HOH     H2  349   2.170   0.536   0.072
   55HOH      O  350   1.294   0.438   2.898
   55HOH     H1  351   1.307   0.481   2.982
   55HOH     H2  352   1.371   0.462   2.847
   56HOH      O  353   2.450   3.498   0.713
   56HOH     H1  354   2.363   3.494   0.674
   56HOH     H2  355   2.507   3.456   0.648
   57HOH      O  356   0.482   0.156   0.722
   57HOH     H1  357   0.553   0.150   0.658
   57HOH     H2  358   0.523   0.189   0.801
   58HOH      O  359   0.712   1.133   2.364
   58HOH     H1  360   0.705   1.102   2.274
   58HOH     H2  361   0.712   1.054   2.418
   59HOH      O  362   2.391   1.035   2.092
   59HOH     H1  363   2.370   1.120   2.131
   59HOH     H2  364   2.376   0.971   2.161
   60HOH      O  365   0.274   2.616   0.824
   60HOH     H1  366   0.262   2.666   0.743
   60HOH     H2  367   0.271   2.524   0.795
   61HOH      O  368   1.719   1.629   0.654
   61HOH     H1  369   1.805   1.667   0.670
   61HOH     H2  370   1.731   1.535   0.668
   62HOH      O  371   3.908   3.066   0.626
   62HOH     H1  372   3.823   3.107   0.613
   62HOH     H2  373   3.971   3.130   0.595
   63HOH      O  374   0.071   3.206   0.917
   63HOH     H1  375   0.042   3.259   0.992
   63HOH     H2  376   0.030   3.247   0.841
   64HOH      O  377   2.725   3.825   2.097
   64HOH     H1  378   2.693   3.915   2.089
   64HOH     H2  379   2.710   3.787   2.010
   65HOH      O  380   2.991   0.109   1.808
   65HOH     H1  381   2.957   0.178   1.866
   65HOH     H2  382   3.031   0.046   1.868
   66HOH      O  383   2.637   2.069   1.483
   66HOH     H1  384   2.576   1.996   1.476
   66HOH     H2  385   2.589   2.143   1.445
   67HOH      O  386   3.546   3.450   1.530
   67HOH     H1  387   3.603   3.406   1.593
   67HOH     H2  388   3.538   3.539   1.564
   68HOH      O  389   2.425   1.797   0.591
   68HOH     H1  390   2.461   1.863   0.650
   68HOH     H2  391   2.367   1.845   0.533
   69HOH      O  392   2.535   3.508   1.621
   69HOH     H1  393   2.508   3.597   1.643
   69HOH     H2  394   2.458   3.470   1.580
   70HOH      O  395   3.986   0.332   0.587
   70HOH     H1  396   4.003   0.250   0.634
   70HOH     H2  397   3.899   0.358   0.616
   71HOH      O  398   0.090   1.766   1.031
   71HOH     H1  399   0.104   1.827   1.104
   71HOH     H2  400   0.100   1.819   0.952
   72HOH      O  401   4.004   2.761   0.946
   72HOH     H1  402   4.022   2.740   0.854
   72HOH     H2  403   4.010   2.677   0.991
   73HOH      O  404   0.411   3.215   0.813
   73HOH     H1  405   0.427   3.122   0.822
   73HOH     H2  406   0.385   3.227   0.722
   74HOH      O  407   2.922   3.165   1.616
   74HOH     H1  408   2.892   3.173   1.525
   74HOH     H2  409   2.898   3.248   1.657
   75HOH      O  410   3.729   2.814   3.072
   75HOH     H1  411   3.788   2.790   3.143
   75HOH     H2  412   3.786   2.831   2.998
   76HOH      O  413   2.673   3.021   0.544
   76HOH     H1  414   2.698   2.929   0.552
   76HOH     H2  415   2.578   3.019   0.532
   77HOH      O  416   0.042   3.743   2.424
   77HOH     H1  417   0.117   3.801   2.432
   77HOH     H2  418   0.002   3.743   2.511
   78HOH      O  419   3.211   3.910   1.992
   78HOH     H1  420   3.304   3.934   1.992
   78HOH     H2  421   3.196   3.873   1.905
   79HOH      O  422   0.597   2.358   3.450
   79HOH     H1  423   0.595   2.363   3.545
   79HOH     H2  424   0.505   2.347   3.424
   80HOH      O  425   0.824   3.457   3.153
   80HOH     H1  426   0.812   3.386   3.217
   80HOH     H2  427   0.740   3.503   3.153
   81HOH      O  428   3.732   1.715   2.988
   81HOH     H1  429   3.795   1.783   3.010
   81HOH     H2  430   3.665   1.721   3.055
   82HOH      O  431   1.060   3.398   1.129
   82HOH     H1  432   1.051   3.485   1.090
   82HOH     H2  433   0.991   3.346   1.086
   83HOH      O  434   2.662   2.400   2.508
   83HOH     H1  435   2.697   2.326   2.458
   83HOH     H2  436   2.648   2.468   2.442
   84HOH      O  437   0.951   1.762   2.712
   84HOH     H1  438   0.862   1.733   2.733
   84HOH     H2  439   0.948   1.782   2.618
   85HOH      O  440   1.555   1.864   2.702
   85HOH     H1  441   1.621   1.800   2.732
   85HOH     H2  442   1.533   1.913   2.781
   86HOH      O  443   2.713   2.224   2.087
   86HOH     H1  444   2.761   2.211   2.169
   86HOH     H2  445   2.664   2.142   2.075
   87HOH      O  446   3.563   0.533   0.296
   87HOH     H1  447   3.545   0.607   0.354
   87HOH     H2  448   3.520   0.556   0.214
   88HOH      O  449   0.680   0.490   0.086
   88HOH     H1  450   0.748   0.434   0.050
   88HOH     H2  451   0.599   0.458   0.045
   89HOH      O  452   3.038   2.036   2.835
   89HOH     H1  453   2.963   1.978   2.847
   89HOH     H2  454   3.113   1.976   2.829
   90HOH      O  455   3.976   2.584   1.705
   90HOH     H1  456   3.912   2.515   1.723
   90HOH     H2  457   3.997   2.573   1.612
   91HOH      O  458   3.455   1.603   2.667
   91HOH     H1  459   3.432   1.619   2.759
   91HOH     H2  460   3.549   1.586   2.668
   92HOH      O  461   0.504   0.460   2.800
   92HOH     H1  462   0.428   0.450   2.858
   92HOH     H2  463   0.553   0.533   2.837
   93HOH      O  464   1.132   1.914   3.429
   93HOH     H1  465   1.040   1.934   3.445
   93HOH     H2  466   1.162   1.869   3.508
   94HOH      O  467   2.664   1.135   1.651
   94HOH     H1  468   2.666   1.040   1.642
   94HOH     H2  469   2.576   1.155   1.682
   95HOH      O  470   1.501   2.043   4.022
   95HOH     H1  471   1.523   2.134   4.042
   95HOH     H2  472   1.586   1.999   4.016
   96HOH      O  473   2.087   3.874   3.170
   96HOH     H1  474   2.111   3.930   3.096
   96HOH     H2  475   2.161   3.881   3.230
   97HOH      O  476   1.394   0.575   0.889
   97HOH     H1  477   1.364   0.638   0.955
   97HOH     H2  478   1.487   0.595   0.879
   98HOH      O  479   0.532   3.030   1.259
   98HOH     H1  480   0.618   2.991   1.243
   98HOH     H2  481   0.470   2.964   1.229
   99HOH      O  482   0.156   2.938   0.341
   99HOH     H1  483   0.214   3.001   0.384
   99HOH     H2  484   0.212   2.862   0.323
  100HOH      O  485   3.917   1.904   3.003
  100HOH     H1  486   3.990   1.921   3.063
  100HOH     H2  487   3.877   1.989   2.989
  101HOH      O  488   2.299   3.783   3.621
  101HOH     H1  489   2.368   3.726   3.586
  101HOH     H2  490   2.335   3.818   3.702
  102HOH      O  491   3.198   2.516   2.301
  102HOH     H1  492   3.155   2.432   2.317
  102HOH     H2  493   3.253   2.530   2.378
  103HOH      O  494   1.522   0.430   2.729
  103HOH     H1  495   1.461   0.433   2.656
  103HOH     H2  496   1.596   0.485   2.701
  104HOH      O  497   0.413   2.185   0.344
  104HOH     H1  498   0.392   2.101   0.386
  104HOH     H2  499   0.508   2.192   0.353
  105HOH      O  500   3.568   2.860   0.433
  105HOH     H1  501   3.499   2.814   0.479
  105HOH     H2  502   3.636   2.793   0.420
  106HOH      O  503   3.885   3.830   1.761
  106HOH     H1  504   3.869   3.877   1.842
  106HOH     H2  505   3.977   3.805   1.765
  107HOH      O  506   0.198   3.892   0.384
  107HOH     H1  507   0.205   3.817   0.443
  107HOH     H2  508   0.267   3.952   0.413
  108HOH      O  509   1.443   2.493   2.188
  108HOH     H1  510   1.524   2.476   2.235
  108HOH     H2  511   1.430   2.588   2.196
  109HOH      O  512   1.154   2.882   3.526
  109HOH     H1  513   1.077   2.832   3.498
  109HOH     H2  514   1.119   2.964   3.559
  110HOH      O  515   3.332   1.256   1.598
  110HOH     H1  516   3.274   1.313   1.547
  110HOH     H2  517   3.418   1.266   1.555
  111HOH      O  518   1.175   0.354   0.469
  111HOH     H1  519   1.164   0.418   0.399
  111HOH     H2  520   1.198   0.406   0.546
  112HOH      O  521   4.011   2.693   3.892
  112HOH     H1  522   3.988   2.756   3.824
  112HOH     H2  523   4.054   2.745   3.960
  113HOH      O  524   2.512   2.637   0.806
  113HOH     H1  525   2.425   2.596   0.808
  113HOH     H2  526   2.543   2.622   0.717
  114HOH      O  527   3.431   0.886   2.015
  114HOH     H1  528   3.526   0.875   2.013
  114HOH     H2  529   3.406   0.861   2.104
  115HOH      O  530   2.669   0.878   0.975
  115HOH     H1  531   2.587   0.831   0.988
  115HOH     H2  532   2.735   0.821   1.014
  116HOH      O  533   3.392   2.285   0.948
  116HOH     H1  534   3.358   2.272   0.859
  116HOH     H2  535   3.482   2.254   0.943
  117HOH      O  536   3.266   3.762   1.389
  117HOH     H1  537   3.185   3.737   1.344
  117HOH     H2  538   3.304   3.831   1.334
  118HOH      O  539   2.694   2.326   3.736
  118HOH     H1  540   2.733   2.253   3.688
  118HOH     H2  541   2.657   2.286   3.815
  119HOH      O  542   1.293   0.703   1.113
  119HOH     H1  543   1.321   0.784   1.155
  119HOH     H2  544   1.298   0.637   1.182
  120HOH      O  545   0.028   3.299   1.858
  120HOH     H1  546   0.079   3.303   1.939
  120HOH     H2  547   0.013   3.205   1.844
  121HOH      O  548   2.773   1.358   1.416
  121HOH     H1  549   2.789   1.283   1.359
  121HOH     H2  550   2.833   1.426   1.383
  122HOH      O  551   1.118   1.661   0.369
  122HOH     H1  552   1.203   1.646   0.328
  122HOH     H2  553   1.135   1.726   0.437
  123HOH      O  554   1.688   3.583   1.484
  123HOH     H1  555   1.743   3.548   1.414
  123HOH     H2  556   1.725   3.547   1.564
  124HOH      O  557   0.215   3.313   1.219
  124HOH     H1  558   0.136   3.335   1.170
  124HOH     H2  559   0.218   3.217   1.218
  125HOH      O  560   1.750   3.913   2.779
  125HOH     H1  561   1.811   3.972   2.734
  125HOH     H2  562   1.756   3.831   2.730
  126HOH      O  563   2.610   2.896   3.804
  126HOH     H1  564   2.520   2.922   3.783
  126HOH     H2  565   2.629   2.826   3.742
  127HOH      O  566   1.488   3.375   3.714
  127HOH     H1  567   1.534   3.401   3.794
  127HOH     H2  568   1.439   3.297   3.738
  128HOH      O  569   0.763   0.069   2.507
  128HOH     H1  570   0.757   0.080   2.602
  128HOH     H2  571   0.706  -0.005   2.488
  129HOH      O  572   2.325   1.008   1.035
  129HOH     H1  573   2.248   0.956   1.009
  129HOH     H2  574   2.389   0.942   1.063
  130HOH      O  575   2.465   2.223   0.372
  130HOH     H1  576   2.514   2.145   0.344
  130HOH     H2  577   2.490   2.234   0.464
  131HOH      O  578   2.012   0.855   2.246
  131HOH     H1  579   2.015   0.860   2.342
  131HOH     H2  580   1.994   0.945   2.218
  132HOH      O  581   0.577   0.911   1.796
  132HOH     H1  582   0.601   0.989   1.846
  132HOH     H2  583   0.605   0.930   1.707
  133HOH      O  584   3.114   3.465   3.495
  133HOH     H1  585   3.149   3.551   3.521
  133HOH     H2  586   3.066   3.482   3.414
  134HOH      O  587   1.513   1.690   3.258
  134HOH     H1  588   1.512   1.603   3.297
  134HOH     H2  589   1.442   1.688   3.194
  135HOH      O  590   2.850   2.255   2.343
  135HOH     H1  591   2.886   2.167   2.350
  135HOH     H2  592   2.922   2.307   2.308
  136HOH      O  593   0.296   1.065   0.945
  136HOH     H1  594   0.378   1.016   0.944
  136HOH     H2  595   0.261   1.052   1.032
  137HOH      O  596   2.007   2.984   3.650
  137HOH     H1  597   2.029   2.903   3.696
  137HOH     H2  598   2.014   3.052   3.717
  138HOH      O  599   0.393   0.551   3.978
  138HOH     H1  600   0.392   0.456   3.981
  138HOH     H2  601   0.317   0.575   3.925
  139HOH      O  602   0.974   2.140   0.666
  139HOH     H1  603   0.917   2.090   0.724
  139HOH     H2  604   0.918   2.210   0.631
  140HOH      O  605   2.270   2.328   3.438
  140HOH     H1  606   2.342   2.389   3.457
  140HOH     H2  607   2.308   2.241   3.452
  141HOH      O  608   2.279   3.176   1.770
  141HOH     H1  609   2.231   3.212   1.695
  141HOH     H2  610   2.365   3.153   1.735
  142HOH      O  611   0.654   0.701   2.961
  142HOH     H1  612   0.693   0.762   2.899
  142HOH     H2  613   0.599   0.756   3.017
  143HOH      O  614   1.223   1.307   0.800
  143HOH     H1  615   1.311   1.343   0.794
  143HOH     H2  616   1.169   1.380   0.831
  144HOH      O  617   1.434   3.223   0.632
  144HOH     H1  618   1.385   3.220   0.550
  144HOH     H2  619   1.479   3.138   0.636
  145HOH      O  620   2.486   1.240   1.193
  145HOH     H1  621   2.419   1.221   1.258
  145HOH     H2  622   2.497   1.335   1.198
  146HOH      O  623   3.759   0.906   2.957
  146HOH     H1  624   3.711   0.850   3.017
  146HOH     H2  625   3.846   0.867   2.951
  147HOH      O  626   3.903   2.009   2.426
  147HOH     H1  627   3.959   2.028   2.351
  147HOH     H2  628   3.955   2.035   2.502
  148HOH      O  629   0.744   1.887   2.244
  148HOH     H1  630   0.732   1.804   2.197
  148HOH     H2  631   0.657   1.927   2.242
  149HOH      O  632   0.280   2.631   0.103
  149HOH     H1  633   0.343   2.590   0.163
  149HOH     H2  634   0.196   2.595   0.130
  150HOH      O  635   2.649   3.572   2.719
  150HOH     H1  636   2.733   3.526   2.723
  150HOH     H2  637   2.609   3.556   2.805
  151HOH      O  638   0.185   3.606   2.932
  151HOH     H1  639   0.188   3.687   2.882
  151HOH     H2  640   0.108   3.560   2.900
  152HOH      O  641   1.315   1.424   0.418
  152HOH     H1  642   1.357   1.496   0.372
  152HOH     H2  643   1.304   1.356   0.351
  153HOH      O  644   1.513   2.687   2.507
  153HOH     H1  645   1.543   2.606   2.549
  153HOH     H2  646   1.418   2.678   2.504
  154HOH      O  647   1.802   3.090   1.637
  154HOH     H1  648   1.801   3.003   1.678
  154HOH     H2  649   1.797   3.072   1.543
  155HOH      O  650   0.883   2.241   3.417
  155HOH     H1  651   0.946   2.310   3.401
  155HOH     H2  652   0.866   2.245   3.512
  156HOH      O  653   3.455   2.592   1.209
  156HOH     H1  654   3.447   2.614   1.302
  156HOH     H2  655   3.458   2.497   1.207
  157HOH      O  656   3.356   2.663   0.940
  157HOH     H1  657   3.381   2.663   1.032
  157HOH     H2  658   3.384   2.749   0.908
  158HOH      O  659   1.064   2.133   3.661
  158HOH     H1  660   1.103   2.058   3.706
  158HOH     H2  661   0.972   2.133   3.690
  159HOH      O  662   0.919   3.478   3.806
  159HOH     H1  663   0.890   3.424   3.880
  159HOH     H2  664   0.895   3.567   3.831
  160HOH      O  665   0.046   1.296   1.505
  160HOH     H1  666  -0.011   1.372   1.513
  160HOH     H2  667   0.123   1.318   1.558
  161HOH      O  668   1.543   2.285   1.078
  161HOH     H1  669   1.604   2.346   1.119
  161HOH     H2  670   1.589   2.254   1.000
  162HOH      O  671   0.227   0.866   3.022
  162HOH     H1  672   0.265   0.817   3.095
  162HOH     H2  673   0.213   0.954   3.057
  163HOH      O  674   3.540   3.910   1.608
  163HOH     H1  675   3.557   3.835   1.666
  163HOH     H2  676   3.534   3.871   1.521
  164HOH      O  677   2.033   0.308   3.737
  164HOH     H1  678   2.026   0.213   3.749
  164HOH     H2  679   2.110   0.319   3.680
  165HOH      O  680   3.676   1.072   3.223
  165HOH     H1  681   3.585   1.063   3.193
  165HOH     H2  682   3.686   1.164   3.244
  166HOH      O  683   2.134   1.659   2.099
  166HOH     H1  684   2.228   1.670   2.086
  166HOH     H2  685   2.126   1.633   2.191
  167HOH      O  686   0.198   2.512   3.882
  167HOH     H1  687   0.107   2.486   3.871
  167HOH     H2  688   0.200   2.558   3.967
  168HOH      O  689   0.780   2.347   0.962
  168HOH     H1  690   0.806   2.260   0.931
  168HOH     H2  691   0.727   2.383   0.892
  169HOH      O  692   0.001   2.308   1.479
  169HOH     H1  693  -0.054   2.243   1.435
  169HOH     H2  694  -0.027   2.392   1.445
  170HOH      O  695   0.799   1.633   3.443
  170HOH     H1  696   0.852   1.641   3.364
  170HOH     H2  697   0.795   1.723   3.478
  171HOH      O  698   0.397   2.147   2.446
  171HOH     H1  699   0.416   2.240   2.451
  171HOH     H2  700   0.463   2.106   2.502
  172HOH      O  701   2.096   1.928   3.302
  172HOH     H1  702   2.180   1.885   3.283
  172HOH     H2  703   2.036   1.856   3.320
  173HOH      O  704   3.264   2.625   3.182
  173HOH     H1  705   3.218   2.624   3.265
  173HOH     H2  706   3.315   2.706   3.184
  174HOH      O  707   0.176   2.597   0.467
  174HOH     H1  708   0.179   2.536   0.393
  174HOH     H2  709   0.089   2.636   0.463
  175HOH      O  710   3.431   2.207   2.188
  175HOH     H1  711   3.497   2.172   2.248
  175HOH     H2  712   3.470   2.287   2.153
  176HOH      O  713   0.988   0.615   1.275
  176HOH     H1  714   1.045   0.648   1.344
  176HOH     H2  715   0.989   0.684   1.208
  177HOH      O  716   1.743   0.123   0.572
  177HOH     H1  717   1.786   0.038   0.573
  177HOH     H2  718   1.738   0.146   0.479
  178HOH      O  719   0.279   3.140   1.494
  178HOH     H1  720   0.226   3.089   1.555
  178HOH     H2  721   0.239   3.122   1.408
  179HOH      O  722   1.771   0.100   3.278
  179HOH     H1  723   1.693   0.077   3.229
  179HOH     H2  724   1.822   0.019   3.282
  180HOH      O  725   2.157   2.555   0.461
  180HOH     H1  726   2.193   2.538   0.374
  180HOH     H2  727   2.071   2.513   0.460
  181HOH      O  728   2.100   1.528   3.351
  181HOH     H1  729   2.127   1.488   3.434
  181HOH     H2  730   2.051   1.606   3.377
  182HOH      O  731   2.253   2.041   0.961
  182HOH     H1  732   2.275   2.119   1.012
  182HOH     H2  733   2.224   1.978   1.026
  183HOH      O  734   0.265   3.697   0.538
  183HOH     H1  735   0.330   3.633   0.569
  183HOH     H2  736   0.186   3.644   0.522
  184HOH      O  737   2.462   3.074   1.186
  184HOH     H1  738   2.388   3.131   1.164
  184HOH     H2  739   2.453   2.999   1.127
  185HOH      O  740   1.193   0.321   3.323
  185HOH     H1  741   1.276   0.350   3.361
  185HOH     H2  742   1.211   0.231   3.295
  186HOH      O  743   3.268   0.230   2.009
  186HOH     H1  744   3.334   0.193   2.068
  186HOH     H2  745   3.320   0.269   1.939
  187HOH      O  746   0.111   1.865   2.147
  187HOH     H1  747   0.119   1.945   2.094
  187HOH     H2  748   0.057   1.890   2.221
  188HOH      O  749   4.021   1.479   2.989
  188HOH     H1  750   4.011   1.545   3.058
  188HOH     H2  751   3.943   1.425   2.997
  189HOH      O  752   2.897   1.758   3.661
  189HOH     H1  753   2.804   1.743   3.673
  189HOH     H2  754   2.933   1.671   3.643
  190HOH      O  755   2.571   3.727   0.539
  190HOH     H1  756   2.494   3.679   0.571
  190HOH     H2  757   2.536   3.786   0.472
  191HOH      O  758   3.359   0.197   3.162
  191HOH     H1  759   3.454   0.211   3.158
  191HOH     H2  760   3.322   0.275   3.120
  192HOH      O  761   2.078   1.811   0.205
  192HOH     H1  762   2.166   1.820   0.169
  192HOH     H2  763   2.029   1.884   0.168
  193HOH      O  764   3.816   3.464   3.528
  193HOH     H1  765   3.778   3.524   3.464
  193HOH     H2  766   3.845   3.389   3.476
  194HOH      O  767   3.988   3.009   1.092
  194HOH     H1  768   4.008   3.063   1.016
  194HOH     H2  769   4.004   2.920   1.063
  195HOH      O  770   3.315   2.905   2.961
  195HOH     H1  771   3.244   2.850   2.927
  195HOH     H2  772   3.271   2.964   3.023
  196HOH      O  773   0.659   1.775   0.414
  196HOH     H1  774   0.689   1.708   0.352
  196HOH     H2  775   0.700   1.751   0.497
  197HOH      O  776   3.851   0.266   3.455
  197HOH     H1  777   3.756   0.264   3.463
  197HOH     H2  778   3.879   0.177   3.480
  198HOH      O  779   2.195   2.228   0.364
  198HOH     H1  780   2.286   2.247   0.384
  198HOH     H2  781   2.163   2.307   0.319
  199HOH      O  782   0.303   1.233   2.352
  199HOH     H1  783   0.343   1.217   2.438
  199HOH     H2  784   0.351   1.308   2.317
  200HOH      O  785   0.199   1.016   1.203
  200HOH     H1  786   0.148   1.089   1.236
  200HOH     H2  787   0.259   0.994   1.274
  201HOH      O  788   2.378   1.336   2.134
  201HOH     H1  789   2.473   1.323   2.143
  201HOH     H2  790   2.349   1.360   2.222
  202HOH      O  791   3.933   0.039   1.589
  202HOH     H1  792   4.013   0.027   1.537
  202HOH     H2  793   3.927  -0.039   1.643
  203HOH      O  794   3.979   2.520   1.098
  203HOH     H1  795   3.954   2.444   1.045
  203HOH     H2  796   3.924   2.513   1.176
  204HOH      O  797   1.993   0.917   1.786
  204HOH     H1  798   1.923   0.879   1.839
  204HOH     H2  799   2.074   0.885   1.826
  205HOH      O  800   3.229   1.499   0.306
  205HOH     H1  801   3.311   1.496   0.355
  205HOH     H2  802   3.200   1.407   0.303
  206HOH      O  803   2.951   0.009   3.479
  206HOH     H1  804   2.967   0.039   3.568
  206HOH     H2  805   2.885  -0.060   3.488
  207HOH      O  806   1.227   2.709   3.707
  207HOH     H1  807   1.195   2.773   3.644
  207HOH     H2  808   1.171   2.632   3.695
  208HOH      O  809   3.956   1.744   3.513
  208HOH     H1  810   3.967   1.829   3.471
  208HOH     H2  811   3.862   1.733   3.523
  209HOH      O  812   3.744   0.011   0.524
  209HOH     H1  813   3.813  -0.053   0.542
  209HOH     H2  814   3.780   0.065   0.454
  210HOH      O  815   3.058   0.798   1.460
  210HOH     H1  816   3.015   0.731   1.513
  210HOH     H2  817   3.019   0.880   1.488
  211HOH      O  818   3.396   3.318   1.011
  211HOH     H1  819   3.375   3.284   1.098
  211HOH     H2  820   3.346   3.399   1.004
  212HOH      O  821   3.380   2.952   2.442
  212HOH     H1  822   3.291   2.987   2.438
  212HOH     H2  823   3.407   2.966   2.532
  213HOH      O  824   2.409   3.856   1.173
  213HOH     H1  825   2.500   3.881   1.190
  213HOH     H2  826   2.378   3.820   1.256
  214HOH      O  827   2.601   2.629   3.944
  214HOH     H1  828   2.630   2.573   3.873
  214HOH     H2  829   2.676   2.686   3.963
  215HOH      O  830   3.976   0.555   2.268
  215HOH     H1  831   3.892   0.600   2.254
  215HOH     H2  832   4.026   0.615   2.323
  216HOH      O  833   2.820   3.059   0.877
  216HOH     H1  834   2.868   3.126   0.830
  216HOH     H2  835   2.876   2.981   0.872
  217HOH      O  836   1.385   0.233   1.158
  217HOH     H1  837   1.390   0.257   1.066
  217HOH     H2  838   1.337   0.150   1.158
  218HOH      O  839   0.487   0.441   1.668
  218HOH     H1  840   0.559   0.397   1.623
  218HOH     H2  841   0.473   0.522   1.618
  219HOH      O  842   0.398   3.752   0.267
  219HOH     H1  843   0.321   3.776   0.318
  219HOH     H2  844   0.389   3.800   0.185
  220HOH      O  845   2.943   1.071   1.493
  220HOH     H1  846   2.981   1.119   1.419
  220HOH     H2  847   2.933   1.137   1.562
  221HOH      O  848   0.069   1.881   1.833
  221HOH     H1  849   0.086   1.878   1.739
  221HOH     H2  850   0.052   1.973   1.852
  222HOH      O  851   1.163   1.875   1.683
  222HOH     H1  852   1.114   1.956   1.673
  222HOH     H2  853   1.248   1.893   1.642
  223HOH      O  854   2.366   0.391   2.829
  223HOH     H1  855   2.331   0.450   2.895
  223HOH     H2  856   2.313   0.406   2.751
  224HOH      O  857   1.831   3.606   3.865
  224HOH     H1  858   1.769   3.664   3.821
  224HOH     H2  859   1.843   3.644   3.952
  225HOH      O  860   2.554   1.591   3.155
  225HOH     H1  861   2.578   1.511   3.203
  225HOH     H2  862   2.462   1.579   3.133
  226HOH      O  863   2.883   2.772   3.930
  226HOH     H1  864   2.930   2.852   3.908
  226HOH     H2  865   2.926   2.703   3.880
  227HOH      O  866   3.367   0.794   1.664
  227HOH     H1  867   3.433   0.837   1.609
  227HOH     H2  868   3.364   0.704   1.631
  228HOH      O  869   2.913   3.131   2.088
  228HOH     H1  870   2.837   3.114   2.032
  228HOH     H2  871   2.880   3.120   2.177
  229HOH      O  872   2.582   0.583   2.778
  229HOH     H1  873   2.623   0.559   2.695
  229HOH     H2  874   2.520   0.512   2.796
  230HOH      O  875   0.607   3.610   0.851
  230HOH     H1  876   0.662   3.548   0.899
  230HOH     H2  877   0.581   3.563   0.772
  231HOH      O  878   0.825   2.971   1.472
  231HOH     H1  879   0.739   2.981   1.513
  231HOH     H2  880   0.807   2.973   1.378
  232HOH      O  881   2.198   0.002   3.622
  232HOH     H1  882   2.204   0.027   3.714
  232HOH     H2  883   2.230  -0.088   3.619
  233HOH      O  884   2.582   1.890   3.769
  233HOH     H1  885   2.570   1.930   3.855
  233HOH     H2  886   2.495   1.892   3.729
  234HOH      O  887   4.000   1.803   3.866
  234HOH     H1  888   3.915   1.816   3.823
  234HOH     H2  889   4.052   1.878   3.839
  235HOH      O  890   1.763   3.492   3.069
  235HOH     H1  891   1.741   3.543   3.148
  235HOH     H2  892   1.832   3.432   3.098
  236HOH      O  893   0.020   1.347   3.464
  236HOH     H1  894   0.021   1.270   3.521
  236HOH     H2  895   0.101   1.394   3.486
  237HOH      O  896   1.808   1.908   3.046
  237HOH     H1  897   1.894   1.883   3.012
  237HOH     H2  898   1.765   1.825   3.068
  238HOH      O  899   1.519   1.332   0.147
  238HOH     H1  900   1.565   1.257   0.110
  238HOH     H2  901   1.445   1.294   0.194
  239HOH      O  902   0.421   2.459   1.697
  239HOH     H1  903   0.517   2.466   1.691
  239HOH     H2  904   0.405   2.436   1.789
  240HOH      O  905   0.542   1.486   2.882
  240HOH     H1  906   0.490   1.417   2.922
  240HOH     H2  907   0.558   1.456   2.793
  241HOH      O  908   1.050   3.136   3.619
  241HOH     H1  909   0.972   3.146   3.673
  241HOH     H2  910   1.089   3.223   3.616
  242HOH      O  911   3.653   3.150   2.482
  242HOH     H1  912   3.589   3.084   2.508
  242HOH     H2  913   3.677   3.193   2.564
  243HOH      O  914   0.911   2.820   3.955
  243HOH     H1  915   0.967   2.742   3.952
  243HOH     H2  916   0.883   2.826   4.046
  244HOH      O  917   1.555   3.797   0.605
  244HOH     H1  918   1.530   3.842   0.685
  244HOH     H2  919   1.623   3.852   0.567
  245HOH      O  920   1.907   2.785   3.427
  245HOH     H1  921   1.957   2.863   3.403
  245HOH     H2  922   1.843   2.816   3.491
  246HOH      O  923   2.903   3.171   2.997
  246HOH     H1  924   2.908   3.185   2.903
  246HOH     H2  925   2.989   3.198   3.030
  247HOH      O  926   0.327   0.767   1.846
  247HOH     H1  927   0.415   0.805   1.840
  247HOH     H2  928   0.282   0.800   1.768
  248HOH      O  929   1.297   3.470   2.436
  248HOH     H1  930   1.316   3.410   2.508
  248HOH     H2  931   1.279   3.553   2.478
  249HOH      O  932   3.274   0.049   1.355
  249HOH     H1  933   3.267  -0.010   1.430
  249HOH     H2  934   3.247   0.134   1.389
  250HOH      O  935   0.848   3.224   0.024
  250HOH     H1  936   0.846   3.308   0.069
  250HOH     H2  937   0.917   3.174   0.068
  251HOH      O  938   0.336   1.804   1.315
  251HOH     H1  939   0.407   1.836   1.259
  251HOH     H2  940   0.370   1.816   1.404
  252HOH      O  941   1.444   2.888   0.989
  252HOH     H1  942   1.461   2.944   1.064
  252HOH     H2  943   1.450   2.799   1.023
  253HOH      O  944   0.649   1.642   1.889
  253HOH     H1  945   0.569   1.676   1.849
  253HOH     H2  946   0.707   1.718   1.898
  254HOH      O  947   3.319   3.579   1.020
  254HOH     H1  948   3.408   3.607   1.042
  254HOH     H2  949   3.277   3.659   0.988
  255HOH      O  950   1.197   2.848   0.223
  255HOH     H1  951   1.129   2.902   0.264
  255HOH     H2  952   1.246   2.812   0.296
  256HOH      O  953   0.832   2.060   1.240
  256HOH     H1  954   0.802   2.029   1.325
  256HOH     H2  955   0.928   2.060   1.247
  257HOH      O  956   0.482   0.665   0.494
  257HOH     H1  957   0.557   0.648   0.437
  257HOH     H2  958   0.429   0.729   0.445
  258HOH      O  959   4.024   1.091   3.537
  258HOH     H1  960   3.969   1.065   3.463
  258HOH     H2  961   3.985   1.045   3.612
  259HOH      O  962   2.631   2.671   2.973
  259HOH     H1  963   2.625   2.631   2.886
  259HOH     H2  964   2.679   2.753   2.957
  260HOH      O  965   0.790   3.234   3.347
  260HOH     H1  966   0.795   3.298   3.419
  260HOH     H2  967   0.704   3.194   3.357
  261HOH      O  968   2.835   3.094   1.170
  261HOH     H1  969   2.872   3.182   1.181
  261HOH     H2  970   2.848   3.074   1.077
  262HOH      O  971   0.972   1.055   0.930
  262HOH     H1  972   1.046   1.082   0.876
  262HOH     H2  973   0.922   0.996   0.874
  263HOH      O  974   1.182   3.710   0.693
  263HOH     H1  975   1.203   3.760   0.772
  263HOH     H2  976   1.160   3.623   0.725
  264HOH      O  977   0.053   3.242   3.539
  264HOH     H1  978   0.085   3.244   3.449
  264HOH     H2  979   0.075   3.329   3.574
  265HOH      O  980   3.000   0.308   2.069
  265HOH     H1  981   3.081   0.260   2.050
  265HOH     H2  982   2.985   0.293   2.163
  266HOH      O  983   0.997   0.761   2.894
  266HOH     H1  984   0.979   0.670   2.870
  266HOH     H2  985   0.910   0.799   2.908
  267HOH      O  986   4.003   0.975   2.093
  267HOH     H1  987   3.931   0.981   2.156
  267HOH     H2  988   3.964   0.936   2.015
  268HOH      O  989   0.059   0.140   0.754
  268HOH     H1  990   0.083   0.200   0.824
  268HOH     H2  991   0.119   0.066   0.763
  269HOH      O  992   2.167   2.691   0.940
  269HOH     H1  993   2.168   2.602   0.904
  269HOH     H2  994   2.195   2.747   0.867
  270HOH      O  995   2.157   0.344   2.565
  270HOH     H1  996   2.244   0.365   2.530
  270HOH     H2  997   2.119   0.429   2.587
  271HOH      O  998   3.793   2.472   0.069
  271HOH     H1  999   3.844   2.473  -0.012
  271HOH     H2 1000   3.730   2.544   0.058
  272HOH      O 1001   1.055   2.842   1.207
  272HOH     H1 1002   1.044   2.935   1.228
  272HOH     H2 1003   1.129   2.814   1.260
  273HOH      O 1004   0.354   2.285   1.017
  273HOH     H1 1005   0.386   2.374   1.029
  273HOH     H2 1006   0.365   2.243   1.102
  274HOH      O 1007   2.786   3.114   3.769
  274HOH     H1 1008   2.859   3.103   3.830
  274HOH     H2 1009   2.726   3.042   3.790
  275HOH      O 1010   1.071   2.113   3.056
  275HOH     H1 1011   1.050   2.206   3.045
  275HOH     H2 1012   1.021   2.087   3.134
  276HOH      O 1013   3.685   1.467   2.592
  276HOH     H1 1014   3.765   1.445   2.640
  276HOH     H2 1015   3.678   1.399   2.525
  277HOH      O 1016   1.840   3.587   2.094
  277HOH     H1 1017   1.887   3.630   2.022
  277HOH     H2 1018   1.865   3.638   2.172
  278HOH      O 1019   0.791   3.368   3.577
  278HOH     H1 1020   0.807   3.434   3.644
  278HOH     H2 1021   0.791   3.285   3.624
  279HOH      O 1022   3.073   2.447   0.356
  279HOH     H1 1023   3.073   2.541   0.376
  279HOH     H2 1024   2.985   2.417   0.380
  280HOH      O 1025   0.528   1.008   3.136
  280HOH     H1 1026   0.513   1.064   3.212
  280HOH     H2 1027   0.475   0.930   3.152
  281HOH      O 1028   0.792   2.261   2.786
  281HOH     H1 1029   0.844   2.330   2.744
  281HOH     H2 1030   0.857   2.198   2.817
  282HOH      O 1031   1.290   3.123   2.909
  282HOH     H1 1032   1.342   3.186   2.959
  282HOH     H2 1033   1.213   3.107   2.964
  283HOH      O 1034   2.761   3.376   1.540
  283HOH     H1 1035   2.704   3.354   1.465
  283HOH     H2 1036   2.703   3.420   1.602
  284HOH      O 1037   2.549   0.840   1.718
  284HOH     H1 1038   2.587   0.907   1.775
  284HOH     H2 1039   2.455   0.843   1.736
  285HOH      O 1040   1.694   1.166   0.053
  285HOH     H1 1041   1.745   1.124   0.122
  285HOH     H2 1042   1.699   1.106  -0.021
  286HOH      O 1043   0.871   2.787   0.205
  286HOH     H1 1044   0.914   2.745   0.280
  286HOH     H2 1045   0.809   2.848   0.245
  287HOH      O 1046   2.029   3.925   2.198
  287HOH     H1 1047   2.088   3.929   2.123
  287HOH     H2 1048   1.954   3.979   2.172
  288HOH      O 1049   0.684   0.946   1.534
  288HOH     H1 1050   0.714   0.911   1.450
  288HOH     H2 1051   0.761   0.992   1.569
  289HOH      O 1052   0.610   2.492   3.719
  289HOH     H1 1053   0.530   2.542   3.710
  289HOH     H2 1054   0.675   2.555   3.750
  290HOH      O 1055   0.362   0.445   0.827
  290HOH     H1 1056   0.340   0.538   0.823
  290HOH     H2 1057   0.434   0.440   0.891
  291HOH      O 1058   3.234   1.952   1.002
  291HOH     H1 1059   3.282   2.031   0.976
  291HOH     H2 1060   3.207   1.913   0.919
  292HOH      O 1061   0.450   0.628   1.112
  292HOH     H1 1062   0.434   0.669   1.027
  292HOH     H2 1063   0.363   0.617   1.150
  293HOH      O 1064   3.135   1.224   2.958
  293HOH     H1 1065   3.053   1.252   2.917
  293HOH     H2 1066   3.164   1.300   3.009
  294HOH      O 1067   3.914   3.068   3.409
  294HOH     H1 1068   3.912   3.161   3.389
  294HOH     H2 1069   3.960   3.063   3.493
  295HOH      O 1070   2.012   3.584   1.702
  295HOH     H1 1071   1.997   3.662   1.755
  295HOH     H2 1072   1.934   3.530   1.716
  296HOH      O 1073   3.607   2.455   2.192
  296HOH     H1 1074   3.530   2.505   2.164
  296HOH     H2 1075   3.591   2.437   2.285
  297HOH      O 1076   2.629   3.356   0.542
  297HOH     H1 1077   2.597   3.278   0.498
  297HOH     H2 1078   2.721   3.336   0.562
  298HOH      O 1079   3.411   1.330   2.708
  298HOH     H1 1080   3.414   1.294   2.619
  298HOH     H2 1081   3.428   1.424   2.696
  299HOH      O 1082   0.802   2.040   3.912
  299HOH     H1 1083   0.765   1.963   3.954
  299HOH     H2 1084   0.806   2.106   3.981
  300HOH      O 1085   0.982   0.677   0.449
  300HOH     H1 1086   1.046   0.738   0.485
  300HOH     H2 1087   0.908   0.732   0.424
  301HOH      O 1088   2.837   3.928   1.423
  301HOH     H1 1089   2.809   3.850   1.472
  301HOH     H2 1090   2.884   3.892   1.347
  302HOH      O 1091   1.189   3.932   1.204
  302HOH     H1 1092   1.159   4.008   1.155
  302HOH     H2 1093   1.110   3.884   1.227
  303HOH      O 1094   2.836   3.255   0.181
  303HOH     H1 1095   2.892   3.257   0.104
  303HOH     H2 1096   2.822   3.347   0.203
  304HOH      O 1097   2.582   0.733   1.419
  304HOH     H1 1098   2.650   0.786   1.462
  304HOH     H2 1099   2.591   0.755   1.326
  305HOH      O 1100   2.910   3.508   2.748
  305HOH     H1 1101   2.941   3.428   2.705
  305HOH     H2 1102   2.975   3.524   2.817
  306HOH      O 1103   0.392   1.124   1.724
  306HOH     H1 1104   0.375   1.108   1.631
  306HOH     H2 1105   0.422   1.039   1.758
  307HOH      O 1106   2.445   3.070   2.238
  307HOH     H1 1107   2.462   3.133   2.169
  307HOH     H2 1108   2.367   3.022   2.209
  308HOH      O 1109   0.426   3.392   1.360
  308HOH     H1 1110   0.443   3.310   1.408
  308HOH     H2 1111   0.344   3.375   1.314
  309HOH      O 1112   1.245   2.665   3.355
  309HOH     H1 1113   1.243   2.714   3.273
  309HOH     H2 1114   1.174   2.703   3.408
  310HOH      O 1115   1.038   1.263   0.286
  310HOH     H1 1116   1.065   1.263   0.378
  310HOH     H2 1117   0.953   1.307   0.286
  311HOH      O 1118   2.217   2.476   0.198
  311HOH     H1 1119   2.302   2.461   0.158
  311HOH     H2 1120   2.173   2.537   0.138
  312HOH      O 1121   1.134   1.815   2.904
  312HOH     H1 1122   1.051   1.785   2.867
  312HOH     H2 1123   1.110   1.861   2.984
  313HOH      O 1124   1.355   3.179   2.630
  313HOH     H1 1125   1.348   3.158   2.723
  313HOH     H2 1126   1.302   3.112   2.586
  314HOH      O 1127   3.791   4.006   3.943
  314HOH     H1 1128   3.752   4.090   3.922
  314HOH     H2 1129   3.850   4.025   4.016
  315HOH      O 1130   3.036   2.462   1.170
  315HOH     H1 1131   3.073   2.472   1.082
  315HOH     H2 1132   2.948   2.428   1.155
  316HOH      O 1133   0.691   2.997   2.064
  316HOH     H1 1134   0.679   2.974   1.972
  316HOH     H2 1135   0.741   3.079   2.062
  317HOH      O 1136   2.516   0.219   0.283
  317HOH     H1 1137   2.424   0.245   0.273
  317HOH     H2 1138   2.533   0.164   0.206
  318HOH      O 1139   0.086   0.357   0.932
  318HOH     H1 1140   0.171   0.386   0.900
  318HOH     H2 1141   0.055   0.429   0.988
  319HOH      O 1142   1.907   0.314   2.355
  319HOH     H1 1143   1.924   0.408   2.361
  319HOH     H2 1144   1.851   0.296   2.430
  320HOH      O 1145   2.857   0.607   0.626
  320HOH     H1 1146   2.869   0.582   0.718
  320HOH     H2 1147   2.946   0.613   0.592
  321HOH      O 1148   1.043   3.129   3.309
  321HOH     H1 1149   0.952   3.152   3.293
  321HOH     H2 1150   1.052   3.131   3.404
  322HOH      O 1151   3.390   1.843   1.788
  322HOH     H1 1152   3.420   1.849   1.879
  322HOH     H2 1153   3.309   1.792   1.794
  323HOH      O 1154   3.045   1.029   2.402
  323HOH     H1 1155   2.962   1.024   2.449
  323HOH     H2 1156   3.081   0.941   2.409
  324HOH      O 1157   0.270   2.693   2.438
  324HOH     H1 1158   0.305   2.659   2.521
  324HOH     H2 1159   0.342   2.742   2.399
  325HOH      O 1160   3.736   1.290   0.015
  325HOH     H1 1161   3.681   1.211   0.014
  325HOH     H2 1162   3.796   1.278  -0.058
  326HOH      O 1163   1.552   3.820   2.521
  326HOH     H1 1164   1.478   3.766   2.492
  326HOH     H2 1165   1.527   3.909   2.498
  327HOH      O 1166   1.044   0.416   2.834
  327HOH     H1 1167   0.995   0.402   2.916
  327HOH     H2 1168   1.135   0.422   2.862
  328HOH      O 1169   3.209   3.563   2.879
  328HOH     H1 1170   3.155   3.633   2.914
  328HOH     H2 1171   3.209   3.577   2.784
  329HOH      O 1172   3.147   3.000   1.614
  329HOH     H1 1173   3.156   2.938   1.541
  329HOH     H2 1174   3.062   3.041   1.600
  330HOH      O 1175   0.524   3.746   1.672
  330HOH     H1 1176   0.459   3.678   1.690
  330HOH     H2 1177   0.473   3.824   1.654
  331HOH      O 1178   3.107   1.695   0.411
  331HOH     H1 1179   3.136   1.618   0.362
  331HOH     H2 1180   3.013   1.699   0.396
  332HOH      O 1181   2.294   1.949   2.781
  332HOH     H1 1182   2.306   1.862   2.820
  332HOH     H2 1183   2.334   2.009   2.844
  333HOH      O 1184   2.409   3.576   1.063
  333HOH     H1 1185   2.324   3.532   1.073
  333HOH     H2 1186   2.443   3.582   1.152
  334HOH      O 1187   3.563   0.328   2.048
  334HOH     H1 1188   3.643   0.350   2.001
  334HOH     H2 1189   3.577   0.239   2.079
  335HOH      O 1190   1.976   2.168   3.358
  335HOH     H1 1191   2.005   2.077   3.366
  335HOH     H2 1192   1.944   2.191   3.445
  336HOH      O 1193   0.936   1.278   2.490
  336HOH     H1 1194   0.935   1.340   2.563
  336HOH     H2 1195   1.019   1.232   2.499
  337HOH      O 1196   2.685   0.399   1.303
  337HOH     H1 1197   2.628   0.337   1.255
  337HOH     H2 1198   2.638   0.416   1.384
  338HOH      O 1199   2.916   0.508   0.879
  338HOH     H1 1200   2.923   0.462   0.963
  338HOH     H2 1201   3.007   0.517   0.849
  339HOH      O 1202   1.095   3.718   0.326
  339HOH     H1 1203   1.099   3.811   0.305
  339HOH     H2 1204   1.183   3.696   0.358
  340HOH      O 1205   2.983   3.627   2.519
  340HOH     H1 1206   2.927   3.583   2.584
  340HOH     H2 1207   2.922   3.652   2.450
  341HOH      O 1208   2.057   3.083   1.880
  341HOH     H1 1209   2.140   3.108   1.840
  341HOH     H2 1210   2.003   3.162   1.875
  342HOH      O 1211   3.321   3.189   3.526
  342HOH     H1 1212   3.321   3.282   3.550
  342HOH     H2 1213   3.386   3.184   3.456
  343HOH      O 1214   0.337   1.788   0.827
  343HOH     H1 1215   0.342   1.693   0.821
  343HOH     H2 1216   0.422   1.815   0.862
  344HOH      O 1217   1.044   3.090   0.373
  344HOH     H1 1218   0.962   3.135   0.392
  344HOH     H2 1219   1.064   3.041   0.453
  345HOH      O 1220   1.052   3.084   2.641
  345HOH     H1 1221   1.101   3.150   2.691
  345HOH     H2 1222   1.064   3.111   2.550
  346HOH      O 1223   0.225   0.091   2.280
  346HOH     H1 1224   0.188   0.086   2.368
  346HOH     H2 1225   0.151   0.078   2.222
  347HOH      O 1226   2.871   2.773   2.718
  347HOH     H1 1227   2.790   2.812   2.685
  347HOH     H2 1228   2.928   2.768   2.642
  348HOH      O 1229   3.478   2.923   0.902
  348HOH     H1 1230   3.571   2.938   0.885
  348HOH     H2 1231   3.465   2.954   0.992
  349HOH      O 1232   3.036   1.402   0.726
  349HOH     H1 1233   3.115   1.375   0.679
  349HOH     H2 1234   2.990   1.459   0.665
  350HOH      O 1235   2.576   1.343   3.313
  350HOH     H1 1236   2.595   1.291   3.235
  350HOH     H2 1237   2.565   1.278   3.382
  351HOH      O 1238   1.765   0.781   1.896
  351HOH     H1 1239   1.813   0.712   1.850
  351HOH     H2 1240   1.673   0.762   1.879
  352HOH      O 1241   2.836   0.520   1.926
  352HOH     H1 1242   2.887   0.441   1.947
  352HOH     H2 1243   2.804   0.550   2.011
  353HOH      O 1244   1.928   1.983   0.020
  353HOH     H1 1245   1.852   1.999  -0.034
  353HOH     H2 1246   2.003   1.997  -0.037
  354HOH      O 1247   1.221   0.537   2.080
  354HOH     H1 1248   1.132   0.534   2.117
  354HOH     H2 1249   1.277   0.552   2.156
  355HOH      O 1250   1.619   1.415   0.399
  355HOH     H1 1251   1.671   1.495   0.392
  355HOH     H2 1252   1.582   1.403   0.311
  356HOH      O 1253   3.098   2.311   1.578
  356HOH     H1 1254   3.164   2.322   1.646
  356HOH     H2 1255   3.046   2.235   1.607
  357HOH      O 1256   2.587   3.685   2.467
  357HOH     H1 1257   2.587   3.641   2.552
  357HOH     H2 1258   2.497   3.716   2.457
  358HOH      O 1259   0.231   2.946   1.848
  358HOH     H1 1260   0.231   2.857   1.884
  358HOH     H2 1261   0.155   2.949   1.791
  359HOH      O 1262   1.413   3.838   3.376
  359HOH     H1 1263   1.491   3.803   3.333
  359HOH     H2 1264   1.424   3.814   3.468
  360HOH      O 1265   3.091   3.841   1.722
  360HOH     H1 1266   3.131   3.764   1.681
  360HOH     H2 1267   3.156   3.911   1.710
  361HOH      O 1268   2.544   0.043   2.588
  361HOH     H1 1269   2.628  -0.001   2.594
  361HOH     H2 1270   2.538   0.094   2.668
  362HOH      O 1271   2.646   0.644   0.475
  362HOH     H1 1272   2.685   0.597   0.402
  362HOH     H2 1273   2.718   0.656   0.537
  363HOH      O 1274   1.942   0.019   3.848
  363HOH     H1 1275   1.978   0.073   3.919
  363HOH     H2 1276   2.014  -0.040   3.825
  364HOH      O 1277   1.515   3.526   3.945
  364HOH     H1 1278   1.436   3.482   3.977
  364HOH     H2 1279   1.546   3.577   4.020
  365HOH      O 1280   1.738   1.667   2.805
  365HOH     H1 1281   1.806   1.701   2.863
  365HOH     H2 1282   1.743   1.572   2.816
  366HOH      O 1283   0.497   1.970   3.238
  366HOH     H1 1284   0.579   2.000   3.200
  366HOH     H2 1285   0.512   1.971   3.332
  367HOH      O 1286   2.678   2.070   3.341
  367HOH     H1 1287   2.684   1.975   3.356
  367HOH     H2 1288   2.733   2.108   3.409
  368HOH      O 1289   2.731   3.638   3.665
  368HOH     H1 1290   2.728   3.549   3.700
  368HOH     H2 1291   2.751   3.693   3.740
  369HOH      O 1292   1.898   1.824   2.276
  369HOH     H1 1293   1.949   1.894   2.315
  369HOH     H2 1294   1.939   1.744   2.308
  370HOH      O 1295   0.834   2.087   2.496
  370HOH     H1 1296   0.898   2.088   2.567
  370HOH     H2 1297   0.749   2.080   2.540
  371HOH      O 1298   3.706   1.759   2.529
  371HOH     H1 1299   3.700   1.669   2.564
  371HOH     H2 1300   3.753   1.807   2.597
  372HOH      O 1301   0.417   0.835   3.774
  372HOH     H1 1302   0.467   0.765   3.733
  372HOH     H2 1303   0.341   0.847   3.717
  373HOH      O 1304   3.722   1.919   0.030
  373HOH     H1 1305   3.677   1.870   0.099
  373HOH     H2 1306   3.799   1.955   0.074
  374HOH      O 1307   1.060   2.202   1.926
  374HOH     H1 1308   1.116   2.271   1.962
  374HOH     H2 1309   1.005   2.175   2.000
  375HOH      O 1310   1.338   2.154   0.833
  375HOH     H1 1311   1.358   2.227   0.892
  375HOH     H2 1312   1.417   2.100   0.835
  376HOH      O 1313   0.682   0.129   0.516
  376HOH     H1 1314   0.687   0.224   0.513
  376HOH     H2 1315   0.739   0.099   0.445
  377HOH      O 1316   3.139   3.650   0.160
  377HOH     H1 1317   3.206   3.624   0.223
  377HOH     H2 1318   3.171   3.620   0.076
  378HOH      O 1319   0.053   4.016   2.852
  378HOH     H1 1320  -0.022   4.070   2.830
  378HOH     H2 1321   0.110   4.073   2.904
  379HOH      O 1322   3.836   2.413   2.847
  379HOH     H1 1323   3.754   2.458   2.870
  379HOH     H2 1324   3.857   2.444   2.759
  380HOH      O 1325   1.954   1.880   0.479
  380HOH     H1 1326   2.013   1.860   0.407
  380HOH     H2 1327   1.977   1.818   0.548
  381HOH      O 1328   1.756   3.184   0.646
  381HOH     H1 1329   1.790   3.240   0.716
  381HOH     H2 1330   1.701   3.120   0.692
  382HOH      O 1331   1.705   3.242   1.088
  382HOH     H1 1332   1.610   3.249   1.080
  382HOH     H2 1333   1.725   3.152   1.060
  383HOH      O 1334   3.560   0.551   1.003
  383HOH     H1 1335   3.551   0.562   0.909
  383HOH     H2 1336   3.628   0.613   1.028
  384HOH      O 1337   3.415   1.767   1.256
  384HOH     H1 1338   3.429   1.859   1.234
  384HOH     H2 1339   3.371   1.769   1.341
  385HOH      O 1340   1.630   2.122   2.969
  385HOH     H1 1341   1.613   2.167   3.052
  385HOH     H2 1342   1.701   2.061   2.989
  386HOH      O 1343   2.201   0.037   1.291
  386HOH     H1 1344   2.153   0.058   1.211
  386HOH     H2 1345   2.201  -0.058   1.295
  387HOH      O 1346   3.852   0.396   2.623
  387HOH     H1 1347   3.830   0.340   2.548
  387HOH     H2 1348   3.947   0.403   2.621
  388HOH      O 1349   3.982   3.484   2.779
  388HOH     H1 1350   4.019   3.422   2.716
  388HOH     H2 1351   3.888   3.486   2.759
  389HOH      O 1352   2.473   2.239   2.681
  389HOH     H1 1353   2.514   2.293   2.613
  389HOH     H2 1354   2.458   2.154   2.640
  390HOH      O 1355   0.695   2.941   2.397
  390HOH     H1 1356   0.740   3.024   2.410
  390HOH     H2 1357   0.705   2.895   2.480
  391HOH      O 1358   3.471   2.375   3.906
  391HOH     H1 1359   3.521   2.455   3.923
  391HOH     H2 1360   3.446   2.343   3.992
  392HOH      O 1361   3.698   3.337   3.776
  392HOH     H1 1362   3.711   3.414   3.720
  392HOH     H2 1363   3.779   3.331   3.828
  393HOH      O 1364   1.669   3.120   2.490
  393HOH     H1 1365   1.653   3.040   2.539
  393HOH     H2 1366   1.646   3.191   2.550
  394HOH      O 1367   0.188   2.276   2.697
  394HOH     H1 1368   0.217   2.196   2.742
  394HOH     H2 1369   0.243   2.281   2.619
  395HOH      O 1370   0.288   0.528   0.218
  395HOH     H1 1371   0.304   0.538   0.124
  395HOH     H2 1372   0.344   0.593   0.259
  396HOH      O 1373   3.366   2.069   1.335
  396HOH     H1 1374   3.313   2.126   1.279
  396HOH     H2 1375   3.303   2.008   1.373
  397HOH      O 1376   3.084   3.726   3.338
  397HOH     H1 1377   3.169   3.767   3.324
  397HOH     H2 1378   3.025   3.772   3.278
  398HOH      O 1379   1.118   3.403   3.616
  398HOH     H1 1380   1.027   3.424   3.639
  398HOH     H2 1381   1.140   3.465   3.547
  399HOH      O 1382   2.843   0.714   1.730
  399HOH     H1 1383   2.840   0.651   1.801
  399HOH     H2 1384   2.756   0.711   1.691
  400HOH      O 1385   0.173   2.287   0.822
  400HOH     H1 1386   0.243   2.269   0.884
  400HOH     H2 1387   0.201   2.244   0.741
  401HOH      O 1388   2.884   0.216   3.266
  401HOH     H1 1389   2.922   0.142   3.312
  401HOH     H2 1390   2.928   0.293   3.304
  402HOH      O 1391   2.840   0.941   3.139
  402HOH     H1 1392   2.818   0.880   3.209
  402HOH     H2 1393   2.856   0.886   3.062
  403HOH      O 1394   1.372   2.575   0.573
  403HOH     H1 1395   1.362   2.651   0.517
  403HOH     H2 1396   1.296   2.577   0.632
  404HOH      O 1397   0.402   3.910   1.370
  404HOH     H1 1398   0.315   3.877   1.348
  404HOH     H2 1399   0.388   3.963   1.449
  405HOH      O 1400   1.921   3.340   1.535
  405HOH     H1 1401   1.867   3.263   1.550
  405HOH     H2 1402   1.891   3.403   1.600
  406HOH      O 1403   3.361   0.529   2.388
  406HOH     H1 1404   3.368   0.529   2.293
  406HOH     H2 1405   3.449   0.548   2.419
  407HOH      O 1406   0.815   3.174   2.402
  407HOH     H1 1407   0.845   3.236   2.469
  407HOH     H2 1408   0.884   3.177   2.335
  408HOH      O 1409   3.861   2.533   1.385
  408HOH     H1 1410   3.877   2.623   1.357
  408HOH     H2 1411   3.778   2.537   1.433
  409HOH      O 1412   0.080   1.539   0.187
  409HOH     H1 1413   0.019   1.472   0.156
  409HOH     H2 1414   0.027   1.595   0.244
  410HOH      O 1415   2.347   3.835   2.484
  410HOH     H1 1416   2.361   3.899   2.414
  410HOH     H2 1417   2.252   3.827   2.490
  411HOH      O 1418   0.622   3.573   0.360
  411HOH     H1 1419   0.586   3.660   0.342
  411HOH     H2 1420   0.593   3.519   0.286
  412HOH      O 1421   3.889   1.189   3.823
  412HOH     H1 1422   3.967   1.156   3.779
  412HOH     H2 1423   3.821   1.124   3.803
  413HOH      O 1424   0.645   1.611   2.397
  413HOH     H1 1425   0.685   1.567   2.323
  413HOH     H2 1426   0.676   1.701   2.393
  414HOH      O 1427   3.533   2.485   0.772
  414HOH     H1 1428   3.496   2.548   0.834
  414HOH     H2 1429   3.465   2.475   0.705
  415HOH      O 1430   0.472   1.955   0.510
  415HOH     H1 1431   0.546   1.913   0.466
  415HOH     H2 1432   0.423   1.882   0.550
  416HOH      O 1433   1.687   1.485   1.774
  416HOH     H1 1434   1.719   1.403   1.812
  416HOH     H2 1435   1.605   1.461   1.731
  417HOH      O 1436   1.264   0.962   1.313
  417HOH     H1 1437   1.306   1.048   1.322
  417HOH     H2 1438   1.304   0.908   1.381
  418HOH      O 1439   0.835   3.582   2.089
  418HOH     H1 1440   0.893   3.561   2.016
  418HOH     H2 1441   0.747   3.571   2.053
  419HOH      O 1442   0.003   1.043   1.743
  419HOH     H1 1443   0.002   0.951   1.769
  419HOH     H2 1444  -0.080   1.078   1.775
  420HOH      O 1445   0.732   1.164   1.864
  420HOH     H1 1446   0.779   1.243   1.837
  420HOH     H2 1447   0.788   1.092   1.836
  421HOH      O 1448   2.211   0.870   1.939
  421HOH     H1 1449   2.276   0.912   1.996
  421HOH     H2 1450   2.133   0.864   1.993
  422HOH      O 1451   0.537   3.493   0.605
  422HOH     H1 1452   0.570   3.525   0.522
  422HOH     H2 1453   0.479   3.420   0.582
  423HOH      O 1454   2.606   2.702   0.539
  423HOH     H1 1455   2.687   2.689   0.490
  423HOH     H2 1456   2.539   2.657   0.487
  424HOH      O 1457   0.307   2.675   2.725
  424HOH     H1 1458   0.287   2.617   2.799
  424HOH     H2 1459   0.400   2.695   2.736
  425HOH      O 1460   1.508   0.683   1.935
  425HOH     H1 1461   1.555   0.605   1.904
  425HOH     H2 1462   1.427   0.649   1.973
  426HOH      O 1463   1.701   3.375   0.445
  426HOH     H1 1464   1.728   3.324   0.522
  426HOH     H2 1465   1.705   3.466   0.474
  427HOH      O 1466   0.010   2.229   1.739
  427HOH     H1 1467   0.039   2.251   1.651
  427HOH     H2 1468  -0.083   2.207   1.729
  428HOH      O 1469   3.570   0.346   3.472
  428HOH     H1 1470   3.512   0.280   3.510
  428HOH     H2 1471   3.604   0.395   3.547
  429HOH      O 1472   1.533   1.425   0.946
  429HOH     H1 1473   1.515   1.434   0.853
  429HOH     H2 1474   1.594   1.497   0.966
  430HOH      O 1475   1.298   3.202   0.872
  430HOH     H1 1476   1.322   3.179   0.783
  430HOH     H2 1477   1.213   3.245   0.864
  431HOH      O 1478   1.443   0.358   3.425
  431HOH     H1 1479   1.521   0.302   3.423
  431HOH     H2 1480   1.416   0.358   3.517
  432HOH      O 1481   3.884   1.938   0.636
  432HOH     H1 1482   3.866   1.883   0.560
  432HOH     H2 1483   3.959   1.896   0.679
  433HOH      O 1484   1.139   3.561   3.380
  433HOH     H1 1485   1.135   3.643   3.331
  433HOH     H2 1486   1.178   3.499   3.318
  434HOH      O 1487   3.850   2.984   3.897
  434HOH     H1 1488   3.816   3.071   3.917
  434HOH     H2 1489   3.851   2.938   3.981
  435HOH      O 1490   1.172   0.532   3.781
  435HOH     H1 1491   1.090   0.555   3.738
  435HOH     H2 1492   1.237   0.534   3.710
  436HOH      O 1493   1.771   3.563   0.607
  436HOH     H1 1494   1.707   3.629   0.634
  436HOH     H2 1495   1.782   3.508   0.685
  437HOH      O 1496   0.409   2.373   1.970
  437HOH     H1 1497   0.356   2.293   1.966
  437HOH     H2 1498   0.358   2.434   2.023
  438HOH      O 1499   1.350   0.229   0.116
  438HOH     H1 1500   1.374   0.322   0.113
  438HOH     H2 1501   1.410   0.186   0.055
  439HOH      O 1502   3.197   3.253   1.746
  439HOH     H1 1503   3.281   3.226   1.783
  439HOH     H2 1504   3.161   3.172   1.708
  440HOH      O 1505   0.571   1.322   4.018
  440HOH     H1 1506   0.488   1.347   4.057
  440HOH     H2 1507   0.549   1.260   3.949
  441HOH      O 1508   2.189   2.184   1.866
  441HOH     H1 1509   2.273   2.158   1.905
  441HOH     H2 1510   2.169   2.268   1.907
  442HOH      O 1511   3.970   2.864   1.809
  442HOH     H1 1512   3.875   2.878   1.811
  442HOH     H2 1513   3.980   2.771   1.789
  443HOH      O 1514   2.221   2.043   3.807
  443HOH     H1 1515   2.228   2.042   3.902
  443HOH     H2 1516   2.193   2.132   3.786
  444HOH      O 1517   1.993   2.924   0.852
  444HOH     H1 1518   2.086   2.929   0.827
  444HOH     H2 1519   1.947   2.971   0.783
  445HOH      O 1520   0.283   2.223   1.550
  445HOH     H1 1521   0.201   2.236   1.501
  445HOH     H2 1522   0.288   2.298   1.609
  446HOH      O 1523   4.012   2.780   2.450
  446HOH     H1 1524   3.989   2.787   2.358
  446HOH     H2 1525   4.090   2.725   2.451
  447HOH      O 1526   2.028   0.224   2.777
  447HOH     H1 1527   1.958   0.162   2.754
  447HOH     H2 1528   2.058   0.257   2.692
  448HOH      O 1529   0.472   1.192   3.346
  448HOH     H1 1530   0.403   1.187   3.413
  448HOH     H2 1531   0.553   1.179   3.395
  449HOH      O 1532   3.208   3.421   0.465
  449HOH     H1 1533   3.234   3.498   0.413
  449HOH     H2 1534   3.166   3.458   0.542
  450HOH      O 1535   3.966   0.278   2.153
  450HOH     H1 1536   3.935   0.356   2.199
  450HOH     H2 1537   3.951   0.206   2.214
  451HOH      O 1538   0.979   2.722   0.453
  451HOH     H1 1539   1.042   2.793   0.463
  451HOH     H2 1540   0.964   2.691   0.543
  452HOH      O 1541   2.604   2.608   2.345
  452HOH     H1 1542   2.601   2.704   2.349
  452HOH     H2 1543   2.525   2.584   2.297
  453HOH      O 1544   0.149   1.272   1.800
  453HOH     H1 1545   0.091   1.223   1.742
  453HOH     H2 1546   0.232   1.225   1.796
  454HOH      O 1547   2.852   2.018   0.904
  454HOH     H1 1548   2.823   1.933   0.871
  454HOH     H2 1549   2.939   2.029   0.867
  455HOH      O 1550   0.405   3.125   2.246
  455HOH     H1 1551   0.498   3.110   2.228
  455HOH     H2 1552   0.404   3.203   2.303
  456HOH      O 1553   0.428   1.353   1.914
  456HOH     H1 1554   0.511   1.380   1.954
  456HOH     H2 1555   0.449   1.272   1.867
  457HOH      O 1556   0.828   3.837   1.838
  457HOH     H1 1557   0.760   3.774   1.859
  457HOH     H2 1558   0.821   3.850   1.744
  458HOH      O 1559   1.832   1.872   1.026
  458HOH     H1 1560   1.846   1.966   1.009
  458HOH     H2 1561   1.913   1.844   1.069
  459HOH      O 1562   1.542   2.912   3.175
  459HOH     H1 1563   1.490   2.934   3.253
  459HOH     H2 1564   1.480   2.871   3.115
  460HOH      O 1565   0.305   2.419   2.480
  460HOH     H1 1566   0.371   2.484   2.455
  460HOH     H2 1567   0.226   2.445   2.432
  461HOH      O 1568   1.724   3.808   0.972
  461HOH     H1 1569   1.691   3.888   1.012
  461HOH     H2 1570   1.651   3.746   0.978
  462HOH      O 1571   2.990   2.886   1.221
  462HOH     H1 1572   2.914   2.944   1.214
  462HOH     H2 1573   3.023   2.880   1.131
  463HOH      O 1574   1.267   2.326   1.702
  463HOH     H1 1575   1.277   2.420   1.694
  463HOH     H2 1576   1.173   2.312   1.713
  464HOH      O 1577   0.375   3.298   0.529
  464HOH     H1 1578   0.345   3.322   0.441
  464HOH     H2 1579   0.350   3.206   0.539
  465HOH      O 1580   0.332   0.440   0.560
  465HOH     H1 1581   0.393   0.514   0.562
  465HOH     H2 1582   0.343   0.398   0.646
  466HOH      O 1583   1.667   3.751   3.267
  466HOH     H1 1584   1.732   3.776   3.332
  466HOH     H2 1585   1.693   3.799   3.188
  467HOH      O 1586   1.082   3.489   3.040
  467HOH     H1 1587   1.129   3.420   3.088
  467HOH     H2 1588   0.992   3.481   3.069
  468HOH      O 1589   0.214   3.523   0.054
  468HOH     H1 1590   0.282   3.589   0.068
  468HOH     H2 1591   0.230   3.492  -0.035
  469HOH      O 1592   0.251   3.617   1.671
  469HOH     H1 1593   0.222   3.540   1.622
  469HOH     H2 1594   0.241   3.592   1.763
  470HOH      O 1595   3.057   0.046   2.871
  470HOH     H1 1596   2.977   0.063   2.921
  470HOH     H2 1597   3.123   0.029   2.938
  471HOH      O 1598   1.914   1.147   3.830
  471HOH     H1 1599   1.978   1.213   3.804
  471HOH     H2 1600   1.832   1.195   3.837
  472HOH      O 1601   3.139   1.570   2.087
  472HOH     H1 1602   3.224   1.582   2.043
  472HOH     H2 1603   3.160   1.573   2.180
  473HOH      O 1604   1.049   1.830   0.818
  473HOH     H1 1605   1.006   1.810   0.901
  473HOH     H2 1606   1.104   1.906   0.836
  474HOH      O 1607   0.169   2.528   3.179
  474HOH     H1 1608   0.185   2.529   3.085
  474HOH     H2 1609   0.246   2.571   3.217
  475HOH      O 1610   0.582   0.288   1.291
  475HOH     H1 1611   0.488   0.284   1.304
  475HOH     H2 1612   0.619   0.266   1.376
  476HOH      O 1613   3.336   3.211   1.237
  476HOH     H1 1614   3.369   3.134   1.192
  476HOH     H2 1615   3.381   3.210   1.321
  477HOH      O 1616   3.786   1.140   1.856
  477HOH     H1 1617   3.760   1.048   1.846
  477HOH     H2 1618   3.745   1.167   1.938
  478HOH      O 1619   0.183   2.697   1.985
  478HOH     H1 1620   0.113   2.730   2.041
  478HOH     H2 1621   0.160   2.606   1.968
  479HOH      O 1622   0.007   1.461   2.673
  479HOH     H1 1623  -0.053   1.388   2.690
  479HOH     H2 1624   0.029   1.495   2.760
  480HOH      O 1625   3.986   2.689   2.141
  480HOH     H1 1626   3.920   2.758   2.147
  480HOH     H2 1627   3.944   2.618   2.093
  481HOH      O 1628   3.188   3.589   1.608
  481HOH     H1 1629   3.205   3.642   1.530
  481HOH     H2 1630   3.198   3.499   1.577
  482HOH      O 1631   2.268   3.707   0.279
  482HOH     H1 1632   2.257   3.612   0.277
  482HOH     H2 1633   2.314   3.727   0.197
  483HOH      O 1634   3.638   2.138   2.417
  483HOH     H1 1635   3.727   2.108   2.435
  483HOH     H2 1636   3.640   2.232   2.435
  484HOH      O 1637   2.159   3.864   0.493
  484HOH     H1 1638   2.231   3.851   0.431
  484HOH     H2 1639   2.087   3.811   0.457
  485HOH      O 1640   1.570   2.117   2.457
  485HOH     H1 1641   1.509   2.184   2.428
  485HOH     H2 1642   1.581   2.133   2.551
  486HOH      O 1643   0.050   1.408   0.743
  486HOH     H1 1644   0.026   1.323   0.781
  486HOH     H2 1645   0.130   1.432   0.789
  487HOH      O 1646   0.841   1.989   0.334
  487HOH     H1 1647   0.903   1.931   0.289
  487HOH     H2 1648   0.768   1.932   0.357
  488HOH      O 1649   2.068   3.220   2.195
  488HOH     H1 1650   1.985   3.190   2.231
  488HOH     H2 1651   2.076   3.175   2.111
  489HOH      O 1652   0.027   1.318   4.013
  489HOH     H1 1653  -0.013   1.293   4.096
  489HOH     H2 1654  -0.021   1.270   3.947
  490HOH      O 1655   3.570   2.640   4.022
  490HOH     H1 1656   3.571   2.711   3.958
  490HOH     H2 1657   3.482   2.641   4.059
  491HOH      O 1658   1.368   0.070   3.820
  491HOH     H1 1659   1.463   0.081   3.828
  491HOH     H2 1660   1.351   0.080   3.726
  492HOH      O 1661   0.203   1.276   0.500
  492HOH     H1 1662   0.288   1.266   0.458
  492HOH     H2 1663   0.175   1.364   0.477
  493HOH      O 1664   0.172   3.211   2.074
  493HOH     H1 1665   0.243   3.275   2.062
  493HOH     H2 1666   0.204   3.153   2.143
  494HOH      O 1667   0.625   1.698   0.737
  494HOH     H1 1668   0.716   1.722   0.717
  494HOH     H2 1669   0.611   1.730   0.826
  495HOH      O 1670   3.696   0.375   3.122
  495HOH     H1 1671   3.713   0.432   3.046
  495HOH     H2 1672   3.719   0.429   3.198
  496HOH      O 1673   0.326   3.838   2.413
  496HOH     H1 1674   0.402   3.863   2.465
  496HOH     H2 1675   0.362   3.788   2.340
  497HOH      O 1676   1.978   2.003   2.726
  497HOH     H1 1677   1.933   1.952   2.794
  497HOH     H2 1678   2.064   2.020   2.763
  498HOH      O 1679   1.263   0.413   1.842
  498HOH     H1 1680   1.256   0.441   1.933
  498HOH     H2 1681   1.172   0.413   1.811
  499HOH      O 1682   3.612   0.659   0.032
  499HOH     H1 1683   3.670   0.702  -0.030
  499HOH     H2 1684   3.644   0.569   0.036
  500HOH      O 1685   2.027   1.617   2.365
  500HOH     H1 1686   1.978   1.540   2.338
  500HOH     H2 1687   2.031   1.611   2.460
  501HOH      O 1688   3.926   1.199   1.160
  501HOH     H1 1689   4.013   1.238   1.155
  501HOH     H2 1690   3.874   1.262   1.210
  502HOH      O 1691   3.291   2.335   0.205
  502HOH     H1 1692   3.286   2.407   0.142
  502HOH     H2 1693   3.210   2.342   0.256
  503HOH      O 1694   1.832   0.450   1.945
  503HOH     H1 1695   1.804   0.494   1.865
  503HOH     H2 1696   1.926   0.466   1.950
  504HOH      O 1697   3.074   3.351   1.980
  504HOH     H1 1698   3.027   3.271   2.003
  504HOH     H2 1699   3.111   3.333   1.893
  505HOH      O 1700   1.593   2.680   1.118
  505HOH     H1 1701   1.614   2.609   1.179
  505HOH     H2 1702   1.674   2.695   1.070
  506HOH      O 1703   0.055   0.571   1.086
  506HOH     H1 1704   0.107   0.571   1.165
  506HOH     H2 1705   0.047   0.664   1.062
  507HOH      O 1706   3.282   2.565   0.004
  507HOH     H1 1707   3.254   2.589  -0.084
  507HOH     H2 1708   3.310   2.648   0.043
  508HOH      O 1709   1.264   0.075   3.588
  508HOH     H1 1710   1.206   0.014   3.542
  508HOH     H2 1711   1.305   0.126   3.518
  509HOH      O 1712   0.412   1.213   2.601
  509HOH     H1 1713   0.451   1.300   2.586
  509HOH     H2 1714   0.449   1.185   2.685
  510HOH      O 1715   3.174   3.034   2.090
  510HOH     H1 1716   3.089   3.076   2.104
  510HOH     H2 1717   3.162   2.944   2.121
  511HOH      O 1718   3.406   0.102   0.430
  511HOH     H1 1719   3.440   0.073   0.345
  511HOH     H2 1720   3.312   0.115   0.414
  512HOH      O 1721   3.914   1.744   0.102
  512HOH     H1 1722   3.928   1.755   0.008
  512HOH     H2 1723   3.854   1.670   0.109
  513HOH      O 1724   1.963   1.018   3.577
  513HOH     H1 1725   2.046   0.986   3.613
  513HOH     H2 1726   1.929   1.077   3.644
  514HOH      O 1727   2.763   3.855   3.476
  514HOH     H1 1728   2.768   3.773   3.525
  514HOH     H2 1729   2.768   3.829   3.384
  515HOH      O 1730   3.507   1.274   1.130
  515HOH     H1 1731   3.459   1.201   1.091
  515HOH     H2 1732   3.456   1.352   1.107
  516HOH      O 1733   0.953   3.132   1.677
  516HOH     H1 1734   1.002   3.205   1.640
  516HOH     H2 1735   0.946   3.069   1.605
  517HOH      O 1736   0.922   1.760   1.041
  517HOH     H1 1737   0.833   1.726   1.027
  517HOH     H2 1738   0.934   1.758   1.136
  518HOH      O 1739   0.545   2.229   3.854
  518HOH     H1 1740   0.560   2.322   3.835
  518HOH     H2 1741   0.581   2.217   3.942
  519HOH      O 1742   1.691   2.381   1.300
  519HOH     H1 1743   1.693   2.323   1.376
  519HOH     H2 1744   1.774   2.428   1.303
  520HOH      O 1745   0.684   2.202   0.076
  520HOH     H1 1746   0.637   2.142   0.134
  520HOH     H2 1747   0.735   2.257   0.135
  521HOH      O 1748   2.781   0.354   0.487
  521HOH     H1 1749   2.727   0.380   0.412
  521HOH     H2 1750   2.828   0.434   0.512
  522HOH      O 1751   0.444   0.665   1.525
  522HOH     H1 1752   0.518   0.707   1.480
  522HOH     H2 1753   0.369   0.721   1.506
  523HOH      O 1754   3.212   1.193   0.863
  523HOH     H1 1755   3.140   1.138   0.833
  523HOH     H2 1756   3.279   1.185   0.795
  524HOH      O 1757   1.453   2.729   2.927
  524HOH     H1 1758   1.469   2.639   2.896
  524HOH     H2 1759   1.361   2.745   2.903
  525HOH      O 1760   0.293   3.735   0.850
  525HOH     H1 1761   0.263   3.727   0.941
  525HOH     H2 1762   0.338   3.652   0.833
  526HOH      O 1763   3.602   1.238   0.736
  526HOH     H1 1764   3.547   1.316   0.749
  526HOH     H2 1765   3.540   1.165   0.736
  527HOH      O 1766   3.014   1.121   1.207
  527HOH     H1 1767   2.940   1.122   1.145
  527HOH     H2 1768   3.065   1.044   1.182
  528HOH      O 1769   3.381   2.244   2.701
  528HOH     H1 1770   3.290   2.240   2.670
  528HOH     H2 1771   3.393   2.335   2.728
  529HOH      O 1772   2.285   2.445   3.126
  529HOH     H1 1773   2.373   2.460   3.159
  529HOH     H2 1774   2.297   2.422   3.034
  530HOH      O 1775   1.740   0.567   2.651
  530HOH     H1 1776   1.818   0.528   2.691
  530HOH     H2 1777   1.759   0.570   2.558
  531HOH      O 1778   2.918   1.745   2.561
  531HOH     H1 1779   2.853   1.816   2.554
  531HOH     H2 1780   2.995   1.787   2.599
  532HOH      O 1781   2.927   3.710   0.324
  532HOH     H1 1782   2.980   3.669   0.256
  532HOH     H2 1783   2.901   3.794   0.288
  533HOH      O 1784   0.761   3.978   2.190
  533HOH     H1 1785   0.684   3.965   2.134
  533HOH     H2 1786   0.835   3.954   2.135
  534HOH      O 1787   0.028   0.396   3.284
  534HOH     H1 1788  -0.007   0.451   3.215
  534HOH     H2 1789  -0.049   0.367   3.333
  535HOH      O 1790   1.049   3.977   2.881
  535HOH     H1 1791   1.081   3.980   2.791
  535HOH     H2 1792   1.057   3.885   2.905
  536HOH      O 1793   3.984   0.703   3.634
  536HOH     H1 1794   3.991   0.728   3.726
  536HOH     H2 1795   3.906   0.748   3.602
  537HOH      O 1796   3.902   1.797   2.741
  537HOH     H1 1797   3.949   1.866   2.789
  537HOH     H2 1798   3.845   1.757   2.806
  538HOH      O 1799   1.793   2.729   1.359
  538HOH     H1 1800   1.865   2.692   1.308
  538HOH     H2 1801   1.830   2.745   1.445
  539HOH      O 1802   3.947   1.370   0.511
  539HOH     H1 1803   4.019   1.378   0.573
  539HOH     H2 1804   3.868   1.379   0.564
  540HOH      O 1805   1.613   3.454   3.457
  540HOH     H1 1806   1.594   3.396   3.530
  540HOH     H2 1807   1.561   3.532   3.473
  541HOH      O 1808   3.587   1.445   2.113
  541HOH     H1 1809   3.619   1.480   2.029
  541HOH     H2 1810   3.578   1.522   2.169
  542HOH      O 1811   2.359   1.737   1.272
  542HOH     H1 1812   2.358   1.822   1.227
  542HOH     H2 1813   2.267   1.710   1.274
  543HOH      O 1814   2.789   0.131   0.280
  543HOH     H1 1815   2.827   0.179   0.354
  543HOH     H2 1816   2.711   0.181   0.256
  544HOH      O 1817   2.658   1.941   2.189
  544HOH     H1 1818   2.732   1.881   2.197
  544HOH     H2 1819   2.622   1.923   2.103
  545HOH      O 1820   3.180   0.845   0.910
  545HOH     H1 1821   3.191   0.828   1.004
  545HOH     H2 1822   3.094   0.888   0.904
  546HOH      O 1823   2.738   3.653   1.085
  546HOH     H1 1824   2.706   3.667   1.174
  546HOH     H2 1825   2.801   3.582   1.092
  547HOH      O 1826   3.948   3.221   0.251
  547HOH     H1 1827   3.967   3.168   0.328
  547HOH     H2 1828   3.853   3.233   0.253
  548HOH      O 1829   2.956   2.285   3.500
  548HOH     H1 1830   3.041   2.272   3.542
  548HOH     H2 1831   2.901   2.216   3.537
  549HOH      O 1832   1.475   3.435   0.284
  549HOH     H1 1833   1.545   3.422   0.348
  549HOH     H2 1834   1.407   3.374   0.312
  550HOH      O 1835   1.926   0.647   3.331
  550HOH     H1 1836   2.016   0.681   3.332
  550HOH     H2 1837   1.929   0.574   3.269
  551HOH      O 1838   3.711   3.234   1.458
  551HOH     H1 1839   3.620   3.265   1.458
  551HOH     H2 1840   3.705   3.142   1.482
  552HOH      O 1841   1.472   0.217   0.631
  552HOH     H1 1842   1.564   0.209   0.605
  552HOH     H2 1843   1.423   0.181   0.558
  553HOH      O 1844   3.102   0.574   2.071
  553HOH     H1 1845   3.066   0.500   2.023
  553HOH     H2 1846   3.078   0.557   2.162
  554HOH      O 1847   1.556   0.610   0.439
  554HOH     H1 1848   1.495   0.538   0.458
  554HOH     H2 1849   1.530   0.680   0.498
  555HOH      O 1850   1.308   3.391   1.277
  555HOH     H1 1851   1.340   3.316   1.227
  555HOH     H2 1852   1.219   3.406   1.245
  556HOH      O 1853   0.625   1.357   2.543
  556HOH     H1 1854   0.655   1.441   2.509
  556HOH     H2 1855   0.659   1.293   2.480
  557HOH      O 1856   1.033   0.436   3.536
  557HOH     H1 1857   0.988   0.520   3.529
  557HOH     H2 1858   1.077   0.426   3.452
  558HOH      O 1859   1.434   1.144   3.851
  558HOH     H1 1860   1.350   1.100   3.836
  558HOH     H2 1861   1.495   1.074   3.873
  559HOH      O 1862   1.578   2.433   2.569
  559HOH     H1 1863   1.507   2.397   2.516
  559HOH     H2 1864   1.614   2.357   2.616
  560HOH      O 1865   3.612   1.203   0.281
  560HOH     H1 1866   3.621   1.141   0.209
  560HOH     H2 1867   3.653   1.160   0.356
  561HOH      O 1868   2.845   1.314   1.705
  561HOH     H1 1869   2.770   1.260   1.679
  561HOH     H2 1870   2.867   1.364   1.627
  562HOH      O 1871   0.990   3.684   0.021
  562HOH     H1 1872   1.011   3.718   0.108
  562HOH     H2 1873   1.070   3.696  -0.029
  563HOH      O 1874   2.159   1.194   0.879
  563HOH     H1 1875   2.232   1.137   0.856
  563HOH     H2 1876   2.105   1.198   0.800
  564HOH      O 1877   3.821   2.487   1.994
  564HOH     H1 1878   3.771   2.470   1.914
  564HOH     H2 1879   3.759   2.470   2.065
  565HOH      O 1880   3.686   1.533   1.881
  565HOH     H1 1881   3.700   1.499   1.792
  565HOH     H2 1882   3.772   1.561   1.911
  566HOH      O 1883   0.674   2.172   3.216
  566HOH     H1 1884   0.740   2.190   3.283
  566HOH     H2 1885   0.638   2.258   3.195
  567HOH      O 1886   1.758   2.879   3.625
  567HOH     H1 1887   1.823   2.935   3.667
  567HOH     H2 1888   1.701   2.940   3.579
  568HOH      O 1889   0.109   0.162   1.442
  568HOH     H1 1890   0.188   0.159   1.388
  568HOH     H2 1891   0.107   0.251   1.476
  569HOH      O 1892   0.494   3.947   2.039
  569HOH     H1 1893   0.471   3.941   1.946
  569HOH     H2 1894   0.504   4.040   2.055
  570HOH      O 1895   1.013   1.450   0.534
  570HOH     H1 1896   1.026   1.532   0.485
  570HOH     H2 1897   1.102   1.425   0.561
  571HOH      O 1898   2.467   2.314   1.982
  571HOH     H1 1899   2.557   2.311   2.016
  571HOH     H2 1900   2.473   2.273   1.895
  572HOH      O 1901   2.493   1.326   1.490
  572HOH     H1 1902   2.488   1.392   1.421
  572HOH     H2 1903   2.586   1.302   1.493
  573HOH      O 1904   0.462   1.139   3.834
  573HOH     H1 1905   0.457   1.043   3.832
  573HOH     H2 1906   0.408   1.166   3.759
  574HOH      O 1907   0.602   0.663   2.346
  574HOH     H1 1908   0.682   0.704   2.316
  574HOH     H2 1909   0.581   0.708   2.428
  575HOH      O 1910   0.041   3.566   1.382
  575HOH     H1 1911   0.088   3.487   1.357
  575HOH     H2 1912  -0.050   3.539   1.391
  576HOH      O 1913   3.692   0.286   2.422
  576HOH     H1 1914   3.726   0.212   2.372
  576HOH     H2 1915   3.602   0.297   2.391
  577HOH      O 1916   1.539   2.468   1.792
  577HOH     H1 1917   1.522   2.510   1.707
  577HOH     H2 1918   1.454   2.471   1.837
  578HOH      O 1919   0.802   0.581   3.231
  578HOH     H1 1920   0.730   0.557   3.173
  578HOH     H2 1921   0.880   0.547   3.188
  579HOH      O 1922   1.737   2.611   2.970
  579HOH     H1 1923   1.764   2.657   3.050
  579HOH     H2 1924   1.656   2.656   2.944
  580HOH      O 1925   2.282   3.640   1.746
  580HOH     H1 1926   2.191   3.613   1.730
  580HOH     H2 1927   2.285   3.731   1.715
  581HOH      O 1928   2.534   2.552   3.191
  581HOH     H1 1929   2.535   2.624   3.254
  581HOH     H2 1930   2.576   2.588   3.113
  582HOH      O 1931   0.776   2.744   2.606
  582HOH     H1 1932   0.717   2.723   2.679
  582HOH     H2 1933   0.762   2.674   2.542
  583HOH      O 1934   3.334   3.308   3.247
  583HOH     H1 1935   3.380   3.366   3.186
  583HOH     H2 1936   3.291   3.367   3.309
  584HOH      O 1937   2.914   1.999   2.333
  584HOH     H1 1938   2.863   1.919   2.340
  584HOH     H2 1939   2.994   1.973   2.288
  585HOH      O 1940   2.087   2.779   2.808
  585HOH     H1 1941   2.078   2.684   2.814
  585HOH     H2 1942   2.106   2.807   2.898
  586HOH      O 1943   3.746   1.626   2.288
  586HOH     H1 1944   3.766   1.539   2.322
  586HOH     H2 1945   3.773   1.686   2.358
  587HOH      O 1946   2.735   3.498   0.290
  587HOH     H1 1947   2.811   3.550   0.318
  587HOH     H2 1948   2.690   3.477   0.372
  588HOH      O 1949   0.788   2.250   3.663
  588HOH     H1 1950   0.745   2.198   3.731
  588HOH     H2 1951   0.748   2.336   3.670
  589HOH      O 1952   3.492   2.144   3.777
  589HOH     H1 1953   3.494   2.231   3.818
  589HOH     H2 1954   3.494   2.162   3.683
  590HOH      O 1955   1.000   2.233   1.389
  590HOH     H1 1956   0.978   2.257   1.478
  590HOH     H2 1957   1.084   2.186   1.397
  591HOH      O 1958   1.550   0.557   3.281
  591HOH     H1 1959   1.502   0.610   3.217
  591HOH     H2 1960   1.482   0.506   3.326
  592HOH      O 1961   1.933   3.737   0.407
  592HOH     H1 1962   1.922   3.643   0.422
  592HOH     H2 1963   1.847   3.767   0.377
  593HOH      O 1964   0.902   0.889   3.141
  593HOH     H1 1965   0.847   0.966   3.128
  593HOH     H2 1966   0.847   0.829   3.192
  594HOH      O 1967   2.363   0.551   0.442
  594HOH     H1 1968   2.455   0.568   0.421
  594HOH     H2 1969   2.315   0.619   0.393
  595HOH      O 1970   0.653   2.169   1.661
  595HOH     H1 1971   0.650   2.116   1.741
  595HOH     H2 1972   0.652   2.260   1.693
  596HOH      O 1973   2.133   2.166   3.134
  596HOH     H1 1974   2.180   2.112   3.071
  596HOH     H2 1975   2.068   2.108   3.173
  597HOH      O 1976   0.883   2.853   2.960
  597HOH     H1 1977   0.927   2.924   3.007
  597HOH     H2 1978   0.840   2.897   2.887
  598HOH      O 1979   3.169   2.507   1.392
  598HOH     H1 1980   3.142   2.432   1.444
  598HOH     H2 1981   3.122   2.498   1.309
  599HOH      O 1982   1.294   0.565   0.633
  599HOH     H1 1983   1.333   0.574   0.720
  599HOH     H2 1984   1.261   0.653   0.613
  600HOH      O 1985   3.461   1.189   2.273
  600HOH     H1 1986   3.428   1.273   2.241
  600HOH     H2 1987   3.406   1.169   2.348
  601HOH      O 1988   2.548   0.180   2.826
  601HOH     H1 1989   2.611   0.192   2.896
  601HOH     H2 1990   2.489   0.255   2.833
  602HOH      O 1991   0.668   2.614   2.023
  602HOH     H1 1992   0.711   2.656   2.097
  602HOH     H2 1993   0.596   2.673   2.001
  603HOH      O 1994   0.288   0.447   3.344
  603HOH     H1 1995   0.205   0.414   3.310
  603HOH     H2 1996   0.266   0.483   3.430
  604HOH      O 1997   1.313   1.119   3.196
  604HOH     H1 1998   1.280   1.112   3.285
  604HOH     H2 1999   1.243   1.084   3.141
  605HOH      O 2000   1.358   1.718   3.015
  605HOH     H1 2001   1.416   1.792   2.999
  605HOH     H2 2002   1.275   1.743   2.975
  606HOH      O 2003   0.216   3.973   3.288
  606HOH     H1 2004   0.265   3.910   3.236
  606HOH     H2 2005   0.278   4.045   3.302
  607HOH      O 2006   1.756   2.170   3.215
  607HOH     H1 2007   1.724   2.082   3.196
  607HOH     H2 2008   1.832   2.157   3.271
  608HOH      O 2009   1.564   2.993   0.732
  608HOH     H1 2010   1.570   2.909   0.686
  608HOH     H2 2011   1.520   2.972   0.814
  609HOH      O 2012   1.416   0.187   2.029
  609HOH     H1 2013   1.337   0.235   2.001
  609HOH     H2 2014   1.469   0.181   1.950
  610HOH      O 2015   2.273   2.963   2.735
  610HOH     H1 2016   2.212   2.890   2.744
  610HOH     H2 2017   2.226   3.027   2.682
  611HOH      O 2018   1.056   3.143   1.240
  611HOH     H1 2019   1.062   3.237   1.221
  611HOH     H2 2020   1.069   3.137   1.335
  612HOH      O 2021   0.652   0.987   2.131
  612HOH     H1 2022   0.701   0.909   2.103
  612HOH     H2 2023   0.570   0.952   2.165
  613HOH      O 2024   3.764   0.576   3.286
  613HOH     H1 2025   3.763   0.556   3.380
  613HOH     H2 2026   3.829   0.645   3.277
  614HOH      O 2027   3.331   1.114   1.827
  614HOH     H1 2028   3.421   1.117   1.859
  614HOH     H2 2029   3.335   1.149   1.738
  615HOH      O 2030   2.822   2.352   0.877
  615HOH     H1 2031   2.772   2.297   0.937
  615HOH     H2 2032   2.903   2.303   0.861
  616HOH      O 2033   1.196   1.582   0.901
  616HOH     H1 2034   1.213   1.631   0.821
  616HOH     H2 2035   1.190   1.648   0.970
  617HOH      O 2036   2.318   0.828   2.975
  617HOH     H1 2037   2.247   0.879   3.014
  617HOH     H2 2038   2.388   0.891   2.959
  618HOH      O 2039   0.287   3.258   2.890
  618HOH     H1 2040   0.269   3.167   2.913
  618HOH     H2 2041   0.220   3.280   2.826
  619HOH      O 2042   0.475   0.270   0.002
  619HOH     H1 2043   0.511   0.203   0.061
  619HOH     H2 2044   0.380   0.265   0.014
  620HOH      O 2045   3.956   2.268   0.976
  620HOH     H1 2046   3.969   2.187   1.025
  620HOH     H2 2047   4.026   2.269   0.911
  621HOH      O 2048   2.501   0.149   1.565
  621HOH     H1 2049   2.448   0.204   1.507
  621HOH     H2 2050   2.532   0.079   1.508
  622HOH      O 2051   3.689   1.226   2.421
  622HOH     H1 2052   3.642   1.216   2.338
  622HOH     H2 2053   3.773   1.265   2.396
  623HOH      O 2054   1.025   0.333   0.892
  623HOH     H1 2055   1.028   0.383   0.973
  623HOH     H2 2056   1.116   0.326   0.864
  624HOH      O 2057   1.759   3.675   2.597
  624HOH     H1 2058   1.687   3.729   2.565
  624HOH     H2 2059   1.748   3.591   2.553
  625HOH      O 2060   2.156   0.181   0.980
  625HOH     H1 2061   2.095   0.210   1.048
  625HOH     H2 2062   2.170   0.259   0.926
  626HOH      O 2063   3.667   1.751   0.751
  626HOH     H1 2064   3.754   1.752   0.791
  626HOH     H2 2065   3.608   1.731   0.824
  627HOH      O 2066   3.689   0.362   1.557
  627HOH     H1 2067   3.776   0.393   1.584
  627HOH     H2 2068   3.695   0.266   1.564
  628HOH      O 2069   3.812   2.140   2.919
  628HOH     H1 2070   3.741   2.097   2.870
  628HOH     H2 2071   3.795   2.234   2.908
  629HOH      O 2072   0.557   0.718   2.611
  629HOH     H1 2073   0.535   0.799   2.567
  629HOH     H2 2074   0.492   0.710   2.681
  630HOH      O 2075   4.020   3.751   0.747
  630HOH     H1 2076   4.098   3.697   0.746
  630HOH     H2 2077   4.007   3.778   0.656
  631HOH      O 2078   3.936   2.421   3.145
  631HOH     H1 2079   4.025   2.451   3.158
  631HOH     H2 2080   3.932   2.396   3.053
  632HOH      O 2081   0.464   2.042   1.470
  632HOH     H1 2082   0.404   2.115   1.485
  632HOH     H2 2083   0.541   2.064   1.523
  633HOH      O 2084   2.838   1.732   2.203
  633HOH     H1 2085   2.894   1.688   2.267
  633HOH     H2 2086   2.878   1.711   2.118
  634HOH      O 2087   1.651   0.707   0.844
  634HOH     H1 2088   1.642   0.709   0.748
  634HOH     H2 2089   1.720   0.770   0.863
  635HOH      O 2090   3.686   1.687   1.301
  635HOH     H1 2091   3.594   1.688   1.272
  635HOH     H2 2092   3.683   1.722   1.390
  636HOH      O 2093   2.762   3.809   2.875
  636HOH     H1 2094   2.695   3.742   2.857
  636HOH     H2 2095   2.717   3.873   2.930
  637HOH      O 2096   0.961   1.046   1.712
  637HOH     H1 2097   0.985   1.050   1.620
  637HOH     H2 2098   1.041   1.020   1.757
  638HOH      O 2099   2.285   2.258   1.109
  638HOH     H1 2100   2.203   2.298   1.079
  638HOH     H2 2101   2.292   2.285   1.201
  639HOH      O 2102   2.561   3.166   0.225
  639HOH     H1 2103   2.635   3.226   0.226
  639HOH     H2 2104   2.592   3.091   0.174
  640HOH      O 2105   3.257   3.629   2.605
  640HOH     H1 2106   3.194   3.670   2.546
  640HOH     H2 2107   3.323   3.697   2.622
  641HOH      O 2108   3.527   2.953   2.225
  641HOH     H1 2109   3.569   3.037   2.241
  641HOH     H2 2110   3.456   2.949   2.290
  642HOH      O 2111   1.215   2.909   1.704
  642HOH     H1 2112   1.126   2.880   1.724
  642HOH     H2 2113   1.264   2.892   1.785
  643HOH      O 2114   3.779   3.614   0.216
  643HOH     H1 2115   3.790   3.709   0.221
  643HOH     H2 2116   3.865   3.581   0.187
  644HOH      O 2117   3.923   0.624   0.819
  644HOH     H1 2118   3.864   0.550   0.811
  644HOH     H2 2119   4.002   0.598   0.771
  645HOH      O 2120   3.946   0.001   3.287
  645HOH     H1 2121   4.009  -0.011   3.358
  645HOH     H2 2122   3.937  -0.086   3.247
  646HOH      O 2123   0.820   2.523   2.439
  646HOH     H1 2124   0.840   2.437   2.403
  646HOH     H2 2125   0.859   2.585   2.378
  647HOH      O 2126   1.755   2.757   3.190
  647HOH     H1 2127   1.685   2.823   3.190
  647HOH     H2 2128   1.787   2.757   3.280
  648HOH      O 2129   1.995   1.618   3.701
  648HOH     H1 2130   2.048   1.680   3.752
  648HOH     H2 2131   2.059   1.561   3.660
  649HOH      O 2132   0.481   1.275   1.469
  649HOH     H1 2133   0.568   1.294   1.504
  649HOH     H2 2134   0.423   1.338   1.512
  650HOH      O 2135   1.853   2.717   0.984
  650HOH     H1 2136   1.908   2.772   0.929
  650HOH     H2 2137   1.909   2.691   1.057
  651HOH      O 2138   3.779   3.888   0.255
  651HOH     H1 2139   3.827   3.884   0.338
  651HOH     H2 2140   3.841   3.924   0.192
  652HOH      O 2141   2.616   1.806   2.719
  652HOH     H1 2142   2.656   1.880   2.766
  652HOH     H2 2143   2.612   1.736   2.785
  653HOH      O 2144   0.851   3.597   2.864
  653HOH     H1 2145   0.763   3.629   2.882
  653HOH     H2 2146   0.883   3.653   2.793
  654HOH      O 2147   1.621   0.149   3.709
  654HOH     H1 2148   1.710   0.155   3.674
  654HOH     H2 2149   1.614   0.059   3.740
  655HOH      O 2150   1.411   2.469   0.908
  655HOH     H1 2151   1.414   2.423   0.991
  655HOH     H2 2152   1.497   2.510   0.899
  656HOH      O 2153   3.172   3.378   1.433
  656HOH     H1 2154   3.211   3.330   1.360
  656HOH     H2 2155   3.142   3.311   1.494
  657HOH      O 2156   3.698   0.656   2.237
  657HOH     H1 2157   3.677   0.610   2.318
  657HOH     H2 2158   3.625   0.635   2.179
  658HOH      O 2159   0.028   0.637   0.160
  658HOH     H1 2160   0.099   0.606   0.216
  658HOH     H2 2161  -0.047   0.644   0.218
  659HOH      O 2162   2.584   2.335   3.366
  659HOH     H1 2163   2.593   2.258   3.309
  659HOH     H2 2164   2.582   2.409   3.305
  660HOH      O 2165   1.254   2.943   3.990
  660HOH     H1 2166   1.246   2.884   4.065
  660HOH     H2 2167   1.303   2.893   3.925
  661HOH      O 2168   2.807   3.865   3.817
  661HOH     H1 2169   2.900   3.844   3.829
  661HOH     H2 2170   2.792   3.942   3.872
  662HOH      O 2171   1.719   0.440   3.446
  662HOH     H1 2172   1.741   0.378   3.376
  662HOH     H2 2173   1.655   0.499   3.406
  663HOH      O 2174   0.916   3.721   3.583
  663HOH     H1 2175   0.876   3.662   3.519
  663HOH     H2 2176   0.843   3.754   3.635
  664HOH      O 2177   0.471   1.293   0.412
  664HOH     H1 2178   0.496   1.374   0.458
  664HOH     H2 2179   0.544   1.277   0.351
  665HOH      O 2180   2.518   2.787   1.089
  665HOH     H1 2181   2.609   2.757   1.082
  665HOH     H2 2182   2.468   2.707   1.105
  666HOH      O 2183   3.801   3.428   1.309
  666HOH     H1 2184   3.752   3.504   1.342
  666HOH     H2 2185   3.760   3.353   1.351
  667HOH      O 2186   2.706   1.183   3.122
  667HOH     H1 2187   2.791   1.218   3.095
  667HOH     H2 2188   2.720   1.089   3.128
  668HOH      O 2189   0.658   1.051   1.197
  668HOH     H1 2190   0.595   1.123   1.195
  668HOH     H2 2191   0.743   1.093   1.198
  669HOH      O 2192   1.258   0.842   2.819
  669HOH     H1 2193   1.190   0.796   2.868
  669HOH     H2 2194   1.318   0.875   2.886
  670HOH      O 2195   3.572   3.070   3.680
  670HOH     H1 2196   3.594   3.153   3.722
  670HOH     H2 2197   3.612   3.075   3.593
  671HOH      O 2198   2.681   3.094   1.960
  671HOH     H1 2199   2.691   3.034   1.886
  671HOH     H2 2200   2.649   3.175   1.921
  672HOH      O 2201   1.162   1.163   0.558
  672HOH     H1 2202   1.248   1.124   0.548
  672HOH     H2 2203   1.166   1.210   0.641
  673HOH      O 2204   1.796   3.119   2.235
  673HOH     H1 2205   1.773   3.123   2.328
  673HOH     H2 2206   1.764   3.033   2.206
  674HOH      O 2207   0.253   0.917   2.109
  674HOH     H1 2208   0.287   0.877   2.028
  674HOH     H2 2209   0.168   0.953   2.084
  675HOH      O 2210   3.524   2.653   1.858
  675HOH     H1 2211   3.502   2.727   1.802
  675HOH     H2 2212   3.505   2.684   1.947
  676HOH      O 2213   0.245   0.395   1.774
  676HOH     H1 2214   0.248   0.439   1.859
  676HOH     H2 2215   0.322   0.427   1.728
  677HOH      O 2216   0.791   1.158   3.051
  677HOH     H1 2217   0.701   1.139   3.079
  677HOH     H2 2218   0.822   1.221   3.116
  678HOH      O 2219   2.468   2.898   1.859
  678HOH     H1 2220   2.404   2.940   1.916
  678HOH     H2 2221   2.542   2.877   1.916
  679HOH      O 2222   3.078   2.266   3.826
  679HOH     H1 2223   3.037   2.180   3.829
  679HOH     H2 2224   3.139   2.262   3.753
  680HOH      O 2225   2.440   3.295   3.491
  680HOH     H1 2226   2.373   3.317   3.427
  680HOH     H2 2227   2.513   3.262   3.439
  681HOH      O 2228   3.588   3.723   3.615
  681HOH     H1 2229   3.540   3.806   3.614
  681HOH     H2 2230   3.631   3.722   3.701
  682HOH      O 2231   0.460   1.286   1.177
  682HOH     H1 2232   0.366   1.273   1.181
  682HOH     H2 2233   0.488   1.292   1.268
  683HOH      O 2234   3.360   1.468   2.262
  683HOH     H1 2235   3.288   1.420   2.223
  683HOH     H2 2236   3.438   1.438   2.214
  684HOH      O 2237   1.483   1.147   1.333
  684HOH     H1 2238   1.552   1.205   1.299
  684HOH     H2 2239   1.519   1.059   1.323
  685HOH      O 2240   1.477   2.257   3.625
  685HOH     H1 2241   1.497   2.256   3.531
  685HOH     H2 2242   1.382   2.270   3.628
  686HOH      O 2243   3.559   0.931   1.542
  686HOH     H1 2244   3.648   0.967   1.541
  686HOH     H2 2245   3.530   0.937   1.450
  687HOH      O 2246   2.035   0.817   0.374
  687HOH     H1 2247   2.097   0.832   0.446
  687HOH     H2 2248   2.086   0.835   0.295
  688HOH      O 2249   1.569   2.328   3.991
  688HOH     H1 2250   1.503   2.395   3.972
  688HOH     H2 2251   1.624   2.325   3.913
  689HOH      O 2252   0.569   2.946   1.554
  689HOH     H1 2253   0.565   2.851   1.564
  689HOH     H2 2254   0.486   2.969   1.512
  690HOH      O 2255   0.194   0.254   0.416
  690HOH     H1 2256   0.108   0.269   0.455
  690HOH     H2 2257   0.253   0.310   0.466
  691HOH      O 2258   3.925   3.763   2.677
  691HOH     H1 2259   3.854   3.699   2.682
  691HOH     H2 2260   3.947   3.782   2.768
  692HOH      O 2261   2.254   0.335   0.306
  692HOH     H1 2262   2.260   0.406   0.243
  692HOH     H2 2263   2.253   0.378   0.391
  693HOH      O 2264   2.169   3.133   0.323
  693HOH     H1 2265   2.087   3.179   0.309
  693HOH     H2 2266   2.192   3.098   0.237
  694HOH      O 2267   2.504   2.780   1.617
  694HOH     H1 2268   2.445   2.833   1.563
  694HOH     H2 2269   2.508   2.827   1.700
  695HOH      O 2270   3.509   1.723   3.172
  695HOH     H1 2271   3.461   1.800   3.203
  695HOH     H2 2272   3.485   1.653   3.233
  696HOH      O 2273   2.369   3.757   4.008
  696HOH     H1 2274   2.422   3.806   3.945
  696HOH     H2 2275   2.433   3.705   4.058
  697HOH      O 2276   2.377   2.966   1.433
  697HOH     H1 2277   2.416   3.001   1.353
  697HOH     H2 2278   2.350   3.043   1.482
  698HOH      O 2279   2.850   2.492   1.539
  698HOH     H1 2280   2.793   2.426   1.580
  698HOH     H2 2281   2.938   2.455   1.547
  699HOH      O 2282   3.854   2.188   2.201
  699HOH     H1 2283   3.790   2.251   2.168
  699HOH     H2 2284   3.883   2.225   2.284
  700HOH      O 2285   3.892   0.181   2.878
  700HOH     H1 2286   3.854   0.266   2.858
  700HOH     H2 2287   3.932   0.191   2.964
  701HOH      O 2288   2.158   3.828   3.871
  701HOH     H1 2289   2.127   3.752   3.822
  701HOH     H2 2290   2.208   3.791   3.943
  702HOH      O 2291   2.002   1.044   0.145
  702HOH     H1 2292   2.069   0.997   0.097
  702HOH     H2 2293   2.046   1.121   0.181
  703HOH      O 2294   0.531   1.567   0.118
  703HOH     H1 2295   0.613   1.529   0.085
  703HOH     H2 2296   0.470   1.493   0.120
  704HOH      O 2297   3.583   2.425   2.461
  704HOH     H1 2298   3.661   2.472   2.490
  704HOH     H2 2299   3.510   2.476   2.497
  705HOH      O 2300   0.869   0.336   1.980
  705HOH     H1 2301   0.774   0.324   1.984
  705HOH     H2 2302   0.888   0.351   1.888
  706HOH      O 2303   3.337   4.000   0.822
  706HOH     H1 2304   3.412   4.050   0.791
  706HOH     H2 2305   3.268   4.064   0.835
  707HOH      O 2306   3.025   2.707   2.508
  707HOH     H1 2307   2.999   2.718   2.417
  707HOH     H2 2308   3.027   2.612   2.521
  708HOH      O 2309   2.208   2.042   1.611
  708HOH     H1 2310   2.200   2.102   1.686
  708HOH     H2 2311   2.188   1.956   1.647
  709HOH      O 2312   2.955   3.283   0.741
  709HOH     H1 2313   3.047   3.306   0.741
  709HOH     H2 2314   2.936   3.259   0.650
  710HOH      O 2315   1.905   2.473   3.147
  710HOH     H1 2316   1.837   2.414   3.115
  710HOH     H2 2317   1.857   2.547   3.185
  711HOH      O 2318   1.056   3.109   0.112
  711HOH     H1 2319   1.069   3.095   0.206
  711HOH     H2 2320   1.133   3.070   0.071
  712HOH      O 2321   1.277   2.574   0.225
  712HOH     H1 2322   1.189   2.537   0.231
  712HOH     H2 2323   1.265   2.658   0.180
  713HOH      O 2324   3.120   2.505   0.919
  713HOH     H1 2325   3.089   2.524   0.831
  713HOH     H2 2326   3.196   2.561   0.931
  714HOH      O 2327   2.749   2.473   1.996
  714HOH     H1 2328   2.758   2.379   2.013
  714HOH     H2 2329   2.813   2.490   1.927
  715HOH      O 2330   0.680   3.483   1.084
  715HOH     H1 2331   0.640   3.397   1.069
  715HOH     H2 2332   0.684   3.491   1.180
  716HOH      O 2333   3.100   1.912   2.004
  716HOH     H1 2334   3.186   1.936   1.968
  716HOH     H2 2335   3.120   1.873   2.089
  717HOH      O 2336   2.761   0.162   0.707
  717HOH     H1 2337   2.815   0.084   0.694
  717HOH     H2 2338   2.806   0.231   0.658
  718HOH      O 2339   0.982   2.786   1.915
  718HOH     H1 2340   0.983   2.692   1.898
  718HOH     H2 2341   0.890   2.812   1.902
  719HOH      O 2342   1.566   2.919   1.963
  719HOH     H1 2343   1.575   2.894   2.056
  719HOH     H2 2344   1.480   2.886   1.938
  720HOH      O 2345   0.617   2.442   0.749
  720HOH     H1 2346   0.619   2.536   0.738
  720HOH     H2 2347   0.532   2.415   0.713
  721HOH      O 2348   0.710   1.669   2.762
  721HOH     H1 2349   0.694   1.630   2.848
  721HOH     H2 2350   0.628   1.659   2.714
  722HOH      O 2351   3.153   3.120   2.456
  722HOH     H1 2352   3.083   3.057   2.439
  722HOH     H2 2353   3.114   3.205   2.435
  723HOH      O 2354   1.512   3.649   1.019
  723HOH     H1 2355   1.485   3.616   1.105
  723HOH     H2 2356   1.512   3.572   0.963
  724HOH      O 2357   0.106   1.516   2.132
  724HOH     H1 2358   0.103   1.523   2.227
  724HOH     H2 2359   0.069   1.429   2.113
  725HOH      O 2360   1.283   3.134   1.555
  725HOH     H1 2361   1.377   3.143   1.540
  725HOH     H2 2362   1.277   3.081   1.635
  726HOH      O 2363   0.759   1.951   1.491
  726HOH     H1 2364   0.760   2.026   1.550
  726HOH     H2 2365   0.782   1.877   1.547
  727HOH      O 2366   3.343   3.620   0.330
  727HOH     H1 2367   3.430   3.581   0.319
  727HOH     H2 2368   3.360   3.702   0.377
  728HOH      O 2369   1.912   0.306   0.680
  728HOH     H1 2370   1.974   0.275   0.613
  728HOH     H2 2371   1.829   0.267   0.656
  729HOH      O 2372   0.996   2.075   1.674
  729HOH     H1 2373   1.005   2.106   1.764
  729HOH     H2 2374   0.965   2.151   1.625
  730HOH      O 2375   3.388   3.097   1.943
  730HOH     H1 2376   3.445   3.152   1.996
  730HOH     H2 2377   3.321   3.065   2.003
  731HOH      O 2378   1.944   0.532   1.494
  731HOH     H1 2379   2.004   0.457   1.496
  731HOH     H2 2380   1.894   0.520   1.412
  732HOH      O 2381   2.015   2.631   1.943
  732HOH     H1 2382   2.089   2.675   1.985
  732HOH     H2 2383   1.943   2.695   1.948
  733HOH      O 2384   2.356   1.709   2.376
  733HOH     H1 2385   2.306   1.770   2.322
  733HOH     H2 2386   2.347   1.743   2.465
  734HOH      O 2387   2.852   3.922   0.187
  734HOH     H1 2388   2.833   3.930   0.093
  734HOH     H2 2389   2.837   4.010   0.222
  735HOH      O 2390   3.793   2.425   0.377
  735HOH     H1 2391   3.777   2.429   0.283
  735HOH     H2 2392   3.788   2.332   0.398
  736HOH      O 2393   3.126   0.601   0.706
  736HOH     H1 2394   3.147   0.693   0.721
  736HOH     H2 2395   3.189   0.573   0.639
  737HOH      O 2396   1.900   2.499   0.469
  737HOH     H1 2397   1.856   2.417   0.489
  737HOH     H2 2398   1.839   2.546   0.412
  738HOH      O 2399   0.852   2.550   1.403
  738HOH     H1 2400   0.904   2.544   1.323
  738HOH     H2 2401   0.783   2.485   1.392
  739HOH      O 2402   3.425   1.360   3.133
  739HOH     H1 2403   3.405   1.267   3.135
  739HOH     H2 2404   3.341   1.403   3.118
  740HOH      O 2405   3.197   3.557   3.932
  740HOH     H1 2406   3.126   3.538   3.870
  740HOH     H2 2407   3.257   3.613   3.882
  741HOH      O 2408   0.774   1.295   1.550
  741HOH     H1 2409   0.795   1.314   1.642
  741HOH     H2 2410   0.856   1.309   1.503
  742HOH      O 2411   3.593   3.636   4.027
  742HOH     H1 2412   3.644   3.645   4.107
  742HOH     H2 2413   3.655   3.654   3.957
  743HOH      O 2414   2.509   2.462   3.575
  743HOH     H1 2415   2.580   2.431   3.631
  743HOH     H2 2416   2.528   2.426   3.489
  744HOH      O 2417   3.695   0.276   0.409
  744HOH     H1 2418   3.670   0.368   0.413
  744HOH     H2 2419   3.628   0.230   0.460
  745HOH      O 2420   1.420   2.284   1.469
  745HOH     H1 2421   1.407   2.320   1.557
  745HOH     H2 2422   1.515   2.272   1.462
  746HOH      O 2423   2.198   0.081   3.363
  746HOH     H1 2424   2.192   0.175   3.347
  746HOH     H2 2425   2.208   0.073   3.457
  747HOH      O 2426   0.802   0.448   1.465
  747HOH     H1 2427   0.756   0.500   1.531
  747HOH     H2 2428   0.837   0.513   1.404
  748HOH      O 2429   0.924   3.502   1.826
  748HOH     H1 2430   0.981   3.578   1.821
  748HOH     H2 2431   0.963   3.439   1.765
  749HOH      O 2432   3.082   2.233   0.847
  749HOH     H1 2433   3.112   2.322   0.830
  749HOH     H2 2434   3.149   2.177   0.807
  750HOH      O 2435   2.072   2.986   3.390
  750HOH     H1 2436   2.153   2.940   3.369
  750HOH     H2 2437   2.072   2.992   3.485
  751HOH      O 2438   0.678   0.077   1.079
  751HOH     H1 2439   0.602   0.021   1.061
  751HOH     H2 2440   0.703   0.055   1.169
  752HOH      O 2441   2.212   2.458   2.711
  752HOH     H1 2442   2.137   2.477   2.769
  752HOH     H2 2443   2.287   2.452   2.771
  753HOH      O 2444   0.481   1.332   3.106
  753HOH     H1 2445   0.386   1.322   3.100
  753HOH     H2 2446   0.504   1.301   3.194
  754HOH      O 2447   2.219   0.869   0.576
  754HOH     H1 2448   2.218   0.954   0.619
  754HOH     H2 2449   2.309   0.858   0.545
  755HOH      O 2450   3.473   1.931   2.507
  755HOH     H1 2451   3.531   1.856   2.503
  755HOH     H2 2452   3.529   2.006   2.485
  756HOH      O 2453   2.839   1.904   1.918
  756HOH     H1 2454   2.862   1.954   1.840
  756HOH     H2 2455   2.915   1.911   1.975
  757HOH      O 2456   3.366   3.882   2.960
  757HOH     H1 2457   3.315   3.932   3.024
  757HOH     H2 2458   3.436   3.942   2.934
  758HOH      O 2459   3.092   2.736   0.375
  758HOH     H1 2460   3.086   2.712   0.283
  758HOH     H2 2461   3.092   2.832   0.374
  759HOH      O 2462   2.970   3.019   0.017
  759HOH     H1 2463   3.059   2.989   0.000
  759HOH     H2 2464   2.974   3.113   0.004
  760HOH      O 2465   2.684   0.002   1.896
  760HOH     H1 2466   2.632   0.005   1.976
  760HOH     H2 2467   2.680   0.091   1.862
  761HOH      O 2468   1.867   3.825   3.428
  761HOH     H1 2469   1.924   3.758   3.465
  761HOH     H2 2470   1.925   3.896   3.401
  762HOH      O 2471   2.987   2.196   3.213
  762HOH     H1 2472   2.968   2.195   3.306
  762HOH     H2 2473   2.984   2.104   3.187
  763HOH      O 2474   1.951   3.441   0.103
  763HOH     H1 2475   2.031   3.469   0.058
  763HOH     H2 2476   1.902   3.522   0.117
  764HOH      O 2477   0.364   3.474   0.928
  764HOH     H1 2478   0.453   3.495   0.954
  764HOH     H2 2479   0.367   3.381   0.904
  765HOH      O 2480   0.708   2.994   1.791
  765HOH     H1 2481   0.779   3.032   1.740
  765HOH     H2 2482   0.638   2.979   1.728
  766HOH      O 2483   3.817   0.785   1.018
  766HOH     H1 2484   3.760   0.819   0.949
  766HOH     H2 2485   3.883   0.734   0.971
  767HOH      O 2486   1.761   3.089   1.381
  767HOH     H1 2487   1.754   3.151   1.308
  767HOH     H2 2488   1.818   3.019   1.348
  768HOH      O 2489   1.910   2.970   2.840
  768HOH     H1 2490   1.963   2.890   2.842
  768HOH     H2 2491   1.825   2.944   2.875
  769HOH      O 2492   0.485   1.917   3.532
  769HOH     H1 2493   0.542   1.887   3.602
  769HOH     H2 2494   0.450   2.000   3.563
  770HOH      O 2495   2.329   0.818   2.687
  770HOH     H1 2496   2.326   0.766   2.768
  770HOH     H2 2497   2.423   0.831   2.672
  771HOH      O 2498   1.568   3.480   2.196
  771HOH     H1 2499   1.641   3.516   2.146
  771HOH     H2 2500   1.524   3.420   2.136
  772HOH      O 2501   1.248   1.004   1.754
  772HOH     H1 2502   1.235   0.915   1.788
  772HOH     H2 2503   1.339   1.005   1.725
  773HOH      O 2504   0.561   0.422   2.521
  773HOH     H1 2505   0.549   0.474   2.600
  773HOH     H2 2506   0.529   0.477   2.450
  774HOH      O 2507   1.061   2.857   2.163
  774HOH     H1 2508   1.059   2.836   2.070
  774HOH     H2 2509   1.038   2.950   2.167
  775HOH      O 2510   0.223   0.890   1.636
  775HOH     H1 2511   0.150   0.940   1.673
  775HOH     H2 2512   0.235   0.925   1.548
  776HOH      O 2513   2.368   0.005   0.910
  776HOH     H1 2514   2.289   0.059   0.918
  776HOH     H2 2515   2.438   0.068   0.894
  777HOH      O 2516   1.380   1.684   0.298
  777HOH     H1 2517   1.424   1.719   0.376
  777HOH     H2 2518   1.374   1.759   0.239
  778HOH      O 2519   1.314   1.370   1.215
  778HOH     H1 2520   1.318   1.366   1.119
  778HOH     H2 2521   1.390   1.321   1.244
  779HOH      O 2522   0.415   1.033   1.389
  779HOH     H1 2523   0.501   0.993   1.375
  779HOH     H2 2524   0.434   1.122   1.418
  780HOH      O 2525   3.202   3.800   0.983
  780HOH     H1 2526   3.232   3.864   0.918
  780HOH     H2 2527   3.109   3.822   0.996
  781HOH      O 2528   0.245   2.232   3.948
  781HOH     H1 2529   0.218   2.218   4.038
  781HOH     H2 2530   0.260   2.326   3.941
  782HOH      O 2531   3.323   2.454   2.930
  782HOH     H1 2532   3.269   2.375   2.941
  782HOH     H2 2533   3.305   2.506   3.008
  783HOH      O 2534   0.691   3.779   1.119
  783HOH     H1 2535   0.605   3.818   1.099
  783HOH     H2 2536   0.689   3.694   1.075
  784HOH      O 2537   3.586   3.895   0.993
  784HOH     H1 2538   3.554   3.963   0.934
  784HOH     H2 2539   3.641   3.840   0.939
  785HOH      O 2540   2.368   2.497   2.203
  785HOH     H1 2541   2.331   2.471   2.288
  785HOH     H2 2542   2.399   2.415   2.164
  786HOH      O 2543   2.062   2.799   3.115
  786HOH     H1 2544   1.973   2.796   3.152
  786HOH     H2 2545   2.118   2.769   3.186
  787HOH      O 2546   0.398   2.845   1.140
  787HOH     H1 2547   0.405   2.754   1.169
  787HOH     H2 2548   0.349   2.839   1.057
  788HOH      O 2549   2.338   1.775   3.229
  788HOH     H1 2550   2.313   1.683   3.240
  788HOH     H2 2551   2.432   1.776   3.246
  789HOH      O 2552   0.655   3.962   3.159
  789HOH     H1 2553   0.714   4.033   3.180
  789HOH     H2 2554   0.707   3.883   3.173
  790HOH      O 2555   3.066   3.139   3.446
  790HOH     H1 2556   3.153   3.151   3.485
  790HOH     H2 2557   3.008   3.125   3.521
  791HOH      O 2558   3.363   3.810   3.948
  791HOH     H1 2559   3.416   3.871   3.897
  791HOH     H2 2560   3.423   3.774   4.013
  792HOH      O 2561   2.867   0.033   2.436
  792HOH     H1 2562   2.938  -0.000   2.382
  792HOH     H2 2563   2.843  -0.041   2.492
  793HOH      O 2564   3.175   0.340   0.841
  793HOH     H1 2565   3.198   0.426   0.806
  793HOH     H2 2566   3.259   0.295   0.851
  794HOH      O 2567   0.347   0.137   1.277
  794HOH     H1 2568   0.378   0.048   1.296
  794HOH     H2 2569   0.348   0.142   1.181
  795HOH      O 2570   0.105   0.478   1.539
  795HOH     H1 2571   0.171   0.482   1.608
  795HOH     H2 2572   0.027   0.517   1.578
  796HOH      O 2573   0.872   1.362   0.746
  796HOH     H1 2574   0.926   1.378   0.668
  796HOH     H2 2575   0.786   1.341   0.712
  797HOH      O 2576   1.307   0.513   1.309
  797HOH     H1 2577   1.265   0.528   1.394
  797HOH     H2 2578   1.343   0.424   1.316
  798HOH      O 2579   3.405   2.447   3.649
  798HOH     H1 2580   3.467   2.518   3.632
  798HOH     H2 2581   3.431   2.412   3.734
  799HOH      O 2582   2.316   2.531   1.901
  799HOH     H1 2583   2.305   2.606   1.960
  799HOH     H2 2584   2.354   2.463   1.956
  800HOH      O 2585   2.479   0.675   0.724
  800HOH     H1 2586   2.527   0.757   0.713
  800HOH     H2 2587   2.461   0.644   0.635
  801HOH      O 2588   1.812   3.988   1.752
  801HOH     H1 2589   1.748   3.943   1.806
  801HOH     H2 2590   1.818   4.075   1.789
  802HOH      O 2591   1.719   0.201   1.362
  802HOH     H1 2592   1.633   0.176   1.396
  802HOH     H2 2593   1.780   0.142   1.406
  803HOH      O 2594   3.006   1.685   0.118
  803HOH     H1 2595   3.093   1.723   0.110
  803HOH     H2 2596   3.021   1.590   0.123
  804HOH      O 2597   2.934   3.525   1.771
  804HOH     H1 2598   3.014   3.488   1.732
  804HOH     H2 2599   2.935   3.494   1.861
  805HOH      O 2600   3.005   2.640   0.716
  805HOH     H1 2601   3.006   2.644   0.620
  805HOH     H2 2602   2.913   2.652   0.740
  806HOH      O 2603   2.346   0.502   1.102
  806HOH     H1 2604   2.418   0.439   1.099
  806HOH     H2 2605   2.267   0.448   1.109
  807HOH      O 2606   1.562   3.180   1.847
  807HOH     H1 2607   1.593   3.092   1.869
  807HOH     H2 2608   1.625   3.239   1.890
  808HOH      O 2609   1.383   2.317   2.414
  808HOH     H1 2610   1.297   2.283   2.442
  808HOH     H2 2611   1.363   2.380   2.346
  809HOH      O 2612   1.547   2.341   3.163
  809HOH     H1 2613   1.613   2.290   3.210
  809HOH     H2 2614   1.518   2.406   3.227
  810HOH      O 2615   3.232   1.280   2.084
  810HOH     H1 2616   3.237   1.339   2.009
  810HOH     H2 2617   3.237   1.192   2.046
  811HOH      O 2618   1.209   1.878   3.790
  811HOH     H1 2619   1.257   1.856   3.870
  811HOH     H2 2620   1.277   1.912   3.731
  812HOH      O 2621   0.519   2.945   0.904
  812HOH     H1 2622   0.550   2.874   0.960
  812HOH     H2 2623   0.424   2.947   0.919
  813HOH      O 2624   0.047   2.916   0.054
  813HOH     H1 2625   0.067   2.902   0.147
  813HOH     H2 2626   0.057   3.011   0.042
  814HOH      O 2627   0.119   0.893   0.070
  814HOH     H1 2628   0.114   0.828   0.140
  814HOH     H2 2629   0.062   0.859   0.001
  815HOH      O 2630   2.740   3.431   3.163
  815HOH     H1 2631   2.757   3.365   3.097
  815HOH     H2 2632   2.801   3.412   3.234
  816HOH      O 2633   3.195   2.625   3.507
  816HOH     H1 2634   3.253   2.550   3.497
  816HOH     H2 2635   3.110   2.595   3.474
  817HOH      O 2636   1.298   0.346   1.534
  817HOH     H1 2637   1.295   0.348   1.630
  817HOH     H2 2638   1.210   0.321   1.508
  818HOH      O 2639   3.544   1.062   2.873
  818HOH     H1 2640   3.622   1.008   2.886
  818HOH     H2 2641   3.501   1.063   2.959
  819HOH      O 2642   2.786   3.223   2.314
  819HOH     H1 2643   2.739   3.267   2.243
  819HOH     H2 2644   2.722   3.214   2.384
  820HOH      O 2645   0.873   3.413   2.557
  820HOH     H1 2646   0.956   3.425   2.602
  820HOH     H2 2647   0.888   3.450   2.469
  821HOH      O 2648   3.022   3.365   2.387
  821HOH     H1 2649   3.022   3.460   2.394
  821HOH     H2 2650   2.929   3.342   2.381
  822HOH      O 2651   1.517   1.035   1.719
  822HOH     H1 2652   1.552   1.044   1.807
  822HOH     H2 2653   1.589   1.061   1.662
  823HOH      O 2654   3.662   3.729   0.588
  823HOH     H1 2655   3.717   3.670   0.536
  823HOH     H2 2656   3.664   3.692   0.676
  824HOH      O 2657   1.186   1.891   0.499
  824HOH     H1 2658   1.199   1.969   0.554
  824HOH     H2 2659   1.129   1.920   0.428
  825HOH      O 2660   2.726   1.135   1.127
  825HOH     H1 2661   2.711   1.066   1.062
  825HOH     H2 2662   2.639   1.159   1.156
  826HOH      O 2663   0.421   1.612   3.392
  826HOH     H1 2664   0.514   1.590   3.402
  826HOH     H2 2665   0.417   1.705   3.410
  827HOH      O 2666   1.729   0.459   0.274
  827HOH     H1 2667   1.728   0.370   0.307
  827HOH     H2 2668   1.681   0.510   0.340
  828HOH      O 2669   3.965   0.811   3.891
  828HOH     H1 2670   3.892   0.858   3.850
  828HOH     H2 2671   3.926   0.771   3.969
  829HOH      O 2672   2.355   0.568   0.125
  829HOH     H1 2673   2.394   0.499   0.071
  829HOH     H2 2674   2.430   0.623   0.149
  830HOH      O 2675   0.173   0.976   3.349
  830HOH     H1 2676   0.180   1.023   3.266
  830HOH     H2 2677   0.114   1.030   3.403
  831HOH      O 2678   0.309   1.734   0.028
  831HOH     H1 2679   0.383   1.709   0.083
  831HOH     H2 2680   0.349   1.782  -0.044
  832HOH      O 2681   3.900   0.550   1.655
  832HOH     H1 2682   3.819   0.601   1.646
  832HOH     H2 2683   3.896   0.514   1.743
  833HOH      O 2684   3.437   2.832   1.426
  833HOH     H1 2685   3.359   2.865   1.381
  833HOH     H2 2686   3.408   2.751   1.468
  834HOH      O 2687   2.202   0.986   3.187
  834HOH     H1 2688   2.284   1.033   3.198
  834HOH     H2 2689   2.210   0.909   3.243
  835HOH      O 2690   2.484   0.395   3.985
  835HOH     H1 2691   2.547   0.463   3.958
  835HOH     H2 2692   2.457   0.355   3.903
  836HOH      O 2693   0.797   2.506   3.336
  836HOH     H1 2694   0.832   2.447   3.270
  836HOH     H2 2695   0.729   2.455   3.380
  837HOH      O 2696   3.942   2.437   3.857
  837HOH     H1 2697   3.890   2.432   3.777
  837HOH     H2 2698   3.953   2.531   3.873
  838HOH      O 2699   0.886   1.210   1.194
  838HOH     H1 2700   0.870   1.290   1.144
  838HOH     H2 2701   0.885   1.140   1.128
  839HOH      O 2702   1.494   3.983   0.817
  839HOH     H1 2703   1.403   4.004   0.797
  839HOH     H2 2704   1.544   4.054   0.778
  840HOH      O 2705   2.602   2.246   3.980
  840HOH     H1 2706   2.593   2.157   4.014
  840HOH     H2 2707   2.688   2.275   4.011
  841HOH      O 2708   3.719   2.727   0.263
  841HOH     H1 2709   3.787   2.790   0.288
  841HOH     H2 2710   3.765   2.661   0.211
  842HOH      O 2711   1.204   1.611   3.556
  842HOH     H1 2712   1.180   1.645   3.470
  842HOH     H2 2713   1.300   1.615   3.558
  843HOH      O 2714   0.765   2.890   1.182
  843HOH     H1 2715   0.729   2.824   1.123
  843HOH     H2 2716   0.850   2.854   1.210
  844HOH      O 2717   0.833   2.977   0.863
  844HOH     H1 2718   0.791   3.057   0.834
  844HOH     H2 2719   0.816   2.972   0.957
  845HOH      O 2720   1.031   3.214   0.805
  845HOH     H1 2721   0.970   3.211   0.878
  845HOH     H2 2722   1.038   3.307   0.783
  846HOH      O 2723   2.209   2.696   2.116
  846HOH     H1 2724   2.269   2.627   2.143
  846HOH     H2 2725   2.172   2.729   2.199
  847HOH      O 2726   3.806   3.479   0.501
  847HOH     H1 2727   3.775   3.476   0.410
  847HOH     H2 2728   3.749   3.418   0.547
  848HOH      O 2729   2.379   0.059   0.591
  848HOH     H1 2730   2.429   0.014   0.522
  848HOH     H2 2731   2.414   0.148   0.593
  849HOH      O 2732   0.848   0.450   2.504
  849HOH     H1 2733   0.849   0.530   2.556
  849HOH     H2 2734   0.756   0.423   2.501
  850HOH      O 2735   2.365   0.332   3.312
  850HOH     H1 2736   2.457   0.307   3.321
  850HOH     H2 2737   2.367   0.427   3.301
  851HOH      O 2738   3.702   3.651   3.382
  851HOH     H1 2739   3.681   3.734   3.339
  851HOH     H2 2740   3.674   3.663   3.473
  852HOH      O 2741   1.150   3.117   2.377
  852HOH     H1 2742   1.204   3.165   2.315
  852HOH     H2 2743   1.078   3.082   2.325
  853HOH      O 2744   1.330   0.957   0.463
  853HOH     H1 2745   1.418   0.974   0.496
  853HOH     H2 2746   1.290   0.898   0.527
  854HOH      O 2747   0.525   0.763   3.421
  854HOH     H1 2748   0.528   0.681   3.469
  854HOH     H2 2749   0.612   0.801   3.432
  855HOH      O 2750   0.916   1.125   3.816
  855HOH     H1 2751   0.927   1.032   3.794
  855HOH     H2 2752   0.911   1.126   3.911
  856HOH      O 2753   3.324   2.886   1.808
  856HOH     H1 2754   3.346   2.967   1.855
  856HOH     H2 2755   3.265   2.915   1.738
  857HOH      O 2756   3.204   2.273   3.573
  857HOH     H1 2757   3.227   2.190   3.533
  857HOH     H2 2758   3.288   2.315   3.593
  858HOH      O 2759   1.135   1.519   1.615
  858HOH     H1 2760   1.173   1.562   1.538
  858HOH     H2 2761   1.141   1.426   1.595
  859HOH      O 2762   2.135   2.318   3.780
  859HOH     H1 2763   2.179   2.402   3.790
  859HOH     H2 2764   2.119   2.288   3.870
  860HOH      O 2765   1.434   2.015   3.749
  860HOH     H1 2766   1.453   2.010   3.843
  860HOH     H2 2767   1.480   2.093   3.719
  861HOH      O 2768   0.521   3.181   3.349
  861HOH     H1 2769   0.451   3.177   3.284
  861HOH     H2 2770   0.500   3.111   3.411
  862HOH      O 2771   1.630   2.446   0.224
  862HOH     H1 2772   1.573   2.425   0.298
  862HOH     H2 2773   1.591   2.399   0.150
  863HOH      O 2774   0.191   1.941   1.599
  863HOH     H1 2775   0.258   1.900   1.544
  863HOH     H2 2776   0.225   2.030   1.615
  864HOH      O 2777   3.825   3.320   3.299
  864HOH     H1 2778   3.742   3.358   3.271
  864HOH     H2 2779   3.882   3.327   3.223
  865HOH      O 2780   1.547   1.162   0.466
  865HOH     H1 2781   1.574   1.251   0.443
  865HOH     H2 2782   1.548   1.115   0.383
  866HOH      O 2783   3.582   2.054   1.499
  866HOH     H1 2784   3.572   1.965   1.532
  866HOH     H2 2785   3.514   2.061   1.431
  867HOH      O 2786   2.930   0.703   3.014
  867HOH     H1 2787   2.865   0.720   2.946
  867HOH     H2 2788   3.006   0.756   2.988
  868HOH      O 2789   3.858   1.041   2.666
  868HOH     H1 2790   3.836   1.129   2.697
  868HOH     H2 2791   3.804   0.982   2.718
  869HOH      O 2792   0.212   3.935   1.126
  869HOH     H1 2793   0.153   3.982   1.067
  869HOH     H2 2794   0.178   3.846   1.128
  870HOH      O 2795   3.760   2.796   3.406
  870HOH     H1 2796   3.839   2.812   3.457
  870HOH     H2 2797   3.724   2.883   3.389
  871HOH      O 2798   0.419   1.444   2.205
  871HOH     H1 2799   0.364   1.452   2.127
  871HOH     H2 2800   0.503   1.413   2.171
  872HOH      O 2801   1.045   3.950   0.595
  872HOH     H1 2802   1.090   3.888   0.651
  872HOH     H2 2803   1.099   3.957   0.516
  873HOH      O 2804   3.464   2.410   1.933
  873HOH     H1 2805   3.374   2.405   1.901
  873HOH     H2 2806   3.494   2.497   1.907
  874HOH      O 2807   4.005   2.709   3.157
  874HOH     H1 2808   4.092   2.746   3.173
  874HOH     H2 2809   4.014   2.616   3.178
  875HOH      O 2810   3.095   3.288   3.712
  875HOH     H1 2811   3.182   3.251   3.723
  875HOH     H2 2812   3.104   3.351   3.640
  876HOH      O 2813   1.933   1.028   3.300
  876HOH     H1 2814   2.019   0.989   3.291
  876HOH     H2 2815   1.909   1.013   3.392
  877HOH      O 2816   3.620   3.880   3.257
  877HOH     H1 2817   3.588   3.924   3.336
  877HOH     H2 2818   3.654   3.952   3.203
  878HOH      O 2819   2.491   3.077   2.840
  878HOH     H1 2820   2.416   3.036   2.795
  878HOH     H2 2821   2.464   3.168   2.852
  879HOH      O 2822   2.953   3.285   3.937
  879HOH     H1 2823   2.909   3.370   3.928
  879HOH     H2 2824   3.022   3.287   3.870
  880HOH      O 2825   0.583   2.117   2.665
  880HOH     H1 2826   0.573   2.047   2.730
  880HOH     H2 2827   0.623   2.189   2.713
  881HOH      O 2828   1.422   2.174   3.353
  881HOH     H1 2829   1.421   2.215   3.267
  881HOH     H2 2830   1.466   2.090   3.339
  882HOH      O 2831   1.084   0.170   2.085
  882HOH     H1 2832   1.030   0.098   2.056
  882HOH     H2 2833   1.031   0.248   2.068
  883HOH      O 2834   0.841   2.650   3.751
  883HOH     H1 2835   0.822   2.733   3.795
  883HOH     H2 2836   0.902   2.606   3.809
  884HOH      O 2837   3.401   2.337   3.299
  884HOH     H1 2838   3.447   2.420   3.285
  884HOH     H2 2839   3.328   2.340   3.237
  885HOH      O 2840   1.113   2.425   0.597
  885HOH     H1 2841   1.145   2.483   0.666
  885HOH     H2 2842   1.182   2.360   0.586
  886HOH      O 2843   1.709   1.610   3.478
  886HOH     H1 2844   1.636   1.669   3.499
  886HOH     H2 2845   1.667   1.537   3.432
  887HOH      O 2846   1.144   3.796   2.198
  887HOH     H1 2847   1.146   3.892   2.192
  887HOH     H2 2848   1.233   3.769   2.175
  888HOH      O 2849   0.757   0.233   2.274
  888HOH     H1 2850   0.757   0.149   2.228
  888HOH     H2 2851   0.756   0.209   2.367
  889HOH      O 2852   2.378   3.583   3.162
  889HOH     H1 2853   2.335   3.656   3.206
  889HOH     H2 2854   2.350   3.506   3.210
  890HOH      O 2855   1.459   0.377   3.740
  890HOH     H1 2856   1.509   0.299   3.716
  890HOH     H2 2857   1.475   0.388   3.834
  891HOH      O 2858   2.487   2.828   2.553
  891HOH     H1 2859   2.530   2.903   2.512
  891HOH     H2 2860   2.449   2.863   2.634
  892HOH      O 2861   0.695   0.629   1.671
  892HOH     H1 2862   0.702   0.633   1.766
  892HOH     H2 2863   0.722   0.716   1.641
  893HOH      O 2864   2.561   1.534   0.882
  893HOH     H1 2865   2.542   1.444   0.910
  893HOH     H2 2866   2.519   1.541   0.796
  894HOH      O 2867   2.708   2.753   1.992
  894HOH     H1 2868   2.727   2.760   1.898
  894HOH     H2 2869   2.715   2.659   2.010
  895HOH      O 2870   1.988   2.419   1.495
  895HOH     H1 2871   2.056   2.461   1.547
  895HOH     H2 2872   1.932   2.376   1.559
  896HOH      O 2873   3.832   0.493   3.848
  896HOH     H1 2874   3.927   0.494   3.839
  896HOH     H2 2875   3.817   0.471   3.940
  897HOH      O 2876   0.517   2.354   2.971
  897HOH     H1 2877   0.594   2.350   2.915
  897HOH     H2 2878   0.527   2.436   3.020
  898HOH      O 2879   2.153   3.011   0.074
  898HOH     H1 2880   2.064   2.984   0.096
  898HOH     H2 2881   2.209   2.942   0.110
  899HOH      O 2882   3.785   1.371   1.667
  899HOH     H1 2883   3.714   1.364   1.604
  899HOH     H2 2884   3.779   1.291   1.719
  900HOH      O 2885   3.369   0.626   3.240
  900HOH     H1 2886   3.345   0.706   3.287
  900HOH     H2 2887   3.402   0.568   3.308
  901HOH      O 2888   1.504   0.872   2.145
  901HOH     H1 2889   1.570   0.833   2.202
  901HOH     H2 2890   1.497   0.811   2.072
  902HOH      O 2891   3.803   0.349   1.942
  902HOH     H1 2892   3.842   0.326   1.858
  902HOH     H2 2893   3.864   0.314   2.007
  903HOH      O 2894   0.401   0.385   3.706
  903HOH     H1 2895   0.477   0.431   3.742
  903HOH     H2 2896   0.360   0.448   3.646
  904HOH      O 2897   1.314   3.263   3.481
  904HOH     H1 2898   1.395   3.287   3.526
  904HOH     H2 2899   1.245   3.303   3.532
  905HOH      O 2900   0.070   1.887   1.356
  905HOH     H1 2901   0.157   1.852   1.337
  905HOH     H2 2902   0.067   1.894   1.452
  906HOH      O 2903   0.547   3.900   2.613
  906HOH     H1 2904   0.515   3.991   2.611
  906HOH     H2 2905   0.605   3.897   2.688
  907HOH      O 2906   1.014   1.871   0.161
  907HOH     H1 2907   0.972   1.846   0.079
  907HOH     H2 2908   1.108   1.857   0.146
  908HOH      O 2909   1.191   1.148   2.467
  908HOH     H1 2910   1.259   1.214   2.480
  908HOH     H2 2911   1.226   1.089   2.400
  909HOH      O 2912   1.169   2.865   2.867
  909HOH     H1 2913   1.129   2.833   2.786
  909HOH     H2 2914   1.204   2.951   2.844
  910HOH      O 2915   3.546   4.003   1.944
  910HOH     H1 2916   3.517   4.025   2.033
  910HOH     H2 2917   3.555   3.907   1.946
  911HOH      O 2918   1.707   0.690   3.830
  911HOH     H1 2919   1.737   0.646   3.909
  911HOH     H2 2920   1.742   0.638   3.758
  912HOH      O 2921   3.756   1.453   2.978
  912HOH     H1 2922   3.713   1.416   3.055
  912HOH     H2 2923   3.748   1.547   2.989
  913HOH      O 2924   2.868   1.792   0.680
  913HOH     H1 2925   2.808   1.728   0.642
  913HOH     H2 2926   2.953   1.770   0.643
  914HOH      O 2927   1.996   3.924   0.167
  914HOH     H1 2928   1.988   4.019   0.161
  914HOH     H2 2929   2.033   3.908   0.253
  915HOH      O 2930   0.455   3.931   3.743
  915HOH     H1 2931   0.434   3.976   3.662
  915HOH     H2 2932   0.547   3.952   3.759
  916HOH      O 2933   1.234   2.636   2.555
  916HOH     H1 2934   1.201   2.558   2.601
  916HOH     H2 2935   1.175   2.706   2.582
  917HOH      O 2936   0.908   1.016   0.418
  917HOH     H1 2937   0.931   1.108   0.410
  917HOH     H2 2938   0.846   1.000   0.347
  918HOH      O 2939   3.845   1.699   2.046
  918HOH     H1 2940   3.828   1.652   2.127
  918HOH     H2 2941   3.797   1.781   2.055
  919HOH      O 2942   3.612   1.252   1.449
  919HOH     H1 2943   3.662   1.170   1.449
  919HOH     H2 2944   3.563   1.250   1.367
  920HOH      O 2945   0.327   3.864   3.976
  920HOH     H1 2946   0.263   3.934   3.991
  920HOH     H2 2947   0.350   3.871   3.883
  921HOH      O 2948   3.955   3.412   0.765
  921HOH     H1 2949   3.859   3.411   0.764
  921HOH     H2 2950   3.978   3.502   0.785
  922HOH      O 2951   1.055   1.823   1.972
  922HOH     H1 2952   1.122   1.865   1.918
  922HOH     H2 2953   1.040   1.738   1.930
  923HOH      O 2954   1.830   3.355   3.758
  923HOH     H1 2955   1.799   3.343   3.668
  923HOH     H2 2956   1.807   3.446   3.779
  924HOH      O 2957   2.895   3.411   1.154
  924HOH     H1 2958   2.929   3.367   1.077
  924HOH     H2 2959   2.973   3.448   1.197
  925HOH      O 2960   0.743   0.401   0.497
  925HOH     H1 2961   0.784   0.448   0.569
  925HOH     H2 2962   0.753   0.458   0.422
  926HOH      O 2963   0.382   2.556   1.061
  926HOH     H1 2964   0.345   2.573   0.975
  926HOH     H2 2965   0.313   2.582   1.122
  927HOH      O 2966   2.771   2.752   0.339
  927HOH     H1 2967   2.712   2.812   0.294
  927HOH     H2 2968   2.831   2.720   0.271
  928HOH      O 2969   0.814   3.975   0.350
  928HOH     H1 2970   0.820   3.971   0.255
  928HOH     H2 2971   0.893   3.931   0.381
  929HOH      O 2972   1.044   0.142   2.521
  929HOH     H1 2973   0.959   0.159   2.481
  929HOH     H2 2974   1.068   0.225   2.563
  930HOH      O 2975   0.402   1.958   3.882
  930HOH     H1 2976   0.440   1.999   3.960
  930HOH     H2 2977   0.397   2.029   3.818
  931HOH      O 2978   1.786   2.988   1.048
  931HOH     H1 2979   1.771   2.914   1.107
  931HOH     H2 2980   1.840   2.952   0.978
  932HOH      O 2981   2.500   2.118   2.336
  932HOH     H1 2982   2.536   2.067   2.264
  932HOH     H2 2983   2.464   2.053   2.396
  933HOH      O 2984   3.145   2.803   1.419
  933HOH     H1 2985   3.153   2.709   1.405
  933HOH     H2 2986   3.081   2.831   1.354
  934HOH      O 2987   1.082   4.009   1.505
  934HOH     H1 2988   1.169   3.974   1.523
  934HOH     H2 2989   1.023   3.936   1.520
  935HOH      O 2990   0.273   3.986   0.784
  935HOH     H1 2991   0.362   4.009   0.755
  935HOH     H2 2992   0.274   3.891   0.790
  936HOH      O 2993   1.325   1.932   0.157
  936HOH     H1 2994   1.326   2.018   0.200
  936HOH     H2 2995   1.390   1.940   0.087
  937HOH      O 2996   1.668   3.842   1.406
  937HOH     H1 2997   1.642   3.750   1.409
  937HOH     H2 2998   1.588   3.889   1.381
  938HOH      O 2999   0.670   3.978   2.844
  938HOH     H1 3000   0.665   4.070   2.820
  938HOH     H2 3001   0.676   3.978   2.940
  939HOH      O 3002   2.119   2.245   0.016
  939HOH     H1 3003   2.164   2.173   0.060
  939HOH     H2 3004   2.046   2.267   0.074
  940HOH      O 3005   1.776   1.241   1.866
  940HOH     H1 3006   1.843   1.274   1.926
  940HOH     H2 3007   1.722   1.183   1.921
  941HOH      O 3008   0.938   2.727   0.738
  941HOH     H1 3009   0.934   2.823   0.746
  941HOH     H2 3010   0.973   2.698   0.822
  942HOH      O 3011   1.623   3.469   2.852
  942HOH     H1 3012   1.688   3.457   2.921
  942HOH     H2 3013   1.606   3.563   2.852
  943HOH      O 3014   2.663   0.489   2.547
  943HOH     H1 3015   2.690   0.407   2.505
  943HOH     H2 3016   2.727   0.553   2.516
  944HOH      O 3017   3.767   0.498   2.874
  944HOH     H1 3018   3.788   0.452   2.793
  944HOH     H2 3019   3.709   0.569   2.846
  945HOH      O 3020   1.423   2.405   0.373
  945HOH     H1 3021   1.438   2.443   0.460
  945HOH     H2 3022   1.369   2.470   0.328
  946HOH      O 3023   3.092   3.267   1.044
  946HOH     H1 3024   3.144   3.295   0.969
  946HOH     H2 3025   3.157   3.243   1.110
  947HOH      O 3026   0.681   2.937   0.608
  947HOH     H1 3027   0.737   2.967   0.679
  947HOH     H2 3028   0.631   2.865   0.646
  948HOH      O 3029   3.468   3.283   2.187
  948HOH     H1 3030   3.516   3.302   2.268
  948HOH     H2 3031   3.376   3.282   2.213
  949HOH      O 3032   0.317   2.989   2.508
  949HOH     H1 3033   0.323   3.024   2.419
  949HOH     H2 3034   0.233   2.943   2.511
  950HOH      O 3035   0.578   2.742   2.812
  950HOH     H1 3036   0.531   2.825   2.821
  950HOH     H2 3037   0.549   2.689   2.887
  951HOH      O 3038   0.084   2.058   3.789
  951HOH     H1 3039   0.043   2.113   3.855
  951HOH     H2 3040   0.178   2.065   3.807
  952HOH      O 3041   2.696   2.559   1.012
  952HOH     H1 3042   2.780   2.538   0.972
  952HOH     H2 3043   2.642   2.589   0.940
  953HOH      O 3044   1.410   3.693   2.284
  953HOH     H1 3045   1.341   3.665   2.343
  953HOH     H2 3046   1.452   3.612   2.254
  954HOH      O 3047   1.484   1.381   2.655
  954HOH     H1 3048   1.425   1.405   2.584
  954HOH     H2 3049   1.554   1.331   2.612
  955HOH      O 3050   3.160   2.236   2.973
  955HOH     H1 3051   3.105   2.201   3.043
  955HOH     H2 3052   3.146   2.176   2.900
  956HOH      O 3053   1.251   3.382   0.032
  956HOH     H1 3054   1.192   3.345  -0.033
  956HOH     H2 3055   1.230   3.335   0.113
  957HOH      O 3056   2.304   2.284   2.388
  957HOH     H1 3057   2.370   2.219   2.362
  957HOH     H2 3058   2.332   2.312   2.475
  958HOH      O 3059   3.716   2.464   1.722
  958HOH     H1 3060   3.640   2.500   1.768
  958HOH     H2 3061   3.691   2.465   1.630
  959HOH      O 3062   2.584   3.768   0.875
  959HOH     H1 3063   2.600   3.854   0.836
  959HOH     H2 3064   2.639   3.767   0.954
  960HOH      O 3065   1.437   3.323   3.021
  960HOH     H1 3066   1.513   3.273   3.049
  960HOH     H2 3067   1.473   3.406   2.989
  961HOH      O 3068   0.335   1.224   3.584
  961HOH     H1 3069   0.298   1.312   3.591
  961HOH     H2 3070   0.260   1.165   3.590
  962HOH      O 3071   2.199   3.418   0.284
  962HOH     H1 3072   2.183   3.435   0.191
  962HOH     H2 3073   2.219   3.324   0.288
  963HOH      O 3074   2.285   2.839   3.293
  963HOH     H1 3075   2.355   2.808   3.350
  963HOH     H2 3076   2.328   2.864   3.212
  964HOH      O 3077   0.640   2.196   1.934
  964HOH     H1 3078   0.716   2.246   1.962
  964HOH     H2 3079   0.566   2.255   1.949
  965HOH      O 3080   3.467   1.699   0.948
  965HOH     H1 3081   3.415   1.621   0.968
  965HOH     H2 3082   3.413   1.773   0.978
  966HOH      O 3083   2.006   1.204   0.365
  966HOH     H1 3084   1.984   1.258   0.289
  966HOH     H2 3085   1.940   1.135   0.365
  967HOH      O 3086   2.985   1.979   3.822
  967HOH     H1 3087   3.081   1.979   3.816
  967HOH     H2 3088   2.958   1.903   3.770
  968HOH      O 3089   1.277   1.973   3.181
  968HOH     H1 3090   1.195   2.005   3.144
  968HOH     H2 3091   1.256   1.953   3.272
  969HOH      O 3092   1.435   1.477   3.049
  969HOH     H1 3093   1.391   1.436   2.975
  969HOH     H2 3094   1.402   1.567   3.050
  970HOH      O 3095   1.417   1.726   3.899
  970HOH     H1 3096   1.385   1.635   3.898
  970HOH     H2 3097   1.508   1.719   3.929
  971HOH      O 3098   2.096   3.767   2.407
  971HOH     H1 3099   2.092   3.675   2.381
  971HOH     H2 3100   2.075   3.816   2.327
  972HOH      O 3101   3.660   0.669   1.652
  972HOH     H1 3102   3.610   0.747   1.628
  972HOH     H2 3103   3.605   0.596   1.623
  973HOH      O 3104   1.698   2.357   3.748
  973HOH     H1 3105   1.675   2.443   3.714
  973HOH     H2 3106   1.621   2.303   3.732
  974HOH      O 3107   0.025   3.565   0.504
  974HOH     H1 3108  -0.052   3.527   0.545
  974HOH     H2 3109   0.022   3.535   0.414
  975HOH      O 3110   2.845   0.657   2.486
  975HOH     H1 3111   2.866   0.728   2.547
  975HOH     H2 3112   2.930   0.629   2.452
  976HOH      O 3113   1.995   1.797   0.765
  976HOH     H1 3114   1.998   1.812   0.859
  976HOH     H2 3115   2.063   1.731   0.749
  977HOH      O 3116   0.020   1.156   2.340
  977HOH     H1 3117  -0.003   1.140   2.248
  977HOH     H2 3118   0.105   1.200   2.336
  978HOH      O 3119   3.989   3.120   1.397
  978HOH     H1 3120   3.900   3.153   1.394
  978HOH     H2 3121   4.017   3.117   1.305
  979HOH      O 3122   2.179   1.393   2.658
  979HOH     H1 3123   2.136   1.329   2.715
  979HOH     H2 3124   2.107   1.437   2.613
  980HOH      O 3125   2.596   0.804   3.328
  980HOH     H1 3126   2.678   0.795   3.377
  980HOH     H2 3127   2.589   0.724   3.276
  981HOH      O 3128   2.149   3.587   1.473
  981HOH     H1 3129   2.106   3.565   1.555
  981HOH     H2 3130   2.090   3.649   1.431
  982HOH      O 3131   0.949   3.969   0.890
  982HOH     H1 3132   1.006   3.995   0.962
  982HOH     H2 3133   0.873   3.929   0.932
  983HOH      O 3134   0.658   1.151   3.539
  983HOH     H1 3135   0.598   1.159   3.613
  983HOH     H2 3136   0.711   1.231   3.542
  984HOH      O 3137   2.835   2.514   2.826
  984HOH     H1 3138   2.861   2.605   2.823
  984HOH     H2 3139   2.826   2.494   2.920
  985HOH      O 3140   4.012   0.829   2.820
  985HOH     H1 3141   4.091   0.775   2.823
  985HOH     H2 3142   4.020   0.877   2.737
  986HOH      O 3143   2.737   2.963   2.980
  986HOH     H1 3144   2.808   3.025   3.001
  986HOH     H2 3145   2.720   2.978   2.887
  987HOH      O 3146   3.744   2.838   0.887
  987HOH     H1 3147   3.750   2.774   0.816
  987HOH     H2 3148   3.815   2.814   0.947
  988HOH      O 3149   2.526   0.124   0.012
  988HOH     H1 3150   2.451   0.065   0.004
  988HOH     H2 3151   2.490   0.210  -0.011
  989HOH      O 3152   3.930   0.295   0.290
  989HOH     H1 3153   3.963   0.359   0.353
  989HOH     H2 3154   3.854   0.256   0.334
  990HOH      O 3155   1.794   0.554   1.708
  990HOH     H1 3156   1.714   0.503   1.702
  990HOH     H2 3157   1.845   0.529   1.631
  991HOH      O 3158   1.313   1.416   3.893
  991HOH     H1 3159   1.383   1.350   3.894
  991HOH     H2 3160   1.241   1.373   3.847
  992HOH      O 3161   3.898   3.612   3.108
  992HOH     H1 3162   3.874   3.686   3.052
  992HOH     H2 3163   3.923   3.652   3.191
  993HOH      O 3164   1.833   2.837   2.168
  993HOH     H1 3165   1.916   2.852   2.213
  993HOH     H2 3166   1.810   2.747   2.189
  994HOH      O 3167   0.833   1.619   0.257
  994HOH     H1 3168   0.928   1.624   0.261
  994HOH     H2 3169   0.815   1.567   0.178
  995HOH      O 3170   1.970   1.162   1.631
  995HOH     H1 3171   1.997   1.099   1.698
  995HOH     H2 3172   2.044   1.167   1.571
  996HOH      O 3173   2.535   3.783   1.632
  996HOH     H1 3174   2.629   3.780   1.614
  996HOH     H2 3175   2.529   3.805   1.725
  997HOH      O 3176   2.496   1.060   3.271
  997HOH     H1 3177   2.564   1.078   3.206
  997HOH     H2 3178   2.517   0.972   3.303
  998HOH      O 3179   3.918   0.990   0.374
  998HOH     H1 3180   3.953   1.073   0.342
  998HOH     H2 3181   3.862   1.013   0.448
  999HOH      O 3182   3.302   0.772   2.846
  999HOH     H1 3183   3.352   0.817   2.914
  999HOH     H2 3184   3.271   0.692   2.888
 1000HOH      O 3185   3.969   3.890   0.976
 1000HOH     H1 3186   3.966   3.985   0.965
 1000HOH     H2 3187   3.992   3.857   0.889
 1001HOH      O 3188   3.617   3.730   1.966
 1001HOH     H1 3189   3.543   3.674   1.991
 1001HOH     H2 3190   3.694   3.686   2.002
 1002HOH      O 3191   1.259   2.326   2.826
 1002HOH     H1 3192   1.226   2.370   2.905
 1002HOH     H2 3193   1.353   2.346   2.825
 1003HOH      O 3194   2.392   0.038   2.375
 1003HOH     H1 3195   2.456   0.030   2.446
 1003HOH     H2 3196   2.333   0.108   2.403
 1004HOH      O 3197   0.883   1.977   3.216
 1004HOH     H1 3198   0.806   2.029   3.192
 1004HOH     H2 3199   0.884   1.979   3.311
 1005HOH      O 3200   2.886   1.346   2.932
 1005HOH     H1 3201   2.886   1.414   2.998
 1005HOH     H2 3202   2.806   1.360   2.882
 1006HOH      O 3203   1.595   0.804   1.109
 1006HOH     H1 3204   1.594   0.767   1.020
 1006HOH     H2 3205   1.577   0.730   1.166
 1007HOH      O 3206   3.828   3.581   2.087
 1007HOH     H1 3207   3.782   3.609   2.167
 1007HOH     H2 3208   3.873   3.501   2.112
 1008HOH      O 3209   0.880   0.167   2.908
 1008HOH     H1 3210   0.937   0.091   2.894
 1008HOH     H2 3211   0.849   0.189   2.820
 1009HOH      O 3212   3.096   1.763   1.149
 1009HOH     H1 3213   3.148   1.835   1.116
 1009HOH     H2 3214   3.023   1.755   1.086
 1010HOH      O 3215   2.307   3.817   0.706
 1010HOH     H1 3216   2.357   3.899   0.705
 1010HOH     H2 3217   2.236   3.832   0.644
 1011HOH      O 3218   0.576   3.592   3.147
 1011HOH     H1 3219   0.564   3.648   3.071
 1011HOH     H2 3220   0.497   3.537   3.149
 1012HOH      O 3221   2.470   2.459   0.104
 1012HOH     H1 3222   2.508   2.389   0.050
 1012HOH     H2 3223   2.523   2.536   0.085
 1013HOH      O 3224   1.474   1.065   2.462
 1013HOH     H1 3225   1.444   1.109   2.383
 1013HOH     H2 3226   1.461   0.971   2.443
 1014HOH      O 3227   2.151   3.190   1.555
 1014HOH     H1 3228   2.111   3.103   1.549
 1014HOH     H2 3229   2.077   3.250   1.545
 1015HOH      O 3230   0.028   2.229   0.435
 1015HOH     H1 3231  -0.008   2.235   0.347
 1015HOH     H2 3232  -0.047   2.234   0.494
 1016HOH      O 3233   0.610   3.539   1.954
 1016HOH     H1 3234   0.601   3.498   1.868
 1016HOH     H2 3235   0.523   3.535   1.992
 1017HOH      O 3236   1.345   1.887   2.215
 1017HOH     H1 3237   1.310   1.909   2.301
 1017HOH     H2 3238   1.430   1.930   2.212
 1018HOH      O 3239   3.783   3.635   1.606
 1018HOH     H1 3240   3.802   3.560   1.662
 1018HOH     H2 3241   3.812   3.711   1.656
 1019HOH      O 3242   2.376   0.239   3.789
 1019HOH     H1 3243   2.384   0.192   3.706
 1019HOH     H2 3244   2.344   0.173   3.850
 1020HOH      O 3245   3.253   2.000   0.434
 1020HOH     H1 3246   3.274   1.910   0.462
 1020HOH     H2 3247   3.203   1.989   0.353
 1021HOH      O 3248   2.374   2.056   3.016
 1021HOH     H1 3249   2.389   2.148   3.041
 1021HOH     H2 3250   2.453   2.010   3.045
 1022HOH      O 3251   1.629   3.052   3.429
 1022HOH     H1 3252   1.683   3.129   3.411
 1022HOH     H2 3253   1.546   3.069   3.386
 1023HOH      O 3254   3.793   2.574   2.550
 1023HOH     H1 3255   3.851   2.622   2.491
 1023HOH     H2 3256   3.761   2.640   2.612
 1024HOH      O 3257   1.583   1.025   0.883
 1024HOH     H1 3258   1.639   1.094   0.915
 1024HOH     H2 3259   1.567   0.969   0.959
 1025HOH      O 3260   1.742   1.332   0.628
 1025HOH     H1 3261   1.681   1.259   0.639
 1025HOH     H2 3262   1.700   1.390   0.566
 1026HOH      O 3263   1.543   1.776   0.517
 1026HOH     H1 3264   1.609   1.723   0.562
 1026HOH     H2 3265   1.594   1.841   0.468
 1027HOH      O 3266   2.114   3.483   2.300
 1027HOH     H1 3267   2.130   3.405   2.247
 1027HOH     H2 3268   2.047   3.457   2.362
 1028HOH      O 3269   3.211   1.491   3.032
 1028HOH     H1 3270   3.119   1.506   3.053
 1028HOH     H2 3271   3.230   1.551   2.961
 1029HOH      O 3272   0.003   0.786   1.815
 1029HOH     H1 3273   0.056   0.721   1.770
 1029HOH     H2 3274  -0.075   0.738   1.844
 1030HOH      O 3275   2.423   1.929   1.975
 1030HOH     H1 3276   2.431   1.862   1.907
 1030HOH     H2 3277   2.356   1.895   2.034
 1031HOH      O 3278   0.206   1.691   3.658
 1031HOH     H1 3279   0.250   1.775   3.657
 1031HOH     H2 3280   0.119   1.709   3.622
 1032HOH      O 3281   3.777   0.223   0.929
 1032HOH     H1 3282   3.739   0.294   0.980
 1032HOH     H2 3283   3.869   0.222   0.955
 1033HOH      O 3284   0.977   2.733   1.584
 1033HOH     H1 3285   0.934   2.667   1.530
 1033HOH     H2 3286   0.937   2.816   1.557
 1034HOH      O 3287   0.974   0.994   2.368
 1034HOH     H1 3288   1.039   0.968   2.433
 1034HOH     H2 3289   0.948   1.082   2.393
 1035HOH      O 3290   1.717   2.198   1.509
 1035HOH     H1 3291   1.774   2.127   1.480
 1035HOH     H2 3292   1.739   2.210   1.601
 1036HOH      O 3293   1.227   1.967   2.454
 1036HOH     H1 3294   1.201   2.056   2.431
 1036HOH     H2 3295   1.246   1.970   2.547
 1037HOH      O 3296   0.686   2.477   1.740
 1037HOH     H1 3297   0.672   2.494   1.833
 1037HOH     H2 3298   0.757   2.536   1.715
 1038HOH      O 3299   0.588   1.924   2.878
 1038HOH     H1 3300   0.515   1.865   2.863
 1038HOH     H2 3301   0.661   1.866   2.901
 1039HOH      O 3302   0.901   3.778   2.640
 1039HOH     H1 3303   0.947   3.717   2.582
 1039HOH     H2 3304   0.964   3.850   2.653
 1040HOH      O 3305   0.373   1.709   2.861
 1040HOH     H1 3306   0.403   1.623   2.889
 1040HOH     H2 3307   0.332   1.747   2.939
 1041HOH      O 3308   2.403   1.761   1.762
 1041HOH     H1 3309   2.308   1.759   1.757
 1041HOH     H2 3310   2.431   1.673   1.736
 1042HOH      O 3311   0.318   0.772   2.773
 1042HOH     H1 3312   0.297   0.854   2.729
 1042HOH     H2 3313   0.300   0.788   2.865
 1043HOH      O 3314   3.669   2.950   1.521
 1043HOH     H1 3315   3.580   2.931   1.494
 1043HOH     H2 3316   3.725   2.908   1.455
 1044HOH      O 3317   3.966   2.696   0.666
 1044HOH     H1 3318   3.890   2.693   0.607
 1044HOH     H2 3319   3.993   2.605   0.675
 1045HOH      O 3320   1.001   3.447   0.404
 1045HOH     H1 3321   0.997   3.540   0.428
 1045HOH     H2 3322   1.090   3.420   0.429
 1046HOH      O 3323   0.559   2.726   0.707
 1046HOH     H1 3324   0.530   2.792   0.770
 1046HOH     H2 3325   0.504   2.741   0.630
 1047HOH      O 3326   3.486   1.983   0.745
 1047HOH     H1 3327   3.570   2.008   0.705
 1047HOH     H2 3328   3.492   1.887   0.754
 1048HOH      O 3329   3.736   1.467   0.625
 1048HOH     H1 3330   3.745   1.408   0.700
 1048HOH     H2 3331   3.736   1.555   0.663
 1049HOH      O 3332   1.746   0.197   0.317
 1049HOH     H1 3333   1.824   0.181   0.265
 1049HOH     H2 3334   1.681   0.135   0.283
 1050HOH      O 3335   0.300   1.738   0.510
 1050HOH     H1 3336   0.252   1.818   0.488
 1050HOH     H2 3337   0.251   1.701   0.584
 1051HOH      O 3338   1.828   0.121   2.199
 1051HOH     H1 3339   1.862   0.204   2.234
 1051HOH     H2 3340   1.796   0.074   2.275
 1052HOH      O 3341   2.978   0.332   2.418
 1052HOH     H1 3342   3.020   0.270   2.476
 1052HOH     H2 3343   2.886   0.306   2.417
 1053HOH      O 3344   2.076   2.455   2.289
 1053HOH     H1 3345   2.081   2.425   2.198
 1053HOH     H2 3346   2.094   2.376   2.341
 1054HOH      O 3347   0.586   0.126   3.422
 1054HOH     H1 3348   0.662   0.124   3.364
 1054HOH     H2 3349   0.619   0.096   3.507
 1055HOH      O 3350   1.786   3.438   1.751
 1055HOH     H1 3351   1.771   3.388   1.831
 1055HOH     H2 3352   1.709   3.495   1.744
 1056HOH      O 3353   3.493   1.726   2.227
 1056HOH     H1 3354   3.440   1.686   2.296
 1056HOH     H2 3355   3.583   1.706   2.252
 1057HOH      O 3356   0.441   2.497   0.281
 1057HOH     H1 3357   0.461   2.403   0.280
 1057HOH     H2 3358   0.518   2.537   0.321
 1058HOH      O 3359   1.187   2.443   2.090
 1058HOH     H1 3360   1.275   2.443   2.125
 1058HOH     H2 3361   1.131   2.469   2.163
 1059HOH      O 3362   0.067   3.031   1.633
 1059HOH     H1 3363   0.006   2.984   1.690
 1059HOH     H2 3364   0.010   3.077   1.570
 1060HOH      O 3365   2.907   2.211   1.135
 1060HOH     H1 3366   2.847   2.139   1.115
 1060HOH     H2 3367   2.975   2.206   1.067
 1061HOH      O 3368   1.858   2.180   2.050
 1061HOH     H1 3369   1.924   2.115   2.024
 1061HOH     H2 3370   1.786   2.127   2.086
 1062HOH      O 3371   2.429   1.627   2.073
 1062HOH     H1 3372   2.441   1.532   2.070
 1062HOH     H2 3373   2.504   1.663   2.026
 1063HOH      O 3374   0.889   0.624   3.894
 1063HOH     H1 3375   0.890   0.534   3.927
 1063HOH     H2 3376   0.918   0.677   3.968
 1064HOH      O 3377   1.641   1.014   1.970
 1064HOH     H1 3378   1.576   0.980   2.032
 1064HOH     H2 3379   1.714   0.953   1.976
 1065HOH      O 3380   2.409   3.091   3.180
 1065HOH     H1 3381   2.469   3.076   3.106
 1065HOH     H2 3382   2.465   3.084   3.257
 1066HOH      O 3383   2.370   0.486   2.534
 1066HOH     H1 3384   2.381   0.521   2.446
 1066HOH     H2 3385   2.460   0.476   2.567
 1067HOH      O 3386   3.135   1.830   2.290
 1067HOH     H1 3387   3.168   1.750   2.330
 1067HOH     H2 3388   3.176   1.900   2.340
 1068HOH      O 3389   0.160   3.589   1.928
 1068HOH     H1 3390   0.144   3.677   1.962
 1068HOH     H2 3391   0.220   3.550   1.991
 1069HOH      O 3392   3.980   3.618   3.681
 1069HOH     H1 3393   4.044   3.675   3.639
 1069HOH     H2 3394   3.926   3.585   3.609
 1070HOH      O 3395   3.110   1.926   3.175
 1070HOH     H1 3396   3.055   1.858   3.213
 1070HOH     H2 3397   3.148   1.886   3.097
 1071HOH      O 3398   2.896   3.193   0.467
 1071HOH     H1 3399   2.826   3.129   0.477
 1071HOH     H2 3400   2.896   3.213   0.373
 1072HOH      O 3401   2.304   0.768   1.488
 1072HOH     H1 3402   2.393   0.745   1.463
 1072HOH     H2 3403   2.304   0.863   1.494
 1073HOH      O 3404   1.513   2.445   2.901
 1073HOH     H1 3405   1.485   2.392   2.975
 1073HOH     H2 3406   1.607   2.430   2.895
 1074HOH      O 3407   1.535   2.752   1.467
 1074HOH     H1 3408   1.620   2.731   1.430
 1074HOH     H2 3409   1.555   2.798   1.549
 1075HOH      O 3410   0.815   3.652   0.557
 1075HOH     H1 3411   0.827   3.746   0.570
 1075HOH     H2 3412   0.759   3.645   0.480
 1076HOH      O 3413   2.540   2.958   0.856
 1076HOH     H1 3414   2.625   3.000   0.869
 1076HOH     H2 3415   2.534   2.894   0.927
 1077HOH      O 3416   3.223   3.390   2.224
 1077HOH     H1 3417   3.174   3.395   2.142
 1077HOH     H2 3418   3.156   3.374   2.291
 1078HOH      O 3419   2.951   2.671   0.152
 1078HOH     H1 3420   2.943   2.576   0.156
 1078HOH     H2 3421   2.928   2.693   0.062
 1079HOH      O 3422   2.894   0.501   1.482
 1079HOH     H1 3423   2.888   0.503   1.387
 1079HOH     H2 3424   2.819   0.449   1.510
 1080HOH      O 3425   1.944   1.165   0.680
 1080HOH     H1 3426   1.940   1.126   0.593
 1080HOH     H2 3427   1.886   1.241   0.674
 1081HOH      O 3428   0.559   3.646   2.512
 1081HOH     H1 3429   0.552   3.729   2.560
 1081HOH     H2 3430   0.616   3.667   2.438
 1082HOH      O 3431   0.342   2.322   3.396
 1082HOH     H1 3432   0.277   2.277   3.450
 1082HOH     H2 3433   0.340   2.275   3.313
 1083HOH      O 3434   0.814   2.731   2.209
 1083HOH     H1 3435   0.766   2.788   2.269
 1083HOH     H2 3436   0.883   2.786   2.172
 1084HOH      O 3437   0.507   2.775   2.303
 1084HOH     H1 3438   0.493   2.776   2.208
 1084HOH     H2 3439   0.568   2.848   2.319
 1085HOH      O 3440   3.772   3.663   0.847
 1085HOH     H1 3441   3.842   3.702   0.795
 1085HOH     H2 3442   3.801   3.673   0.937
 1086HOH      O 3443   2.385   3.071   0.518
 1086HOH     H1 3444   2.326   3.103   0.450
 1086HOH     H2 3445   2.363   2.978   0.528
 1087HOH      O 3446   1.798   0.810   3.490
 1087HOH     H1 3447   1.856   0.875   3.529
 1087HOH     H2 3448   1.856   0.754   3.439
 1088HOH      O 3449   0.149   0.130   2.536
 1088HOH     H1 3450   0.058   0.131   2.564
 1088HOH     H2 3451   0.198   0.162   2.613
 1089HOH      O 3452   0.560   3.901   0.500
 1089HOH     H1 3453   0.488   3.948   0.458
 1089HOH     H2 3454   0.639   3.947   0.473
 1090HOH      O 3455   1.088   0.518   0.225
 1090HOH     H1 3456   1.058   0.586   0.285
 1090HOH     H2 3457   1.153   0.561   0.171
 1091HOH      O 3458   0.456   3.308   3.917
 1091HOH     H1 3459   0.528   3.354   3.959
 1091HOH     H2 3460   0.425   3.246   3.983
 1092HOH      O 3461   0.348   2.411   0.649
 1092HOH     H1 3462   0.298   2.449   0.577
 1092HOH     H2 3463   0.351   2.317   0.629
 1093HOH      O 3464   1.838   0.695   0.547
 1093HOH     H1 3465   1.878   0.616   0.581
 1093HOH     H2 3466   1.911   0.746   0.511
 1094HOH      O 3467   2.704   0.262   2.393
 1094HOH     H1 3468   2.757   0.186   2.416
 1094HOH     H2 3469   2.618   0.226   2.369
 1095HOH      O 3470   1.050   1.557   1.867
 1095HOH     H1 3471   1.085   1.531   1.782
 1095HOH     H2 3472   1.119   1.535   1.929
 1096HOH      O 3473   1.233   1.991   2.721
 1096HOH     H1 3474   1.317   2.004   2.765
 1096HOH     H2 3475   1.198   1.910   2.759
 1097HOH      O 3476   3.509   0.606   0.722
 1097HOH     H1 3477   3.443   0.558   0.673
 1097HOH     H2 3478   3.496   0.697   0.698
 1098HOH      O 3479   1.890   2.386   0.114
 1098HOH     H1 3480   1.902   2.456   0.049
 1098HOH     H2 3481   1.825   2.421   0.175
 1099HOH      O 3482   0.073   0.068   2.008
 1099HOH     H1 3483   0.066   0.158   2.041
 1099HOH     H2 3484  -0.016   0.043   1.985
 1100HOH      O 3485   2.215   0.821   0.160
 1100HOH     H1 3486   2.284   0.884   0.181
 1100HOH     H2 3487   2.258   0.752   0.112
 1101HOH      O 3488   3.147   0.863   2.067
 1101HOH     H1 3489   3.104   0.779   2.082
 1101HOH     H2 3490   3.194   0.881   2.149
 1102HOH      O 3491   0.958   1.705   1.566
 1102HOH     H1 3492   1.012   1.782   1.586
 1102HOH     H2 3493   1.010   1.631   1.596
 1103HOH      O 3494   2.287   2.527   0.703
 1103HOH     H1 3495   2.263   2.434   0.711
 1103HOH     H2 3496   2.248   2.554   0.620
 1104HOH      O 3497   2.828   1.619   0.988
 1104HOH     H1 3498   2.749   1.610   0.935
 1104HOH     H2 3499   2.882   1.544   0.962
 1105HOH      O 3500   2.614   0.473   1.563
 1105HOH     H1 3501   2.543   0.453   1.624
 1105HOH     H2 3502   2.586   0.553   1.518
 1106HOH      O 3503   2.591   2.609   2.717
 1106HOH     H1 3504   2.563   2.667   2.645
 1106HOH     H2 3505   2.622   2.530   2.673
 1107HOH      O 3506   0.377   1.825   2.607
 1107HOH     H1 3507   0.337   1.789   2.528
 1107HOH     H2 3508   0.349   1.765   2.677
 1108HOH      O 3509   0.987   1.323   1.413
 1108HOH     H1 3510   0.997   1.413   1.383
 1108HOH     H2 3511   0.958   1.275   1.336
 1109HOH      O 3512   2.149   1.729   3.917
 1109HOH     H1 3513   2.194   1.755   3.836
 1109HOH     H2 3514   2.208   1.755   3.987
 1110HOH      O 3515   3.387   1.945   2.070
 1110HOH     H1 3516   3.390   1.859   2.111
 1110HOH     H2 3517   3.398   2.007   2.142
 1111HOH      O 3518   1.248   2.097   1.409
 1111HOH     H1 3519   1.305   2.168   1.439
 1111HOH     H2 3520   1.294   2.017   1.433
 1112HOH      O 3521   1.555   3.967   1.635
 1112HOH     H1 3522   1.631   3.926   1.595
 1112HOH     H2 3523   1.530   4.036   1.574
 1113HOH      O 3524   3.773   2.851   2.144
 1113HOH     H1 3525   3.698   2.841   2.203
 1113HOH     H2 3526   3.734   2.859   2.057
 1114HOH      O 3527   3.271   1.175   2.463
 1114HOH     H1 3528   3.228   1.211   2.541
 1114HOH     H2 3529   3.199   1.141   2.409
 1115HOH      O 3530   0.021   0.173   3.089
 1115HOH     H1 3531   0.045   0.252   3.139
 1115HOH     H2 3532  -0.005   0.110   3.156
 1116HOH      O 3533   1.603   1.514   3.967
 1116HOH     H1 3534   1.556   1.455   4.025
 1116HOH     H2 3535   1.673   1.462   3.930
 1117HOH      O 3536   1.722   0.112   2.497
 1117HOH     H1 3537   1.761   0.028   2.521
 1117HOH     H2 3538   1.684   0.145   2.579
 1118HOH      O 3539   0.468   2.944   3.510
 1118HOH     H1 3540   0.517   2.984   3.582
 1118HOH     H2 3541   0.536   2.899   3.459
 1119HOH      O 3542   0.284   1.446   1.568
 1119HOH     H1 3543   0.330   1.526   1.544
 1119HOH     H2 3544   0.248   1.465   1.655
 1120HOH      O 3545   1.378   0.545   2.288
 1120HOH     H1 3546   1.361   0.620   2.345
 1120HOH     H2 3547   1.469   0.521   2.305
 1121HOH      O 3548   3.438   1.698   2.922
 1121HOH     H1 3549   3.403   1.786   2.909
 1121HOH     H2 3550   3.468   1.697   3.012
 1122HOH      O 3551   2.369   1.494   0.610
 1122HOH     H1 3552   2.367   1.550   0.533
 1122HOH     H2 3553   2.327   1.413   0.582
 1123HOH      O 3554   2.253   1.698   3.662
 1123HOH     H1 3555   2.292   1.621   3.620
 1123HOH     H2 3556   2.316   1.768   3.648
 1124HOH      O 3557   1.002   3.661   1.009
 1124HOH     H1 3558   0.973   3.731   1.068
 1124HOH     H2 3559   1.096   3.678   0.996
 1125HOH      O 3560   1.224   0.055   2.304
 1125HOH     H1 3561   1.166   0.083   2.375
 1125HOH     H2 3562   1.195   0.106   2.228
 1126HOH      O 3563   0.061   0.027   3.519
 1126HOH     H1 3564   0.095   0.067   3.598
 1126HOH     H2 3565   0.125   0.049   3.451
 1127HOH      O 3566   1.898   2.319   1.737
 1127HOH     H1 3567   1.869   2.393   1.791
 1127HOH     H2 3568   1.976   2.286   1.781
 1128HOH      O 3569   3.611   0.200   2.690
 1128HOH     H1 3570   3.563   0.272   2.731
 1128HOH     H2 3571   3.625   0.229   2.600
 1129HOH      O 3572   1.027   0.731   0.048
 1129HOH     H1 3573   1.048   0.811   0.096
 1129HOH     H2 3574   1.110   0.682   0.045
 1130HOH      O 3575   1.700   1.942   0.351
 1130HOH     H1 3576   1.771   1.921   0.411
 1130HOH     H2 3577   1.726   2.025   0.311
 1131HOH      O 3578   1.642   1.507   1.411
 1131HOH     H1 3579   1.608   1.555   1.336
 1131HOH     H2 3580   1.680   1.428   1.375
 1132HOH      O 3581   3.225   2.056   0.157
 1132HOH     H1 3582   3.154   2.094   0.105
 1132HOH     H2 3583   3.276   2.132   0.187
 1133HOH      O 3584   0.410   3.834   3.147
 1133HOH     H1 3585   0.431   3.808   3.057
 1133HOH     H2 3586   0.482   3.891   3.173
 1134HOH      O 3587   0.917   0.909   0.671
 1134HOH     H1 3588   0.824   0.888   0.675
 1134HOH     H2 3589   0.929   0.948   0.584
 1135HOH      O 3590   0.111   3.299   2.631
 1135HOH     H1 3591   0.064   3.243   2.569
 1135HOH     H2 3592   0.185   3.333   2.581
 1136HOH      O 3593   2.725   1.049   2.441
 1136HOH     H1 3594   2.699   1.063   2.350
 1136HOH     H2 3595   2.742   1.137   2.474
 1137HOH      O 3596   1.036   1.127   2.121
 1137HOH     H1 3597   0.962   1.189   2.116
 1137HOH     H2 3598   1.015   1.071   2.196
 1138HOH      O 3599   0.780   1.110   2.643
 1138HOH     H1 3600   0.730   1.181   2.683
 1138HOH     H2 3601   0.822   1.149   2.567
 1139HOH      O 3602   0.892   3.807   1.580
 1139HOH     H1 3603   0.905   3.714   1.561
 1139HOH     H2 3604   0.818   3.832   1.525
 1140HOH      O 3605   0.943   2.693   3.456
 1140HOH     H1 3606   0.902   2.684   3.542
 1140HOH     H2 3607   0.890   2.639   3.399
 1141HOH      O 3608   1.747   2.283   0.553
 1141HOH     H1 3609   1.816   2.226   0.520
 1141HOH     H2 3610   1.681   2.224   0.589
 1142HOH      O 3611   2.317   0.254   1.910
 1142HOH     H1 3612   2.272   0.172   1.891
 1142HOH     H2 3613   2.404   0.244   1.872
 1143HOH      O 3614   0.831   3.400   0.642
 1143HOH     H1 3615   0.816   3.493   0.629
 1143HOH     H2 3616   0.878   3.373   0.563
 1144HOH      O 3617   0.863   1.956   3.487
 1144HOH     H1 3618   0.824   1.929   3.570
 1144HOH     H2 3619   0.835   2.047   3.475
 1145HOH      O 3620   3.623   0.023   0.757
 1145HOH     H1 3621   3.679   0.013   0.681
 1145HOH     H2 3622   3.672   0.080   0.816
 1146HOH      O 3623   3.727   3.024   0.112
 1146HOH     H1 3624   3.759   3.015   0.202
 1146HOH     H2 3625   3.632   3.026   0.121
 1147HOH      O 3626   3.045   3.564   0.671
 1147HOH     H1 3627   3.114   3.631   0.679
 1147HOH     H2 3628   2.965   3.614   0.655
 1148HOH      O 3629   0.130   1.095   3.836
 1148HOH     H1 3630   0.136   1.002   3.813
 1148HOH     H2 3631   0.149   1.097   3.930
 1149HOH      O 3632   0.327   1.477   3.825
 1149HOH     H1 3633   0.320   1.550   3.763
 1149HOH     H2 3634   0.379   1.411   3.778
 1150HOH      O 3635   1.327   2.837   0.480
 1150HOH     H1 3636   1.332   2.848   0.575
 1150HOH     H2 3637   1.391   2.898   0.445
 1151HOH      O 3638   1.445   1.438   0.666
 1151HOH     H1 3639   1.424   1.394   0.584
 1151HOH     H2 3640   1.403   1.524   0.659
 1152HOH      O 3641   2.212   3.880   1.602
 1152HOH     H1 3642   2.189   3.956   1.655
 1152HOH     H2 3643   2.173   3.899   1.516
 1153HOH      O 3644   3.385   1.564   1.921
 1153HOH     H1 3645   3.478   1.549   1.906
 1153HOH     H2 3646   3.354   1.610   1.844
 1154HOH      O 3647   2.436   2.420   2.892
 1154HOH     H1 3648   2.510   2.475   2.866
 1154HOH     H2 3649   2.455   2.334   2.855
 1155HOH      O 3650   2.968   3.955   0.650
 1155HOH     H1 3651   3.038   3.899   0.618
 1155HOH     H2 3652   3.001   4.044   0.640
 1156HOH      O 3653   3.649   3.893   2.373
 1156HOH     H1 3654   3.660   3.920   2.464
 1156HOH     H2 3655   3.610   3.805   2.379
 1157HOH      O 3656   3.202   3.405   0.824
 1157HOH     H1 3657   3.234   3.462   0.894
 1157HOH     H2 3658   3.159   3.465   0.762
 1158HOH      O 3659   0.855   2.256   2.291
 1158HOH     H1 3660   0.893   2.191   2.231
 1158HOH     H2 3661   0.842   2.208   2.373
 1159HOH      O 3662   2.463   0.601   1.938
 1159HOH     H1 3663   2.388   0.643   1.980
 1159HOH     H2 3664   2.522   0.579   2.010
 1160HOH      O 3665   3.188   0.876   1.214
 1160HOH     H1 3666   3.183   0.836   1.300
 1160HOH     H2 3667   3.268   0.929   1.217
 1161HOH      O 3668   0.697   0.238   3.861
 1161HOH     H1 3669   0.773   0.250   3.917
 1161HOH     H2 3670   0.622   0.252   3.920
 1162HOH      O 3671   1.771   1.763   3.797
 1162HOH     H1 3672   1.845   1.714   3.762
 1162HOH     H2 3673   1.727   1.701   3.855
 1163HOH      O 3674   2.409   2.048   3.357
 1163HOH     H1 3675   2.371   2.004   3.281
 1163HOH     H2 3676   2.502   2.058   3.334
 1164HOH      O 3677   2.985   3.710   2.968
 1164HOH     H1 3678   2.901   3.726   2.926
 1164HOH     H2 3679   2.986   3.771   3.043
 1165HOH      O 3680   2.229   0.679   1.743
 1165HOH     H1 3681   2.204   0.770   1.758
 1165HOH     H2 3682   2.265   0.678   1.655
 1166HOH      O 3683   0.085   2.853   2.693
 1166HOH     H1 3684   0.037   2.848   2.610
 1166HOH     H2 3685   0.161   2.796   2.679
 1167HOH      O 3686   1.540   3.606   1.784
 1167HOH     H1 3687   1.455   3.612   1.828
 1167HOH     H2 3688   1.587   3.684   1.814
 1168HOH      O 3689   3.954   0.047   0.155
 1168HOH     H1 3690   4.030   0.066   0.101
 1168HOH     H2 3691   3.940   0.128   0.206
 1169HOH      O 3692   3.498   0.039   2.210
 1169HOH     H1 3693   3.459   0.115   2.255
 1169HOH     H2 3694   3.540  -0.010   2.281
 1170HOH      O 3695   3.243   2.242   1.165
 1170HOH     H1 3696   3.294   2.276   1.091
 1170HOH     H2 3697   3.187   2.315   1.191
 1171HOH      O 3698   2.024   1.538   3.090
 1171HOH     H1 3699   2.041   1.542   3.184
 1171HOH     H2 3700   2.000   1.446   3.074
 1172HOH      O 3701   2.873   3.320   3.363
 1172HOH     H1 3702   2.957   3.273   3.368
 1172HOH     H2 3703   2.812   3.266   3.413
 1173HOH      O 3704   2.159   0.354   3.487
 1173HOH     H1 3705   2.125   0.440   3.462
 1173HOH     H2 3706   2.237   0.341   3.432
 1174HOH      O 3707   1.936   1.554   2.622
 1174HOH     H1 3708   1.878   1.630   2.612
 1174HOH     H2 3709   1.879   1.485   2.656
 1175HOH      O 3710   0.666   2.824   3.410
 1175HOH     H1 3711   0.753   2.785   3.421
 1175HOH     H2 3712   0.653   2.826   3.315
 1176HOH      O 3713   3.068   0.926   2.914
 1176HOH     H1 3714   3.028   1.009   2.941
 1176HOH     H2 3715   3.158   0.932   2.945
 1177HOH      O 3716   1.247   3.364   3.217
 1177HOH     H1 3717   1.275   3.310   3.291
 1177HOH     H2 3718   1.312   3.346   3.149
 1178HOH      O 3719   1.936   3.318   0.346
 1178HOH     H1 3720   1.841   3.307   0.347
 1178HOH     H2 3721   1.954   3.368   0.266
 1179HOH      O 3722   2.402   0.439   1.705
 1179HOH     H1 3723   2.336   0.383   1.746
 1179HOH     H2 3724   2.414   0.511   1.768
 1180HOH      O 3725   1.204   2.861   3.143
 1180HOH     H1 3726   1.182   2.948   3.176
 1180HOH     H2 3727   1.190   2.867   3.049
 1181HOH      O 3728   2.815   3.710   2.327
 1181HOH     H1 3729   2.731   3.704   2.372
 1181HOH     H2 3730   2.792   3.730   2.236
 1182HOH      O 3731   3.651   3.324   1.752
 1182HOH     H1 3732   3.711   3.396   1.775
 1182HOH     H2 3733   3.585   3.325   1.821
 1183HOH      O 3734   1.138   0.107   1.019
 1183HOH     H1 3735   1.082   0.184   1.024
 1183HOH     H2 3736   1.142   0.086   0.925
 1184HOH      O 3737   3.436   2.701   2.119
 1184HOH     H1 3738   3.475   2.777   2.163
 1184HOH     H2 3739   3.362   2.677   2.175
 1185HOH      O 3740   1.137   3.935   2.579
 1185HOH     H1 3741   1.088   4.013   2.553
 1185HOH     H2 3742   1.127   3.874   2.506
 1186HOH      O 3743   2.740   2.754   1.468
 1186HOH     H1 3744   2.646   2.747   1.486
 1186HOH     H2 3745   2.772   2.664   1.474
 1187HOH      O 3746   3.767   3.077   1.741
 1187HOH     H1 3747   3.759   3.053   1.648
 1187HOH     H2 3748   3.738   3.168   1.745
 1188HOH      O 3749   2.905   2.092   1.697
 1188HOH     H1 3750   2.876   2.034   1.626
 1188HOH     H2 3751   2.836   2.158   1.703
 1189HOH      O 3752   3.911   2.953   0.350
 1189HOH     H1 3753   3.901   2.947   0.445
 1189HOH     H2 3754   4.005   2.939   0.335
 1190HOH      O 3755   3.965   0.955   0.723
 1190HOH     H1 3756   3.902   0.902   0.675
 1190HOH     H2 3757   4.048   0.937   0.681
 1191HOH      O 3758   1.374   0.644   3.085
 1191HOH     H1 3759   1.315   0.697   3.137
 1191HOH     H2 3760   1.437   0.707   3.049
 1192HOH      O 3761   0.227   3.316   0.306
 1192HOH     H1 3762   0.214   3.396   0.256
 1192HOH     H2 3763   0.251   3.250   0.241
 1193HOH      O 3764   1.316   3.274   2.236
 1193HOH     H1 3765   1.269   3.339   2.183
 1193HOH     H2 3766   1.322   3.314   2.322
 1194HOH      O 3767   3.975   3.142   2.847
 1194HOH     H1 3768   3.994   3.191   2.767
 1194HOH     H2 3769   4.014   3.056   2.832
 1195HOH      O 3770   3.290   2.974   3.738
 1195HOH     H1 3771   3.296   2.985   3.833
 1195HOH     H2 3772   3.377   2.997   3.706
 1196HOH      O 3773   1.751   0.497   1.304
 1196HOH     H1 3774   1.717   0.411   1.328
 1196HOH     H2 3775   1.747   0.499   1.209
 1197HOH      O 3776   0.639   2.922   3.103
 1197HOH     H1 3777   0.714   2.950   3.050
 1197HOH     H2 3778   0.571   2.985   3.083
 1198HOH      O 3779   0.779   3.207   0.424
 1198HOH     H1 3780   0.769   3.292   0.382
 1198HOH     H2 3781   0.733   3.216   0.508
 1199HOH      O 3782   0.355   0.178   3.300
 1199HOH     H1 3783   0.339   0.271   3.315
 1199HOH     H2 3784   0.440   0.161   3.340
 1200HOH      O 3785   1.231   2.276   3.507
 1200HOH     H1 3786   1.179   2.201   3.539
 1200HOH     H2 3787   1.304   2.236   3.460
 1201HOH      O 3788   2.126   0.082   1.718
 1201HOH     H1 3789   2.036   0.095   1.748
 1201HOH     H2 3790   2.136   0.143   1.645
 1202HOH      O 3791   0.044   1.248   2.053
 1202HOH     H1 3792   0.024   1.154   2.054
 1202HOH     H2 3793   0.084   1.263   1.967
 1203HOH      O 3794   2.970   2.553   3.778
 1203HOH     H1 3795   3.062   2.531   3.764
 1203HOH     H2 3796   2.923   2.479   3.740
 1204HOH      O 3797   3.091   2.768   2.883
 1204HOH     H1 3798   3.111   2.691   2.831
 1204HOH     H2 3799   3.002   2.792   2.857
 1205HOH      O 3800   1.416   3.133   3.837
 1205HOH     H1 3801   1.337   3.080   3.848
 1205HOH     H2 3802   1.456   3.135   3.923
 1206HOH      O 3803   1.034   0.276   3.772
 1206HOH     H1 3804   1.107   0.224   3.739
 1206HOH     H2 3805   1.053   0.365   3.742
 1207HOH      O 3806   3.700   1.066   0.511
 1207HOH     H1 3807   3.683   1.146   0.560
 1207HOH     H2 3808   3.644   1.000   0.551
 1208HOH      O 3809   2.338   1.112   0.652
 1208HOH     H1 3810   2.293   1.180   0.601
 1208HOH     H2 3811   2.412   1.086   0.596
 1209HOH      O 3812   0.910   1.329   3.238
 1209HOH     H1 3813   0.897   1.370   3.324
 1209HOH     H2 3814   1.004   1.339   3.221
 1210HOH      O 3815   3.765   1.430   1.199
 1210HOH     H1 3816   3.767   1.517   1.238
 1210HOH     H2 3817   3.676   1.398   1.216
 1211HOH      O 3818   3.106   1.983   3.555
 1211HOH     H1 3819   3.036   1.919   3.544
 1211HOH     H2 3820   3.183   1.943   3.515
 1212HOH      O 3821   2.489   3.624   3.515
 1212HOH     H1 3822   2.467   3.534   3.491
 1212HOH     H2 3823   2.557   3.615   3.582
 1213HOH      O 3824   1.261   3.423   0.515
 1213HOH     H1 3825   1.340   3.474   0.499
 1213HOH     H2 3826   1.249   3.425   0.610
 1214HOH      O 3827   1.396   0.795   2.524
 1214HOH     H1 3828   1.382   0.806   2.618
 1214HOH     H2 3829   1.322   0.840   2.484
 1215HOH      O 3830   0.240   3.817   2.772
 1215HOH     H1 3831   0.184   3.884   2.812
 1215HOH     H2 3832   0.225   3.827   2.678
 1216HOH      O 3833   2.459   0.320   0.572
 1216HOH     H1 3834   2.437   0.402   0.527
 1216HOH     H2 3835   2.548   0.301   0.546
 1217HOH      O 3836   3.461   0.209   1.773
 1217HOH     H1 3837   3.521   0.275   1.738
 1217HOH     H2 3838   3.515   0.131   1.784
 1218HOH      O 3839   1.503   0.772   0.193
 1218HOH     H1 3840   1.582   0.823   0.175
 1218HOH     H2 3841   1.520   0.732   0.279
 1219HOH      O 3842   2.089   1.961   1.369
 1219HOH     H1 3843   2.003   1.948   1.409
 1219HOH     H2 3844   2.145   1.990   1.441
 1220HOH      O 3845   0.724   0.005   3.728
 1220HOH     H1 3846   0.710   0.086   3.777
 1220HOH     H2 3847   0.813  -0.022   3.750
 1221HOH      O 3848   0.944   0.130   1.720
 1221HOH     H1 3849   0.993   0.096   1.645
 1221HOH     H2 3850   0.988   0.092   1.796
 1222HOH      O 3851   1.699   2.529   0.871
 1222HOH     H1 3852   1.694   2.571   0.785
 1222HOH     H2 3853   1.781   2.560   0.909
 1223HOH      O 3854   1.850   3.564   1.045
 1223HOH     H1 3855   1.816   3.652   1.031
 1223HOH     H2 3856   1.823   3.541   1.134
 1224HOH      O 3857   2.444   3.382   2.828
 1224HOH     H1 3858   2.463   3.448   2.895
 1224HOH     H2 3859   2.404   3.431   2.757
 1225HOH      O 3860   1.870   1.583   0.337
 1225HOH     H1 3861   1.899   1.528   0.264
 1225HOH     H2 3862   1.891   1.672   0.310
 1226HOH      O 3863   1.066   0.235   0.163
 1226HOH     H1 3864   1.058   0.325   0.193
 1226HOH     H2 3865   1.159   0.224   0.143
 1227HOH      O 3866   0.982   2.357   1.619
 1227HOH     H1 3867   0.949   2.412   1.690
 1227HOH     H2 3868   0.978   2.412   1.541
 1228HOH      O 3869   0.700   3.711   2.292
 1228HOH     H1 3870   0.733   3.800   2.286
 1228HOH     H2 3871   0.757   3.660   2.234
 1229HOH      O 3872   3.030   1.581   2.375
 1229HOH     H1 3873   3.009   1.489   2.392
 1229HOH     H2 3874   2.981   1.629   2.441
 1230HOH      O 3875   2.607   1.960   0.373
 1230HOH     H1 3876   2.597   1.887   0.434
 1230HOH     H2 3877   2.587   1.923   0.287
 1231HOH      O 3878   2.828   3.717   0.678
 1231HOH     H1 3879   2.873   3.790   0.635
 1231HOH     H2 3880   2.737   3.727   0.651
 1232HOH      O 3881   2.033   2.377   0.995
 1232HOH     H1 3882   1.963   2.324   0.956
 1232HOH     H2 3883   1.990   2.426   1.065
 1233HOH      O 3884   1.309   3.706   2.620
 1233HOH     H1 3885   1.244   3.773   2.641
 1233HOH     H2 3886   1.360   3.696   2.700
 1234HOH      O 3887   3.858   0.933   3.379
 1234HOH     H1 3888   3.791   0.974   3.325
 1234HOH     H2 3889   3.809   0.878   3.441
 1235HOH      O 3890   2.943   2.402   2.583
 1235HOH     H1 3891   2.907   2.445   2.660
 1235HOH     H2 3892   2.868   2.387   2.526
 1236HOH      O 3893   0.781   0.935   3.445
 1236HOH     H1 3894   0.866   0.969   3.417
 1236HOH     H2 3895   0.741   1.007   3.493
 1237HOH      O 3896   1.647   2.824   0.090
 1237HOH     H1 3897   1.592   2.784   0.022
 1237HOH     H2 3898   1.612   2.912   0.100
 1238HOH      O 3899   1.994   0.974   2.985
 1238HOH     H1 3900   2.057   0.973   3.057
 1238HOH     H2 3901   1.915   0.932   3.021
 1239HOH      O 3902   3.589   2.617   3.540
 1239HOH     H1 3903   3.677   2.649   3.525
 1239HOH     H2 3904   3.532   2.682   3.499
 1240HOH      O 3905   1.367   2.992   3.378
 1240HOH     H1 3906   1.288   2.941   3.399
 1240HOH     H2 3907   1.355   3.075   3.424
 1241HOH      O 3908   0.640   3.488   0.059
 1241HOH     H1 3909   0.652   3.578   0.031
 1241HOH     H2 3910   0.725   3.462   0.096
 1242HOH      O 3911   0.766   0.208   0.870
 1242HOH     H1 3912   0.734   0.181   0.956
 1242HOH     H2 3913   0.839   0.267   0.889
 1243HOH      O 3914   3.596   1.030   0.075
 1243HOH     H1 3915   3.631   0.949   0.114
 1243HOH     H2 3916   3.513   1.003   0.037
 1244HOH      O 3917   1.364   0.145   0.396
 1244HOH     H1 3918   1.376   0.156   0.302
 1244HOH     H2 3919   1.294   0.207   0.419
 1245HOH      O 3920   0.125   3.855   1.689
 1245HOH     H1 3921   0.197   3.910   1.719
 1245HOH     H2 3922   0.162   3.766   1.689
 1246HOH      O 3923   1.899   1.348   1.357
 1246HOH     H1 3924   1.887   1.327   1.450
 1246HOH     H2 3925   1.976   1.405   1.355
 1247HOH      O 3926   0.608   3.435   2.692
 1247HOH     H1 3927   0.683   3.405   2.639
 1247HOH     H2 3928   0.586   3.521   2.655
 1248HOH      O 3929   2.167   0.387   1.544
 1248HOH     H1 3930   2.244   0.430   1.581
 1248HOH     H2 3931   2.193   0.363   1.455
 1249HOH      O 3932   1.945   3.562   2.775
 1249HOH     H1 3933   1.863   3.604   2.748
 1249HOH     H2 3934   1.952   3.486   2.717
 1250HOH      O 3935   2.001   1.376   2.107
 1250HOH     H1 3936   1.955   1.417   2.180
 1250HOH     H2 3937   2.053   1.447   2.069
 1251HOH      O 3938   3.515   0.250   0.646
 1251HOH     H1 3939   3.517   0.245   0.741
 1251HOH     H2 3940   3.494   0.160   0.618
 1252HOH      O 3941   3.639   0.720   2.766
 1252HOH     H1 3942   3.644   0.763   2.851
 1252HOH     H2 3943   3.595   0.784   2.710
 1253HOH      O 3944   2.440   1.507   3.534
 1253HOH     H1 3945   2.509   1.562   3.496
 1253HOH     H2 3946   2.480   1.469   3.612
 1254HOH      O 3947   3.085   3.908   2.597
 1254HOH     H1 3948   3.030   3.830   2.594
 1254HOH     H2 3949   3.044   3.965   2.663
 1255HOH      O 3950   1.951   0.631   2.993
 1255HOH     H1 3951   1.884   0.689   3.027
 1255HOH     H2 3952   2.032   0.659   3.037
 1256HOH      O 3953   3.698   3.000   2.762
 1256HOH     H1 3954   3.755   3.039   2.828
 1256HOH     H2 3955   3.733   2.911   2.750
 1257HOH      O 3956   3.509   3.445   0.196
 1257HOH     H1 3957   3.527   3.491   0.114
 1257HOH     H2 3958   3.414   3.447   0.204
 1258HOH      O 3959   1.658   3.853   1.963
 1258HOH     H1 3960   1.568   3.862   1.994
 1258HOH     H2 3961   1.712   3.856   2.042
 1259HOH      O 3962   2.099   0.486   1.908
 1259HOH     H1 3963   2.142   0.566   1.877
 1259HOH     H2 3964   2.168   0.420   1.905
 1260HOH      O 3965   2.326   2.799   0.524
 1260HOH     H1 3966   2.250   2.742   0.531
 1260HOH     H2 3967   2.372   2.768   0.446
 1261HOH      O 3968   1.553   0.784   3.603
 1261HOH     H1 3969   1.633   0.774   3.551
 1261HOH     H2 3970   1.581   0.768   3.693
 1262HOH      O 3971   2.662   3.942   3.144
 1262HOH     H1 3972   2.571   3.972   3.144
 1262HOH     H2 3973   2.662   3.862   3.196
 1263HOH      O 3974   3.589   2.541   2.917
 1263HOH     H1 3975   3.499   2.509   2.911
 1263HOH     H2 3976   3.593   2.585   3.002
 1264HOH      O 3977   1.392   3.675   2.884
 1264HOH     H1 3978   1.437   3.757   2.906
 1264HOH     H2 3979   1.383   3.630   2.968
 1265HOH      O 3980   3.429   3.239   0.755
 1265HOH     H1 3981   3.427   3.260   0.849
 1265HOH     H2 3982   3.360   3.294   0.717
 1266HOH      O 3983   3.702   3.701   1.367
 1266HOH     H1 3984   3.722   3.680   1.458
 1266HOH     H2 3985   3.739   3.788   1.354
 1267HOH      O 3986   3.850   1.470   3.596
 1267HOH     H1 3987   3.897   1.392   3.567
 1267HOH     H2 3988   3.905   1.543   3.568
 1268HOH      O 3989   0.209   0.529   2.852
 1268HOH     H1 3990   0.259   0.605   2.824
 1268HOH     H2 3991   0.192   0.480   2.772
 1269HOH      O 3992   1.142   0.712   1.516
 1269HOH     H1 3993   1.220   0.765   1.499
 1269HOH     H2 3994   1.152   0.683   1.606
 1270HOH      O 3995   1.280   2.884   0.794
 1270HOH     H1 3996   1.345   2.898   0.863
 1270HOH     H2 3997   1.263   2.789   0.797
 1271HOH      O 3998   0.007   0.112   1.074
 1271HOH     H1 3999  -0.035   0.145   1.153
 1271HOH     H2 4000   0.057   0.187   1.041
 1272HOH      O 4001   2.175   0.180   2.287
 1272HOH     H1 4002   2.114   0.236   2.335
 1272HOH     H2 4003   2.124   0.143   2.215
 1273HOH      O 4004   3.820   0.672   0.320
 1273HOH     H1 4005   3.736   0.649   0.360
 1273HOH     H2 4006   3.860   0.732   0.383
 1274HOH      O 4007   3.011   1.554   2.733
 1274HOH     H1 4008   3.000   1.586   2.823
 1274HOH     H2 4009   2.951   1.607   2.681
 1275HOH      O 4010   0.903   2.590   3.005
 1275HOH     H1 4011   0.884   2.592   2.912
 1275HOH     H2 4012   0.922   2.681   3.028
 1276HOH      O 4013   2.721   0.647   1.160
 1276HOH     H1 4014   2.667   0.615   1.088
 1276HOH     H2 4015   2.732   0.571   1.217
 1277HOH      O 4016   0.147   2.147   2.334
 1277HOH     H1 4017   0.229   2.150   2.383
 1277HOH     H2 4018   0.156   2.216   2.269
 1278HOH      O 4019   3.968   3.847   0.461
 1278HOH     H1 4020   4.056   3.877   0.438
 1278HOH     H2 4021   3.977   3.752   0.474
 1279HOH      O 4022   2.850   1.885   0.032
 1279HOH     H1 4023   2.915   1.826   0.071
 1279HOH     H2 4024   2.889   1.912  -0.051
 1280HOH      O 4025   0.340   0.150   1.009
 1280HOH     H1 4026   0.395   0.226   0.989
 1280HOH     H2 4027   0.331   0.104   0.926
 1281HOH      O 4028   0.770   1.428   1.781
 1281HOH     H1 4029   0.858   1.465   1.782
 1281HOH     H2 4030   0.717   1.488   1.833
 1282HOH      O 4031   1.747   0.388   3.928
 1282HOH     H1 4032   1.761   0.379   3.833
 1282HOH     H2 4033   1.823   0.437   3.958
 1283HOH      O 4034   3.025   2.878   0.939
 1283HOH     H1 4035   3.098   2.906   0.883
 1283HOH     H2 4036   2.997   2.795   0.900
 1284HOH      O 4037   1.100   3.106   1.933
 1284HOH     H1 4038   1.019   3.116   1.883
 1284HOH     H2 4039   1.157   3.174   1.899
 1285HOH      O 4040   2.661   0.465   0.241
 1285HOH     H1 4041   2.615   0.409   0.178
 1285HOH     H2 4042   2.637   0.554   0.216
 1286HOH      O 4043   1.290   1.240   0.210
 1286HOH     H1 4044   1.198   1.247   0.235
 1286HOH     H2 4045   1.299   1.150   0.178
 1287HOH      O 4046   0.320   0.357   2.350
 1287HOH     H1 4047   0.254   0.291   2.331
 1287HOH     H2 4048   0.310   0.422   2.280
 1288HOH      O 4049   2.581   3.566   2.978
 1288HOH     H1 4050   2.646   3.530   3.038
 1288HOH     H2 4051   2.507   3.590   3.033
 1289HOH      O 4052   1.466   2.753   3.920
 1289HOH     H1 4053   1.442   2.788   3.834
 1289HOH     H2 4054   1.460   2.658   3.911
 1290HOH      O 4055   1.474   0.117   1.447
 1290HOH     H1 4056   1.439   0.117   1.358
 1290HOH     H2 4057   1.427   0.188   1.491
 1291HOH      O 4058   2.663   2.948   0.061
 1291HOH     H1 4059   2.653   2.897  -0.019
 1291HOH     H2 4060   2.755   2.976   0.060
 1292HOH      O 4061   1.914   0.811   1.534
 1292HOH     H1 4062   1.918   0.716   1.543
 1292HOH     H2 4063   1.968   0.844   1.607
 1293HOH      O 4064   3.220   3.928   0.182
 1293HOH     H1 4065   3.309   3.939   0.148
 1293HOH     H2 4066   3.199   3.837   0.164
 1294HOH      O 4067   1.943   2.714   1.650
 1294HOH     H1 4068   2.009   2.646   1.661
 1294HOH     H2 4069   1.909   2.729   1.738
 1295HOH      O 4070   3.865   0.095   2.329
 1295HOH     H1 4071   3.888   0.092   2.422
 1295HOH     H2 4072   3.869   0.004   2.301
 1296HOH      O 4073   2.719   3.014   2.690
 1296HOH     H1 4074   2.710   3.000   2.595
 1296HOH     H2 4075   2.644   3.069   2.712
 1297HOH      O 4076   2.347   1.026   1.512
 1297HOH     H1 4077   2.423   1.060   1.558
 1297HOH     H2 4078   2.295   1.103   1.490
 1298HOH      O 4079   3.408   3.613   3.060
 1298HOH     H1 4080   3.434   3.705   3.067
 1298HOH     H2 4081   3.351   3.610   2.983
 1299HOH      O 4082   1.369   0.350   2.505
 1299HOH     H1 4083   1.286   0.386   2.536
 1299HOH     H2 4084   1.381   0.389   2.418
 1300HOH      O 4085   1.682   1.178   2.582
 1300HOH     H1 4086   1.775   1.160   2.570
 1300HOH     H2 4087   1.639   1.139   2.506
 1301HOH      O 4088   0.614   0.788   1.310
 1301HOH     H1 4089   0.627   0.856   1.244
 1301HOH     H2 4090   0.568   0.718   1.264
 1302HOH      O 4091   3.387   1.887   3.526
 1302HOH     H1 4092   3.404   1.855   3.615
 1302HOH     H2 4093   3.435   1.970   3.521
 1303HOH      O 4094   3.553   1.790   0.239
 1303HOH     H1 4095   3.539   1.767   0.331
 1303HOH     H2 4096   3.467   1.782   0.199
 1304HOH      O 4097   2.130   0.765   2.473
 1304HOH     H1 4098   2.085   0.800   2.549
 1304HOH     H2 4099   2.212   0.730   2.507
 1305HOH      O 4100   0.637   1.338   2.080
 1305HOH     H1 4101   0.718   1.353   2.130
 1305HOH     H2 4102   0.661   1.271   2.016
 1306HOH      O 4103   0.814   1.457   0.051
 1306HOH     H1 4104   0.756   1.408  -0.006
 1306HOH     H2 4105   0.901   1.444   0.013
 1307HOH      O 4106   0.471   1.018   0.464
 1307HOH     H1 4107   0.473   1.100   0.415
 1307HOH     H2 4108   0.399   1.029   0.526
 1308HOH      O 4109   2.724   2.296   1.681
 1308HOH     H1 4110   2.665   2.369   1.699
 1308HOH     H2 4111   2.669   2.230   1.638
 1309HOH      O 4112   2.218   1.937   2.239
 1309HOH     H1 4113   2.162   1.979   2.304
 1309HOH     H2 4114   2.193   1.978   2.156
 1310HOH      O 4115   2.904   2.540   3.410
 1310HOH     H1 4116   2.927   2.545   3.317
 1310HOH     H2 4117   2.907   2.446   3.431
 1311HOH      O 4118   0.226   1.124   0.220
 1311HOH     H1 4119   0.143   1.151   0.259
 1311HOH     H2 4120   0.216   1.031   0.203
 1312HOH      O 4121   3.219   0.150   2.519
 1312HOH     H1 4122   3.249   0.190   2.601
 1312HOH     H2 4123   3.194   0.061   2.544
 1313HOH      O 4124   1.259   3.754   0.965
 1313HOH     H1 4125   1.272   3.813   1.039
 1313HOH     H2 4126   1.346   3.720   0.945
 1314HOH      O 4127   0.691   3.667   3.409
 1314HOH     H1 4128   0.646   3.599   3.359
 1314HOH     H2 4129   0.706   3.737   3.345
 1315HOH      O 4130   3.309   0.003   1.688
 1315HOH     H1 4131   3.317   0.092   1.721
 1315HOH     H2 4132   3.399  -0.024   1.672
 1316HOH      O 4133   1.149   0.747   3.193
 1316HOH     H1 4134   1.118   0.775   3.279
 1316HOH     H2 4135   1.077   0.770   3.133
 1317HOH      O 4136   3.167   2.658   1.909
 1317HOH     H1 4137   3.219   2.722   1.861
 1317HOH     H2 4138   3.151   2.699   1.994
 1318HOH      O 4139   0.199   3.019   1.244
 1318HOH     H1 4140   0.251   2.940   1.258
 1318HOH     H2 4141   0.117   2.988   1.207
 1319HOH      O 4142   1.610   1.320   1.190
 1319HOH     H1 4143   1.698   1.358   1.191
 1319HOH     H2 4144   1.574   1.344   1.104
 1320HOH      O 4145   1.041   2.665   1.005
 1320HOH     H1 4146   1.066   2.743   1.055
 1320HOH     H2 4147   1.044   2.594   1.069
 1321HOH      O 4148   0.307   3.049   0.593
 1321HOH     H1 4149   0.332   2.963   0.561
 1321HOH     H2 4150   0.222   3.036   0.635
 1322HOH      O 4151   1.999   1.122   2.221
 1322HOH     H1 4152   1.969   1.133   2.311
 1322HOH     H2 4153   1.994   1.210   2.183
 1323HOH      O 4154   1.635   3.190   3.144
 1323HOH     H1 4155   1.638   3.103   3.183
 1323HOH     H2 4156   1.727   3.216   3.137
 1324HOH      O 4157   1.211   1.145   2.748
 1324HOH     H1 4158   1.220   1.063   2.797
 1324HOH     H2 4159   1.198   1.117   2.657
 1325HOH      O 4160   1.055   1.083   0.076
 1325HOH     H1 4161   1.022   1.145   0.141
 1325HOH     H2 4162   1.133   1.045   0.116
 1326HOH      O 4163   0.331   1.373   0.132
 1326HOH     H1 4164   0.280   1.293   0.143
 1326HOH     H2 4165   0.323   1.419   0.216
 1327HOH      O 4166   1.038   1.562   2.335
 1327HOH     H1 4167   1.133   1.576   2.332
 1327HOH     H2 4168   1.002   1.646   2.362
 1328HOH      O 4169   0.652   3.728   3.936
 1328HOH     H1 4170   0.567   3.771   3.932
 1328HOH     H2 4171   0.660   3.682   3.853
 1329HOH      O 4172   1.865   1.547   1.584
 1329HOH     H1 4173   1.805   1.528   1.656
 1329HOH     H2 4174   1.808   1.557   1.508
 1330HOH      O 4175   2.144   2.775   3.795
 1330HOH     H1 4176   2.113   2.758   3.884
 1330HOH     H2 4177   2.204   2.703   3.776
 1331HOH      O 4178   0.729   2.239   0.361
 1331HOH     H1 4179   0.790   2.165   0.358
 1331HOH     H2 4180   0.756   2.289   0.438
 1332HOH      O 4181   0.124   2.296   3.556
 1332HOH     H1 4182   0.091   2.296   3.466
 1332HOH     H2 4183   0.082   2.371   3.597
 1333HOH      O 4184   1.820   3.879   3.069
 1333HOH     H1 4185   1.913   3.879   3.091
 1333HOH     H2 4186   1.813   3.931   2.989
 1334HOH      O 4187   2.011   2.505   2.883
 1334HOH     H1 4188   1.997   2.490   2.976
 1334HOH     H2 4189   1.926   2.487   2.843
 1335HOH      O 4190   2.579   3.320   1.354
 1335HOH     H1 4191   2.504   3.368   1.390
 1335HOH     H2 4192   2.548   3.230   1.346
 1336HOH      O 4193   1.381   3.937   2.076
 1336HOH     H1 4194   1.400   3.923   2.168
 1336HOH     H2 4195   1.374   4.032   2.067
 1337HOH      O 4196   0.087   2.019   3.164
 1337HOH     H1 4197   0.110   2.095   3.111
 1337HOH     H2 4198   0.067   2.054   3.251
 1338HOH      O 4199   1.920   1.740   3.345
 1338HOH     H1 4200   1.846   1.716   3.401
 1338HOH     H2 4201   1.889   1.723   3.256
 1339HOH      O 4202   0.513   1.163   2.853
 1339HOH     H1 4203   0.530   1.070   2.871
 1339HOH     H2 4204   0.464   1.193   2.928
 1340HOH      O 4205   3.769   0.376   1.168
 1340HOH     H1 4206   3.832   0.444   1.189
 1340HOH     H2 4207   3.786   0.306   1.230
 1341HOH      O 4208   2.955   1.344   2.253
 1341HOH     H1 4209   2.930   1.261   2.212
 1341HOH     H2 4210   3.014   1.385   2.191
 1342HOH      O 4211   3.180   2.975   0.740
 1342HOH     H1 4212   3.271   2.970   0.769
 1342HOH     H2 4213   3.186   2.995   0.647
 1343HOH      O 4214   1.466   2.753   2.252
 1343HOH     H1 4215   1.467   2.848   2.245
 1343HOH     H2 4216   1.509   2.734   2.335
 1344HOH      O 4217   2.778   2.924   3.251
 1344HOH     H1 4218   2.870   2.920   3.278
 1344HOH     H2 4219   2.780   2.910   3.157
 1345HOH      O 4220   1.520   1.433   3.348
 1345HOH     H1 4221   1.512   1.355   3.403
 1345HOH     H2 4222   1.491   1.404   3.261
 1346HOH      O 4223   3.562   3.656   1.110
 1346HOH     H1 4224   3.555   3.744   1.072
 1346HOH     H2 4225   3.629   3.664   1.178
 1347HOH      O 4226   0.937   3.567   1.393
 1347HOH     H1 4227   0.984   3.525   1.321
 1347HOH     H2 4228   0.846   3.539   1.382
 1348HOH      O 4229   1.239   2.161   0.585
 1348HOH     H1 4230   1.285   2.149   0.668
 1348HOH     H2 4231   1.147   2.168   0.609
 1349HOH      O 4232   2.204   0.733   1.233
 1349HOH     H1 4233   2.200   0.788   1.311
 1349HOH     H2 4234   2.283   0.680   1.246
 1350HOH      O 4235   3.042   1.193   1.896
 1350HOH     H1 4236   2.961   1.201   1.846
 1350HOH     H2 4237   3.109   1.175   1.831
 1351HOH      O 4238   1.328   3.403   1.568
 1351HOH     H1 4239   1.303   3.311   1.559
 1351HOH     H2 4240   1.383   3.420   1.491
 1352HOH      O 4241   3.962   1.651   0.419
 1352HOH     H1 4242   3.905   1.574   0.429
 1352HOH     H2 4243   4.008   1.658   0.502
 1353HOH      O 4244   3.473   0.566   2.134
 1353HOH     H1 4245   3.510   0.482   2.107
 1353HOH     H2 4246   3.428   0.599   2.056
 1354HOH      O 4247   1.535   1.717   0.835
 1354HOH     H1 4248   1.612   1.679   0.794
 1354HOH     H2 4249   1.464   1.700   0.773
 1355HOH      O 4250   0.722   1.857   3.696
 1355HOH     H1 4251   0.787   1.789   3.715
 1355HOH     H2 4252   0.732   1.920   3.767
 1356HOH      O 4253   3.493   0.979   2.463
 1356HOH     H1 4254   3.566   1.036   2.486
 1356HOH     H2 4255   3.420   1.010   2.517
 1357HOH      O 4256   0.206   3.361   1.635
 1357HOH     H1 4257   0.244   3.284   1.592
 1357HOH     H2 4258   0.137   3.324   1.691
 1358HOH      O 4259   0.578   1.905   1.246
 1358HOH     H1 4260   0.570   1.960   1.324
 1358HOH     H2 4261   0.673   1.892   1.235
 1359HOH      O 4262   3.999   2.037   1.145
 1359HOH     H1 4263   3.911   2.002   1.160
 1359HOH     H2 4264   4.046   2.018   1.226
 1360HOH      O 4265   1.899   3.471   1.309
 1360HOH     H1 4266   1.935   3.410   1.373
 1360HOH     H2 4267   1.923   3.433   1.224
 1361HOH      O 4268   2.714   0.182   3.035
 1361HOH     H1 4269   2.693   0.095   3.070
 1361HOH     H2 4270   2.770   0.222   3.101
 1362HOH      O 4271   1.115   4.007   0.314
 1362HOH     H1 4272   1.080   4.091   0.285
 1362HOH     H2 4273   1.209   4.022   0.322
 1363HOH      O 4274   0.239   3.432   3.838
 1363HOH     H1 4275   0.260   3.474   3.755
 1363HOH     H2 4276   0.319   3.386   3.862
 1364HOH      O 4277   1.946   1.157   2.519
 1364HOH     H1 4278   2.038   1.151   2.546
 1364HOH     H2 4279   1.916   1.066   2.515
 1365HOH      O 4280   1.694   1.292   3.793
 1365HOH     H1 4281   1.610   1.247   3.801
 1365HOH     H2 4282   1.704   1.309   3.699
 1366HOH      O 4283   1.907   2.200   3.627
 1366HOH     H1 4284   1.841   2.249   3.676
 1366HOH     H2 4285   1.990   2.231   3.663
 1367HOH      O 4286   0.964   3.451   2.305
 1367HOH     H1 4287   1.036   3.401   2.264
 1367HOH     H2 4288   0.919   3.492   2.231
 1368HOH      O 4289   3.048   2.892   3.230
 1368HOH     H1 4290   3.091   2.907   3.314
 1368HOH     H2 4291   3.071   2.969   3.177
 1369HOH      O 4292   1.107   2.269   0.031
 1369HOH     H1 4293   1.109   2.177   0.006
 1369HOH     H2 4294   1.192   2.284   0.073
 1370HOH      O 4295   2.087   0.110   0.560
 1370HOH     H1 4296   2.171   0.065   0.569
 1370HOH     H2 4297   2.025   0.056   0.609
 1371HOH      O 4298   0.354   0.725   0.850
 1371HOH     H1 4299   0.265   0.758   0.854
 1371HOH     H2 4300   0.408   0.797   0.883
 1372HOH      O 4301   1.943   0.588   2.376
 1372HOH     H1 4302   2.008   0.656   2.393
 1372HOH     H2 4303   1.869   0.634   2.337
 1373HOH      O 4304   2.454   2.742   3.458
 1373HOH     H1 4305   2.492   2.663   3.495
 1373HOH     H2 4306   2.429   2.795   3.535
 1374HOH      O 4307   2.168   0.031   2.995
 1374HOH     H1 4308   2.144   0.123   3.003
 1374HOH     H2 4309   2.219   0.027   2.913
 1375HOH      O 4310   3.741   2.416   3.334
 1375HOH     H1 4311   3.673   2.482   3.327
 1375HOH     H2 4312   3.795   2.429   3.256
 1376HOH      O 4313   0.370   1.614   2.398
 1376HOH     H1 4314   0.379   1.564   2.317
 1376HOH     H2 4315   0.459   1.624   2.431
 1377HOH      O 4316   1.854   1.898   1.503
 1377HOH     H1 4317   1.836   1.889   1.597
 1377HOH     H2 4318   1.825   1.816   1.465
 1378HOH      O 4319   1.932   1.286   3.153
 1378HOH     H1 4320   1.837   1.293   3.146
 1378HOH     H2 4321   1.947   1.197   3.185
 1379HOH      O 4322   0.377   2.882   0.007
 1379HOH     H1 4323   0.367   2.891  -0.087
 1379HOH     H2 4324   0.346   2.794   0.027
 1380HOH      O 4325   1.502   1.194   3.482
 1380HOH     H1 4326   1.569   1.159   3.541
 1380HOH     H2 4327   1.438   1.123   3.475
 1381HOH      O 4328   2.378   2.799   3.010
 1381HOH     H1 4329   2.385   2.841   2.925
 1381HOH     H2 4330   2.463   2.757   3.024
 1382HOH      O 4331   3.561   3.264   2.955
 1382HOH     H1 4332   3.580   3.327   3.024
 1382HOH     H2 4333   3.527   3.187   3.000
 1383HOH      O 4334   3.671   3.381   0.742
 1383HOH     H1 4335   3.596   3.327   0.718
 1383HOH     H2 4336   3.677   3.373   0.837
 1384HOH      O 4337   3.492   2.988   1.190
 1384HOH     H1 4338   3.572   3.035   1.165
 1384HOH     H2 4339   3.524   2.907   1.230
 1385HOH      O 4340   0.225   2.985   2.909
 1385HOH     H1 4341   0.306   2.958   2.865
 1385HOH     H2 4342   0.156   2.938   2.862
 1386HOH      O 4343   3.127   2.740   2.165
 1386HOH     H1 4344   3.147   2.650   2.193
 1386HOH     H2 4345   3.031   2.743   2.165
 1387HOH      O 4346   1.827   1.023   1.177
 1387HOH     H1 4347   1.795   1.005   1.265
 1387HOH     H2 4348   1.922   1.036   1.188
 1388HOH      O 4349   3.872   2.210   0.164
 1388HOH     H1 4350   3.816   2.287   0.150
 1388HOH     H2 4351   3.844   2.175   0.248
 1389HOH      O 4352   0.076   3.228   4.027
 1389HOH     H1 4353   0.041   3.285   3.958
 1389HOH     H2 4354   0.009   3.230   4.095
 1390HOH      O 4355   1.314   1.613   2.257
 1390HOH     H1 4356   1.305   1.601   2.163
 1390HOH     H2 4357   1.316   1.708   2.270
 1391HOH      O 4358   3.605   2.521   1.482
 1391HOH     H1 4359   3.517   2.550   1.507
 1391HOH     H2 4360   3.591   2.472   1.400
 1392HOH      O 4361   1.816   2.013   0.734
 1392HOH     H1 4362   1.866   1.948   0.783
 1392HOH     H2 4363   1.849   2.005   0.644
 1393HOH      O 4364   3.841   0.859   0.128
 1393HOH     H1 4365   3.886   0.927   0.178
 1393HOH     H2 4366   3.832   0.786   0.189
 1394HOH      O 4367   3.583   1.775   0.516
 1394HOH     H1 4368   3.629   1.776   0.600
 1394HOH     H2 4369   3.638   1.827   0.458
 1395HOH      O 4370   2.530   3.372   2.557
 1395HOH     H1 4371   2.570   3.440   2.612
 1395HOH     H2 4372   2.438   3.398   2.550
 1396HOH      O 4373   0.003   3.504   0.214
 1396HOH     H1 4374   0.071   3.512   0.147
 1396HOH     H2 4375  -0.033   3.416   0.201
 1397HOH      O 4376   1.747   2.690   0.331
 1397HOH     H1 4377   1.708   2.772   0.301
 1397HOH     H2 4378   1.700   2.622   0.283
 1398HOH      O 4379   0.274   3.166   3.223
 1398HOH     H1 4380   0.222   3.114   3.162
 1398HOH     H2 4381   0.214   3.234   3.253
 1399HOH      O 4382   0.905   1.705   3.177
 1399HOH     H1 4383   0.892   1.798   3.193
 1399HOH     H2 4384   0.820   1.673   3.148
 1400HOH      O 4385   2.862   1.760   2.914
 1400HOH     H1 4386   2.804   1.701   2.866
 1400HOH     H2 4387   2.899   1.706   2.984
 1401HOH      O 4388   0.532   0.910   0.941
 1401HOH     H1 4389   0.615   0.870   0.915
 1401HOH     H2 4390   0.540   0.923   1.035
 1402HOH      O 4391   0.439   0.134   2.511
 1402HOH     H1 4392   0.450   0.190   2.434
 1402HOH     H2 4393   0.344   0.119   2.516
 1403HOH      O 4394   1.823   0.182   1.906
 1403HOH     H1 4395   1.826   0.147   1.995
 1403HOH     H2 4396   1.858   0.271   1.914
 1404HOH      O 4397   0.486   3.708   2.914
 1404HOH     H1 4398   0.500   3.779   2.851
 1404HOH     H2 4399   0.398   3.676   2.896
 1405HOH      O 4400   2.247   3.688   2.116
 1405HOH     H1 4401   2.318   3.640   2.074
 1405HOH     H2 4402   2.214   3.629   2.184
 1406HOH      O 4403   0.815   2.386   2.049
 1406HOH     H1 4404   0.759   2.463   2.057
 1406HOH     H2 4405   0.821   2.352   2.139
 1407HOH      O 4406   1.089   2.128   0.955
 1407HOH     H1 4407   1.132   2.115   1.040
 1407HOH     H2 4408   1.160   2.124   0.891
 1408HOH      O 4409   1.648   1.967   1.984
 1408HOH     H1 4410   1.651   1.950   2.078
 1408HOH     H2 4411   1.573   2.026   1.973
 1409HOH      O 4412   0.643   3.618   3.662
 1409HOH     H1 4413   0.548   3.614   3.661
 1409HOH     H2 4414   0.669   3.600   3.572
 1410HOH      O 4415   1.054   3.353   2.761
 1410HOH     H1 4416   0.961   3.353   2.780
 1410HOH     H2 4417   1.094   3.404   2.832
 1411HOH      O 4418   3.214   4.006   3.195
 1411HOH     H1 4419   3.260   4.090   3.186
 1411HOH     H2 4420   3.233   3.977   3.284
 1412HOH      O 4421   3.215   2.406   1.817
 1412HOH     H1 4422   3.194   2.487   1.863
 1412HOH     H2 4423   3.156   2.341   1.853
 1413HOH      O 4424   0.465   2.982   2.746
 1413HOH     H1 4425   0.496   3.072   2.745
 1413HOH     H2 4426   0.422   2.970   2.662
 1414HOH      O 4427   2.606   3.336   1.842
 1414HOH     H1 4428   2.599   3.428   1.814
 1414HOH     H2 4429   2.579   3.286   1.765
 1415HOH      O 4430   1.130   3.717   2.917
 1415HOH     H1 4431   1.217   3.685   2.894
 1415HOH     H2 4432   1.091   3.646   2.968
 1416HOH      O 4433   0.388   2.578   3.323
 1416HOH     H1 4434   0.420   2.625   3.400
 1416HOH     H2 4435   0.372   2.489   3.354
 1417HOH      O 4436   2.724   0.973   1.403
 1417HOH     H1 4437   2.798   1.012   1.451
 1417HOH     H2 4438   2.713   1.030   1.327
 1418HOH      O 4439   3.350   1.971   2.933
 1418HOH     H1 4440   3.359   2.010   3.021
 1418HOH     H2 4441   3.423   2.009   2.883
 1419HOH      O 4442   3.996   3.416   3.856
 1419HOH     H1 4443   4.090   3.432   3.853
 1419HOH     H2 4444   3.957   3.488   3.806
 1420HOH      O 4445   0.078   3.015   3.733
 1420HOH     H1 4446   0.085   3.102   3.693
 1420HOH     H2 4447   0.005   3.023   3.795
 1421HOH      O 4448   1.971   3.195   2.687
 1421HOH     H1 4449   2.044   3.220   2.743
 1421HOH     H2 4450   1.938   3.114   2.726
 1422HOH      O 4451   1.526   0.289   2.251
 1422HOH     H1 4452   1.494   0.254   2.168
 1422HOH     H2 4453   1.564   0.214   2.296
 1423HOH      O 4454   3.791   2.065   3.761
 1423HOH     H1 4455   3.769   2.148   3.718
 1423HOH     H2 4456   3.866   2.086   3.817
 1424HOH      O 4457   0.819   2.387   0.571
 1424HOH     H1 4458   0.773   2.413   0.651
 1424HOH     H2 4459   0.904   2.430   0.578
 1425HOH      O 4460   1.679   0.334   3.063
 1425HOH     H1 4461   1.752   0.346   3.124
 1425HOH     H2 4462   1.607   0.383   3.102
 1426HOH      O 4463   2.898   0.141   1.542
 1426HOH     H1 4464   2.858   0.064   1.502
 1426HOH     H2 4465   2.911   0.116   1.634
 1427HOH      O 4466   3.057   2.424   0.031
 1427HOH     H1 4467   3.058   2.373  -0.049
 1427HOH     H2 4468   3.147   2.454   0.042
 1428HOH      O 4469   2.318   1.264   2.911
 1428HOH     H1 4470   2.328   1.345   2.861
 1428HOH     H2 4471   2.223   1.248   2.913
 1429HOH      O 4472   0.553   3.275   2.906
 1429HOH     H1 4473   0.460   3.250   2.899
 1429HOH     H2 4474   0.567   3.333   2.831
 1430HOH      O 4475   0.089   2.919   0.719
 1430HOH     H1 4476   0.021   2.976   0.682
 1430HOH     H2 4477   0.058   2.831   0.700
 1431HOH      O 4478   2.317   2.559   3.803
 1431HOH     H1 4479   2.382   2.542   3.735
 1431HOH     H2 4480   2.367   2.553   3.885
 1432HOH      O 4481   3.865   0.171   1.313
 1432HOH     H1 4482   3.807   0.098   1.333
 1432HOH     H2 4483   3.945   0.152   1.362
 1433HOH      O 4484   3.935   1.076   3.076
 1433HOH     H1 4485   3.864   1.017   3.099
 1433HOH     H2 4486   3.908   1.161   3.111
 1434HOH      O 4487   1.654   2.851   1.699
 1434HOH     H1 4488   1.584   2.843   1.763
 1434HOH     H2 4489   1.735   2.843   1.749
 1435HOH      O 4490   3.731   1.670   3.757
 1435HOH     H1 4491   3.640   1.685   3.735
 1435HOH     H2 4492   3.753   1.588   3.712
 1436HOH      O 4493   2.645   0.518   0.924
 1436HOH     H1 4494   2.621   0.576   0.851
 1436HOH     H2 4495   2.739   0.504   0.912
 1437HOH      O 4496   0.081   2.493   0.218
 1437HOH     H1 4497  -0.011   2.475   0.236
 1437HOH     H2 4498   0.121   2.407   0.206
 1438HOH      O 4499   3.429   2.012   3.219
 1438HOH     H1 4500   3.336   2.027   3.237
 1438HOH     H2 4501   3.474   2.074   3.276
 1439HOH      O 4502   2.327   3.384   1.459
 1439HOH     H1 4503   2.268   3.309   1.467
 1439HOH     H2 4504   2.270   3.460   1.452
 1440HOH      O 4505   0.168   1.999   0.428
 1440HOH     H1 4506   0.122   2.082   0.417
 1440HOH     H2 4507   0.151   1.952   0.346
 1441HOH      O 4508   0.116   0.078   3.939
 1441HOH     H1 4509   0.152   0.151   3.990
 1441HOH     H2 4510   0.110   0.111   3.850
 1442HOH      O 4511   0.631   0.582   1.970
 1442HOH     H1 4512   0.540   0.596   1.945
 1442HOH     H2 4513   0.626   0.523   2.046
 1443HOH      O 4514   1.201   2.621   0.808
 1443HOH     H1 4515   1.134   2.634   0.875
 1443HOH     H2 4516   1.261   2.557   0.847
 1444HOH      O 4517   3.645   1.422   3.307
 1444HOH     H1 4518   3.573   1.386   3.257
 1444HOH     H2 4519   3.604   1.485   3.366
 1445HOH      O 4520   0.582   0.264   1.889
 1445HOH     H1 4521   0.527   0.260   1.967
 1445HOH     H2 4522   0.552   0.342   1.843
 1446HOH      O 4523   2.573   2.272   3.086
 1446HOH     H1 4524   2.661   2.311   3.085
 1446HOH     H2 4525   2.517   2.337   3.046
 1447HOH      O 4526   2.185   1.056   2.620
 1447HOH     H1 4527   2.252   1.117   2.651
 1447HOH     H2 4528   2.215   0.970   2.648
 1448HOH      O 4529   1.957   2.808   0.527
 1448HOH     H1 4530   1.949   2.745   0.456
 1448HOH     H2 4531   2.045   2.792   0.562
 1449HOH      O 4532   2.796   2.379   0.090
 1449HOH     H1 4533   2.764   2.368   0.180
 1449HOH     H2 4534   2.886   2.409   0.100
 1450HOH      O 4535   2.213   1.345   0.478
 1450HOH     H1 4536   2.245   1.371   0.391
 1450HOH     H2 4537   2.122   1.322   0.464
 1451HOH      O 4538   1.326   3.809   1.605
 1451HOH     H1 4539   1.371   3.728   1.583
 1451HOH     H2 4540   1.397   3.871   1.625
 1452HOH      O 4541   1.246   1.585   1.340
 1452HOH     H1 4542   1.259   1.497   1.304
 1452HOH     H2 4543   1.315   1.637   1.298
 1453HOH      O 4544   1.265   1.213   2.009
 1453HOH     H1 4545   1.282   1.145   1.944
 1453HOH     H2 4546   1.173   1.200   2.033
 1454HOH      O 4547   2.311   3.572   2.669
 1454HOH     H1 4548   2.280   3.643   2.725
 1454HOH     H2 4549   2.280   3.595   2.581
 1455HOH      O 4550   3.760   1.256   2.798
 1455HOH     H1 4551   3.766   1.325   2.865
 1455HOH     H2 4552   3.672   1.220   2.808
 1456HOH      O 4553   1.765   2.462   1.974
 1456HOH     H1 4554   1.687   2.504   1.938
 1456HOH     H2 4555   1.748   2.368   1.966
 1457HOH      O 4556   1.589   0.886   0.599
 1457HOH     H1 4557   1.678   0.852   0.609
 1457HOH     H2 4558   1.581   0.954   0.666
 1458HOH      O 4559   0.178   3.837   2.075
 1458HOH     H1 4560   0.125   3.914   2.055
 1458HOH     H2 4561   0.237   3.865   2.145
 1459HOH      O 4562   2.067   1.375   3.870
 1459HOH     H1 4563   2.100   1.365   3.959
 1459HOH     H2 4564   2.015   1.455   3.873
 1460HOH      O 4565   2.118   3.327   3.625
 1460HOH     H1 4566   2.048   3.305   3.686
 1460HOH     H2 4567   2.082   3.307   3.538
 1461HOH      O 4568   0.482   1.912   2.349
 1461HOH     H1 4569   0.448   2.000   2.334
 1461HOH     H2 4570   0.466   1.896   2.442
 1462HOH      O 4571   1.706   1.221   1.572
 1462HOH     H1 4572   1.703   1.230   1.668
 1462HOH     H2 4573   1.794   1.188   1.554
 1463HOH      O 4574   2.276   1.721   2.931
 1463HOH     H1 4575   2.319   1.635   2.928
 1463HOH     H2 4576   2.250   1.732   3.022
 1464HOH      O 4577   1.772   0.494   1.032
 1464HOH     H1 4578   1.824   0.428   0.986
 1464HOH     H2 4579   1.766   0.567   0.970
 1465HOH      O 4580   1.452   3.883   1.245
 1465HOH     H1 4581   1.467   3.789   1.245
 1465HOH     H2 4582   1.358   3.893   1.227
 1466HOH      O 4583   1.270   0.963   2.252
 1466HOH     H1 4584   1.351   0.923   2.221
 1466HOH     H2 4585   1.243   1.021   2.181
 1467HOH      O 4586   0.052   2.271   3.307
 1467HOH     H1 4587   0.123   2.305   3.252
 1467HOH     H2 4588  -0.028   2.304   3.265
 1468HOH      O 4589   3.654   0.562   3.647
 1468HOH     H1 4590   3.692   0.545   3.733
 1468HOH     H2 4591   3.678   0.653   3.628
 1469HOH      O 4592   3.880   1.301   3.237
 1469HOH     H1 4593   3.811   1.358   3.273
 1469HOH     H2 4594   3.943   1.292   3.308
 1470HOH      O 4595   3.101   3.671   2.064
 1470HOH     H1 4596   3.006   3.673   2.072
 1470HOH     H2 4597   3.125   3.762   2.048
 1471HOH      O 4598   2.309   3.821   3.297
 1471HOH     H1 4599   2.358   3.780   3.369
 1471HOH     H2 4600   2.339   3.913   3.298
 1472HOH      O 4601   2.819   3.675   1.517
 1472HOH     H1 4602   2.813   3.586   1.481
 1472HOH     H2 4603   2.901   3.676   1.566
 1473HOH      O 4604   3.985   3.370   1.111
 1473HOH     H1 4605   3.901   3.374   1.158
 1473HOH     H2 4606   3.997   3.459   1.076
 1474HOH      O 4607   3.160   0.281   2.786
 1474HOH     H1 4608   3.148   0.350   2.850
 1474HOH     H2 4609   3.107   0.208   2.819
 1475HOH      O 4610   1.327   2.424   1.228
 1475HOH     H1 4611   1.246   2.384   1.258
 1475HOH     H2 4612   1.396   2.372   1.269
 1476HOH      O 4613   1.036   3.490   0.786
 1476HOH     H1 4614   0.999   3.563   0.836
 1476HOH     H2 4615   0.963   3.457   0.734
 1477HOH      O 4616   3.426   0.361   2.797
 1477HOH     H1 4617   3.428   0.426   2.867
 1477HOH     H2 4618   3.332   0.348   2.779
 1478HOH      O 4619   3.514   0.966   1.279
 1478HOH     H1 4620   3.610   0.963   1.276
 1478HOH     H2 4621   3.488   0.975   1.187
 1479HOH      O 4622   3.883   3.867   2.226
 1479HOH     H1 4623   3.943   3.800   2.259
 1479HOH     H2 4624   3.803   3.854   2.276
 1480HOH      O 4625   1.992   2.135   0.501
 1480HOH     H1 4626   2.052   2.169   0.435
 1480HOH     H2 4627   1.975   2.044   0.475
 1481HOH      O 4628   0.400   0.982   2.305
 1481HOH     H1 4629   0.331   0.959   2.242
 1481HOH     H2 4630   0.395   1.077   2.312
 1482HOH      O 4631   3.167   3.113   3.120
 1482HOH     H1 4632   3.213   3.151   3.195
 1482HOH     H2 4633   3.187   3.172   3.048
 1483HOH      O 4634   2.858   1.527   0.553
 1483HOH     H1 4635   2.792   1.460   0.539
 1483HOH     H2 4636   2.857   1.580   0.473
 1484HOH      O 4637   2.430   3.992   1.811
 1484HOH     H1 4638   2.509   4.037   1.839
 1484HOH     H2 4639   2.415   4.022   1.721
 1485HOH      O 4640   2.974   2.040   0.557
 1485HOH     H1 4641   2.952   2.122   0.513
 1485HOH     H2 4642   2.890   1.998   0.573
 1486HOH      O 4643   0.452   2.789   2.037
 1486HOH     H1 4644   0.365   2.748   2.037
 1486HOH     H2 4645   0.435   2.882   2.020
 1487HOH      O 4646   2.529   2.115   1.791
 1487HOH     H1 4647   2.495   2.069   1.715
 1487HOH     H2 4648   2.500   2.063   1.866
 1488HOH      O 4649   0.058   2.207   2.970
 1488HOH     H1 4650  -0.025   2.190   2.926
 1488HOH     H2 4651   0.120   2.150   2.926
 1489HOH      O 4652   0.687   2.582   0.411
 1489HOH     H1 4653   0.712   2.511   0.471
 1489HOH     H2 4654   0.739   2.657   0.441
 1490HOH      O 4655   1.386   0.088   3.354
 1490HOH     H1 4656   1.379  -0.005   3.374
 1490HOH     H2 4657   1.431   0.091   3.269
 1491HOH      O 4658   1.944   3.383   2.483
 1491HOH     H1 4659   1.940   3.303   2.536
 1491HOH     H2 4660   1.852   3.406   2.469
 1492HOH      O 4661   2.289   1.975   0.404
 1492HOH     H1 4662   2.261   2.066   0.398
 1492HOH     H2 4663   2.346   1.962   0.328
 1493HOH      O 4664   3.521   3.660   1.723
 1493HOH     H1 4665   3.434   3.674   1.760
 1493HOH     H2 4666   3.580   3.666   1.798
 1494HOH      O 4667   3.503   3.453   1.955
 1494HOH     H1 4668   3.474   3.408   2.034
 1494HOH     H2 4669   3.423   3.490   1.917
 1495HOH      O 4670   1.458   2.961   1.275
 1495HOH     H1 4671   1.380   2.929   1.320
 1495HOH     H2 4672   1.520   2.888   1.279
 1496HOH      O 4673   0.757   1.800   0.010
 1496HOH     H1 4674   0.793   1.725  -0.037
 1496HOH     H2 4675   0.714   1.762   0.087
 1497HOH      O 4676   0.945   2.482   3.961
 1497HOH     H1 4677   0.877   2.500   4.026
 1497HOH     H2 4678   0.997   2.411   3.999
 1498HOH      O 4679   3.450   2.819   3.365
 1498HOH     H1 4680   3.519   2.885   3.355
 1498HOH     H2 4681   3.379   2.866   3.408
 1499HOH      O 4682   2.110   3.112   2.437
 1499HOH     H1 4683   2.079   3.156   2.515
 1499HOH     H2 4684   2.109   3.179   2.369
 1500HOH      O 4685   1.297   1.424   2.478
 1500HOH     H1 4686   1.321   1.476   2.401
 1500HOH     H2 4687   1.218   1.465   2.512
 1501HOH      O 4688   1.463   2.763   3.536
 1501HOH     H1 4689   1.381   2.750   3.583
 1501HOH     H2 4690   1.449   2.844   3.486
 1502HOH      O 4691   2.016   3.675   0.734
 1502HOH     H1 4692   2.107   3.644   0.734
 1502HOH     H2 4693   1.970   3.612   0.679
 1503HOH      O 4694   1.470   1.436   1.639
 1503HOH     H1 4695   1.523   1.474   1.569
 1503HOH     H2 4696   1.439   1.353   1.603
 1504HOH      O 4697   2.934   3.838   0.949
 1504HOH     H1 4698   2.898   3.754   0.921
 1504HOH     H2 4699   2.916   3.897   0.876
 1505HOH      O 4700   0.126   3.506   2.335
 1505HOH     H1 4701   0.112   3.597   2.359
 1505HOH     H2 4702   0.047   3.482   2.286
 1506HOH      O 4703   2.192   3.502   0.009
 1506HOH     H1 4704   2.251   3.428  -0.005
 1506HOH     H2 4705   2.180   3.541  -0.077
 1507HOH      O 4706   1.661   0.983   3.877
 1507HOH     H1 4707   1.746   1.008   3.842
 1507HOH     H2 4708   1.671   0.891   3.903
 1508HOH      O 4709   2.865   2.626   2.225
 1508HOH     H1 4710   2.791   2.613   2.284
 1508HOH     H2 4711   2.842   2.578   2.146
 1509HOH      O 4712   0.745   0.535   0.881
 1509HOH     H1 4713   0.685   0.466   0.912
 1509HOH     H2 4714   0.785   0.497   0.802
 1510HOH      O 4715   1.912   3.937   2.526
 1510HOH     H1 4716   1.995   3.983   2.525
 1510HOH     H2 4717   1.934   3.847   2.503
 1511HOH      O 4718   0.127   1.521   2.426
 1511HOH     H1 4719   0.063   1.534   2.496
 1511HOH     H2 4720   0.193   1.589   2.441
 1512HOH      O 4721   3.308   1.455   0.980
 1512HOH     H1 4722   3.260   1.481   1.058
 1512HOH     H2 4723   3.265   1.375   0.950
 1513HOH      O 4724   2.636   0.250   1.804
 1513HOH     H1 4725   2.585   0.245   1.723
 1513HOH     H2 4726   2.703   0.316   1.787
 1514HOH      O 4727   2.936   3.885   3.170
 1514HOH     H1 4728   2.847   3.917   3.185
 1514HOH     H2 4729   2.991   3.963   3.176
 1515HOH      O 4730   3.295   3.610   1.873
 1515HOH     H1 4731   3.243   3.623   1.953
 1515HOH     H2 4732   3.233   3.621   1.802
 1516HOH      O 4733   0.195   0.985   2.646
 1516HOH     H1 4734   0.212   1.073   2.680
 1516HOH     H2 4735   0.183   0.997   2.552
 1517HOH      O 4736   1.076   2.599   2.311
 1517HOH     H1 4737   1.051   2.678   2.264
 1517HOH     H2 4738   1.137   2.629   2.379
 1518HOH      O 4739   3.627   0.930   0.873
 1518HOH     H1 4740   3.655   1.021   0.879
 1518HOH     H2 4741   3.574   0.926   0.794
 1519HOH      O 4742   2.358   2.895   3.649
 1519HOH     H1 4743   2.274   2.865   3.683
 1519HOH     H2 4744   2.355   2.990   3.658
 1520HOH      O 4745   1.751   0.757   2.245
 1520HOH     H1 4746   1.830   0.802   2.216
 1520HOH     H2 4747   1.746   0.679   2.190
 1521HOH      O 4748   2.141   2.832   2.345
 1521HOH     H1 4749   2.161   2.779   2.421
 1521HOH     H2 4750   2.139   2.922   2.379
 1522HOH      O 4751   2.365   3.277   0.019
 1522HOH     H1 4752   2.431   3.247   0.082
 1522HOH     H2 4753   2.376   3.218  -0.056
 1523HOH      O 4754   2.930   1.521   1.274
 1523HOH     H1 4755   2.890   1.601   1.241
 1523HOH     H2 4756   2.957   1.473   1.195
 1524HOH      O 4757   3.956   3.046   2.180
 1524HOH     H1 4758   3.887   2.987   2.151
 1524HOH     H2 4759   4.012   3.056   2.104
 1525HOH      O 4760   2.544   4.007   3.539
 1525HOH     H1 4761   2.558   4.088   3.490
 1525HOH     H2 4762   2.618   3.952   3.515
 1526HOH      O 4763   0.464   1.524   0.574
 1526HOH     H1 4764   0.417   1.600   0.538
 1526HOH     H2 4765   0.542   1.561   0.615
 1527HOH      O 4766   3.882   1.695   0.940
 1527HOH     H1 4767   3.967   1.724   0.973
 1527HOH     H2 4768   3.889   1.600   0.937
 1528HOH      O 4769   3.332   2.611   2.522
 1528HOH     H1 4770   3.346   2.705   2.538
 1528HOH     H2 4771   3.256   2.589   2.576
 1529HOH      O 4772   2.757   3.905   2.618
 1529HOH     H1 4773   2.765   3.857   2.701
 1529HOH     H2 4774   2.722   3.840   2.557
 1530HOH      O 4775   3.729   1.528   0.135
 1530HOH     H1 4776   3.637   1.554   0.143
 1530HOH     H2 4777   3.727   1.451   0.078
 1531HOH      O 4778   2.551   2.509   1.720
 1531HOH     H1 4779   2.478   2.519   1.780
 1531HOH     H2 4780   2.608   2.585   1.738
 1532HOH      O 4781   0.779   3.068   2.769
 1532HOH     H1 4782   0.780   3.154   2.812
 1532HOH     H2 4783   0.847   3.074   2.702
 1533HOH      O 4784   1.678   3.798   3.673
 1533HOH     H1 4785   1.602   3.753   3.636
 1533HOH     H2 4786   1.730   3.822   3.597
 1534HOH      O 4787   1.815   1.366   3.550
 1534HOH     H1 4788   1.804   1.458   3.528
 1534HOH     H2 4789   1.891   1.338   3.499
 1535HOH      O 4790   1.901   1.612   0.031
 1535HOH     H1 4791   1.825   1.668   0.044
 1535HOH     H2 4792   1.962   1.666  -0.018
 1536HOH      O 4793   3.807   0.791   0.607
 1536HOH     H1 4794   3.853   0.745   0.677
 1536HOH     H2 4795   3.726   0.740   0.594
 1537HOH      O 4796   2.175   0.009   2.624
 1537HOH     H1 4797   2.183   0.104   2.630
 1537HOH     H2 4798   2.265  -0.023   2.621
 1538HOH      O 4799   2.105   1.481   0.982
 1538HOH     H1 4800   2.156   1.532   0.920
 1538HOH     H2 4801   2.156   1.400   0.994
 1539HOH      O 4802   0.913   0.623   1.972
 1539HOH     H1 4803   0.820   0.611   1.989
 1539HOH     H2 4804   0.949   0.534   1.970
 1540HOH      O 4805   0.838   1.420   1.008
 1540HOH     H1 4806   0.888   1.497   1.033
 1540HOH     H2 4807   0.868   1.399   0.920
 1541HOH      O 4808   3.505   3.940   0.150
 1541HOH     H1 4809   3.521   4.022   0.105
 1541HOH     H2 4810   3.592   3.909   0.176
 1542HOH      O 4811   1.362   0.947   3.522
 1542HOH     H1 4812   1.308   0.887   3.470
 1542HOH     H2 4813   1.432   0.891   3.557
 1543HOH      O 4814   0.205   0.292   0.073
 1543HOH     H1 4815   0.131   0.341   0.038
 1543HOH     H2 4816   0.214   0.322   0.163
 1544HOH      O 4817   3.045   2.213   1.940
 1544HOH     H1 4818   3.073   2.138   1.993
 1544HOH     H2 4819   2.978   2.178   1.882
 1545HOH      O 4820   1.767   2.025   3.846
 1545HOH     H1 4821   1.766   1.929   3.846
 1545HOH     H2 4822   1.819   2.049   3.770
 1546HOH      O 4823   0.848   0.690   2.641
 1546HOH     H1 4824   0.915   0.751   2.672
 1546HOH     H2 4825   0.765   0.730   2.669
 1547HOH      O 4826   0.023   3.078   3.160
 1547HOH     H1 4827  -0.016   3.155   3.119
 1547HOH     H2 4828  -0.019   3.072   3.246
 1548HOH      O 4829   3.173   0.469   1.681
 1548HOH     H1 4830   3.090   0.516   1.688
 1548HOH     H2 4831   3.162   0.412   1.605
 1549HOH      O 4832   1.606   1.624   2.481
 1549HOH     H1 4833   1.620   1.718   2.470
 1549HOH     H2 4834   1.535   1.618   2.545
 1550HOH      O 4835   3.263   0.489   1.222
 1550HOH     H1 4836   3.338   0.472   1.280
 1550HOH     H2 4837   3.295   0.554   1.159
 1551HOH      O 4838   2.330   3.159   3.703
 1551HOH     H1 4839   2.384   3.201   3.635
 1551HOH     H2 4840   2.253   3.216   3.710
 1552HOH      O 4841   0.289   2.120   0.650
 1552HOH     H1 4842   0.366   2.069   0.625
 1552HOH     H2 4843   0.236   2.124   0.571
 1553HOH      O 4844   2.548   0.578   3.150
 1553HOH     H1 4845   2.544   0.595   3.056
 1553HOH     H2 4846   2.460   0.600   3.182
 1554HOH      O 4847   1.825   1.183   0.937
 1554HOH     H1 4848   1.878   1.149   0.865
 1554HOH     H2 4849   1.821   1.111   1.000
 1555HOH      O 4850   1.087   1.509   0.032
 1555HOH     H1 4851   1.136   1.514  -0.049
 1555HOH     H2 4852   1.154   1.488   0.098
 1556HOH      O 4853   0.666   2.689   1.011
 1556HOH     H1 4854   0.703   2.669   0.925
 1556HOH     H2 4855   0.617   2.610   1.035
 1557HOH      O 4856   1.654   3.707   0.275
 1557HOH     H1 4857   1.605   3.788   0.287
 1557HOH     H2 4858   1.589   3.638   0.285
 1558HOH      O 4859   3.662   0.220   3.849
 1558HOH     H1 4860   3.711   0.298   3.824
 1558HOH     H2 4861   3.573   0.237   3.819
 1559HOH      O 4862   0.287   1.061   0.659
 1559HOH     H1 4863   0.250   1.143   0.628
 1559HOH     H2 4864   0.287   1.069   0.754
 1560HOH      O 4865   0.321   0.672   2.241
 1560HOH     H1 4866   0.401   0.660   2.293
 1560HOH     H2 4867   0.332   0.758   2.201
 1561HOH      O 4868   3.665   2.250   0.807
 1561HOH     H1 4869   3.695   2.246   0.898
 1561HOH     H2 4870   3.644   2.343   0.794
 1562HOH      O 4871   1.589   3.113   0.131
 1562HOH     H1 4872   1.549   3.198   0.152
 1562HOH     H2 4873   1.672   3.136   0.089
 1563HOH      O 4874   2.116   3.816   0.972
 1563HOH     H1 4875   2.060   3.768   0.911
 1563HOH     H2 4876   2.057   3.882   1.010
 1564HOH      O 4877   0.181   0.808   3.574
 1564HOH     H1 4878   0.090   0.782   3.564
 1564HOH     H2 4879   0.197   0.869   3.503
 1565HOH      O 4880   1.237   2.887   1.402
 1565HOH     H1 4881   1.256   2.834   1.479
 1565HOH     H2 4882   1.229   2.976   1.435
 1566HOH      O 4883   2.328   0.265   1.357
 1566HOH     H1 4884   2.401   0.242   1.299
 1566HOH     H2 4885   2.267   0.192   1.350
 1567HOH      O 4886   3.662   2.939   1.920
 1567HOH     H1 4887   3.570   2.966   1.921
 1567HOH     H2 4888   3.700   2.985   1.845
 1568HOH      O 4889   2.741   2.925   1.707
 1568HOH     H1 4890   2.743   2.879   1.623
 1568HOH     H2 4891   2.828   2.963   1.715
 1569HOH      O 4892   0.360   3.587   3.627
 1569HOH     H1 4893   0.323   3.675   3.616
 1569HOH     H2 4894   0.363   3.551   3.538
 1570HOH      O 4895   2.697   0.500   2.151
 1570HOH     H1 4896   2.672   0.532   2.237
 1570HOH     H2 4897   2.679   0.406   2.154
 1571HOH      O 4898   1.588   0.833   2.991
 1571HOH     H1 4899   1.675   0.829   3.030
 1571HOH     H2 4900   1.577   0.925   2.967
 1572HOH      O 4901   0.470   0.190   2.123
 1572HOH     H1 4902   0.406   0.155   2.186
 1572HOH     H2 4903   0.490   0.277   2.155
 1573HOH      O 4904   3.691   2.619   0.584
 1573HOH     H1 4905   3.714   2.537   0.539
 1573HOH     H2 4906   3.628   2.591   0.651
 1574HOH      O 4907   1.540   2.007   0.785
 1574HOH     H1 4908   1.634   2.019   0.769
 1574HOH     H2 4909   1.525   1.913   0.771
 1575HOH      O 4910   0.715   1.929   1.901
 1575HOH     H1 4911   0.659   2.003   1.927
 1575HOH     H2 4912   0.804   1.962   1.913
 1576HOH      O 4913   3.133   1.906   0.758
 1576HOH     H1 4914   3.195   1.873   0.694
 1576HOH     H2 4915   3.058   1.937   0.706
 1577HOH      O 4916   1.421   1.978   2.936
 1577HOH     H1 4917   1.493   2.038   2.957
 1577HOH     H2 4918   1.372   1.970   3.018
 1578HOH      O 4919   2.735   2.677   3.645
 1578HOH     H1 4920   2.801   2.622   3.687
 1578HOH     H2 4921   2.747   2.664   3.551
 1579HOH      O 4922   2.461   1.979   0.777
 1579HOH     H1 4923   2.377   2.009   0.811
 1579HOH     H2 4924   2.499   1.929   0.849
 1580HOH      O 4925   3.277   1.808   0.115
 1580HOH     H1 4926   3.254   1.897   0.142
 1580HOH     H2 4927   3.327   1.820   0.034
 1581HOH      O 4928   2.652   3.704   3.272
 1581HOH     H1 4929   2.592   3.684   3.343
 1581HOH     H2 4930   2.692   3.620   3.249
 1582HOH      O 4931   3.163   2.519   2.721
 1582HOH     H1 4932   3.207   2.516   2.806
 1582HOH     H2 4933   3.089   2.459   2.731
 1583HOH      O 4934   1.859   2.848   1.901
 1583HOH     H1 4935   1.834   2.864   1.992
 1583HOH     H2 4936   1.908   2.926   1.875
 1584HOH      O 4937   3.986   2.523   3.587
 1584HOH     H1 4938   3.947   2.555   3.505
 1584HOH     H2 4939   4.039   2.596   3.618
 1585HOH      O 4940   2.466   0.263   2.213
 1585HOH     H1 4941   2.455   0.358   2.215
 1585HOH     H2 4942   2.382   0.229   2.244
 1586HOH      O 4943   1.346   3.617   0.161
 1586HOH     H1 4944   1.287   3.561   0.111
 1586HOH     H2 4945   1.387   3.558   0.224
 1587HOH      O 4946   2.418   1.139   1.803
 1587HOH     H1 4947   2.398   1.057   1.848
 1587HOH     H2 4948   2.340   1.193   1.818
 1588HOH      O 4949   2.475   2.510   0.363
 1588HOH     H1 4950   2.475   2.422   0.402
 1588HOH     H2 4951   2.463   2.494   0.269
 1589HOH      O 4952   2.814   1.716   0.328
 1589HOH     H1 4953   2.860   1.708   0.244
 1589HOH     H2 4954   2.749   1.784   0.314
 1590HOH      O 4955   3.759   0.446   0.729
 1590HOH     H1 4956   3.669   0.461   0.699
 1590HOH     H2 4957   3.751   0.379   0.797
 1591HOH      O 4958   0.411   1.798   1.819
 1591HOH     H1 4959   0.401   1.767   1.909
 1591HOH     H2 4960   0.384   1.889   1.823
 1592HOH      O 4961   3.633   3.469   3.178
 1592HOH     H1 4962   3.682   3.529   3.234
 1592HOH     H2 4963   3.557   3.520   3.149
 1593HOH      O 4964   0.379   0.109   3.011
 1593HOH     H1 4965   0.339   0.121   3.097
 1593HOH     H2 4966   0.468   0.142   3.022
 1594HOH      O 4967   2.624   3.678   1.322
 1594HOH     H1 4968   2.534   3.669   1.352
 1594HOH     H2 4969   2.673   3.701   1.400
 1595HOH      O 4970   2.769   0.958   1.900
 1595HOH     H1 4971   2.827   0.976   1.975
 1595HOH     H2 4972   2.807   0.880   1.859
 1596HOH      O 4973   4.012   2.443   0.695
 1596HOH     H1 4974   4.094   2.401   0.720
 1596HOH     H2 4975   3.955   2.371   0.667
 1597HOH      O 4976   2.261   3.240   1.120
 1597HOH     H1 4977   2.228   3.323   1.087
 1597HOH     H2 4978   2.185   3.182   1.121
 1598HOH      O 4979   0.593   2.428   1.378
 1598HOH     H1 4980   0.612   2.364   1.310
 1598HOH     H2 4981   0.509   2.400   1.415
 1599HOH      O 4982   0.345   3.438   3.119
 1599HOH     H1 4983   0.379   3.362   3.072
 1599HOH     H2 4984   0.267   3.463   3.070
 1600HOH      O 4985   1.460   2.139   1.887
 1600HOH     H1 4986   1.440   2.227   1.918
 1600HOH     H2 4987   1.409   2.130   1.807
 1601HOH      O 4988   1.848   3.696   0.092
 1601HOH     H1 4989   1.773   3.710   0.151
 1601HOH     H2 4990   1.905   3.771   0.109
 1602HOH      O 4991   2.459   1.148   2.588
 1602HOH     H1 4992   2.523   1.210   2.554
 1602HOH     H2 4993   2.481   1.065   2.546
 1603HOH      O 4994   0.247   2.501   2.209
 1603HOH     H1 4995   0.179   2.529   2.147
 1603HOH     H2 4996   0.265   2.579   2.261
 1604HOH      O 4997   1.979   0.842   2.663
 1604HOH     H1 4998   1.886   0.862   2.675
 1604HOH     H2 4999   2.023   0.899   2.727
 1605HOH      O 5000   1.270   0.960   0.199
 1605HOH     H1 5001   1.329   0.892   0.167
 1605HOH     H2 5002   1.267   0.946   0.294
 1606HOH      O 5003   1.368   3.186   0.353
 1606HOH     H1 5004   1.392   3.096   0.333
 1606HOH     H2 5005   1.278   3.180   0.386
 1607HOH      O 5006   0.708   1.593   3.056
 1607HOH     H1 5007   0.632   1.553   3.016
 1607HOH     H2 5008   0.747   1.523   3.109
 1608HOH      O 5009   1.656   1.359   3.040
 1608HOH     H1 5010   1.642   1.283   3.097
 1608HOH     H2 5011   1.575   1.408   3.045
 1609HOH      O 5012   3.994   1.495   1.810
 1609HOH     H1 5013   4.076   1.446   1.819
 1609HOH     H2 5014   3.936   1.435   1.762
 1610HOH      O 5015   2.793   2.393   0.350
 1610HOH     H1 5016   2.725   2.421   0.411
 1610HOH     H2 5017   2.809   2.301   0.374
 1611HOH      O 5018   3.680   0.106   1.612
 1611HOH     H1 5019   3.629   0.025   1.615
 1611HOH     H2 5020   3.771   0.078   1.624
 1612HOH      O 5021   1.564   1.813   3.599
 1612HOH     H1 5022   1.497   1.846   3.658
 1612HOH     H2 5023   1.641   1.801   3.655
 1613HOH      O 5024   3.061   0.395   3.055
 1613HOH     H1 5025   2.993   0.416   2.992
 1613HOH     H2 5026   3.014   0.375   3.136
 1614HOH      O 5027   3.955   0.797   3.162
 1614HOH     H1 5028   3.988   0.867   3.106
 1614HOH     H2 5029   3.972   0.828   3.251
 1615HOH      O 5030   3.148   0.142   0.273
 1615HOH     H1 5031   3.177   0.056   0.244
 1615HOH     H2 5032   3.120   0.186   0.193
 1616HOH      O 5033   2.167   3.743   2.783
 1616HOH     H1 5034   2.095   3.681   2.772
 1616HOH     H2 5035   2.126   3.829   2.775
 1617HOH      O 5036   2.362   3.250   2.035
 1617HOH     H1 5037   2.405   3.333   2.013
 1617HOH     H2 5038   2.314   3.225   1.956
 1618HOH      O 5039   3.444   0.295   0.910
 1618HOH     H1 5040   3.449   0.247   0.992
 1618HOH     H2 5041   3.447   0.387   0.936
 1619HOH      O 5042   0.232   2.827   3.477
 1619HOH     H1 5043   0.324   2.839   3.500
 1619HOH     H2 5044   0.231   2.836   3.381
 1620HOH      O 5045   1.773   2.975   0.427
 1620HOH     H1 5046   1.844   2.920   0.458
 1620HOH     H2 5047   1.781   3.056   0.478
 1621HOH      O 5048   0.440   0.740   3.155
 1621HOH     H1 5049   0.446   0.644   3.149
 1621HOH     H2 5050   0.457   0.759   3.247
 1622HOH      O 5051   1.157   3.682   3.747
 1622HOH     H1 5052   1.083   3.705   3.691
 1622HOH     H2 5053   1.169   3.588   3.733
 1623HOH      O 5054   3.468   2.151   0.363
 1623HOH     H1 5055   3.428   2.217   0.306
 1623HOH     H2 5056   3.395   2.097   0.392
 1624HOH      O 5057   0.245   2.474   2.905
 1624HOH     H1 5058   0.326   2.431   2.933
 1624HOH     H2 5059   0.213   2.421   2.833
 1625HOH      O 5060   2.104   1.641   1.275
 1625HOH     H1 5061   2.070   1.582   1.208
 1625HOH     H2 5062   2.117   1.586   1.352
 1626HOH      O 5063   2.227   1.330   1.903
 1626HOH     H1 5064   2.143   1.317   1.946
 1626HOH     H2 5065   2.291   1.323   1.974
 1627HOH      O 5066   3.334   2.736   0.537
 1627HOH     H1 5067   3.339   2.646   0.570
 1627HOH     H2 5068   3.242   2.747   0.512
 1628HOH      O 5069   2.764   2.759   0.769
 1628HOH     H1 5070   2.709   2.724   0.698
 1628HOH     H2 5071   2.712   2.830   0.807
 1629HOH      O 5072   0.233   1.554   1.845
 1629HOH     H1 5073   0.264   1.468   1.871
 1629HOH     H2 5074   0.312   1.608   1.841
 1630HOH      O 5075   0.379   1.788   2.105
 1630HOH     H1 5076   0.421   1.788   2.191
 1630HOH     H2 5077   0.289   1.763   2.122
 1631HOH      O 5078   2.133   1.166   1.172
 1631HOH     H1 5079   2.198   1.110   1.130
 1631HOH     H2 5080   2.087   1.208   1.099
 1632HOH      O 5081   0.079   2.520   2.641
 1632HOH     H1 5082   0.100   2.426   2.649
 1632HOH     H2 5083   0.163   2.563   2.631
 1633HOH      O 5084   2.094   2.953   1.135
 1633HOH     H1 5085   2.084   2.918   1.046
 1633HOH     H2 5086   2.126   2.878   1.186
 1634HOH      O 5087   1.269   1.392   2.849
 1634HOH     H1 5088   1.349   1.425   2.809
 1634HOH     H2 5089   1.254   1.307   2.806
 1635HOH      O 5090   2.856   3.002   2.440
 1635HOH     H1 5091   2.826   2.922   2.398
 1635HOH     H2 5092   2.839   3.071   2.375
 1636HOH      O 5093   0.244   0.546   3.578
 1636HOH     H1 5094   0.159   0.512   3.605
 1636HOH     H2 5095   0.230   0.640   3.569
 1637HOH      O 5096   0.402   3.455   3.398
 1637HOH     H1 5097   0.373   3.488   3.313
 1637HOH     H2 5098   0.434   3.367   3.380
 1638HOH      O 5099   3.777   0.955   1.226
 1638HOH     H1 5100   3.794   1.027   1.165
 1638HOH     H2 5101   3.785   0.876   1.174
 1639HOH      O 5102   1.983   2.529   1.229
 1639HOH     H1 5103   2.060   2.583   1.217
 1639HOH     H2 5104   1.998   2.484   1.312
 1640HOH      O 5105   0.953   2.036   2.128
 1640HOH     H1 5106   0.889   1.989   2.182
 1640HOH     H2 5107   1.000   1.966   2.081
 1641HOH      O 5108   3.796   1.429   0.931
 1641HOH     H1 5109   3.768   1.432   1.022
 1641HOH     H2 5110   3.853   1.352   0.926
 1642HOH      O 5111   4.021   2.791   3.594
 1642HOH     H1 5112   4.039   2.869   3.646
 1642HOH     H2 5113   4.092   2.788   3.530
 1643HOH      O 5114   1.697   0.829   2.724
 1643HOH     H1 5115   1.702   0.737   2.698
 1643HOH     H2 5116   1.625   0.833   2.786
 1644HOH      O 5117   2.530   1.783   1.472
 1644HOH     H1 5118   2.482   1.775   1.555
 1644HOH     H2 5119   2.464   1.762   1.405
 1645HOH      O 5120   0.379   2.740   0.512
 1645HOH     H1 5121   0.409   2.777   0.428
 1645HOH     H2 5122   0.309   2.680   0.488
 1646HOH      O 5123   2.205   2.763   1.353
 1646HOH     H1 5124   2.260   2.688   1.374
 1646HOH     H2 5125   2.261   2.839   1.371
 1647HOH      O 5126   2.359   1.468   1.683
 1647HOH     H1 5127   2.407   1.398   1.638
 1647HOH     H2 5128   2.330   1.429   1.765
 1648HOH      O 5129   1.111   1.056   3.003
 1648HOH     H1 5130   1.056   0.978   2.995
 1648HOH     H2 5131   1.060   1.127   2.964
 1649HOH      O 5132   0.600   0.424   2.200
 1649HOH     H1 5133   0.593   0.502   2.254
 1649HOH     H2 5134   0.663   0.368   2.246
 1650HOH      O 5135   2.723   3.040   1.428
 1650HOH     H1 5136   2.722   3.076   1.340
 1650HOH     H2 5137   2.728   2.945   1.416
 1651HOH      O 5138   1.525   3.934   2.903
 1651HOH     H1 5139   1.606   3.919   2.854
 1651HOH     H2 5140   1.487   4.012   2.864
 1652HOH      O 5141   3.054   0.861   1.772
 1652HOH     H1 5142   3.045   0.920   1.698
 1652HOH     H2 5143   2.988   0.793   1.757
 1653HOH      O 5144   2.824   3.872   1.728
 1653HOH     H1 5145   2.916   3.896   1.717
 1653HOH     H2 5146   2.792   3.933   1.794
 1654HOH      O 5147   3.557   0.790   0.426
 1654HOH     H1 5148   3.526   0.831   0.507
 1654HOH     H2 5149   3.584   0.863   0.370
 1655HOH      O 5150   1.117   0.403   2.570
 1655HOH     H1 5151   1.088   0.407   2.661
 1655HOH     H2 5152   1.041   0.431   2.519
 1656HOH      O 5153   1.433   3.205   1.102
 1656HOH     H1 5154   1.435   3.130   1.161
 1656HOH     H2 5155   1.362   3.185   1.041
 1657HOH      O 5156   0.963   1.689   1.290
 1657HOH     H1 5157   1.052   1.654   1.298
 1657HOH     H2 5158   0.933   1.698   1.380
 1658HOH      O 5159   3.412   3.031   0.263
 1658HOH     H1 5160   3.351   3.065   0.329
 1658HOH     H2 5161   3.478   2.984   0.314
 1659HOH      O 5162   2.086   3.666   3.533
 1659HOH     H1 5163   2.160   3.709   3.575
 1659HOH     H2 5164   2.119   3.635   3.449
 1660HOH      O 5165   0.354   2.956   3.786
 1660HOH     H1 5166   0.405   3.019   3.735
 1660HOH     H2 5167   0.263   2.981   3.771
 1661HOH      O 5168   0.520   2.600   3.070
 1661HOH     H1 5169   0.613   2.621   3.077
 1661HOH     H2 5170   0.489   2.598   3.161
 1662HOH      O 5171   1.002   1.102   3.477
 1662HOH     H1 5172   1.082   1.145   3.506
 1662HOH     H2 5173   0.941   1.174   3.460
 1663HOH      O 5174   2.161   0.649   0.765
 1663HOH     H1 5175   2.168   0.725   0.707
 1663HOH     H2 5176   2.197   0.577   0.714
 1664HOH      O 5177   0.829   2.499   0.156
 1664HOH     H1 5178   0.757   2.541   0.203
 1664HOH     H2 5179   0.890   2.474   0.224
 1665HOH      O 5180   0.124   0.445   2.600
 1665HOH     H1 5181   0.203   0.416   2.554
 1665HOH     H2 5182   0.095   0.522   2.551
 1666HOH      O 5183   3.170   1.828   2.663
 1666HOH     H1 5184   3.233   1.898   2.684
 1666HOH     H2 5185   3.205   1.788   2.584
 1667HOH      O 5186   2.322   0.957   2.349
 1667HOH     H1 5187   2.273   0.883   2.385
 1667HOH     H2 5188   2.276   1.035   2.381
 1668HOH      O 5189   3.321   2.182   0.650
 1668HOH     H1 5190   3.286   2.120   0.586
 1668HOH     H2 5191   3.401   2.141   0.682
 1669HOH      O 5192   2.117   1.764   1.720
 1669HOH     H1 5193   2.116   1.679   1.764
 1669HOH     H2 5194   2.025   1.790   1.714
 1670HOH      O 5195   2.896   1.456   1.963
 1670HOH     H1 5196   2.898   1.388   1.896
 1670HOH     H2 5197   2.987   1.467   1.990
 1671HOH      O 5198   2.546   2.289   1.388
 1671HOH     H1 5199   2.573   2.352   1.322
 1671HOH     H2 5200   2.451   2.303   1.398
 1672HOH      O 5201   3.534   1.618   3.465
 1672HOH     H1 5202   3.486   1.637   3.545
 1672HOH     H2 5203   3.585   1.697   3.448
 1673HOH      O 5204   3.850   3.485   1.831
 1673HOH     H1 5205   3.834   3.525   1.917
 1673HOH     H2 5206   3.930   3.434   1.843
 1674HOH      O 5207   3.372   3.232   2.620
 1674HOH     H1 5208   3.292   3.192   2.586
 1674HOH     H2 5209   3.421   3.160   2.660
 1675HOH      O 5210   3.573   2.351   1.285
 1675HOH     H1 5211   3.547   2.285   1.221
 1675HOH     H2 5212   3.668   2.340   1.293
 1676HOH      O 5213   3.470   3.432   3.860
 1676HOH     H1 5214   3.489   3.508   3.916
 1676HOH     H2 5215   3.556   3.395   3.841
 1677HOH      O 5216   3.499   3.966   3.763
 1677HOH     H1 5217   3.456   4.051   3.762
 1677HOH     H2 5218   3.582   3.981   3.807
 1678HOH      O 5219   2.921   0.838   1.105
 1678HOH     H1 5220   2.864   0.775   1.150
 1678HOH     H2 5221   3.001   0.840   1.158
 1679HOH      O 5222   1.187   0.828   0.652
 1679HOH     H1 5223   1.099   0.855   0.680
 1679HOH     H2 5224   1.246   0.870   0.715
 1680HOH      O 5225   0.178   1.297   1.260
 1680HOH     H1 5226   0.184   1.389   1.235
 1680HOH     H2 5227   0.151   1.298   1.351
 1681HOH      O 5228   2.181   1.410   3.566
 1681HOH     H1 5229   2.191   1.391   3.659
 1681HOH     H2 5230   2.271   1.408   3.532
 1682HOH      O 5231   3.994   0.533   3.078
 1682HOH     H1 5232   4.001   0.626   3.100
 1682HOH     H2 5233   3.948   0.532   2.994
 1683HOH      O 5234   3.397   0.557   1.555
 1683HOH     H1 5235   3.424   0.492   1.490
 1683HOH     H2 5236   3.312   0.526   1.586
 1684HOH      O 5237   1.445   1.719   1.219
 1684HOH     H1 5238   1.382   1.730   1.147
 1684HOH     H2 5239   1.521   1.679   1.177
 1685HOH      O 5240   2.143   3.056   3.051
 1685HOH     H1 5241   2.229   3.043   3.091
 1685HOH     H2 5242   2.094   2.976   3.073
 1686HOH      O 5243   1.444   3.657   3.614
 1686HOH     H1 5244   1.385   3.710   3.669
 1686HOH     H2 5245   1.449   3.573   3.659
 1687HOH      O 5246   1.158   1.384   3.115
 1687HOH     H1 5247   1.205   1.307   3.146
 1687HOH     H2 5248   1.157   1.375   3.019
 1688HOH      O 5249   3.251   1.560   1.228
 1688HOH     H1 5250   3.174   1.608   1.197
 1688HOH     H2 5251   3.322   1.624   1.226
 1689HOH      O 5252   3.216   3.270   2.898
 1689HOH     H1 5253   3.192   3.361   2.917
 1689HOH     H2 5254   3.265   3.275   2.816
 1690HOH      O 5255   1.492   0.486   0.105
 1690HOH     H1 5256   1.503   0.580   0.118
 1690HOH     H2 5257   1.574   0.447   0.136
 1691HOH      O 5258   3.791   2.066   1.700
 1691HOH     H1 5259   3.759   2.018   1.623
 1691HOH     H2 5260   3.712   2.098   1.743
 1692HOH      O 5261   1.818   0.837   3.150
 1692HOH     H1 5262   1.806   0.761   3.207
 1692HOH     H2 5263   1.859   0.903   3.207
 1693HOH      O 5264   0.847   3.283   1.967
 1693HOH     H1 5265   0.875   3.370   1.938
 1693HOH     H2 5266   0.810   3.242   1.889
 1694HOH      O 5267   0.540   3.244   1.078
 1694HOH     H1 5268   0.454   3.237   1.037
 1694HOH     H2 5269   0.544   3.169   1.137
 1695HOH      O 5270   0.319   3.157   0.088
 1695HOH     H1 5271   0.240   3.185   0.042
 1695HOH     H2 5272   0.341   3.073   0.048
 1696HOH      O 5273   1.701   2.735   0.669
 1696HOH     H1 5274   1.777   2.793   0.659
 1696HOH     H2 5275   1.679   2.709   0.580
 1697HOH      O 5276   0.465   1.674   1.562
 1697HOH     H1 5277   0.551   1.635   1.549
 1697HOH     H2 5278   0.470   1.715   1.648
 1698HOH      O 5279   2.479   1.024   2.892
 1698HOH     H1 5280   2.482   1.054   2.801
 1698HOH     H2 5281   2.480   1.104   2.944
 1699HOH      O 5282   3.091   0.582   2.342
 1699HOH     H1 5283   3.071   0.490   2.363
 1699HOH     H2 5284   3.184   0.591   2.364
 1700HOH      O 5285   2.682   2.071   2.800
 1700HOH     H1 5286   2.659   2.160   2.771
 1700HOH     H2 5287   2.645   2.064   2.888
 1701HOH      O 5288   1.056   2.409   0.332
 1701HOH     H1 5289   1.062   2.314   0.322
 1701HOH     H2 5290   1.085   2.425   0.422
 1702HOH      O 5291   3.760   1.887   1.113
 1702HOH     H1 5292   3.753   1.822   1.184
 1702HOH     H2 5293   3.812   1.843   1.046
 1703HOH      O 5294   0.612   0.210   2.724
 1703HOH     H1 5295   0.600   0.301   2.753
 1703HOH     H2 5296   0.589   0.212   2.631
 1704HOH      O 5297   0.863   1.777   0.616
 1704HOH     H1 5298   0.889   1.865   0.587
 1704HOH     H2 5299   0.937   1.745   0.667
 1705HOH      O 5300   0.030   2.019   3.525
 1705HOH     H1 5301   0.077   2.101   3.506
 1705HOH     H2 5302   0.031   2.013   3.620
 1706HOH      O 5303   2.140   2.624   3.369
 1706HOH     H1 5304   2.055   2.661   3.395
 1706HOH     H2 5305   2.195   2.701   3.353
 1707HOH      O 5306   0.556   0.075   0.136
 1707HOH     H1 5307   0.522   0.053   0.222
 1707HOH     H2 5308   0.643   0.036   0.134
 1708HOH      O 5309   0.823   3.303   2.906
 1708HOH     H1 5310   0.729   3.294   2.921
 1708HOH     H2 5311   0.840   3.397   2.911
 1709HOH      O 5312   0.536   0.814   4.008
 1709HOH     H1 5313   0.500   0.859   3.931
 1709HOH     H2 5314   0.517   0.721   3.991
 1710HOH      O 5315   2.048   1.212   2.833
 1710HOH     H1 5316   2.039   1.130   2.882
 1710HOH     H2 5317   1.959   1.245   2.825
 1711HOH      O 5318   1.219   2.599   1.712
 1711HOH     H1 5319   1.128   2.629   1.711
 1711HOH     H2 5320   1.250   2.613   1.623
 1712HOH      O 5321   0.753   0.933   2.844
 1712HOH     H1 5322   0.763   0.995   2.771
 1712HOH     H2 5323   0.753   0.988   2.922
 1713HOH      O 5324   3.221   2.042   2.429
 1713HOH     H1 5325   3.296   1.984   2.443
 1713HOH     H2 5326   3.202   2.078   2.516
 1714HOH      O 5327   0.948   0.444   2.268
 1714HOH     H1 5328   0.908   0.453   2.354
 1714HOH     H2 5329   0.899   0.374   2.225
 1715HOH      O 5330   1.311   1.694   0.658
 1715HOH     H1 5331   1.226   1.736   0.646
 1715HOH     H2 5332   1.369   1.741   0.597
 1716HOH      O 5333   3.277   1.325   0.582
 1716HOH     H1 5334   3.339   1.370   0.525
 1716HOH     H2 5335   3.331   1.264   0.633
 1717HOH      O 5336   1.153   1.607   3.248
 1717HOH     H1 5337   1.176   1.540   3.184
 1717HOH     H2 5338   1.071   1.644   3.215
 1718HOH      O 5339   1.835   0.891   0.934
 1718HOH     H1 5340   1.824   0.921   1.024
 1718HOH     H2 5341   1.929   0.896   0.918
 1719HOH      O 5342   3.508   4.011   3.490
 1719HOH     H1 5343   3.432   4.062   3.462
 1719HOH     H2 5344   3.505   4.014   3.586
 1720HOH      O 5345   0.834   1.374   3.514
 1720HOH     H1 5346   0.782   1.454   3.507
 1720HOH     H2 5347   0.902   1.395   3.578
 1721HOH      O 5348   1.686   0.492   2.186
 1721HOH     H1 5349   1.726   0.455   2.107
 1721HOH     H2 5350   1.631   0.422   2.221
 1722HOH      O 5351   3.885   3.869   2.978
 1722HOH     H1 5352   3.962   3.920   2.955
 1722HOH     H2 5353   3.812   3.930   2.968
 1723HOH      O 5354   2.481   1.264   0.894
 1723HOH     H1 5355   2.481   1.245   0.988
 1723HOH     H2 5356   2.424   1.197   0.856
 1724HOH      O 5357   2.487   2.208   0.630
 1724HOH     H1 5358   2.495   2.120   0.665
 1724HOH     H2 5359   2.397   2.234   0.651
 1725HOH      O 5360   0.255   1.469   3.520
 1725HOH     H1 5361   0.228   1.547   3.569
 1725HOH     H2 5362   0.318   1.502   3.455
 1726HOH      O 5363   1.072   3.384   1.577
 1726HOH     H1 5364   1.166   3.400   1.571
 1726HOH     H2 5365   1.033   3.450   1.520
 1727HOH      O 5366   1.043   0.279   1.476
 1727HOH     H1 5367   1.025   0.187   1.462
 1727HOH     H2 5368   0.966   0.325   1.444
 1728HOH      O 5369   1.667   3.960   3.884
 1728HOH     H1 5370   1.760   3.980   3.884
 1728HOH     H2 5371   1.658   3.885   3.826
 1729HOH      O 5372   0.109   3.770   3.514
 1729HOH     H1 5373   0.081   3.861   3.524
 1729HOH     H2 5374   0.123   3.760   3.420
 1730HOH      O 5375   0.069   2.455   1.984
 1730HOH     H1 5376   0.080   2.419   1.896
 1730HOH     H2 5377  -0.025   2.470   1.993
 1731HOH      O 5378   1.822   3.272   3.434
 1731HOH     H1 5379   1.763   3.348   3.435
 1731HOH     H2 5380   1.904   3.305   3.398
 1732HOH      O 5381   2.883   2.023   1.378
 1732HOH     H1 5382   2.810   2.075   1.413
 1732HOH     H2 5383   2.928   2.083   1.318
 1733HOH      O 5384   1.665   2.618   3.697
 1733HOH     H1 5385   1.611   2.656   3.628
 1733HOH     H2 5386   1.706   2.694   3.739
 1734HOH      O 5387   3.734   0.918   2.185
 1734HOH     H1 5388   3.718   0.824   2.198
 1734HOH     H2 5389   3.666   0.961   2.236
 1735HOH      O 5390   1.630   0.697   1.449
 1735HOH     H1 5391   1.658   0.626   1.391
 1735HOH     H2 5392   1.691   0.692   1.523
 1736HOH      O 5393   0.306   2.123   2.002
 1736HOH     H1 5394   0.211   2.125   1.998
 1736HOH     H2 5395   0.327   2.041   2.048
 1737HOH      O 5396   0.056   3.249   0.545
 1737HOH     H1 5397   0.006   3.313   0.596
 1737HOH     H2 5398   0.113   3.302   0.489
 1738HOH      O 5399   2.523   1.507   1.265
 1738HOH     H1 5400   2.611   1.541   1.279
 1738HOH     H2 5401   2.468   1.586   1.261
 1739HOH      O 5402   2.322   1.424   2.379
 1739HOH     H1 5403   2.295   1.392   2.465
 1739HOH     H2 5404   2.305   1.518   2.381
 1740HOH      O 5405   2.610   1.285   2.806
 1740HOH     H1 5406   2.625   1.272   2.713
 1740HOH     H2 5407   2.517   1.267   2.819
 1741HOH      O 5408   0.465   3.894   1.045
 1741HOH     H1 5409   0.390   3.905   1.103
 1741HOH     H2 5410   0.428   3.855   0.965
 1742HOH      O 5411   3.305   3.261   3.978
 1742HOH     H1 5412   3.258   3.343   3.994
 1742HOH     H2 5413   3.370   3.283   3.912
 1743HOH      O 5414   3.079   3.916   3.939
 1743HOH     H1 5415   3.091   3.982   4.007
 1743HOH     H2 5416   3.166   3.877   3.928
 1744HOH      O 5417   1.121   0.838   3.443
 1744HOH     H1 5418   1.087   0.928   3.452
 1744HOH     H2 5419   1.066   0.786   3.501
 1745HOH      O 5420   0.932   0.522   0.654
 1745HOH     H1 5421   0.957   0.576   0.579
 1745HOH     H2 5422   0.932   0.582   0.728
 1746HOH      O 5423   0.868   0.170   3.543
 1746HOH     H1 5424   0.848   0.135   3.630
 1746HOH     H2 5425   0.900   0.259   3.560
 1747HOH      O 5426   2.620   1.970   3.067
 1747HOH     H1 5427   2.647   2.056   3.098
 1747HOH     H2 5428   2.662   1.908   3.126
 1748HOH      O 5429   0.861   0.132   3.242
 1748HOH     H1 5430   0.887   0.133   3.334
 1748HOH     H2 5431   0.943   0.135   3.193
 1749HOH      O 5432   0.589   0.391   1.039
 1749HOH     H1 5433   0.564   0.478   1.070
 1749HOH     H2 5434   0.604   0.340   1.119
 1750HOH      O 5435   2.063   3.438   0.543
 1750HOH     H1 5436   2.002   3.400   0.480
 1750HOH     H2 5437   2.136   3.470   0.490
 1751HOH      O 5438   1.132   2.254   2.439
 1751HOH     H1 5439   1.077   2.249   2.517
 1751HOH     H2 5440   1.071   2.273   2.367
 1752HOH      O 5441   0.097   1.924   0.811
 1752HOH     H1 5442   0.190   1.932   0.792
 1752HOH     H2 5443   0.060   2.010   0.790
 1753HOH      O 5444   1.505   3.009   2.285
 1753HOH     H1 5445   1.467   3.083   2.238
 1753HOH     H2 5446   1.564   3.049   2.349
 1754HOH      O 5447   3.758   2.146   0.383
 1754HOH     H1 5448   3.665   2.159   0.400
 1754HOH     H2 5449   3.775   2.056   0.412
 1755HOH      O 5450   0.380   0.801   0.246
 1755HOH     H1 5451   0.388   0.802   0.151
 1755HOH     H2 5452   0.410   0.887   0.274
 1756HOH      O 5453   2.151   1.516   1.520
 1756HOH     H1 5454   2.220   1.521   1.586
 1756HOH     H2 5455   2.069   1.520   1.570
 1757HOH      O 5456   1.831   1.452   1.020
 1757HOH     H1 5457   1.925   1.462   1.001
 1757HOH     H2 5458   1.809   1.366   0.984
 1758HOH      O 5459   3.077   0.153   0.523
 1758HOH     H1 5460   3.118   0.240   0.524
 1758HOH     H2 5461   3.098   0.118   0.436
 1759HOH      O 5462   1.365   2.213   0.164
 1759HOH     H1 5463   1.422   2.274   0.117
 1759HOH     H2 5464   1.385   2.228   0.256
 1760HOH      O 5465   1.007   4.018   3.768
 1760HOH     H1 5466   1.045   3.991   3.685
 1760HOH     H2 5467   1.019   4.112   3.771
 1761HOH      O 5468   0.471   3.402   1.768
 1761HOH     H1 5469   0.412   3.418   1.695
 1761HOH     H2 5470   0.446   3.316   1.801
 1762HOH      O 5471   2.653   2.879   2.251
 1762HOH     H1 5472   2.673   2.835   2.168
 1762HOH     H2 5473   2.591   2.948   2.228
 1763HOH      O 5474   2.947   1.009   0.881
 1763HOH     H1 5475   2.900   0.952   0.941
 1763HOH     H2 5476   2.880   1.068   0.847
 1764HOH      O 5477   1.825   1.032   0.451
 1764HOH     H1 5478   1.801   0.962   0.389
 1764HOH     H2 5479   1.755   1.032   0.515
 1765HOH      O 5480   0.410   3.150   1.846
 1765HOH     H1 5481   0.494   3.109   1.824
 1765HOH     H2 5482   0.349   3.077   1.854
 1766HOH      O 5483   2.443   0.858   0.439
 1766HOH     H1 5484   2.440   0.892   0.350
 1766HOH     H2 5485   2.518   0.800   0.441
 1767HOH      O 5486   3.208   1.847   1.437
 1767HOH     H1 5487   3.151   1.839   1.512
 1767HOH     H2 5488   3.150   1.839   1.361
 1768HOH      O 5489   1.588   1.449   2.260
 1768HOH     H1 5490   1.585   1.506   2.183
 1768HOH     H2 5491   1.587   1.510   2.335
 1769HOH      O 5492   3.582   2.092   1.910
 1769HOH     H1 5493   3.513   2.030   1.933
 1769HOH     H2 5494   3.536   2.175   1.896
 1770HOH      O 5495   3.719   2.730   2.753
 1770HOH     H1 5496   3.668   2.663   2.799
 1770HOH     H2 5497   3.798   2.740   2.807
 1771HOH      O 5498   1.098   3.676   2.431
 1771HOH     H1 5499   1.101   3.728   2.351
 1771HOH     H2 5500   1.066   3.590   2.402
 1772HOH      O 5501   1.472   0.150   2.764
 1772HOH     H1 5502   1.437   0.199   2.690
 1772HOH     H2 5503   1.524   0.213   2.813
 1773HOH      O 5504   1.454   0.036   2.413
 1773HOH     H1 5505   1.443   0.122   2.453
 1773HOH     H2 5506   1.374   0.022   2.362
 1774HOH      O 5507   2.251   0.053   3.937
 1774HOH     H1 5508   2.214  -0.035   3.927
 1774HOH     H2 5509   2.177   0.106   3.967
 1775HOH      O 5510   2.245   1.633   0.840
 1775HOH     H1 5511   2.335   1.643   0.872
 1775HOH     H2 5512   2.255   1.599   0.751
 1776HOH      O 5513   3.033   0.405   3.336
 1776HOH     H1 5514   3.107   0.447   3.380
 1776HOH     H2 5515   2.976   0.478   3.312
 1777HOH      O 5516   3.618   3.939   2.632
 1777HOH     H1 5517   3.576   3.863   2.673
 1777HOH     H2 5518   3.579   4.014   2.678
 1778HOH      O 5519   2.440   0.752   1.017
 1778HOH     H1 5520   2.427   0.671   1.067
 1778HOH     H2 5521   2.380   0.744   0.943
 1779HOH      O 5522   2.645   1.358   2.175
 1779HOH     H1 5523   2.627   1.451   2.192
 1779HOH     H2 5524   2.735   1.358   2.141
 1780HOH      O 5525   1.039   0.824   1.092
 1780HOH     H1 5526   1.044   0.912   1.057
 1780HOH     H2 5527   1.127   0.788   1.078
 1781HOH      O 5528   3.778   2.118   3.420
 1781HOH     H1 5529   3.864   2.111   3.461
 1781HOH     H2 5530   3.762   2.212   3.411
 1782HOH      O 5531   3.623   3.605   2.311
 1782HOH     H1 5532   3.542   3.604   2.260
 1782HOH     H2 5533   3.610   3.539   2.379
 1783HOH      O 5534   3.132   3.592   1.244
 1783HOH     H1 5535   3.141   3.529   1.316
 1783HOH     H2 5536   3.213   3.582   1.194
 1784HOH      O 5537   3.800   3.726   3.879
 1784HOH     H1 5538   3.817   3.816   3.905
 1784HOH     H2 5539   3.879   3.698   3.833
 1785HOH      O 5540   3.617   1.182   2.061
 1785HOH     H1 5541   3.617   1.277   2.048
 1785HOH     H2 5542   3.563   1.169   2.139
 1786HOH      O 5543   1.929   0.328   3.215
 1786HOH     H1 5544   2.020   0.333   3.186
 1786HOH     H2 5545   1.908   0.235   3.211
 1787HOH      O 5546   2.122   0.306   3.024
 1787HOH     H1 5547   2.068   0.297   2.945
 1787HOH     H2 5548   2.175   0.384   3.009
 1788HOH      O 5549   1.235   1.004   3.746
 1788HOH     H1 5550   1.278   1.002   3.661
 1788HOH     H2 5551   1.163   0.942   3.738
 1789HOH      O 5552   2.082   3.801   1.282
 1789HOH     H1 5553   2.127   3.811   1.199
 1789HOH     H2 5554   2.004   3.856   1.273
 1790HOH      O 5555   0.893   0.688   3.493
 1790HOH     H1 5556   0.864   0.654   3.409
 1790HOH     H2 5557   0.841   0.766   3.508
 1791HOH      O 5558   3.218   3.089   0.464
 1791HOH     H1 5559   3.216   3.170   0.516
 1791HOH     H2 5560   3.137   3.093   0.411
 1792HOH      O 5561   3.292   0.636   1.892
 1792HOH     H1 5562   3.206   0.623   1.933
 1792HOH     H2 5563   3.281   0.602   1.803
 1793HOH      O 5564   3.417   0.272   2.372
 1793HOH     H1 5565   3.352   0.222   2.422
 1793HOH     H2 5566   3.385   0.362   2.374
 1794HOH      O 5567   2.649   0.260   3.384
 1794HOH     H1 5568   2.703   0.204   3.329
 1794HOH     H2 5569   2.696   0.343   3.387
 1795HOH      O 5570   1.003   1.485   3.702
 1795HOH     H1 5571   1.037   1.406   3.743
 1795HOH     H2 5572   1.081   1.532   3.672
 1796HOH      O 5573   2.147   3.503   1.063
 1796HOH     H1 5574   2.132   3.443   0.990
 1796HOH     H2 5575   2.061   3.542   1.081
 1797HOH      O 5576   3.951   2.788   2.893
 1797HOH     H1 5577   3.983   2.741   2.971
 1797HOH     H2 5578   4.028   2.793   2.836
 1798HOH      O 5579   3.567   0.025   2.899
 1798HOH     H1 5580   3.584   0.102   2.844
 1798HOH     H2 5581   3.615   0.043   2.980
 1799HOH      O 5582   1.948   3.757   1.910
 1799HOH     H1 5583   1.921   3.847   1.891
 1799HOH     H2 5584   2.029   3.767   1.960
 1800HOH      O 5585   3.965   0.251   1.755
 1800HOH     H1 5586   4.052   0.283   1.733
 1800HOH     H2 5587   3.954   0.172   1.702
 1801HOH      O 5588   3.943   2.194   3.954
 1801HOH     H1 5589   3.932   2.284   3.923
 1801HOH     H2 5590   3.925   2.198   4.047
 1802HOH      O 5591   3.259   2.691   3.783
 1802HOH     H1 5592   3.271   2.783   3.759
 1802HOH     H2 5593   3.262   2.644   3.700
 1803HOH      O 5594   2.096   3.560   3.801
 1803HOH     H1 5595   2.002   3.553   3.818
 1803HOH     H2 5596   2.104   3.557   3.706
 1804HOH      O 5597   1.672   2.899   2.878
 1804HOH     H1 5598   1.594   2.855   2.912
 1804HOH     H2 5599   1.661   2.897   2.783
 1805HOH      O 5600   3.675   3.368   1.015
 1805HOH     H1 5601   3.672   3.461   1.040
 1805HOH     H2 5602   3.583   3.345   0.999
 1806HOH      O 5603   3.911   1.397   2.364
 1806HOH     H1 5604   3.954   1.313   2.381
 1806HOH     H2 5605   3.973   1.463   2.396
 1807HOH      O 5606   3.879   2.208   0.637
 1807HOH     H1 5607   3.796   2.242   0.671
 1807HOH     H2 5608   3.870   2.113   0.642
 1808HOH      O 5609   2.995   1.609   1.576
 1808HOH     H1 5610   2.943   1.621   1.496
 1808HOH     H2 5611   2.954   1.667   1.640
 1809HOH      O 5612   1.176   2.536   3.003
 1809HOH     H1 5613   1.095   2.582   3.022
 1809HOH     H2 5614   1.239   2.570   3.066
 1810HOH      O 5615   2.543   0.010   2.131
 1810HOH     H1 5616   2.494  -0.037   2.198
 1810HOH     H2 5617   2.523   0.102   2.146
 1811HOH      O 5618   2.790   3.488   0.821
 1811HOH     H1 5619   2.841   3.415   0.785
 1811HOH     H2 5620   2.809   3.562   0.764
 1812HOH      O 5621   2.264   0.565   3.039
 1812HOH     H1 5622   2.286   0.657   3.031
 1812HOH     H2 5623   2.265   0.548   3.134
 1813HOH      O 5624   1.331   1.215   1.539
 1813HOH     H1 5625   1.271   1.141   1.548
 1813HOH     H2 5626   1.394   1.185   1.473
 1814HOH      O 5627   1.892   2.515   3.873
 1814HOH     H1 5628   1.819   2.456   3.857
 1814HOH     H2 5629   1.917   2.546   3.786
 1815HOH      O 5630   2.039   0.473   1.183
 1815HOH     H1 5631   1.972   0.510   1.126
 1815HOH     H2 5632   2.091   0.548   1.211
 1816HOH      O 5633   1.011   0.970   1.435
 1816HOH     H1 5634   1.016   0.874   1.443
 1816HOH     H2 5635   1.087   0.993   1.381
 1817HOH      O 5636   0.095   0.834   0.971
 1817HOH     H1 5637   0.020   0.839   0.912
 1817HOH     H2 5638   0.113   0.925   0.995
 1818HOH      O 5639   0.195   1.573   1.197
 1818HOH     H1 5640   0.181   1.630   1.122
 1818HOH     H2 5641   0.231   1.631   1.265
 1819HOH      O 5642   2.289   3.334   3.282
 1819HOH     H1 5643   2.194   3.345   3.275
 1819HOH     H2 5644   2.309   3.256   3.231
 1820HOH      O 5645   3.109   0.115   1.138
 1820HOH     H1 5646   3.166   0.065   1.196
 1820HOH     H2 5647   3.059   0.172   1.197
 1821HOH      O 5648   2.771   3.376   3.687
 1821HOH     H1 5649   2.866   3.378   3.674
 1821HOH     H2 5650   2.747   3.284   3.671
 1822HOH      O 5651   1.834   2.498   2.564
 1822HOH     H1 5652   1.831   2.590   2.537
 1822HOH     H2 5653   1.745   2.466   2.552
 1823HOH      O 5654   1.660   1.961   2.253
 1823HOH     H1 5655   1.639   2.020   2.325
 1823HOH     H2 5656   1.746   1.925   2.275
 1824HOH      O 5657   1.059   0.443   3.127
 1824HOH     H1 5658   1.120   0.516   3.132
 1824HOH     H2 5659   1.092   0.380   3.192
 1825HOH      O 5660   1.678   2.200   2.717
 1825HOH     H1 5661   1.763   2.185   2.676
 1825HOH     H2 5662   1.686   2.163   2.805
 1826HOH      O 5663   1.937   1.369   0.151
 1826HOH     H1 5664   1.848   1.343   0.128
 1826HOH     H2 5665   1.953   1.449   0.101
 1827HOH      O 5666   3.362   3.619   2.226
 1827HOH     H1 5667   3.298   3.666   2.173
 1827HOH     H2 5668   3.319   3.537   2.248
 1828HOH      O 5669   0.189   2.876   3.194
 1828HOH     H1 5670   0.120   2.940   3.176
 1828HOH     H2 5671   0.246   2.880   3.118
 1829HOH      O 5672   2.233   0.305   0.740
 1829HOH     H1 5673   2.321   0.315   0.702
 1829HOH     H2 5674   2.181   0.266   0.670
 1830HOH      O 5675   3.784   2.327   3.627
 1830HOH     H1 5676   3.856   2.362   3.575
 1830HOH     H2 5677   3.713   2.390   3.615
 1831HOH      O 5678   3.946   1.290   0.243
 1831HOH     H1 5679   3.855   1.298   0.215
 1831HOH     H2 5680   3.947   1.322   0.333
 1832HOH      O 5681   1.922   2.864   0.155
 1832HOH     H1 5682   1.829   2.846   0.144
 1832HOH     H2 5683   1.933   2.876   0.250
 1833HOH      O 5684   2.692   0.825   2.893
 1833HOH     H1 5685   2.640   0.904   2.883
 1833HOH     H2 5686   2.645   0.759   2.842
 1834HOH      O 5687   2.863   0.177   1.249
 1834HOH     H1 5688   2.791   0.240   1.244
 1834HOH     H2 5689   2.866   0.152   1.341
 1835HOH      O 5690   3.449   2.972   2.700
 1835HOH     H1 5691   3.410   2.939   2.781
 1835HOH     H2 5692   3.543   2.976   2.719
 1836HOH      O 5693   3.724   3.280   2.747
 1836HOH     H1 5694   3.657   3.288   2.815
 1836HOH     H2 5695   3.780   3.208   2.777
 1837HOH      O 5696   2.664   1.669   1.941
 1837HOH     H1 5697   2.710   1.750   1.919
 1837HOH     H2 5698   2.729   1.600   1.928
 1838HOH      O 5699   1.757   3.334   2.022
 1838HOH     H1 5700   1.763   3.277   2.098
 1838HOH     H2 5701   1.778   3.421   2.056
 1839HOH      O 5702   0.322   0.190   2.762
 1839HOH     H1 5703   0.322   0.187   2.858
 1839HOH     H2 5704   0.414   0.193   2.738
 1840HOH      O 5705   1.807   3.211   4.002
 1840HOH     H1 5706   1.788   3.237   3.912
 1840HOH     H2 5707   1.857   3.284   4.038
 1841HOH      O 5708   0.657   0.843   0.644
 1841HOH     H1 5709   0.609   0.761   0.636
 1841HOH     H2 5710   0.591   0.911   0.630
 1842HOH      O 5711   0.273   1.834   3.080
 1842HOH     H1 5712   0.338   1.832   3.150
 1842HOH     H2 5713   0.206   1.894   3.111
 1843HOH      O 5714   0.075   0.560   3.937
 1843HOH     H1 5715   0.046   0.577   4.027
 1843HOH     H2 5716   0.053   0.639   3.889
 1844HOH      O 5717   1.033   1.452   2.700
 1844HOH     H1 5718   0.991   1.531   2.734
 1844HOH     H2 5719   1.103   1.433   2.763
 1845HOH      O 5720   3.259   3.943   3.456
 1845HOH     H1 5721   3.167   3.919   3.462
 1845HOH     H2 5722   3.260   4.036   3.477
 1846HOH      O 5723   2.942   1.106   2.144
 1846HOH     H1 5724   2.977   1.027   2.187
 1846HOH     H2 5725   2.993   1.114   2.064
 1847HOH      O 5726   2.349   3.177   0.781
 1847HOH     H1 5727   2.425   3.146   0.831
 1847HOH     H2 5728   2.350   3.124   0.701
 1848HOH      O 5729   0.982   0.225   0.648
 1848HOH     H1 5730   0.958   0.298   0.706
 1848HOH     H2 5731   1.024   0.268   0.573
 1849HOH      O 5732   3.999   0.935   2.454
 1849HOH     H1 5733   3.945   0.975   2.522
 1849HOH     H2 5734   4.030   1.009   2.402
 1850HOH      O 5735   0.111   3.365   3.296
 1850HOH     H1 5736   0.144   3.451   3.274
 1850HOH     H2 5737   0.060   3.338   3.220
 1851HOH      O 5738   1.448   3.451   0.804
 1851HOH     H1 5739   1.469   3.415   0.717
 1851HOH     H2 5740   1.430   3.374   0.858
 1852HOH      O 5741   1.856   3.381   0.812
 1852HOH     H1 5742   1.830   3.391   0.903
 1852HOH     H2 5743   1.951   3.395   0.812
 1853HOH      O 5744   2.473   3.552   1.955
 1853HOH     H1 5745   2.555   3.601   1.948
 1853HOH     H2 5746   2.426   3.573   1.875
 1854HOH      O 5747   1.009   2.517   1.894
 1854HOH     H1 5748   1.091   2.481   1.929
 1854HOH     H2 5749   0.940   2.462   1.932
 1855HOH      O 5750   2.162   1.209   1.439
 1855HOH     H1 5751   2.146   1.191   1.347
 1855HOH     H2 5752   2.159   1.305   1.445
 1856HOH      O 5753   2.871   0.403   2.827
 1856HOH     H1 5754   2.804   0.456   2.785
 1856HOH     H2 5755   2.825   0.324   2.855
 1857HOH      O 5756   3.588   2.639   3.205
 1857HOH     H1 5757   3.538   2.697   3.263
 1857HOH     H2 5758   3.636   2.698   3.148
 1858HOH      O 5759   2.815   2.068   3.598
 1858HOH     H1 5760   2.737   2.012   3.607
 1858HOH     H2 5761   2.864   2.054   3.679
 1859HOH      O 5762   3.836   3.975   1.990
 1859HOH     H1 5763   3.747   4.007   2.004
 1859HOH     H2 5764   3.861   3.936   2.073
 1860HOH      O 5765   3.585   3.123   0.574
 1860HOH     H1 5766   3.568   3.034   0.542
 1860HOH     H2 5767   3.531   3.131   0.652
 1861HOH      O 5768   1.127   1.259   3.759
 1861HOH     H1 5769   1.203   1.201   3.757
 1861HOH     H2 5770   1.051   1.200   3.751
 1862HOH      O 5771   0.545   2.680   1.509
 1862HOH     H1 5772   0.605   2.625   1.459
 1862HOH     H2 5773   0.464   2.679   1.458
 1863HOH      O 5774   0.197   3.647   1.094
 1863HOH     H1 5775   0.227   3.562   1.063
 1863HOH     H2 5776   0.196   3.639   1.190
 1864HOH      O 5777   1.100   3.750   1.793
 1864HOH     H1 5778   1.158   3.794   1.731
 1864HOH     H2 5779   1.013   3.780   1.769
 1865HOH      O 5780   3.843   3.675   1.101
 1865HOH     H1 5781   3.893   3.756   1.107
 1865HOH     H2 5782   3.826   3.650   1.192
 1866HOH      O 5783   2.546   3.880   3.831
 1866HOH     H1 5784   2.526   3.927   3.750
 1866HOH     H2 5785   2.642   3.874   3.832
 1867HOH      O 5786   0.008   1.533   3.829
 1867HOH     H1 5787  -0.015   1.626   3.821
 1867HOH     H2 5788  -0.033   1.491   3.754
 1868HOH      O 5789   3.418   3.196   1.507
 1868HOH     H1 5790   3.417   3.285   1.543
 1868HOH     H2 5791   3.390   3.141   1.580
 1869HOH      O 5792   0.372   2.622   3.693
 1869HOH     H1 5793   0.327   2.706   3.679
 1869HOH     H2 5794   0.323   2.580   3.763
 1870HOH      O 5795   0.361   3.500   2.113
 1870HOH     H1 5796   0.355   3.593   2.137
 1870HOH     H2 5797   0.388   3.457   2.193
 1871HOH      O 5798   3.949   2.325   2.406
 1871HOH     H1 5799   4.023   2.281   2.447
 1871HOH     H2 5800   3.927   2.397   2.465
 1872HOH      O 5801   0.201   0.823   0.604
 1872HOH     H1 5802   0.230   0.911   0.627
 1872HOH     H2 5803   0.280   0.769   0.608
 1873HOH      O 5804   1.309   1.018   0.790
 1873HOH     H1 5805   1.404   1.025   0.784
 1873HOH     H2 5806   1.278   1.109   0.794
 1874HOH      O 5807   0.787   0.822   0.965
 1874HOH     H1 5808   0.809   0.767   0.890
 1874HOH     H2 5809   0.851   0.799   1.032
 1875HOH      O 5810   3.166   2.249   2.271
 1875HOH     H1 5811   3.175   2.173   2.329
 1875HOH     H2 5812   3.250   2.256   2.227
 1876HOH      O 5813   3.246   0.983   2.690
 1876HOH     H1 5814   3.165   0.953   2.650
 1876HOH     H2 5815   3.287   0.903   2.723
 1877HOH      O 5816   1.843   0.503   3.683
 1877HOH     H1 5817   1.923   0.450   3.680
 1877HOH     H2 5818   1.798   0.482   3.601
 1878HOH      O 5819   3.390   1.029   1.047
 1878HOH     H1 5820   3.312   1.061   1.001
 1878HOH     H2 5821   3.425   0.961   0.990
 1879HOH      O 5822   0.614   0.559   3.763
 1879HOH     H1 5823   0.692   0.517   3.726
 1879HOH     H2 5824   0.640   0.581   3.853
 1880HOH      O 5825   1.851   3.916   0.690
 1880HOH     H1 5826   1.921   3.852   0.680
 1880HOH     H2 5827   1.832   3.918   0.784
 1881HOH      O 5828   2.567   0.253   0.872
 1881HOH     H1 5829   2.636   0.221   0.813
 1881HOH     H2 5830   2.574   0.348   0.866
 1882HOH      O 5831   3.226   1.593   1.704
 1882HOH     H1 5832   3.255   1.503   1.693
 1882HOH     H2 5833   3.137   1.594   1.670
 1883HOH      O 5834   3.910   0.034   2.600
 1883HOH     H1 5835   3.901  -0.059   2.621
 1883HOH     H2 5836   3.848   0.077   2.659
 1884HOH      O 5837   1.364   0.303   0.884
 1884HOH     H1 5838   1.379   0.397   0.894
 1884HOH     H2 5839   1.393   0.284   0.795
 1885HOH      O 5840   0.411   3.401   2.381
 1885HOH     H1 5841   0.334   3.457   2.373
 1885HOH     H2 5842   0.477   3.456   2.422
 1886HOH      O 5843   1.189   3.938   3.973
 1886HOH     H1 5844   1.256   3.984   3.922
 1886HOH     H2 5845   1.109   3.950   3.923
 1887HOH      O 5846   2.656   1.009   2.181
 1887HOH     H1 5847   2.592   1.032   2.114
 1887HOH     H2 5848   2.737   1.052   2.153
 1888HOH      O 5849   0.694   3.885   0.743
 1888HOH     H1 5850   0.684   3.797   0.777
 1888HOH     H2 5851   0.633   3.889   0.669
 1889HOH      O 5852   0.952   2.391   1.168
 1889HOH     H1 5853   0.943   2.318   1.230
 1889HOH     H2 5854   0.881   2.379   1.106
 1890HOH      O 5855   0.370   2.137   3.660
 1890HOH     H1 5856   0.284   2.179   3.656
 1890HOH     H2 5857   0.420   2.191   3.721
 1891HOH      O 5858   4.021   0.429   3.604
 1891HOH     H1 5859   3.971   0.389   3.533
 1891HOH     H2 5860   3.986   0.518   3.611
 1892HOH      O 5861   1.952   3.991   1.130
 1892HOH     H1 5862   1.956   4.085   1.148
 1892HOH     H2 5863   1.860   3.975   1.108
 1893HOH      O 5864   1.553   0.452   1.741
 1893HOH     H1 5865   1.541   0.357   1.738
 1893HOH     H2 5866   1.465   0.487   1.726
 1894HOH      O 5867   1.336   3.707   0.479
 1894HOH     H1 5868   1.422   3.742   0.503
 1894HOH     H2 5869   1.285   3.710   0.561
 1895HOH      O 5870   1.204   1.310   3.480
 1895HOH     H1 5871   1.299   1.316   3.482
 1895HOH     H2 5872   1.174   1.374   3.545
 1896HOH      O 5873   2.106   1.877   1.128
 1896HOH     H1 5874   2.121   1.784   1.148
 1896HOH     H2 5875   2.102   1.919   1.214
 1897HOH      O 5876   1.307   2.064   1.126
 1897HOH     H1 5877   1.293   2.041   1.217
 1897HOH     H2 5878   1.367   2.138   1.128
 1898HOH      O 5879   2.677   3.994   1.178
 1898HOH     H1 5880   2.692   4.007   1.272
 1898HOH     H2 5881   2.764   4.001   1.138
 1899HOH      O 5882   0.406   2.858   0.275
 1899HOH     H1 5883   0.362   2.901   0.202
 1899HOH     H2 5884   0.498   2.860   0.252
 1900HOH      O 5885   3.313   1.667   2.447
 1900HOH     H1 5886   3.287   1.587   2.403
 1900HOH     H2 5887   3.362   1.637   2.524
 1901HOH      O 5888   1.857   4.023   1.482
 1901HOH     H1 5889   1.860   4.005   1.576
 1901HOH     H2 5890   1.815   3.946   1.444
 1902HOH      O 5891   1.785   0.883   0.171
 1902HOH     H1 5892   1.875   0.915   0.182
 1902HOH     H2 5893   1.795   0.800   0.124
 1903HOH      O 5894   0.489   3.192   3.674
 1903HOH     H1 5895   0.473   3.239   3.756
 1903HOH     H2 5896   0.554   3.246   3.628
 1904HOH      O 5897   1.316   3.322   1.857
 1904HOH     H1 5898   1.329   3.357   1.768
 1904HOH     H2 5899   1.392   3.267   1.872
 1905HOH      O 5900   2.579   2.537   1.260
 1905HOH     H1 5901   2.596   2.511   1.170
 1905HOH     H2 5902   2.658   2.584   1.287
 1906HOH      O 5903   3.525   0.424   1.364
 1906HOH     H1 5904   3.571   0.415   1.281
 1906HOH     H2 5905   3.589   0.397   1.430
 1907HOH      O 5906   2.250   2.892   0.784
 1907HOH     H1 5907   2.319   2.902   0.850
 1907HOH     H2 5908   2.297   2.894   0.700
 1908HOH      O 5909   1.121   3.030   0.637
 1908HOH     H1 5910   1.183   2.980   0.691
 1908HOH     H2 5911   1.078   3.089   0.699
 1909HOH      O 5912   1.118   0.113   3.107
 1909HOH     H1 5913   1.126   0.040   3.046
 1909HOH     H2 5914   1.090   0.187   3.053
 1910HOH      O 5915   1.889   3.147   3.069
 1910HOH     H1 5916   1.980   3.122   3.057
 1910HOH     H2 5917   1.845   3.116   2.990
 1911HOH      O 5918   1.003   3.104   3.043
 1911HOH     H1 5919   1.008   3.119   3.137
 1911HOH     H2 5920   0.947   3.175   3.011
 1912HOH      O 5921   1.720   0.966   1.426
 1912HOH     H1 5922   1.792   0.929   1.476
 1912HOH     H2 5923   1.656   0.895   1.419
 1913HOH      O 5924   3.500   3.460   2.540
 1913HOH     H1 5925   3.422   3.514   2.547
 1913HOH     H2 5926   3.470   3.372   2.562
 1914HOH      O 5927   2.098   0.813   0.998
 1914HOH     H1 5928   2.120   0.738   0.944
 1914HOH     H2 5929   2.131   0.791   1.085
 1915HOH      O 5930   2.780   1.763   1.353
 1915HOH     H1 5931   2.695   1.768   1.395
 1915HOH     H2 5932   2.806   1.854   1.339
 1916HOH      O 5933   3.306   1.766   0.585
 1916HOH     H1 5934   3.252   1.712   0.527
 1916HOH     H2 5935   3.395   1.732   0.575
 1917HOH      O 5936   1.241   0.044   0.751
 1917HOH     H1 5937   1.185   0.030   0.675
 1917HOH     H2 5938   1.274   0.133   0.739
 1918HOH      O 5939   2.550   0.214   1.157
 1918HOH     H1 5940   2.528   0.226   1.064
 1918HOH     H2 5941   2.582   0.124   1.163
 1919HOH      O 5942   3.300   0.531   2.988
 1919HOH     H1 5943   3.225   0.488   3.029
 1919HOH     H2 5944   3.351   0.566   3.061
 1920HOH      O 5945   1.104   2.425   3.326
 1920HOH     H1 5946   1.158   2.504   3.328
 1920HOH     H2 5947   1.143   2.368   3.391
 1921HOH      O 5948   0.056   1.697   0.675
 1921HOH     H1 5949   0.045   1.612   0.718
 1921HOH     H2 5950   0.072   1.758   0.747
 1922HOH      O 5951   1.040   2.821   2.620
 1922HOH     H1 5952   0.947   2.803   2.605
 1922HOH     H2 5953   1.051   2.912   2.593
 1923HOH      O 5954   2.427   0.561   2.277
 1923HOH     H1 5955   2.478   0.641   2.294
 1923HOH     H2 5956   2.346   0.592   2.237
 1924HOH      O 5957   1.868   1.374   2.371
 1924HOH     H1 5958   1.880   1.309   2.440
 1924HOH     H2 5959   1.776   1.368   2.348
 1925HOH      O 5960   2.752   1.191   0.801
 1925HOH     H1 5961   2.796   1.271   0.770
 1925HOH     H2 5962   2.663   1.219   0.821
 1926HOH      O 5963   1.672   1.768   0.138
 1926HOH     H1 5964   1.594   1.713   0.136
 1926HOH     H2 5965   1.658   1.825   0.214
 1927HOH      O 5966   0.653   3.526   1.355
 1927HOH     H1 5967   0.648   3.608   1.405
 1927HOH     H2 5968   0.565   3.488   1.364
 1928HOH      O 5969   3.530   3.007   3.097
 1928HOH     H1 5970   3.602   2.944   3.093
 1928HOH     H2 5971   3.457   2.962   3.055
 1929HOH      O 5972   0.249   2.983   0.934
 1929HOH     H1 5973   0.190   2.949   0.868
 1929HOH     H2 5974   0.246   3.078   0.922
 1930HOH      O 5975   2.985   0.823   2.634
 1930HOH     H1 5976   3.030   0.739   2.627
 1930HOH     H2 5977   2.977   0.838   2.729
 1931HOH      O 5978   1.325   1.826   0.985
 1931HOH     H1 5979   1.410   1.823   0.941
 1931HOH     H2 5980   1.326   1.908   1.034
 1932HOH      O 5981   2.015   2.022   2.429
 1932HOH     H1 5982   1.972   2.108   2.434
 1932HOH     H2 5983   2.029   1.997   2.520
 1933HOH      O 5984   1.627   0.176   0.035
 1933HOH     H1 5985   1.677   0.250   0.000
 1933HOH     H2 5986   1.636   0.108  -0.030
 1934HOH      O 5987   3.115   0.089   0.872
 1934HOH     H1 5988   3.088   0.179   0.857
 1934HOH     H2 5989   3.105   0.076   0.966
 1935HOH      O 5990   2.606   3.953   0.369
 1935HOH     H1 5991   2.656   3.875   0.345
 1935HOH     H2 5992   2.669   4.025   0.361
 1936HOH      O 5993   2.185   2.627   2.521
 1936HOH     H1 5994   2.158   2.569   2.450
 1936HOH     H2 5995   2.211   2.569   2.592
 1937HOH      O 5996   0.714   0.654   0.297
 1937HOH     H1 5997   0.702   0.588   0.229
 1937HOH     H2 5998   0.682   0.736   0.258
 1938HOH      O 5999   0.203   3.669   3.215
 1938HOH     H1 6000   0.181   3.672   3.122
 1938HOH     H2 6001   0.292   3.706   3.220
 1939HOH      O 6002   3.790   1.855   0.357
 1939HOH     H1 6003   3.731   1.807   0.299
 1939HOH     H2 6004   3.864   1.796   0.370
 1940HOH      O 6005   3.852   0.600   1.928
 1940HOH     H1 6006   3.787   0.530   1.940
 1940HOH     H2 6007   3.918   0.584   1.995
 1941HOH      O 6008   0.874   3.763   3.196
 1941HOH     H1 6009   0.966   3.785   3.209
 1941HOH     H2 6010   0.875   3.670   3.172
 1942HOH      O 6011   1.394   0.826   1.505
 1942HOH     H1 6012   1.461   0.768   1.469
 1942HOH     H2 6013   1.425   0.847   1.593
 1943HOH      O 6014   2.956   2.625   3.160
 1943HOH     H1 6015   3.033   2.631   3.103
 1943HOH     H2 6016   2.938   2.716   3.186
 1944HOH      O 6017   1.669   4.005   1.140
 1944HOH     H1 6018   1.659   4.100   1.152
 1944HOH     H2 6019   1.586   3.969   1.171
 1945HOH      O 6020   1.798   2.140   0.201
 1945HOH     H1 6021   1.855   2.104   0.133
 1945HOH     H2 6022   1.803   2.235   0.189
 1946HOH      O 6023   0.695   1.251   0.242
 1946HOH     H1 6024   0.684   1.308   0.166
 1946HOH     H2 6025   0.701   1.163   0.205
 1947HOH      O 6026   2.716   2.338   0.620
 1947HOH     H1 6027   2.743   2.380   0.701
 1947HOH     H2 6028   2.633   2.295   0.641
 1948HOH      O 6029   1.402   1.218   2.249
 1948HOH     H1 6030   1.461   1.293   2.262
 1948HOH     H2 6031   1.365   1.232   2.162
 1949HOH      O 6032   2.624   0.745   2.311
 1949HOH     H1 6033   2.713   0.730   2.343
 1949HOH     H2 6034   2.631   0.821   2.254
 1950HOH      O 6035   3.827   0.453   0.092
 1950HOH     H1 6036   3.789   0.523   0.146
 1950HOH     H2 6037   3.896   0.416   0.146
 1951HOH      O 6038   3.524   1.777   1.540
 1951HOH     H1 6039   3.545   1.761   1.632
 1951HOH     H2 6040   3.429   1.789   1.539
 1952HOH      O 6041   1.981   0.472   0.867
 1952HOH     H1 6042   2.040   0.534   0.823
 1952HOH     H2 6043   1.970   0.401   0.803
 1953HOH      O 6044   1.308   3.685   1.953
 1953HOH     H1 6045   1.333   3.774   1.980
 1953HOH     H2 6046   1.232   3.699   1.896
 1954HOH      O 6047   2.266   2.257   1.414
 1954HOH     H1 6048   2.264   2.199   1.490
 1954HOH     H2 6049   2.187   2.235   1.365
 1955HOH      O 6050   2.663   3.123   3.409
 1955HOH     H1 6051   2.700   3.091   3.491
 1955HOH     H2 6052   2.687   3.057   3.344
 1956HOH      O 6053   1.445   3.633   3.133
 1956HOH     H1 6054   1.520   3.674   3.175
 1956HOH     H2 6055   1.410   3.573   3.200
 1957HOH      O 6056   1.400   1.715   1.676
 1957HOH     H1 6057   1.324   1.686   1.728
 1957HOH     H2 6058   1.443   1.634   1.650
 1958HOH      O 6059   1.164   3.815   3.241
 1958HOH     H1 6060   1.254   3.842   3.258
 1958HOH     H2 6061   1.158   3.808   3.146
 1959HOH      O 6062   2.924   3.169   2.729
 1959HOH     H1 6063   2.979   3.171   2.650
 1959HOH     H2 6064   2.868   3.093   2.717
 1960HOH      O 6065   3.264   2.022   3.850
 1960HOH     H1 6066   3.310   1.943   3.878
 1960HOH     H2 6067   3.334   2.080   3.819
 1961HOH      O 6068   0.961   3.133   2.166
 1961HOH     H1 6069   1.010   3.108   2.088
 1961HOH     H2 6070   0.905   3.205   2.137
 1962HOH      O 6071   1.985   2.287   2.573
 1962HOH     H1 6072   2.070   2.305   2.614
 1962HOH     H2 6073   1.938   2.371   2.577
 1963HOH      O 6074   3.339   0.457   0.572
 1963HOH     H1 6075   3.303   0.450   0.484
 1963HOH     H2 6076   3.392   0.378   0.582
 1964HOH      O 6077   0.829   0.784   2.238
 1964HOH     H1 6078   0.884   0.860   2.259
 1964HOH     H2 6079   0.892   0.714   2.222
 1965HOH      O 6080   2.068   2.371   2.015
 1965HOH     H1 6081   1.983   2.328   2.024
 1965HOH     H2 6082   2.047   2.456   1.975
 1966HOH      O 6083   3.490   2.179   3.484
 1966HOH     H1 6084   3.450   2.237   3.419
 1966HOH     H2 6085   3.584   2.183   3.466
 1967HOH      O 6086   3.091   0.036   2.268
 1967HOH     H1 6087   3.145   0.100   2.314
 1967HOH     H2 6088   3.147   0.004   2.197
 1968HOH      O 6089   2.069   2.657   0.009
 1968HOH     H1 6090   2.012   2.618  -0.057
 1968HOH     H2 6091   2.009   2.704   0.068
 1969HOH      O 6092   2.576   0.854   2.570
 1969HOH     H1 6093   2.640   0.911   2.527
 1969HOH     H2 6094   2.549   0.793   2.502
 1970HOH      O 6095   3.613   0.725   3.105
 1970HOH     H1 6096   3.534   0.731   3.160
 1970HOH     H2 6097   3.668   0.662   3.152
 1971HOH      O 6098   2.081   3.158   3.852
 1971HOH     H1 6099   2.117   3.105   3.923
 1971HOH     H2 6100   2.013   3.211   3.893
 1972HOH      O 6101   2.575   1.562   2.551
 1972HOH     H1 6102   2.596   1.650   2.583
 1972HOH     H2 6103   2.561   1.574   2.457
 1973HOH      O 6104   1.574   1.946   3.296
 1973HOH     H1 6105   1.625   1.930   3.375
 1973HOH     H2 6106   1.531   1.863   3.277
 1974HOH      O 6107   3.820   2.136   1.397
 1974HOH     H1 6108   3.730   2.128   1.427
 1974HOH     H2 6109   3.834   2.060   1.340
 1975HOH      O 6110   3.686   1.847   3.385
 1975HOH     H1 6111   3.735   1.929   3.387
 1975HOH     H2 6112   3.625   1.857   3.313
 1976HOH      O 6113   0.835   2.072   0.899
 1976HOH     H1 6114   0.926   2.057   0.925
 1976HOH     H2 6115   0.784   2.037   0.972
 1977HOH      O 6116   1.336   3.880   0.170
 1977HOH     H1 6117   1.271   3.899   0.102
 1977HOH     H2 6118   1.336   3.785   0.178
 1978HOH      O 6119   2.814   0.536   3.187
 1978HOH     H1 6120   2.725   0.523   3.155
 1978HOH     H2 6121   2.849   0.606   3.132
 1979HOH      O 6122   1.341   2.754   1.893
 1979HOH     H1 6123   1.328   2.722   1.982
 1979HOH     H2 6124   1.288   2.695   1.838
 1980HOH      O 6125   0.100   3.834   1.405
 1980HOH     H1 6126   0.093   3.740   1.391
 1980HOH     H2 6127   0.093   3.845   1.500
 1981HOH      O 6128   2.595   3.336   1.060
 1981HOH     H1 6129   2.536   3.302   1.127
 1981HOH     H2 6130   2.682   3.306   1.087
 1982HOH      O 6131   1.984   3.195   1.153
 1982HOH     H1 6132   1.896   3.199   1.114
 1982HOH     H2 6133   2.003   3.102   1.159
 1983HOH      O 6134   2.035   1.569   0.549
 1983HOH     H1 6135   1.967   1.581   0.483
 1983HOH     H2 6136   2.093   1.503   0.511
 1984HOH      O 6137   0.160   0.208   3.708
 1984HOH     H1 6138   0.097   0.271   3.672
 1984HOH     H2 6139   0.242   0.257   3.713
 1985HOH      O 6140   3.410   0.830   2.266
 1985HOH     H1 6141   3.460   0.754   2.298
 1985HOH     H2 6142   3.430   0.899   2.329
 1986HOH      O 6143   2.984   1.375   1.009
 1986HOH     H1 6144   3.011   1.371   0.917
 1986HOH     H2 6145   2.983   1.284   1.039
 1987HOH      O 6146   1.158   0.757   1.856
 1987HOH     H1 6147   1.085   0.698   1.873
 1987HOH     H2 6148   1.190   0.781   1.943
 1988HOH      O 6149   0.890   3.467   0.131
 1988HOH     H1 6150   0.944   3.533   0.088
 1988HOH     H2 6151   0.926   3.460   0.219
 1989HOH      O 6152   2.369   1.938   3.596
 1989HOH     H1 6153   2.317   1.993   3.654
 1989HOH     H2 6154   2.388   1.994   3.521
 1990HOH      O 6155   3.975   1.199   0.882
 1990HOH     H1 6156   3.974   1.118   0.830
 1990HOH     H2 6157   3.934   1.174   0.965
 1991HOH      O 6158   0.682   0.272   3.060
 1991HOH     H1 6159   0.727   0.261   2.977
 1991HOH     H2 6160   0.737   0.226   3.124
 1992HOH      O 6161   0.385   3.993   1.622
 1992HOH     H1 6162   0.466   4.025   1.662
 1992HOH     H2 6163   0.316   4.047   1.660
 1993HOH      O 6164   0.097   0.701   2.431
 1993HOH     H1 6165   0.177   0.700   2.378
 1993HOH     H2 6166   0.074   0.794   2.438
 1994HOH      O 6167   1.825   2.572   2.203
 1994HOH     H1 6168   1.812   2.532   2.117
 1994HOH     H2 6169   1.908   2.536   2.234
 1995HOH      O 6170   0.178   1.124   3.127
 1995HOH     H1 6171   0.088   1.104   3.102
 1995HOH     H2 6172   0.214   1.172   3.053
 1996HOH      O 6173   2.053   0.150   0.282
 1996HOH     H1 6174   2.133   0.202   0.279
 1996HOH     H2 6175   2.050   0.116   0.372
 1997HOH      O 6176   1.542   0.178   1.765
 1997HOH     H1 6177   1.624   0.154   1.808
 1997HOH     H2 6178   1.507   0.095   1.731
 1998HOH      O 6179   3.466   1.461   0.452
 1998HOH     H1 6180   3.510   1.463   0.366
 1998HOH     H2 6181   3.538   1.458   0.515
 1999HOH      O 6182   3.712   3.126   1.118
 1999HOH     H1 6183   3.799   3.091   1.098
 1999HOH     H2 6184   3.718   3.219   1.097
 2000HOH      O 6185   2.028   0.204   4.021
 2000HOH     H1 6186   2.000   0.290   3.990
 2000HOH     H2 6187   2.053   0.217   4.112
 2001HOH      O 6188   2.557   1.817   0.984
 2001HOH     H1 6189   2.640   1.840   1.025
 2001HOH     H2 6190   2.568   1.726   0.958
 2002HOH      O 6191   1.049   2.168   2.689
 2002HOH     H1 6192   1.106   2.091   2.692
 2002HOH     H2 6193   1.105   2.240   2.718
 2003HOH      O 6194   2.370   3.733   1.427
 2003HOH     H1 6195   2.420   3.750   1.507
 2003HOH     H2 6196   2.291   3.689   1.456
 2004HOH      O 6197   1.539   0.073   3.124
 2004HOH     H1 6198   1.550   0.137   3.053
 2004HOH     H2 6199   1.529  -0.011   3.079
 2005HOH      O 6200   2.171   3.404   0.776
 2005HOH     H1 6201   2.124   3.391   0.693
 2005HOH     H2 6202   2.226   3.326   0.784
 2006HOH      O 6203   3.578   2.070   2.747
 2006HOH     H1 6204   3.547   2.014   2.676
 2006HOH     H2 6205   3.523   2.148   2.743
 2007HOH      O 6206   3.033   0.403   1.108
 2007HOH     H1 6207   3.116   0.441   1.136
 2007HOH     H2 6208   3.057   0.342   1.039
 2008HOH      O 6209   0.974   1.835   2.402
 2008HOH     H1 6210   0.907   1.887   2.358
 2008HOH     H2 6211   1.045   1.897   2.420
 2009HOH      O 6212   0.096   1.903   0.195
 2009HOH     H1 6213   0.024   1.845   0.218
 2009HOH     H2 6214   0.142   1.858   0.125
 2010HOH      O 6215   0.245   1.328   2.921
 2010HOH     H1 6216   0.167   1.379   2.941
 2010HOH     H2 6217   0.229   1.294   2.833
 2011HOH      O 6218   3.059   1.326   2.581
 2011HOH     H1 6219   2.990   1.301   2.643
 2011HOH     H2 6220   3.085   1.414   2.610
 2012HOH      O 6221   2.968   3.811   1.213
 2012HOH     H1 6222   3.027   3.736   1.211
 2012HOH     H2 6223   2.957   3.835   1.121
 2013HOH      O 6224   3.641   3.054   3.337
 2013HOH     H1 6225   3.725   3.100   3.332
 2013HOH     H2 6226   3.598   3.074   3.254
 2014HOH      O 6227   2.557   3.135   1.655
 2014HOH     H1 6228   2.620   3.131   1.582
 2014HOH     H2 6229   2.564   3.050   1.697
 2015HOH      O 6230   3.885   2.802   1.321
 2015HOH     H1 6231   3.973   2.796   1.358
 2015HOH     H2 6232   3.893   2.863   1.248
 2016HOH      O 6233   2.634   1.722   3.576
 2016HOH     H1 6234   2.628   1.784   3.648
 2016HOH     H2 6235   2.672   1.772   3.504
 2017HOH      O 6236   0.349   2.197   3.160
 2017HOH     H1 6237   0.410   2.232   3.095
 2017HOH     H2 6238   0.382   2.109   3.179
 2018HOH      O 6239   0.985   0.869   3.790
 2018HOH     H1 6240   0.908   0.813   3.779
 2018HOH     H2 6241   1.036   0.825   3.859
 2019HOH      O 6242   3.598   2.853   3.864
 2019HOH     H1 6243   3.675   2.899   3.897
 2019HOH     H2 6244   3.570   2.904   3.788
 2020HOH      O 6245   3.200   3.799   0.675
 2020HOH     H1 6246   3.248   3.847   0.743
 2020HOH     H2 6247   3.261   3.796   0.601
 2021HOH      O 6248   2.657   0.895   0.695
 2021HOH     H1 6249   2.729   0.938   0.648
 2021HOH     H2 6250   2.668   0.922   0.786
 2022HOH      O 6251   1.540   1.088   2.833
 2022HOH     H1 6252   1.474   1.158   2.827
 2022HOH     H2 6253   1.594   1.100   2.755
 2023HOH      O 6254   1.384   1.883   1.456
 2023HOH     H1 6255   1.405   1.832   1.378
 2023HOH     H2 6256   1.399   1.823   1.529
 2024HOH      O 6257   0.094   0.541   0.658
 2024HOH     H1 6258   0.037   0.468   0.634
 2024HOH     H2 6259   0.180   0.516   0.624
 2025HOH      O 6260   3.007   2.963   0.309
 2025HOH     H1 6261   2.943   2.893   0.311
 2025HOH     H2 6262   2.983   3.016   0.234
 2026HOH      O 6263   0.253   2.016   2.816
 2026HOH     H1 6264   0.290   1.958   2.750
 2026HOH     H2 6265   0.254   1.966   2.897
 2027HOH      O 6266   0.705   1.582   1.520
 2027HOH     H1 6267   0.780   1.636   1.544
 2027HOH     H2 6268   0.734   1.492   1.534
 2028HOH      O 6269   0.613   0.080   1.708
 2028HOH     H1 6270   0.605   0.146   1.777
 2028HOH     H2 6271   0.704   0.087   1.679
 2029HOH      O 6272   1.549   1.590   1.987
 2029HOH     H1 6273   1.529   1.680   1.961
 2029HOH     H2 6274   1.614   1.560   1.923
 2030HOH      O 6275   2.034   3.257   3.273
 2030HOH     H1 6276   2.040   3.163   3.294
 2030HOH     H2 6277   1.970   3.261   3.202
 2031HOH      O 6278   0.249   0.108   1.787
 2031HOH     H1 6279   0.275   0.200   1.783
 2031HOH     H2 6280   0.196   0.101   1.866
 2032HOH      O 6281   3.576   2.050   1.010
 2032HOH     H1 6282   3.635   1.989   1.053
 2032HOH     H2 6283   3.564   2.013   0.922
 2033HOH      O 6284   0.711   3.186   0.761
 2033HOH     H1 6285   0.738   3.270   0.723
 2033HOH     H2 6286   0.617   3.183   0.748
 2034HOH      O 6287   3.224   2.903   3.483
 2034HOH     H1 6288   3.228   2.949   3.566
 2034HOH     H2 6289   3.190   2.816   3.506
 2035HOH      O 6290   0.529   0.963   2.540
 2035HOH     H1 6291   0.526   1.056   2.565
 2035HOH     H2 6292   0.490   0.962   2.452
 2036HOH      O 6293   1.554   2.565   3.348
 2036HOH     H1 6294   1.515   2.630   3.406
 2036HOH     H2 6295   1.556   2.608   3.262
 2037HOH      O 6296   0.226   0.589   1.313
 2037HOH     H1 6297   0.315   0.592   1.349
 2037HOH     H2 6298   0.174   0.546   1.380
 2038HOH      O 6299   0.848   1.366   2.253
 2038HOH     H1 6300   0.908   1.437   2.273
 2038HOH     H2 6301   0.863   1.301   2.322
 2039HOH      O 6302   3.795   1.040   1.478
 2039HOH     H1 6303   3.798   0.990   1.397
 2039HOH     H2 6304   3.878   1.086   1.482
 2040HOH      O 6305   1.524   2.939   0.357
 2040HOH     H1 6306   1.526   2.971   0.266
 2040HOH     H2 6307   1.615   2.942   0.386
 2041HOH      O 6308   1.754   0.236   2.819
 2041HOH     H1 6309   1.839   0.226   2.862
 2041HOH     H2 6310   1.698   0.278   2.885
 2042HOH      O 6311   3.116   2.200   2.630
 2042HOH     H1 6312   3.053   2.268   2.606
 2042HOH     H2 6313   3.063   2.132   2.671
 2043HOH      O 6314   3.316   2.457   0.558
 2043HOH     H1 6315   3.266   2.472   0.478
 2043HOH     H2 6316   3.316   2.362   0.570
 2044HOH      O 6317   2.035   2.930   1.496
 2044HOH     H1 6318   1.997   2.871   1.562
 2044HOH     H2 6319   2.079   2.872   1.435
 2045HOH      O 6320   2.278   2.939   2.071
 2045HOH     H1 6321   2.262   2.845   2.067
 2045HOH     H2 6322   2.192   2.979   2.061
 2046HOH      O 6323   0.319   1.477   0.824
 2046HOH     H1 6324   0.373   1.421   0.880
 2046HOH     H2 6325   0.367   1.481   0.741
 2047HOH      O 6326   0.244   2.658   1.607
 2047HOH     H1 6327   0.194   2.651   1.688
 2047HOH     H2 6328   0.310   2.589   1.614
 2048HOH      O 6329   2.909   2.637   1.802
 2048HOH     H1 6330   2.999   2.644   1.833
 2048HOH     H2 6331   2.916   2.629   1.707
 2049HOH      O 6332   1.048   0.382   1.164
 2049HOH     H1 6333   1.119   0.356   1.223
 2049HOH     H2 6334   1.015   0.464   1.202
 2050HOH      O 6335   3.673   3.294   0.341
 2050HOH     H1 6336   3.611   3.346   0.289
 2050HOH     H2 6337   3.618   3.253   0.408
 2051HOH      O 6338   1.782   0.938   2.480
 2051HOH     H1 6339   1.722   0.911   2.550
 2051HOH     H2 6340   1.759   0.883   2.406
 2052HOH      O 6341   1.976   1.892   2.015
 2052HOH     H1 6342   2.053   1.836   2.017
 2052HOH     H2 6343   1.931   1.874   2.097
 2053HOH      O 6344   0.597   1.733   1.000
 2053HOH     H1 6345   0.533   1.748   1.069
 2053HOH     H2 6346   0.601   1.638   0.990
 2054HOH      O 6347   1.682   1.633   1.129
 2054HOH     H1 6348   1.740   1.566   1.092
 2054HOH     H2 6349   1.726   1.716   1.109
 2055HOH      O 6350   2.450   1.958   2.571
 2055HOH     H1 6351   2.516   1.903   2.612
 2055HOH     H2 6352   2.383   1.969   2.638
 2056HOH      O 6353   3.780   1.960   2.063
 2056HOH     H1 6354   3.736   2.011   1.994
 2056HOH     H2 6355   3.783   2.019   2.138
 2057HOH      O 6356   1.668   2.892   2.611
 2057HOH     H1 6357   1.614   2.819   2.580
 2057HOH     H2 6358   1.754   2.853   2.629
 2058HOH      O 6359   3.255   3.686   3.643
 2058HOH     H1 6360   3.341   3.665   3.680
 2058HOH     H2 6361   3.268   3.767   3.595
 2059HOH      O 6362   2.621   1.617   2.279
 2059HOH     H1 6363   2.536   1.658   2.263
 2059HOH     H2 6364   2.682   1.665   2.222
 2060HOH      O 6365   1.259   0.591   0.005
 2060HOH     H1 6366   1.228   0.549  -0.074
 2060HOH     H2 6367   1.353   0.605  -0.009
 2061HOH      O 6368   3.457   3.744   2.743
 2061HOH     H1 6369   3.484   3.674   2.802
 2061HOH     H2 6370   3.412   3.807   2.799
 2062HOH      O 6371   1.313   2.603   1.447
 2062HOH     H1 6372   1.392   2.657   1.455
 2062HOH     H2 6373   1.320   2.564   1.360
 2063HOH      O 6374   0.809   3.157   3.763
 2063HOH     H1 6375   0.831   3.152   3.856
 2063HOH     H2 6376   0.756   3.079   3.747
 2064HOH      O 6377   2.082   3.595   3.253
 2064HOH     H1 6378   2.053   3.544   3.177
 2064HOH     H2 6379   2.087   3.685   3.220
 2065HOH      O 6380   1.176   3.470   2.061
 2065HOH     H1 6381   1.212   3.414   1.993
 2065HOH     H2 6382   1.212   3.557   2.043
 2066HOH      O 6383   2.300   2.044   0.055
 2066HOH     H1 6384   2.308   1.949   0.063
 2066HOH     H2 6385   2.388   2.077   0.073
 2067HOH      O 6386   1.361   0.583   3.587
 2067HOH     H1 6387   1.405   0.514   3.637
 2067HOH     H2 6388   1.428   0.650   3.574
 2068HOH      O 6389   1.820   0.625   0.062
 2068HOH     H1 6390   1.769   0.580   0.129
 2068HOH     H2 6391   1.907   0.587   0.069
 2069HOH      O 6392   0.770   1.621   2.142
 2069HOH     H1 6393   0.745   1.577   2.061
 2069HOH     H2 6394   0.857   1.586   2.163
 2070HOH      O 6395   1.927   0.234   1.191
 2070HOH     H1 6396   1.961   0.320   1.215
 2070HOH     H2 6397   1.845   0.225   1.239
 2071HOH      O 6398   0.657   2.940   3.758
 2071HOH     H1 6399   0.697   2.879   3.820
 2071HOH     H2 6400   0.589   2.984   3.809
 2072HOH      O 6401   3.375   2.605   1.571
 2072HOH     H1 6402   3.286   2.591   1.538
 2072HOH     H2 6403   3.364   2.623   1.664
 2073HOH      O 6404   2.212   3.925   1.994
 2073HOH     H1 6405   2.244   3.868   2.064
 2073HOH     H2 6406   2.289   3.943   1.940
 2074HOH      O 6407   0.081   1.106   2.862
 2074HOH     H1 6408  -0.005   1.075   2.891
 2074HOH     H2 6409   0.105   1.049   2.790
 2075HOH      O 6410   0.442   3.743   2.195
 2075HOH     H1 6411   0.448   3.796   2.116
 2075HOH     H2 6412   0.532   3.736   2.227
 2076HOH      O 6413   0.192   2.644   1.224
 2076HOH     H1 6414   0.140   2.711   1.269
 2076HOH     H2 6415   0.129   2.600   1.167
 2077HOH      O 6416   2.560   3.121   2.486
 2077HOH     H1 6417   2.534   3.210   2.511
 2077HOH     H2 6418   2.522   3.108   2.399
 2078HOH      O 6419   2.680   1.315   2.531
 2078HOH     H1 6420   2.656   1.407   2.542
 2078HOH     H2 6421   2.739   1.314   2.456
 2079HOH      O 6422   2.778   0.061   3.964
 2079HOH     H1 6423   2.692   0.088   3.995
 2079HOH     H2 6424   2.802   0.128   3.900
 2080HOH      O 6425   0.924   3.831   1.194
 2080HOH     H1 6426   0.935   3.792   1.281
 2080HOH     H2 6427   0.836   3.806   1.167
 2081HOH      O 6428   1.081   3.932   3.474
 2081HOH     H1 6429   1.083   3.926   3.379
 2081HOH     H2 6430   1.014   3.869   3.501
 2082HOH      O 6431   2.297   1.503   3.179
 2082HOH     H1 6432   2.214   1.506   3.226
 2082HOH     H2 6433   2.300   1.416   3.139
 2083HOH      O 6434   3.644   0.168   0.135
 2083HOH     H1 6435   3.700   0.224   0.082
 2083HOH     H2 6436   3.650   0.204   0.224
 2084HOH      O 6437   3.450   3.838   0.498
 2084HOH     H1 6438   3.478   3.912   0.445
 2084HOH     H2 6439   3.526   3.817   0.552
 2085HOH      O 6440   1.755   1.661   3.139
 2085HOH     H1 6441   1.664   1.679   3.161
 2085HOH     H2 6442   1.752   1.576   3.094
 2086HOH      O 6443   1.100   2.486   3.725
 2086HOH     H1 6444   1.029   2.474   3.788
 2086HOH     H2 6445   1.093   2.410   3.667
 2087HOH      O 6446   3.229   2.994   4.024
 2087HOH     H1 6447   3.301   2.951   4.069
 2087HOH     H2 6448   3.257   3.085   4.015
 2088HOH      O 6449   0.825   3.912   0.072
 2088HOH     H1 6450   0.908   3.914   0.025
 2088HOH     H2 6451   0.772   3.849   0.024
 2089HOH      O 6452   1.687   3.470   2.436
 2089HOH     H1 6453   1.637   3.416   2.498
 2089HOH     H2 6454   1.633   3.471   2.357
 2090HOH      O 6455   1.580   3.312   2.652
 2090HOH     H1 6456   1.587   3.376   2.723
 2090HOH     H2 6457   1.494   3.272   2.664
 2091HOH      O 6458   0.853   3.255   1.023
 2091HOH     H1 6459   0.810   3.231   1.105
 2091HOH     H2 6460   0.787   3.239   0.956
 2092HOH      O 6461   0.432   0.091   0.401
 2092HOH     H1 6462   0.486   0.151   0.453
 2092HOH     H2 6463   0.348   0.136   0.392
 2093HOH      O 6464   2.598   1.985   0.006
 2093HOH     H1 6465   2.563   1.907   0.048
 2093HOH     H2 6466   2.692   1.970   0.003
 2094HOH      O 6467   2.412   1.496   2.751
 2094HOH     H1 6468   2.462   1.489   2.670
 2094HOH     H2 6469   2.321   1.502   2.723
 2095HOH      O 6470   2.402   0.056   3.144
 2095HOH     H1 6471   2.346   0.110   3.201
 2095HOH     H2 6472   2.349   0.042   3.065
 2096HOH      O 6473   3.058   0.563   2.665
 2096HOH     H1 6474   3.006   0.486   2.690
 2096HOH     H2 6475   3.149   0.538   2.684
 2097HOH      O 6476   2.729   3.683   1.869
 2097HOH     H1 6477   2.752   3.762   1.821
 2097HOH     H2 6478   2.786   3.614   1.832
 2098HOH      O 6479   0.650   2.260   1.181
 2098HOH     H1 6480   0.675   2.299   1.098
 2098HOH     H2 6481   0.713   2.189   1.194
 2099HOH      O 6482   3.170   1.411   1.463
 2099HOH     H1 6483   3.106   1.476   1.491
 2099HOH     H2 6484   3.206   1.447   1.382
 2100HOH      O 6485   0.971   3.948   2.040
 2100HOH     H1 6486   0.930   3.911   1.962
 2100HOH     H2 6487   1.028   3.878   2.072
 2101HOH      O 6488   1.567   3.968   0.223
 2101HOH     H1 6489   1.607   3.986   0.138
 2101HOH     H2 6490   1.477   3.945   0.203
 2102HOH      O 6491   1.362   2.476   3.869
 2102HOH     H1 6492   1.280   2.525   3.870
 2102HOH     H2 6493   1.360   2.427   3.787
 2103HOH      O 6494   1.529   3.194   1.544
 2103HOH     H1 6495   1.561   3.117   1.495
 2103HOH     H2 6496   1.556   3.178   1.634
 2104HOH      O 6497   2.671   3.365   2.116
 2104HOH     H1 6498   2.607   3.437   2.108
 2104HOH     H2 6499   2.668   3.321   2.031
 2105HOH      O 6500   1.914   2.766   2.584
 2105HOH     H1 6501   1.957   2.783   2.500
 2105HOH     H2 6502   1.986   2.770   2.648
 2106HOH      O 6503   0.733   0.966   0.124
 2106HOH     H1 6504   0.808   0.924   0.082
 2106HOH     H2 6505   0.658   0.912   0.098
 2107HOH      O 6506   3.747   3.543   2.655
 2107HOH     H1 6507   3.664   3.553   2.609
 2107HOH     H2 6508   3.746   3.453   2.687
 2108HOH      O 6509   0.710   2.941   0.330
 2108HOH     H1 6510   0.725   3.033   0.309
 2108HOH     H2 6511   0.688   2.940   0.423
 2109HOH      O 6512   3.378   2.751   0.147
 2109HOH     H1 6513   3.346   2.798   0.224
 2109HOH     H2 6514   3.473   2.753   0.156
 2110HOH      O 6515   0.291   0.544   1.988
 2110HOH     H1 6516   0.303   0.628   1.944
 2110HOH     H2 6517   0.255   0.567   2.074
 2111HOH      O 6518   1.292   1.510   1.988
 2111HOH     H1 6519   1.382   1.543   1.993
 2111HOH     H2 6520   1.302   1.416   1.976
   4.02731   4.02731   4.02731   0.00000   0.00000   0.00000   0.00000   0.00000   0.00000
