Generic title t= 72130.00000
 6520
    1MOL     C1    1   2.779   1.082   3.820
    1MOL     C2    2   2.880   1.145   3.748
    1MOL     C3    3   2.981   1.064   3.699
    1MOL     C4    4   2.978   0.927   3.719
    1MOL     C5    5   2.880   0.867   3.797
    1MOL     C6    6   2.779   0.947   3.849
    1MOL     C7    7   3.089   1.119   3.621
    1MOL     N1    8   3.171   1.160   3.553
    1MOL     C8    9   2.674   0.891   3.938
    1MOL     O1   10   2.579   0.961   3.967
    1MOL     O2   11   2.675   0.773   3.967
    1MOL     H1   12   2.697   1.147   3.851
    1MOL     H2   13   2.873   1.252   3.731
    1MOL     H3   14   3.053   0.860   3.679
    1MOL     H4   15   2.890   0.761   3.816
    2OCB     C1   16   3.355   1.359   3.705
    2OCB     C2   17   3.429   1.090   3.765
    2OCB     C3   18   3.432   1.281   3.619
    2OCB     C4   19   3.326   1.298   3.826
    2OCB     C5   20   3.354   1.165   3.854
    2OCB     C6   21   3.461   1.148   3.643
    2OCB     O1   22   3.464   0.960   3.793
    2OCB     C7   23   3.527   1.063   3.537
    2OCB     C8   24   3.373   0.861   3.742
    2OCB     O2   25   3.423   0.800   3.621
    2OCB     C9   26   3.382   0.854   3.501
    2OCB    C10   27   3.426   0.980   3.461
    2OCB    C11   28   3.363   1.037   3.352
    2OCB    C12   29   3.297   0.780   3.421
    2OCB    C13   30   3.259   0.975   3.285
    2OCB    C14   31   3.229   0.844   3.318
    2OCB     O3   32   3.120   0.777   3.268
    2OCB    C15   33   3.182   1.040   3.172
    2OCB    C16   34   3.057   1.110   3.222
    2OCB    C17   35   2.936   1.050   3.256
    2OCB    C18   36   2.997   0.822   3.329
    2OCB     O4   37   2.923   0.914   3.246
    2OCB     O5   38   3.252   1.359   3.924
    2OCB    C19   39   3.310   1.499   3.670
    2OCB    C20   40   3.167   1.505   3.622
    2OCB     O6   41   3.093   1.505   3.849
    2OCB    C21   42   3.066   1.517   3.716
    2OCB    C22   43   2.831   1.125   3.306
    2OCB    C23   44   2.841   1.263   3.311
    2OCB    C24   45   2.931   1.522   3.684
    2OCB    C25   46   2.900   1.503   3.550
    2OCB     O7   47   2.733   1.330   3.364
    2OCB     O8   48   2.766   1.480   3.526
    2OCB    C26   49   2.727   1.343   3.507
    2OCB    C27   50   3.130   1.489   3.489
    2OCB    C28   51   2.996   1.488   3.452
    2OCB    C29   52   3.066   1.249   3.227
    2OCB    C30   53   2.972   1.472   3.303
    2OCB    C31   54   2.960   1.324   3.274
    2OCB    C32   55   3.111   1.370   3.895
    2OCB    C33   56   3.270   1.122   3.077
    2OCB    C34   57   3.349   1.022   2.991
    2OCB    C35   58   3.425   1.090   2.880
    2OCB     O9   59   3.504   1.180   2.903
    2OCB    C36   60   3.624   1.139   3.445
    2OCB    C37   61   3.708   1.061   3.343
    2OCB    C38   62   3.814   0.986   3.419
    2OCB    O10   63   3.848   0.886   3.358
    2OCB    C39   64   3.411   1.579   3.587
    2OCB    C40   65   3.383   1.730   3.578
    2OCB    C41   66   3.508   1.813   3.597
    2OCB    O11   67   3.522   1.891   3.688
    2OCB    C42   68   3.053   1.557   3.205
    2OCB    C43   69   3.023   1.536   3.056
    2OCB    C44   70   3.056   1.658   2.974
    2OCB    O12   71   3.073   1.766   3.027
    2OCB    C45   72   3.331   0.757   3.844
    2OCB    C46   73   3.226   0.572   4.022
    2OCB    C47   74   3.285   0.634   3.801
    2OCB    C48   75   3.322   0.784   3.979
    2OCB    C49   76   3.257   0.699   4.068
    2OCB    C50   77   3.240   0.537   3.889
    2OCB    C51   78   3.028   1.349   4.020
    2OCB    C52   79   2.885   1.301   4.248
    2OCB    C53   80   2.905   1.411   4.036
    2OCB    C54   81   3.079   1.264   4.117
    2OCB    C55   82   3.005   1.234   4.231
    2OCB    C56   83   2.837   1.393   4.156
    2OCB    C57   84   2.585   1.311   3.550
    2OCB    C58   85   2.365   1.207   3.682
    2OCB    C59   86   2.504   1.218   3.487
    2OCB    C60   87   2.551   1.358   3.676
    2OCB    C61   88   2.439   1.307   3.742
    2OCB    C62   89   2.396   1.161   3.555
    2OCB    C63   90   2.898   0.711   3.360
    2OCB    C64   91   2.757   0.491   3.482
    2OCB    C65   92   2.779   0.730   3.428
    2OCB    C66   93   2.946   0.581   3.362
    2OCB    C67   94   2.878   0.473   3.417
    2OCB    C68   95   2.709   0.621   3.478
    2OCB    O13   96   3.027   1.134   4.323
    2OCB    O14   97   2.397   1.345   3.867
    2OCB    O15   98   2.322   1.056   3.506
    2OCB    O16   99   3.241   0.720   4.203
    2OCB    O17  100   3.208   0.408   3.853
    2OCB    O18  101   2.590   0.655   3.535
    2OCB    O19  102   2.942   0.356   3.451
    2OCB    C69  103   2.457   1.443   3.941
    2OCB    C70  104   2.625   1.628   4.052
    2OCB    C71  105   2.546   1.398   4.037
    2OCB    C72  106   2.445   1.578   3.911
    2OCB    C73  107   2.527   1.675   3.966
    2OCB    C74  108   2.625   1.496   4.095
    2OCB    O20  109   2.719   1.455   4.187
    2OCB    C75  110   3.236   0.846   4.256
    2OCB    C76  111   3.251   1.084   4.387
    2OCB    C77  112   3.350   0.881   4.327
    2OCB    C78  113   3.124   0.927   4.255
    2OCB    C79  114   3.136   1.051   4.316
    2OCB    C80  115   3.362   1.001   4.395
    2OCB    C81  116   2.371   0.938   3.455
    2OCB    C82  117   2.457   0.708   3.341
    2OCB    C83  118   2.328   0.907   3.327
    2OCB    C84  119   2.451   0.852   3.528
    2OCB    C85  120   2.499   0.735   3.470
    2OCB    C86  121   2.375   0.791   3.267
    2OCB    C87  122   2.335   0.764   3.126
    2OCB    O21  123   2.409   0.689   3.066
    2OCB    C88  124   3.402   0.268   3.430
    2OCB    O22  125   3.518   0.262   3.466
    2OCB    C89  126   3.486   1.050   4.460
    2OCB    O23  127   3.492   1.163   4.502
    2OCB    O24  128   3.401   1.057   2.766
    2OCB    O25  129   3.055   1.652   2.853
    2OCB    O26  130   3.579   1.829   3.500
    2OCB    C90  131   2.512   1.823   3.956
    2OCB    O27  132   2.418   1.872   3.897
    2OCB    O28  133   3.381   0.251   3.312
    2OCB    O29  134   2.252   0.834   3.071
    2OCB    O30  135   2.613   1.889   3.971
    2OCB    O31  136   3.592   0.990   4.450
    2OCB    O32  137   3.881   1.030   3.510
    2OCB    C91  138   3.182   0.367   3.725
    2OCB    C92  139   3.158   0.306   3.460
    2OCB    C93  140   3.056   0.386   3.669
    2OCB    C94  141   3.293   0.327   3.652
    2OCB    C95  142   3.285   0.300   3.516
    2OCB    C96  143   3.051   0.350   3.535
    2OCB    C97  144   2.938   0.438   3.747
    2OCB    C98  145   2.999   0.882   4.182
    2OCB    C99  146   2.557   1.258   4.093
    2OCB      C  147   2.486   0.887   3.671
    2OCB     H1  148   3.464   1.323   3.524
    2OCB     H2  149   3.330   1.125   3.952
    2OCB     H3  150   3.589   0.992   3.593
    2OCB     H4  151   3.280   0.909   3.708
    2OCB     H5  152   3.384   1.141   3.329
    2OCB     H6  153   3.278   0.677   3.451
    2OCB     H7  154   3.149   0.958   3.109
    2OCB     H8  155   3.027   0.874   3.421
    2OCB     H9  156   3.314   1.553   3.765
    2OCB    H10  157   2.735   1.081   3.334
    2OCB    H11  158   2.856   1.532   3.762
    2OCB    H12  159   2.805   1.276   3.546
    2OCB    H13  160   3.206   1.482   3.411
    2OCB    H14  161   3.158   1.305   3.219
    2OCB    H15  162   2.872   1.516   3.291
    2OCB    H16  163   3.078   1.297   3.820
    2OCB    H17  164   3.205   1.176   3.008
    2OCB    H18  165   3.335   1.196   3.125
    2OCB    H19  166   3.418   0.974   3.061
    2OCB    H20  167   3.283   0.946   2.949
    2OCB    H21  168   3.693   1.196   3.507
    2OCB    H22  169   3.570   1.214   3.387
    2OCB    H23  170   3.649   0.998   3.275
    2OCB    H24  171   3.752   1.136   3.276
    2OCB    H25  172   3.510   1.565   3.632
    2OCB    H26  173   3.413   1.541   3.485
    2OCB    H27  174   3.341   1.748   3.479
    2OCB    H28  175   3.305   1.769   3.644
    2OCB    H29  176   3.021   1.656   3.240
    2OCB    H30  177   3.161   1.543   3.217
    2OCB    H31  178   3.084   1.453   3.019
    2OCB    H32  179   2.920   1.502   3.047
    2OCB    H33  180   3.185   0.499   4.091
    2OCB    H34  181   3.279   0.617   3.694
    2OCB    H35  182   3.357   0.881   4.015
    2OCB    H36  183   2.824   1.284   4.336
    2OCB    H37  184   2.865   1.477   3.959
    2OCB    H38  185   3.173   1.211   4.105
    2OCB    H39  186   2.274   1.170   3.729
    2OCB    H40  187   2.531   1.185   3.388
    2OCB    H41  188   2.614   1.436   3.718
    2OCB    H42  189   2.711   0.407   3.534
    2OCB    H43  190   2.738   0.830   3.441
    2OCB    H44  191   3.047   0.556   3.331
    2OCB    H45  192   2.685   1.692   4.116
    2OCB    H46  193   2.368   1.615   3.843
    2OCB    H47  194   3.247   1.184   4.430
    2OCB    H48  195   3.436   0.814   4.325
    2OCB    H49  196   2.495   0.621   3.288
    2OCB    H50  197   2.264   0.978   3.275
    2OCB    H51  198   3.148   0.296   3.352
    2OCB    H52  199   3.389   0.317   3.701
    2OCB    H53  200   2.844   0.390   3.720
    2OCB    H54  201   2.953   0.416   3.853
    2OCB    H55  202   2.929   0.546   3.732
    2OCB    H56  203   2.908   0.929   4.219
    2OCB    H57  204   3.004   0.911   4.077
    2OCB    H58  205   2.983   0.774   4.180
    2OCB    H59  206   2.659   1.218   4.093
    2OCB    H60  207   2.525   1.259   4.197
    2OCB    H61  208   2.504   1.189   4.028
    2OCB    H62  209   2.532   0.805   3.727
    2OCB    H63  210   2.552   0.973   3.681
    2OCB    H64  211   2.393   0.917   3.720
    3Na+    Na+  212   0.147   1.760   1.737
    4Na+    Na+  213   2.451   3.885   0.716
    5Na+    Na+  214   3.370   0.963   1.640
    6Na+    Na+  215   2.673   3.594   0.678
    7Na+    Na+  216   0.274   1.604   3.771
    8Na+    Na+  217   3.718   1.992   3.628
    9Na+    Na+  218   2.212   2.451   3.042
   10Na+    Na+  219   0.939   0.142   0.486
   11Na+    Na+  220   3.426   1.225   2.616
   12WAT      O  221   1.565   3.702   1.075
   12WAT     H1  222   1.643   3.682   1.127
   12WAT     H2  223   1.516   3.620   1.073
   13WAT      O  224   3.397   0.516   3.201
   13WAT     H1  225   3.483   0.506   3.242
   13WAT     H2  226   3.347   0.439   3.229
   14WAT      O  227   3.720   0.646   2.269
   14WAT     H1  228   3.741   0.720   2.326
   14WAT     H2  229   3.758   0.570   2.312
   15WAT      O  230   0.041   3.431   1.945
   15WAT     H1  231  -0.007   3.348   1.950
   15WAT     H2  232   0.132   3.404   1.931
   16WAT      O  233   4.014   3.100   2.309
   16WAT     H1  234   3.943   3.151   2.270
   16WAT     H2  235   4.044   3.043   2.239
   17WAT      O  236   0.665   1.541   0.766
   17WAT     H1  237   0.629   1.485   0.835
   17WAT     H2  238   0.759   1.526   0.770
   18WAT      O  239   2.300   0.734   1.908
   18WAT     H1  240   2.236   0.790   1.952
   18WAT     H2  241   2.247   0.664   1.870
   19WAT      O  242   2.469   2.637   1.231
   19WAT     H1  243   2.524   2.617   1.307
   19WAT     H2  244   2.519   2.604   1.156
   20WAT      O  245   1.870   2.317   0.674
   20WAT     H1  246   1.826   2.378   0.614
   20WAT     H2  247   1.905   2.249   0.618
   21WAT      O  248   1.115   0.496   1.510
   21WAT     H1  249   1.067   0.562   1.460
   21WAT     H2  250   1.116   0.419   1.454
   22WAT      O  251   2.400   2.876   3.944
   22WAT     H1  252   2.369   2.814   3.877
   22WAT     H2  253   2.489   2.897   3.918
   23WAT      O  254   2.791   1.870   3.081
   23WAT     H1  255   2.885   1.860   3.064
   23WAT     H2  256   2.751   1.797   3.034
   24WAT      O  257   2.267   3.357   2.658
   24WAT     H1  258   2.249   3.271   2.696
   24WAT     H2  259   2.358   3.351   2.627
   25WAT      O  260   1.703   1.210   2.946
   25WAT     H1  261   1.693   1.160   3.027
   25WAT     H2  262   1.614   1.211   2.909
   26WAT      O  263   1.929   1.956   1.553
   26WAT     H1  264   1.979   1.955   1.635
   26WAT     H2  265   1.846   1.997   1.577
   27WAT      O  266   1.035   1.804   3.574
   27WAT     H1  267   1.064   1.713   3.568
   27WAT     H2  268   1.115   1.856   3.578
   28WAT      O  269   1.739   4.020   2.028
   28WAT     H1  270   1.754   3.944   2.084
   28WAT     H2  271   1.672   4.071   2.074
   29WAT      O  272   2.910   2.463   2.857
   29WAT     H1  273   2.914   2.552   2.891
   29WAT     H2  274   2.987   2.419   2.893
   30WAT      O  275   1.133   2.612   2.537
   30WAT     H1  276   1.184   2.575   2.609
   30WAT     H2  277   1.156   2.705   2.536
   31WAT      O  278   0.608   0.550   2.922
   31WAT     H1  279   0.569   0.523   3.005
   31WAT     H2  280   0.653   0.472   2.890
   32WAT      O  281   2.099   0.636   2.526
   32WAT     H1  282   2.084   0.642   2.620
   32WAT     H2  283   2.101   0.727   2.496
   33WAT      O  284   0.636   2.632   2.236
   33WAT     H1  285   0.641   2.703   2.173
   33WAT     H2  286   0.726   2.598   2.241
   34WAT      O  287   0.124   0.777   0.207
   34WAT     H1  288   0.126   0.694   0.254
   34WAT     H2  289   0.129   0.844   0.275
   35WAT      O  290   0.201   2.879   1.202
   35WAT     H1  291   0.180   2.960   1.247
   35WAT     H2  292   0.259   2.833   1.263
   36WAT      O  293   2.739   1.667   2.661
   36WAT     H1  294   2.702   1.676   2.749
   36WAT     H2  295   2.701   1.585   2.628
   37WAT      O  296   1.904   1.445   2.576
   37WAT     H1  297   1.845   1.442   2.651
   37WAT     H2  298   1.855   1.404   2.505
   38WAT      O  299   2.953   2.193   0.079
   38WAT     H1  300   2.994   2.143   0.008
   38WAT     H2  301   2.867   2.151   0.091
   39WAT      O  302   3.821   0.178   2.951
   39WAT     H1  303   3.907   0.167   2.992
   39WAT     H2  304   3.804   0.272   2.956
   40WAT      O  305   2.313   2.320   0.462
   40WAT     H1  306   2.251   2.264   0.415
   40WAT     H2  307   2.261   2.359   0.532
   41WAT      O  308   0.288   2.324   4.005
   41WAT     H1  309   0.262   2.236   4.032
   41WAT     H2  310   0.380   2.331   4.030
   42WAT      O  311   3.613   0.189   0.925
   42WAT     H1  312   3.541   0.186   0.989
   42WAT     H2  313   3.639   0.098   0.913
   43WAT      O  314   0.756   3.879   1.210
   43WAT     H1  315   0.679   3.914   1.165
   43WAT     H2  316   0.727   3.861   1.299
   44WAT      O  317   4.007   3.986   1.034
   44WAT     H1  318   4.093   3.966   1.071
   44WAT     H2  319   4.023   4.057   0.972
   45WAT      O  320   0.052   3.428   2.843
   45WAT     H1  321   0.021   3.518   2.848
   45WAT     H2  322   0.060   3.411   2.749
   46WAT      O  323   0.143   2.190   1.774
   46WAT     H1  324   0.076   2.217   1.837
   46WAT     H2  325   0.118   2.235   1.693
   47WAT      O  326   1.012   0.430   3.779
   47WAT     H1  327   1.054   0.413   3.695
   47WAT     H2  328   1.076   0.403   3.844
   48WAT      O  329   2.100   1.830   2.669
   48WAT     H1  330   2.195   1.843   2.665
   48WAT     H2  331   2.088   1.741   2.702
   49WAT      O  332   1.034   2.442   2.916
   49WAT     H1  333   1.027   2.522   2.865
   49WAT     H2  334   1.106   2.458   2.977
   50WAT      O  335   2.625   3.684   3.958
   50WAT     H1  336   2.675   3.691   4.039
   50WAT     H2  337   2.669   3.614   3.909
   51WAT      O  338   2.271   2.638   1.437
   51WAT     H1  339   2.346   2.654   1.379
   51WAT     H2  340   2.310   2.631   1.525
   52WAT      O  341   3.262   0.391   1.235
   52WAT     H1  342   3.215   0.460   1.189
   52WAT     H2  343   3.194   0.338   1.276
   53WAT      O  344   2.131   3.528   2.819
   53WAT     H1  345   2.181   3.460   2.773
   53WAT     H2  346   2.082   3.572   2.749
   54WAT      O  347   2.184   0.598   3.911
   54WAT     H1  348   2.178   0.657   3.986
   54WAT     H2  349   2.271   0.615   3.875
   55WAT      O  350   1.395   0.517   2.674
   55WAT     H1  351   1.408   0.560   2.758
   55WAT     H2  352   1.472   0.541   2.623
   56WAT      O  353   2.551   3.577   0.489
   56WAT     H1  354   2.464   3.573   0.450
   56WAT     H2  355   2.608   3.535   0.424
   57WAT      O  356   0.583   0.235   0.498
   57WAT     H1  357   0.654   0.229   0.434
   57WAT     H2  358   0.624   0.268   0.577
   58WAT      O  359   0.813   1.212   2.140
   58WAT     H1  360   0.806   1.181   2.050
   58WAT     H2  361   0.813   1.133   2.194
   59WAT      O  362   2.492   1.114   1.868
   59WAT     H1  363   2.471   1.199   1.907
   59WAT     H2  364   2.477   1.050   1.937
   60WAT      O  365   0.375   2.695   0.600
   60WAT     H1  366   0.363   2.745   0.519
   60WAT     H2  367   0.372   2.603   0.571
   61WAT      O  368   1.820   1.708   0.430
   61WAT     H1  369   1.906   1.746   0.446
   61WAT     H2  370   1.832   1.614   0.444
   62WAT      O  371   4.009   3.145   0.402
   62WAT     H1  372   3.924   3.186   0.389
   62WAT     H2  373   4.072   3.209   0.371
   63WAT      O  374   0.172   3.285   0.693
   63WAT     H1  375   0.143   3.338   0.768
   63WAT     H2  376   0.131   3.326   0.617
   64WAT      O  377   2.826   3.904   1.873
   64WAT     H1  378   2.794   3.994   1.865
   64WAT     H2  379   2.811   3.866   1.786
   65WAT      O  380   3.092   0.188   1.584
   65WAT     H1  381   3.058   0.257   1.642
   65WAT     H2  382   3.132   0.125   1.644
   66WAT      O  383   2.738   2.148   1.259
   66WAT     H1  384   2.677   2.075   1.252
   66WAT     H2  385   2.690   2.222   1.221
   67WAT      O  386   3.647   3.529   1.306
   67WAT     H1  387   3.704   3.485   1.369
   67WAT     H2  388   3.639   3.618   1.340
   68WAT      O  389   2.526   1.876   0.367
   68WAT     H1  390   2.562   1.942   0.426
   68WAT     H2  391   2.468   1.924   0.309
   69WAT      O  392   2.636   3.587   1.397
   69WAT     H1  393   2.609   3.676   1.419
   69WAT     H2  394   2.559   3.549   1.356
   70WAT      O  395   0.059   0.411   0.363
   70WAT     H1  396   0.076   0.329   0.410
   70WAT     H2  397  -0.028   0.437   0.392
   71WAT      O  398   0.191   1.845   0.807
   71WAT     H1  399   0.205   1.906   0.880
   71WAT     H2  400   0.201   1.898   0.728
   72WAT      O  401   0.077   2.840   0.722
   72WAT     H1  402   0.095   2.819   0.630
   72WAT     H2  403   0.083   2.756   0.767
   73WAT      O  404   0.512   3.294   0.589
   73WAT     H1  405   0.528   3.201   0.598
   73WAT     H2  406   0.486   3.306   0.498
   74WAT      O  407   3.023   3.244   1.392
   74WAT     H1  408   2.993   3.252   1.301
   74WAT     H2  409   2.999   3.327   1.433
   75WAT      O  410   3.830   2.893   2.848
   75WAT     H1  411   3.889   2.869   2.919
   75WAT     H2  412   3.887   2.910   2.774
   76WAT      O  413   2.774   3.100   0.320
   76WAT     H1  414   2.799   3.008   0.328
   76WAT     H2  415   2.679   3.098   0.308
   77WAT      O  416   0.143   3.822   2.200
   77WAT     H1  417   0.218   3.880   2.208
   77WAT     H2  418   0.103   3.822   2.287
   78WAT      O  419   3.312   3.989   1.768
   78WAT     H1  420   3.405   4.013   1.768
   78WAT     H2  421   3.297   3.952   1.681
   79WAT      O  422   0.698   2.437   3.226
   79WAT     H1  423   0.696   2.442   3.321
   79WAT     H2  424   0.606   2.426   3.200
   80WAT      O  425   0.925   3.536   2.929
   80WAT     H1  426   0.913   3.465   2.993
   80WAT     H2  427   0.841   3.582   2.929
   81WAT      O  428   3.833   1.794   2.764
   81WAT     H1  429   3.896   1.862   2.786
   81WAT     H2  430   3.766   1.800   2.831
   82WAT      O  431   1.161   3.477   0.905
   82WAT     H1  432   1.152   3.564   0.866
   82WAT     H2  433   1.092   3.425   0.862
   83WAT      O  434   2.763   2.479   2.284
   83WAT     H1  435   2.798   2.405   2.234
   83WAT     H2  436   2.749   2.547   2.218
   84WAT      O  437   1.052   1.841   2.488
   84WAT     H1  438   0.963   1.812   2.509
   84WAT     H2  439   1.049   1.861   2.394
   85WAT      O  440   1.656   1.943   2.478
   85WAT     H1  441   1.722   1.879   2.508
   85WAT     H2  442   1.634   1.992   2.557
   86WAT      O  443   2.814   2.303   1.863
   86WAT     H1  444   2.862   2.290   1.945
   86WAT     H2  445   2.765   2.221   1.851
   87WAT      O  446   3.664   0.612   0.072
   87WAT     H1  447   3.646   0.686   0.130
   87WAT     H2  448   3.621   0.635  -0.010
   88WAT      O  449   0.781   0.569   3.889
   88WAT     H1  450   0.849   0.513   3.853
   88WAT     H2  451   0.700   0.537   3.848
   89WAT      O  452   3.139   2.115   2.611
   89WAT     H1  453   3.064   2.057   2.623
   89WAT     H2  454   3.214   2.055   2.605
   90WAT      O  455   0.049   2.663   1.481
   90WAT     H1  456  -0.015   2.594   1.499
   90WAT     H2  457   0.070   2.652   1.388
   91WAT      O  458   3.556   1.682   2.443
   91WAT     H1  459   3.533   1.698   2.535
   91WAT     H2  460   3.650   1.665   2.444
   92WAT      O  461   0.605   0.539   2.576
   92WAT     H1  462   0.529   0.529   2.634
   92WAT     H2  463   0.654   0.612   2.613
   93WAT      O  464   1.233   1.993   3.205
   93WAT     H1  465   1.141   2.013   3.221
   93WAT     H2  466   1.263   1.948   3.284
   94WAT      O  467   2.765   1.214   1.427
   94WAT     H1  468   2.767   1.119   1.418
   94WAT     H2  469   2.677   1.234   1.458
   95WAT      O  470   1.602   2.122   3.798
   95WAT     H1  471   1.624   2.213   3.818
   95WAT     H2  472   1.687   2.078   3.792
   96WAT      O  473   2.188   3.953   2.946
   96WAT     H1  474   2.212   4.009   2.872
   96WAT     H2  475   2.262   3.960   3.006
   97WAT      O  476   1.495   0.654   0.665
   97WAT     H1  477   1.465   0.717   0.731
   97WAT     H2  478   1.588   0.674   0.655
   98WAT      O  479   0.633   3.109   1.035
   98WAT     H1  480   0.719   3.070   1.019
   98WAT     H2  481   0.571   3.043   1.005
   99WAT      O  482   0.257   3.017   0.117
   99WAT     H1  483   0.315   3.080   0.160
   99WAT     H2  484   0.313   2.941   0.099
  100WAT      O  485   4.018   1.983   2.779
  100WAT     H1  486   4.091   2.000   2.839
  100WAT     H2  487   3.978   2.068   2.765
  101WAT      O  488   2.400   3.862   3.397
  101WAT     H1  489   2.469   3.805   3.362
  101WAT     H2  490   2.436   3.897   3.478
  102WAT      O  491   3.299   2.595   2.077
  102WAT     H1  492   3.256   2.511   2.093
  102WAT     H2  493   3.354   2.609   2.154
  103WAT      O  494   1.623   0.509   2.505
  103WAT     H1  495   1.562   0.512   2.432
  103WAT     H2  496   1.697   0.564   2.477
  104WAT      O  497   0.514   2.264   0.120
  104WAT     H1  498   0.493   2.180   0.162
  104WAT     H2  499   0.609   2.271   0.129
  105WAT      O  500   3.669   2.939   0.209
  105WAT     H1  501   3.600   2.893   0.255
  105WAT     H2  502   3.737   2.872   0.196
  106WAT      O  503   3.986   3.909   1.537
  106WAT     H1  504   3.970   3.956   1.618
  106WAT     H2  505   4.078   3.884   1.541
  107WAT      O  506   0.299   3.971   0.160
  107WAT     H1  507   0.306   3.896   0.219
  107WAT     H2  508   0.368   4.031   0.189
  108WAT      O  509   1.544   2.572   1.964
  108WAT     H1  510   1.625   2.555   2.011
  108WAT     H2  511   1.531   2.667   1.972
  109WAT      O  512   1.255   2.961   3.302
  109WAT     H1  513   1.178   2.911   3.274
  109WAT     H2  514   1.220   3.043   3.335
  110WAT      O  515   3.433   1.335   1.374
  110WAT     H1  516   3.375   1.392   1.323
  110WAT     H2  517   3.519   1.345   1.331
  111WAT      O  518   1.276   0.433   0.245
  111WAT     H1  519   1.265   0.497   0.175
  111WAT     H2  520   1.299   0.485   0.322
  112WAT      O  521   0.084   2.772   3.668
  112WAT     H1  522   0.061   2.835   3.600
  112WAT     H2  523   0.127   2.824   3.736
  113WAT      O  524   2.613   2.716   0.582
  113WAT     H1  525   2.526   2.675   0.584
  113WAT     H2  526   2.644   2.701   0.493
  114WAT      O  527   3.532   0.965   1.791
  114WAT     H1  528   3.627   0.954   1.789
  114WAT     H2  529   3.507   0.940   1.880
  115WAT      O  530   2.770   0.957   0.751
  115WAT     H1  531   2.688   0.910   0.764
  115WAT     H2  532   2.836   0.900   0.790
  116WAT      O  533   3.493   2.364   0.724
  116WAT     H1  534   3.459   2.351   0.635
  116WAT     H2  535   3.583   2.333   0.719
  117WAT      O  536   3.367   3.841   1.165
  117WAT     H1  537   3.286   3.816   1.120
  117WAT     H2  538   3.405   3.910   1.110
  118WAT      O  539   2.795   2.405   3.512
  118WAT     H1  540   2.834   2.332   3.464
  118WAT     H2  541   2.758   2.365   3.591
  119WAT      O  542   1.394   0.782   0.889
  119WAT     H1  543   1.422   0.863   0.931
  119WAT     H2  544   1.399   0.716   0.958
  120WAT      O  545   0.129   3.378   1.634
  120WAT     H1  546   0.180   3.382   1.715
  120WAT     H2  547   0.114   3.284   1.620
  121WAT      O  548   2.874   1.437   1.192
  121WAT     H1  549   2.890   1.362   1.135
  121WAT     H2  550   2.934   1.505   1.159
  122WAT      O  551   1.219   1.740   0.145
  122WAT     H1  552   1.304   1.725   0.104
  122WAT     H2  553   1.236   1.805   0.213
  123WAT      O  554   1.789   3.662   1.260
  123WAT     H1  555   1.844   3.627   1.190
  123WAT     H2  556   1.826   3.626   1.340
  124WAT      O  557   0.316   3.392   0.995
  124WAT     H1  558   0.237   3.414   0.946
  124WAT     H2  559   0.319   3.296   0.994
  125WAT      O  560   1.851   3.992   2.555
  125WAT     H1  561   1.912   4.051   2.510
  125WAT     H2  562   1.857   3.910   2.506
  126WAT      O  563   2.711   2.975   3.580
  126WAT     H1  564   2.621   3.001   3.559
  126WAT     H2  565   2.730   2.905   3.518
  127WAT      O  566   1.589   3.454   3.490
  127WAT     H1  567   1.635   3.480   3.570
  127WAT     H2  568   1.540   3.376   3.514
  128WAT      O  569   0.864   0.148   2.283
  128WAT     H1  570   0.858   0.159   2.378
  128WAT     H2  571   0.807   0.074   2.264
  129WAT      O  572   2.426   1.087   0.811
  129WAT     H1  573   2.349   1.035   0.785
  129WAT     H2  574   2.490   1.021   0.839
  130WAT      O  575   2.566   2.302   0.148
  130WAT     H1  576   2.615   2.224   0.120
  130WAT     H2  577   2.591   2.313   0.240
  131WAT      O  578   2.113   0.934   2.022
  131WAT     H1  579   2.116   0.939   2.118
  131WAT     H2  580   2.095   1.024   1.994
  132WAT      O  581   0.678   0.990   1.572
  132WAT     H1  582   0.702   1.068   1.622
  132WAT     H2  583   0.706   1.009   1.483
  133WAT      O  584   3.215   3.544   3.271
  133WAT     H1  585   3.250   3.630   3.297
  133WAT     H2  586   3.167   3.561   3.190
  134WAT      O  587   1.614   1.769   3.034
  134WAT     H1  588   1.613   1.682   3.073
  134WAT     H2  589   1.543   1.767   2.970
  135WAT      O  590   2.951   2.334   2.119
  135WAT     H1  591   2.987   2.246   2.126
  135WAT     H2  592   3.023   2.386   2.084
  136WAT      O  593   0.397   1.144   0.721
  136WAT     H1  594   0.479   1.095   0.720
  136WAT     H2  595   0.362   1.131   0.808
  137WAT      O  596   2.108   3.063   3.426
  137WAT     H1  597   2.130   2.982   3.472
  137WAT     H2  598   2.115   3.131   3.493
  138WAT      O  599   0.494   0.630   3.754
  138WAT     H1  600   0.493   0.535   3.757
  138WAT     H2  601   0.418   0.654   3.701
  139WAT      O  602   1.075   2.219   0.442
  139WAT     H1  603   1.018   2.169   0.500
  139WAT     H2  604   1.019   2.289   0.407
  140WAT      O  605   2.371   2.407   3.214
  140WAT     H1  606   2.443   2.468   3.233
  140WAT     H2  607   2.409   2.320   3.228
  141WAT      O  608   2.380   3.255   1.546
  141WAT     H1  609   2.332   3.291   1.471
  141WAT     H2  610   2.466   3.232   1.511
  142WAT      O  611   0.755   0.780   2.737
  142WAT     H1  612   0.794   0.841   2.675
  142WAT     H2  613   0.700   0.835   2.793
  143WAT      O  614   1.324   1.386   0.576
  143WAT     H1  615   1.412   1.422   0.570
  143WAT     H2  616   1.270   1.459   0.607
  144WAT      O  617   1.535   3.302   0.408
  144WAT     H1  618   1.486   3.299   0.326
  144WAT     H2  619   1.580   3.217   0.412
  145WAT      O  620   2.587   1.319   0.969
  145WAT     H1  621   2.520   1.300   1.034
  145WAT     H2  622   2.598   1.414   0.974
  146WAT      O  623   3.860   0.985   2.733
  146WAT     H1  624   3.812   0.929   2.793
  146WAT     H2  625   3.947   0.946   2.727
  147WAT      O  626   4.004   2.088   2.202
  147WAT     H1  627   4.060   2.107   2.127
  147WAT     H2  628   4.056   2.114   2.278
  148WAT      O  629   0.845   1.966   2.020
  148WAT     H1  630   0.833   1.883   1.973
  148WAT     H2  631   0.758   2.006   2.018
  149WAT      O  632   0.381   2.710   3.906
  149WAT     H1  633   0.444   2.669   3.966
  149WAT     H2  634   0.297   2.674   3.933
  150WAT      O  635   2.750   3.651   2.495
  150WAT     H1  636   2.834   3.605   2.499
  150WAT     H2  637   2.710   3.635   2.581
  151WAT      O  638   0.286   3.685   2.708
  151WAT     H1  639   0.289   3.766   2.658
  151WAT     H2  640   0.209   3.639   2.676
  152WAT      O  641   1.416   1.503   0.194
  152WAT     H1  642   1.458   1.575   0.148
  152WAT     H2  643   1.405   1.435   0.127
  153WAT      O  644   1.614   2.766   2.283
  153WAT     H1  645   1.644   2.685   2.325
  153WAT     H2  646   1.519   2.757   2.280
  154WAT      O  647   1.903   3.169   1.413
  154WAT     H1  648   1.902   3.082   1.454
  154WAT     H2  649   1.898   3.151   1.319
  155WAT      O  650   0.984   2.320   3.193
  155WAT     H1  651   1.047   2.389   3.177
  155WAT     H2  652   0.967   2.324   3.288
  156WAT      O  653   3.556   2.671   0.985
  156WAT     H1  654   3.548   2.693   1.078
  156WAT     H2  655   3.559   2.576   0.983
  157WAT      O  656   3.457   2.742   0.716
  157WAT     H1  657   3.482   2.742   0.808
  157WAT     H2  658   3.485   2.828   0.684
  158WAT      O  659   1.165   2.212   3.437
  158WAT     H1  660   1.204   2.137   3.482
  158WAT     H2  661   1.073   2.212   3.466
  159WAT      O  662   1.020   3.557   3.582
  159WAT     H1  663   0.991   3.503   3.656
  159WAT     H2  664   0.996   3.646   3.607
  160WAT      O  665   0.147   1.375   1.281
  160WAT     H1  666   0.090   1.451   1.289
  160WAT     H2  667   0.224   1.397   1.334
  161WAT      O  668   1.644   2.364   0.854
  161WAT     H1  669   1.705   2.425   0.895
  161WAT     H2  670   1.690   2.333   0.776
  162WAT      O  671   0.328   0.945   2.798
  162WAT     H1  672   0.366   0.896   2.871
  162WAT     H2  673   0.314   1.033   2.833
  163WAT      O  674   3.641   3.989   1.384
  163WAT     H1  675   3.658   3.914   1.442
  163WAT     H2  676   3.635   3.950   1.297
  164WAT      O  677   2.134   0.387   3.513
  164WAT     H1  678   2.127   0.292   3.525
  164WAT     H2  679   2.211   0.398   3.456
  165WAT      O  680   3.777   1.151   2.999
  165WAT     H1  681   3.686   1.142   2.969
  165WAT     H2  682   3.787   1.243   3.020
  166WAT      O  683   2.235   1.738   1.875
  166WAT     H1  684   2.329   1.749   1.862
  166WAT     H2  685   2.227   1.712   1.967
  167WAT      O  686   0.299   2.591   3.658
  167WAT     H1  687   0.208   2.565   3.647
  167WAT     H2  688   0.301   2.637   3.743
  168WAT      O  689   0.881   2.426   0.738
  168WAT     H1  690   0.907   2.339   0.707
  168WAT     H2  691   0.828   2.462   0.668
  169WAT      O  692   0.102   2.387   1.255
  169WAT     H1  693   0.047   2.322   1.211
  169WAT     H2  694   0.074   2.471   1.221
  170WAT      O  695   0.900   1.712   3.219
  170WAT     H1  696   0.953   1.720   3.140
  170WAT     H2  697   0.896   1.802   3.254
  171WAT      O  698   0.498   2.226   2.222
  171WAT     H1  699   0.517   2.319   2.227
  171WAT     H2  700   0.564   2.185   2.278
  172WAT      O  701   2.197   2.007   3.078
  172WAT     H1  702   2.281   1.964   3.059
  172WAT     H2  703   2.137   1.935   3.096
  173WAT      O  704   3.365   2.704   2.958
  173WAT     H1  705   3.319   2.703   3.041
  173WAT     H2  706   3.416   2.785   2.960
  174WAT      O  707   0.277   2.676   0.243
  174WAT     H1  708   0.280   2.615   0.169
  174WAT     H2  709   0.190   2.715   0.239
  175WAT      O  710   3.532   2.286   1.964
  175WAT     H1  711   3.598   2.251   2.024
  175WAT     H2  712   3.571   2.366   1.929
  176WAT      O  713   1.089   0.694   1.051
  176WAT     H1  714   1.146   0.727   1.120
  176WAT     H2  715   1.090   0.763   0.984
  177WAT      O  716   1.844   0.202   0.348
  177WAT     H1  717   1.887   0.117   0.349
  177WAT     H2  718   1.839   0.225   0.255
  178WAT      O  719   0.380   3.219   1.270
  178WAT     H1  720   0.327   3.168   1.331
  178WAT     H2  721   0.340   3.201   1.184
  179WAT      O  722   1.872   0.179   3.054
  179WAT     H1  723   1.794   0.156   3.005
  179WAT     H2  724   1.923   0.098   3.058
  180WAT      O  725   2.258   2.634   0.237
  180WAT     H1  726   2.294   2.617   0.150
  180WAT     H2  727   2.172   2.592   0.236
  181WAT      O  728   2.201   1.607   3.127
  181WAT     H1  729   2.228   1.567   3.210
  181WAT     H2  730   2.152   1.685   3.153
  182WAT      O  731   2.354   2.120   0.737
  182WAT     H1  732   2.376   2.198   0.788
  182WAT     H2  733   2.325   2.057   0.802
  183WAT      O  734   0.366   3.776   0.314
  183WAT     H1  735   0.431   3.712   0.345
  183WAT     H2  736   0.287   3.723   0.298
  184WAT      O  737   2.563   3.153   0.962
  184WAT     H1  738   2.489   3.210   0.940
  184WAT     H2  739   2.554   3.078   0.903
  185WAT      O  740   1.294   0.400   3.099
  185WAT     H1  741   1.377   0.429   3.137
  185WAT     H2  742   1.312   0.310   3.071
  186WAT      O  743   3.369   0.309   1.785
  186WAT     H1  744   3.435   0.272   1.844
  186WAT     H2  745   3.421   0.348   1.715
  187WAT      O  746   0.212   1.944   1.923
  187WAT     H1  747   0.220   2.024   1.870
  187WAT     H2  748   0.158   1.969   1.997
  188WAT      O  749   0.094   1.558   2.765
  188WAT     H1  750   0.084   1.624   2.834
  188WAT     H2  751   0.016   1.504   2.773
  189WAT      O  752   2.998   1.837   3.437
  189WAT     H1  753   2.905   1.822   3.449
  189WAT     H2  754   3.034   1.750   3.419
  190WAT      O  755   2.672   3.806   0.315
  190WAT     H1  756   2.595   3.758   0.347
  190WAT     H2  757   2.637   3.865   0.248
  191WAT      O  758   3.460   0.276   2.938
  191WAT     H1  759   3.555   0.290   2.934
  191WAT     H2  760   3.423   0.354   2.896
  192WAT      O  761   2.179   1.890   4.008
  192WAT     H1  762   2.267   1.899   3.972
  192WAT     H2  763   2.130   1.963   3.971
  193WAT      O  764   3.917   3.543   3.304
  193WAT     H1  765   3.879   3.603   3.240
  193WAT     H2  766   3.946   3.468   3.252
  194WAT      O  767   0.061   3.088   0.868
  194WAT     H1  768   0.081   3.142   0.792
  194WAT     H2  769   0.077   2.999   0.839
  195WAT      O  770   3.416   2.984   2.737
  195WAT     H1  771   3.345   2.929   2.703
  195WAT     H2  772   3.372   3.043   2.799
  196WAT      O  773   0.760   1.854   0.190
  196WAT     H1  774   0.790   1.787   0.128
  196WAT     H2  775   0.801   1.830   0.273
  197WAT      O  776   3.952   0.345   3.231
  197WAT     H1  777   3.857   0.343   3.239
  197WAT     H2  778   3.980   0.256   3.256
  198WAT      O  779   2.296   2.307   0.140
  198WAT     H1  780   2.387   2.326   0.160
  198WAT     H2  781   2.264   2.386   0.095
  199WAT      O  782   0.404   1.312   2.128
  199WAT     H1  783   0.444   1.296   2.214
  199WAT     H2  784   0.452   1.387   2.093
  200WAT      O  785   0.300   1.095   0.979
  200WAT     H1  786   0.249   1.168   1.012
  200WAT     H2  787   0.360   1.073   1.050
  201WAT      O  788   2.479   1.415   1.910
  201WAT     H1  789   2.574   1.402   1.919
  201WAT     H2  790   2.450   1.439   1.998
  202WAT      O  791   0.006   0.118   1.365
  202WAT     H1  792   0.086   0.106   1.313
  202WAT     H2  793   0.000   0.040   1.419
  203WAT      O  794   0.052   2.599   0.874
  203WAT     H1  795   0.027   2.523   0.821
  203WAT     H2  796  -0.003   2.592   0.952
  204WAT      O  797   2.094   0.996   1.562
  204WAT     H1  798   2.024   0.958   1.615
  204WAT     H2  799   2.175   0.964   1.602
  205WAT      O  800   3.330   1.578   0.082
  205WAT     H1  801   3.412   1.575   0.131
  205WAT     H2  802   3.301   1.486   0.079
  206WAT      O  803   3.052   0.088   3.255
  206WAT     H1  804   3.068   0.118   3.344
  206WAT     H2  805   2.986   0.019   3.264
  207WAT      O  806   1.328   2.788   3.483
  207WAT     H1  807   1.296   2.852   3.420
  207WAT     H2  808   1.272   2.711   3.471
  208WAT      O  809   0.029   1.823   3.289
  208WAT     H1  810   0.040   1.908   3.247
  208WAT     H2  811  -0.065   1.812   3.299
  209WAT      O  812   3.845   0.090   0.300
  209WAT     H1  813   3.914   0.026   0.318
  209WAT     H2  814   3.881   0.144   0.230
  210WAT      O  815   3.159   0.877   1.236
  210WAT     H1  816   3.116   0.810   1.289
  210WAT     H2  817   3.120   0.959   1.264
  211WAT      O  818   3.497   3.397   0.787
  211WAT     H1  819   3.476   3.363   0.874
  211WAT     H2  820   3.447   3.478   0.780
  212WAT      O  821   3.481   3.031   2.218
  212WAT     H1  822   3.392   3.066   2.214
  212WAT     H2  823   3.508   3.045   2.308
  213WAT      O  824   2.510   3.935   0.949
  213WAT     H1  825   2.601   3.960   0.966
  213WAT     H2  826   2.479   3.899   1.032
  214WAT      O  827   2.702   2.708   3.720
  214WAT     H1  828   2.731   2.652   3.649
  214WAT     H2  829   2.777   2.765   3.739
  215WAT      O  830   0.049   0.634   2.044
  215WAT     H1  831  -0.035   0.679   2.030
  215WAT     H2  832   0.099   0.694   2.099
  216WAT      O  833   2.921   3.138   0.653
  216WAT     H1  834   2.969   3.205   0.606
  216WAT     H2  835   2.977   3.060   0.648
  217WAT      O  836   1.486   0.312   0.934
  217WAT     H1  837   1.491   0.336   0.842
  217WAT     H2  838   1.438   0.229   0.934
  218WAT      O  839   0.588   0.520   1.444
  218WAT     H1  840   0.660   0.476   1.399
  218WAT     H2  841   0.574   0.601   1.394
  219WAT      O  842   0.499   3.831   0.043
  219WAT     H1  843   0.422   3.855   0.094
  219WAT     H2  844   0.490   3.879  -0.039
  220WAT      O  845   3.044   1.150   1.269
  220WAT     H1  846   3.082   1.198   1.195
  220WAT     H2  847   3.034   1.216   1.338
  221WAT      O  848   0.170   1.960   1.609
  221WAT     H1  849   0.187   1.957   1.515
  221WAT     H2  850   0.153   2.052   1.628
  222WAT      O  851   1.264   1.954   1.459
  222WAT     H1  852   1.215   2.035   1.449
  222WAT     H2  853   1.349   1.972   1.418
  223WAT      O  854   2.467   0.470   2.605
  223WAT     H1  855   2.432   0.529   2.671
  223WAT     H2  856   2.414   0.485   2.527
  224WAT      O  857   1.932   3.685   3.641
  224WAT     H1  858   1.870   3.743   3.597
  224WAT     H2  859   1.944   3.723   3.728
  225WAT      O  860   2.655   1.670   2.931
  225WAT     H1  861   2.679   1.590   2.979
  225WAT     H2  862   2.563   1.658   2.909
  226WAT      O  863   2.984   2.851   3.706
  226WAT     H1  864   3.031   2.931   3.684
  226WAT     H2  865   3.027   2.782   3.656
  227WAT      O  866   3.468   0.873   1.440
  227WAT     H1  867   3.534   0.916   1.385
  227WAT     H2  868   3.465   0.783   1.407
  228WAT      O  869   3.014   3.210   1.864
  228WAT     H1  870   2.938   3.193   1.808
  228WAT     H2  871   2.981   3.199   1.953
  229WAT      O  872   2.683   0.662   2.554
  229WAT     H1  873   2.724   0.638   2.471
  229WAT     H2  874   2.621   0.591   2.572
  230WAT      O  875   0.708   3.689   0.627
  230WAT     H1  876   0.763   3.627   0.675
  230WAT     H2  877   0.682   3.642   0.548
  231WAT      O  878   0.926   3.050   1.248
  231WAT     H1  879   0.840   3.060   1.289
  231WAT     H2  880   0.908   3.052   1.154
  232WAT      O  881   2.299   0.081   3.398
  232WAT     H1  882   2.305   0.106   3.490
  232WAT     H2  883   2.331  -0.009   3.395
  233WAT      O  884   2.683   1.969   3.545
  233WAT     H1  885   2.671   2.009   3.631
  233WAT     H2  886   2.596   1.971   3.505
  234WAT      O  887   0.073   1.882   3.642
  234WAT     H1  888  -0.012   1.895   3.599
  234WAT     H2  889   0.125   1.957   3.615
  235WAT      O  890   1.864   3.571   2.845
  235WAT     H1  891   1.842   3.622   2.924
  235WAT     H2  892   1.933   3.511   2.874
  236WAT      O  893   0.121   1.426   3.240
  236WAT     H1  894   0.122   1.349   3.297
  236WAT     H2  895   0.202   1.473   3.262
  237WAT      O  896   1.909   1.987   2.822
  237WAT     H1  897   1.995   1.962   2.788
  237WAT     H2  898   1.866   1.904   2.844
  238WAT      O  899   1.620   1.411   3.950
  238WAT     H1  900   1.666   1.336   3.913
  238WAT     H2  901   1.546   1.373   3.997
  239WAT      O  902   0.522   2.538   1.473
  239WAT     H1  903   0.618   2.545   1.467
  239WAT     H2  904   0.506   2.515   1.565
  240WAT      O  905   0.643   1.565   2.658
  240WAT     H1  906   0.591   1.496   2.698
  240WAT     H2  907   0.659   1.535   2.569
  241WAT      O  908   1.151   3.215   3.395
  241WAT     H1  909   1.073   3.225   3.449
  241WAT     H2  910   1.190   3.302   3.392
  242WAT      O  911   3.754   3.229   2.258
  242WAT     H1  912   3.690   3.163   2.284
  242WAT     H2  913   3.778   3.272   2.340
  243WAT      O  914   1.012   2.899   3.731
  243WAT     H1  915   1.068   2.821   3.728
  243WAT     H2  916   0.984   2.905   3.822
  244WAT      O  917   1.656   3.876   0.381
  244WAT     H1  918   1.631   3.921   0.461
  244WAT     H2  919   1.724   3.931   0.343
  245WAT      O  920   2.008   2.864   3.203
  245WAT     H1  921   2.058   2.942   3.179
  245WAT     H2  922   1.944   2.895   3.267
  246WAT      O  923   3.004   3.250   2.773
  246WAT     H1  924   3.009   3.264   2.679
  246WAT     H2  925   3.090   3.277   2.806
  247WAT      O  926   0.428   0.846   1.622
  247WAT     H1  927   0.516   0.884   1.616
  247WAT     H2  928   0.383   0.879   1.544
  248WAT      O  929   1.398   3.549   2.212
  248WAT     H1  930   1.417   3.489   2.284
  248WAT     H2  931   1.380   3.632   2.254
  249WAT      O  932   3.375   0.128   1.131
  249WAT     H1  933   3.368   0.069   1.206
  249WAT     H2  934   3.348   0.213   1.165
  250WAT      O  935   0.949   3.303   3.827
  250WAT     H1  936   0.947   3.387   3.872
  250WAT     H2  937   1.018   3.253   3.871
  251WAT      O  938   0.437   1.883   1.091
  251WAT     H1  939   0.508   1.915   1.035
  251WAT     H2  940   0.471   1.895   1.180
  252WAT      O  941   1.545   2.967   0.765
  252WAT     H1  942   1.562   3.023   0.840
  252WAT     H2  943   1.551   2.878   0.799
  253WAT      O  944   0.750   1.721   1.665
  253WAT     H1  945   0.670   1.755   1.625
  253WAT     H2  946   0.808   1.797   1.674
  254WAT      O  947   3.420   3.658   0.796
  254WAT     H1  948   3.509   3.686   0.818
  254WAT     H2  949   3.378   3.738   0.764
  255WAT      O  950   1.298   2.927  -0.001
  255WAT     H1  951   1.230   2.981   0.040
  255WAT     H2  952   1.347   2.891   0.072
  256WAT      O  953   0.933   2.139   1.016
  256WAT     H1  954   0.903   2.108   1.101
  256WAT     H2  955   1.029   2.139   1.023
  257WAT      O  956   0.583   0.744   0.270
  257WAT     H1  957   0.658   0.727   0.213
  257WAT     H2  958   0.530   0.808   0.221
  258WAT      O  959   0.097   1.170   3.313
  258WAT     H1  960   0.042   1.144   3.239
  258WAT     H2  961   0.058   1.124   3.388
  259WAT      O  962   2.732   2.750   2.749
  259WAT     H1  963   2.726   2.710   2.662
  259WAT     H2  964   2.780   2.832   2.733
  260WAT      O  965   0.891   3.313   3.123
  260WAT     H1  966   0.896   3.377   3.195
  260WAT     H2  967   0.805   3.273   3.133
  261WAT      O  968   2.936   3.173   0.946
  261WAT     H1  969   2.973   3.261   0.957
  261WAT     H2  970   2.949   3.153   0.853
  262WAT      O  971   1.073   1.134   0.706
  262WAT     H1  972   1.147   1.161   0.652
  262WAT     H2  973   1.023   1.075   0.650
  263WAT      O  974   1.283   3.789   0.469
  263WAT     H1  975   1.304   3.839   0.548
  263WAT     H2  976   1.261   3.702   0.501
  264WAT      O  977   0.154   3.321   3.315
  264WAT     H1  978   0.186   3.323   3.225
  264WAT     H2  979   0.176   3.408   3.350
  265WAT      O  980   3.101   0.387   1.845
  265WAT     H1  981   3.182   0.339   1.826
  265WAT     H2  982   3.086   0.372   1.939
  266WAT      O  983   1.098   0.840   2.670
  266WAT     H1  984   1.080   0.749   2.646
  266WAT     H2  985   1.011   0.878   2.684
  267WAT      O  986   0.076   1.054   1.869
  267WAT     H1  987   0.004   1.060   1.932
  267WAT     H2  988   0.037   1.015   1.791
  268WAT      O  989   0.160   0.219   0.530
  268WAT     H1  990   0.184   0.279   0.600
  268WAT     H2  991   0.220   0.145   0.539
  269WAT      O  992   2.268   2.770   0.716
  269WAT     H1  993   2.269   2.681   0.680
  269WAT     H2  994   2.296   2.826   0.643
  270WAT      O  995   2.258   0.423   2.341
  270WAT     H1  996   2.345   0.444   2.306
  270WAT     H2  997   2.220   0.508   2.363
  271WAT      O  998   3.894   2.551   3.872
  271WAT     H1  999   3.945   2.552   3.791
  271WAT     H2 1000   3.831   2.623   3.861
  272WAT      O 1001   1.156   2.921   0.983
  272WAT     H1 1002   1.145   3.014   1.004
  272WAT     H2 1003   1.230   2.893   1.036
  273WAT      O 1004   0.455   2.364   0.793
  273WAT     H1 1005   0.487   2.453   0.805
  273WAT     H2 1006   0.466   2.322   0.878
  274WAT      O 1007   2.887   3.193   3.545
  274WAT     H1 1008   2.960   3.182   3.606
  274WAT     H2 1009   2.827   3.121   3.566
  275WAT      O 1010   1.172   2.192   2.832
  275WAT     H1 1011   1.151   2.285   2.821
  275WAT     H2 1012   1.122   2.166   2.910
  276WAT      O 1013   3.786   1.546   2.368
  276WAT     H1 1014   3.866   1.524   2.416
  276WAT     H2 1015   3.779   1.478   2.301
  277WAT      O 1016   1.941   3.666   1.870
  277WAT     H1 1017   1.988   3.709   1.798
  277WAT     H2 1018   1.966   3.717   1.948
  278WAT      O 1019   0.892   3.447   3.353
  278WAT     H1 1020   0.908   3.513   3.420
  278WAT     H2 1021   0.892   3.364   3.400
  279WAT      O 1022   3.174   2.526   0.132
  279WAT     H1 1023   3.174   2.620   0.152
  279WAT     H2 1024   3.086   2.496   0.156
  280WAT      O 1025   0.629   1.087   2.912
  280WAT     H1 1026   0.614   1.143   2.988
  280WAT     H2 1027   0.576   1.009   2.928
  281WAT      O 1028   0.893   2.340   2.562
  281WAT     H1 1029   0.945   2.409   2.520
  281WAT     H2 1030   0.958   2.277   2.593
  282WAT      O 1031   1.391   3.202   2.685
  282WAT     H1 1032   1.443   3.265   2.735
  282WAT     H2 1033   1.314   3.186   2.740
  283WAT      O 1034   2.862   3.455   1.316
  283WAT     H1 1035   2.805   3.433   1.241
  283WAT     H2 1036   2.804   3.499   1.378
  284WAT      O 1037   2.650   0.919   1.494
  284WAT     H1 1038   2.688   0.986   1.551
  284WAT     H2 1039   2.556   0.922   1.512
  285WAT      O 1040   1.795   1.245   3.856
  285WAT     H1 1041   1.846   1.203   3.925
  285WAT     H2 1042   1.800   1.185   3.782
  286WAT      O 1043   0.972   2.866   4.008
  286WAT     H1 1044   1.015   2.824   4.083
  286WAT     H2 1045   0.910   2.927   4.048
  287WAT      O 1046   2.130   4.004   1.974
  287WAT     H1 1047   2.189   4.008   1.899
  287WAT     H2 1048   2.055   4.058   1.948
  288WAT      O 1049   0.785   1.025   1.310
  288WAT     H1 1050   0.815   0.990   1.226
  288WAT     H2 1051   0.862   1.071   1.345
  289WAT      O 1052   0.711   2.571   3.495
  289WAT     H1 1053   0.631   2.621   3.486
  289WAT     H2 1054   0.776   2.634   3.526
  290WAT      O 1055   0.463   0.524   0.603
  290WAT     H1 1056   0.441   0.617   0.599
  290WAT     H2 1057   0.535   0.519   0.667
  291WAT      O 1058   3.335   2.031   0.778
  291WAT     H1 1059   3.383   2.110   0.752
  291WAT     H2 1060   3.308   1.992   0.695
  292WAT      O 1061   0.551   0.707   0.888
  292WAT     H1 1062   0.535   0.748   0.803
  292WAT     H2 1063   0.464   0.696   0.926
  293WAT      O 1064   3.236   1.303   2.734
  293WAT     H1 1065   3.154   1.331   2.693
  293WAT     H2 1066   3.265   1.379   2.785
  294WAT      O 1067   4.015   3.147   3.185
  294WAT     H1 1068   4.013   3.240   3.165
  294WAT     H2 1069   4.061   3.142   3.269
  295WAT      O 1070   2.113   3.663   1.478
  295WAT     H1 1071   2.098   3.741   1.531
  295WAT     H2 1072   2.035   3.609   1.492
  296WAT      O 1073   3.708   2.534   1.968
  296WAT     H1 1074   3.631   2.584   1.940
  296WAT     H2 1075   3.692   2.516   2.061
  297WAT      O 1076   2.730   3.435   0.318
  297WAT     H1 1077   2.698   3.357   0.274
  297WAT     H2 1078   2.822   3.415   0.338
  298WAT      O 1079   3.512   1.409   2.484
  298WAT     H1 1080   3.515   1.373   2.395
  298WAT     H2 1081   3.529   1.503   2.472
  299WAT      O 1082   0.903   2.119   3.688
  299WAT     H1 1083   0.866   2.042   3.730
  299WAT     H2 1084   0.907   2.185   3.757
  300WAT      O 1085   1.083   0.756   0.225
  300WAT     H1 1086   1.147   0.817   0.261
  300WAT     H2 1087   1.009   0.811   0.200
  301WAT      O 1088   2.938   4.007   1.199
  301WAT     H1 1089   2.910   3.929   1.248
  301WAT     H2 1090   2.985   3.971   1.123
  302WAT      O 1091   1.290   4.011   0.980
  302WAT     H1 1092   1.260   4.087   0.931
  302WAT     H2 1093   1.211   3.963   1.003
  303WAT      O 1094   2.937   3.334   3.984
  303WAT     H1 1095   2.993   3.336   3.907
  303WAT     H2 1096   2.923   3.426   4.006
  304WAT      O 1097   2.683   0.812   1.195
  304WAT     H1 1098   2.751   0.865   1.238
  304WAT     H2 1099   2.692   0.834   1.102
  305WAT      O 1100   3.011   3.587   2.524
  305WAT     H1 1101   3.042   3.507   2.481
  305WAT     H2 1102   3.076   3.603   2.593
  306WAT      O 1103   0.493   1.203   1.500
  306WAT     H1 1104   0.476   1.187   1.407
  306WAT     H2 1105   0.523   1.118   1.534
  307WAT      O 1106   2.546   3.149   2.014
  307WAT     H1 1107   2.563   3.212   1.945
  307WAT     H2 1108   2.468   3.101   1.985
  308WAT      O 1109   0.527   3.471   1.136
  308WAT     H1 1110   0.544   3.389   1.184
  308WAT     H2 1111   0.445   3.454   1.090
  309WAT      O 1112   1.346   2.744   3.131
  309WAT     H1 1113   1.344   2.793   3.049
  309WAT     H2 1114   1.275   2.782   3.184
  310WAT      O 1115   1.139   1.342   0.062
  310WAT     H1 1116   1.166   1.342   0.154
  310WAT     H2 1117   1.054   1.386   0.062
  311WAT      O 1118   2.318   2.555   4.001
  311WAT     H1 1119   2.403   2.540   3.961
  311WAT     H2 1120   2.274   2.616   3.941
  312WAT      O 1121   1.235   1.894   2.680
  312WAT     H1 1122   1.152   1.864   2.643
  312WAT     H2 1123   1.211   1.940   2.760
  313WAT      O 1124   1.456   3.258   2.406
  313WAT     H1 1125   1.449   3.237   2.499
  313WAT     H2 1126   1.403   3.191   2.362
  314WAT      O 1127   3.892   0.058   3.719
  314WAT     H1 1128   3.853   0.142   3.698
  314WAT     H2 1129   3.951   0.077   3.792
  315WAT      O 1130   3.137   2.541   0.946
  315WAT     H1 1131   3.174   2.551   0.858
  315WAT     H2 1132   3.049   2.507   0.931
  316WAT      O 1133   0.792   3.076   1.840
  316WAT     H1 1134   0.780   3.053   1.748
  316WAT     H2 1135   0.842   3.158   1.838
  317WAT      O 1136   2.617   0.298   0.059
  317WAT     H1 1137   2.525   0.324   0.049
  317WAT     H2 1138   2.634   0.243  -0.018
  318WAT      O 1139   0.187   0.436   0.708
  318WAT     H1 1140   0.272   0.465   0.676
  318WAT     H2 1141   0.156   0.508   0.764
  319WAT      O 1142   2.008   0.393   2.131
  319WAT     H1 1143   2.025   0.487   2.137
  319WAT     H2 1144   1.952   0.375   2.206
  320WAT      O 1145   2.958   0.686   0.402
  320WAT     H1 1146   2.970   0.661   0.494
  320WAT     H2 1147   3.047   0.692   0.368
  321WAT      O 1148   1.144   3.208   3.085
  321WAT     H1 1149   1.053   3.231   3.069
  321WAT     H2 1150   1.153   3.210   3.180
  322WAT      O 1151   3.491   1.922   1.564
  322WAT     H1 1152   3.521   1.928   1.655
  322WAT     H2 1153   3.410   1.871   1.570
  323WAT      O 1154   3.146   1.108   2.178
  323WAT     H1 1155   3.063   1.103   2.225
  323WAT     H2 1156   3.182   1.020   2.185
  324WAT      O 1157   0.371   2.772   2.214
  324WAT     H1 1158   0.406   2.738   2.297
  324WAT     H2 1159   0.443   2.821   2.175
  325WAT      O 1160   3.837   1.369   3.818
  325WAT     H1 1161   3.782   1.290   3.817
  325WAT     H2 1162   3.897   1.357   3.745
  326WAT      O 1163   1.653   3.899   2.297
  326WAT     H1 1164   1.579   3.845   2.268
  326WAT     H2 1165   1.628   3.988   2.274
  327WAT      O 1166   1.145   0.495   2.610
  327WAT     H1 1167   1.096   0.481   2.692
  327WAT     H2 1168   1.236   0.501   2.638
  328WAT      O 1169   3.310   3.642   2.655
  328WAT     H1 1170   3.256   3.712   2.690
  328WAT     H2 1171   3.310   3.656   2.560
  329WAT      O 1172   3.248   3.079   1.390
  329WAT     H1 1173   3.257   3.017   1.317
  329WAT     H2 1174   3.163   3.120   1.376
  330WAT      O 1175   0.625   3.825   1.448
  330WAT     H1 1176   0.560   3.757   1.466
  330WAT     H2 1177   0.574   3.903   1.430
  331WAT      O 1178   3.208   1.774   0.187
  331WAT     H1 1179   3.237   1.697   0.138
  331WAT     H2 1180   3.114   1.778   0.172
  332WAT      O 1181   2.395   2.028   2.557
  332WAT     H1 1182   2.407   1.941   2.596
  332WAT     H2 1183   2.435   2.088   2.620
  333WAT      O 1184   2.510   3.655   0.839
  333WAT     H1 1185   2.425   3.611   0.849
  333WAT     H2 1186   2.544   3.661   0.928
  334WAT      O 1187   3.664   0.407   1.824
  334WAT     H1 1188   3.744   0.429   1.777
  334WAT     H2 1189   3.678   0.318   1.855
  335WAT      O 1190   2.077   2.247   3.134
  335WAT     H1 1191   2.106   2.156   3.142
  335WAT     H2 1192   2.045   2.270   3.221
  336WAT      O 1193   1.037   1.357   2.266
  336WAT     H1 1194   1.036   1.419   2.339
  336WAT     H2 1195   1.120   1.311   2.275
  337WAT      O 1196   2.786   0.478   1.079
  337WAT     H1 1197   2.729   0.416   1.031
  337WAT     H2 1198   2.739   0.495   1.160
  338WAT      O 1199   3.017   0.587   0.655
  338WAT     H1 1200   3.024   0.541   0.739
  338WAT     H2 1201   3.108   0.596   0.625
  339WAT      O 1202   1.196   3.797   0.102
  339WAT     H1 1203   1.200   3.890   0.081
  339WAT     H2 1204   1.284   3.775   0.134
  340WAT      O 1205   3.084   3.706   2.295
  340WAT     H1 1206   3.028   3.662   2.360
  340WAT     H2 1207   3.023   3.731   2.226
  341WAT      O 1208   2.158   3.162   1.656
  341WAT     H1 1209   2.241   3.187   1.616
  341WAT     H2 1210   2.104   3.241   1.651
  342WAT      O 1211   3.422   3.268   3.302
  342WAT     H1 1212   3.422   3.361   3.326
  342WAT     H2 1213   3.487   3.263   3.232
  343WAT      O 1214   0.438   1.867   0.603
  343WAT     H1 1215   0.443   1.772   0.597
  343WAT     H2 1216   0.523   1.894   0.638
  344WAT      O 1217   1.145   3.169   0.149
  344WAT     H1 1218   1.063   3.214   0.168
  344WAT     H2 1219   1.165   3.120   0.229
  345WAT      O 1220   1.153   3.163   2.417
  345WAT     H1 1221   1.202   3.229   2.467
  345WAT     H2 1222   1.165   3.190   2.326
  346WAT      O 1223   0.326   0.170   2.056
  346WAT     H1 1224   0.289   0.165   2.144
  346WAT     H2 1225   0.252   0.157   1.998
  347WAT      O 1226   2.972   2.852   2.494
  347WAT     H1 1227   2.891   2.891   2.461
  347WAT     H2 1228   3.029   2.847   2.418
  348WAT      O 1229   3.579   3.002   0.678
  348WAT     H1 1230   3.672   3.017   0.661
  348WAT     H2 1231   3.566   3.033   0.768
  349WAT      O 1232   3.137   1.481   0.502
  349WAT     H1 1233   3.216   1.454   0.455
  349WAT     H2 1234   3.091   1.538   0.441
  350WAT      O 1235   2.677   1.422   3.089
  350WAT     H1 1236   2.696   1.370   3.011
  350WAT     H2 1237   2.666   1.357   3.158
  351WAT      O 1238   1.866   0.860   1.672
  351WAT     H1 1239   1.914   0.791   1.626
  351WAT     H2 1240   1.774   0.841   1.655
  352WAT      O 1241   2.937   0.599   1.702
  352WAT     H1 1242   2.988   0.520   1.723
  352WAT     H2 1243   2.905   0.629   1.787
  353WAT      O 1244   2.029   2.062   3.823
  353WAT     H1 1245   1.953   2.078   3.769
  353WAT     H2 1246   2.104   2.076   3.766
  354WAT      O 1247   1.322   0.616   1.856
  354WAT     H1 1248   1.233   0.613   1.893
  354WAT     H2 1249   1.378   0.631   1.932
  355WAT      O 1250   1.720   1.494   0.175
  355WAT     H1 1251   1.772   1.574   0.168
  355WAT     H2 1252   1.683   1.482   0.087
  356WAT      O 1253   3.199   2.390   1.354
  356WAT     H1 1254   3.265   2.401   1.422
  356WAT     H2 1255   3.147   2.314   1.383
  357WAT      O 1256   2.688   3.764   2.243
  357WAT     H1 1257   2.688   3.720   2.328
  357WAT     H2 1258   2.598   3.795   2.233
  358WAT      O 1259   0.332   3.025   1.624
  358WAT     H1 1260   0.332   2.936   1.660
  358WAT     H2 1261   0.256   3.028   1.567
  359WAT      O 1262   1.514   3.917   3.152
  359WAT     H1 1263   1.592   3.882   3.109
  359WAT     H2 1264   1.525   3.893   3.244
  360WAT      O 1265   3.192   3.920   1.498
  360WAT     H1 1266   3.232   3.843   1.457
  360WAT     H2 1267   3.257   3.990   1.486
  361WAT      O 1268   2.645   0.122   2.364
  361WAT     H1 1269   2.729   0.078   2.370
  361WAT     H2 1270   2.639   0.173   2.444
  362WAT      O 1271   2.747   0.723   0.251
  362WAT     H1 1272   2.786   0.676   0.178
  362WAT     H2 1273   2.819   0.735   0.313
  363WAT      O 1274   2.043   0.098   3.624
  363WAT     H1 1275   2.079   0.152   3.695
  363WAT     H2 1276   2.115   0.039   3.601
  364WAT      O 1277   1.616   3.605   3.721
  364WAT     H1 1278   1.537   3.561   3.753
  364WAT     H2 1279   1.647   3.656   3.796
  365WAT      O 1280   1.839   1.746   2.581
  365WAT     H1 1281   1.907   1.780   2.639
  365WAT     H2 1282   1.844   1.651   2.592
  366WAT      O 1283   0.598   2.049   3.014
  366WAT     H1 1284   0.680   2.079   2.976
  366WAT     H2 1285   0.613   2.050   3.108
  367WAT      O 1286   2.779   2.149   3.117
  367WAT     H1 1287   2.785   2.054   3.132
  367WAT     H2 1288   2.834   2.187   3.185
  368WAT      O 1289   2.832   3.717   3.441
  368WAT     H1 1290   2.829   3.628   3.476
  368WAT     H2 1291   2.852   3.772   3.516
  369WAT      O 1292   1.999   1.903   2.052
  369WAT     H1 1293   2.050   1.973   2.091
  369WAT     H2 1294   2.040   1.823   2.084
  370WAT      O 1295   0.935   2.166   2.272
  370WAT     H1 1296   0.999   2.167   2.343
  370WAT     H2 1297   0.850   2.159   2.316
  371WAT      O 1298   3.807   1.838   2.305
  371WAT     H1 1299   3.801   1.748   2.340
  371WAT     H2 1300   3.854   1.886   2.373
  372WAT      O 1301   0.518   0.914   3.550
  372WAT     H1 1302   0.568   0.844   3.509
  372WAT     H2 1303   0.442   0.926   3.493
  373WAT      O 1304   3.823   1.998   3.833
  373WAT     H1 1305   3.778   1.949   3.902
  373WAT     H2 1306   3.900   2.034   3.877
  374WAT      O 1307   1.161   2.281   1.702
  374WAT     H1 1308   1.217   2.350   1.738
  374WAT     H2 1309   1.106   2.254   1.776
  375WAT      O 1310   1.439   2.233   0.609
  375WAT     H1 1311   1.459   2.306   0.668
  375WAT     H2 1312   1.518   2.179   0.611
  376WAT      O 1313   0.783   0.208   0.292
  376WAT     H1 1314   0.788   0.303   0.289
  376WAT     H2 1315   0.840   0.178   0.221
  377WAT      O 1316   3.240   3.729   3.963
  377WAT     H1 1317   3.307   3.703   4.026
  377WAT     H2 1318   3.272   3.699   3.879
  378WAT      O 1319   0.154   0.068   2.628
  378WAT     H1 1320   0.079   0.122   2.606
  378WAT     H2 1321   0.211   0.125   2.680
  379WAT      O 1322   3.937   2.492   2.623
  379WAT     H1 1323   3.855   2.537   2.646
  379WAT     H2 1324   3.958   2.523   2.535
  380WAT      O 1325   2.055   1.959   0.255
  380WAT     H1 1326   2.114   1.939   0.183
  380WAT     H2 1327   2.078   1.897   0.324
  381WAT      O 1328   1.857   3.263   0.422
  381WAT     H1 1329   1.891   3.319   0.492
  381WAT     H2 1330   1.802   3.199   0.468
  382WAT      O 1331   1.806   3.321   0.864
  382WAT     H1 1332   1.711   3.328   0.856
  382WAT     H2 1333   1.826   3.231   0.836
  383WAT      O 1334   3.661   0.630   0.779
  383WAT     H1 1335   3.652   0.641   0.685
  383WAT     H2 1336   3.729   0.692   0.804
  384WAT      O 1337   3.516   1.846   1.032
  384WAT     H1 1338   3.530   1.938   1.010
  384WAT     H2 1339   3.472   1.848   1.117
  385WAT      O 1340   1.731   2.201   2.745
  385WAT     H1 1341   1.714   2.246   2.828
  385WAT     H2 1342   1.802   2.140   2.765
  386WAT      O 1343   2.302   0.116   1.067
  386WAT     H1 1344   2.254   0.137   0.987
  386WAT     H2 1345   2.302   0.021   1.071
  387WAT      O 1346   3.953   0.475   2.399
  387WAT     H1 1347   3.931   0.419   2.324
  387WAT     H2 1348   4.048   0.482   2.397
  388WAT      O 1349   0.055   3.563   2.555
  388WAT     H1 1350   0.092   3.501   2.492
  388WAT     H2 1351  -0.039   3.565   2.535
  389WAT      O 1352   2.574   2.318   2.457
  389WAT     H1 1353   2.615   2.372   2.389
  389WAT     H2 1354   2.559   2.233   2.416
  390WAT      O 1355   0.796   3.020   2.173
  390WAT     H1 1356   0.841   3.103   2.186
  390WAT     H2 1357   0.806   2.974   2.256
  391WAT      O 1358   3.572   2.454   3.682
  391WAT     H1 1359   3.622   2.534   3.699
  391WAT     H2 1360   3.547   2.422   3.768
  392WAT      O 1361   3.799   3.416   3.552
  392WAT     H1 1362   3.812   3.493   3.496
  392WAT     H2 1363   3.880   3.410   3.604
  393WAT      O 1364   1.770   3.199   2.266
  393WAT     H1 1365   1.754   3.119   2.315
  393WAT     H2 1366   1.747   3.270   2.326
  394WAT      O 1367   0.289   2.355   2.473
  394WAT     H1 1368   0.318   2.275   2.518
  394WAT     H2 1369   0.344   2.360   2.395
  395WAT      O 1370   0.389   0.607   4.021
  395WAT     H1 1371   0.405   0.617   3.927
  395WAT     H2 1372   0.445   0.672   4.062
  396WAT      O 1373   3.467   2.148   1.111
  396WAT     H1 1374   3.414   2.205   1.055
  396WAT     H2 1375   3.404   2.087   1.149
  397WAT      O 1376   3.185   3.805   3.114
  397WAT     H1 1377   3.270   3.846   3.100
  397WAT     H2 1378   3.126   3.851   3.054
  398WAT      O 1379   1.219   3.482   3.392
  398WAT     H1 1380   1.128   3.503   3.415
  398WAT     H2 1381   1.241   3.544   3.323
  399WAT      O 1382   2.944   0.793   1.506
  399WAT     H1 1383   2.941   0.730   1.577
  399WAT     H2 1384   2.857   0.790   1.467
  400WAT      O 1385   0.274   2.366   0.598
  400WAT     H1 1386   0.344   2.348   0.660
  400WAT     H2 1387   0.302   2.323   0.517
  401WAT      O 1388   2.985   0.295   3.042
  401WAT     H1 1389   3.023   0.221   3.088
  401WAT     H2 1390   3.029   0.372   3.080
  402WAT      O 1391   2.941   1.020   2.915
  402WAT     H1 1392   2.919   0.959   2.985
  402WAT     H2 1393   2.957   0.965   2.838
  403WAT      O 1394   1.473   2.654   0.349
  403WAT     H1 1395   1.463   2.730   0.293
  403WAT     H2 1396   1.397   2.656   0.408
  404WAT      O 1397   0.503   3.989   1.146
  404WAT     H1 1398   0.416   3.956   1.124
  404WAT     H2 1399   0.489   4.042   1.225
  405WAT      O 1400   2.022   3.419   1.311
  405WAT     H1 1401   1.968   3.342   1.326
  405WAT     H2 1402   1.992   3.482   1.376
  406WAT      O 1403   3.462   0.608   2.164
  406WAT     H1 1404   3.469   0.608   2.069
  406WAT     H2 1405   3.550   0.627   2.195
  407WAT      O 1406   0.916   3.253   2.178
  407WAT     H1 1407   0.946   3.315   2.245
  407WAT     H2 1408   0.985   3.256   2.111
  408WAT      O 1409   3.962   2.612   1.161
  408WAT     H1 1410   3.978   2.702   1.133
  408WAT     H2 1411   3.879   2.616   1.209
  409WAT      O 1412   0.181   1.618   3.990
  409WAT     H1 1413   0.120   1.551   3.959
  409WAT     H2 1414   0.128   1.674   4.047
  410WAT      O 1415   2.448   3.914   2.260
  410WAT     H1 1416   2.462   3.978   2.190
  410WAT     H2 1417   2.353   3.906   2.266
  411WAT      O 1418   0.723   3.652   0.136
  411WAT     H1 1419   0.687   3.739   0.118
  411WAT     H2 1420   0.694   3.598   0.062
  412WAT      O 1421   3.990   1.268   3.599
  412WAT     H1 1422   4.068   1.235   3.555
  412WAT     H2 1423   3.922   1.203   3.579
  413WAT      O 1424   0.746   1.690   2.173
  413WAT     H1 1425   0.786   1.646   2.099
  413WAT     H2 1426   0.777   1.780   2.169
  414WAT      O 1427   3.634   2.564   0.548
  414WAT     H1 1428   3.597   2.627   0.610
  414WAT     H2 1429   3.566   2.554   0.481
  415WAT      O 1430   0.573   2.034   0.286
  415WAT     H1 1431   0.647   1.992   0.242
  415WAT     H2 1432   0.524   1.961   0.326
  416WAT      O 1433   1.788   1.564   1.550
  416WAT     H1 1434   1.820   1.482   1.588
  416WAT     H2 1435   1.706   1.540   1.507
  417WAT      O 1436   1.365   1.041   1.089
  417WAT     H1 1437   1.407   1.127   1.098
  417WAT     H2 1438   1.405   0.987   1.157
  418WAT      O 1439   0.936   3.661   1.865
  418WAT     H1 1440   0.994   3.640   1.792
  418WAT     H2 1441   0.848   3.650   1.829
  419WAT      O 1442   0.104   1.122   1.519
  419WAT     H1 1443   0.103   1.030   1.545
  419WAT     H2 1444   0.021   1.157   1.551
  420WAT      O 1445   0.833   1.243   1.640
  420WAT     H1 1446   0.880   1.322   1.613
  420WAT     H2 1447   0.889   1.171   1.612
  421WAT      O 1448   2.312   0.949   1.715
  421WAT     H1 1449   2.377   0.991   1.772
  421WAT     H2 1450   2.234   0.943   1.769
  422WAT      O 1451   0.638   3.572   0.381
  422WAT     H1 1452   0.671   3.604   0.298
  422WAT     H2 1453   0.580   3.499   0.358
  423WAT      O 1454   2.707   2.781   0.315
  423WAT     H1 1455   2.788   2.768   0.266
  423WAT     H2 1456   2.640   2.736   0.263
  424WAT      O 1457   0.408   2.754   2.501
  424WAT     H1 1458   0.388   2.696   2.575
  424WAT     H2 1459   0.501   2.774   2.512
  425WAT      O 1460   1.609   0.762   1.711
  425WAT     H1 1461   1.656   0.684   1.680
  425WAT     H2 1462   1.528   0.728   1.749
  426WAT      O 1463   1.802   3.454   0.221
  426WAT     H1 1464   1.829   3.403   0.298
  426WAT     H2 1465   1.806   3.545   0.250
  427WAT      O 1466   0.111   2.308   1.515
  427WAT     H1 1467   0.140   2.330   1.427
  427WAT     H2 1468   0.018   2.286   1.505
  428WAT      O 1469   3.671   0.425   3.248
  428WAT     H1 1470   3.613   0.359   3.286
  428WAT     H2 1471   3.705   0.474   3.323
  429WAT      O 1472   1.634   1.504   0.722
  429WAT     H1 1473   1.616   1.513   0.629
  429WAT     H2 1474   1.695   1.576   0.742
  430WAT      O 1475   1.399   3.281   0.648
  430WAT     H1 1476   1.423   3.258   0.559
  430WAT     H2 1477   1.314   3.324   0.640
  431WAT      O 1478   1.544   0.437   3.201
  431WAT     H1 1479   1.622   0.381   3.199
  431WAT     H2 1480   1.517   0.437   3.293
  432WAT      O 1481   3.985   2.017   0.412
  432WAT     H1 1482   3.967   1.962   0.336
  432WAT     H2 1483   4.060   1.975   0.455
  433WAT      O 1484   1.240   3.640   3.156
  433WAT     H1 1485   1.236   3.722   3.107
  433WAT     H2 1486   1.279   3.578   3.094
  434WAT      O 1487   3.951   3.063   3.673
  434WAT     H1 1488   3.917   3.150   3.693
  434WAT     H2 1489   3.952   3.017   3.757
  435WAT      O 1490   1.273   0.611   3.557
  435WAT     H1 1491   1.191   0.634   3.514
  435WAT     H2 1492   1.338   0.613   3.486
  436WAT      O 1493   1.872   3.642   0.383
  436WAT     H1 1494   1.808   3.708   0.410
  436WAT     H2 1495   1.883   3.587   0.461
  437WAT      O 1496   0.510   2.452   1.746
  437WAT     H1 1497   0.457   2.372   1.742
  437WAT     H2 1498   0.459   2.513   1.799
  438WAT      O 1499   1.451   0.308   3.919
  438WAT     H1 1500   1.475   0.401   3.916
  438WAT     H2 1501   1.511   0.265   3.858
  439WAT      O 1502   3.298   3.332   1.522
  439WAT     H1 1503   3.382   3.305   1.559
  439WAT     H2 1504   3.262   3.251   1.484
  440WAT      O 1505   0.672   1.401   3.794
  440WAT     H1 1506   0.589   1.426   3.833
  440WAT     H2 1507   0.650   1.339   3.725
  441WAT      O 1508   2.290   2.263   1.642
  441WAT     H1 1509   2.374   2.237   1.681
  441WAT     H2 1510   2.270   2.347   1.683
  442WAT      O 1511   0.043   2.943   1.585
  442WAT     H1 1512  -0.052   2.957   1.587
  442WAT     H2 1513   0.053   2.850   1.565
  443WAT      O 1514   2.322   2.122   3.583
  443WAT     H1 1515   2.329   2.121   3.678
  443WAT     H2 1516   2.294   2.211   3.562
  444WAT      O 1517   2.094   3.003   0.628
  444WAT     H1 1518   2.187   3.008   0.603
  444WAT     H2 1519   2.048   3.050   0.559
  445WAT      O 1520   0.384   2.302   1.326
  445WAT     H1 1521   0.302   2.315   1.277
  445WAT     H2 1522   0.389   2.377   1.385
  446WAT      O 1523   0.085   2.859   2.226
  446WAT     H1 1524   0.062   2.866   2.134
  446WAT     H2 1525   0.163   2.804   2.227
  447WAT      O 1526   2.129   0.303   2.553
  447WAT     H1 1527   2.059   0.241   2.530
  447WAT     H2 1528   2.159   0.336   2.468
  448WAT      O 1529   0.573   1.271   3.122
  448WAT     H1 1530   0.504   1.266   3.189
  448WAT     H2 1531   0.654   1.258   3.171
  449WAT      O 1532   3.309   3.500   0.241
  449WAT     H1 1533   3.335   3.577   0.189
  449WAT     H2 1534   3.267   3.537   0.318
  450WAT      O 1535   0.039   0.357   1.929
  450WAT     H1 1536   0.008   0.435   1.975
  450WAT     H2 1537   0.024   0.285   1.990
  451WAT      O 1538   1.080   2.801   0.229
  451WAT     H1 1539   1.143   2.872   0.239
  451WAT     H2 1540   1.065   2.770   0.319
  452WAT      O 1541   2.705   2.687   2.121
  452WAT     H1 1542   2.702   2.783   2.125
  452WAT     H2 1543   2.626   2.663   2.073
  453WAT      O 1544   0.250   1.351   1.576
  453WAT     H1 1545   0.192   1.302   1.518
  453WAT     H2 1546   0.333   1.304   1.572
  454WAT      O 1547   2.953   2.097   0.680
  454WAT     H1 1548   2.924   2.012   0.647
  454WAT     H2 1549   3.040   2.108   0.643
  455WAT      O 1550   0.506   3.204   2.022
  455WAT     H1 1551   0.599   3.189   2.004
  455WAT     H2 1552   0.505   3.282   2.079
  456WAT      O 1553   0.529   1.432   1.690
  456WAT     H1 1554   0.612   1.459   1.730
  456WAT     H2 1555   0.550   1.351   1.643
  457WAT      O 1556   0.929   3.916   1.614
  457WAT     H1 1557   0.861   3.853   1.635
  457WAT     H2 1558   0.922   3.929   1.520
  458WAT      O 1559   1.933   1.951   0.802
  458WAT     H1 1560   1.947   2.045   0.785
  458WAT     H2 1561   2.014   1.923   0.845
  459WAT      O 1562   1.643   2.991   2.951
  459WAT     H1 1563   1.591   3.013   3.029
  459WAT     H2 1564   1.581   2.950   2.891
  460WAT      O 1565   0.406   2.498   2.256
  460WAT     H1 1566   0.472   2.563   2.231
  460WAT     H2 1567   0.327   2.524   2.208
  461WAT      O 1568   1.825   3.887   0.748
  461WAT     H1 1569   1.792   3.967   0.788
  461WAT     H2 1570   1.752   3.825   0.754
  462WAT      O 1571   3.091   2.965   0.997
  462WAT     H1 1572   3.015   3.023   0.990
  462WAT     H2 1573   3.124   2.959   0.907
  463WAT      O 1574   1.368   2.405   1.478
  463WAT     H1 1575   1.378   2.499   1.470
  463WAT     H2 1576   1.274   2.391   1.489
  464WAT      O 1577   0.476   3.377   0.305
  464WAT     H1 1578   0.446   3.401   0.217
  464WAT     H2 1579   0.451   3.285   0.315
  465WAT      O 1580   0.433   0.519   0.336
  465WAT     H1 1581   0.494   0.593   0.338
  465WAT     H2 1582   0.444   0.477   0.422
  466WAT      O 1583   1.768   3.830   3.043
  466WAT     H1 1584   1.833   3.855   3.108
  466WAT     H2 1585   1.794   3.878   2.964
  467WAT      O 1586   1.183   3.568   2.816
  467WAT     H1 1587   1.230   3.499   2.864
  467WAT     H2 1588   1.093   3.560   2.845
  468WAT      O 1589   0.315   3.602   3.857
  468WAT     H1 1590   0.383   3.668   3.871
  468WAT     H2 1591   0.331   3.571   3.768
  469WAT      O 1592   0.352   3.696   1.447
  469WAT     H1 1593   0.323   3.619   1.398
  469WAT     H2 1594   0.342   3.671   1.539
  470WAT      O 1595   3.158   0.125   2.647
  470WAT     H1 1596   3.078   0.142   2.697
  470WAT     H2 1597   3.224   0.108   2.714
  471WAT      O 1598   2.015   1.226   3.606
  471WAT     H1 1599   2.079   1.292   3.580
  471WAT     H2 1600   1.933   1.274   3.613
  472WAT      O 1601   3.240   1.649   1.863
  472WAT     H1 1602   3.325   1.661   1.819
  472WAT     H2 1603   3.261   1.652   1.956
  473WAT      O 1604   1.150   1.909   0.594
  473WAT     H1 1605   1.107   1.889   0.677
  473WAT     H2 1606   1.205   1.985   0.612
  474WAT      O 1607   0.270   2.607   2.955
  474WAT     H1 1608   0.286   2.608   2.861
  474WAT     H2 1609   0.347   2.650   2.993
  475WAT      O 1610   0.683   0.367   1.067
  475WAT     H1 1611   0.589   0.363   1.080
  475WAT     H2 1612   0.720   0.345   1.152
  476WAT      O 1613   3.437   3.290   1.013
  476WAT     H1 1614   3.470   3.213   0.968
  476WAT     H2 1615   3.482   3.289   1.097
  477WAT      O 1616   3.887   1.219   1.632
  477WAT     H1 1617   3.861   1.127   1.622
  477WAT     H2 1618   3.846   1.246   1.714
  478WAT      O 1619   0.284   2.776   1.761
  478WAT     H1 1620   0.214   2.809   1.817
  478WAT     H2 1621   0.261   2.685   1.744
  479WAT      O 1622   0.108   1.540   2.449
  479WAT     H1 1623   0.048   1.467   2.466
  479WAT     H2 1624   0.130   1.574   2.536
  480WAT      O 1625   0.059   2.768   1.917
  480WAT     H1 1626  -0.007   2.837   1.923
  480WAT     H2 1627   0.017   2.697   1.869
  481WAT      O 1628   3.289   3.668   1.384
  481WAT     H1 1629   3.306   3.721   1.306
  481WAT     H2 1630   3.299   3.578   1.353
  482WAT      O 1631   2.369   3.786   0.055
  482WAT     H1 1632   2.358   3.691   0.053
  482WAT     H2 1633   2.415   3.806  -0.027
  483WAT      O 1634   3.739   2.217   2.193
  483WAT     H1 1635   3.828   2.187   2.211
  483WAT     H2 1636   3.741   2.311   2.211
  484WAT      O 1637   2.260   3.943   0.269
  484WAT     H1 1638   2.332   3.930   0.207
  484WAT     H2 1639   2.188   3.890   0.233
  485WAT      O 1640   1.671   2.196   2.233
  485WAT     H1 1641   1.610   2.263   2.204
  485WAT     H2 1642   1.682   2.212   2.327
  486WAT      O 1643   0.151   1.487   0.519
  486WAT     H1 1644   0.127   1.402   0.557
  486WAT     H2 1645   0.231   1.511   0.565
  487WAT      O 1646   0.942   2.068   0.110
  487WAT     H1 1647   1.004   2.010   0.065
  487WAT     H2 1648   0.869   2.011   0.133
  488WAT      O 1649   2.169   3.299   1.971
  488WAT     H1 1650   2.086   3.269   2.007
  488WAT     H2 1651   2.177   3.254   1.887
  489WAT      O 1652   0.128   1.397   3.789
  489WAT     H1 1653   0.088   1.372   3.872
  489WAT     H2 1654   0.080   1.349   3.723
  490WAT      O 1655   3.671   2.719   3.798
  490WAT     H1 1656   3.672   2.790   3.734
  490WAT     H2 1657   3.583   2.720   3.835
  491WAT      O 1658   1.469   0.149   3.596
  491WAT     H1 1659   1.564   0.160   3.604
  491WAT     H2 1660   1.452   0.159   3.502
  492WAT      O 1661   0.304   1.355   0.276
  492WAT     H1 1662   0.389   1.345   0.234
  492WAT     H2 1663   0.276   1.443   0.253
  493WAT      O 1664   0.273   3.290   1.850
  493WAT     H1 1665   0.344   3.354   1.838
  493WAT     H2 1666   0.305   3.232   1.919
  494WAT      O 1667   0.726   1.777   0.513
  494WAT     H1 1668   0.817   1.801   0.493
  494WAT     H2 1669   0.712   1.809   0.602
  495WAT      O 1670   3.797   0.454   2.898
  495WAT     H1 1671   3.814   0.511   2.822
  495WAT     H2 1672   3.820   0.508   2.974
  496WAT      O 1673   0.427   3.917   2.189
  496WAT     H1 1674   0.503   3.942   2.241
  496WAT     H2 1675   0.463   3.867   2.116
  497WAT      O 1676   2.079   2.082   2.502
  497WAT     H1 1677   2.034   2.031   2.570
  497WAT     H2 1678   2.165   2.099   2.539
  498WAT      O 1679   1.364   0.492   1.618
  498WAT     H1 1680   1.357   0.520   1.709
  498WAT     H2 1681   1.273   0.492   1.587
  499WAT      O 1682   3.713   0.738   3.835
  499WAT     H1 1683   3.771   0.781   3.773
  499WAT     H2 1684   3.745   0.648   3.839
  500WAT      O 1685   2.128   1.696   2.141
  500WAT     H1 1686   2.079   1.619   2.114
  500WAT     H2 1687   2.132   1.690   2.236
  501WAT      O 1688  -0.001   1.278   0.936
  501WAT     H1 1689   0.086   1.317   0.931
  501WAT     H2 1690  -0.053   1.341   0.986
  502WAT      O 1691   3.392   2.414   4.008
  502WAT     H1 1692   3.387   2.486   3.945
  502WAT     H2 1693   3.311   2.421   4.059
  503WAT      O 1694   1.933   0.529   1.721
  503WAT     H1 1695   1.905   0.573   1.641
  503WAT     H2 1696   2.027   0.545   1.726
  504WAT      O 1697   3.175   3.430   1.756
  504WAT     H1 1698   3.128   3.350   1.779
  504WAT     H2 1699   3.212   3.412   1.669
  505WAT      O 1700   1.694   2.759   0.894
  505WAT     H1 1701   1.715   2.688   0.955
  505WAT     H2 1702   1.775   2.774   0.846
  506WAT      O 1703   0.156   0.650   0.862
  506WAT     H1 1704   0.208   0.650   0.941
  506WAT     H2 1705   0.148   0.743   0.838
  507WAT      O 1706   3.383   2.644   3.807
  507WAT     H1 1707   3.355   2.668   3.719
  507WAT     H2 1708   3.411   2.727   3.846
  508WAT      O 1709   1.365   0.154   3.364
  508WAT     H1 1710   1.307   0.093   3.318
  508WAT     H2 1711   1.406   0.205   3.294
  509WAT      O 1712   0.513   1.292   2.377
  509WAT     H1 1713   0.552   1.379   2.362
  509WAT     H2 1714   0.550   1.264   2.461
  510WAT      O 1715   3.275   3.113   1.866
  510WAT     H1 1716   3.190   3.155   1.880
  510WAT     H2 1717   3.263   3.023   1.897
  511WAT      O 1718   3.507   0.181   0.206
  511WAT     H1 1719   3.541   0.152   0.121
  511WAT     H2 1720   3.413   0.194   0.190
  512WAT      O 1721   4.015   1.823   3.905
  512WAT     H1 1722   4.029   1.834   3.811
  512WAT     H2 1723   3.955   1.749   3.912
  513WAT      O 1724   2.064   1.097   3.353
  513WAT     H1 1725   2.147   1.065   3.389
  513WAT     H2 1726   2.030   1.156   3.420
  514WAT      O 1727   2.864   3.934   3.252
  514WAT     H1 1728   2.869   3.852   3.301
  514WAT     H2 1729   2.869   3.908   3.160
  515WAT      O 1730   3.608   1.353   0.906
  515WAT     H1 1731   3.560   1.280   0.867
  515WAT     H2 1732   3.557   1.431   0.883
  516WAT      O 1733   1.054   3.211   1.453
  516WAT     H1 1734   1.103   3.284   1.416
  516WAT     H2 1735   1.047   3.148   1.381
  517WAT      O 1736   1.023   1.839   0.817
  517WAT     H1 1737   0.934   1.805   0.803
  517WAT     H2 1738   1.035   1.837   0.912
  518WAT      O 1739   0.646   2.308   3.630
  518WAT     H1 1740   0.661   2.401   3.611
  518WAT     H2 1741   0.682   2.296   3.718
  519WAT      O 1742   1.792   2.460   1.076
  519WAT     H1 1743   1.794   2.402   1.152
  519WAT     H2 1744   1.875   2.507   1.079
  520WAT      O 1745   0.785   2.281   3.879
  520WAT     H1 1746   0.738   2.221   3.937
  520WAT     H2 1747   0.836   2.336   3.938
  521WAT      O 1748   2.882   0.433   0.263
  521WAT     H1 1749   2.828   0.459   0.188
  521WAT     H2 1750   2.929   0.513   0.288
  522WAT      O 1751   0.545   0.744   1.301
  522WAT     H1 1752   0.619   0.786   1.256
  522WAT     H2 1753   0.470   0.800   1.282
  523WAT      O 1754   3.313   1.272   0.639
  523WAT     H1 1755   3.241   1.217   0.609
  523WAT     H2 1756   3.380   1.264   0.571
  524WAT      O 1757   1.554   2.808   2.703
  524WAT     H1 1758   1.570   2.718   2.672
  524WAT     H2 1759   1.462   2.824   2.679
  525WAT      O 1760   0.394   3.814   0.626
  525WAT     H1 1761   0.364   3.806   0.717
  525WAT     H2 1762   0.439   3.731   0.609
  526WAT      O 1763   3.703   1.317   0.512
  526WAT     H1 1764   3.648   1.395   0.525
  526WAT     H2 1765   3.641   1.244   0.512
  527WAT      O 1766   3.115   1.200   0.983
  527WAT     H1 1767   3.041   1.201   0.921
  527WAT     H2 1768   3.166   1.123   0.958
  528WAT      O 1769   3.482   2.323   2.477
  528WAT     H1 1770   3.391   2.319   2.446
  528WAT     H2 1771   3.494   2.414   2.504
  529WAT      O 1772   2.386   2.524   2.902
  529WAT     H1 1773   2.474   2.539   2.935
  529WAT     H2 1774   2.398   2.501   2.810
  530WAT      O 1775   1.841   0.646   2.427
  530WAT     H1 1776   1.919   0.607   2.467
  530WAT     H2 1777   1.860   0.649   2.334
  531WAT      O 1778   3.019   1.824   2.337
  531WAT     H1 1779   2.954   1.895   2.330
  531WAT     H2 1780   3.096   1.866   2.375
  532WAT      O 1781   3.028   3.789   0.100
  532WAT     H1 1782   3.081   3.748   0.032
  532WAT     H2 1783   3.002   3.873   0.064
  533WAT      O 1784   0.862   0.030   1.966
  533WAT     H1 1785   0.785   0.017   1.910
  533WAT     H2 1786   0.936   0.006   1.911
  534WAT      O 1787   0.129   0.475   3.060
  534WAT     H1 1788   0.094   0.530   2.991
  534WAT     H2 1789   0.052   0.446   3.109
  535WAT      O 1790   1.150   0.029   2.657
  535WAT     H1 1791   1.182   0.032   2.567
  535WAT     H2 1792   1.158  -0.063   2.681
  536WAT      O 1793   0.057   0.782   3.410
  536WAT     H1 1794   0.064   0.807   3.502
  536WAT     H2 1795  -0.021   0.827   3.378
  537WAT      O 1796   4.003   1.876   2.517
  537WAT     H1 1797   4.050   1.945   2.565
  537WAT     H2 1798   3.946   1.836   2.582
  538WAT      O 1799   1.894   2.808   1.135
  538WAT     H1 1800   1.966   2.771   1.084
  538WAT     H2 1801   1.931   2.824   1.221
  539WAT      O 1802   0.020   1.449   0.287
  539WAT     H1 1803   0.092   1.457   0.349
  539WAT     H2 1804  -0.059   1.458   0.340
  540WAT      O 1805   1.714   3.533   3.233
  540WAT     H1 1806   1.695   3.475   3.306
  540WAT     H2 1807   1.662   3.611   3.249
  541WAT      O 1808   3.688   1.524   1.889
  541WAT     H1 1809   3.720   1.559   1.805
  541WAT     H2 1810   3.679   1.601   1.945
  542WAT      O 1811   2.460   1.816   1.048
  542WAT     H1 1812   2.459   1.901   1.003
  542WAT     H2 1813   2.368   1.789   1.050
  543WAT      O 1814   2.890   0.210   0.056
  543WAT     H1 1815   2.928   0.258   0.130
  543WAT     H2 1816   2.812   0.260   0.032
  544WAT      O 1817   2.759   2.020   1.965
  544WAT     H1 1818   2.833   1.960   1.973
  544WAT     H2 1819   2.723   2.002   1.879
  545WAT      O 1820   3.281   0.924   0.686
  545WAT     H1 1821   3.292   0.907   0.780
  545WAT     H2 1822   3.195   0.967   0.680
  546WAT      O 1823   2.839   3.732   0.861
  546WAT     H1 1824   2.807   3.746   0.950
  546WAT     H2 1825   2.902   3.661   0.868
  547WAT      O 1826   0.021   3.300   0.027
  547WAT     H1 1827   0.040   3.247   0.104
  547WAT     H2 1828  -0.074   3.312   0.029
  548WAT      O 1829   3.057   2.364   3.276
  548WAT     H1 1830   3.142   2.351   3.318
  548WAT     H2 1831   3.002   2.295   3.313
  549WAT      O 1832   1.576   3.514   0.060
  549WAT     H1 1833   1.646   3.501   0.124
  549WAT     H2 1834   1.508   3.453   0.088
  550WAT      O 1835   2.027   0.726   3.107
  550WAT     H1 1836   2.117   0.760   3.108
  550WAT     H2 1837   2.030   0.653   3.045
  551WAT      O 1838   3.812   3.313   1.234
  551WAT     H1 1839   3.721   3.344   1.234
  551WAT     H2 1840   3.806   3.221   1.258
  552WAT      O 1841   1.573   0.296   0.407
  552WAT     H1 1842   1.665   0.288   0.381
  552WAT     H2 1843   1.524   0.260   0.334
  553WAT      O 1844   3.203   0.653   1.847
  553WAT     H1 1845   3.167   0.579   1.799
  553WAT     H2 1846   3.179   0.636   1.938
  554WAT      O 1847   1.657   0.689   0.215
  554WAT     H1 1848   1.596   0.617   0.234
  554WAT     H2 1849   1.631   0.759   0.274
  555WAT      O 1850   1.409   3.470   1.053
  555WAT     H1 1851   1.441   3.395   1.003
  555WAT     H2 1852   1.320   3.485   1.021
  556WAT      O 1853   0.726   1.436   2.319
  556WAT     H1 1854   0.756   1.520   2.285
  556WAT     H2 1855   0.760   1.372   2.256
  557WAT      O 1856   1.134   0.515   3.312
  557WAT     H1 1857   1.089   0.599   3.305
  557WAT     H2 1858   1.178   0.505   3.228
  558WAT      O 1859   1.535   1.223   3.627
  558WAT     H1 1860   1.451   1.179   3.612
  558WAT     H2 1861   1.596   1.153   3.649
  559WAT      O 1862   1.679   2.512   2.345
  559WAT     H1 1863   1.608   2.476   2.292
  559WAT     H2 1864   1.715   2.436   2.392
  560WAT      O 1865   3.713   1.282   0.057
  560WAT     H1 1866   3.722   1.220  -0.015
  560WAT     H2 1867   3.754   1.239   0.132
  561WAT      O 1868   2.946   1.393   1.481
  561WAT     H1 1869   2.871   1.339   1.455
  561WAT     H2 1870   2.968   1.443   1.403
  562WAT      O 1871   1.091   3.763   3.824
  562WAT     H1 1872   1.112   3.797   3.911
  562WAT     H2 1873   1.171   3.775   3.774
  563WAT      O 1874   2.260   1.273   0.655
  563WAT     H1 1875   2.333   1.216   0.632
  563WAT     H2 1876   2.206   1.277   0.576
  564WAT      O 1877   3.922   2.566   1.770
  564WAT     H1 1878   3.872   2.549   1.690
  564WAT     H2 1879   3.860   2.549   1.841
  565WAT      O 1880   3.787   1.612   1.657
  565WAT     H1 1881   3.801   1.578   1.568
  565WAT     H2 1882   3.873   1.640   1.687
  566WAT      O 1883   0.775   2.251   2.992
  566WAT     H1 1884   0.841   2.269   3.059
  566WAT     H2 1885   0.739   2.337   2.971
  567WAT      O 1886   1.859   2.958   3.401
  567WAT     H1 1887   1.924   3.014   3.443
  567WAT     H2 1888   1.802   3.019   3.355
  568WAT      O 1889   0.210   0.241   1.218
  568WAT     H1 1890   0.289   0.238   1.164
  568WAT     H2 1891   0.208   0.330   1.252
  569WAT      O 1892   0.595  -0.001   1.815
  569WAT     H1 1893   0.572  -0.007   1.722
  569WAT     H2 1894   0.605   0.092   1.831
  570WAT      O 1895   1.114   1.529   0.310
  570WAT     H1 1896   1.127   1.611   0.261
  570WAT     H2 1897   1.203   1.504   0.337
  571WAT      O 1898   2.568   2.393   1.758
  571WAT     H1 1899   2.658   2.390   1.792
  571WAT     H2 1900   2.574   2.352   1.671
  572WAT      O 1901   2.594   1.405   1.266
  572WAT     H1 1902   2.589   1.471   1.197
  572WAT     H2 1903   2.687   1.381   1.269
  573WAT      O 1904   0.563   1.218   3.610
  573WAT     H1 1905   0.558   1.122   3.608
  573WAT     H2 1906   0.509   1.245   3.535
  574WAT      O 1907   0.703   0.742   2.122
  574WAT     H1 1908   0.783   0.783   2.092
  574WAT     H2 1909   0.682   0.787   2.204
  575WAT      O 1910   0.142   3.645   1.158
  575WAT     H1 1911   0.189   3.566   1.133
  575WAT     H2 1912   0.051   3.618   1.167
  576WAT      O 1913   3.793   0.365   2.198
  576WAT     H1 1914   3.827   0.291   2.148
  576WAT     H2 1915   3.703   0.376   2.167
  577WAT      O 1916   1.640   2.547   1.568
  577WAT     H1 1917   1.623   2.589   1.483
  577WAT     H2 1918   1.555   2.550   1.613
  578WAT      O 1919   0.903   0.660   3.007
  578WAT     H1 1920   0.831   0.636   2.949
  578WAT     H2 1921   0.981   0.626   2.964
  579WAT      O 1922   1.838   2.690   2.746
  579WAT     H1 1923   1.865   2.736   2.826
  579WAT     H2 1924   1.757   2.735   2.720
  580WAT      O 1925   2.383   3.719   1.522
  580WAT     H1 1926   2.292   3.692   1.506
  580WAT     H2 1927   2.386   3.810   1.491
  581WAT      O 1928   2.635   2.631   2.967
  581WAT     H1 1929   2.636   2.703   3.030
  581WAT     H2 1930   2.677   2.667   2.889
  582WAT      O 1931   0.877   2.823   2.382
  582WAT     H1 1932   0.818   2.802   2.455
  582WAT     H2 1933   0.863   2.753   2.318
  583WAT      O 1934   3.435   3.387   3.023
  583WAT     H1 1935   3.481   3.445   2.962
  583WAT     H2 1936   3.392   3.446   3.085
  584WAT      O 1937   3.015   2.078   2.109
  584WAT     H1 1938   2.964   1.998   2.116
  584WAT     H2 1939   3.095   2.052   2.064
  585WAT      O 1940   2.188   2.858   2.584
  585WAT     H1 1941   2.179   2.763   2.590
  585WAT     H2 1942   2.207   2.886   2.674
  586WAT      O 1943   3.847   1.705   2.064
  586WAT     H1 1944   3.867   1.618   2.098
  586WAT     H2 1945   3.874   1.765   2.134
  587WAT      O 1946   2.836   3.577   0.066
  587WAT     H1 1947   2.912   3.629   0.094
  587WAT     H2 1948   2.791   3.556   0.148
  588WAT      O 1949   0.889   2.329   3.439
  588WAT     H1 1950   0.846   2.277   3.507
  588WAT     H2 1951   0.849   2.415   3.446
  589WAT      O 1952   3.593   2.223   3.553
  589WAT     H1 1953   3.595   2.310   3.594
  589WAT     H2 1954   3.595   2.241   3.459
  590WAT      O 1955   1.101   2.312   1.165
  590WAT     H1 1956   1.079   2.336   1.254
  590WAT     H2 1957   1.185   2.265   1.173
  591WAT      O 1958   1.651   0.636   3.057
  591WAT     H1 1959   1.603   0.689   2.993
  591WAT     H2 1960   1.583   0.585   3.102
  592WAT      O 1961   2.034   3.816   0.183
  592WAT     H1 1962   2.023   3.722   0.198
  592WAT     H2 1963   1.948   3.846   0.153
  593WAT      O 1964   1.003   0.968   2.917
  593WAT     H1 1965   0.948   1.045   2.904
  593WAT     H2 1966   0.948   0.908   2.968
  594WAT      O 1967   2.464   0.630   0.218
  594WAT     H1 1968   2.556   0.647   0.197
  594WAT     H2 1969   2.416   0.698   0.169
  595WAT      O 1970   0.754   2.248   1.437
  595WAT     H1 1971   0.751   2.195   1.517
  595WAT     H2 1972   0.753   2.339   1.469
  596WAT      O 1973   2.234   2.245   2.910
  596WAT     H1 1974   2.281   2.191   2.847
  596WAT     H2 1975   2.169   2.187   2.949
  597WAT      O 1976   0.984   2.932   2.736
  597WAT     H1 1977   1.028   3.003   2.783
  597WAT     H2 1978   0.941   2.976   2.663
  598WAT      O 1979   3.270   2.586   1.168
  598WAT     H1 1980   3.243   2.511   1.220
  598WAT     H2 1981   3.223   2.577   1.085
  599WAT      O 1982   1.395   0.644   0.409
  599WAT     H1 1983   1.434   0.653   0.496
  599WAT     H2 1984   1.362   0.732   0.389
  600WAT      O 1985   3.562   1.268   2.049
  600WAT     H1 1986   3.529   1.352   2.017
  600WAT     H2 1987   3.507   1.248   2.124
  601WAT      O 1988   2.649   0.259   2.602
  601WAT     H1 1989   2.712   0.271   2.672
  601WAT     H2 1990   2.590   0.334   2.609
  602WAT      O 1991   0.769   2.693   1.799
  602WAT     H1 1992   0.812   2.735   1.873
  602WAT     H2 1993   0.697   2.752   1.777
  603WAT      O 1994   0.389   0.526   3.120
  603WAT     H1 1995   0.306   0.493   3.086
  603WAT     H2 1996   0.367   0.562   3.206
  604WAT      O 1997   1.414   1.198   2.972
  604WAT     H1 1998   1.381   1.191   3.061
  604WAT     H2 1999   1.344   1.163   2.917
  605WAT      O 2000   1.459   1.797   2.791
  605WAT     H1 2001   1.517   1.871   2.775
  605WAT     H2 2002   1.376   1.822   2.751
  606WAT      O 2003   0.317   0.025   3.064
  606WAT     H1 2004   0.366  -0.038   3.012
  606WAT     H2 2005   0.379   0.097   3.078
  607WAT      O 2006   1.857   2.249   2.991
  607WAT     H1 2007   1.825   2.161   2.972
  607WAT     H2 2008   1.933   2.236   3.047
  608WAT      O 2009   1.665   3.072   0.508
  608WAT     H1 2010   1.671   2.988   0.462
  608WAT     H2 2011   1.621   3.051   0.590
  609WAT      O 2012   1.517   0.266   1.805
  609WAT     H1 2013   1.438   0.314   1.777
  609WAT     H2 2014   1.570   0.260   1.726
  610WAT      O 2015   2.374   3.042   2.511
  610WAT     H1 2016   2.313   2.969   2.520
  610WAT     H2 2017   2.327   3.106   2.458
  611WAT      O 2018   1.157   3.222   1.016
  611WAT     H1 2019   1.163   3.316   0.997
  611WAT     H2 2020   1.170   3.216   1.111
  612WAT      O 2021   0.753   1.066   1.907
  612WAT     H1 2022   0.802   0.988   1.879
  612WAT     H2 2023   0.671   1.031   1.941
  613WAT      O 2024   3.865   0.655   3.062
  613WAT     H1 2025   3.864   0.635   3.156
  613WAT     H2 2026   3.930   0.724   3.053
  614WAT      O 2027   3.432   1.193   1.603
  614WAT     H1 2028   3.522   1.196   1.635
  614WAT     H2 2029   3.436   1.228   1.514
  615WAT      O 2030   2.923   2.431   0.653
  615WAT     H1 2031   2.873   2.376   0.713
  615WAT     H2 2032   3.004   2.382   0.637
  616WAT      O 2033   1.297   1.661   0.677
  616WAT     H1 2034   1.314   1.710   0.597
  616WAT     H2 2035   1.291   1.727   0.746
  617WAT      O 2036   2.419   0.907   2.751
  617WAT     H1 2037   2.348   0.958   2.790
  617WAT     H2 2038   2.489   0.970   2.735
  618WAT      O 2039   0.388   3.337   2.666
  618WAT     H1 2040   0.370   3.246   2.689
  618WAT     H2 2041   0.321   3.359   2.602
  619WAT      O 2042   0.576   0.349   3.805
  619WAT     H1 2043   0.612   0.282   3.864
  619WAT     H2 2044   0.481   0.344   3.817
  620WAT      O 2045   0.029   2.347   0.752
  620WAT     H1 2046   0.042   2.266   0.801
  620WAT     H2 2047   0.099   2.348   0.687
  621WAT      O 2048   2.602   0.228   1.341
  621WAT     H1 2049   2.549   0.283   1.283
  621WAT     H2 2050   2.633   0.158   1.284
  622WAT      O 2051   3.790   1.305   2.197
  622WAT     H1 2052   3.743   1.295   2.114
  622WAT     H2 2053   3.874   1.344   2.172
  623WAT      O 2054   1.126   0.412   0.668
  623WAT     H1 2055   1.129   0.462   0.749
  623WAT     H2 2056   1.217   0.405   0.640
  624WAT      O 2057   1.860   3.754   2.373
  624WAT     H1 2058   1.788   3.808   2.341
  624WAT     H2 2059   1.849   3.670   2.329
  625WAT      O 2060   2.257   0.260   0.756
  625WAT     H1 2061   2.196   0.289   0.824
  625WAT     H2 2062   2.271   0.338   0.702
  626WAT      O 2063   3.768   1.830   0.527
  626WAT     H1 2064   3.855   1.831   0.567
  626WAT     H2 2065   3.709   1.810   0.600
  627WAT      O 2066   3.790   0.441   1.333
  627WAT     H1 2067   3.877   0.472   1.360
  627WAT     H2 2068   3.796   0.345   1.340
  628WAT      O 2069   3.913   2.219   2.695
  628WAT     H1 2070   3.842   2.176   2.646
  628WAT     H2 2071   3.896   2.313   2.684
  629WAT      O 2072   0.658   0.797   2.387
  629WAT     H1 2073   0.636   0.878   2.343
  629WAT     H2 2074   0.593   0.789   2.457
  630WAT      O 2075   0.093   3.830   0.523
  630WAT     H1 2076   0.171   3.776   0.522
  630WAT     H2 2077   0.080   3.857   0.432
  631WAT      O 2078   0.009   2.500   2.921
  631WAT     H1 2079   0.098   2.530   2.934
  631WAT     H2 2080   0.005   2.475   2.829
  632WAT      O 2081   0.565   2.121   1.246
  632WAT     H1 2082   0.505   2.194   1.261
  632WAT     H2 2083   0.642   2.143   1.299
  633WAT      O 2084   2.939   1.811   1.979
  633WAT     H1 2085   2.995   1.767   2.043
  633WAT     H2 2086   2.979   1.790   1.894
  634WAT      O 2087   1.752   0.786   0.620
  634WAT     H1 2088   1.743   0.788   0.524
  634WAT     H2 2089   1.821   0.849   0.639
  635WAT      O 2090   3.787   1.766   1.077
  635WAT     H1 2091   3.695   1.767   1.048
  635WAT     H2 2092   3.784   1.801   1.166
  636WAT      O 2093   2.863   3.888   2.651
  636WAT     H1 2094   2.796   3.821   2.633
  636WAT     H2 2095   2.818   3.952   2.706
  637WAT      O 2096   1.062   1.125   1.488
  637WAT     H1 2097   1.086   1.129   1.396
  637WAT     H2 2098   1.142   1.099   1.533
  638WAT      O 2099   2.386   2.337   0.885
  638WAT     H1 2100   2.304   2.377   0.855
  638WAT     H2 2101   2.393   2.364   0.977
  639WAT      O 2102   2.662   3.245   4.028
  639WAT     H1 2103   2.736   3.305   4.029
  639WAT     H2 2104   2.693   3.170   3.977
  640WAT      O 2105   3.358   3.708   2.381
  640WAT     H1 2106   3.295   3.749   2.322
  640WAT     H2 2107   3.424   3.776   2.398
  641WAT      O 2108   3.628   3.032   2.001
  641WAT     H1 2109   3.670   3.116   2.017
  641WAT     H2 2110   3.557   3.028   2.066
  642WAT      O 2111   1.316   2.988   1.480
  642WAT     H1 2112   1.227   2.959   1.500
  642WAT     H2 2113   1.365   2.971   1.561
  643WAT      O 2114   3.880   3.693   4.019
  643WAT     H1 2115   3.891   3.788   4.024
  643WAT     H2 2116   3.966   3.660   3.990
  644WAT      O 2117   4.024   0.703   0.595
  644WAT     H1 2118   3.965   0.629   0.587
  644WAT     H2 2119   4.103   0.677   0.547
  645WAT      O 2120   0.019   0.080   3.063
  645WAT     H1 2121   0.082   0.068   3.134
  645WAT     H2 2122   0.010  -0.007   3.023
  646WAT      O 2123   0.921   2.602   2.215
  646WAT     H1 2124   0.941   2.516   2.179
  646WAT     H2 2125   0.960   2.664   2.154
  647WAT      O 2126   1.856   2.836   2.966
  647WAT     H1 2127   1.786   2.902   2.966
  647WAT     H2 2128   1.888   2.836   3.056
  648WAT      O 2129   2.096   1.697   3.477
  648WAT     H1 2130   2.149   1.759   3.528
  648WAT     H2 2131   2.160   1.640   3.436
  649WAT      O 2132   0.582   1.354   1.245
  649WAT     H1 2133   0.669   1.373   1.280
  649WAT     H2 2134   0.524   1.417   1.288
  650WAT      O 2135   1.954   2.796   0.760
  650WAT     H1 2136   2.009   2.851   0.705
  650WAT     H2 2137   2.010   2.770   0.833
  651WAT      O 2138   3.880   3.967   0.031
  651WAT     H1 2139   3.928   3.963   0.114
  651WAT     H2 2140   3.942   4.003  -0.032
  652WAT      O 2141   2.717   1.885   2.495
  652WAT     H1 2142   2.757   1.959   2.542
  652WAT     H2 2143   2.713   1.815   2.561
  653WAT      O 2144   0.952   3.676   2.640
  653WAT     H1 2145   0.864   3.708   2.658
  653WAT     H2 2146   0.984   3.732   2.569
  654WAT      O 2147   1.722   0.228   3.485
  654WAT     H1 2148   1.811   0.234   3.450
  654WAT     H2 2149   1.715   0.138   3.516
  655WAT      O 2150   1.512   2.548   0.684
  655WAT     H1 2151   1.515   2.502   0.767
  655WAT     H2 2152   1.598   2.589   0.675
  656WAT      O 2153   3.273   3.457   1.209
  656WAT     H1 2154   3.312   3.409   1.136
  656WAT     H2 2155   3.243   3.390   1.270
  657WAT      O 2156   3.799   0.735   2.013
  657WAT     H1 2157   3.778   0.689   2.094
  657WAT     H2 2158   3.726   0.714   1.955
  658WAT      O 2159   0.129   0.716   3.963
  658WAT     H1 2160   0.200   0.685   4.019
  658WAT     H2 2161   0.054   0.723   4.021
  659WAT      O 2162   2.685   2.414   3.142
  659WAT     H1 2163   2.694   2.337   3.085
  659WAT     H2 2164   2.683   2.488   3.081
  660WAT      O 2165   1.355   3.022   3.766
  660WAT     H1 2166   1.347   2.963   3.841
  660WAT     H2 2167   1.404   2.972   3.701
  661WAT      O 2168   2.908   3.944   3.593
  661WAT     H1 2169   3.001   3.923   3.605
  661WAT     H2 2170   2.893   4.021   3.648
  662WAT      O 2171   1.820   0.519   3.222
  662WAT     H1 2172   1.842   0.457   3.152
  662WAT     H2 2173   1.756   0.578   3.182
  663WAT      O 2174   1.017   3.800   3.359
  663WAT     H1 2175   0.977   3.741   3.295
  663WAT     H2 2176   0.944   3.833   3.411
  664WAT      O 2177   0.572   1.372   0.188
  664WAT     H1 2178   0.597   1.453   0.234
  664WAT     H2 2179   0.645   1.356   0.127
  665WAT      O 2180   2.619   2.866   0.865
  665WAT     H1 2181   2.710   2.836   0.858
  665WAT     H2 2182   2.569   2.786   0.881
  666WAT      O 2183   3.902   3.507   1.085
  666WAT     H1 2184   3.853   3.583   1.118
  666WAT     H2 2185   3.861   3.432   1.127
  667WAT      O 2186   2.807   1.262   2.898
  667WAT     H1 2187   2.892   1.297   2.871
  667WAT     H2 2188   2.821   1.168   2.904
  668WAT      O 2189   0.759   1.130   0.973
  668WAT     H1 2190   0.696   1.202   0.971
  668WAT     H2 2191   0.844   1.172   0.974
  669WAT      O 2192   1.359   0.921   2.595
  669WAT     H1 2193   1.291   0.875   2.644
  669WAT     H2 2194   1.419   0.954   2.662
  670WAT      O 2195   3.673   3.149   3.456
  670WAT     H1 2196   3.695   3.232   3.498
  670WAT     H2 2197   3.713   3.154   3.369
  671WAT      O 2198   2.782   3.173   1.736
  671WAT     H1 2199   2.792   3.113   1.662
  671WAT     H2 2200   2.750   3.254   1.697
  672WAT      O 2201   1.263   1.242   0.334
  672WAT     H1 2202   1.349   1.203   0.324
  672WAT     H2 2203   1.267   1.289   0.417
  673WAT      O 2204   1.897   3.198   2.011
  673WAT     H1 2205   1.874   3.202   2.104
  673WAT     H2 2206   1.865   3.112   1.982
  674WAT      O 2207   0.354   0.996   1.885
  674WAT     H1 2208   0.388   0.956   1.804
  674WAT     H2 2209   0.269   1.032   1.860
  675WAT      O 2210   3.625   2.732   1.634
  675WAT     H1 2211   3.603   2.806   1.578
  675WAT     H2 2212   3.606   2.763   1.723
  676WAT      O 2213   0.346   0.474   1.550
  676WAT     H1 2214   0.349   0.518   1.635
  676WAT     H2 2215   0.423   0.506   1.504
  677WAT      O 2216   0.892   1.237   2.827
  677WAT     H1 2217   0.802   1.218   2.855
  677WAT     H2 2218   0.923   1.300   2.892
  678WAT      O 2219   2.569   2.977   1.635
  678WAT     H1 2220   2.505   3.019   1.692
  678WAT     H2 2221   2.643   2.956   1.692
  679WAT      O 2222   3.179   2.345   3.602
  679WAT     H1 2223   3.138   2.259   3.605
  679WAT     H2 2224   3.240   2.341   3.529
  680WAT      O 2225   2.541   3.374   3.267
  680WAT     H1 2226   2.474   3.396   3.203
  680WAT     H2 2227   2.614   3.341   3.215
  681WAT      O 2228   3.689   3.802   3.391
  681WAT     H1 2229   3.641   3.885   3.390
  681WAT     H2 2230   3.732   3.801   3.477
  682WAT      O 2231   0.561   1.365   0.953
  682WAT     H1 2232   0.467   1.352   0.957
  682WAT     H2 2233   0.589   1.371   1.044
  683WAT      O 2234   3.461   1.547   2.038
  683WAT     H1 2235   3.389   1.499   1.999
  683WAT     H2 2236   3.539   1.517   1.990
  684WAT      O 2237   1.584   1.226   1.109
  684WAT     H1 2238   1.653   1.284   1.075
  684WAT     H2 2239   1.620   1.138   1.099
  685WAT      O 2240   1.578   2.336   3.401
  685WAT     H1 2241   1.598   2.335   3.307
  685WAT     H2 2242   1.483   2.349   3.404
  686WAT      O 2243   3.660   1.010   1.318
  686WAT     H1 2244   3.749   1.046   1.317
  686WAT     H2 2245   3.631   1.016   1.226
  687WAT      O 2246   2.136   0.896   0.150
  687WAT     H1 2247   2.198   0.911   0.222
  687WAT     H2 2248   2.187   0.914   0.071
  688WAT      O 2249   1.670   2.407   3.767
  688WAT     H1 2250   1.604   2.474   3.748
  688WAT     H2 2251   1.725   2.404   3.689
  689WAT      O 2252   0.670   3.025   1.330
  689WAT     H1 2253   0.666   2.930   1.340
  689WAT     H2 2254   0.587   3.048   1.288
  690WAT      O 2255   0.295   0.333   0.192
  690WAT     H1 2256   0.209   0.348   0.231
  690WAT     H2 2257   0.354   0.389   0.242
  691WAT      O 2258   4.026   3.842   2.453
  691WAT     H1 2259   3.955   3.778   2.458
  691WAT     H2 2260   4.048   3.861   2.544
  692WAT      O 2261   2.355   0.414   0.082
  692WAT     H1 2262   2.361   0.485   0.019
  692WAT     H2 2263   2.354   0.457   0.167
  693WAT      O 2264   2.270   3.212   0.099
  693WAT     H1 2265   2.188   3.258   0.085
  693WAT     H2 2266   2.293   3.177   0.013
  694WAT      O 2267   2.605   2.859   1.393
  694WAT     H1 2268   2.546   2.912   1.339
  694WAT     H2 2269   2.609   2.906   1.476
  695WAT      O 2270   3.610   1.802   2.948
  695WAT     H1 2271   3.562   1.879   2.979
  695WAT     H2 2272   3.586   1.732   3.009
  696WAT      O 2273   2.470   3.836   3.784
  696WAT     H1 2274   2.523   3.885   3.721
  696WAT     H2 2275   2.534   3.784   3.834
  697WAT      O 2276   2.478   3.045   1.209
  697WAT     H1 2277   2.517   3.080   1.129
  697WAT     H2 2278   2.451   3.122   1.258
  698WAT      O 2279   2.951   2.571   1.315
  698WAT     H1 2280   2.894   2.505   1.356
  698WAT     H2 2281   3.039   2.534   1.323
  699WAT      O 2282   3.955   2.267   1.977
  699WAT     H1 2283   3.891   2.330   1.944
  699WAT     H2 2284   3.984   2.304   2.060
  700WAT      O 2285   3.993   0.260   2.654
  700WAT     H1 2286   3.955   0.345   2.634
  700WAT     H2 2287   4.033   0.270   2.740
  701WAT      O 2288   2.259   3.907   3.647
  701WAT     H1 2289   2.228   3.831   3.598
  701WAT     H2 2290   2.309   3.870   3.719
  702WAT      O 2291   2.103   1.123   3.948
  702WAT     H1 2292   2.170   1.076   3.900
  702WAT     H2 2293   2.147   1.200   3.984
  703WAT      O 2294   0.632   1.646   3.921
  703WAT     H1 2295   0.714   1.608   3.888
  703WAT     H2 2296   0.571   1.572   3.923
  704WAT      O 2297   3.684   2.504   2.237
  704WAT     H1 2298   3.762   2.551   2.266
  704WAT     H2 2299   3.611   2.555   2.273
  705WAT      O 2300   0.970   0.415   1.756
  705WAT     H1 2301   0.875   0.403   1.760
  705WAT     H2 2302   0.989   0.430   1.664
  706WAT      O 2303   3.438   0.052   0.598
  706WAT     H1 2304   3.513   0.102   0.567
  706WAT     H2 2305   3.369   0.116   0.611
  707WAT      O 2306   3.126   2.786   2.284
  707WAT     H1 2307   3.100   2.797   2.193
  707WAT     H2 2308   3.128   2.691   2.297
  708WAT      O 2309   2.309   2.121   1.387
  708WAT     H1 2310   2.301   2.181   1.462
  708WAT     H2 2311   2.289   2.035   1.423
  709WAT      O 2312   3.056   3.362   0.517
  709WAT     H1 2313   3.148   3.385   0.517
  709WAT     H2 2314   3.037   3.338   0.426
  710WAT      O 2315   2.006   2.552   2.923
  710WAT     H1 2316   1.938   2.493   2.891
  710WAT     H2 2317   1.958   2.626   2.961
  711WAT      O 2318   1.157   3.188   3.915
  711WAT     H1 2319   1.170   3.174   4.009
  711WAT     H2 2320   1.234   3.149   3.874
  712WAT      O 2321   1.378   2.653   4.028
  712WAT     H1 2322   1.290   2.616   4.034
  712WAT     H2 2323   1.366   2.737   3.983
  713WAT      O 2324   3.221   2.584   0.695
  713WAT     H1 2325   3.190   2.603   0.607
  713WAT     H2 2326   3.297   2.640   0.707
  714WAT      O 2327   2.850   2.552   1.772
  714WAT     H1 2328   2.859   2.458   1.789
  714WAT     H2 2329   2.914   2.569   1.703
  715WAT      O 2330   0.781   3.562   0.860
  715WAT     H1 2331   0.741   3.476   0.845
  715WAT     H2 2332   0.785   3.570   0.956
  716WAT      O 2333   3.201   1.991   1.780
  716WAT     H1 2334   3.287   2.015   1.744
  716WAT     H2 2335   3.221   1.952   1.865
  717WAT      O 2336   2.862   0.241   0.483
  717WAT     H1 2337   2.916   0.163   0.470
  717WAT     H2 2338   2.907   0.310   0.434
  718WAT      O 2339   1.083   2.865   1.691
  718WAT     H1 2340   1.084   2.771   1.674
  718WAT     H2 2341   0.991   2.891   1.678
  719WAT      O 2342   1.667   2.998   1.739
  719WAT     H1 2343   1.676   2.973   1.832
  719WAT     H2 2344   1.581   2.965   1.714
  720WAT      O 2345   0.718   2.521   0.525
  720WAT     H1 2346   0.720   2.615   0.514
  720WAT     H2 2347   0.633   2.494   0.489
  721WAT      O 2348   0.811   1.748   2.538
  721WAT     H1 2349   0.795   1.709   2.624
  721WAT     H2 2350   0.729   1.738   2.490
  722WAT      O 2351   3.254   3.199   2.232
  722WAT     H1 2352   3.184   3.136   2.215
  722WAT     H2 2353   3.215   3.284   2.211
  723WAT      O 2354   1.613   3.728   0.795
  723WAT     H1 2355   1.586   3.695   0.881
  723WAT     H2 2356   1.613   3.651   0.739
  724WAT      O 2357   0.207   1.595   1.908
  724WAT     H1 2358   0.204   1.602   2.003
  724WAT     H2 2359   0.170   1.508   1.889
  725WAT      O 2360   1.384   3.213   1.331
  725WAT     H1 2361   1.478   3.222   1.316
  725WAT     H2 2362   1.378   3.160   1.411
  726WAT      O 2363   0.860   2.030   1.267
  726WAT     H1 2364   0.861   2.105   1.326
  726WAT     H2 2365   0.883   1.956   1.323
  727WAT      O 2366   3.444   3.699   0.106
  727WAT     H1 2367   3.531   3.660   0.095
  727WAT     H2 2368   3.461   3.781   0.153
  728WAT      O 2369   2.013   0.385   0.456
  728WAT     H1 2370   2.075   0.354   0.389
  728WAT     H2 2371   1.930   0.346   0.432
  729WAT      O 2372   1.097   2.154   1.450
  729WAT     H1 2373   1.106   2.185   1.540
  729WAT     H2 2374   1.066   2.230   1.401
  730WAT      O 2375   3.489   3.176   1.719
  730WAT     H1 2376   3.546   3.231   1.772
  730WAT     H2 2377   3.422   3.144   1.779
  731WAT      O 2378   2.045   0.611   1.270
  731WAT     H1 2379   2.105   0.536   1.272
  731WAT     H2 2380   1.995   0.599   1.188
  732WAT      O 2381   2.116   2.710   1.719
  732WAT     H1 2382   2.190   2.754   1.761
  732WAT     H2 2383   2.044   2.774   1.724
  733WAT      O 2384   2.457   1.788   2.152
  733WAT     H1 2385   2.407   1.849   2.098
  733WAT     H2 2386   2.448   1.822   2.241
  734WAT      O 2387   2.953   4.001   3.990
  734WAT     H1 2388   2.934   4.009   3.896
  734WAT     H2 2389   2.938   4.089   4.025
  735WAT      O 2390   3.894   2.504   0.153
  735WAT     H1 2391   3.878   2.508   0.059
  735WAT     H2 2392   3.889   2.411   0.174
  736WAT      O 2393   3.227   0.680   0.482
  736WAT     H1 2394   3.248   0.772   0.497
  736WAT     H2 2395   3.290   0.652   0.415
  737WAT      O 2396   2.001   2.578   0.245
  737WAT     H1 2397   1.957   2.496   0.265
  737WAT     H2 2398   1.940   2.625   0.188
  738WAT      O 2399   0.953   2.629   1.179
  738WAT     H1 2400   1.005   2.623   1.099
  738WAT     H2 2401   0.884   2.564   1.168
  739WAT      O 2402   3.526   1.439   2.909
  739WAT     H1 2403   3.506   1.346   2.911
  739WAT     H2 2404   3.442   1.482   2.894
  740WAT      O 2405   3.298   3.636   3.708
  740WAT     H1 2406   3.227   3.617   3.646
  740WAT     H2 2407   3.358   3.692   3.658
  741WAT      O 2408   0.875   1.374   1.326
  741WAT     H1 2409   0.896   1.393   1.418
  741WAT     H2 2410   0.957   1.388   1.279
  742WAT      O 2411   3.694   3.715   3.803
  742WAT     H1 2412   3.745   3.724   3.883
  742WAT     H2 2413   3.756   3.733   3.733
  743WAT      O 2414   2.610   2.541   3.351
  743WAT     H1 2415   2.681   2.510   3.407
  743WAT     H2 2416   2.629   2.505   3.265
  744WAT      O 2417   3.796   0.355   0.185
  744WAT     H1 2418   3.771   0.447   0.189
  744WAT     H2 2419   3.729   0.309   0.236
  745WAT      O 2420   1.521   2.363   1.245
  745WAT     H1 2421   1.508   2.399   1.333
  745WAT     H2 2422   1.616   2.351   1.238
  746WAT      O 2423   2.299   0.160   3.139
  746WAT     H1 2424   2.293   0.254   3.123
  746WAT     H2 2425   2.309   0.152   3.233
  747WAT      O 2426   0.903   0.527   1.241
  747WAT     H1 2427   0.857   0.579   1.307
  747WAT     H2 2428   0.938   0.592   1.180
  748WAT      O 2429   1.025   3.581   1.602
  748WAT     H1 2430   1.082   3.657   1.597
  748WAT     H2 2431   1.064   3.518   1.541
  749WAT      O 2432   3.183   2.312   0.623
  749WAT     H1 2433   3.213   2.401   0.606
  749WAT     H2 2434   3.250   2.256   0.583
  750WAT      O 2435   2.173   3.065   3.166
  750WAT     H1 2436   2.254   3.019   3.145
  750WAT     H2 2437   2.173   3.071   3.261
  751WAT      O 2438   0.779   0.156   0.855
  751WAT     H1 2439   0.703   0.100   0.837
  751WAT     H2 2440   0.804   0.134   0.945
  752WAT      O 2441   2.313   2.537   2.487
  752WAT     H1 2442   2.238   2.556   2.545
  752WAT     H2 2443   2.388   2.531   2.547
  753WAT      O 2444   0.582   1.411   2.882
  753WAT     H1 2445   0.487   1.401   2.876
  753WAT     H2 2446   0.605   1.380   2.970
  754WAT      O 2447   2.320   0.948   0.352
  754WAT     H1 2448   2.319   1.033   0.395
  754WAT     H2 2449   2.410   0.937   0.321
  755WAT      O 2450   3.574   2.010   2.283
  755WAT     H1 2451   3.632   1.935   2.279
  755WAT     H2 2452   3.630   2.085   2.261
  756WAT      O 2453   2.940   1.983   1.694
  756WAT     H1 2454   2.963   2.033   1.616
  756WAT     H2 2455   3.016   1.990   1.751
  757WAT      O 2456   3.467   3.961   2.736
  757WAT     H1 2457   3.416   4.011   2.800
  757WAT     H2 2458   3.537   4.021   2.710
  758WAT      O 2459   3.193   2.815   0.151
  758WAT     H1 2460   3.187   2.791   0.059
  758WAT     H2 2461   3.193   2.911   0.150
  759WAT      O 2462   3.071   3.098   3.820
  759WAT     H1 2463   3.160   3.068   3.803
  759WAT     H2 2464   3.075   3.192   3.807
  760WAT      O 2465   2.785   0.081   1.672
  760WAT     H1 2466   2.733   0.084   1.752
  760WAT     H2 2467   2.781   0.170   1.638
  761WAT      O 2468   1.968   3.904   3.204
  761WAT     H1 2469   2.025   3.837   3.241
  761WAT     H2 2470   2.026   3.975   3.177
  762WAT      O 2471   3.088   2.275   2.989
  762WAT     H1 2472   3.069   2.274   3.082
  762WAT     H2 2473   3.085   2.183   2.963
  763WAT      O 2474   2.052   3.520   3.906
  763WAT     H1 2475   2.132   3.548   3.861
  763WAT     H2 2476   2.003   3.601   3.920
  764WAT      O 2477   0.465   3.553   0.704
  764WAT     H1 2478   0.554   3.574   0.730
  764WAT     H2 2479   0.468   3.460   0.680
  765WAT      O 2480   0.809   3.073   1.567
  765WAT     H1 2481   0.880   3.111   1.516
  765WAT     H2 2482   0.739   3.058   1.504
  766WAT      O 2483   3.918   0.864   0.794
  766WAT     H1 2484   3.861   0.898   0.725
  766WAT     H2 2485   3.984   0.813   0.747
  767WAT      O 2486   1.862   3.168   1.157
  767WAT     H1 2487   1.855   3.230   1.084
  767WAT     H2 2488   1.919   3.098   1.124
  768WAT      O 2489   2.011   3.049   2.616
  768WAT     H1 2490   2.064   2.969   2.618
  768WAT     H2 2491   1.926   3.023   2.651
  769WAT      O 2492   0.586   1.996   3.308
  769WAT     H1 2493   0.643   1.966   3.378
  769WAT     H2 2494   0.551   2.079   3.339
  770WAT      O 2495   2.430   0.897   2.463
  770WAT     H1 2496   2.427   0.845   2.544
  770WAT     H2 2497   2.524   0.910   2.448
  771WAT      O 2498   1.669   3.559   1.972
  771WAT     H1 2499   1.742   3.595   1.922
  771WAT     H2 2500   1.625   3.499   1.912
  772WAT      O 2501   1.349   1.083   1.530
  772WAT     H1 2502   1.336   0.994   1.564
  772WAT     H2 2503   1.440   1.084   1.501
  773WAT      O 2504   0.662   0.501   2.297
  773WAT     H1 2505   0.650   0.553   2.376
  773WAT     H2 2506   0.630   0.556   2.226
  774WAT      O 2507   1.162   2.936   1.939
  774WAT     H1 2508   1.160   2.915   1.846
  774WAT     H2 2509   1.139   3.029   1.943
  775WAT      O 2510   0.324   0.969   1.412
  775WAT     H1 2511   0.251   1.019   1.449
  775WAT     H2 2512   0.336   1.004   1.324
  776WAT      O 2513   2.469   0.084   0.686
  776WAT     H1 2514   2.390   0.138   0.694
  776WAT     H2 2515   2.539   0.147   0.670
  777WAT      O 2516   1.481   1.763   0.074
  777WAT     H1 2517   1.525   1.798   0.152
  777WAT     H2 2518   1.475   1.838   0.015
  778WAT      O 2519   1.415   1.449   0.991
  778WAT     H1 2520   1.419   1.445   0.895
  778WAT     H2 2521   1.491   1.400   1.020
  779WAT      O 2522   0.516   1.112   1.165
  779WAT     H1 2523   0.602   1.072   1.151
  779WAT     H2 2524   0.535   1.201   1.194
  780WAT      O 2525   3.303   3.879   0.759
  780WAT     H1 2526   3.333   3.943   0.694
  780WAT     H2 2527   3.210   3.901   0.772
  781WAT      O 2528   0.346   2.311   3.724
  781WAT     H1 2529   0.319   2.297   3.814
  781WAT     H2 2530   0.361   2.405   3.717
  782WAT      O 2531   3.424   2.533   2.706
  782WAT     H1 2532   3.370   2.454   2.717
  782WAT     H2 2533   3.406   2.585   2.784
  783WAT      O 2534   0.792   3.858   0.895
  783WAT     H1 2535   0.706   3.897   0.875
  783WAT     H2 2536   0.790   3.773   0.851
  784WAT      O 2537   3.687   3.974   0.769
  784WAT     H1 2538   3.655   4.042   0.710
  784WAT     H2 2539   3.742   3.919   0.715
  785WAT      O 2540   2.469   2.576   1.979
  785WAT     H1 2541   2.432   2.550   2.064
  785WAT     H2 2542   2.500   2.494   1.940
  786WAT      O 2543   2.163   2.878   2.891
  786WAT     H1 2544   2.074   2.875   2.928
  786WAT     H2 2545   2.219   2.848   2.962
  787WAT      O 2546   0.499   2.924   0.916
  787WAT     H1 2547   0.506   2.833   0.945
  787WAT     H2 2548   0.450   2.918   0.833
  788WAT      O 2549   2.439   1.854   3.005
  788WAT     H1 2550   2.414   1.762   3.016
  788WAT     H2 2551   2.533   1.855   3.022
  789WAT      O 2552   0.756   0.014   2.935
  789WAT     H1 2553   0.815   0.085   2.956
  789WAT     H2 2554   0.808  -0.065   2.949
  790WAT      O 2555   3.167   3.218   3.222
  790WAT     H1 2556   3.254   3.230   3.261
  790WAT     H2 2557   3.109   3.204   3.297
  791WAT      O 2558   3.464   3.889   3.724
  791WAT     H1 2559   3.517   3.950   3.673
  791WAT     H2 2560   3.524   3.853   3.789
  792WAT      O 2561   2.968   0.112   2.212
  792WAT     H1 2562   3.039   0.079   2.158
  792WAT     H2 2563   2.944   0.038   2.268
  793WAT      O 2564   3.276   0.419   0.617
  793WAT     H1 2565   3.299   0.505   0.582
  793WAT     H2 2566   3.360   0.374   0.627
  794WAT      O 2567   0.448   0.216   1.053
  794WAT     H1 2568   0.479   0.127   1.072
  794WAT     H2 2569   0.449   0.221   0.957
  795WAT      O 2570   0.206   0.557   1.315
  795WAT     H1 2571   0.272   0.561   1.384
  795WAT     H2 2572   0.128   0.596   1.354
  796WAT      O 2573   0.973   1.441   0.522
  796WAT     H1 2574   1.027   1.457   0.444
  796WAT     H2 2575   0.887   1.420   0.488
  797WAT      O 2576   1.408   0.592   1.085
  797WAT     H1 2577   1.366   0.607   1.170
  797WAT     H2 2578   1.444   0.503   1.092
  798WAT      O 2579   3.506   2.526   3.425
  798WAT     H1 2580   3.568   2.597   3.408
  798WAT     H2 2581   3.532   2.491   3.510
  799WAT      O 2582   2.417   2.610   1.677
  799WAT     H1 2583   2.406   2.685   1.736
  799WAT     H2 2584   2.455   2.542   1.732
  800WAT      O 2585   2.580   0.754   0.500
  800WAT     H1 2586   2.628   0.836   0.489
  800WAT     H2 2587   2.562   0.723   0.411
  801WAT      O 2588   1.913   0.040   1.528
  801WAT     H1 2589   1.849  -0.005   1.582
  801WAT     H2 2590   1.919   0.127   1.565
  802WAT      O 2591   1.820   0.280   1.138
  802WAT     H1 2592   1.734   0.255   1.172
  802WAT     H2 2593   1.881   0.221   1.182
  803WAT      O 2594   3.107   1.764   3.921
  803WAT     H1 2595   3.194   1.802   3.913
  803WAT     H2 2596   3.122   1.669   3.926
  804WAT      O 2597   3.035   3.604   1.547
  804WAT     H1 2598   3.115   3.567   1.508
  804WAT     H2 2599   3.036   3.573   1.637
  805WAT      O 2600   3.106   2.719   0.492
  805WAT     H1 2601   3.107   2.723   0.396
  805WAT     H2 2602   3.014   2.731   0.516
  806WAT      O 2603   2.447   0.581   0.878
  806WAT     H1 2604   2.519   0.518   0.875
  806WAT     H2 2605   2.368   0.527   0.885
  807WAT      O 2606   1.663   3.259   1.623
  807WAT     H1 2607   1.694   3.171   1.645
  807WAT     H2 2608   1.726   3.318   1.666
  808WAT      O 2609   1.484   2.396   2.190
  808WAT     H1 2610   1.398   2.362   2.218
  808WAT     H2 2611   1.464   2.459   2.122
  809WAT      O 2612   1.648   2.420   2.939
  809WAT     H1 2613   1.714   2.369   2.986
  809WAT     H2 2614   1.619   2.485   3.003
  810WAT      O 2615   3.333   1.359   1.860
  810WAT     H1 2616   3.338   1.418   1.785
  810WAT     H2 2617   3.338   1.271   1.822
  811WAT      O 2618   1.310   1.957   3.566
  811WAT     H1 2619   1.358   1.935   3.646
  811WAT     H2 2620   1.378   1.991   3.507
  812WAT      O 2621   0.620   3.024   0.680
  812WAT     H1 2622   0.651   2.953   0.736
  812WAT     H2 2623   0.525   3.026   0.695
  813WAT      O 2624   0.148   2.995   3.857
  813WAT     H1 2625   0.168   2.981   3.950
  813WAT     H2 2626   0.158   3.090   3.845
  814WAT      O 2627   0.220   0.972   3.873
  814WAT     H1 2628   0.215   0.907   3.943
  814WAT     H2 2629   0.163   0.938   3.804
  815WAT      O 2630   2.841   3.510   2.939
  815WAT     H1 2631   2.858   3.444   2.873
  815WAT     H2 2632   2.902   3.491   3.010
  816WAT      O 2633   3.296   2.704   3.283
  816WAT     H1 2634   3.354   2.629   3.273
  816WAT     H2 2635   3.211   2.674   3.250
  817WAT      O 2636   1.399   0.425   1.310
  817WAT     H1 2637   1.396   0.427   1.406
  817WAT     H2 2638   1.311   0.400   1.284
  818WAT      O 2639   3.645   1.141   2.649
  818WAT     H1 2640   3.723   1.087   2.662
  818WAT     H2 2641   3.602   1.142   2.735
  819WAT      O 2642   2.887   3.302   2.090
  819WAT     H1 2643   2.840   3.346   2.019
  819WAT     H2 2644   2.823   3.293   2.160
  820WAT      O 2645   0.974   3.492   2.333
  820WAT     H1 2646   1.057   3.504   2.378
  820WAT     H2 2647   0.989   3.529   2.245
  821WAT      O 2648   3.123   3.444   2.163
  821WAT     H1 2649   3.123   3.539   2.170
  821WAT     H2 2650   3.030   3.421   2.157
  822WAT      O 2651   1.618   1.114   1.495
  822WAT     H1 2652   1.653   1.123   1.583
  822WAT     H2 2653   1.690   1.140   1.438
  823WAT      O 2654   3.763   3.808   0.364
  823WAT     H1 2655   3.818   3.749   0.312
  823WAT     H2 2656   3.765   3.771   0.452
  824WAT      O 2657   1.287   1.970   0.275
  824WAT     H1 2658   1.300   2.048   0.330
  824WAT     H2 2659   1.230   1.999   0.204
  825WAT      O 2660   2.827   1.214   0.903
  825WAT     H1 2661   2.812   1.145   0.838
  825WAT     H2 2662   2.740   1.238   0.932
  826WAT      O 2663   0.522   1.691   3.168
  826WAT     H1 2664   0.615   1.669   3.178
  826WAT     H2 2665   0.518   1.784   3.186
  827WAT      O 2666   1.830   0.538   0.050
  827WAT     H1 2667   1.829   0.449   0.083
  827WAT     H2 2668   1.782   0.589   0.116
  828WAT      O 2669   0.038   0.890   3.667
  828WAT     H1 2670  -0.035   0.937   3.626
  828WAT     H2 2671  -0.001   0.850   3.745
  829WAT      O 2672   2.456   0.647   3.928
  829WAT     H1 2673   2.495   0.578   3.874
  829WAT     H2 2674   2.531   0.702   3.952
  830WAT      O 2675   0.274   1.055   3.125
  830WAT     H1 2676   0.281   1.102   3.042
  830WAT     H2 2677   0.215   1.109   3.179
  831WAT      O 2678   0.410   1.813   3.831
  831WAT     H1 2679   0.484   1.788   3.886
  831WAT     H2 2680   0.450   1.861   3.759
  832WAT      O 2681   4.001   0.629   1.431
  832WAT     H1 2682   3.920   0.680   1.422
  832WAT     H2 2683   3.997   0.593   1.519
  833WAT      O 2684   3.538   2.911   1.202
  833WAT     H1 2685   3.460   2.944   1.157
  833WAT     H2 2686   3.509   2.830   1.244
  834WAT      O 2687   2.303   1.065   2.963
  834WAT     H1 2688   2.385   1.112   2.974
  834WAT     H2 2689   2.311   0.988   3.019
  835WAT      O 2690   2.585   0.474   3.761
  835WAT     H1 2691   2.648   0.542   3.734
  835WAT     H2 2692   2.558   0.434   3.679
  836WAT      O 2693   0.898   2.585   3.112
  836WAT     H1 2694   0.933   2.526   3.046
  836WAT     H2 2695   0.830   2.534   3.156
  837WAT      O 2696   0.015   2.516   3.633
  837WAT     H1 2697  -0.037   2.511   3.553
  837WAT     H2 2698   0.026   2.610   3.649
  838WAT      O 2699   0.987   1.289   0.970
  838WAT     H1 2700   0.971   1.369   0.920
  838WAT     H2 2701   0.986   1.219   0.904
  839WAT      O 2702   1.595   0.035   0.593
  839WAT     H1 2703   1.504   0.056   0.573
  839WAT     H2 2704   1.645   0.106   0.554
  840WAT      O 2705   2.703   2.325   3.756
  840WAT     H1 2706   2.694   2.236   3.790
  840WAT     H2 2707   2.789   2.354   3.787
  841WAT      O 2708   3.820   2.806   0.039
  841WAT     H1 2709   3.888   2.869   0.064
  841WAT     H2 2710   3.866   2.740  -0.013
  842WAT      O 2711   1.305   1.690   3.332
  842WAT     H1 2712   1.281   1.724   3.246
  842WAT     H2 2713   1.401   1.694   3.334
  843WAT      O 2714   0.866   2.969   0.958
  843WAT     H1 2715   0.830   2.903   0.899
  843WAT     H2 2716   0.951   2.933   0.986
  844WAT      O 2717   0.934   3.056   0.639
  844WAT     H1 2718   0.892   3.136   0.610
  844WAT     H2 2719   0.917   3.051   0.733
  845WAT      O 2720   1.132   3.293   0.581
  845WAT     H1 2721   1.071   3.290   0.654
  845WAT     H2 2722   1.139   3.386   0.559
  846WAT      O 2723   2.310   2.775   1.892
  846WAT     H1 2724   2.370   2.706   1.919
  846WAT     H2 2725   2.273   2.808   1.975
  847WAT      O 2726   3.907   3.558   0.277
  847WAT     H1 2727   3.876   3.555   0.186
  847WAT     H2 2728   3.850   3.497   0.323
  848WAT      O 2729   2.480   0.138   0.367
  848WAT     H1 2730   2.530   0.093   0.298
  848WAT     H2 2731   2.515   0.227   0.369
  849WAT      O 2732   0.949   0.529   2.280
  849WAT     H1 2733   0.950   0.609   2.332
  849WAT     H2 2734   0.857   0.502   2.277
  850WAT      O 2735   2.466   0.411   3.088
  850WAT     H1 2736   2.558   0.386   3.097
  850WAT     H2 2737   2.468   0.506   3.077
  851WAT      O 2738   3.803   3.730   3.158
  851WAT     H1 2739   3.782   3.813   3.115
  851WAT     H2 2740   3.775   3.742   3.249
  852WAT      O 2741   1.251   3.196   2.153
  852WAT     H1 2742   1.305   3.244   2.091
  852WAT     H2 2743   1.179   3.161   2.101
  853WAT      O 2744   1.431   1.036   0.239
  853WAT     H1 2745   1.519   1.053   0.272
  853WAT     H2 2746   1.391   0.977   0.303
  854WAT      O 2747   0.626   0.842   3.197
  854WAT     H1 2748   0.629   0.760   3.245
  854WAT     H2 2749   0.713   0.880   3.208
  855WAT      O 2750   1.017   1.204   3.592
  855WAT     H1 2751   1.028   1.111   3.570
  855WAT     H2 2752   1.012   1.205   3.687
  856WAT      O 2753   3.425   2.965   1.584
  856WAT     H1 2754   3.447   3.046   1.631
  856WAT     H2 2755   3.366   2.994   1.514
  857WAT      O 2756   3.305   2.352   3.349
  857WAT     H1 2757   3.328   2.269   3.309
  857WAT     H2 2758   3.389   2.394   3.369
  858WAT      O 2759   1.236   1.598   1.391
  858WAT     H1 2760   1.274   1.641   1.314
  858WAT     H2 2761   1.242   1.505   1.371
  859WAT      O 2762   2.236   2.397   3.556
  859WAT     H1 2763   2.280   2.481   3.566
  859WAT     H2 2764   2.220   2.367   3.646
  860WAT      O 2765   1.535   2.094   3.525
  860WAT     H1 2766   1.554   2.089   3.619
  860WAT     H2 2767   1.581   2.172   3.495
  861WAT      O 2768   0.622   3.260   3.125
  861WAT     H1 2769   0.552   3.256   3.060
  861WAT     H2 2770   0.601   3.190   3.187
  862WAT      O 2771   1.731   2.525   4.027
  862WAT     H1 2772   1.674   2.504   4.101
  862WAT     H2 2773   1.692   2.478   3.953
  863WAT      O 2774   0.292   2.020   1.375
  863WAT     H1 2775   0.359   1.979   1.320
  863WAT     H2 2776   0.326   2.109   1.391
  864WAT      O 2777   3.926   3.399   3.075
  864WAT     H1 2778   3.843   3.437   3.047
  864WAT     H2 2779   3.983   3.406   2.999
  865WAT      O 2780   1.648   1.241   0.242
  865WAT     H1 2781   1.675   1.330   0.219
  865WAT     H2 2782   1.649   1.194   0.159
  866WAT      O 2783   3.683   2.133   1.275
  866WAT     H1 2784   3.673   2.044   1.308
  866WAT     H2 2785   3.615   2.140   1.207
  867WAT      O 2786   3.031   0.782   2.790
  867WAT     H1 2787   2.966   0.799   2.722
  867WAT     H2 2788   3.107   0.835   2.764
  868WAT      O 2789   3.959   1.120   2.442
  868WAT     H1 2790   3.937   1.208   2.473
  868WAT     H2 2791   3.905   1.061   2.494
  869WAT      O 2792   0.313   4.014   0.902
  869WAT     H1 2793   0.254   4.061   0.843
  869WAT     H2 2794   0.279   3.925   0.904
  870WAT      O 2795   3.861   2.875   3.182
  870WAT     H1 2796   3.940   2.891   3.233
  870WAT     H2 2797   3.825   2.962   3.165
  871WAT      O 2798   0.520   1.523   1.981
  871WAT     H1 2799   0.465   1.531   1.903
  871WAT     H2 2800   0.604   1.492   1.947
  872WAT      O 2801   1.146   4.029   0.371
  872WAT     H1 2802   1.191   3.967   0.427
  872WAT     H2 2803   1.200   4.036   0.292
  873WAT      O 2804   3.565   2.489   1.709
  873WAT     H1 2805   3.475   2.484   1.677
  873WAT     H2 2806   3.595   2.576   1.683
  874WAT      O 2807   0.078   2.788   2.933
  874WAT     H1 2808   0.165   2.825   2.949
  874WAT     H2 2809   0.087   2.695   2.954
  875WAT      O 2810   3.196   3.367   3.488
  875WAT     H1 2811   3.283   3.330   3.499
  875WAT     H2 2812   3.205   3.430   3.416
  876WAT      O 2813   2.034   1.107   3.076
  876WAT     H1 2814   2.120   1.068   3.067
  876WAT     H2 2815   2.010   1.092   3.168
  877WAT      O 2816   3.721   3.959   3.033
  877WAT     H1 2817   3.689   4.003   3.112
  877WAT     H2 2818   3.755   4.031   2.979
  878WAT      O 2819   2.592   3.156   2.616
  878WAT     H1 2820   2.517   3.115   2.571
  878WAT     H2 2821   2.565   3.247   2.628
  879WAT      O 2822   3.054   3.364   3.713
  879WAT     H1 2823   3.010   3.449   3.704
  879WAT     H2 2824   3.123   3.366   3.646
  880WAT      O 2825   0.684   2.196   2.441
  880WAT     H1 2826   0.674   2.126   2.506
  880WAT     H2 2827   0.724   2.268   2.489
  881WAT      O 2828   1.523   2.253   3.129
  881WAT     H1 2829   1.522   2.294   3.043
  881WAT     H2 2830   1.567   2.169   3.115
  882WAT      O 2831   1.185   0.249   1.861
  882WAT     H1 2832   1.131   0.177   1.832
  882WAT     H2 2833   1.132   0.327   1.844
  883WAT      O 2834   0.942   2.729   3.527
  883WAT     H1 2835   0.923   2.812   3.571
  883WAT     H2 2836   1.003   2.685   3.585
  884WAT      O 2837   3.502   2.416   3.075
  884WAT     H1 2838   3.548   2.499   3.061
  884WAT     H2 2839   3.429   2.419   3.013
  885WAT      O 2840   1.214   2.504   0.373
  885WAT     H1 2841   1.246   2.562   0.442
  885WAT     H2 2842   1.283   2.439   0.362
  886WAT      O 2843   1.810   1.689   3.254
  886WAT     H1 2844   1.737   1.748   3.275
  886WAT     H2 2845   1.768   1.616   3.208
  887WAT      O 2846   1.245   3.875   1.974
  887WAT     H1 2847   1.247   3.971   1.968
  887WAT     H2 2848   1.334   3.848   1.951
  888WAT      O 2849   0.858   0.312   2.050
  888WAT     H1 2850   0.858   0.228   2.004
  888WAT     H2 2851   0.857   0.288   2.143
  889WAT      O 2852   2.479   3.662   2.938
  889WAT     H1 2853   2.436   3.735   2.982
  889WAT     H2 2854   2.451   3.585   2.986
  890WAT      O 2855   1.560   0.456   3.516
  890WAT     H1 2856   1.610   0.378   3.492
  890WAT     H2 2857   1.576   0.467   3.610
  891WAT      O 2858   2.588   2.907   2.329
  891WAT     H1 2859   2.631   2.982   2.288
  891WAT     H2 2860   2.550   2.942   2.410
  892WAT      O 2861   0.796   0.708   1.447
  892WAT     H1 2862   0.803   0.712   1.542
  892WAT     H2 2863   0.823   0.795   1.417
  893WAT      O 2864   2.662   1.613   0.658
  893WAT     H1 2865   2.643   1.523   0.686
  893WAT     H2 2866   2.620   1.620   0.572
  894WAT      O 2867   2.809   2.832   1.768
  894WAT     H1 2868   2.828   2.839   1.674
  894WAT     H2 2869   2.816   2.738   1.786
  895WAT      O 2870   2.089   2.498   1.271
  895WAT     H1 2871   2.157   2.540   1.323
  895WAT     H2 2872   2.033   2.455   1.335
  896WAT      O 2873   3.933   0.572   3.624
  896WAT     H1 2874   4.028   0.573   3.615
  896WAT     H2 2875   3.918   0.550   3.716
  897WAT      O 2876   0.618   2.433   2.747
  897WAT     H1 2877   0.695   2.429   2.691
  897WAT     H2 2878   0.628   2.515   2.796
  898WAT      O 2879   2.254   3.090   3.877
  898WAT     H1 2880   2.165   3.063   3.899
  898WAT     H2 2881   2.310   3.021   3.913
  899WAT      O 2882   3.886   1.450   1.443
  899WAT     H1 2883   3.815   1.443   1.380
  899WAT     H2 2884   3.880   1.370   1.495
  900WAT      O 2885   3.470   0.705   3.016
  900WAT     H1 2886   3.446   0.785   3.063
  900WAT     H2 2887   3.503   0.647   3.084
  901WAT      O 2888   1.605   0.951   1.921
  901WAT     H1 2889   1.671   0.912   1.978
  901WAT     H2 2890   1.598   0.890   1.848
  902WAT      O 2891   3.904   0.428   1.718
  902WAT     H1 2892   3.943   0.405   1.634
  902WAT     H2 2893   3.965   0.393   1.783
  903WAT      O 2894   0.502   0.464   3.482
  903WAT     H1 2895   0.578   0.510   3.518
  903WAT     H2 2896   0.461   0.527   3.422
  904WAT      O 2897   1.415   3.342   3.257
  904WAT     H1 2898   1.496   3.366   3.302
  904WAT     H2 2899   1.346   3.382   3.308
  905WAT      O 2900   0.171   1.966   1.132
  905WAT     H1 2901   0.258   1.931   1.113
  905WAT     H2 2902   0.168   1.973   1.228
  906WAT      O 2903   0.648   3.979   2.389
  906WAT     H1 2904   0.616   4.070   2.387
  906WAT     H2 2905   0.706   3.976   2.464
  907WAT      O 2906   1.115   1.950   3.964
  907WAT     H1 2907   1.073   1.925   3.882
  907WAT     H2 2908   1.209   1.936   3.949
  908WAT      O 2909   1.292   1.227   2.243
  908WAT     H1 2910   1.360   1.293   2.256
  908WAT     H2 2911   1.327   1.168   2.176
  909WAT      O 2912   1.270   2.944   2.643
  909WAT     H1 2913   1.230   2.912   2.562
  909WAT     H2 2914   1.305   3.030   2.620
  910WAT      O 2915   3.647   0.055   1.720
  910WAT     H1 2916   3.618   0.077   1.809
  910WAT     H2 2917   3.656  -0.041   1.722
  911WAT      O 2918   1.808   0.769   3.606
  911WAT     H1 2919   1.838   0.725   3.685
  911WAT     H2 2920   1.843   0.717   3.534
  912WAT      O 2921   3.857   1.532   2.754
  912WAT     H1 2922   3.814   1.495   2.831
  912WAT     H2 2923   3.849   1.626   2.765
  913WAT      O 2924   2.969   1.871   0.456
  913WAT     H1 2925   2.909   1.807   0.418
  913WAT     H2 2926   3.054   1.849   0.419
  914WAT      O 2927   2.097   4.003   3.970
  914WAT     H1 2928   2.089   4.098   3.964
  914WAT     H2 2929   2.134   3.987   4.056
  915WAT      O 2930   0.556   4.010   3.519
  915WAT     H1 2931   0.535   4.055   3.438
  915WAT     H2 2932   0.648   4.031   3.535
  916WAT      O 2933   1.335   2.715   2.331
  916WAT     H1 2934   1.302   2.637   2.377
  916WAT     H2 2935   1.276   2.785   2.358
  917WAT      O 2936   1.009   1.095   0.194
  917WAT     H1 2937   1.032   1.187   0.186
  917WAT     H2 2938   0.947   1.079   0.123
  918WAT      O 2939   3.946   1.778   1.822
  918WAT     H1 2940   3.929   1.731   1.903
  918WAT     H2 2941   3.898   1.860   1.831
  919WAT      O 2942   3.713   1.331   1.225
  919WAT     H1 2943   3.763   1.249   1.225
  919WAT     H2 2944   3.664   1.329   1.143
  920WAT      O 2945   0.428   3.943   3.752
  920WAT     H1 2946   0.364   4.013   3.767
  920WAT     H2 2947   0.451   3.950   3.659
  921WAT      O 2948   0.028   3.491   0.541
  921WAT     H1 2949  -0.068   3.490   0.540
  921WAT     H2 2950   0.051   3.581   0.561
  922WAT      O 2951   1.156   1.902   1.748
  922WAT     H1 2952   1.223   1.944   1.694
  922WAT     H2 2953   1.141   1.817   1.706
  923WAT      O 2954   1.931   3.434   3.534
  923WAT     H1 2955   1.900   3.422   3.444
  923WAT     H2 2956   1.908   3.525   3.555
  924WAT      O 2957   2.996   3.490   0.930
  924WAT     H1 2958   3.030   3.446   0.853
  924WAT     H2 2959   3.074   3.527   0.973
  925WAT      O 2960   0.844   0.480   0.273
  925WAT     H1 2961   0.885   0.527   0.345
  925WAT     H2 2962   0.854   0.537   0.198
  926WAT      O 2963   0.483   2.635   0.837
  926WAT     H1 2964   0.446   2.652   0.751
  926WAT     H2 2965   0.414   2.661   0.898
  927WAT      O 2966   2.872   2.831   0.115
  927WAT     H1 2967   2.813   2.891   0.070
  927WAT     H2 2968   2.932   2.799   0.047
  928WAT      O 2969   0.915   0.027   0.126
  928WAT     H1 2970   0.921   0.023   0.031
  928WAT     H2 2971   0.994  -0.017   0.157
  929WAT      O 2972   1.145   0.221   2.297
  929WAT     H1 2973   1.060   0.238   2.257
  929WAT     H2 2974   1.169   0.304   2.339
  930WAT      O 2975   0.503   2.037   3.658
  930WAT     H1 2976   0.541   2.078   3.736
  930WAT     H2 2977   0.498   2.108   3.594
  931WAT      O 2978   1.887   3.067   0.824
  931WAT     H1 2979   1.872   2.993   0.883
  931WAT     H2 2980   1.941   3.031   0.754
  932WAT      O 2981   2.601   2.197   2.112
  932WAT     H1 2982   2.637   2.146   2.040
  932WAT     H2 2983   2.565   2.132   2.172
  933WAT      O 2984   3.246   2.882   1.195
  933WAT     H1 2985   3.254   2.788   1.181
  933WAT     H2 2986   3.182   2.910   1.130
  934WAT      O 2987   1.183   0.061   1.281
  934WAT     H1 2988   1.270   0.026   1.299
  934WAT     H2 2989   1.124  -0.012   1.296
  935WAT      O 2990   0.374   0.038   0.560
  935WAT     H1 2991   0.463   0.061   0.531
  935WAT     H2 2992   0.375  -0.057   0.566
  936WAT      O 2993   1.426   2.011   3.960
  936WAT     H1 2994   1.427   2.097   4.003
  936WAT     H2 2995   1.491   2.019   3.890
  937WAT      O 2996   1.769   3.921   1.182
  937WAT     H1 2997   1.743   3.829   1.185
  937WAT     H2 2998   1.689   3.968   1.157
  938WAT      O 2999   0.771   0.030   2.620
  938WAT     H1 3000   0.766   0.122   2.596
  938WAT     H2 3001   0.777   0.030   2.716
  939WAT      O 3002   2.220   2.324   3.819
  939WAT     H1 3003   2.265   2.252   3.863
  939WAT     H2 3004   2.147   2.346   3.877
  940WAT      O 3005   1.877   1.320   1.642
  940WAT     H1 3006   1.944   1.353   1.702
  940WAT     H2 3007   1.823   1.262   1.697
  941WAT      O 3008   1.039   2.806   0.514
  941WAT     H1 3009   1.035   2.902   0.522
  941WAT     H2 3010   1.074   2.777   0.598
  942WAT      O 3011   1.724   3.548   2.628
  942WAT     H1 3012   1.789   3.536   2.697
  942WAT     H2 3013   1.707   3.642   2.628
  943WAT      O 3014   2.764   0.568   2.323
  943WAT     H1 3015   2.791   0.486   2.281
  943WAT     H2 3016   2.828   0.632   2.292
  944WAT      O 3017   3.868   0.577   2.650
  944WAT     H1 3018   3.889   0.531   2.569
  944WAT     H2 3019   3.810   0.648   2.622
  945WAT      O 3020   1.524   2.484   0.149
  945WAT     H1 3021   1.539   2.522   0.236
  945WAT     H2 3022   1.470   2.549   0.104
  946WAT      O 3023   3.193   3.346   0.820
  946WAT     H1 3024   3.245   3.374   0.745
  946WAT     H2 3025   3.258   3.322   0.886
  947WAT      O 3026   0.782   3.016   0.384
  947WAT     H1 3027   0.838   3.046   0.455
  947WAT     H2 3028   0.732   2.944   0.422
  948WAT      O 3029   3.569   3.362   1.963
  948WAT     H1 3030   3.617   3.381   2.044
  948WAT     H2 3031   3.477   3.361   1.989
  949WAT      O 3032   0.418   3.068   2.284
  949WAT     H1 3033   0.424   3.103   2.195
  949WAT     H2 3034   0.334   3.022   2.287
  950WAT      O 3035   0.679   2.821   2.588
  950WAT     H1 3036   0.632   2.904   2.597
  950WAT     H2 3037   0.650   2.768   2.663
  951WAT      O 3038   0.185   2.137   3.565
  951WAT     H1 3039   0.144   2.192   3.631
  951WAT     H2 3040   0.279   2.144   3.583
  952WAT      O 3041   2.797   2.638   0.788
  952WAT     H1 3042   2.881   2.617   0.748
  952WAT     H2 3043   2.743   2.668   0.716
  953WAT      O 3044   1.511   3.772   2.060
  953WAT     H1 3045   1.442   3.744   2.119
  953WAT     H2 3046   1.553   3.691   2.030
  954WAT      O 3047   1.585   1.460   2.431
  954WAT     H1 3048   1.526   1.484   2.360
  954WAT     H2 3049   1.655   1.410   2.388
  955WAT      O 3050   3.261   2.315   2.749
  955WAT     H1 3051   3.206   2.280   2.819
  955WAT     H2 3052   3.247   2.255   2.676
  956WAT      O 3053   1.352   3.461   3.835
  956WAT     H1 3054   1.293   3.424   3.770
  956WAT     H2 3055   1.331   3.414   3.916
  957WAT      O 3056   2.405   2.363   2.164
  957WAT     H1 3057   2.471   2.298   2.138
  957WAT     H2 3058   2.433   2.391   2.251
  958WAT      O 3059   3.817   2.543   1.498
  958WAT     H1 3060   3.741   2.579   1.544
  958WAT     H2 3061   3.792   2.544   1.406
  959WAT      O 3062   2.685   3.847   0.651
  959WAT     H1 3063   2.701   3.933   0.612
  959WAT     H2 3064   2.740   3.846   0.730
  960WAT      O 3065   1.538   3.402   2.797
  960WAT     H1 3066   1.614   3.352   2.825
  960WAT     H2 3067   1.574   3.485   2.765
  961WAT      O 3068   0.436   1.303   3.360
  961WAT     H1 3069   0.399   1.391   3.367
  961WAT     H2 3070   0.361   1.244   3.366
  962WAT      O 3071   2.300   3.497   0.060
  962WAT     H1 3072   2.284   3.514  -0.033
  962WAT     H2 3073   2.320   3.403   0.064
  963WAT      O 3074   2.386   2.918   3.069
  963WAT     H1 3075   2.456   2.887   3.126
  963WAT     H2 3076   2.429   2.943   2.988
  964WAT      O 3077   0.741   2.275   1.710
  964WAT     H1 3078   0.817   2.325   1.738
  964WAT     H2 3079   0.667   2.334   1.725
  965WAT      O 3080   3.568   1.778   0.724
  965WAT     H1 3081   3.516   1.700   0.744
  965WAT     H2 3082   3.514   1.852   0.754
  966WAT      O 3083   2.107   1.283   0.141
  966WAT     H1 3084   2.085   1.337   0.065
  966WAT     H2 3085   2.041   1.214   0.141
  967WAT      O 3086   3.086   2.058   3.598
  967WAT     H1 3087   3.182   2.058   3.592
  967WAT     H2 3088   3.059   1.982   3.546
  968WAT      O 3089   1.378   2.052   2.957
  968WAT     H1 3090   1.296   2.084   2.920
  968WAT     H2 3091   1.357   2.032   3.048
  969WAT      O 3092   1.536   1.556   2.825
  969WAT     H1 3093   1.492   1.515   2.751
  969WAT     H2 3094   1.503   1.646   2.826
  970WAT      O 3095   1.518   1.805   3.675
  970WAT     H1 3096   1.486   1.714   3.674
  970WAT     H2 3097   1.609   1.798   3.705
  971WAT      O 3098   2.197   3.846   2.183
  971WAT     H1 3099   2.193   3.754   2.157
  971WAT     H2 3100   2.176   3.895   2.103
  972WAT      O 3101   3.761   0.748   1.428
  972WAT     H1 3102   3.711   0.826   1.404
  972WAT     H2 3103   3.706   0.675   1.399
  973WAT      O 3104   1.799   2.436   3.524
  973WAT     H1 3105   1.776   2.522   3.490
  973WAT     H2 3106   1.722   2.382   3.508
  974WAT      O 3107   0.126   3.644   0.280
  974WAT     H1 3108   0.049   3.606   0.321
  974WAT     H2 3109   0.123   3.614   0.190
  975WAT      O 3110   2.946   0.736   2.262
  975WAT     H1 3111   2.967   0.807   2.323
  975WAT     H2 3112   3.031   0.708   2.228
  976WAT      O 3113   2.096   1.876   0.541
  976WAT     H1 3114   2.099   1.891   0.635
  976WAT     H2 3115   2.164   1.810   0.525
  977WAT      O 3116   0.121   1.235   2.116
  977WAT     H1 3117   0.098   1.219   2.024
  977WAT     H2 3118   0.206   1.279   2.112
  978WAT      O 3119   0.062   3.199   1.173
  978WAT     H1 3120  -0.027   3.232   1.170
  978WAT     H2 3121   0.090   3.196   1.081
  979WAT      O 3122   2.280   1.472   2.434
  979WAT     H1 3123   2.237   1.408   2.491
  979WAT     H2 3124   2.208   1.516   2.389
  980WAT      O 3125   2.697   0.883   3.104
  980WAT     H1 3126   2.779   0.874   3.153
  980WAT     H2 3127   2.690   0.803   3.052
  981WAT      O 3128   2.250   3.666   1.249
  981WAT     H1 3129   2.207   3.644   1.331
  981WAT     H2 3130   2.191   3.728   1.207
  982WAT      O 3131   1.050   0.021   0.666
  982WAT     H1 3132   1.107   0.047   0.738
  982WAT     H2 3133   0.974  -0.019   0.708
  983WAT      O 3134   0.759   1.230   3.315
  983WAT     H1 3135   0.699   1.238   3.389
  983WAT     H2 3136   0.812   1.310   3.318
  984WAT      O 3137   2.936   2.593   2.602
  984WAT     H1 3138   2.962   2.684   2.599
  984WAT     H2 3139   2.927   2.573   2.696
  985WAT      O 3140   0.085   0.908   2.596
  985WAT     H1 3141   0.164   0.854   2.599
  985WAT     H2 3142   0.093   0.956   2.513
  986WAT      O 3143   2.838   3.042   2.756
  986WAT     H1 3144   2.909   3.104   2.777
  986WAT     H2 3145   2.821   3.057   2.663
  987WAT      O 3146   3.845   2.917   0.663
  987WAT     H1 3147   3.851   2.853   0.592
  987WAT     H2 3148   3.916   2.893   0.723
  988WAT      O 3149   2.627   0.203   3.815
  988WAT     H1 3150   2.552   0.144   3.807
  988WAT     H2 3151   2.591   0.289   3.792
  989WAT      O 3152   0.003   0.374   0.066
  989WAT     H1 3153   0.036   0.438   0.129
  989WAT     H2 3154  -0.073   0.335   0.110
  990WAT      O 3155   1.895   0.633   1.484
  990WAT     H1 3156   1.815   0.582   1.478
  990WAT     H2 3157   1.946   0.608   1.407
  991WAT      O 3158   1.414   1.495   3.669
  991WAT     H1 3159   1.484   1.429   3.670
  991WAT     H2 3160   1.342   1.452   3.623
  992WAT      O 3161   3.999   3.691   2.884
  992WAT     H1 3162   3.975   3.765   2.828
  992WAT     H2 3163   4.024   3.731   2.967
  993WAT      O 3164   1.934   2.916   1.944
  993WAT     H1 3165   2.017   2.931   1.989
  993WAT     H2 3166   1.911   2.826   1.965
  994WAT      O 3167   0.934   1.698   0.033
  994WAT     H1 3168   1.029   1.703   0.037
  994WAT     H2 3169   0.916   1.646  -0.046
  995WAT      O 3170   2.071   1.241   1.407
  995WAT     H1 3171   2.098   1.178   1.474
  995WAT     H2 3172   2.145   1.246   1.347
  996WAT      O 3173   2.636   3.862   1.408
  996WAT     H1 3174   2.730   3.859   1.390
  996WAT     H2 3175   2.630   3.884   1.501
  997WAT      O 3176   2.597   1.139   3.047
  997WAT     H1 3177   2.665   1.157   2.982
  997WAT     H2 3178   2.618   1.051   3.079
  998WAT      O 3179   4.019   1.069   0.150
  998WAT     H1 3180   4.054   1.152   0.118
  998WAT     H2 3181   3.963   1.092   0.224
  999WAT      O 3182   3.403   0.851   2.622
  999WAT     H1 3183   3.453   0.896   2.690
  999WAT     H2 3184   3.372   0.771   2.664
 1000WAT      O 3185   0.042   3.969   0.752
 1000WAT     H1 3186   0.039   4.064   0.741
 1000WAT     H2 3187   0.065   3.936   0.665
 1001WAT      O 3188   3.718   3.809   1.742
 1001WAT     H1 3189   3.644   3.753   1.767
 1001WAT     H2 3190   3.795   3.765   1.778
 1002WAT      O 3191   1.360   2.405   2.602
 1002WAT     H1 3192   1.327   2.449   2.681
 1002WAT     H2 3193   1.454   2.425   2.601
 1003WAT      O 3194   2.493   0.117   2.151
 1003WAT     H1 3195   2.557   0.109   2.222
 1003WAT     H2 3196   2.434   0.187   2.179
 1004WAT      O 3197   0.984   2.056   2.992
 1004WAT     H1 3198   0.907   2.108   2.968
 1004WAT     H2 3199   0.985   2.058   3.087
 1005WAT      O 3200   2.987   1.425   2.708
 1005WAT     H1 3201   2.987   1.493   2.774
 1005WAT     H2 3202   2.907   1.439   2.658
 1006WAT      O 3203   1.696   0.883   0.885
 1006WAT     H1 3204   1.695   0.846   0.796
 1006WAT     H2 3205   1.678   0.809   0.942
 1007WAT      O 3206   3.929   3.660   1.863
 1007WAT     H1 3207   3.883   3.688   1.943
 1007WAT     H2 3208   3.974   3.580   1.888
 1008WAT      O 3209   0.981   0.246   2.684
 1008WAT     H1 3210   1.038   0.170   2.670
 1008WAT     H2 3211   0.950   0.268   2.596
 1009WAT      O 3212   3.197   1.842   0.925
 1009WAT     H1 3213   3.249   1.914   0.892
 1009WAT     H2 3214   3.124   1.834   0.862
 1010WAT      O 3215   2.408   3.896   0.482
 1010WAT     H1 3216   2.458   3.978   0.481
 1010WAT     H2 3217   2.337   3.911   0.420
 1011WAT      O 3218   0.677   3.671   2.923
 1011WAT     H1 3219   0.665   3.727   2.847
 1011WAT     H2 3220   0.598   3.616   2.925
 1012WAT      O 3221   2.571   2.538   3.907
 1012WAT     H1 3222   2.609   2.468   3.853
 1012WAT     H2 3223   2.624   2.615   3.888
 1013WAT      O 3224   1.575   1.144   2.238
 1013WAT     H1 3225   1.545   1.188   2.159
 1013WAT     H2 3226   1.562   1.050   2.219
 1014WAT      O 3227   2.252   3.269   1.331
 1014WAT     H1 3228   2.212   3.182   1.325
 1014WAT     H2 3229   2.178   3.329   1.321
 1015WAT      O 3230   0.129   2.308   0.211
 1015WAT     H1 3231   0.093   2.314   0.123
 1015WAT     H2 3232   0.054   2.313   0.270
 1016WAT      O 3233   0.711   3.618   1.730
 1016WAT     H1 3234   0.702   3.577   1.644
 1016WAT     H2 3235   0.624   3.614   1.768
 1017WAT      O 3236   1.446   1.966   1.991
 1017WAT     H1 3237   1.411   1.988   2.077
 1017WAT     H2 3238   1.531   2.009   1.988
 1018WAT      O 3239   3.884   3.714   1.382
 1018WAT     H1 3240   3.903   3.639   1.438
 1018WAT     H2 3241   3.913   3.790   1.432
 1019WAT      O 3242   2.477   0.318   3.565
 1019WAT     H1 3243   2.485   0.271   3.482
 1019WAT     H2 3244   2.445   0.252   3.626
 1020WAT      O 3245   3.354   2.079   0.210
 1020WAT     H1 3246   3.375   1.989   0.238
 1020WAT     H2 3247   3.304   2.068   0.129
 1021WAT      O 3248   2.475   2.135   2.792
 1021WAT     H1 3249   2.490   2.227   2.817
 1021WAT     H2 3250   2.554   2.089   2.821
 1022WAT      O 3251   1.730   3.131   3.205
 1022WAT     H1 3252   1.784   3.208   3.187
 1022WAT     H2 3253   1.647   3.148   3.162
 1023WAT      O 3254   3.894   2.653   2.326
 1023WAT     H1 3255   3.952   2.701   2.267
 1023WAT     H2 3256   3.862   2.719   2.388
 1024WAT      O 3257   1.684   1.104   0.659
 1024WAT     H1 3258   1.740   1.173   0.691
 1024WAT     H2 3259   1.668   1.048   0.735
 1025WAT      O 3260   1.843   1.411   0.404
 1025WAT     H1 3261   1.782   1.338   0.415
 1025WAT     H2 3262   1.801   1.469   0.342
 1026WAT      O 3263   1.644   1.855   0.293
 1026WAT     H1 3264   1.710   1.802   0.338
 1026WAT     H2 3265   1.695   1.920   0.244
 1027WAT      O 3266   2.215   3.562   2.076
 1027WAT     H1 3267   2.231   3.484   2.023
 1027WAT     H2 3268   2.148   3.536   2.138
 1028WAT      O 3269   3.312   1.570   2.808
 1028WAT     H1 3270   3.220   1.585   2.829
 1028WAT     H2 3271   3.331   1.630   2.737
 1029WAT      O 3272   0.104   0.865   1.591
 1029WAT     H1 3273   0.157   0.800   1.546
 1029WAT     H2 3274   0.026   0.817   1.620
 1030WAT      O 3275   2.524   2.008   1.751
 1030WAT     H1 3276   2.532   1.941   1.683
 1030WAT     H2 3277   2.457   1.974   1.810
 1031WAT      O 3278   0.307   1.770   3.434
 1031WAT     H1 3279   0.351   1.854   3.433
 1031WAT     H2 3280   0.220   1.788   3.398
 1032WAT      O 3281   3.878   0.302   0.705
 1032WAT     H1 3282   3.840   0.373   0.756
 1032WAT     H2 3283   3.970   0.301   0.731
 1033WAT      O 3284   1.078   2.812   1.360
 1033WAT     H1 3285   1.035   2.746   1.306
 1033WAT     H2 3286   1.038   2.895   1.333
 1034WAT      O 3287   1.075   1.073   2.144
 1034WAT     H1 3288   1.140   1.047   2.209
 1034WAT     H2 3289   1.049   1.161   2.169
 1035WAT      O 3290   1.818   2.277   1.285
 1035WAT     H1 3291   1.875   2.206   1.256
 1035WAT     H2 3292   1.840   2.289   1.377
 1036WAT      O 3293   1.328   2.046   2.230
 1036WAT     H1 3294   1.302   2.135   2.207
 1036WAT     H2 3295   1.347   2.049   2.323
 1037WAT      O 3296   0.787   2.556   1.516
 1037WAT     H1 3297   0.773   2.573   1.609
 1037WAT     H2 3298   0.858   2.615   1.491
 1038WAT      O 3299   0.689   2.003   2.654
 1038WAT     H1 3300   0.616   1.944   2.639
 1038WAT     H2 3301   0.762   1.945   2.677
 1039WAT      O 3302   1.002   3.857   2.416
 1039WAT     H1 3303   1.048   3.796   2.358
 1039WAT     H2 3304   1.065   3.929   2.429
 1040WAT      O 3305   0.474   1.788   2.637
 1040WAT     H1 3306   0.504   1.702   2.665
 1040WAT     H2 3307   0.433   1.826   2.715
 1041WAT      O 3308   2.504   1.840   1.538
 1041WAT     H1 3309   2.409   1.838   1.533
 1041WAT     H2 3310   2.532   1.752   1.512
 1042WAT      O 3311   0.419   0.851   2.549
 1042WAT     H1 3312   0.398   0.933   2.505
 1042WAT     H2 3313   0.401   0.867   2.641
 1043WAT      O 3314   3.770   3.029   1.297
 1043WAT     H1 3315   3.681   3.010   1.270
 1043WAT     H2 3316   3.826   2.987   1.231
 1044WAT      O 3317   0.039   2.775   0.442
 1044WAT     H1 3318  -0.037   2.772   0.383
 1044WAT     H2 3319   0.066   2.684   0.451
 1045WAT      O 3320   1.102   3.526   0.180
 1045WAT     H1 3321   1.098   3.619   0.204
 1045WAT     H2 3322   1.191   3.499   0.205
 1046WAT      O 3323   0.660   2.805   0.483
 1046WAT     H1 3324   0.631   2.871   0.546
 1046WAT     H2 3325   0.605   2.820   0.406
 1047WAT      O 3326   3.587   2.062   0.521
 1047WAT     H1 3327   3.671   2.087   0.481
 1047WAT     H2 3328   3.593   1.966   0.530
 1048WAT      O 3329   3.837   1.546   0.401
 1048WAT     H1 3330   3.846   1.487   0.476
 1048WAT     H2 3331   3.837   1.634   0.439
 1049WAT      O 3332   1.847   0.276   0.093
 1049WAT     H1 3333   1.925   0.260   0.041
 1049WAT     H2 3334   1.782   0.214   0.059
 1050WAT      O 3335   0.401   1.817   0.286
 1050WAT     H1 3336   0.353   1.897   0.264
 1050WAT     H2 3337   0.352   1.780   0.360
 1051WAT      O 3338   1.929   0.200   1.975
 1051WAT     H1 3339   1.963   0.283   2.010
 1051WAT     H2 3340   1.897   0.153   2.051
 1052WAT      O 3341   3.079   0.411   2.194
 1052WAT     H1 3342   3.121   0.349   2.252
 1052WAT     H2 3343   2.987   0.385   2.193
 1053WAT      O 3344   2.177   2.534   2.065
 1053WAT     H1 3345   2.182   2.504   1.974
 1053WAT     H2 3346   2.195   2.455   2.117
 1054WAT      O 3347   0.687   0.205   3.198
 1054WAT     H1 3348   0.763   0.203   3.140
 1054WAT     H2 3349   0.720   0.175   3.283
 1055WAT      O 3350   1.887   3.517   1.527
 1055WAT     H1 3351   1.872   3.467   1.607
 1055WAT     H2 3352   1.810   3.574   1.520
 1056WAT      O 3353   3.594   1.805   2.003
 1056WAT     H1 3354   3.541   1.765   2.072
 1056WAT     H2 3355   3.684   1.785   2.028
 1057WAT      O 3356   0.542   2.576   0.057
 1057WAT     H1 3357   0.562   2.482   0.056
 1057WAT     H2 3358   0.619   2.616   0.097
 1058WAT      O 3359   1.288   2.522   1.866
 1058WAT     H1 3360   1.376   2.522   1.901
 1058WAT     H2 3361   1.232   2.548   1.939
 1059WAT      O 3362   0.168   3.110   1.409
 1059WAT     H1 3363   0.107   3.063   1.466
 1059WAT     H2 3364   0.111   3.156   1.346
 1060WAT      O 3365   3.008   2.290   0.911
 1060WAT     H1 3366   2.948   2.218   0.891
 1060WAT     H2 3367   3.076   2.285   0.843
 1061WAT      O 3368   1.959   2.259   1.826
 1061WAT     H1 3369   2.025   2.194   1.800
 1061WAT     H2 3370   1.887   2.206   1.862
 1062WAT      O 3371   2.530   1.706   1.849
 1062WAT     H1 3372   2.542   1.611   1.846
 1062WAT     H2 3373   2.605   1.742   1.802
 1063WAT      O 3374   0.990   0.703   3.670
 1063WAT     H1 3375   0.991   0.613   3.703
 1063WAT     H2 3376   1.019   0.756   3.744
 1064WAT      O 3377   1.742   1.093   1.746
 1064WAT     H1 3378   1.677   1.059   1.808
 1064WAT     H2 3379   1.815   1.032   1.752
 1065WAT      O 3380   2.510   3.170   2.956
 1065WAT     H1 3381   2.570   3.155   2.882
 1065WAT     H2 3382   2.566   3.163   3.033
 1066WAT      O 3383   2.471   0.565   2.310
 1066WAT     H1 3384   2.482   0.600   2.222
 1066WAT     H2 3385   2.561   0.555   2.343
 1067WAT      O 3386   3.236   1.909   2.066
 1067WAT     H1 3387   3.269   1.829   2.106
 1067WAT     H2 3388   3.277   1.979   2.116
 1068WAT      O 3389   0.261   3.668   1.704
 1068WAT     H1 3390   0.245   3.756   1.738
 1068WAT     H2 3391   0.321   3.629   1.767
 1069WAT      O 3392   0.053   3.697   3.457
 1069WAT     H1 3393   0.117   3.754   3.415
 1069WAT     H2 3394  -0.001   3.664   3.385
 1070WAT      O 3395   3.211   2.005   2.951
 1070WAT     H1 3396   3.156   1.937   2.989
 1070WAT     H2 3397   3.249   1.965   2.873
 1071WAT      O 3398   2.997   3.272   0.243
 1071WAT     H1 3399   2.927   3.208   0.253
 1071WAT     H2 3400   2.997   3.292   0.149
 1072WAT      O 3401   2.405   0.847   1.264
 1072WAT     H1 3402   2.494   0.824   1.239
 1072WAT     H2 3403   2.405   0.942   1.270
 1073WAT      O 3404   1.614   2.524   2.677
 1073WAT     H1 3405   1.586   2.471   2.751
 1073WAT     H2 3406   1.708   2.509   2.671
 1074WAT      O 3407   1.636   2.831   1.243
 1074WAT     H1 3408   1.721   2.810   1.206
 1074WAT     H2 3409   1.656   2.877   1.325
 1075WAT      O 3410   0.916   3.731   0.333
 1075WAT     H1 3411   0.928   3.825   0.346
 1075WAT     H2 3412   0.860   3.724   0.256
 1076WAT      O 3413   2.641   3.037   0.632
 1076WAT     H1 3414   2.726   3.079   0.645
 1076WAT     H2 3415   2.635   2.973   0.703
 1077WAT      O 3416   3.324   3.469   2.000
 1077WAT     H1 3417   3.275   3.474   1.918
 1077WAT     H2 3418   3.257   3.453   2.067
 1078WAT      O 3419   3.052   2.750   3.955
 1078WAT     H1 3420   3.044   2.655   3.959
 1078WAT     H2 3421   3.029   2.772   3.865
 1079WAT      O 3422   2.995   0.580   1.258
 1079WAT     H1 3423   2.989   0.582   1.163
 1079WAT     H2 3424   2.920   0.528   1.286
 1080WAT      O 3425   2.045   1.244   0.456
 1080WAT     H1 3426   2.041   1.205   0.369
 1080WAT     H2 3427   1.987   1.320   0.450
 1081WAT      O 3428   0.660   3.725   2.288
 1081WAT     H1 3429   0.653   3.808   2.336
 1081WAT     H2 3430   0.717   3.746   2.214
 1082WAT      O 3431   0.443   2.401   3.172
 1082WAT     H1 3432   0.378   2.356   3.226
 1082WAT     H2 3433   0.441   2.354   3.089
 1083WAT      O 3434   0.915   2.810   1.985
 1083WAT     H1 3435   0.867   2.867   2.045
 1083WAT     H2 3436   0.984   2.865   1.948
 1084WAT      O 3437   0.608   2.854   2.079
 1084WAT     H1 3438   0.594   2.855   1.984
 1084WAT     H2 3439   0.669   2.927   2.095
 1085WAT      O 3440   3.873   3.742   0.623
 1085WAT     H1 3441   3.943   3.781   0.571
 1085WAT     H2 3442   3.902   3.752   0.713
 1086WAT      O 3443   2.486   3.150   0.294
 1086WAT     H1 3444   2.427   3.182   0.226
 1086WAT     H2 3445   2.464   3.057   0.304
 1087WAT      O 3446   1.899   0.889   3.266
 1087WAT     H1 3447   1.957   0.954   3.305
 1087WAT     H2 3448   1.957   0.833   3.215
 1088WAT      O 3449   0.250   0.209   2.312
 1088WAT     H1 3450   0.159   0.210   2.340
 1088WAT     H2 3451   0.299   0.241   2.389
 1089WAT      O 3452   0.661   3.980   0.276
 1089WAT     H1 3453   0.589   4.027   0.234
 1089WAT     H2 3454   0.740   4.026   0.249
 1090WAT      O 3455   1.189   0.597   0.001
 1090WAT     H1 3456   1.159   0.665   0.061
 1090WAT     H2 3457   1.254   0.640  -0.053
 1091WAT      O 3458   0.557   3.387   3.693
 1091WAT     H1 3459   0.629   3.433   3.735
 1091WAT     H2 3460   0.526   3.325   3.759
 1092WAT      O 3461   0.449   2.490   0.425
 1092WAT     H1 3462   0.399   2.528   0.353
 1092WAT     H2 3463   0.452   2.396   0.405
 1093WAT      O 3464   1.939   0.774   0.323
 1093WAT     H1 3465   1.979   0.695   0.357
 1093WAT     H2 3466   2.012   0.825   0.287
 1094WAT      O 3467   2.805   0.341   2.169
 1094WAT     H1 3468   2.858   0.265   2.192
 1094WAT     H2 3469   2.719   0.305   2.145
 1095WAT      O 3470   1.151   1.636   1.643
 1095WAT     H1 3471   1.186   1.610   1.558
 1095WAT     H2 3472   1.220   1.614   1.705
 1096WAT      O 3473   1.334   2.070   2.497
 1096WAT     H1 3474   1.418   2.083   2.541
 1096WAT     H2 3475   1.299   1.989   2.535
 1097WAT      O 3476   3.610   0.685   0.498
 1097WAT     H1 3477   3.544   0.637   0.449
 1097WAT     H2 3478   3.597   0.776   0.474
 1098WAT      O 3479   1.991   2.465   3.917
 1098WAT     H1 3480   2.003   2.535   3.852
 1098WAT     H2 3481   1.926   2.500   3.978
 1099WAT      O 3482   0.174   0.147   1.784
 1099WAT     H1 3483   0.167   0.237   1.817
 1099WAT     H2 3484   0.085   0.122   1.761
 1100WAT      O 3485   2.316   0.900   3.963
 1100WAT     H1 3486   2.385   0.963   3.984
 1100WAT     H2 3487   2.359   0.831   3.915
 1101WAT      O 3488   3.248   0.942   1.843
 1101WAT     H1 3489   3.205   0.858   1.858
 1101WAT     H2 3490   3.295   0.960   1.925
 1102WAT      O 3491   1.059   1.784   1.342
 1102WAT     H1 3492   1.113   1.861   1.362
 1102WAT     H2 3493   1.111   1.710   1.372
 1103WAT      O 3494   2.388   2.606   0.479
 1103WAT     H1 3495   2.364   2.513   0.487
 1103WAT     H2 3496   2.349   2.633   0.396
 1104WAT      O 3497   2.929   1.698   0.764
 1104WAT     H1 3498   2.850   1.689   0.711
 1104WAT     H2 3499   2.983   1.623   0.738
 1105WAT      O 3500   2.715   0.552   1.339
 1105WAT     H1 3501   2.644   0.532   1.400
 1105WAT     H2 3502   2.687   0.632   1.294
 1106WAT      O 3503   2.692   2.688   2.493
 1106WAT     H1 3504   2.664   2.746   2.421
 1106WAT     H2 3505   2.723   2.609   2.449
 1107WAT      O 3506   0.478   1.904   2.383
 1107WAT     H1 3507   0.438   1.868   2.304
 1107WAT     H2 3508   0.450   1.844   2.453
 1108WAT      O 3509   1.088   1.402   1.189
 1108WAT     H1 3510   1.098   1.492   1.159
 1108WAT     H2 3511   1.059   1.354   1.112
 1109WAT      O 3512   2.250   1.808   3.693
 1109WAT     H1 3513   2.295   1.834   3.612
 1109WAT     H2 3514   2.309   1.834   3.763
 1110WAT      O 3515   3.488   2.024   1.846
 1110WAT     H1 3516   3.491   1.938   1.887
 1110WAT     H2 3517   3.499   2.086   1.918
 1111WAT      O 3518   1.349   2.176   1.185
 1111WAT     H1 3519   1.406   2.247   1.215
 1111WAT     H2 3520   1.395   2.096   1.209
 1112WAT      O 3521   1.656   0.019   1.411
 1112WAT     H1 3522   1.732  -0.022   1.371
 1112WAT     H2 3523   1.631   0.088   1.350
 1113WAT      O 3524   3.874   2.930   1.920
 1113WAT     H1 3525   3.799   2.920   1.979
 1113WAT     H2 3526   3.835   2.938   1.833
 1114WAT      O 3527   3.372   1.254   2.239
 1114WAT     H1 3528   3.329   1.290   2.317
 1114WAT     H2 3529   3.300   1.220   2.185
 1115WAT      O 3530   0.122   0.252   2.865
 1115WAT     H1 3531   0.146   0.331   2.915
 1115WAT     H2 3532   0.096   0.189   2.932
 1116WAT      O 3533   1.704   1.593   3.743
 1116WAT     H1 3534   1.657   1.534   3.801
 1116WAT     H2 3535   1.774   1.541   3.706
 1117WAT      O 3536   1.823   0.191   2.273
 1117WAT     H1 3537   1.862   0.107   2.297
 1117WAT     H2 3538   1.785   0.224   2.355
 1118WAT      O 3539   0.569   3.023   3.286
 1118WAT     H1 3540   0.618   3.063   3.358
 1118WAT     H2 3541   0.637   2.978   3.235
 1119WAT      O 3542   0.385   1.525   1.344
 1119WAT     H1 3543   0.431   1.605   1.320
 1119WAT     H2 3544   0.349   1.544   1.431
 1120WAT      O 3545   1.479   0.624   2.064
 1120WAT     H1 3546   1.462   0.699   2.121
 1120WAT     H2 3547   1.570   0.600   2.081
 1121WAT      O 3548   3.539   1.777   2.698
 1121WAT     H1 3549   3.504   1.865   2.685
 1121WAT     H2 3550   3.569   1.776   2.788
 1122WAT      O 3551   2.470   1.573   0.386
 1122WAT     H1 3552   2.468   1.629   0.309
 1122WAT     H2 3553   2.428   1.492   0.358
 1123WAT      O 3554   2.354   1.777   3.438
 1123WAT     H1 3555   2.393   1.700   3.396
 1123WAT     H2 3556   2.417   1.847   3.424
 1124WAT      O 3557   1.103   3.740   0.785
 1124WAT     H1 3558   1.074   3.810   0.844
 1124WAT     H2 3559   1.197   3.757   0.772
 1125WAT      O 3560   1.325   0.134   2.080
 1125WAT     H1 3561   1.267   0.162   2.151
 1125WAT     H2 3562   1.296   0.185   2.004
 1126WAT      O 3563   0.162   0.106   3.295
 1126WAT     H1 3564   0.196   0.146   3.374
 1126WAT     H2 3565   0.226   0.128   3.227
 1127WAT      O 3566   1.999   2.398   1.513
 1127WAT     H1 3567   1.970   2.472   1.567
 1127WAT     H2 3568   2.077   2.365   1.557
 1128WAT      O 3569   3.712   0.279   2.466
 1128WAT     H1 3570   3.664   0.351   2.507
 1128WAT     H2 3571   3.726   0.308   2.376
 1129WAT      O 3572   1.128   0.810   3.851
 1129WAT     H1 3573   1.149   0.890   3.899
 1129WAT     H2 3574   1.211   0.761   3.848
 1130WAT      O 3575   1.801   2.021   0.127
 1130WAT     H1 3576   1.872   2.000   0.187
 1130WAT     H2 3577   1.827   2.104   0.087
 1131WAT      O 3578   1.743   1.586   1.187
 1131WAT     H1 3579   1.709   1.634   1.112
 1131WAT     H2 3580   1.781   1.507   1.151
 1132WAT      O 3581   3.326   2.135   3.960
 1132WAT     H1 3582   3.255   2.173   3.908
 1132WAT     H2 3583   3.377   2.211   3.990
 1133WAT      O 3584   0.511   3.913   2.923
 1133WAT     H1 3585   0.532   3.887   2.833
 1133WAT     H2 3586   0.583   3.970   2.949
 1134WAT      O 3587   1.018   0.988   0.447
 1134WAT     H1 3588   0.925   0.967   0.451
 1134WAT     H2 3589   1.030   1.027   0.360
 1135WAT      O 3590   0.212   3.378   2.407
 1135WAT     H1 3591   0.165   3.322   2.345
 1135WAT     H2 3592   0.286   3.412   2.357
 1136WAT      O 3593   2.826   1.128   2.217
 1136WAT     H1 3594   2.800   1.142   2.126
 1136WAT     H2 3595   2.843   1.216   2.250
 1137WAT      O 3596   1.137   1.206   1.897
 1137WAT     H1 3597   1.063   1.268   1.892
 1137WAT     H2 3598   1.116   1.150   1.972
 1138WAT      O 3599   0.881   1.189   2.419
 1138WAT     H1 3600   0.831   1.260   2.459
 1138WAT     H2 3601   0.923   1.228   2.343
 1139WAT      O 3602   0.993   3.886   1.356
 1139WAT     H1 3603   1.006   3.793   1.337
 1139WAT     H2 3604   0.919   3.911   1.301
 1140WAT      O 3605   1.044   2.772   3.232
 1140WAT     H1 3606   1.003   2.763   3.318
 1140WAT     H2 3607   0.991   2.718   3.175
 1141WAT      O 3608   1.848   2.362   0.329
 1141WAT     H1 3609   1.917   2.305   0.296
 1141WAT     H2 3610   1.782   2.303   0.365
 1142WAT      O 3611   2.418   0.333   1.686
 1142WAT     H1 3612   2.373   0.251   1.667
 1142WAT     H2 3613   2.505   0.323   1.648
 1143WAT      O 3614   0.932   3.479   0.418
 1143WAT     H1 3615   0.917   3.572   0.405
 1143WAT     H2 3616   0.979   3.452   0.339
 1144WAT      O 3617   0.964   2.035   3.263
 1144WAT     H1 3618   0.925   2.008   3.346
 1144WAT     H2 3619   0.936   2.126   3.251
 1145WAT      O 3620   3.724   0.102   0.533
 1145WAT     H1 3621   3.780   0.092   0.457
 1145WAT     H2 3622   3.773   0.159   0.592
 1146WAT      O 3623   3.828   3.103   3.915
 1146WAT     H1 3624   3.860   3.094   4.005
 1146WAT     H2 3625   3.733   3.105   3.924
 1147WAT      O 3626   3.146   3.643   0.447
 1147WAT     H1 3627   3.215   3.710   0.455
 1147WAT     H2 3628   3.066   3.693   0.431
 1148WAT      O 3629   0.231   1.174   3.612
 1148WAT     H1 3630   0.237   1.081   3.589
 1148WAT     H2 3631   0.250   1.176   3.706
 1149WAT      O 3632   0.428   1.556   3.601
 1149WAT     H1 3633   0.421   1.629   3.539
 1149WAT     H2 3634   0.480   1.490   3.554
 1150WAT      O 3635   1.428   2.916   0.256
 1150WAT     H1 3636   1.433   2.927   0.351
 1150WAT     H2 3637   1.492   2.977   0.221
 1151WAT      O 3638   1.546   1.517   0.442
 1151WAT     H1 3639   1.525   1.473   0.360
 1151WAT     H2 3640   1.504   1.603   0.435
 1152WAT      O 3641   2.313   3.959   1.378
 1152WAT     H1 3642   2.290   4.035   1.431
 1152WAT     H2 3643   2.274   3.978   1.292
 1153WAT      O 3644   3.486   1.643   1.697
 1153WAT     H1 3645   3.579   1.628   1.682
 1153WAT     H2 3646   3.455   1.689   1.620
 1154WAT      O 3647   2.537   2.499   2.668
 1154WAT     H1 3648   2.611   2.554   2.642
 1154WAT     H2 3649   2.556   2.413   2.631
 1155WAT      O 3650   3.069   0.007   0.426
 1155WAT     H1 3651   3.139  -0.049   0.394
 1155WAT     H2 3652   3.102   0.096   0.416
 1156WAT      O 3653   3.750   3.972   2.149
 1156WAT     H1 3654   3.761   3.999   2.240
 1156WAT     H2 3655   3.711   3.884   2.155
 1157WAT      O 3656   3.303   3.484   0.600
 1157WAT     H1 3657   3.335   3.541   0.670
 1157WAT     H2 3658   3.260   3.544   0.538
 1158WAT      O 3659   0.956   2.335   2.067
 1158WAT     H1 3660   0.994   2.270   2.007
 1158WAT     H2 3661   0.943   2.287   2.149
 1159WAT      O 3662   2.564   0.680   1.714
 1159WAT     H1 3663   2.489   0.722   1.756
 1159WAT     H2 3664   2.623   0.658   1.786
 1160WAT      O 3665   3.289   0.955   0.990
 1160WAT     H1 3666   3.284   0.915   1.076
 1160WAT     H2 3667   3.369   1.008   0.993
 1161WAT      O 3668   0.798   0.317   3.637
 1161WAT     H1 3669   0.874   0.329   3.693
 1161WAT     H2 3670   0.723   0.331   3.696
 1162WAT      O 3671   1.872   1.842   3.573
 1162WAT     H1 3672   1.946   1.793   3.538
 1162WAT     H2 3673   1.828   1.780   3.631
 1163WAT      O 3674   2.510   2.127   3.133
 1163WAT     H1 3675   2.472   2.083   3.057
 1163WAT     H2 3676   2.603   2.137   3.110
 1164WAT      O 3677   3.086   3.789   2.744
 1164WAT     H1 3678   3.002   3.805   2.702
 1164WAT     H2 3679   3.087   3.850   2.819
 1165WAT      O 3680   2.330   0.758   1.519
 1165WAT     H1 3681   2.305   0.849   1.534
 1165WAT     H2 3682   2.366   0.757   1.431
 1166WAT      O 3683   0.186   2.932   2.469
 1166WAT     H1 3684   0.138   2.927   2.386
 1166WAT     H2 3685   0.262   2.875   2.455
 1167WAT      O 3686   1.641   3.685   1.560
 1167WAT     H1 3687   1.556   3.691   1.604
 1167WAT     H2 3688   1.688   3.763   1.590
 1168WAT      O 3689   0.027   0.126   3.958
 1168WAT     H1 3690   0.103   0.145   3.904
 1168WAT     H2 3691   0.013   0.207   4.009
 1169WAT      O 3692   3.599   0.118   1.986
 1169WAT     H1 3693   3.560   0.194   2.031
 1169WAT     H2 3694   3.641   0.069   2.057
 1170WAT      O 3695   3.344   2.321   0.941
 1170WAT     H1 3696   3.395   2.355   0.867
 1170WAT     H2 3697   3.288   2.394   0.967
 1171WAT      O 3698   2.125   1.617   2.866
 1171WAT     H1 3699   2.142   1.621   2.960
 1171WAT     H2 3700   2.101   1.525   2.850
 1172WAT      O 3701   2.974   3.399   3.139
 1172WAT     H1 3702   3.058   3.352   3.144
 1172WAT     H2 3703   2.913   3.345   3.189
 1173WAT      O 3704   2.260   0.433   3.263
 1173WAT     H1 3705   2.226   0.519   3.238
 1173WAT     H2 3706   2.338   0.420   3.208
 1174WAT      O 3707   2.037   1.633   2.398
 1174WAT     H1 3708   1.979   1.709   2.388
 1174WAT     H2 3709   1.980   1.564   2.432
 1175WAT      O 3710   0.767   2.903   3.186
 1175WAT     H1 3711   0.854   2.864   3.197
 1175WAT     H2 3712   0.754   2.905   3.091
 1176WAT      O 3713   3.169   1.005   2.690
 1176WAT     H1 3714   3.129   1.088   2.717
 1176WAT     H2 3715   3.259   1.011   2.721
 1177WAT      O 3716   1.348   3.443   2.993
 1177WAT     H1 3717   1.376   3.389   3.067
 1177WAT     H2 3718   1.413   3.425   2.925
 1178WAT      O 3719   2.037   3.397   0.122
 1178WAT     H1 3720   1.942   3.386   0.123
 1178WAT     H2 3721   2.055   3.447   0.042
 1179WAT      O 3722   2.503   0.518   1.481
 1179WAT     H1 3723   2.437   0.462   1.522
 1179WAT     H2 3724   2.515   0.590   1.544
 1180WAT      O 3725   1.305   2.940   2.919
 1180WAT     H1 3726   1.283   3.027   2.952
 1180WAT     H2 3727   1.291   2.946   2.825
 1181WAT      O 3728   2.916   3.789   2.103
 1181WAT     H1 3729   2.832   3.783   2.148
 1181WAT     H2 3730   2.893   3.809   2.012
 1182WAT      O 3731   3.752   3.403   1.528
 1182WAT     H1 3732   3.812   3.475   1.551
 1182WAT     H2 3733   3.686   3.404   1.597
 1183WAT      O 3734   1.239   0.186   0.795
 1183WAT     H1 3735   1.183   0.263   0.800
 1183WAT     H2 3736   1.243   0.165   0.701
 1184WAT      O 3737   3.537   2.780   1.895
 1184WAT     H1 3738   3.576   2.856   1.939
 1184WAT     H2 3739   3.463   2.756   1.951
 1185WAT      O 3740   1.238   4.014   2.355
 1185WAT     H1 3741   1.189   4.092   2.329
 1185WAT     H2 3742   1.228   3.953   2.282
 1186WAT      O 3743   2.841   2.833   1.244
 1186WAT     H1 3744   2.747   2.826   1.262
 1186WAT     H2 3745   2.873   2.743   1.250
 1187WAT      O 3746   3.868   3.156   1.517
 1187WAT     H1 3747   3.860   3.132   1.424
 1187WAT     H2 3748   3.839   3.247   1.521
 1188WAT      O 3749   3.006   2.171   1.473
 1188WAT     H1 3750   2.977   2.113   1.402
 1188WAT     H2 3751   2.937   2.237   1.479
 1189WAT      O 3752   4.012   3.032   0.126
 1189WAT     H1 3753   4.002   3.026   0.221
 1189WAT     H2 3754   4.106   3.018   0.111
 1190WAT      O 3755   0.038   1.034   0.499
 1190WAT     H1 3756  -0.025   0.981   0.451
 1190WAT     H2 3757   0.121   1.016   0.457
 1191WAT      O 3758   1.475   0.723   2.861
 1191WAT     H1 3759   1.416   0.776   2.913
 1191WAT     H2 3760   1.538   0.786   2.825
 1192WAT      O 3761   0.328   3.395   0.082
 1192WAT     H1 3762   0.315   3.475   0.032
 1192WAT     H2 3763   0.352   3.329   0.017
 1193WAT      O 3764   1.417   3.353   2.012
 1193WAT     H1 3765   1.370   3.418   1.959
 1193WAT     H2 3766   1.423   3.393   2.098
 1194WAT      O 3767   0.048   3.221   2.623
 1194WAT     H1 3768   0.067   3.270   2.543
 1194WAT     H2 3769   0.087   3.135   2.608
 1195WAT      O 3770   3.391   3.053   3.514
 1195WAT     H1 3771   3.397   3.064   3.609
 1195WAT     H2 3772   3.478   3.076   3.482
 1196WAT      O 3773   1.852   0.576   1.080
 1196WAT     H1 3774   1.818   0.490   1.104
 1196WAT     H2 3775   1.848   0.578   0.985
 1197WAT      O 3776   0.740   3.001   2.879
 1197WAT     H1 3777   0.815   3.029   2.826
 1197WAT     H2 3778   0.672   3.064   2.859
 1198WAT      O 3779   0.880   3.286   0.200
 1198WAT     H1 3780   0.870   3.371   0.158
 1198WAT     H2 3781   0.834   3.295   0.284
 1199WAT      O 3782   0.456   0.257   3.076
 1199WAT     H1 3783   0.440   0.350   3.091
 1199WAT     H2 3784   0.541   0.240   3.116
 1200WAT      O 3785   1.332   2.355   3.283
 1200WAT     H1 3786   1.280   2.280   3.315
 1200WAT     H2 3787   1.405   2.315   3.236
 1201WAT      O 3788   2.227   0.161   1.494
 1201WAT     H1 3789   2.137   0.174   1.524
 1201WAT     H2 3790   2.237   0.222   1.421
 1202WAT      O 3791   0.145   1.327   1.829
 1202WAT     H1 3792   0.125   1.233   1.830
 1202WAT     H2 3793   0.185   1.342   1.743
 1203WAT      O 3794   3.071   2.632   3.554
 1203WAT     H1 3795   3.163   2.610   3.540
 1203WAT     H2 3796   3.024   2.558   3.516
 1204WAT      O 3797   3.192   2.847   2.659
 1204WAT     H1 3798   3.212   2.770   2.607
 1204WAT     H2 3799   3.103   2.871   2.633
 1205WAT      O 3800   1.517   3.212   3.613
 1205WAT     H1 3801   1.438   3.159   3.624
 1205WAT     H2 3802   1.557   3.214   3.699
 1206WAT      O 3803   1.135   0.355   3.548
 1206WAT     H1 3804   1.208   0.303   3.515
 1206WAT     H2 3805   1.154   0.444   3.518
 1207WAT      O 3806   3.801   1.145   0.287
 1207WAT     H1 3807   3.784   1.225   0.336
 1207WAT     H2 3808   3.745   1.079   0.327
 1208WAT      O 3809   2.439   1.191   0.428
 1208WAT     H1 3810   2.394   1.259   0.377
 1208WAT     H2 3811   2.513   1.165   0.372
 1209WAT      O 3812   1.011   1.408   3.014
 1209WAT     H1 3813   0.998   1.449   3.100
 1209WAT     H2 3814   1.105   1.418   2.997
 1210WAT      O 3815   3.866   1.509   0.975
 1210WAT     H1 3816   3.868   1.596   1.014
 1210WAT     H2 3817   3.777   1.477   0.992
 1211WAT      O 3818   3.207   2.062   3.331
 1211WAT     H1 3819   3.137   1.998   3.320
 1211WAT     H2 3820   3.284   2.022   3.291
 1212WAT      O 3821   2.590   3.703   3.291
 1212WAT     H1 3822   2.568   3.613   3.267
 1212WAT     H2 3823   2.658   3.694   3.358
 1213WAT      O 3824   1.362   3.502   0.291
 1213WAT     H1 3825   1.441   3.553   0.275
 1213WAT     H2 3826   1.350   3.504   0.386
 1214WAT      O 3827   1.497   0.874   2.300
 1214WAT     H1 3828   1.483   0.885   2.394
 1214WAT     H2 3829   1.423   0.919   2.260
 1215WAT      O 3830   0.341   3.896   2.548
 1215WAT     H1 3831   0.285   3.963   2.588
 1215WAT     H2 3832   0.326   3.906   2.454
 1216WAT      O 3833   2.560   0.399   0.348
 1216WAT     H1 3834   2.538   0.481   0.303
 1216WAT     H2 3835   2.649   0.380   0.322
 1217WAT      O 3836   3.562   0.288   1.549
 1217WAT     H1 3837   3.622   0.354   1.514
 1217WAT     H2 3838   3.616   0.210   1.560
 1218WAT      O 3839   1.604   0.851   3.996
 1218WAT     H1 3840   1.683   0.902   3.978
 1218WAT     H2 3841   1.621   0.811   4.082
 1219WAT      O 3842   2.190   2.040   1.145
 1219WAT     H1 3843   2.104   2.027   1.185
 1219WAT     H2 3844   2.246   2.069   1.217
 1220WAT      O 3845   0.825   0.084   3.504
 1220WAT     H1 3846   0.811   0.165   3.553
 1220WAT     H2 3847   0.914   0.057   3.526
 1221WAT      O 3848   1.045   0.209   1.496
 1221WAT     H1 3849   1.094   0.175   1.421
 1221WAT     H2 3850   1.089   0.171   1.572
 1222WAT      O 3851   1.800   2.608   0.647
 1222WAT     H1 3852   1.795   2.650   0.561
 1222WAT     H2 3853   1.882   2.639   0.685
 1223WAT      O 3854   1.951   3.643   0.821
 1223WAT     H1 3855   1.917   3.731   0.807
 1223WAT     H2 3856   1.924   3.620   0.910
 1224WAT      O 3857   2.545   3.461   2.604
 1224WAT     H1 3858   2.564   3.527   2.671
 1224WAT     H2 3859   2.505   3.510   2.533
 1225WAT      O 3860   1.971   1.662   0.113
 1225WAT     H1 3861   2.000   1.607   0.040
 1225WAT     H2 3862   1.992   1.751   0.086
 1226WAT      O 3863   1.167   0.314   3.966
 1226WAT     H1 3864   1.159   0.404   3.996
 1226WAT     H2 3865   1.260   0.303   3.946
 1227WAT      O 3866   1.083   2.436   1.395
 1227WAT     H1 3867   1.050   2.491   1.466
 1227WAT     H2 3868   1.079   2.491   1.317
 1228WAT      O 3869   0.801   3.790   2.068
 1228WAT     H1 3870   0.834   3.879   2.062
 1228WAT     H2 3871   0.858   3.739   2.010
 1229WAT      O 3872   3.131   1.660   2.151
 1229WAT     H1 3873   3.110   1.568   2.168
 1229WAT     H2 3874   3.082   1.708   2.217
 1230WAT      O 3875   2.708   2.039   0.149
 1230WAT     H1 3876   2.698   1.966   0.210
 1230WAT     H2 3877   2.688   2.002   0.063
 1231WAT      O 3878   2.929   3.796   0.454
 1231WAT     H1 3879   2.974   3.869   0.411
 1231WAT     H2 3880   2.838   3.806   0.427
 1232WAT      O 3881   2.134   2.456   0.771
 1232WAT     H1 3882   2.064   2.403   0.732
 1232WAT     H2 3883   2.091   2.505   0.841
 1233WAT      O 3884   1.410   3.785   2.396
 1233WAT     H1 3885   1.345   3.852   2.417
 1233WAT     H2 3886   1.461   3.775   2.476
 1234WAT      O 3887   3.959   1.012   3.155
 1234WAT     H1 3888   3.892   1.053   3.101
 1234WAT     H2 3889   3.910   0.957   3.217
 1235WAT      O 3890   3.044   2.481   2.359
 1235WAT     H1 3891   3.008   2.524   2.436
 1235WAT     H2 3892   2.969   2.466   2.302
 1236WAT      O 3893   0.882   1.014   3.221
 1236WAT     H1 3894   0.967   1.048   3.193
 1236WAT     H2 3895   0.842   1.086   3.269
 1237WAT      O 3896   1.748   2.903   3.893
 1237WAT     H1 3897   1.693   2.863   3.825
 1237WAT     H2 3898   1.713   2.991   3.903
 1238WAT      O 3899   2.095   1.053   2.761
 1238WAT     H1 3900   2.158   1.052   2.833
 1238WAT     H2 3901   2.016   1.011   2.797
 1239WAT      O 3902   3.690   2.696   3.316
 1239WAT     H1 3903   3.778   2.728   3.301
 1239WAT     H2 3904   3.633   2.761   3.275
 1240WAT      O 3905   1.468   3.071   3.154
 1240WAT     H1 3906   1.389   3.020   3.175
 1240WAT     H2 3907   1.456   3.154   3.200
 1241WAT      O 3908   0.741   3.567   3.862
 1241WAT     H1 3909   0.753   3.657   3.834
 1241WAT     H2 3910   0.826   3.541   3.899
 1242WAT      O 3911   0.867   0.287   0.646
 1242WAT     H1 3912   0.835   0.260   0.732
 1242WAT     H2 3913   0.940   0.346   0.665
 1243WAT      O 3914   3.697   1.109   3.878
 1243WAT     H1 3915   3.732   1.028   3.917
 1243WAT     H2 3916   3.614   1.082   3.840
 1244WAT      O 3917   1.465   0.224   0.172
 1244WAT     H1 3918   1.477   0.235   0.078
 1244WAT     H2 3919   1.395   0.286   0.195
 1245WAT      O 3920   0.226   3.934   1.465
 1245WAT     H1 3921   0.298   3.989   1.495
 1245WAT     H2 3922   0.263   3.845   1.465
 1246WAT      O 3923   2.000   1.427   1.133
 1246WAT     H1 3924   1.988   1.406   1.226
 1246WAT     H2 3925   2.077   1.484   1.131
 1247WAT      O 3926   0.709   3.514   2.468
 1247WAT     H1 3927   0.784   3.484   2.415
 1247WAT     H2 3928   0.687   3.600   2.431
 1248WAT      O 3929   2.268   0.466   1.320
 1248WAT     H1 3930   2.345   0.509   1.357
 1248WAT     H2 3931   2.294   0.442   1.231
 1249WAT      O 3932   2.046   3.641   2.551
 1249WAT     H1 3933   1.964   3.683   2.524
 1249WAT     H2 3934   2.053   3.565   2.493
 1250WAT      O 3935   2.102   1.455   1.883
 1250WAT     H1 3936   2.056   1.496   1.956
 1250WAT     H2 3937   2.154   1.526   1.845
 1251WAT      O 3938   3.616   0.329   0.422
 1251WAT     H1 3939   3.618   0.324   0.517
 1251WAT     H2 3940   3.595   0.239   0.394
 1252WAT      O 3941   3.740   0.799   2.542
 1252WAT     H1 3942   3.745   0.842   2.627
 1252WAT     H2 3943   3.696   0.863   2.486
 1253WAT      O 3944   2.541   1.586   3.310
 1253WAT     H1 3945   2.610   1.641   3.272
 1253WAT     H2 3946   2.581   1.548   3.388
 1254WAT      O 3947   3.186   3.987   2.373
 1254WAT     H1 3948   3.131   3.909   2.370
 1254WAT     H2 3949   3.145   4.044   2.439
 1255WAT      O 3950   2.052   0.710   2.769
 1255WAT     H1 3951   1.985   0.768   2.803
 1255WAT     H2 3952   2.133   0.738   2.813
 1256WAT      O 3953   3.799   3.079   2.538
 1256WAT     H1 3954   3.856   3.118   2.604
 1256WAT     H2 3955   3.834   2.990   2.526
 1257WAT      O 3956   3.610   3.524   3.999
 1257WAT     H1 3957   3.628   3.570   3.917
 1257WAT     H2 3958   3.515   3.526   4.007
 1258WAT      O 3959   1.759   3.932   1.739
 1258WAT     H1 3960   1.669   3.941   1.770
 1258WAT     H2 3961   1.813   3.935   1.818
 1259WAT      O 3962   2.200   0.565   1.684
 1259WAT     H1 3963   2.243   0.645   1.653
 1259WAT     H2 3964   2.269   0.499   1.681
 1260WAT      O 3965   2.427   2.878   0.300
 1260WAT     H1 3966   2.351   2.821   0.307
 1260WAT     H2 3967   2.473   2.847   0.222
 1261WAT      O 3968   1.654   0.863   3.379
 1261WAT     H1 3969   1.734   0.853   3.327
 1261WAT     H2 3970   1.682   0.847   3.469
 1262WAT      O 3971   2.763   4.021   2.920
 1262WAT     H1 3972   2.672   4.051   2.920
 1262WAT     H2 3973   2.763   3.941   2.972
 1263WAT      O 3974   3.690   2.620   2.693
 1263WAT     H1 3975   3.600   2.588   2.687
 1263WAT     H2 3976   3.694   2.664   2.778
 1264WAT      O 3977   1.493   3.754   2.660
 1264WAT     H1 3978   1.538   3.836   2.682
 1264WAT     H2 3979   1.484   3.709   2.744
 1265WAT      O 3980   3.530   3.318   0.531
 1265WAT     H1 3981   3.528   3.339   0.625
 1265WAT     H2 3982   3.461   3.373   0.493
 1266WAT      O 3983   3.803   3.780   1.143
 1266WAT     H1 3984   3.823   3.759   1.234
 1266WAT     H2 3985   3.840   3.867   1.130
 1267WAT      O 3986   3.951   1.549   3.372
 1267WAT     H1 3987   3.998   1.471   3.343
 1267WAT     H2 3988   4.006   1.622   3.344
 1268WAT      O 3989   0.310   0.608   2.628
 1268WAT     H1 3990   0.360   0.684   2.600
 1268WAT     H2 3991   0.293   0.559   2.548
 1269WAT      O 3992   1.243   0.791   1.292
 1269WAT     H1 3993   1.321   0.844   1.275
 1269WAT     H2 3994   1.253   0.762   1.382
 1270WAT      O 3995   1.381   2.963   0.570
 1270WAT     H1 3996   1.446   2.977   0.639
 1270WAT     H2 3997   1.364   2.868   0.573
 1271WAT      O 3998   0.108   0.191   0.850
 1271WAT     H1 3999   0.066   0.224   0.929
 1271WAT     H2 4000   0.158   0.266   0.817
 1272WAT      O 4001   2.276   0.259   2.063
 1272WAT     H1 4002   2.215   0.315   2.111
 1272WAT     H2 4003   2.225   0.222   1.991
 1273WAT      O 4004   3.921   0.751   0.096
 1273WAT     H1 4005   3.837   0.728   0.136
 1273WAT     H2 4006   3.961   0.811   0.159
 1274WAT      O 4007   3.112   1.633   2.509
 1274WAT     H1 4008   3.101   1.665   2.599
 1274WAT     H2 4009   3.052   1.686   2.457
 1275WAT      O 4010   1.004   2.669   2.781
 1275WAT     H1 4011   0.985   2.671   2.688
 1275WAT     H2 4012   1.023   2.760   2.804
 1276WAT      O 4013   2.822   0.726   0.936
 1276WAT     H1 4014   2.768   0.694   0.864
 1276WAT     H2 4015   2.833   0.650   0.993
 1277WAT      O 4016   0.248   2.226   2.110
 1277WAT     H1 4017   0.330   2.229   2.159
 1277WAT     H2 4018   0.257   2.295   2.045
 1278WAT      O 4019   0.041   3.926   0.237
 1278WAT     H1 4020   0.129   3.956   0.214
 1278WAT     H2 4021   0.050   3.831   0.250
 1279WAT      O 4022   2.951   1.964   3.835
 1279WAT     H1 4023   3.016   1.905   3.874
 1279WAT     H2 4024   2.990   1.991   3.752
 1280WAT      O 4025   0.441   0.229   0.785
 1280WAT     H1 4026   0.496   0.305   0.765
 1280WAT     H2 4027   0.432   0.183   0.702
 1281WAT      O 4028   0.871   1.507   1.557
 1281WAT     H1 4029   0.959   1.544   1.558
 1281WAT     H2 4030   0.818   1.567   1.609
 1282WAT      O 4031   1.848   0.467   3.704
 1282WAT     H1 4032   1.862   0.458   3.609
 1282WAT     H2 4033   1.924   0.516   3.734
 1283WAT      O 4034   3.126   2.957   0.715
 1283WAT     H1 4035   3.199   2.985   0.659
 1283WAT     H2 4036   3.098   2.874   0.676
 1284WAT      O 4037   1.201   3.185   1.709
 1284WAT     H1 4038   1.120   3.195   1.659
 1284WAT     H2 4039   1.258   3.253   1.675
 1285WAT      O 4040   2.762   0.544   0.017
 1285WAT     H1 4041   2.716   0.488  -0.046
 1285WAT     H2 4042   2.738   0.633  -0.008
 1286WAT      O 4043   1.391   1.319   4.013
 1286WAT     H1 4044   1.299   1.326   4.038
 1286WAT     H2 4045   1.400   1.229   3.981
 1287WAT      O 4046   0.421   0.436   2.126
 1287WAT     H1 4047   0.355   0.370   2.107
 1287WAT     H2 4048   0.411   0.501   2.056
 1288WAT      O 4049   2.682   3.645   2.754
 1288WAT     H1 4050   2.747   3.609   2.814
 1288WAT     H2 4051   2.608   3.669   2.809
 1289WAT      O 4052   1.567   2.832   3.696
 1289WAT     H1 4053   1.543   2.867   3.610
 1289WAT     H2 4054   1.561   2.737   3.687
 1290WAT      O 4055   1.575   0.196   1.223
 1290WAT     H1 4056   1.540   0.196   1.134
 1290WAT     H2 4057   1.528   0.267   1.267
 1291WAT      O 4058   2.764   3.027   3.864
 1291WAT     H1 4059   2.754   2.976   3.784
 1291WAT     H2 4060   2.856   3.055   3.863
 1292WAT      O 4061   2.015   0.890   1.310
 1292WAT     H1 4062   2.019   0.795   1.319
 1292WAT     H2 4063   2.069   0.923   1.383
 1293WAT      O 4064   3.321   4.007   3.985
 1293WAT     H1 4065   3.410   4.018   3.951
 1293WAT     H2 4066   3.300   3.916   3.967
 1294WAT      O 4067   2.044   2.793   1.426
 1294WAT     H1 4068   2.110   2.725   1.437
 1294WAT     H2 4069   2.010   2.808   1.514
 1295WAT      O 4070   3.966   0.174   2.105
 1295WAT     H1 4071   3.989   0.171   2.198
 1295WAT     H2 4072   3.970   0.083   2.077
 1296WAT      O 4073   2.820   3.093   2.466
 1296WAT     H1 4074   2.811   3.079   2.371
 1296WAT     H2 4075   2.745   3.148   2.488
 1297WAT      O 4076   2.448   1.105   1.288
 1297WAT     H1 4077   2.524   1.139   1.334
 1297WAT     H2 4078   2.396   1.182   1.266
 1298WAT      O 4079   3.509   3.692   2.836
 1298WAT     H1 4080   3.535   3.784   2.843
 1298WAT     H2 4081   3.452   3.689   2.759
 1299WAT      O 4082   1.470   0.429   2.281
 1299WAT     H1 4083   1.387   0.465   2.312
 1299WAT     H2 4084   1.482   0.468   2.194
 1300WAT      O 4085   1.783   1.257   2.358
 1300WAT     H1 4086   1.876   1.239   2.346
 1300WAT     H2 4087   1.740   1.218   2.282
 1301WAT      O 4088   0.715   0.867   1.086
 1301WAT     H1 4089   0.728   0.935   1.020
 1301WAT     H2 4090   0.669   0.797   1.040
 1302WAT      O 4091   3.488   1.966   3.302
 1302WAT     H1 4092   3.505   1.934   3.391
 1302WAT     H2 4093   3.536   2.049   3.297
 1303WAT      O 4094   3.654   1.869   0.015
 1303WAT     H1 4095   3.640   1.846   0.107
 1303WAT     H2 4096   3.568   1.861  -0.025
 1304WAT      O 4097   2.231   0.844   2.249
 1304WAT     H1 4098   2.186   0.879   2.325
 1304WAT     H2 4099   2.313   0.809   2.283
 1305WAT      O 4100   0.738   1.417   1.856
 1305WAT     H1 4101   0.819   1.432   1.906
 1305WAT     H2 4102   0.762   1.350   1.792
 1306WAT      O 4103   0.915   1.536   3.854
 1306WAT     H1 4104   0.857   1.487   3.797
 1306WAT     H2 4105   1.002   1.523   3.816
 1307WAT      O 4106   0.572   1.097   0.240
 1307WAT     H1 4107   0.574   1.179   0.191
 1307WAT     H2 4108   0.500   1.108   0.302
 1308WAT      O 4109   2.825   2.375   1.457
 1308WAT     H1 4110   2.766   2.448   1.475
 1308WAT     H2 4111   2.770   2.309   1.414
 1309WAT      O 4112   2.319   2.016   2.015
 1309WAT     H1 4113   2.263   2.058   2.080
 1309WAT     H2 4114   2.294   2.057   1.932
 1310WAT      O 4115   3.005   2.619   3.186
 1310WAT     H1 4116   3.028   2.624   3.093
 1310WAT     H2 4117   3.008   2.525   3.207
 1311WAT      O 4118   0.327   1.203   4.023
 1311WAT     H1 4119   0.244   1.230   4.062
 1311WAT     H2 4120   0.317   1.110   4.006
 1312WAT      O 4121   3.320   0.229   2.295
 1312WAT     H1 4122   3.350   0.269   2.377
 1312WAT     H2 4123   3.295   0.140   2.320
 1313WAT      O 4124   1.360   3.833   0.741
 1313WAT     H1 4125   1.373   3.892   0.815
 1313WAT     H2 4126   1.447   3.799   0.721
 1314WAT      O 4127   0.792   3.746   3.185
 1314WAT     H1 4128   0.747   3.678   3.135
 1314WAT     H2 4129   0.807   3.816   3.121
 1315WAT      O 4130   3.410   0.082   1.464
 1315WAT     H1 4131   3.418   0.171   1.497
 1315WAT     H2 4132   3.500   0.055   1.448
 1316WAT      O 4133   1.250   0.826   2.969
 1316WAT     H1 4134   1.219   0.854   3.055
 1316WAT     H2 4135   1.178   0.849   2.909
 1317WAT      O 4136   3.268   2.737   1.685
 1317WAT     H1 4137   3.320   2.801   1.637
 1317WAT     H2 4138   3.252   2.778   1.770
 1318WAT      O 4139   0.300   3.098   1.020
 1318WAT     H1 4140   0.352   3.019   1.034
 1318WAT     H2 4141   0.218   3.067   0.983
 1319WAT      O 4142   1.711   1.399   0.966
 1319WAT     H1 4143   1.799   1.437   0.967
 1319WAT     H2 4144   1.675   1.423   0.880
 1320WAT      O 4145   1.142   2.744   0.781
 1320WAT     H1 4146   1.167   2.822   0.831
 1320WAT     H2 4147   1.145   2.673   0.845
 1321WAT      O 4148   0.408   3.128   0.369
 1321WAT     H1 4149   0.433   3.042   0.337
 1321WAT     H2 4150   0.323   3.115   0.411
 1322WAT      O 4151   2.100   1.201   1.997
 1322WAT     H1 4152   2.070   1.212   2.087
 1322WAT     H2 4153   2.095   1.289   1.959
 1323WAT      O 4154   1.736   3.269   2.920
 1323WAT     H1 4155   1.739   3.182   2.959
 1323WAT     H2 4156   1.828   3.295   2.913
 1324WAT      O 4157   1.312   1.224   2.524
 1324WAT     H1 4158   1.321   1.142   2.573
 1324WAT     H2 4159   1.299   1.196   2.433
 1325WAT      O 4160   1.156   1.162   3.879
 1325WAT     H1 4161   1.123   1.224   3.944
 1325WAT     H2 4162   1.234   1.124   3.919
 1326WAT      O 4163   0.432   1.452   3.935
 1326WAT     H1 4164   0.381   1.372   3.946
 1326WAT     H2 4165   0.424   1.498   4.019
 1327WAT      O 4166   1.139   1.641   2.111
 1327WAT     H1 4167   1.234   1.655   2.108
 1327WAT     H2 4168   1.103   1.725   2.138
 1328WAT      O 4169   0.753   3.807   3.712
 1328WAT     H1 4170   0.668   3.850   3.708
 1328WAT     H2 4171   0.761   3.761   3.629
 1329WAT      O 4172   1.966   1.626   1.360
 1329WAT     H1 4173   1.906   1.607   1.432
 1329WAT     H2 4174   1.909   1.636   1.284
 1330WAT      O 4175   2.245   2.854   3.571
 1330WAT     H1 4176   2.214   2.837   3.660
 1330WAT     H2 4177   2.305   2.782   3.552
 1331WAT      O 4178   0.830   2.318   0.137
 1331WAT     H1 4179   0.891   2.244   0.134
 1331WAT     H2 4180   0.857   2.368   0.214
 1332WAT      O 4181   0.225   2.375   3.332
 1332WAT     H1 4182   0.192   2.375   3.242
 1332WAT     H2 4183   0.183   2.450   3.373
 1333WAT      O 4184   1.921   3.958   2.845
 1333WAT     H1 4185   2.014   3.958   2.867
 1333WAT     H2 4186   1.914   4.010   2.765
 1334WAT      O 4187   2.112   2.584   2.659
 1334WAT     H1 4188   2.098   2.569   2.752
 1334WAT     H2 4189   2.027   2.566   2.619
 1335WAT      O 4190   2.680   3.399   1.130
 1335WAT     H1 4191   2.605   3.447   1.166
 1335WAT     H2 4192   2.649   3.309   1.122
 1336WAT      O 4193   1.482   4.016   1.852
 1336WAT     H1 4194   1.501   4.002   1.944
 1336WAT     H2 4195   1.475   4.111   1.843
 1337WAT      O 4196   0.188   2.098   2.940
 1337WAT     H1 4197   0.211   2.174   2.887
 1337WAT     H2 4198   0.168   2.133   3.027
 1338WAT      O 4199   2.021   1.819   3.121
 1338WAT     H1 4200   1.947   1.795   3.177
 1338WAT     H2 4201   1.990   1.802   3.032
 1339WAT      O 4202   0.614   1.242   2.629
 1339WAT     H1 4203   0.631   1.149   2.647
 1339WAT     H2 4204   0.565   1.272   2.704
 1340WAT      O 4205   3.870   0.455   0.944
 1340WAT     H1 4206   3.933   0.523   0.965
 1340WAT     H2 4207   3.887   0.385   1.006
 1341WAT      O 4208   3.056   1.423   2.029
 1341WAT     H1 4209   3.031   1.340   1.988
 1341WAT     H2 4210   3.115   1.464   1.967
 1342WAT      O 4211   3.281   3.054   0.516
 1342WAT     H1 4212   3.372   3.049   0.545
 1342WAT     H2 4213   3.287   3.074   0.423
 1343WAT      O 4214   1.567   2.832   2.028
 1343WAT     H1 4215   1.568   2.927   2.021
 1343WAT     H2 4216   1.610   2.813   2.111
 1344WAT      O 4217   2.879   3.003   3.027
 1344WAT     H1 4218   2.971   2.999   3.054
 1344WAT     H2 4219   2.881   2.989   2.933
 1345WAT      O 4220   1.621   1.512   3.124
 1345WAT     H1 4221   1.613   1.434   3.179
 1345WAT     H2 4222   1.592   1.483   3.037
 1346WAT      O 4223   3.663   3.735   0.886
 1346WAT     H1 4224   3.656   3.823   0.848
 1346WAT     H2 4225   3.730   3.743   0.954
 1347WAT      O 4226   1.038   3.646   1.169
 1347WAT     H1 4227   1.085   3.604   1.097
 1347WAT     H2 4228   0.947   3.618   1.158
 1348WAT      O 4229   1.340   2.240   0.361
 1348WAT     H1 4230   1.386   2.228   0.444
 1348WAT     H2 4231   1.248   2.247   0.385
 1349WAT      O 4232   2.305   0.812   1.009
 1349WAT     H1 4233   2.301   0.867   1.087
 1349WAT     H2 4234   2.384   0.759   1.022
 1350WAT      O 4235   3.143   1.272   1.672
 1350WAT     H1 4236   3.062   1.280   1.622
 1350WAT     H2 4237   3.210   1.254   1.607
 1351WAT      O 4238   1.429   3.482   1.344
 1351WAT     H1 4239   1.404   3.390   1.335
 1351WAT     H2 4240   1.484   3.499   1.267
 1352WAT      O 4241   0.035   1.730   0.195
 1352WAT     H1 4242  -0.022   1.653   0.205
 1352WAT     H2 4243   0.081   1.737   0.278
 1353WAT      O 4244   3.574   0.645   1.910
 1353WAT     H1 4245   3.611   0.561   1.883
 1353WAT     H2 4246   3.529   0.678   1.832
 1354WAT      O 4247   1.636   1.796   0.611
 1354WAT     H1 4248   1.713   1.758   0.570
 1354WAT     H2 4249   1.565   1.779   0.549
 1355WAT      O 4250   0.823   1.936   3.472
 1355WAT     H1 4251   0.888   1.868   3.491
 1355WAT     H2 4252   0.833   1.999   3.543
 1356WAT      O 4253   3.594   1.058   2.239
 1356WAT     H1 4254   3.667   1.115   2.262
 1356WAT     H2 4255   3.521   1.089   2.293
 1357WAT      O 4256   0.307   3.440   1.411
 1357WAT     H1 4257   0.345   3.363   1.368
 1357WAT     H2 4258   0.238   3.403   1.467
 1358WAT      O 4259   0.679   1.984   1.022
 1358WAT     H1 4260   0.671   2.039   1.100
 1358WAT     H2 4261   0.774   1.971   1.011
 1359WAT      O 4262   0.072   2.116   0.921
 1359WAT     H1 4263  -0.016   2.081   0.936
 1359WAT     H2 4264   0.119   2.097   1.002
 1360WAT      O 4265   2.000   3.550   1.085
 1360WAT     H1 4266   2.036   3.489   1.149
 1360WAT     H2 4267   2.024   3.512   1.000
 1361WAT      O 4268   2.815   0.261   2.811
 1361WAT     H1 4269   2.794   0.174   2.846
 1361WAT     H2 4270   2.871   0.301   2.877
 1362WAT      O 4271   1.216   0.059   0.090
 1362WAT     H1 4272   1.181   0.143   0.061
 1362WAT     H2 4273   1.310   0.074   0.098
 1363WAT      O 4274   0.340   3.511   3.614
 1363WAT     H1 4275   0.361   3.553   3.531
 1363WAT     H2 4276   0.420   3.465   3.638
 1364WAT      O 4277   2.047   1.236   2.295
 1364WAT     H1 4278   2.139   1.230   2.322
 1364WAT     H2 4279   2.017   1.145   2.291
 1365WAT      O 4280   1.795   1.371   3.569
 1365WAT     H1 4281   1.711   1.326   3.577
 1365WAT     H2 4282   1.805   1.388   3.475
 1366WAT      O 4283   2.008   2.279   3.403
 1366WAT     H1 4284   1.942   2.328   3.452
 1366WAT     H2 4285   2.091   2.310   3.439
 1367WAT      O 4286   1.065   3.530   2.081
 1367WAT     H1 4287   1.137   3.480   2.040
 1367WAT     H2 4288   1.020   3.571   2.007
 1368WAT      O 4289   3.149   2.971   3.006
 1368WAT     H1 4290   3.192   2.986   3.090
 1368WAT     H2 4291   3.172   3.048   2.953
 1369WAT      O 4292   1.208   2.348   3.834
 1369WAT     H1 4293   1.210   2.256   3.809
 1369WAT     H2 4294   1.293   2.363   3.876
 1370WAT      O 4295   2.188   0.189   0.336
 1370WAT     H1 4296   2.272   0.144   0.345
 1370WAT     H2 4297   2.126   0.135   0.385
 1371WAT      O 4298   0.455   0.804   0.626
 1371WAT     H1 4299   0.366   0.837   0.630
 1371WAT     H2 4300   0.509   0.876   0.659
 1372WAT      O 4301   2.044   0.667   2.152
 1372WAT     H1 4302   2.109   0.735   2.169
 1372WAT     H2 4303   1.970   0.713   2.113
 1373WAT      O 4304   2.555   2.821   3.234
 1373WAT     H1 4305   2.593   2.742   3.271
 1373WAT     H2 4306   2.530   2.874   3.311
 1374WAT      O 4307   2.269   0.110   2.771
 1374WAT     H1 4308   2.245   0.202   2.779
 1374WAT     H2 4309   2.320   0.106   2.689
 1375WAT      O 4310   3.842   2.495   3.110
 1375WAT     H1 4311   3.774   2.561   3.103
 1375WAT     H2 4312   3.896   2.508   3.032
 1376WAT      O 4313   0.471   1.693   2.174
 1376WAT     H1 4314   0.480   1.643   2.093
 1376WAT     H2 4315   0.560   1.703   2.207
 1377WAT      O 4316   1.955   1.977   1.279
 1377WAT     H1 4317   1.937   1.968   1.373
 1377WAT     H2 4318   1.926   1.895   1.241
 1378WAT      O 4319   2.033   1.365   2.929
 1378WAT     H1 4320   1.938   1.372   2.922
 1378WAT     H2 4321   2.048   1.276   2.961
 1379WAT      O 4322   0.478   2.961   3.810
 1379WAT     H1 4323   0.468   2.970   3.716
 1379WAT     H2 4324   0.447   2.873   3.830
 1380WAT      O 4325   1.603   1.273   3.258
 1380WAT     H1 4326   1.670   1.238   3.317
 1380WAT     H2 4327   1.539   1.202   3.251
 1381WAT      O 4328   2.479   2.878   2.786
 1381WAT     H1 4329   2.486   2.920   2.701
 1381WAT     H2 4330   2.564   2.836   2.800
 1382WAT      O 4331   3.662   3.343   2.731
 1382WAT     H1 4332   3.681   3.406   2.800
 1382WAT     H2 4333   3.628   3.266   2.776
 1383WAT      O 4334   3.772   3.460   0.518
 1383WAT     H1 4335   3.697   3.406   0.494
 1383WAT     H2 4336   3.778   3.452   0.613
 1384WAT      O 4337   3.593   3.067   0.966
 1384WAT     H1 4338   3.673   3.114   0.941
 1384WAT     H2 4339   3.625   2.986   1.006
 1385WAT      O 4340   0.326   3.064   2.685
 1385WAT     H1 4341   0.407   3.037   2.641
 1385WAT     H2 4342   0.257   3.017   2.638
 1386WAT      O 4343   3.228   2.819   1.941
 1386WAT     H1 4344   3.248   2.729   1.969
 1386WAT     H2 4345   3.132   2.822   1.941
 1387WAT      O 4346   1.928   1.102   0.953
 1387WAT     H1 4347   1.896   1.084   1.041
 1387WAT     H2 4348   2.023   1.115   0.964
 1388WAT      O 4349   3.973   2.289   3.967
 1388WAT     H1 4350   3.917   2.366   3.953
 1388WAT     H2 4351   3.945   2.254   4.051
 1389WAT      O 4352   0.177   3.307   3.803
 1389WAT     H1 4353   0.142   3.364   3.734
 1389WAT     H2 4354   0.110   3.309   3.871
 1390WAT      O 4355   1.415   1.692   2.033
 1390WAT     H1 4356   1.406   1.680   1.939
 1390WAT     H2 4357   1.417   1.787   2.046
 1391WAT      O 4358   3.706   2.600   1.258
 1391WAT     H1 4359   3.618   2.629   1.283
 1391WAT     H2 4360   3.692   2.551   1.176
 1392WAT      O 4361   1.917   2.092   0.510
 1392WAT     H1 4362   1.967   2.027   0.559
 1392WAT     H2 4363   1.950   2.084   0.420
 1393WAT      O 4364   3.942   0.938   3.931
 1393WAT     H1 4365   3.987   1.006   3.981
 1393WAT     H2 4366   3.933   0.865   3.992
 1394WAT      O 4367   3.684   1.854   0.292
 1394WAT     H1 4368   3.730   1.855   0.376
 1394WAT     H2 4369   3.739   1.906   0.234
 1395WAT      O 4370   2.631   3.451   2.333
 1395WAT     H1 4371   2.671   3.519   2.388
 1395WAT     H2 4372   2.539   3.477   2.326
 1396WAT      O 4373   0.104   3.583   4.017
 1396WAT     H1 4374   0.172   3.591   3.950
 1396WAT     H2 4375   0.068   3.495   4.004
 1397WAT      O 4376   1.848   2.769   0.107
 1397WAT     H1 4377   1.809   2.851   0.077
 1397WAT     H2 4378   1.801   2.701   0.059
 1398WAT      O 4379   0.375   3.245   2.999
 1398WAT     H1 4380   0.323   3.193   2.938
 1398WAT     H2 4381   0.315   3.313   3.029
 1399WAT      O 4382   1.006   1.784   2.953
 1399WAT     H1 4383   0.993   1.877   2.969
 1399WAT     H2 4384   0.921   1.752   2.924
 1400WAT      O 4385   2.963   1.839   2.690
 1400WAT     H1 4386   2.905   1.780   2.642
 1400WAT     H2 4387   3.000   1.785   2.760
 1401WAT      O 4388   0.633   0.989   0.717
 1401WAT     H1 4389   0.716   0.949   0.691
 1401WAT     H2 4390   0.641   1.002   0.811
 1402WAT      O 4391   0.540   0.213   2.287
 1402WAT     H1 4392   0.551   0.269   2.210
 1402WAT     H2 4393   0.445   0.198   2.292
 1403WAT      O 4394   1.924   0.261   1.682
 1403WAT     H1 4395   1.927   0.226   1.771
 1403WAT     H2 4396   1.959   0.350   1.690
 1404WAT      O 4397   0.587   3.787   2.690
 1404WAT     H1 4398   0.601   3.858   2.627
 1404WAT     H2 4399   0.499   3.755   2.672
 1405WAT      O 4400   2.348   3.767   1.892
 1405WAT     H1 4401   2.419   3.719   1.850
 1405WAT     H2 4402   2.315   3.708   1.960
 1406WAT      O 4403   0.916   2.465   1.825
 1406WAT     H1 4404   0.860   2.542   1.833
 1406WAT     H2 4405   0.922   2.431   1.915
 1407WAT      O 4406   1.190   2.207   0.731
 1407WAT     H1 4407   1.233   2.194   0.816
 1407WAT     H2 4408   1.261   2.203   0.667
 1408WAT      O 4409   1.749   2.046   1.760
 1408WAT     H1 4410   1.752   2.029   1.854
 1408WAT     H2 4411   1.674   2.105   1.749
 1409WAT      O 4412   0.744   3.697   3.438
 1409WAT     H1 4413   0.649   3.693   3.437
 1409WAT     H2 4414   0.770   3.679   3.348
 1410WAT      O 4415   1.155   3.432   2.537
 1410WAT     H1 4416   1.062   3.432   2.556
 1410WAT     H2 4417   1.195   3.483   2.608
 1411WAT      O 4418   3.315   0.058   2.971
 1411WAT     H1 4419   3.361   0.142   2.962
 1411WAT     H2 4420   3.334   0.029   3.060
 1412WAT      O 4421   3.316   2.485   1.593
 1412WAT     H1 4422   3.295   2.566   1.639
 1412WAT     H2 4423   3.257   2.420   1.629
 1413WAT      O 4424   0.566   3.061   2.522
 1413WAT     H1 4425   0.597   3.151   2.521
 1413WAT     H2 4426   0.523   3.049   2.438
 1414WAT      O 4427   2.707   3.415   1.618
 1414WAT     H1 4428   2.700   3.507   1.590
 1414WAT     H2 4429   2.680   3.365   1.541
 1415WAT      O 4430   1.231   3.796   2.693
 1415WAT     H1 4431   1.318   3.764   2.670
 1415WAT     H2 4432   1.192   3.725   2.744
 1416WAT      O 4433   0.489   2.657   3.099
 1416WAT     H1 4434   0.521   2.704   3.176
 1416WAT     H2 4435   0.473   2.568   3.130
 1417WAT      O 4436   2.825   1.052   1.179
 1417WAT     H1 4437   2.899   1.091   1.227
 1417WAT     H2 4438   2.814   1.109   1.103
 1418WAT      O 4439   3.451   2.050   2.709
 1418WAT     H1 4440   3.460   2.089   2.797
 1418WAT     H2 4441   3.524   2.088   2.659
 1419WAT      O 4442   0.069   3.495   3.632
 1419WAT     H1 4443   0.163   3.511   3.629
 1419WAT     H2 4444   0.030   3.567   3.582
 1420WAT      O 4445   0.179   3.094   3.509
 1420WAT     H1 4446   0.186   3.181   3.469
 1420WAT     H2 4447   0.106   3.102   3.571
 1421WAT      O 4448   2.072   3.274   2.463
 1421WAT     H1 4449   2.145   3.299   2.519
 1421WAT     H2 4450   2.039   3.193   2.502
 1422WAT      O 4451   1.627   0.368   2.027
 1422WAT     H1 4452   1.595   0.333   1.944
 1422WAT     H2 4453   1.665   0.293   2.072
 1423WAT      O 4454   3.892   2.144   3.537
 1423WAT     H1 4455   3.870   2.227   3.494
 1423WAT     H2 4456   3.967   2.165   3.593
 1424WAT      O 4457   0.920   2.466   0.347
 1424WAT     H1 4458   0.874   2.492   0.427
 1424WAT     H2 4459   1.005   2.509   0.354
 1425WAT      O 4460   1.780   0.413   2.839
 1425WAT     H1 4461   1.853   0.425   2.900
 1425WAT     H2 4462   1.708   0.462   2.878
 1426WAT      O 4463   2.999   0.220   1.318
 1426WAT     H1 4464   2.959   0.143   1.278
 1426WAT     H2 4465   3.012   0.195   1.410
 1427WAT      O 4466   3.158   2.503   3.834
 1427WAT     H1 4467   3.159   2.452   3.754
 1427WAT     H2 4468   3.248   2.533   3.845
 1428WAT      O 4469   2.419   1.343   2.687
 1428WAT     H1 4470   2.429   1.424   2.637
 1428WAT     H2 4471   2.324   1.327   2.689
 1429WAT      O 4472   0.654   3.354   2.682
 1429WAT     H1 4473   0.561   3.329   2.675
 1429WAT     H2 4474   0.668   3.412   2.607
 1430WAT      O 4475   0.190   2.998   0.495
 1430WAT     H1 4476   0.122   3.055   0.458
 1430WAT     H2 4477   0.159   2.910   0.476
 1431WAT      O 4478   2.418   2.638   3.579
 1431WAT     H1 4479   2.483   2.621   3.511
 1431WAT     H2 4480   2.468   2.632   3.661
 1432WAT      O 4481   3.966   0.250   1.089
 1432WAT     H1 4482   3.908   0.177   1.109
 1432WAT     H2 4483   4.046   0.231   1.138
 1433WAT      O 4484   0.008   1.155   2.852
 1433WAT     H1 4485  -0.063   1.096   2.875
 1433WAT     H2 4486  -0.019   1.240   2.887
 1434WAT      O 4487   1.755   2.930   1.475
 1434WAT     H1 4488   1.685   2.922   1.539
 1434WAT     H2 4489   1.836   2.922   1.525
 1435WAT      O 4490   3.832   1.749   3.533
 1435WAT     H1 4491   3.741   1.764   3.511
 1435WAT     H2 4492   3.854   1.667   3.488
 1436WAT      O 4493   2.746   0.597   0.700
 1436WAT     H1 4494   2.722   0.655   0.627
 1436WAT     H2 4495   2.840   0.583   0.688
 1437WAT      O 4496   0.182   2.572   4.021
 1437WAT     H1 4497   0.090   2.554   4.039
 1437WAT     H2 4498   0.222   2.486   4.009
 1438WAT      O 4499   3.530   2.091   2.995
 1438WAT     H1 4500   3.437   2.106   3.013
 1438WAT     H2 4501   3.575   2.153   3.052
 1439WAT      O 4502   2.428   3.463   1.235
 1439WAT     H1 4503   2.369   3.388   1.243
 1439WAT     H2 4504   2.371   3.539   1.228
 1440WAT      O 4505   0.269   2.078   0.204
 1440WAT     H1 4506   0.223   2.161   0.193
 1440WAT     H2 4507   0.252   2.031   0.122
 1441WAT      O 4508   0.217   0.157   3.715
 1441WAT     H1 4509   0.253   0.230   3.766
 1441WAT     H2 4510   0.211   0.190   3.626
 1442WAT      O 4511   0.732   0.661   1.746
 1442WAT     H1 4512   0.641   0.675   1.721
 1442WAT     H2 4513   0.727   0.602   1.822
 1443WAT      O 4514   1.302   2.700   0.584
 1443WAT     H1 4515   1.235   2.713   0.651
 1443WAT     H2 4516   1.362   2.636   0.623
 1444WAT      O 4517   3.746   1.501   3.083
 1444WAT     H1 4518   3.674   1.465   3.033
 1444WAT     H2 4519   3.705   1.564   3.142
 1445WAT      O 4520   0.683   0.343   1.665
 1445WAT     H1 4521   0.628   0.339   1.743
 1445WAT     H2 4522   0.653   0.421   1.619
 1446WAT      O 4523   2.674   2.351   2.862
 1446WAT     H1 4524   2.762   2.390   2.861
 1446WAT     H2 4525   2.618   2.416   2.822
 1447WAT      O 4526   2.286   1.135   2.396
 1447WAT     H1 4527   2.353   1.196   2.427
 1447WAT     H2 4528   2.316   1.049   2.424
 1448WAT      O 4529   2.058   2.887   0.303
 1448WAT     H1 4530   2.050   2.824   0.232
 1448WAT     H2 4531   2.146   2.871   0.338
 1449WAT      O 4532   2.897   2.458   3.893
 1449WAT     H1 4533   2.865   2.447   3.983
 1449WAT     H2 4534   2.987   2.488   3.903
 1450WAT      O 4535   2.314   1.424   0.254
 1450WAT     H1 4536   2.346   1.450   0.167
 1450WAT     H2 4537   2.223   1.401   0.240
 1451WAT      O 4538   1.427   3.888   1.381
 1451WAT     H1 4539   1.472   3.807   1.359
 1451WAT     H2 4540   1.498   3.950   1.401
 1452WAT      O 4541   1.347   1.664   1.116
 1452WAT     H1 4542   1.360   1.576   1.080
 1452WAT     H2 4543   1.416   1.716   1.074
 1453WAT      O 4544   1.366   1.292   1.785
 1453WAT     H1 4545   1.383   1.224   1.720
 1453WAT     H2 4546   1.274   1.279   1.809
 1454WAT      O 4547   2.412   3.651   2.445
 1454WAT     H1 4548   2.381   3.722   2.501
 1454WAT     H2 4549   2.381   3.674   2.357
 1455WAT      O 4550   3.861   1.335   2.574
 1455WAT     H1 4551   3.867   1.404   2.641
 1455WAT     H2 4552   3.773   1.299   2.584
 1456WAT      O 4553   1.866   2.541   1.750
 1456WAT     H1 4554   1.788   2.583   1.714
 1456WAT     H2 4555   1.849   2.447   1.742
 1457WAT      O 4556   1.690   0.965   0.375
 1457WAT     H1 4557   1.779   0.931   0.385
 1457WAT     H2 4558   1.682   1.033   0.442
 1458WAT      O 4559   0.279   3.916   1.851
 1458WAT     H1 4560   0.226   3.993   1.831
 1458WAT     H2 4561   0.338   3.944   1.921
 1459WAT      O 4562   2.168   1.454   3.646
 1459WAT     H1 4563   2.201   1.444   3.735
 1459WAT     H2 4564   2.116   1.534   3.649
 1460WAT      O 4565   2.219   3.406   3.401
 1460WAT     H1 4566   2.149   3.384   3.462
 1460WAT     H2 4567   2.183   3.386   3.314
 1461WAT      O 4568   0.583   1.991   2.125
 1461WAT     H1 4569   0.549   2.079   2.110
 1461WAT     H2 4570   0.567   1.975   2.218
 1462WAT      O 4571   1.807   1.300   1.348
 1462WAT     H1 4572   1.804   1.309   1.444
 1462WAT     H2 4573   1.895   1.267   1.330
 1463WAT      O 4574   2.377   1.800   2.707
 1463WAT     H1 4575   2.420   1.714   2.704
 1463WAT     H2 4576   2.351   1.811   2.798
 1464WAT      O 4577   1.873   0.573   0.808
 1464WAT     H1 4578   1.925   0.507   0.762
 1464WAT     H2 4579   1.867   0.646   0.746
 1465WAT      O 4580   1.553   3.962   1.021
 1465WAT     H1 4581   1.568   3.868   1.021
 1465WAT     H2 4582   1.459   3.972   1.003
 1466WAT      O 4583   1.371   1.042   2.028
 1466WAT     H1 4584   1.452   1.002   1.997
 1466WAT     H2 4585   1.344   1.100   1.957
 1467WAT      O 4586   0.153   2.350   3.083
 1467WAT     H1 4587   0.224   2.384   3.028
 1467WAT     H2 4588   0.073   2.383   3.041
 1468WAT      O 4589   3.755   0.641   3.423
 1468WAT     H1 4590   3.793   0.624   3.509
 1468WAT     H2 4591   3.779   0.732   3.404
 1469WAT      O 4592   3.981   1.380   3.013
 1469WAT     H1 4593   3.912   1.437   3.049
 1469WAT     H2 4594   4.044   1.371   3.084
 1470WAT      O 4595   3.202   3.750   1.840
 1470WAT     H1 4596   3.107   3.752   1.848
 1470WAT     H2 4597   3.226   3.841   1.824
 1471WAT      O 4598   2.410   3.900   3.073
 1471WAT     H1 4599   2.459   3.859   3.145
 1471WAT     H2 4600   2.440   3.992   3.074
 1472WAT      O 4601   2.920   3.754   1.293
 1472WAT     H1 4602   2.914   3.665   1.257
 1472WAT     H2 4603   3.002   3.755   1.342
 1473WAT      O 4604   0.058   3.449   0.887
 1473WAT     H1 4605  -0.026   3.453   0.934
 1473WAT     H2 4606   0.070   3.538   0.852
 1474WAT      O 4607   3.261   0.360   2.562
 1474WAT     H1 4608   3.249   0.429   2.626
 1474WAT     H2 4609   3.208   0.287   2.595
 1475WAT      O 4610   1.428   2.503   1.004
 1475WAT     H1 4611   1.347   2.463   1.034
 1475WAT     H2 4612   1.497   2.451   1.045
 1476WAT      O 4613   1.137   3.569   0.562
 1476WAT     H1 4614   1.100   3.642   0.612
 1476WAT     H2 4615   1.064   3.536   0.510
 1477WAT      O 4616   3.527   0.440   2.573
 1477WAT     H1 4617   3.529   0.505   2.643
 1477WAT     H2 4618   3.433   0.427   2.555
 1478WAT      O 4619   3.615   1.045   1.055
 1478WAT     H1 4620   3.711   1.042   1.052
 1478WAT     H2 4621   3.589   1.054   0.963
 1479WAT      O 4622   3.984   3.946   2.002
 1479WAT     H1 4623   4.044   3.879   2.035
 1479WAT     H2 4624   3.904   3.933   2.052
 1480WAT      O 4625   2.093   2.214   0.277
 1480WAT     H1 4626   2.153   2.248   0.211
 1480WAT     H2 4627   2.076   2.123   0.251
 1481WAT      O 4628   0.501   1.061   2.081
 1481WAT     H1 4629   0.432   1.038   2.018
 1481WAT     H2 4630   0.496   1.156   2.088
 1482WAT      O 4631   3.268   3.192   2.896
 1482WAT     H1 4632   3.314   3.230   2.971
 1482WAT     H2 4633   3.288   3.251   2.824
 1483WAT      O 4634   2.959   1.606   0.329
 1483WAT     H1 4635   2.893   1.539   0.315
 1483WAT     H2 4636   2.958   1.659   0.249
 1484WAT      O 4637   2.531   0.044   1.587
 1484WAT     H1 4638   2.610   0.089   1.615
 1484WAT     H2 4639   2.516   0.074   1.497
 1485WAT      O 4640   3.075   2.119   0.333
 1485WAT     H1 4641   3.053   2.201   0.289
 1485WAT     H2 4642   2.991   2.077   0.349
 1486WAT      O 4643   0.553   2.868   1.813
 1486WAT     H1 4644   0.466   2.827   1.813
 1486WAT     H2 4645   0.536   2.961   1.796
 1487WAT      O 4646   2.630   2.194   1.567
 1487WAT     H1 4647   2.596   2.148   1.491
 1487WAT     H2 4648   2.601   2.142   1.642
 1488WAT      O 4649   0.159   2.286   2.746
 1488WAT     H1 4650   0.076   2.269   2.702
 1488WAT     H2 4651   0.221   2.229   2.702
 1489WAT      O 4652   0.788   2.661   0.187
 1489WAT     H1 4653   0.813   2.590   0.247
 1489WAT     H2 4654   0.840   2.736   0.217
 1490WAT      O 4655   1.487   0.167   3.130
 1490WAT     H1 4656   1.480   0.074   3.150
 1490WAT     H2 4657   1.532   0.170   3.045
 1491WAT      O 4658   2.045   3.462   2.259
 1491WAT     H1 4659   2.041   3.382   2.312
 1491WAT     H2 4660   1.953   3.485   2.245
 1492WAT      O 4661   2.390   2.054   0.180
 1492WAT     H1 4662   2.362   2.145   0.174
 1492WAT     H2 4663   2.447   2.041   0.104
 1493WAT      O 4664   3.622   3.739   1.499
 1493WAT     H1 4665   3.535   3.753   1.536
 1493WAT     H2 4666   3.681   3.745   1.574
 1494WAT      O 4667   3.604   3.532   1.731
 1494WAT     H1 4668   3.575   3.487   1.810
 1494WAT     H2 4669   3.524   3.569   1.693
 1495WAT      O 4670   1.559   3.040   1.051
 1495WAT     H1 4671   1.481   3.008   1.096
 1495WAT     H2 4672   1.621   2.967   1.055
 1496WAT      O 4673   0.858   1.879   3.813
 1496WAT     H1 4674   0.894   1.804   3.766
 1496WAT     H2 4675   0.815   1.841   3.890
 1497WAT      O 4676   1.046   2.561   3.737
 1497WAT     H1 4677   0.978   2.579   3.802
 1497WAT     H2 4678   1.098   2.490   3.775
 1498WAT      O 4679   3.551   2.898   3.141
 1498WAT     H1 4680   3.620   2.964   3.131
 1498WAT     H2 4681   3.480   2.945   3.184
 1499WAT      O 4682   2.211   3.191   2.213
 1499WAT     H1 4683   2.180   3.235   2.291
 1499WAT     H2 4684   2.210   3.258   2.145
 1500WAT      O 4685   1.398   1.503   2.254
 1500WAT     H1 4686   1.422   1.555   2.177
 1500WAT     H2 4687   1.319   1.544   2.288
 1501WAT      O 4688   1.564   2.842   3.312
 1501WAT     H1 4689   1.482   2.829   3.359
 1501WAT     H2 4690   1.550   2.923   3.262
 1502WAT      O 4691   2.117   3.754   0.510
 1502WAT     H1 4692   2.208   3.723   0.510
 1502WAT     H2 4693   2.071   3.691   0.455
 1503WAT      O 4694   1.571   1.515   1.415
 1503WAT     H1 4695   1.624   1.553   1.345
 1503WAT     H2 4696   1.540   1.432   1.379
 1504WAT      O 4697   3.035   3.917   0.725
 1504WAT     H1 4698   2.999   3.833   0.697
 1504WAT     H2 4699   3.017   3.976   0.652
 1505WAT      O 4700   0.227   3.585   2.111
 1505WAT     H1 4701   0.213   3.676   2.135
 1505WAT     H2 4702   0.148   3.561   2.062
 1506WAT      O 4703   2.293   3.581   3.812
 1506WAT     H1 4704   2.352   3.507   3.798
 1506WAT     H2 4705   2.281   3.620   3.726
 1507WAT      O 4706   1.762   1.062   3.653
 1507WAT     H1 4707   1.847   1.087   3.618
 1507WAT     H2 4708   1.772   0.970   3.679
 1508WAT      O 4709   2.966   2.705   2.001
 1508WAT     H1 4710   2.892   2.692   2.060
 1508WAT     H2 4711   2.943   2.657   1.922
 1509WAT      O 4712   0.846   0.614   0.657
 1509WAT     H1 4713   0.786   0.545   0.688
 1509WAT     H2 4714   0.886   0.576   0.578
 1510WAT      O 4715   2.013   4.016   2.302
 1510WAT     H1 4716   2.096   4.062   2.301
 1510WAT     H2 4717   2.035   3.926   2.279
 1511WAT      O 4718   0.228   1.600   2.202
 1511WAT     H1 4719   0.164   1.613   2.272
 1511WAT     H2 4720   0.294   1.668   2.217
 1512WAT      O 4721   3.409   1.534   0.756
 1512WAT     H1 4722   3.361   1.560   0.834
 1512WAT     H2 4723   3.366   1.454   0.726
 1513WAT      O 4724   2.737   0.329   1.580
 1513WAT     H1 4725   2.686   0.324   1.499
 1513WAT     H2 4726   2.804   0.395   1.563
 1514WAT      O 4727   3.037   3.964   2.946
 1514WAT     H1 4728   2.948   3.996   2.961
 1514WAT     H2 4729   3.092   4.042   2.952
 1515WAT      O 4730   3.396   3.689   1.649
 1515WAT     H1 4731   3.344   3.702   1.729
 1515WAT     H2 4732   3.334   3.700   1.578
 1516WAT      O 4733   0.296   1.064   2.422
 1516WAT     H1 4734   0.313   1.152   2.456
 1516WAT     H2 4735   0.284   1.076   2.328
 1517WAT      O 4736   1.177   2.678   2.087
 1517WAT     H1 4737   1.152   2.757   2.040
 1517WAT     H2 4738   1.238   2.708   2.155
 1518WAT      O 4739   3.728   1.009   0.649
 1518WAT     H1 4740   3.756   1.100   0.655
 1518WAT     H2 4741   3.675   1.005   0.570
 1519WAT      O 4742   2.459   2.974   3.425
 1519WAT     H1 4743   2.375   2.944   3.459
 1519WAT     H2 4744   2.456   3.069   3.434
 1520WAT      O 4745   1.852   0.836   2.021
 1520WAT     H1 4746   1.931   0.881   1.992
 1520WAT     H2 4747   1.847   0.758   1.966
 1521WAT      O 4748   2.242   2.911   2.121
 1521WAT     H1 4749   2.262   2.858   2.197
 1521WAT     H2 4750   2.240   3.001   2.155
 1522WAT      O 4751   2.466   3.356   3.822
 1522WAT     H1 4752   2.532   3.326   3.885
 1522WAT     H2 4753   2.477   3.297   3.747
 1523WAT      O 4754   3.031   1.600   1.050
 1523WAT     H1 4755   2.991   1.680   1.017
 1523WAT     H2 4756   3.058   1.552   0.971
 1524WAT      O 4757   0.029   3.125   1.956
 1524WAT     H1 4758  -0.040   3.066   1.927
 1524WAT     H2 4759   0.085   3.135   1.880
 1525WAT      O 4760   2.645   0.059   3.315
 1525WAT     H1 4761   2.659   0.140   3.266
 1525WAT     H2 4762   2.719   0.004   3.291
 1526WAT      O 4763   0.565   1.603   0.350
 1526WAT     H1 4764   0.518   1.679   0.314
 1526WAT     H2 4765   0.643   1.640   0.391
 1527WAT      O 4766   3.983   1.774   0.716
 1527WAT     H1 4767   4.068   1.803   0.749
 1527WAT     H2 4768   3.990   1.679   0.713
 1528WAT      O 4769   3.433   2.690   2.298
 1528WAT     H1 4770   3.447   2.784   2.314
 1528WAT     H2 4771   3.357   2.668   2.352
 1529WAT      O 4772   2.858   3.984   2.394
 1529WAT     H1 4773   2.866   3.936   2.477
 1529WAT     H2 4774   2.823   3.919   2.333
 1530WAT      O 4775   3.830   1.607   3.938
 1530WAT     H1 4776   3.738   1.633   3.946
 1530WAT     H2 4777   3.828   1.530   3.881
 1531WAT      O 4778   2.652   2.588   1.496
 1531WAT     H1 4779   2.579   2.598   1.556
 1531WAT     H2 4780   2.709   2.664   1.514
 1532WAT      O 4781   0.880   3.147   2.545
 1532WAT     H1 4782   0.881   3.233   2.588
 1532WAT     H2 4783   0.948   3.153   2.478
 1533WAT      O 4784   1.779   3.877   3.449
 1533WAT     H1 4785   1.703   3.832   3.412
 1533WAT     H2 4786   1.831   3.901   3.373
 1534WAT      O 4787   1.916   1.445   3.326
 1534WAT     H1 4788   1.905   1.537   3.304
 1534WAT     H2 4789   1.992   1.417   3.275
 1535WAT      O 4790   2.002   1.691   3.834
 1535WAT     H1 4791   1.926   1.747   3.847
 1535WAT     H2 4792   2.063   1.745   3.785
 1536WAT      O 4793   3.908   0.870   0.383
 1536WAT     H1 4794   3.954   0.824   0.453
 1536WAT     H2 4795   3.827   0.819   0.370
 1537WAT      O 4796   2.276   0.088   2.400
 1537WAT     H1 4797   2.284   0.183   2.406
 1537WAT     H2 4798   2.366   0.056   2.397
 1538WAT      O 4799   2.206   1.560   0.758
 1538WAT     H1 4800   2.257   1.611   0.696
 1538WAT     H2 4801   2.257   1.479   0.770
 1539WAT      O 4802   1.014   0.702   1.748
 1539WAT     H1 4803   0.921   0.690   1.765
 1539WAT     H2 4804   1.050   0.613   1.746
 1540WAT      O 4805   0.939   1.499   0.784
 1540WAT     H1 4806   0.989   1.576   0.809
 1540WAT     H2 4807   0.969   1.478   0.696
 1541WAT      O 4808   3.606   4.019   3.953
 1541WAT     H1 4809   3.622   4.101   3.908
 1541WAT     H2 4810   3.693   3.988   3.979
 1542WAT      O 4811   1.463   1.026   3.298
 1542WAT     H1 4812   1.409   0.966   3.246
 1542WAT     H2 4813   1.533   0.970   3.333
 1543WAT      O 4814   0.306   0.371   3.876
 1543WAT     H1 4815   0.232   0.420   3.841
 1543WAT     H2 4816   0.315   0.401   3.966
 1544WAT      O 4817   3.146   2.292   1.716
 1544WAT     H1 4818   3.174   2.217   1.769
 1544WAT     H2 4819   3.079   2.257   1.658
 1545WAT      O 4820   1.868   2.104   3.622
 1545WAT     H1 4821   1.867   2.008   3.622
 1545WAT     H2 4822   1.920   2.128   3.546
 1546WAT      O 4823   0.949   0.769   2.417
 1546WAT     H1 4824   1.016   0.830   2.448
 1546WAT     H2 4825   0.866   0.809   2.445
 1547WAT      O 4826   0.124   3.157   2.936
 1547WAT     H1 4827   0.085   3.234   2.895
 1547WAT     H2 4828   0.082   3.151   3.022
 1548WAT      O 4829   3.274   0.548   1.457
 1548WAT     H1 4830   3.191   0.595   1.464
 1548WAT     H2 4831   3.263   0.491   1.381
 1549WAT      O 4832   1.707   1.703   2.257
 1549WAT     H1 4833   1.721   1.797   2.246
 1549WAT     H2 4834   1.636   1.697   2.321
 1550WAT      O 4835   3.364   0.568   0.998
 1550WAT     H1 4836   3.439   0.551   1.056
 1550WAT     H2 4837   3.396   0.633   0.935
 1551WAT      O 4838   2.431   3.238   3.479
 1551WAT     H1 4839   2.485   3.280   3.411
 1551WAT     H2 4840   2.354   3.295   3.486
 1552WAT      O 4841   0.390   2.199   0.426
 1552WAT     H1 4842   0.467   2.148   0.401
 1552WAT     H2 4843   0.337   2.203   0.347
 1553WAT      O 4844   2.649   0.657   2.926
 1553WAT     H1 4845   2.645   0.674   2.832
 1553WAT     H2 4846   2.561   0.679   2.958
 1554WAT      O 4847   1.926   1.262   0.713
 1554WAT     H1 4848   1.979   1.228   0.641
 1554WAT     H2 4849   1.922   1.190   0.776
 1555WAT      O 4850   1.188   1.588   3.835
 1555WAT     H1 4851   1.237   1.593   3.754
 1555WAT     H2 4852   1.255   1.567   3.901
 1556WAT      O 4853   0.767   2.768   0.787
 1556WAT     H1 4854   0.804   2.748   0.701
 1556WAT     H2 4855   0.718   2.689   0.811
 1557WAT      O 4856   1.755   3.786   0.051
 1557WAT     H1 4857   1.706   3.867   0.063
 1557WAT     H2 4858   1.690   3.717   0.061
 1558WAT      O 4859   3.763   0.299   3.625
 1558WAT     H1 4860   3.812   0.377   3.600
 1558WAT     H2 4861   3.674   0.316   3.595
 1559WAT      O 4862   0.388   1.140   0.435
 1559WAT     H1 4863   0.351   1.222   0.404
 1559WAT     H2 4864   0.388   1.148   0.530
 1560WAT      O 4865   0.422   0.751   2.017
 1560WAT     H1 4866   0.502   0.739   2.069
 1560WAT     H2 4867   0.433   0.837   1.977
 1561WAT      O 4868   3.766   2.329   0.583
 1561WAT     H1 4869   3.796   2.325   0.674
 1561WAT     H2 4870   3.745   2.422   0.570
 1562WAT      O 4871   1.690   3.192   3.934
 1562WAT     H1 4872   1.650   3.277   3.955
 1562WAT     H2 4873   1.773   3.215   3.892
 1563WAT      O 4874   2.217   3.895   0.748
 1563WAT     H1 4875   2.161   3.847   0.687
 1563WAT     H2 4876   2.158   3.961   0.786
 1564WAT      O 4877   0.282   0.887   3.350
 1564WAT     H1 4878   0.191   0.861   3.340
 1564WAT     H2 4879   0.298   0.948   3.279
 1565WAT      O 4880   1.338   2.966   1.178
 1565WAT     H1 4881   1.357   2.913   1.255
 1565WAT     H2 4882   1.330   3.055   1.211
 1566WAT      O 4883   2.429   0.344   1.133
 1566WAT     H1 4884   2.502   0.321   1.075
 1566WAT     H2 4885   2.368   0.271   1.126
 1567WAT      O 4886   3.763   3.018   1.696
 1567WAT     H1 4887   3.671   3.045   1.697
 1567WAT     H2 4888   3.801   3.064   1.621
 1568WAT      O 4889   2.842   3.004   1.483
 1568WAT     H1 4890   2.844   2.958   1.399
 1568WAT     H2 4891   2.929   3.042   1.491
 1569WAT      O 4892   0.461   3.666   3.403
 1569WAT     H1 4893   0.424   3.754   3.392
 1569WAT     H2 4894   0.464   3.630   3.314
 1570WAT      O 4895   2.798   0.579   1.927
 1570WAT     H1 4896   2.773   0.611   2.013
 1570WAT     H2 4897   2.780   0.485   1.930
 1571WAT      O 4898   1.689   0.912   2.767
 1571WAT     H1 4899   1.776   0.908   2.806
 1571WAT     H2 4900   1.678   1.004   2.743
 1572WAT      O 4901   0.571   0.269   1.899
 1572WAT     H1 4902   0.507   0.234   1.962
 1572WAT     H2 4903   0.591   0.356   1.931
 1573WAT      O 4904   3.792   2.698   0.360
 1573WAT     H1 4905   3.815   2.616   0.315
 1573WAT     H2 4906   3.729   2.670   0.427
 1574WAT      O 4907   1.641   2.086   0.561
 1574WAT     H1 4908   1.735   2.098   0.545
 1574WAT     H2 4909   1.626   1.992   0.547
 1575WAT      O 4910   0.816   2.008   1.677
 1575WAT     H1 4911   0.760   2.082   1.703
 1575WAT     H2 4912   0.905   2.041   1.689
 1576WAT      O 4913   3.234   1.985   0.534
 1576WAT     H1 4914   3.296   1.952   0.470
 1576WAT     H2 4915   3.159   2.016   0.482
 1577WAT      O 4916   1.522   2.057   2.712
 1577WAT     H1 4917   1.594   2.117   2.733
 1577WAT     H2 4918   1.473   2.049   2.794
 1578WAT      O 4919   2.836   2.756   3.421
 1578WAT     H1 4920   2.902   2.701   3.463
 1578WAT     H2 4921   2.848   2.743   3.327
 1579WAT      O 4922   2.562   2.058   0.553
 1579WAT     H1 4923   2.478   2.088   0.587
 1579WAT     H2 4924   2.600   2.008   0.625
 1580WAT      O 4925   3.378   1.887   3.918
 1580WAT     H1 4926   3.355   1.976   3.945
 1580WAT     H2 4927   3.428   1.899   3.837
 1581WAT      O 4928   2.753   3.783   3.048
 1581WAT     H1 4929   2.693   3.763   3.119
 1581WAT     H2 4930   2.793   3.699   3.025
 1582WAT      O 4931   3.264   2.598   2.497
 1582WAT     H1 4932   3.308   2.595   2.582
 1582WAT     H2 4933   3.190   2.538   2.507
 1583WAT      O 4934   1.960   2.927   1.677
 1583WAT     H1 4935   1.935   2.943   1.768
 1583WAT     H2 4936   2.009   3.005   1.651
 1584WAT      O 4937   0.059   2.602   3.363
 1584WAT     H1 4938   0.020   2.634   3.281
 1584WAT     H2 4939   0.112   2.675   3.394
 1585WAT      O 4940   2.567   0.342   1.989
 1585WAT     H1 4941   2.556   0.437   1.991
 1585WAT     H2 4942   2.483   0.308   2.020
 1586WAT      O 4943   1.447   3.696   3.964
 1586WAT     H1 4944   1.388   3.640   3.914
 1586WAT     H2 4945   1.488   3.637   4.027
 1587WAT      O 4946   2.519   1.218   1.579
 1587WAT     H1 4947   2.499   1.136   1.624
 1587WAT     H2 4948   2.441   1.272   1.594
 1588WAT      O 4949   2.576   2.589   0.139
 1588WAT     H1 4950   2.576   2.501   0.178
 1588WAT     H2 4951   2.564   2.573   0.045
 1589WAT      O 4952   2.915   1.795   0.104
 1589WAT     H1 4953   2.961   1.787   0.020
 1589WAT     H2 4954   2.850   1.863   0.090
 1590WAT      O 4955   3.860   0.525   0.505
 1590WAT     H1 4956   3.770   0.540   0.475
 1590WAT     H2 4957   3.852   0.458   0.573
 1591WAT      O 4958   0.512   1.877   1.595
 1591WAT     H1 4959   0.502   1.846   1.685
 1591WAT     H2 4960   0.485   1.968   1.599
 1592WAT      O 4961   3.734   3.548   2.954
 1592WAT     H1 4962   3.783   3.608   3.010
 1592WAT     H2 4963   3.658   3.599   2.925
 1593WAT      O 4964   0.480   0.188   2.787
 1593WAT     H1 4965   0.440   0.200   2.873
 1593WAT     H2 4966   0.569   0.221   2.798
 1594WAT      O 4967   2.725   3.757   1.098
 1594WAT     H1 4968   2.635   3.748   1.128
 1594WAT     H2 4969   2.774   3.780   1.176
 1595WAT      O 4970   2.870   1.037   1.676
 1595WAT     H1 4971   2.928   1.055   1.751
 1595WAT     H2 4972   2.908   0.959   1.635
 1596WAT      O 4973   0.085   2.522   0.471
 1596WAT     H1 4974   0.167   2.480   0.496
 1596WAT     H2 4975   0.028   2.450   0.443
 1597WAT      O 4976   2.362   3.319   0.896
 1597WAT     H1 4977   2.329   3.402   0.863
 1597WAT     H2 4978   2.286   3.261   0.897
 1598WAT      O 4979   0.694   2.507   1.154
 1598WAT     H1 4980   0.713   2.443   1.086
 1598WAT     H2 4981   0.610   2.479   1.191
 1599WAT      O 4982   0.446   3.517   2.895
 1599WAT     H1 4983   0.480   3.441   2.848
 1599WAT     H2 4984   0.368   3.542   2.846
 1600WAT      O 4985   1.561   2.218   1.663
 1600WAT     H1 4986   1.541   2.306   1.694
 1600WAT     H2 4987   1.510   2.209   1.583
 1601WAT      O 4988   1.949   3.775   3.895
 1601WAT     H1 4989   1.874   3.789   3.954
 1601WAT     H2 4990   2.006   3.850   3.912
 1602WAT      O 4991   2.560   1.227   2.364
 1602WAT     H1 4992   2.624   1.289   2.330
 1602WAT     H2 4993   2.582   1.144   2.322
 1603WAT      O 4994   0.348   2.580   1.985
 1603WAT     H1 4995   0.280   2.608   1.923
 1603WAT     H2 4996   0.366   2.658   2.037
 1604WAT      O 4997   2.080   0.921   2.439
 1604WAT     H1 4998   1.987   0.941   2.451
 1604WAT     H2 4999   2.124   0.978   2.503
 1605WAT      O 5000   1.371   1.039   4.002
 1605WAT     H1 5001   1.430   0.971   3.970
 1605WAT     H2 5002   1.368   1.025   4.097
 1606WAT      O 5003   1.469   3.265   0.129
 1606WAT     H1 5004   1.493   3.175   0.109
 1606WAT     H2 5005   1.379   3.259   0.162
 1607WAT      O 5006   0.809   1.672   2.832
 1607WAT     H1 5007   0.733   1.632   2.792
 1607WAT     H2 5008   0.848   1.602   2.885
 1608WAT      O 5009   1.757   1.438   2.816
 1608WAT     H1 5010   1.743   1.362   2.873
 1608WAT     H2 5011   1.676   1.487   2.821
 1609WAT      O 5012   0.067   1.574   1.586
 1609WAT     H1 5013   0.149   1.525   1.595
 1609WAT     H2 5014   0.009   1.514   1.538
 1610WAT      O 5015   2.894   2.472   0.126
 1610WAT     H1 5016   2.826   2.500   0.187
 1610WAT     H2 5017   2.910   2.380   0.150
 1611WAT      O 5018   3.781   0.185   1.388
 1611WAT     H1 5019   3.730   0.104   1.391
 1611WAT     H2 5020   3.872   0.157   1.400
 1612WAT      O 5021   1.665   1.892   3.375
 1612WAT     H1 5022   1.598   1.925   3.434
 1612WAT     H2 5023   1.742   1.880   3.431
 1613WAT      O 5024   3.162   0.474   2.831
 1613WAT     H1 5025   3.094   0.495   2.768
 1613WAT     H2 5026   3.115   0.454   2.912
 1614WAT      O 5027   0.028   0.876   2.938
 1614WAT     H1 5028   0.061   0.946   2.882
 1614WAT     H2 5029   0.045   0.907   3.027
 1615WAT      O 5030   3.249   0.221   0.049
 1615WAT     H1 5031   3.278   0.135   0.020
 1615WAT     H2 5032   3.221   0.265  -0.031
 1616WAT      O 5033   2.268   3.822   2.559
 1616WAT     H1 5034   2.196   3.760   2.548
 1616WAT     H2 5035   2.227   3.908   2.551
 1617WAT      O 5036   2.463   3.329   1.811
 1617WAT     H1 5037   2.506   3.412   1.789
 1617WAT     H2 5038   2.415   3.304   1.732
 1618WAT      O 5039   3.545   0.374   0.686
 1618WAT     H1 5040   3.550   0.326   0.768
 1618WAT     H2 5041   3.548   0.466   0.712
 1619WAT      O 5042   0.333   2.906   3.253
 1619WAT     H1 5043   0.425   2.918   3.276
 1619WAT     H2 5044   0.332   2.915   3.157
 1620WAT      O 5045   1.874   3.054   0.203
 1620WAT     H1 5046   1.945   2.999   0.234
 1620WAT     H2 5047   1.882   3.135   0.254
 1621WAT      O 5048   0.541   0.819   2.931
 1621WAT     H1 5049   0.547   0.723   2.925
 1621WAT     H2 5050   0.558   0.838   3.023
 1622WAT      O 5051   1.258   3.761   3.523
 1622WAT     H1 5052   1.184   3.784   3.467
 1622WAT     H2 5053   1.270   3.667   3.509
 1623WAT      O 5054   3.569   2.230   0.139
 1623WAT     H1 5055   3.529   2.296   0.082
 1623WAT     H2 5056   3.496   2.176   0.168
 1624WAT      O 5057   0.346   2.553   2.681
 1624WAT     H1 5058   0.427   2.510   2.709
 1624WAT     H2 5059   0.314   2.500   2.609
 1625WAT      O 5060   2.205   1.720   1.051
 1625WAT     H1 5061   2.171   1.661   0.984
 1625WAT     H2 5062   2.218   1.665   1.128
 1626WAT      O 5063   2.328   1.409   1.679
 1626WAT     H1 5064   2.244   1.396   1.722
 1626WAT     H2 5065   2.392   1.402   1.750
 1627WAT      O 5066   3.435   2.815   0.313
 1627WAT     H1 5067   3.440   2.725   0.346
 1627WAT     H2 5068   3.343   2.826   0.288
 1628WAT      O 5069   2.865   2.838   0.545
 1628WAT     H1 5070   2.810   2.803   0.474
 1628WAT     H2 5071   2.813   2.909   0.583
 1629WAT      O 5072   0.334   1.633   1.621
 1629WAT     H1 5073   0.365   1.547   1.647
 1629WAT     H2 5074   0.413   1.687   1.617
 1630WAT      O 5075   0.480   1.867   1.881
 1630WAT     H1 5076   0.522   1.867   1.967
 1630WAT     H2 5077   0.390   1.842   1.898
 1631WAT      O 5078   2.234   1.245   0.948
 1631WAT     H1 5079   2.299   1.189   0.906
 1631WAT     H2 5080   2.188   1.287   0.875
 1632WAT      O 5081   0.180   2.599   2.417
 1632WAT     H1 5082   0.201   2.505   2.425
 1632WAT     H2 5083   0.264   2.642   2.407
 1633WAT      O 5084   2.195   3.032   0.911
 1633WAT     H1 5085   2.185   2.997   0.822
 1633WAT     H2 5086   2.227   2.957   0.962
 1634WAT      O 5087   1.370   1.471   2.625
 1634WAT     H1 5088   1.450   1.504   2.585
 1634WAT     H2 5089   1.355   1.386   2.582
 1635WAT      O 5090   2.957   3.081   2.216
 1635WAT     H1 5091   2.927   3.001   2.174
 1635WAT     H2 5092   2.940   3.150   2.151
 1636WAT      O 5093   0.345   0.625   3.354
 1636WAT     H1 5094   0.260   0.591   3.381
 1636WAT     H2 5095   0.331   0.719   3.345
 1637WAT      O 5096   0.503   3.534   3.174
 1637WAT     H1 5097   0.474   3.567   3.089
 1637WAT     H2 5098   0.535   3.446   3.156
 1638WAT      O 5099   3.878   1.034   1.002
 1638WAT     H1 5100   3.895   1.106   0.941
 1638WAT     H2 5101   3.886   0.955   0.950
 1639WAT      O 5102   2.084   2.608   1.005
 1639WAT     H1 5103   2.161   2.662   0.993
 1639WAT     H2 5104   2.099   2.563   1.088
 1640WAT      O 5105   1.054   2.115   1.904
 1640WAT     H1 5106   0.990   2.068   1.958
 1640WAT     H2 5107   1.101   2.045   1.857
 1641WAT      O 5108   3.897   1.508   0.707
 1641WAT     H1 5109   3.869   1.511   0.798
 1641WAT     H2 5110   3.954   1.431   0.702
 1642WAT      O 5111   0.094   2.870   3.370
 1642WAT     H1 5112   0.112   2.948   3.422
 1642WAT     H2 5113   0.165   2.867   3.306
 1643WAT      O 5114   1.798   0.908   2.500
 1643WAT     H1 5115   1.803   0.816   2.474
 1643WAT     H2 5116   1.726   0.912   2.562
 1644WAT      O 5117   2.631   1.862   1.248
 1644WAT     H1 5118   2.583   1.854   1.331
 1644WAT     H2 5119   2.565   1.841   1.181
 1645WAT      O 5120   0.480   2.819   0.288
 1645WAT     H1 5121   0.510   2.856   0.204
 1645WAT     H2 5122   0.410   2.759   0.264
 1646WAT      O 5123   2.306   2.842   1.129
 1646WAT     H1 5124   2.361   2.767   1.150
 1646WAT     H2 5125   2.362   2.918   1.147
 1647WAT      O 5126   2.460   1.547   1.459
 1647WAT     H1 5127   2.508   1.477   1.414
 1647WAT     H2 5128   2.431   1.508   1.541
 1648WAT      O 5129   1.212   1.135   2.779
 1648WAT     H1 5130   1.157   1.057   2.771
 1648WAT     H2 5131   1.161   1.206   2.740
 1649WAT      O 5132   0.701   0.503   1.976
 1649WAT     H1 5133   0.694   0.581   2.030
 1649WAT     H2 5134   0.764   0.447   2.022
 1650WAT      O 5135   2.824   3.119   1.204
 1650WAT     H1 5136   2.823   3.155   1.116
 1650WAT     H2 5137   2.829   3.024   1.192
 1651WAT      O 5138   1.626   4.013   2.679
 1651WAT     H1 5139   1.707   3.998   2.630
 1651WAT     H2 5140   1.588   4.091   2.640
 1652WAT      O 5141   3.155   0.940   1.548
 1652WAT     H1 5142   3.146   0.999   1.474
 1652WAT     H2 5143   3.089   0.872   1.533
 1653WAT      O 5144   2.925   3.951   1.504
 1653WAT     H1 5145   3.017   3.975   1.493
 1653WAT     H2 5146   2.893   4.012   1.570
 1654WAT      O 5147   3.658   0.869   0.202
 1654WAT     H1 5148   3.627   0.910   0.283
 1654WAT     H2 5149   3.685   0.942   0.146
 1655WAT      O 5150   1.218   0.482   2.346
 1655WAT     H1 5151   1.189   0.486   2.437
 1655WAT     H2 5152   1.142   0.510   2.295
 1656WAT      O 5153   1.534   3.284   0.878
 1656WAT     H1 5154   1.536   3.209   0.937
 1656WAT     H2 5155   1.463   3.264   0.817
 1657WAT      O 5156   1.064   1.768   1.066
 1657WAT     H1 5157   1.153   1.733   1.074
 1657WAT     H2 5158   1.034   1.777   1.156
 1658WAT      O 5159   3.513   3.110   0.039
 1658WAT     H1 5160   3.452   3.144   0.105
 1658WAT     H2 5161   3.579   3.063   0.090
 1659WAT      O 5162   2.187   3.745   3.309
 1659WAT     H1 5163   2.261   3.788   3.351
 1659WAT     H2 5164   2.220   3.714   3.225
 1660WAT      O 5165   0.455   3.035   3.562
 1660WAT     H1 5166   0.506   3.098   3.511
 1660WAT     H2 5167   0.364   3.060   3.547
 1661WAT      O 5168   0.621   2.679   2.846
 1661WAT     H1 5169   0.714   2.700   2.853
 1661WAT     H2 5170   0.590   2.677   2.937
 1662WAT      O 5171   1.103   1.181   3.253
 1662WAT     H1 5172   1.183   1.224   3.282
 1662WAT     H2 5173   1.042   1.253   3.236
 1663WAT      O 5174   2.262   0.728   0.541
 1663WAT     H1 5175   2.269   0.804   0.483
 1663WAT     H2 5176   2.298   0.656   0.490
 1664WAT      O 5177   0.930   2.578   3.959
 1664WAT     H1 5178   0.858   2.620   4.006
 1664WAT     H2 5179   0.991   2.553   4.027
 1665WAT      O 5180   0.225   0.524   2.376
 1665WAT     H1 5181   0.304   0.495   2.330
 1665WAT     H2 5182   0.196   0.601   2.327
 1666WAT      O 5183   3.271   1.907   2.439
 1666WAT     H1 5184   3.334   1.977   2.460
 1666WAT     H2 5185   3.306   1.867   2.360
 1667WAT      O 5186   2.423   1.036   2.125
 1667WAT     H1 5187   2.374   0.962   2.161
 1667WAT     H2 5188   2.377   1.114   2.157
 1668WAT      O 5189   3.422   2.261   0.426
 1668WAT     H1 5190   3.387   2.199   0.362
 1668WAT     H2 5191   3.502   2.220   0.458
 1669WAT      O 5192   2.218   1.843   1.496
 1669WAT     H1 5193   2.217   1.758   1.540
 1669WAT     H2 5194   2.126   1.869   1.490
 1670WAT      O 5195   2.997   1.535   1.739
 1670WAT     H1 5196   2.999   1.467   1.672
 1670WAT     H2 5197   3.088   1.546   1.766
 1671WAT      O 5198   2.647   2.368   1.164
 1671WAT     H1 5199   2.674   2.431   1.098
 1671WAT     H2 5200   2.552   2.382   1.174
 1672WAT      O 5201   3.635   1.697   3.241
 1672WAT     H1 5202   3.587   1.716   3.321
 1672WAT     H2 5203   3.686   1.776   3.224
 1673WAT      O 5204   3.951   3.564   1.607
 1673WAT     H1 5205   3.935   3.604   1.693
 1673WAT     H2 5206   4.031   3.513   1.619
 1674WAT      O 5207   3.473   3.311   2.396
 1674WAT     H1 5208   3.393   3.271   2.362
 1674WAT     H2 5209   3.522   3.239   2.436
 1675WAT      O 5210   3.674   2.430   1.061
 1675WAT     H1 5211   3.648   2.364   0.997
 1675WAT     H2 5212   3.769   2.419   1.069
 1676WAT      O 5213   3.571   3.511   3.636
 1676WAT     H1 5214   3.590   3.587   3.692
 1676WAT     H2 5215   3.657   3.474   3.617
 1677WAT      O 5216   3.600   0.018   3.539
 1677WAT     H1 5217   3.557   0.103   3.538
 1677WAT     H2 5218   3.683   0.033   3.583
 1678WAT      O 5219   3.022   0.917   0.881
 1678WAT     H1 5220   2.965   0.854   0.926
 1678WAT     H2 5221   3.102   0.919   0.934
 1679WAT      O 5222   1.288   0.907   0.428
 1679WAT     H1 5223   1.200   0.934   0.456
 1679WAT     H2 5224   1.347   0.949   0.491
 1680WAT      O 5225   0.279   1.376   1.036
 1680WAT     H1 5226   0.285   1.468   1.011
 1680WAT     H2 5227   0.252   1.377   1.127
 1681WAT      O 5228   2.282   1.489   3.342
 1681WAT     H1 5229   2.292   1.470   3.435
 1681WAT     H2 5230   2.372   1.487   3.308
 1682WAT      O 5231   0.067   0.612   2.854
 1682WAT     H1 5232   0.074   0.705   2.876
 1682WAT     H2 5233   0.021   0.611   2.770
 1683WAT      O 5234   3.498   0.636   1.331
 1683WAT     H1 5235   3.525   0.571   1.266
 1683WAT     H2 5236   3.413   0.605   1.362
 1684WAT      O 5237   1.546   1.798   0.995
 1684WAT     H1 5238   1.483   1.809   0.923
 1684WAT     H2 5239   1.622   1.758   0.953
 1685WAT      O 5240   2.244   3.135   2.827
 1685WAT     H1 5241   2.330   3.122   2.867
 1685WAT     H2 5242   2.195   3.055   2.849
 1686WAT      O 5243   1.545   3.736   3.390
 1686WAT     H1 5244   1.486   3.789   3.445
 1686WAT     H2 5245   1.550   3.652   3.435
 1687WAT      O 5246   1.259   1.463   2.891
 1687WAT     H1 5247   1.306   1.386   2.922
 1687WAT     H2 5248   1.258   1.454   2.795
 1688WAT      O 5249   3.352   1.639   1.004
 1688WAT     H1 5250   3.275   1.687   0.973
 1688WAT     H2 5251   3.423   1.703   1.002
 1689WAT      O 5252   3.317   3.349   2.674
 1689WAT     H1 5253   3.293   3.440   2.693
 1689WAT     H2 5254   3.366   3.354   2.592
 1690WAT      O 5255   1.593   0.565   3.908
 1690WAT     H1 5256   1.604   0.659   3.921
 1690WAT     H2 5257   1.675   0.526   3.939
 1691WAT      O 5258   3.892   2.145   1.476
 1691WAT     H1 5259   3.860   2.097   1.399
 1691WAT     H2 5260   3.813   2.177   1.519
 1692WAT      O 5261   1.919   0.916   2.926
 1692WAT     H1 5262   1.907   0.840   2.983
 1692WAT     H2 5263   1.960   0.982   2.983
 1693WAT      O 5264   0.948   3.362   1.743
 1693WAT     H1 5265   0.976   3.449   1.714
 1693WAT     H2 5266   0.911   3.321   1.665
 1694WAT      O 5267   0.641   3.323   0.854
 1694WAT     H1 5268   0.555   3.316   0.813
 1694WAT     H2 5269   0.645   3.248   0.913
 1695WAT      O 5270   0.420   3.236   3.891
 1695WAT     H1 5271   0.341   3.264   3.845
 1695WAT     H2 5272   0.442   3.152   3.851
 1696WAT      O 5273   1.802   2.814   0.445
 1696WAT     H1 5274   1.878   2.872   0.435
 1696WAT     H2 5275   1.780   2.788   0.356
 1697WAT      O 5276   0.566   1.753   1.338
 1697WAT     H1 5277   0.652   1.714   1.325
 1697WAT     H2 5278   0.571   1.794   1.424
 1698WAT      O 5279   2.580   1.103   2.668
 1698WAT     H1 5280   2.583   1.133   2.577
 1698WAT     H2 5281   2.581   1.183   2.720
 1699WAT      O 5282   3.192   0.661   2.118
 1699WAT     H1 5283   3.172   0.569   2.139
 1699WAT     H2 5284   3.285   0.670   2.140
 1700WAT      O 5285   2.783   2.150   2.576
 1700WAT     H1 5286   2.760   2.239   2.547
 1700WAT     H2 5287   2.746   2.143   2.664
 1701WAT      O 5288   1.157   2.488   0.108
 1701WAT     H1 5289   1.163   2.393   0.098
 1701WAT     H2 5290   1.186   2.504   0.198
 1702WAT      O 5291   3.861   1.966   0.889
 1702WAT     H1 5292   3.854   1.901   0.960
 1702WAT     H2 5293   3.913   1.922   0.822
 1703WAT      O 5294   0.713   0.289   2.500
 1703WAT     H1 5295   0.701   0.380   2.529
 1703WAT     H2 5296   0.690   0.291   2.407
 1704WAT      O 5297   0.964   1.856   0.392
 1704WAT     H1 5298   0.990   1.944   0.363
 1704WAT     H2 5299   1.038   1.824   0.443
 1705WAT      O 5300   0.131   2.098   3.301
 1705WAT     H1 5301   0.178   2.180   3.282
 1705WAT     H2 5302   0.132   2.092   3.396
 1706WAT      O 5303   2.241   2.703   3.145
 1706WAT     H1 5304   2.156   2.740   3.171
 1706WAT     H2 5305   2.296   2.780   3.129
 1707WAT      O 5306   0.657   0.154   3.939
 1707WAT     H1 5307   0.623   0.132   4.025
 1707WAT     H2 5308   0.744   0.115   3.937
 1708WAT      O 5309   0.924   3.382   2.682
 1708WAT     H1 5310   0.830   3.373   2.697
 1708WAT     H2 5311   0.941   3.476   2.687
 1709WAT      O 5312   0.637   0.893   3.784
 1709WAT     H1 5313   0.601   0.938   3.707
 1709WAT     H2 5314   0.618   0.800   3.767
 1710WAT      O 5315   2.149   1.291   2.609
 1710WAT     H1 5316   2.140   1.209   2.658
 1710WAT     H2 5317   2.060   1.324   2.601
 1711WAT      O 5318   1.320   2.678   1.488
 1711WAT     H1 5319   1.229   2.708   1.487
 1711WAT     H2 5320   1.351   2.692   1.399
 1712WAT      O 5321   0.854   1.012   2.620
 1712WAT     H1 5322   0.864   1.074   2.547
 1712WAT     H2 5323   0.854   1.067   2.698
 1713WAT      O 5324   3.322   2.121   2.205
 1713WAT     H1 5325   3.397   2.063   2.219
 1713WAT     H2 5326   3.303   2.157   2.292
 1714WAT      O 5327   1.049   0.523   2.044
 1714WAT     H1 5328   1.009   0.532   2.130
 1714WAT     H2 5329   1.000   0.453   2.001
 1715WAT      O 5330   1.412   1.773   0.434
 1715WAT     H1 5331   1.327   1.815   0.422
 1715WAT     H2 5332   1.470   1.820   0.373
 1716WAT      O 5333   3.378   1.404   0.358
 1716WAT     H1 5334   3.440   1.449   0.301
 1716WAT     H2 5335   3.432   1.343   0.409
 1717WAT      O 5336   1.254   1.686   3.024
 1717WAT     H1 5337   1.277   1.619   2.960
 1717WAT     H2 5338   1.172   1.723   2.991
 1718WAT      O 5339   1.936   0.970   0.710
 1718WAT     H1 5340   1.925   1.000   0.800
 1718WAT     H2 5341   2.030   0.975   0.694
 1719WAT      O 5342   3.609   0.063   3.266
 1719WAT     H1 5343   3.533   0.114   3.238
 1719WAT     H2 5344   3.606   0.066   3.362
 1720WAT      O 5345   0.935   1.453   3.290
 1720WAT     H1 5346   0.883   1.533   3.283
 1720WAT     H2 5347   1.003   1.474   3.354
 1721WAT      O 5348   1.787   0.571   1.962
 1721WAT     H1 5349   1.827   0.534   1.883
 1721WAT     H2 5350   1.732   0.501   1.997
 1722WAT      O 5351   3.986   3.948   2.754
 1722WAT     H1 5352   4.063   3.999   2.731
 1722WAT     H2 5353   3.913   4.009   2.744
 1723WAT      O 5354   2.582   1.343   0.670
 1723WAT     H1 5355   2.582   1.324   0.764
 1723WAT     H2 5356   2.525   1.276   0.632
 1724WAT      O 5357   2.588   2.287   0.406
 1724WAT     H1 5358   2.596   2.199   0.441
 1724WAT     H2 5359   2.498   2.313   0.427
 1725WAT      O 5360   0.356   1.548   3.296
 1725WAT     H1 5361   0.329   1.626   3.345
 1725WAT     H2 5362   0.419   1.581   3.231
 1726WAT      O 5363   1.173   3.463   1.353
 1726WAT     H1 5364   1.267   3.479   1.347
 1726WAT     H2 5365   1.134   3.529   1.296
 1727WAT      O 5366   1.144   0.358   1.252
 1727WAT     H1 5367   1.126   0.266   1.238
 1727WAT     H2 5368   1.067   0.404   1.220
 1728WAT      O 5369   1.768   0.012   3.660
 1728WAT     H1 5370   1.861   0.032   3.660
 1728WAT     H2 5371   1.759  -0.063   3.602
 1729WAT      O 5372   0.210   3.849   3.290
 1729WAT     H1 5373   0.182   3.940   3.300
 1729WAT     H2 5374   0.224   3.839   3.196
 1730WAT      O 5375   0.170   2.534   1.760
 1730WAT     H1 5376   0.181   2.498   1.672
 1730WAT     H2 5377   0.076   2.549   1.769
 1731WAT      O 5378   1.923   3.351   3.210
 1731WAT     H1 5379   1.864   3.427   3.211
 1731WAT     H2 5380   2.005   3.384   3.174
 1732WAT      O 5381   2.984   2.102   1.154
 1732WAT     H1 5382   2.911   2.154   1.189
 1732WAT     H2 5383   3.029   2.162   1.094
 1733WAT      O 5384   1.766   2.697   3.473
 1733WAT     H1 5385   1.712   2.735   3.404
 1733WAT     H2 5386   1.807   2.773   3.515
 1734WAT      O 5387   3.835   0.997   1.961
 1734WAT     H1 5388   3.819   0.903   1.974
 1734WAT     H2 5389   3.767   1.040   2.012
 1735WAT      O 5390   1.731   0.776   1.225
 1735WAT     H1 5391   1.759   0.705   1.167
 1735WAT     H2 5392   1.792   0.771   1.299
 1736WAT      O 5393   0.407   2.202   1.778
 1736WAT     H1 5394   0.312   2.204   1.774
 1736WAT     H2 5395   0.428   2.120   1.824
 1737WAT      O 5396   0.157   3.328   0.321
 1737WAT     H1 5397   0.107   3.392   0.372
 1737WAT     H2 5398   0.214   3.381   0.265
 1738WAT      O 5399   2.624   1.586   1.041
 1738WAT     H1 5400   2.712   1.620   1.055
 1738WAT     H2 5401   2.569   1.665   1.037
 1739WAT      O 5402   2.423   1.503   2.155
 1739WAT     H1 5403   2.396   1.471   2.241
 1739WAT     H2 5404   2.406   1.597   2.157
 1740WAT      O 5405   2.711   1.364   2.582
 1740WAT     H1 5406   2.726   1.351   2.489
 1740WAT     H2 5407   2.618   1.346   2.595
 1741WAT      O 5408   0.566   3.973   0.821
 1741WAT     H1 5409   0.491   3.984   0.879
 1741WAT     H2 5410   0.529   3.934   0.741
 1742WAT      O 5411   3.406   3.340   3.754
 1742WAT     H1 5412   3.359   3.422   3.770
 1742WAT     H2 5413   3.471   3.362   3.688
 1743WAT      O 5414   3.180   3.995   3.715
 1743WAT     H1 5415   3.192   4.061   3.783
 1743WAT     H2 5416   3.267   3.956   3.704
 1744WAT      O 5417   1.222   0.917   3.219
 1744WAT     H1 5418   1.188   1.007   3.228
 1744WAT     H2 5419   1.167   0.865   3.277
 1745WAT      O 5420   1.033   0.601   0.430
 1745WAT     H1 5421   1.058   0.655   0.355
 1745WAT     H2 5422   1.033   0.661   0.504
 1746WAT      O 5423   0.969   0.249   3.319
 1746WAT     H1 5424   0.949   0.214   3.406
 1746WAT     H2 5425   1.001   0.338   3.336
 1747WAT      O 5426   2.721   2.049   2.843
 1747WAT     H1 5427   2.748   2.135   2.874
 1747WAT     H2 5428   2.763   1.987   2.902
 1748WAT      O 5429   0.962   0.211   3.018
 1748WAT     H1 5430   0.988   0.212   3.110
 1748WAT     H2 5431   1.044   0.214   2.969
 1749WAT      O 5432   0.690   0.470   0.815
 1749WAT     H1 5433   0.665   0.557   0.846
 1749WAT     H2 5434   0.705   0.419   0.895
 1750WAT      O 5435   2.164   3.517   0.319
 1750WAT     H1 5436   2.103   3.479   0.256
 1750WAT     H2 5437   2.237   3.549   0.266
 1751WAT      O 5438   1.233   2.333   2.215
 1751WAT     H1 5439   1.178   2.328   2.293
 1751WAT     H2 5440   1.172   2.352   2.143
 1752WAT      O 5441   0.198   2.003   0.587
 1752WAT     H1 5442   0.291   2.011   0.568
 1752WAT     H2 5443   0.161   2.089   0.566
 1753WAT      O 5444   1.606   3.088   2.061
 1753WAT     H1 5445   1.568   3.162   2.014
 1753WAT     H2 5446   1.665   3.128   2.125
 1754WAT      O 5447   3.859   2.225   0.159
 1754WAT     H1 5448   3.766   2.238   0.176
 1754WAT     H2 5449   3.876   2.135   0.188
 1755WAT      O 5450   0.481   0.880   0.022
 1755WAT     H1 5451   0.489   0.881  -0.073
 1755WAT     H2 5452   0.511   0.966   0.050
 1756WAT      O 5453   2.252   1.595   1.296
 1756WAT     H1 5454   2.321   1.600   1.362
 1756WAT     H2 5455   2.170   1.599   1.346
 1757WAT      O 5456   1.932   1.531   0.796
 1757WAT     H1 5457   2.026   1.541   0.777
 1757WAT     H2 5458   1.910   1.445   0.760
 1758WAT      O 5459   3.178   0.232   0.299
 1758WAT     H1 5460   3.219   0.319   0.300
 1758WAT     H2 5461   3.199   0.197   0.212
 1759WAT      O 5462   1.466   2.292   3.967
 1759WAT     H1 5463   1.523   2.353   3.920
 1759WAT     H2 5464   1.486   2.307   4.059
 1760WAT      O 5465   1.108   0.070   3.544
 1760WAT     H1 5466   1.146   0.043   3.461
 1760WAT     H2 5467   1.120   0.164   3.547
 1761WAT      O 5468   0.572   3.481   1.544
 1761WAT     H1 5469   0.513   3.497   1.471
 1761WAT     H2 5470   0.547   3.395   1.577
 1762WAT      O 5471   2.754   2.958   2.027
 1762WAT     H1 5472   2.774   2.914   1.944
 1762WAT     H2 5473   2.692   3.027   2.004
 1763WAT      O 5474   3.048   1.088   0.657
 1763WAT     H1 5475   3.001   1.031   0.717
 1763WAT     H2 5476   2.981   1.147   0.623
 1764WAT      O 5477   1.926   1.111   0.227
 1764WAT     H1 5478   1.902   1.041   0.165
 1764WAT     H2 5479   1.856   1.111   0.291
 1765WAT      O 5480   0.511   3.229   1.622
 1765WAT     H1 5481   0.595   3.188   1.600
 1765WAT     H2 5482   0.450   3.156   1.630
 1766WAT      O 5483   2.544   0.937   0.215
 1766WAT     H1 5484   2.541   0.971   0.126
 1766WAT     H2 5485   2.619   0.879   0.217
 1767WAT      O 5486   3.309   1.926   1.213
 1767WAT     H1 5487   3.252   1.918   1.288
 1767WAT     H2 5488   3.251   1.918   1.137
 1768WAT      O 5489   1.689   1.528   2.036
 1768WAT     H1 5490   1.686   1.585   1.959
 1768WAT     H2 5491   1.688   1.589   2.111
 1769WAT      O 5492   3.683   2.171   1.686
 1769WAT     H1 5493   3.614   2.109   1.709
 1769WAT     H2 5494   3.637   2.254   1.672
 1770WAT      O 5495   3.820   2.809   2.529
 1770WAT     H1 5496   3.769   2.742   2.575
 1770WAT     H2 5497   3.899   2.819   2.583
 1771WAT      O 5498   1.199   3.755   2.207
 1771WAT     H1 5499   1.202   3.807   2.127
 1771WAT     H2 5500   1.167   3.669   2.178
 1772WAT      O 5501   1.573   0.229   2.540
 1772WAT     H1 5502   1.538   0.278   2.466
 1772WAT     H2 5503   1.625   0.292   2.589
 1773WAT      O 5504   1.555   0.115   2.189
 1773WAT     H1 5505   1.544   0.201   2.229
 1773WAT     H2 5506   1.475   0.101   2.138
 1774WAT      O 5507   2.352   0.132   3.713
 1774WAT     H1 5508   2.315   0.044   3.703
 1774WAT     H2 5509   2.278   0.185   3.743
 1775WAT      O 5510   2.346   1.712   0.616
 1775WAT     H1 5511   2.436   1.722   0.648
 1775WAT     H2 5512   2.356   1.678   0.527
 1776WAT      O 5513   3.134   0.484   3.112
 1776WAT     H1 5514   3.208   0.526   3.156
 1776WAT     H2 5515   3.077   0.557   3.088
 1777WAT      O 5516   3.719   4.018   2.408
 1777WAT     H1 5517   3.677   3.942   2.449
 1777WAT     H2 5518   3.680   4.093   2.454
 1778WAT      O 5519   2.541   0.831   0.793
 1778WAT     H1 5520   2.528   0.750   0.843
 1778WAT     H2 5521   2.481   0.823   0.719
 1779WAT      O 5522   2.746   1.437   1.951
 1779WAT     H1 5523   2.728   1.530   1.968
 1779WAT     H2 5524   2.836   1.437   1.917
 1780WAT      O 5525   1.140   0.903   0.868
 1780WAT     H1 5526   1.145   0.991   0.833
 1780WAT     H2 5527   1.228   0.867   0.854
 1781WAT      O 5528   3.879   2.197   3.196
 1781WAT     H1 5529   3.965   2.190   3.237
 1781WAT     H2 5530   3.863   2.291   3.187
 1782WAT      O 5531   3.724   3.684   2.087
 1782WAT     H1 5532   3.643   3.683   2.036
 1782WAT     H2 5533   3.711   3.618   2.155
 1783WAT      O 5534   3.233   3.671   1.020
 1783WAT     H1 5535   3.242   3.608   1.092
 1783WAT     H2 5536   3.314   3.661   0.970
 1784WAT      O 5537   3.901   3.805   3.655
 1784WAT     H1 5538   3.918   3.895   3.681
 1784WAT     H2 5539   3.980   3.777   3.609
 1785WAT      O 5540   3.718   1.261   1.837
 1785WAT     H1 5541   3.718   1.356   1.824
 1785WAT     H2 5542   3.664   1.248   1.915
 1786WAT      O 5543   2.030   0.407   2.991
 1786WAT     H1 5544   2.121   0.412   2.962
 1786WAT     H2 5545   2.009   0.314   2.987
 1787WAT      O 5546   2.223   0.385   2.800
 1787WAT     H1 5547   2.169   0.376   2.721
 1787WAT     H2 5548   2.276   0.463   2.785
 1788WAT      O 5549   1.336   1.083   3.522
 1788WAT     H1 5550   1.379   1.081   3.437
 1788WAT     H2 5551   1.264   1.021   3.514
 1789WAT      O 5552   2.183   3.880   1.058
 1789WAT     H1 5553   2.228   3.890   0.975
 1789WAT     H2 5554   2.105   3.935   1.049
 1790WAT      O 5555   0.994   0.767   3.269
 1790WAT     H1 5556   0.965   0.733   3.185
 1790WAT     H2 5557   0.942   0.845   3.284
 1791WAT      O 5558   3.319   3.168   0.240
 1791WAT     H1 5559   3.317   3.249   0.292
 1791WAT     H2 5560   3.238   3.172   0.187
 1792WAT      O 5561   3.393   0.715   1.668
 1792WAT     H1 5562   3.307   0.702   1.709
 1792WAT     H2 5563   3.382   0.681   1.579
 1793WAT      O 5564   3.518   0.351   2.148
 1793WAT     H1 5565   3.453   0.301   2.198
 1793WAT     H2 5566   3.486   0.441   2.150
 1794WAT      O 5567   2.750   0.339   3.160
 1794WAT     H1 5568   2.804   0.283   3.105
 1794WAT     H2 5569   2.797   0.422   3.163
 1795WAT      O 5570   1.104   1.564   3.478
 1795WAT     H1 5571   1.138   1.485   3.519
 1795WAT     H2 5572   1.182   1.611   3.448
 1796WAT      O 5573   2.248   3.582   0.839
 1796WAT     H1 5574   2.233   3.522   0.766
 1796WAT     H2 5575   2.162   3.621   0.857
 1797WAT      O 5576   0.024   2.867   2.669
 1797WAT     H1 5577   0.056   2.820   2.747
 1797WAT     H2 5578   0.101   2.872   2.612
 1798WAT      O 5579   3.668   0.104   2.675
 1798WAT     H1 5580   3.685   0.181   2.620
 1798WAT     H2 5581   3.716   0.122   2.756
 1799WAT      O 5582   2.049   3.836   1.686
 1799WAT     H1 5583   2.022   3.926   1.667
 1799WAT     H2 5584   2.130   3.846   1.736
 1800WAT      O 5585   0.038   0.330   1.531
 1800WAT     H1 5586   0.125   0.362   1.509
 1800WAT     H2 5587   0.027   0.251   1.478
 1801WAT      O 5588   0.016   2.273   3.730
 1801WAT     H1 5589   0.005   2.363   3.699
 1801WAT     H2 5590  -0.002   2.277   3.823
 1802WAT      O 5591   3.360   2.770   3.559
 1802WAT     H1 5592   3.372   2.862   3.535
 1802WAT     H2 5593   3.363   2.723   3.476
 1803WAT      O 5594   2.197   3.639   3.577
 1803WAT     H1 5595   2.103   3.632   3.594
 1803WAT     H2 5596   2.205   3.636   3.482
 1804WAT      O 5597   1.773   2.978   2.654
 1804WAT     H1 5598   1.695   2.934   2.688
 1804WAT     H2 5599   1.762   2.976   2.559
 1805WAT      O 5600   3.776   3.447   0.791
 1805WAT     H1 5601   3.773   3.540   0.816
 1805WAT     H2 5602   3.684   3.424   0.775
 1806WAT      O 5603   4.012   1.476   2.140
 1806WAT     H1 5604   4.055   1.392   2.157
 1806WAT     H2 5605   4.074   1.542   2.172
 1807WAT      O 5606   3.980   2.287   0.413
 1807WAT     H1 5607   3.897   2.321   0.447
 1807WAT     H2 5608   3.971   2.192   0.418
 1808WAT      O 5609   3.096   1.688   1.352
 1808WAT     H1 5610   3.044   1.700   1.272
 1808WAT     H2 5611   3.055   1.746   1.416
 1809WAT      O 5612   1.277   2.615   2.779
 1809WAT     H1 5613   1.196   2.661   2.798
 1809WAT     H2 5614   1.340   2.649   2.842
 1810WAT      O 5615   2.644   0.089   1.907
 1810WAT     H1 5616   2.595   0.042   1.974
 1810WAT     H2 5617   2.624   0.181   1.922
 1811WAT      O 5618   2.891   3.567   0.597
 1811WAT     H1 5619   2.942   3.494   0.561
 1811WAT     H2 5620   2.910   3.641   0.540
 1812WAT      O 5621   2.365   0.644   2.815
 1812WAT     H1 5622   2.387   0.736   2.807
 1812WAT     H2 5623   2.366   0.627   2.910
 1813WAT      O 5624   1.432   1.294   1.315
 1813WAT     H1 5625   1.372   1.220   1.324
 1813WAT     H2 5626   1.495   1.264   1.249
 1814WAT      O 5627   1.993   2.594   3.649
 1814WAT     H1 5628   1.920   2.535   3.633
 1814WAT     H2 5629   2.018   2.625   3.562
 1815WAT      O 5630   2.140   0.552   0.959
 1815WAT     H1 5631   2.073   0.589   0.902
 1815WAT     H2 5632   2.192   0.627   0.987
 1816WAT      O 5633   1.112   1.049   1.211
 1816WAT     H1 5634   1.117   0.953   1.219
 1816WAT     H2 5635   1.188   1.072   1.157
 1817WAT      O 5636   0.196   0.913   0.747
 1817WAT     H1 5637   0.121   0.918   0.688
 1817WAT     H2 5638   0.214   1.004   0.771
 1818WAT      O 5639   0.296   1.652   0.973
 1818WAT     H1 5640   0.282   1.709   0.898
 1818WAT     H2 5641   0.332   1.710   1.041
 1819WAT      O 5642   2.390   3.413   3.058
 1819WAT     H1 5643   2.295   3.424   3.051
 1819WAT     H2 5644   2.410   3.335   3.007
 1820WAT      O 5645   3.210   0.194   0.914
 1820WAT     H1 5646   3.267   0.144   0.972
 1820WAT     H2 5647   3.160   0.251   0.973
 1821WAT      O 5648   2.872   3.455   3.463
 1821WAT     H1 5649   2.967   3.457   3.450
 1821WAT     H2 5650   2.848   3.363   3.447
 1822WAT      O 5651   1.935   2.577   2.340
 1822WAT     H1 5652   1.932   2.669   2.313
 1822WAT     H2 5653   1.846   2.545   2.328
 1823WAT      O 5654   1.761   2.040   2.029
 1823WAT     H1 5655   1.740   2.099   2.101
 1823WAT     H2 5656   1.847   2.004   2.051
 1824WAT      O 5657   1.160   0.522   2.903
 1824WAT     H1 5658   1.221   0.595   2.908
 1824WAT     H2 5659   1.193   0.459   2.968
 1825WAT      O 5660   1.779   2.279   2.493
 1825WAT     H1 5661   1.864   2.264   2.452
 1825WAT     H2 5662   1.787   2.242   2.581
 1826WAT      O 5663   2.038   1.448   3.954
 1826WAT     H1 5664   1.949   1.422   3.931
 1826WAT     H2 5665   2.054   1.528   3.904
 1827WAT      O 5666   3.463   3.698   2.002
 1827WAT     H1 5667   3.399   3.745   1.949
 1827WAT     H2 5668   3.420   3.616   2.024
 1828WAT      O 5669   0.290   2.955   2.970
 1828WAT     H1 5670   0.221   3.019   2.952
 1828WAT     H2 5671   0.347   2.959   2.894
 1829WAT      O 5672   2.334   0.384   0.516
 1829WAT     H1 5673   2.422   0.394   0.478
 1829WAT     H2 5674   2.282   0.345   0.446
 1830WAT      O 5675   3.885   2.406   3.403
 1830WAT     H1 5676   3.957   2.441   3.351
 1830WAT     H2 5677   3.814   2.469   3.391
 1831WAT      O 5678   0.019   1.369   0.019
 1831WAT     H1 5679  -0.072   1.377  -0.009
 1831WAT     H2 5680   0.020   1.401   0.109
 1832WAT      O 5681   2.023   2.943   3.958
 1832WAT     H1 5682   1.930   2.925   3.947
 1832WAT     H2 5683   2.034   2.955   4.053
 1833WAT      O 5684   2.793   0.904   2.669
 1833WAT     H1 5685   2.741   0.983   2.659
 1833WAT     H2 5686   2.746   0.838   2.618
 1834WAT      O 5687   2.964   0.256   1.025
 1834WAT     H1 5688   2.892   0.319   1.020
 1834WAT     H2 5689   2.967   0.231   1.117
 1835WAT      O 5690   3.550   3.051   2.476
 1835WAT     H1 5691   3.511   3.018   2.557
 1835WAT     H2 5692   3.644   3.055   2.495
 1836WAT      O 5693   3.825   3.359   2.523
 1836WAT     H1 5694   3.758   3.367   2.591
 1836WAT     H2 5695   3.881   3.287   2.553
 1837WAT      O 5696   2.765   1.748   1.717
 1837WAT     H1 5697   2.811   1.829   1.695
 1837WAT     H2 5698   2.830   1.679   1.704
 1838WAT      O 5699   1.858   3.413   1.798
 1838WAT     H1 5700   1.864   3.356   1.874
 1838WAT     H2 5701   1.879   3.500   1.832
 1839WAT      O 5702   0.423   0.269   2.538
 1839WAT     H1 5703   0.423   0.266   2.634
 1839WAT     H2 5704   0.515   0.272   2.514
 1840WAT      O 5705   1.908   3.290   3.778
 1840WAT     H1 5706   1.889   3.316   3.688
 1840WAT     H2 5707   1.958   3.363   3.814
 1841WAT      O 5708   0.758   0.922   0.420
 1841WAT     H1 5709   0.710   0.840   0.412
 1841WAT     H2 5710   0.692   0.990   0.406
 1842WAT      O 5711   0.374   1.913   2.856
 1842WAT     H1 5712   0.439   1.911   2.926
 1842WAT     H2 5713   0.307   1.973   2.887
 1843WAT      O 5714   0.176   0.639   3.713
 1843WAT     H1 5715   0.147   0.656   3.803
 1843WAT     H2 5716   0.154   0.718   3.665
 1844WAT      O 5717   1.134   1.531   2.476
 1844WAT     H1 5718   1.092   1.610   2.510
 1844WAT     H2 5719   1.204   1.512   2.539
 1845WAT      O 5720   3.360   4.022   3.232
 1845WAT     H1 5721   3.268   3.998   3.238
 1845WAT     H2 5722   3.361   4.115   3.253
 1846WAT      O 5723   3.043   1.185   1.920
 1846WAT     H1 5724   3.078   1.106   1.963
 1846WAT     H2 5725   3.094   1.193   1.840
 1847WAT      O 5726   2.450   3.256   0.557
 1847WAT     H1 5727   2.526   3.225   0.607
 1847WAT     H2 5728   2.451   3.203   0.477
 1848WAT      O 5729   1.083   0.304   0.424
 1848WAT     H1 5730   1.059   0.377   0.482
 1848WAT     H2 5731   1.125   0.347   0.349
 1849WAT      O 5732   0.072   1.014   2.230
 1849WAT     H1 5733   0.018   1.054   2.298
 1849WAT     H2 5734   0.103   1.088   2.178
 1850WAT      O 5735   0.212   3.444   3.072
 1850WAT     H1 5736   0.245   3.530   3.050
 1850WAT     H2 5737   0.161   3.417   2.996
 1851WAT      O 5738   1.549   3.530   0.580
 1851WAT     H1 5739   1.570   3.494   0.493
 1851WAT     H2 5740   1.531   3.453   0.634
 1852WAT      O 5741   1.957   3.460   0.588
 1852WAT     H1 5742   1.931   3.470   0.679
 1852WAT     H2 5743   2.052   3.474   0.588
 1853WAT      O 5744   2.574   3.631   1.731
 1853WAT     H1 5745   2.656   3.680   1.724
 1853WAT     H2 5746   2.527   3.652   1.651
 1854WAT      O 5747   1.110   2.596   1.670
 1854WAT     H1 5748   1.192   2.560   1.705
 1854WAT     H2 5749   1.041   2.541   1.708
 1855WAT      O 5750   2.263   1.288   1.215
 1855WAT     H1 5751   2.247   1.270   1.123
 1855WAT     H2 5752   2.260   1.384   1.221
 1856WAT      O 5753   2.972   0.482   2.603
 1856WAT     H1 5754   2.905   0.535   2.561
 1856WAT     H2 5755   2.926   0.403   2.631
 1857WAT      O 5756   3.689   2.718   2.981
 1857WAT     H1 5757   3.639   2.776   3.039
 1857WAT     H2 5758   3.737   2.777   2.924
 1858WAT      O 5759   2.916   2.147   3.374
 1858WAT     H1 5760   2.838   2.091   3.383
 1858WAT     H2 5761   2.965   2.133   3.455
 1859WAT      O 5762   3.937   0.027   1.766
 1859WAT     H1 5763   3.848   0.059   1.780
 1859WAT     H2 5764   3.962  -0.012   1.849
 1860WAT      O 5765   3.686   3.202   0.350
 1860WAT     H1 5766   3.669   3.113   0.318
 1860WAT     H2 5767   3.632   3.210   0.428
 1861WAT      O 5768   1.228   1.338   3.535
 1861WAT     H1 5769   1.304   1.280   3.533
 1861WAT     H2 5770   1.152   1.279   3.527
 1862WAT      O 5771   0.646   2.759   1.285
 1862WAT     H1 5772   0.706   2.704   1.235
 1862WAT     H2 5773   0.565   2.758   1.234
 1863WAT      O 5774   0.298   3.726   0.870
 1863WAT     H1 5775   0.328   3.641   0.839
 1863WAT     H2 5776   0.297   3.718   0.966
 1864WAT      O 5777   1.201   3.829   1.569
 1864WAT     H1 5778   1.259   3.873   1.507
 1864WAT     H2 5779   1.114   3.859   1.545
 1865WAT      O 5780   3.944   3.754   0.877
 1865WAT     H1 5781   3.994   3.835   0.883
 1865WAT     H2 5782   3.927   3.729   0.968
 1866WAT      O 5783   2.647   3.959   3.607
 1866WAT     H1 5784   2.627   4.006   3.526
 1866WAT     H2 5785   2.743   3.953   3.608
 1867WAT      O 5786   0.109   1.612   3.605
 1867WAT     H1 5787   0.086   1.705   3.597
 1867WAT     H2 5788   0.068   1.570   3.530
 1868WAT      O 5789   3.519   3.275   1.283
 1868WAT     H1 5790   3.518   3.364   1.319
 1868WAT     H2 5791   3.491   3.220   1.356
 1869WAT      O 5792   0.473   2.701   3.469
 1869WAT     H1 5793   0.428   2.785   3.455
 1869WAT     H2 5794   0.424   2.659   3.539
 1870WAT      O 5795   0.462   3.579   1.889
 1870WAT     H1 5796   0.456   3.672   1.913
 1870WAT     H2 5797   0.489   3.536   1.969
 1871WAT      O 5798   0.022   2.404   2.182
 1871WAT     H1 5799   0.096   2.360   2.223
 1871WAT     H2 5800   0.000   2.476   2.241
 1872WAT      O 5801   0.302   0.902   0.380
 1872WAT     H1 5802   0.331   0.990   0.403
 1872WAT     H2 5803   0.381   0.848   0.384
 1873WAT      O 5804   1.410   1.097   0.566
 1873WAT     H1 5805   1.505   1.104   0.560
 1873WAT     H2 5806   1.379   1.188   0.570
 1874WAT      O 5807   0.888   0.901   0.741
 1874WAT     H1 5808   0.910   0.846   0.666
 1874WAT     H2 5809   0.952   0.878   0.808
 1875WAT      O 5810   3.267   2.328   2.047
 1875WAT     H1 5811   3.276   2.252   2.105
 1875WAT     H2 5812   3.351   2.335   2.003
 1876WAT      O 5813   3.347   1.062   2.466
 1876WAT     H1 5814   3.266   1.032   2.426
 1876WAT     H2 5815   3.388   0.982   2.499
 1877WAT      O 5816   1.944   0.582   3.459
 1877WAT     H1 5817   2.024   0.529   3.456
 1877WAT     H2 5818   1.899   0.561   3.377
 1878WAT      O 5819   3.491   1.108   0.823
 1878WAT     H1 5820   3.413   1.140   0.777
 1878WAT     H2 5821   3.526   1.040   0.766
 1879WAT      O 5822   0.715   0.638   3.539
 1879WAT     H1 5823   0.793   0.596   3.502
 1879WAT     H2 5824   0.741   0.660   3.629
 1880WAT      O 5825   1.952   3.995   0.466
 1880WAT     H1 5826   2.022   3.931   0.456
 1880WAT     H2 5827   1.933   3.997   0.560
 1881WAT      O 5828   2.668   0.332   0.648
 1881WAT     H1 5829   2.737   0.300   0.589
 1881WAT     H2 5830   2.675   0.427   0.642
 1882WAT      O 5831   3.327   1.672   1.480
 1882WAT     H1 5832   3.356   1.582   1.469
 1882WAT     H2 5833   3.238   1.673   1.446
 1883WAT      O 5834   4.011   0.113   2.376
 1883WAT     H1 5835   4.002   0.020   2.397
 1883WAT     H2 5836   3.949   0.156   2.435
 1884WAT      O 5837   1.465   0.382   0.660
 1884WAT     H1 5838   1.480   0.476   0.670
 1884WAT     H2 5839   1.494   0.363   0.571
 1885WAT      O 5840   0.512   3.480   2.157
 1885WAT     H1 5841   0.435   3.536   2.149
 1885WAT     H2 5842   0.578   3.535   2.198
 1886WAT      O 5843   1.290   4.017   3.749
 1886WAT     H1 5844   1.357   4.063   3.698
 1886WAT     H2 5845   1.210   4.029   3.699
 1887WAT      O 5846   2.757   1.088   1.957
 1887WAT     H1 5847   2.693   1.111   1.890
 1887WAT     H2 5848   2.838   1.131   1.929
 1888WAT      O 5849   0.795   3.964   0.519
 1888WAT     H1 5850   0.785   3.876   0.553
 1888WAT     H2 5851   0.734   3.968   0.445
 1889WAT      O 5852   1.053   2.470   0.944
 1889WAT     H1 5853   1.044   2.397   1.006
 1889WAT     H2 5854   0.982   2.458   0.882
 1890WAT      O 5855   0.471   2.216   3.436
 1890WAT     H1 5856   0.385   2.258   3.432
 1890WAT     H2 5857   0.521   2.270   3.497
 1891WAT      O 5858   0.094   0.508   3.380
 1891WAT     H1 5859   0.044   0.468   3.309
 1891WAT     H2 5860   0.059   0.597   3.387
 1892WAT      O 5861   2.053   0.043   0.906
 1892WAT     H1 5862   2.057   0.137   0.924
 1892WAT     H2 5863   1.961   0.027   0.884
 1893WAT      O 5864   1.654   0.531   1.517
 1893WAT     H1 5865   1.642   0.436   1.514
 1893WAT     H2 5866   1.566   0.566   1.502
 1894WAT      O 5867   1.437   3.786   0.255
 1894WAT     H1 5868   1.523   3.821   0.279
 1894WAT     H2 5869   1.386   3.789   0.337
 1895WAT      O 5870   1.305   1.389   3.256
 1895WAT     H1 5871   1.400   1.395   3.258
 1895WAT     H2 5872   1.275   1.453   3.321
 1896WAT      O 5873   2.207   1.956   0.904
 1896WAT     H1 5874   2.222   1.863   0.924
 1896WAT     H2 5875   2.203   1.998   0.990
 1897WAT      O 5876   1.408   2.143   0.902
 1897WAT     H1 5877   1.394   2.120   0.993
 1897WAT     H2 5878   1.468   2.217   0.904
 1898WAT      O 5879   2.778   0.046   0.954
 1898WAT     H1 5880   2.793   0.059   1.048
 1898WAT     H2 5881   2.865   0.053   0.914
 1899WAT      O 5882   0.507   2.937   0.051
 1899WAT     H1 5883   0.463   2.980  -0.022
 1899WAT     H2 5884   0.599   2.939   0.028
 1900WAT      O 5885   3.414   1.746   2.223
 1900WAT     H1 5886   3.388   1.666   2.179
 1900WAT     H2 5887   3.463   1.716   2.300
 1901WAT      O 5888   1.958   0.075   1.258
 1901WAT     H1 5889   1.961   0.057   1.352
 1901WAT     H2 5890   1.916  -0.002   1.220
 1902WAT      O 5891   1.886   0.962   3.974
 1902WAT     H1 5892   1.976   0.994   3.985
 1902WAT     H2 5893   1.896   0.879   3.927
 1903WAT      O 5894   0.590   3.271   3.450
 1903WAT     H1 5895   0.574   3.318   3.532
 1903WAT     H2 5896   0.655   3.325   3.404
 1904WAT      O 5897   1.417   3.401   1.633
 1904WAT     H1 5898   1.430   3.436   1.544
 1904WAT     H2 5899   1.493   3.346   1.648
 1905WAT      O 5900   2.680   2.616   1.036
 1905WAT     H1 5901   2.697   2.590   0.946
 1905WAT     H2 5902   2.759   2.663   1.063
 1906WAT      O 5903   3.626   0.503   1.140
 1906WAT     H1 5904   3.672   0.494   1.057
 1906WAT     H2 5905   3.690   0.476   1.206
 1907WAT      O 5906   2.351   2.971   0.560
 1907WAT     H1 5907   2.420   2.981   0.626
 1907WAT     H2 5908   2.398   2.973   0.476
 1908WAT      O 5909   1.222   3.109   0.413
 1908WAT     H1 5910   1.284   3.059   0.467
 1908WAT     H2 5911   1.179   3.168   0.475
 1909WAT      O 5912   1.219   0.192   2.883
 1909WAT     H1 5913   1.227   0.119   2.822
 1909WAT     H2 5914   1.191   0.266   2.829
 1910WAT      O 5915   1.990   3.226   2.845
 1910WAT     H1 5916   2.081   3.201   2.833
 1910WAT     H2 5917   1.946   3.195   2.766
 1911WAT      O 5918   1.104   3.183   2.819
 1911WAT     H1 5919   1.109   3.198   2.913
 1911WAT     H2 5920   1.048   3.254   2.787
 1912WAT      O 5921   1.821   1.045   1.202
 1912WAT     H1 5922   1.893   1.008   1.252
 1912WAT     H2 5923   1.757   0.974   1.195
 1913WAT      O 5924   3.601   3.539   2.316
 1913WAT     H1 5925   3.523   3.593   2.323
 1913WAT     H2 5926   3.571   3.451   2.338
 1914WAT      O 5927   2.199   0.892   0.774
 1914WAT     H1 5928   2.221   0.817   0.720
 1914WAT     H2 5929   2.232   0.870   0.861
 1915WAT      O 5930   2.881   1.842   1.129
 1915WAT     H1 5931   2.796   1.847   1.171
 1915WAT     H2 5932   2.907   1.933   1.115
 1916WAT      O 5933   3.407   1.845   0.361
 1916WAT     H1 5934   3.353   1.791   0.303
 1916WAT     H2 5935   3.496   1.811   0.351
 1917WAT      O 5936   1.342   0.123   0.527
 1917WAT     H1 5937   1.286   0.109   0.451
 1917WAT     H2 5938   1.375   0.212   0.515
 1918WAT      O 5939   2.651   0.293   0.933
 1918WAT     H1 5940   2.629   0.305   0.840
 1918WAT     H2 5941   2.683   0.203   0.939
 1919WAT      O 5942   3.401   0.610   2.764
 1919WAT     H1 5943   3.326   0.567   2.805
 1919WAT     H2 5944   3.452   0.645   2.837
 1920WAT      O 5945   1.205   2.504   3.102
 1920WAT     H1 5946   1.259   2.583   3.104
 1920WAT     H2 5947   1.244   2.447   3.167
 1921WAT      O 5948   0.157   1.776   0.451
 1921WAT     H1 5949   0.146   1.691   0.494
 1921WAT     H2 5950   0.173   1.837   0.523
 1922WAT      O 5951   1.141   2.900   2.396
 1922WAT     H1 5952   1.048   2.882   2.381
 1922WAT     H2 5953   1.152   2.991   2.369
 1923WAT      O 5954   2.528   0.640   2.053
 1923WAT     H1 5955   2.579   0.720   2.070
 1923WAT     H2 5956   2.447   0.671   2.013
 1924WAT      O 5957   1.969   1.453   2.147
 1924WAT     H1 5958   1.981   1.388   2.216
 1924WAT     H2 5959   1.877   1.447   2.124
 1925WAT      O 5960   2.853   1.270   0.577
 1925WAT     H1 5961   2.897   1.350   0.546
 1925WAT     H2 5962   2.764   1.298   0.597
 1926WAT      O 5963   1.773   1.847   3.941
 1926WAT     H1 5964   1.695   1.792   3.939
 1926WAT     H2 5965   1.759   1.904   4.017
 1927WAT      O 5966   0.754   3.605   1.131
 1927WAT     H1 5967   0.749   3.687   1.181
 1927WAT     H2 5968   0.666   3.567   1.140
 1928WAT      O 5969   3.631   3.086   2.873
 1928WAT     H1 5970   3.703   3.023   2.869
 1928WAT     H2 5971   3.558   3.041   2.831
 1929WAT      O 5972   0.350   3.062   0.710
 1929WAT     H1 5973   0.291   3.028   0.644
 1929WAT     H2 5974   0.347   3.157   0.698
 1930WAT      O 5975   3.086   0.902   2.410
 1930WAT     H1 5976   3.131   0.818   2.403
 1930WAT     H2 5977   3.078   0.917   2.505
 1931WAT      O 5978   1.426   1.905   0.761
 1931WAT     H1 5979   1.511   1.902   0.717
 1931WAT     H2 5980   1.427   1.987   0.810
 1932WAT      O 5981   2.116   2.101   2.205
 1932WAT     H1 5982   2.073   2.187   2.210
 1932WAT     H2 5983   2.130   2.076   2.296
 1933WAT      O 5984   1.728   0.255   3.838
 1933WAT     H1 5985   1.778   0.329   3.803
 1933WAT     H2 5986   1.737   0.187   3.773
 1934WAT      O 5987   3.216   0.168   0.648
 1934WAT     H1 5988   3.189   0.258   0.633
 1934WAT     H2 5989   3.206   0.155   0.742
 1935WAT      O 5990   2.707   0.005   0.145
 1935WAT     H1 5991   2.757  -0.073   0.121
 1935WAT     H2 5992   2.770   0.077   0.137
 1936WAT      O 5993   2.286   2.706   2.297
 1936WAT     H1 5994   2.259   2.648   2.226
 1936WAT     H2 5995   2.312   2.648   2.368
 1937WAT      O 5996   0.815   0.733   0.073
 1937WAT     H1 5997   0.803   0.667   0.005
 1937WAT     H2 5998   0.783   0.815   0.034
 1938WAT      O 5999   0.304   3.748   2.991
 1938WAT     H1 6000   0.282   3.751   2.898
 1938WAT     H2 6001   0.393   3.785   2.996
 1939WAT      O 6002   3.891   1.934   0.133
 1939WAT     H1 6003   3.832   1.886   0.075
 1939WAT     H2 6004   3.965   1.875   0.146
 1940WAT      O 6005   3.953   0.679   1.704
 1940WAT     H1 6006   3.888   0.609   1.716
 1940WAT     H2 6007   4.019   0.663   1.771
 1941WAT      O 6008   0.975   3.842   2.972
 1941WAT     H1 6009   1.067   3.864   2.985
 1941WAT     H2 6010   0.976   3.749   2.948
 1942WAT      O 6011   1.495   0.905   1.281
 1942WAT     H1 6012   1.562   0.847   1.245
 1942WAT     H2 6013   1.526   0.926   1.369
 1943WAT      O 6014   3.057   2.704   2.936
 1943WAT     H1 6015   3.134   2.710   2.879
 1943WAT     H2 6016   3.039   2.795   2.962
 1944WAT      O 6017   1.770   0.057   0.916
 1944WAT     H1 6018   1.760   0.152   0.928
 1944WAT     H2 6019   1.687   0.021   0.947
 1945WAT      O 6020   1.899   2.219   4.004
 1945WAT     H1 6021   1.956   2.183   3.936
 1945WAT     H2 6022   1.904   2.314   3.992
 1946WAT      O 6023   0.796   1.330   0.018
 1946WAT     H1 6024   0.785   1.387  -0.058
 1946WAT     H2 6025   0.802   1.242  -0.019
 1947WAT      O 6026   2.817   2.417   0.396
 1947WAT     H1 6027   2.844   2.459   0.477
 1947WAT     H2 6028   2.734   2.374   0.417
 1948WAT      O 6029   1.503   1.297   2.025
 1948WAT     H1 6030   1.562   1.372   2.038
 1948WAT     H2 6031   1.466   1.311   1.938
 1949WAT      O 6032   2.725   0.824   2.087
 1949WAT     H1 6033   2.814   0.809   2.119
 1949WAT     H2 6034   2.732   0.900   2.030
 1950WAT      O 6035   3.928   0.532   3.895
 1950WAT     H1 6036   3.890   0.602   3.949
 1950WAT     H2 6037   3.997   0.495   3.949
 1951WAT      O 6038   3.625   1.856   1.316
 1951WAT     H1 6039   3.646   1.840   1.408
 1951WAT     H2 6040   3.530   1.868   1.315
 1952WAT      O 6041   2.082   0.551   0.643
 1952WAT     H1 6042   2.141   0.613   0.599
 1952WAT     H2 6043   2.071   0.480   0.579
 1953WAT      O 6044   1.409   3.764   1.729
 1953WAT     H1 6045   1.434   3.853   1.756
 1953WAT     H2 6046   1.333   3.778   1.672
 1954WAT      O 6047   2.367   2.336   1.190
 1954WAT     H1 6048   2.365   2.278   1.266
 1954WAT     H2 6049   2.288   2.314   1.141
 1955WAT      O 6050   2.764   3.202   3.185
 1955WAT     H1 6051   2.801   3.170   3.267
 1955WAT     H2 6052   2.788   3.136   3.120
 1956WAT      O 6053   1.546   3.712   2.909
 1956WAT     H1 6054   1.621   3.753   2.951
 1956WAT     H2 6055   1.511   3.652   2.976
 1957WAT      O 6056   1.501   1.794   1.452
 1957WAT     H1 6057   1.425   1.765   1.504
 1957WAT     H2 6058   1.544   1.713   1.426
 1958WAT      O 6059   1.265   3.894   3.017
 1958WAT     H1 6060   1.355   3.921   3.034
 1958WAT     H2 6061   1.259   3.887   2.922
 1959WAT      O 6062   3.025   3.248   2.505
 1959WAT     H1 6063   3.080   3.250   2.426
 1959WAT     H2 6064   2.969   3.172   2.493
 1960WAT      O 6065   3.365   2.101   3.626
 1960WAT     H1 6066   3.411   2.022   3.654
 1960WAT     H2 6067   3.435   2.159   3.595
 1961WAT      O 6068   1.062   3.212   1.942
 1961WAT     H1 6069   1.111   3.187   1.864
 1961WAT     H2 6070   1.006   3.284   1.913
 1962WAT      O 6071   2.086   2.366   2.349
 1962WAT     H1 6072   2.171   2.384   2.390
 1962WAT     H2 6073   2.039   2.450   2.353
 1963WAT      O 6074   3.440   0.536   0.348
 1963WAT     H1 6075   3.404   0.529   0.260
 1963WAT     H2 6076   3.493   0.457   0.358
 1964WAT      O 6077   0.930   0.863   2.014
 1964WAT     H1 6078   0.985   0.939   2.035
 1964WAT     H2 6079   0.993   0.793   1.998
 1965WAT      O 6080   2.169   2.450   1.791
 1965WAT     H1 6081   2.084   2.407   1.800
 1965WAT     H2 6082   2.148   2.535   1.751
 1966WAT      O 6083   3.591   2.258   3.260
 1966WAT     H1 6084   3.551   2.316   3.195
 1966WAT     H2 6085   3.685   2.262   3.242
 1967WAT      O 6086   3.192   0.115   2.044
 1967WAT     H1 6087   3.246   0.179   2.090
 1967WAT     H2 6088   3.248   0.083   1.973
 1968WAT      O 6089   2.170   2.736   3.812
 1968WAT     H1 6090   2.113   2.697   3.746
 1968WAT     H2 6091   2.110   2.783   3.871
 1969WAT      O 6092   2.677   0.933   2.346
 1969WAT     H1 6093   2.741   0.990   2.303
 1969WAT     H2 6094   2.650   0.872   2.278
 1970WAT      O 6095   3.714   0.804   2.881
 1970WAT     H1 6096   3.635   0.810   2.936
 1970WAT     H2 6097   3.769   0.741   2.928
 1971WAT      O 6098   2.182   3.237   3.628
 1971WAT     H1 6099   2.218   3.184   3.699
 1971WAT     H2 6100   2.114   3.290   3.669
 1972WAT      O 6101   2.676   1.641   2.327
 1972WAT     H1 6102   2.697   1.729   2.359
 1972WAT     H2 6103   2.662   1.653   2.233
 1973WAT      O 6104   1.675   2.025   3.072
 1973WAT     H1 6105   1.726   2.009   3.151
 1973WAT     H2 6106   1.632   1.942   3.053
 1974WAT      O 6107   3.921   2.215   1.173
 1974WAT     H1 6108   3.831   2.207   1.203
 1974WAT     H2 6109   3.935   2.139   1.116
 1975WAT      O 6110   3.787   1.926   3.161
 1975WAT     H1 6111   3.836   2.008   3.163
 1975WAT     H2 6112   3.726   1.936   3.089
 1976WAT      O 6113   0.936   2.151   0.675
 1976WAT     H1 6114   1.027   2.136   0.701
 1976WAT     H2 6115   0.885   2.116   0.748
 1977WAT      O 6116   1.437   3.959   3.973
 1977WAT     H1 6117   1.372   3.978   3.905
 1977WAT     H2 6118   1.437   3.864   3.981
 1978WAT      O 6119   2.915   0.615   2.963
 1978WAT     H1 6120   2.826   0.602   2.931
 1978WAT     H2 6121   2.950   0.685   2.908
 1979WAT      O 6122   1.442   2.833   1.669
 1979WAT     H1 6123   1.429   2.801   1.758
 1979WAT     H2 6124   1.389   2.774   1.614
 1980WAT      O 6125   0.201   3.913   1.181
 1980WAT     H1 6126   0.194   3.819   1.167
 1980WAT     H2 6127   0.194   3.924   1.276
 1981WAT      O 6128   2.696   3.415   0.836
 1981WAT     H1 6129   2.637   3.381   0.903
 1981WAT     H2 6130   2.783   3.385   0.863
 1982WAT      O 6131   2.085   3.274   0.929
 1982WAT     H1 6132   1.997   3.278   0.890
 1982WAT     H2 6133   2.104   3.181   0.935
 1983WAT      O 6134   2.136   1.648   0.325
 1983WAT     H1 6135   2.068   1.660   0.259
 1983WAT     H2 6136   2.194   1.582   0.287
 1984WAT      O 6137   0.261   0.287   3.484
 1984WAT     H1 6138   0.198   0.350   3.448
 1984WAT     H2 6139   0.343   0.336   3.489
 1985WAT      O 6140   3.511   0.909   2.042
 1985WAT     H1 6141   3.561   0.833   2.074
 1985WAT     H2 6142   3.531   0.978   2.105
 1986WAT      O 6143   3.085   1.454   0.785
 1986WAT     H1 6144   3.112   1.450   0.693
 1986WAT     H2 6145   3.084   1.363   0.815
 1987WAT      O 6146   1.259   0.836   1.632
 1987WAT     H1 6147   1.186   0.777   1.649
 1987WAT     H2 6148   1.291   0.860   1.719
 1988WAT      O 6149   0.991   3.546   3.934
 1988WAT     H1 6150   1.045   3.612   3.891
 1988WAT     H2 6151   1.027   3.539   4.022
 1989WAT      O 6152   2.470   2.017   3.372
 1989WAT     H1 6153   2.418   2.072   3.430
 1989WAT     H2 6154   2.489   2.073   3.297
 1990WAT      O 6155   0.048   1.278   0.658
 1990WAT     H1 6156   0.047   1.197   0.606
 1990WAT     H2 6157   0.007   1.253   0.741
 1991WAT      O 6158   0.783   0.351   2.836
 1991WAT     H1 6159   0.828   0.340   2.753
 1991WAT     H2 6160   0.838   0.305   2.900
 1992WAT      O 6161   0.486   0.045   1.398
 1992WAT     H1 6162   0.567   0.077   1.438
 1992WAT     H2 6163   0.417   0.099   1.436
 1993WAT      O 6164   0.198   0.780   2.207
 1993WAT     H1 6165   0.278   0.779   2.154
 1993WAT     H2 6166   0.175   0.873   2.214
 1994WAT      O 6167   1.926   2.651   1.979
 1994WAT     H1 6168   1.913   2.611   1.893
 1994WAT     H2 6169   2.009   2.615   2.010
 1995WAT      O 6170   0.279   1.203   2.903
 1995WAT     H1 6171   0.189   1.183   2.878
 1995WAT     H2 6172   0.315   1.251   2.829
 1996WAT      O 6173   2.154   0.229   0.058
 1996WAT     H1 6174   2.234   0.281   0.055
 1996WAT     H2 6175   2.151   0.195   0.148
 1997WAT      O 6176   1.643   0.257   1.541
 1997WAT     H1 6177   1.725   0.233   1.584
 1997WAT     H2 6178   1.608   0.174   1.507
 1998WAT      O 6179   3.567   1.540   0.228
 1998WAT     H1 6180   3.611   1.542   0.142
 1998WAT     H2 6181   3.639   1.537   0.291
 1999WAT      O 6182   3.813   3.205   0.894
 1999WAT     H1 6183   3.900   3.170   0.874
 1999WAT     H2 6184   3.819   3.298   0.873
 2000WAT      O 6185   2.129   0.283   3.797
 2000WAT     H1 6186   2.101   0.369   3.766
 2000WAT     H2 6187   2.154   0.296   3.888
 2001WAT      O 6188   2.658   1.896   0.760
 2001WAT     H1 6189   2.741   1.919   0.801
 2001WAT     H2 6190   2.669   1.805   0.734
 2002WAT      O 6191   1.150   2.247   2.465
 2002WAT     H1 6192   1.207   2.170   2.468
 2002WAT     H2 6193   1.206   2.319   2.494
 2003WAT      O 6194   2.471   3.812   1.203
 2003WAT     H1 6195   2.521   3.829   1.283
 2003WAT     H2 6196   2.392   3.768   1.232
 2004WAT      O 6197   1.640   0.152   2.900
 2004WAT     H1 6198   1.651   0.216   2.829
 2004WAT     H2 6199   1.630   0.068   2.855
 2005WAT      O 6200   2.272   3.483   0.552
 2005WAT     H1 6201   2.225   3.470   0.469
 2005WAT     H2 6202   2.327   3.405   0.560
 2006WAT      O 6203   3.679   2.149   2.523
 2006WAT     H1 6204   3.648   2.093   2.452
 2006WAT     H2 6205   3.624   2.227   2.519
 2007WAT      O 6206   3.134   0.482   0.884
 2007WAT     H1 6207   3.217   0.520   0.912
 2007WAT     H2 6208   3.158   0.421   0.815
 2008WAT      O 6209   1.075   1.914   2.178
 2008WAT     H1 6210   1.008   1.966   2.134
 2008WAT     H2 6211   1.146   1.976   2.196
 2009WAT      O 6212   0.197   1.982   3.998
 2009WAT     H1 6213   0.125   1.924   4.021
 2009WAT     H2 6214   0.243   1.937   3.928
 2010WAT      O 6215   0.346   1.407   2.697
 2010WAT     H1 6216   0.268   1.458   2.717
 2010WAT     H2 6217   0.330   1.373   2.609
 2011WAT      O 6218   3.160   1.405   2.357
 2011WAT     H1 6219   3.091   1.380   2.419
 2011WAT     H2 6220   3.186   1.493   2.386
 2012WAT      O 6221   3.069   3.890   0.989
 2012WAT     H1 6222   3.128   3.815   0.987
 2012WAT     H2 6223   3.058   3.914   0.897
 2013WAT      O 6224   3.742   3.133   3.113
 2013WAT     H1 6225   3.826   3.179   3.108
 2013WAT     H2 6226   3.699   3.153   3.030
 2014WAT      O 6227   2.658   3.214   1.431
 2014WAT     H1 6228   2.721   3.210   1.358
 2014WAT     H2 6229   2.665   3.129   1.473
 2015WAT      O 6230   3.986   2.881   1.097
 2015WAT     H1 6231   4.074   2.875   1.134
 2015WAT     H2 6232   3.994   2.942   1.024
 2016WAT      O 6233   2.735   1.801   3.352
 2016WAT     H1 6234   2.729   1.863   3.424
 2016WAT     H2 6235   2.773   1.851   3.280
 2017WAT      O 6236   0.450   2.276   2.936
 2017WAT     H1 6237   0.511   2.311   2.871
 2017WAT     H2 6238   0.483   2.188   2.955
 2018WAT      O 6239   1.086   0.948   3.566
 2018WAT     H1 6240   1.009   0.892   3.555
 2018WAT     H2 6241   1.137   0.904   3.635
 2019WAT      O 6242   3.699   2.932   3.640
 2019WAT     H1 6243   3.776   2.978   3.673
 2019WAT     H2 6244   3.671   2.983   3.564
 2020WAT      O 6245   3.301   3.878   0.451
 2020WAT     H1 6246   3.349   3.926   0.519
 2020WAT     H2 6247   3.362   3.875   0.377
 2021WAT      O 6248   2.758   0.974   0.471
 2021WAT     H1 6249   2.830   1.017   0.424
 2021WAT     H2 6250   2.769   1.001   0.562
 2022WAT      O 6251   1.641   1.167   2.609
 2022WAT     H1 6252   1.575   1.237   2.603
 2022WAT     H2 6253   1.695   1.179   2.531
 2023WAT      O 6254   1.485   1.962   1.232
 2023WAT     H1 6255   1.506   1.911   1.154
 2023WAT     H2 6256   1.500   1.902   1.305
 2024WAT      O 6257   0.195   0.620   0.434
 2024WAT     H1 6258   0.138   0.547   0.410
 2024WAT     H2 6259   0.281   0.595   0.400
 2025WAT      O 6260   3.108   3.042   0.085
 2025WAT     H1 6261   3.044   2.972   0.087
 2025WAT     H2 6262   3.084   3.095   0.010
 2026WAT      O 6263   0.354   2.095   2.592
 2026WAT     H1 6264   0.391   2.037   2.526
 2026WAT     H2 6265   0.355   2.045   2.673
 2027WAT      O 6266   0.806   1.661   1.296
 2027WAT     H1 6267   0.881   1.715   1.320
 2027WAT     H2 6268   0.835   1.571   1.310
 2028WAT      O 6269   0.714   0.159   1.484
 2028WAT     H1 6270   0.706   0.225   1.553
 2028WAT     H2 6271   0.805   0.166   1.455
 2029WAT      O 6272   1.650   1.669   1.763
 2029WAT     H1 6273   1.630   1.759   1.737
 2029WAT     H2 6274   1.715   1.639   1.699
 2030WAT      O 6275   2.135   3.336   3.049
 2030WAT     H1 6276   2.141   3.242   3.070
 2030WAT     H2 6277   2.071   3.340   2.978
 2031WAT      O 6278   0.350   0.187   1.563
 2031WAT     H1 6279   0.376   0.279   1.559
 2031WAT     H2 6280   0.297   0.180   1.642
 2032WAT      O 6281   3.677   2.129   0.786
 2032WAT     H1 6282   3.736   2.068   0.829
 2032WAT     H2 6283   3.665   2.092   0.698
 2033WAT      O 6284   0.812   3.265   0.537
 2033WAT     H1 6285   0.839   3.349   0.499
 2033WAT     H2 6286   0.718   3.262   0.524
 2034WAT      O 6287   3.325   2.982   3.259
 2034WAT     H1 6288   3.329   3.028   3.342
 2034WAT     H2 6289   3.291   2.895   3.282
 2035WAT      O 6290   0.630   1.042   2.316
 2035WAT     H1 6291   0.627   1.135   2.341
 2035WAT     H2 6292   0.591   1.041   2.228
 2036WAT      O 6293   1.655   2.644   3.124
 2036WAT     H1 6294   1.616   2.709   3.182
 2036WAT     H2 6295   1.657   2.687   3.038
 2037WAT      O 6296   0.327   0.668   1.089
 2037WAT     H1 6297   0.416   0.671   1.125
 2037WAT     H2 6298   0.275   0.625   1.156
 2038WAT      O 6299   0.949   1.445   2.029
 2038WAT     H1 6300   1.009   1.516   2.049
 2038WAT     H2 6301   0.964   1.380   2.098
 2039WAT      O 6302   3.896   1.119   1.254
 2039WAT     H1 6303   3.899   1.069   1.173
 2039WAT     H2 6304   3.979   1.165   1.258
 2040WAT      O 6305   1.625   3.018   0.133
 2040WAT     H1 6306   1.627   3.050   0.042
 2040WAT     H2 6307   1.716   3.021   0.162
 2041WAT      O 6308   1.855   0.315   2.595
 2041WAT     H1 6309   1.940   0.305   2.638
 2041WAT     H2 6310   1.799   0.357   2.661
 2042WAT      O 6311   3.217   2.279   2.406
 2042WAT     H1 6312   3.154   2.347   2.382
 2042WAT     H2 6313   3.164   2.211   2.447
 2043WAT      O 6314   3.417   2.536   0.334
 2043WAT     H1 6315   3.367   2.551   0.254
 2043WAT     H2 6316   3.417   2.441   0.346
 2044WAT      O 6317   2.136   3.009   1.272
 2044WAT     H1 6318   2.098   2.950   1.338
 2044WAT     H2 6319   2.180   2.951   1.211
 2045WAT      O 6320   2.379   3.018   1.847
 2045WAT     H1 6321   2.363   2.924   1.843
 2045WAT     H2 6322   2.293   3.058   1.837
 2046WAT      O 6323   0.420   1.556   0.600
 2046WAT     H1 6324   0.474   1.500   0.656
 2046WAT     H2 6325   0.468   1.560   0.517
 2047WAT      O 6326   0.345   2.737   1.383
 2047WAT     H1 6327   0.295   2.730   1.464
 2047WAT     H2 6328   0.411   2.668   1.390
 2048WAT      O 6329   3.010   2.716   1.578
 2048WAT     H1 6330   3.100   2.723   1.609
 2048WAT     H2 6331   3.017   2.708   1.483
 2049WAT      O 6332   1.149   0.461   0.940
 2049WAT     H1 6333   1.220   0.435   0.999
 2049WAT     H2 6334   1.116   0.543   0.978
 2050WAT      O 6335   3.774   3.373   0.117
 2050WAT     H1 6336   3.712   3.425   0.065
 2050WAT     H2 6337   3.719   3.332   0.184
 2051WAT      O 6338   1.883   1.017   2.256
 2051WAT     H1 6339   1.823   0.990   2.326
 2051WAT     H2 6340   1.860   0.962   2.182
 2052WAT      O 6341   2.077   1.971   1.791
 2052WAT     H1 6342   2.154   1.915   1.793
 2052WAT     H2 6343   2.032   1.953   1.873
 2053WAT      O 6344   0.698   1.812   0.776
 2053WAT     H1 6345   0.634   1.827   0.845
 2053WAT     H2 6346   0.702   1.717   0.766
 2054WAT      O 6347   1.783   1.712   0.905
 2054WAT     H1 6348   1.841   1.645   0.868
 2054WAT     H2 6349   1.827   1.795   0.885
 2055WAT      O 6350   2.551   2.037   2.347
 2055WAT     H1 6351   2.617   1.982   2.388
 2055WAT     H2 6352   2.484   2.048   2.414
 2056WAT      O 6353   3.881   2.039   1.839
 2056WAT     H1 6354   3.837   2.090   1.770
 2056WAT     H2 6355   3.884   2.098   1.914
 2057WAT      O 6356   1.769   2.971   2.387
 2057WAT     H1 6357   1.715   2.898   2.356
 2057WAT     H2 6358   1.855   2.932   2.405
 2058WAT      O 6359   3.356   3.765   3.419
 2058WAT     H1 6360   3.442   3.744   3.456
 2058WAT     H2 6361   3.369   3.846   3.371
 2059WAT      O 6362   2.722   1.696   2.055
 2059WAT     H1 6363   2.637   1.737   2.039
 2059WAT     H2 6364   2.783   1.744   1.998
 2060WAT      O 6365   1.360   0.670   3.808
 2060WAT     H1 6366   1.329   0.628   3.729
 2060WAT     H2 6367   1.454   0.684   3.794
 2061WAT      O 6368   3.558   3.823   2.519
 2061WAT     H1 6369   3.585   3.753   2.578
 2061WAT     H2 6370   3.513   3.886   2.575
 2062WAT      O 6371   1.414   2.682   1.223
 2062WAT     H1 6372   1.493   2.736   1.231
 2062WAT     H2 6373   1.421   2.643   1.136
 2063WAT      O 6374   0.910   3.236   3.539
 2063WAT     H1 6375   0.932   3.231   3.632
 2063WAT     H2 6376   0.857   3.158   3.523
 2064WAT      O 6377   2.183   3.674   3.029
 2064WAT     H1 6378   2.154   3.623   2.953
 2064WAT     H2 6379   2.188   3.764   2.996
 2065WAT      O 6380   1.277   3.549   1.837
 2065WAT     H1 6381   1.313   3.493   1.769
 2065WAT     H2 6382   1.313   3.636   1.819
 2066WAT      O 6383   2.401   2.123   3.858
 2066WAT     H1 6384   2.409   2.028   3.866
 2066WAT     H2 6385   2.489   2.156   3.876
 2067WAT      O 6386   1.462   0.662   3.363
 2067WAT     H1 6387   1.506   0.593   3.413
 2067WAT     H2 6388   1.529   0.729   3.350
 2068WAT      O 6389   1.921   0.704   3.865
 2068WAT     H1 6390   1.870   0.659   3.932
 2068WAT     H2 6391   2.008   0.666   3.872
 2069WAT      O 6392   0.871   1.700   1.918
 2069WAT     H1 6393   0.846   1.656   1.837
 2069WAT     H2 6394   0.958   1.665   1.939
 2070WAT      O 6395   2.028   0.313   0.967
 2070WAT     H1 6396   2.062   0.399   0.991
 2070WAT     H2 6397   1.946   0.304   1.015
 2071WAT      O 6398   0.758   3.019   3.534
 2071WAT     H1 6399   0.798   2.958   3.596
 2071WAT     H2 6400   0.690   3.063   3.585
 2072WAT      O 6401   3.476   2.684   1.347
 2072WAT     H1 6402   3.387   2.670   1.314
 2072WAT     H2 6403   3.465   2.702   1.440
 2073WAT      O 6404   2.313   4.004   1.770
 2073WAT     H1 6405   2.345   3.947   1.840
 2073WAT     H2 6406   2.390   4.022   1.716
 2074WAT      O 6407   0.182   1.185   2.638
 2074WAT     H1 6408   0.096   1.154   2.667
 2074WAT     H2 6409   0.206   1.128   2.566
 2075WAT      O 6410   0.543   3.822   1.971
 2075WAT     H1 6411   0.549   3.875   1.892
 2075WAT     H2 6412   0.633   3.815   2.003
 2076WAT      O 6413   0.293   2.723   1.000
 2076WAT     H1 6414   0.241   2.790   1.045
 2076WAT     H2 6415   0.230   2.679   0.943
 2077WAT      O 6416   2.661   3.200   2.262
 2077WAT     H1 6417   2.635   3.289   2.287
 2077WAT     H2 6418   2.623   3.187   2.175
 2078WAT      O 6419   2.781   1.394   2.307
 2078WAT     H1 6420   2.757   1.486   2.318
 2078WAT     H2 6421   2.840   1.393   2.232
 2079WAT      O 6422   2.879   0.140   3.740
 2079WAT     H1 6423   2.793   0.167   3.771
 2079WAT     H2 6424   2.903   0.207   3.676
 2080WAT      O 6425   1.025   3.910   0.970
 2080WAT     H1 6426   1.036   3.871   1.057
 2080WAT     H2 6427   0.937   3.885   0.943
 2081WAT      O 6428   1.182   4.011   3.250
 2081WAT     H1 6429   1.184   4.005   3.155
 2081WAT     H2 6430   1.115   3.948   3.277
 2082WAT      O 6431   2.398   1.582   2.955
 2082WAT     H1 6432   2.315   1.585   3.002
 2082WAT     H2 6433   2.401   1.495   2.915
 2083WAT      O 6434   3.745   0.247   3.938
 2083WAT     H1 6435   3.801   0.303   3.885
 2083WAT     H2 6436   3.751   0.283   4.027
 2084WAT      O 6437   3.551   3.917   0.274
 2084WAT     H1 6438   3.579   3.991   0.221
 2084WAT     H2 6439   3.627   3.896   0.328
 2085WAT      O 6440   1.856   1.740   2.915
 2085WAT     H1 6441   1.765   1.758   2.937
 2085WAT     H2 6442   1.853   1.655   2.870
 2086WAT      O 6443   1.201   2.565   3.501
 2086WAT     H1 6444   1.130   2.553   3.564
 2086WAT     H2 6445   1.194   2.489   3.443
 2087WAT      O 6446   3.330   3.073   3.800
 2087WAT     H1 6447   3.402   3.030   3.845
 2087WAT     H2 6448   3.358   3.164   3.791
 2088WAT      O 6449   0.926   3.991   3.875
 2088WAT     H1 6450   1.009   3.993   3.828
 2088WAT     H2 6451   0.873   3.928   3.827
 2089WAT      O 6452   1.788   3.549   2.212
 2089WAT     H1 6453   1.738   3.495   2.274
 2089WAT     H2 6454   1.734   3.550   2.133
 2090WAT      O 6455   1.681   3.391   2.428
 2090WAT     H1 6456   1.688   3.455   2.499
 2090WAT     H2 6457   1.595   3.351   2.440
 2091WAT      O 6458   0.954   3.334   0.799
 2091WAT     H1 6459   0.911   3.310   0.881
 2091WAT     H2 6460   0.888   3.318   0.732
 2092WAT      O 6461   0.533   0.170   0.177
 2092WAT     H1 6462   0.587   0.230   0.229
 2092WAT     H2 6463   0.449   0.215   0.168
 2093WAT      O 6464   2.699   2.064   3.809
 2093WAT     H1 6465   2.664   1.986   3.851
 2093WAT     H2 6466   2.793   2.049   3.806
 2094WAT      O 6467   2.513   1.575   2.527
 2094WAT     H1 6468   2.563   1.568   2.446
 2094WAT     H2 6469   2.422   1.581   2.499
 2095WAT      O 6470   2.503   0.135   2.920
 2095WAT     H1 6471   2.447   0.189   2.977
 2095WAT     H2 6472   2.450   0.121   2.841
 2096WAT      O 6473   3.159   0.642   2.441
 2096WAT     H1 6474   3.107   0.565   2.466
 2096WAT     H2 6475   3.250   0.617   2.460
 2097WAT      O 6476   2.830   3.762   1.645
 2097WAT     H1 6477   2.853   3.841   1.597
 2097WAT     H2 6478   2.887   3.693   1.608
 2098WAT      O 6479   0.751   2.339   0.957
 2098WAT     H1 6480   0.776   2.378   0.874
 2098WAT     H2 6481   0.814   2.268   0.970
 2099WAT      O 6482   3.271   1.490   1.239
 2099WAT     H1 6483   3.207   1.555   1.267
 2099WAT     H2 6484   3.307   1.526   1.158
 2100WAT      O 6485   1.072   4.027   1.816
 2100WAT     H1 6486   1.031   3.990   1.738
 2100WAT     H2 6487   1.129   3.957   1.848
 2101WAT      O 6488   1.668   0.020   4.026
 2101WAT     H1 6489   1.708   0.038   3.941
 2101WAT     H2 6490   1.578  -0.003   4.006
 2102WAT      O 6491   1.463   2.555   3.645
 2102WAT     H1 6492   1.381   2.604   3.646
 2102WAT     H2 6493   1.461   2.506   3.563
 2103WAT      O 6494   1.630   3.273   1.320
 2103WAT     H1 6495   1.662   3.196   1.271
 2103WAT     H2 6496   1.657   3.257   1.410
 2104WAT      O 6497   2.772   3.444   1.892
 2104WAT     H1 6498   2.708   3.516   1.884
 2104WAT     H2 6499   2.769   3.400   1.807
 2105WAT      O 6500   2.015   2.845   2.360
 2105WAT     H1 6501   2.058   2.862   2.276
 2105WAT     H2 6502   2.087   2.849   2.424
 2106WAT      O 6503   0.834   1.045   3.927
 2106WAT     H1 6504   0.909   1.003   3.885
 2106WAT     H2 6505   0.759   0.991   3.901
 2107WAT      O 6506   3.848   3.622   2.431
 2107WAT     H1 6507   3.765   3.632   2.385
 2107WAT     H2 6508   3.847   3.532   2.463
 2108WAT      O 6509   0.811   3.020   0.106
 2108WAT     H1 6510   0.826   3.112   0.085
 2108WAT     H2 6511   0.789   3.019   0.199
 2109WAT      O 6512   3.479   2.830   3.950
 2109WAT     H1 6513   3.447   2.877   4.027
 2109WAT     H2 6514   3.574   2.832   3.959
 2110WAT      O 6515   0.392   0.623   1.764
 2110WAT     H1 6516   0.404   0.707   1.720
 2110WAT     H2 6517   0.356   0.646   1.850
 2111WAT      O 6518   1.393   1.589   1.764
 2111WAT     H1 6519   1.483   1.622   1.769
 2111WAT     H2 6520   1.403   1.495   1.752
   4.02731   4.02731   4.02731
