Generated with MDTraj, t= 40.0
 6520
    1MOL     C1    1   1.294   0.690   2.192
    1MOL     C2    2   1.427   0.703   2.154
    1MOL     C3    3   1.468   0.775   2.043
    1MOL     C4    4   1.367   0.814   1.957
    1MOL     C5    5   1.238   0.828   2.007
    1MOL     C6    6   1.198   0.761   2.121
    1MOL     C7    7   1.604   0.796   2.002
    1MOL     N1    8   1.714   0.815   1.976
    1MOL     C8    9   1.055   0.740   2.159
    1MOL     O1   10   1.025   0.721   2.275
    1MOL     O2   11   0.971   0.778   2.080
    1MOL     H1   12   1.266   0.620   2.270
    1MOL     H2   13   1.499   0.649   2.214
    1MOL     H3   14   1.388   0.862   1.862
    1MOL     H4   15   1.160   0.881   1.953
    2OCB     C1   16   1.905   2.627   2.125
    2OCB     C2   17   1.723   2.645   2.343
    2OCB     C3   18   1.934   2.696   2.242
    2OCB     C4   19   1.785   2.556   2.123
    2OCB     C5   20   1.698   2.569   2.230
    2OCB     C6   21   1.845   2.712   2.347
    2OCB     O1   22   1.650   2.629   2.458
    2OCB     C7   23   1.879   2.794   2.470
    2OCB     C8   24   1.700   2.538   2.558
    2OCB     O2   25   1.757   2.613   2.667
    2OCB     C9   26   1.893   2.629   2.662
    2OCB    C10   27   1.957   2.715   2.573
    2OCB    C11   28   2.094   2.702   2.558
    2OCB    C12   29   1.973   2.554   2.747
    2OCB    C13   30   2.174   2.613   2.628
    2OCB    C14   31   2.109   2.536   2.723
    2OCB     O3   32   2.175   2.438   2.792
    2OCB    C15   33   2.324   2.598   2.613
    2OCB    C16   34   2.362   2.489   2.515
    2OCB    C17   35   2.382   2.360   2.562
    2OCB    C18   36   2.199   2.319   2.714
    2OCB     O4   37   2.340   2.311   2.683
    2OCB     O5   38   1.751   2.472   2.020
    2OCB    C19   39   1.999   2.625   2.007
    2OCB    C20   40   2.100   2.513   2.023
    2OCB     O6   41   1.939   2.357   1.934
    2OCB    C21   42   2.060   2.384   1.992
    2OCB    C22   43   2.432   2.265   2.474
    2OCB    C23   44   2.464   2.291   2.342
    2OCB    C24   45   2.144   2.275   2.006
    2OCB    C25   46   2.274   2.295   2.050
    2OCB     O7   47   2.489   2.182   2.262
    2OCB     O8   48   2.356   2.187   2.065
    2OCB    C26   49   2.371   2.131   2.197
    2OCB    C27   50   2.229   2.529   2.071
    2OCB    C28   51   2.316   2.422   2.088
    2OCB    C29   52   2.391   2.516   2.382
    2OCB    C30   53   2.452   2.450   2.148
    2OCB    C31   54   2.441   2.420   2.296
    2OCB    C32   55   1.822   2.347   2.017
    2OCB    C33   56   2.401   2.729   2.589
    2OCB    C34   57   2.552   2.713   2.607
    2OCB    C35   58   2.618   2.848   2.595
    2OCB     O9   59   2.617   2.923   2.691
    2OCB    C36   60   1.940   2.930   2.433
    2OCB    C37   61   1.949   3.021   2.556
    2OCB    C38   62   2.002   3.156   2.513
    2OCB    O10   63   2.121   3.169   2.492
    2OCB    C39   64   2.057   2.761   1.964
    2OCB    C40   65   2.117   2.760   1.822
    2OCB    C41   66   2.029   2.716   1.708
    2OCB    O11   67   2.050   2.613   1.647
    2OCB    C42   68   2.528   2.578   2.110
    2OCB    C43   69   2.679   2.569   2.139
    2OCB    C44   70   2.762   2.652   2.045
    2OCB    O12   71   2.779   2.770   2.067
    2OCB    C45   72   1.593   2.443   2.609
    2OCB    C46   73   1.402   2.270   2.711
    2OCB    C47   74   1.586   2.417   2.745
    2OCB    C48   75   1.497   2.385   2.527
    2OCB    C49   76   1.399   2.299   2.576
    2OCB    C50   77   1.495   2.327   2.797
    2OCB    C51   78   1.734   2.232   1.973
    2OCB    C52   79   1.598   1.989   1.932
    2OCB    C53   80   1.796   2.121   1.917
    2OCB    C54   81   1.603   2.215   2.018
    2OCB    C55   82   1.537   2.094   2.000
    2OCB    C56   83   1.731   2.001   1.894
    2OCB    C57   84   2.366   1.980   2.186
    2OCB    C58   85   2.331   1.699   2.192
    2OCB    C59   86   2.407   1.909   2.297
    2OCB    C60   87   2.301   1.914   2.082
    2OCB    C61   88   2.279   1.777   2.090
    2OCB    C62   89   2.386   1.771   2.297
    2OCB    C63   90   2.143   2.197   2.784
    2OCB    C64   91   2.016   1.973   2.901
    2OCB    C65   92   2.155   2.070   2.729
    2OCB    C66   93   2.064   2.209   2.897
    2OCB    C67   94   1.996   2.101   2.950
    2OCB    C68   95   2.090   1.961   2.784
    2OCB    O13   96   1.411   2.082   2.053
    2OCB    O14   97   2.214   1.706   1.993
    2OCB    O15   98   2.435   1.693   2.399
    2OCB    O16   99   1.310   2.234   2.495
    2OCB    O17  100   1.487   2.290   2.929
    2OCB    O18  101   2.112   1.834   2.737
    2OCB    O19  102   1.915   2.114   3.061
    2OCB    C69  103   2.132   1.764   1.899
    2OCB    C70  104   1.983   1.912   1.718
    2OCB    C71  105   2.002   1.798   1.933
    2OCB    C72  106   2.184   1.802   1.777
    2OCB    C73  107   2.111   1.872   1.682
    2OCB    C74  108   1.928   1.866   1.837
    2OCB    O20  109   1.793   1.887   1.850
    2OCB    C75  110   1.292   2.246   2.359
    2OCB    C76  111   1.294   2.280   2.087
    2OCB    C77  112   1.233   2.356   2.299
    2OCB    C78  113   1.351   2.148   2.280
    2OCB    C79  114   1.351   2.166   2.142
    2OCB    C80  115   1.225   2.375   2.162
    2OCB    C81  116   2.392   1.731   2.524
    2OCB    C82  117   2.335   1.802   2.783
    2OCB    C83  118   2.491   1.753   2.618
    2OCB    C84  119   2.260   1.751   2.559
    2OCB    C85  120   2.233   1.789   2.690
    2OCB    C86  121   2.468   1.779   2.752
    2OCB    C87  122   2.582   1.805   2.845
    2OCB    O21  123   2.696   1.809   2.805
    2OCB    C88  124   1.751   2.517   3.272
    2OCB    O22  125   1.656   2.572   3.322
    2OCB    C89  126   1.163   2.496   2.102
    2OCB    O23  127   1.182   2.519   1.985
    2OCB    O24  128   2.701   2.875   2.511
    2OCB    O25  129   2.821   2.597   1.955
    2OCB    O26  130   1.951   2.798   1.662
    2OCB    C90  131   2.167   1.908   1.549
    2OCB    O27  132   2.094   1.952   1.462
    2OCB    O28  133   1.861   2.543   3.316
    2OCB    O29  134   2.566   1.825   2.963
    2OCB    O30  135   2.283   1.892   1.517
    2OCB    O31  136   1.095   2.572   2.168
    2OCB    O32  137   1.929   3.232   2.453
    2OCB    C91  138   1.596   2.299   3.011
    2OCB    C92  139   1.837   2.315   3.152
    2OCB    C93  140   1.694   2.201   3.001
    2OCB    C94  141   1.617   2.403   3.101
    2OCB    C95  142   1.736   2.408   3.171
    2OCB    C96  143   1.818   2.211   3.062
    2OCB    C97  144   1.673   2.084   2.908
    2OCB    C98  145   1.415   2.023   2.334
    2OCB    C99  146   1.951   1.769   2.072
    2OCB      C  147   2.147   1.736   2.459
    2OCB     H1  148   2.030   2.745   2.256
    2OCB     H2  149   1.610   2.505   2.234
    2OCB     H3  150   1.787   2.821   2.523
    2OCB     H4  151   1.778   2.470   2.521
    2OCB     H5  152   2.146   2.749   2.475
    2OCB     H6  153   1.931   2.481   2.816
    2OCB     H7  154   2.355   2.575   2.715
    2OCB     H8  155   2.148   2.337   2.618
    2OCB     H9  156   1.945   2.600   1.916
    2OCB    H10  157   2.439   2.163   2.510
    2OCB    H11  158   2.108   2.178   1.972
    2OCB    H12  159   2.278   2.159   2.249
    2OCB    H13  160   2.256   2.631   2.098
    2OCB    H14  161   2.381   2.619   2.347
    2OCB    H15  162   2.510   2.368   2.105
    2OCB    H16  163   1.845   2.329   2.123
    2OCB    H17  164   2.363   2.768   2.494
    2OCB    H18  165   2.365   2.811   2.651
    2OCB    H19  166   2.574   2.668   2.704
    2OCB    H20  167   2.586   2.654   2.521
    2OCB    H21  168   1.874   2.974   2.358
    2OCB    H22  169   2.039   2.919   2.390
    2OCB    H23  170   1.854   3.036   2.607
    2OCB    H24  171   2.024   2.987   2.628
    2OCB    H25  172   1.980   2.837   1.974
    2OCB    H26  173   2.143   2.795   2.022
    2OCB    H27  174   2.148   2.862   1.797
    2OCB    H28  175   2.204   2.694   1.816
    2OCB    H29  176   2.522   2.587   2.001
    2OCB    H30  177   2.485   2.664   2.161
    2OCB    H31  178   2.699   2.600   2.242
    2OCB    H32  179   2.715   2.468   2.118
    2OCB    H33  180   1.329   2.200   2.752
    2OCB    H34  181   1.671   2.453   2.803
    2OCB    H35  182   1.497   2.406   2.421
    2OCB    H36  183   1.534   1.903   1.917
    2OCB    H37  184   1.902   2.128   1.893
    2OCB    H38  185   1.541   2.297   2.052
    2OCB    H39  186   2.318   1.591   2.194
    2OCB    H40  187   2.459   1.963   2.375
    2OCB    H41  188   2.274   1.973   1.995
    2OCB    H42  189   1.969   1.888   2.950
    2OCB    H43  190   2.210   2.061   2.636
    2OCB    H44  191   2.058   2.304   2.950
    2OCB    H45  192   1.924   1.960   1.641
    2OCB    H46  193   2.287   1.781   1.751
    2OCB    H47  194   1.297   2.283   1.978
    2OCB    H48  195   1.191   2.430   2.366
    2OCB    H49  196   2.311   1.835   2.884
    2OCB    H50  197   2.595   1.738   2.590
    2OCB    H51  198   1.929   2.314   3.211
    2OCB    H52  199   1.539   2.478   3.112
    2OCB    H53  200   1.708   1.994   2.958
    2OCB    H54  201   1.565   2.068   2.894
    2OCB    H55  202   1.732   2.098   2.817
    2OCB    H56  203   1.354   1.933   2.346
    2OCB    H57  204   1.493   1.995   2.264
    2OCB    H58  205   1.454   2.043   2.434
    2OCB    H59  206   1.945   1.863   2.128
    2OCB    H60  207   1.849   1.732   2.080
    2OCB    H61  208   2.018   1.707   2.132
    2OCB    H62  209   2.053   1.719   2.512
    2OCB    H63  210   2.130   1.830   2.407
    2OCB    H64  211   2.162   1.659   2.383
    3Na+    Na+  212   3.012   1.287   1.800
    4Na+    Na+  213   3.559   2.170   2.782
    5Na+    Na+  214   2.350   0.753   2.195
    6Na+    Na+  215   0.720   2.104   2.123
    7Na+    Na+  216   0.906   3.013   0.760
    8Na+    Na+  217   1.428   2.753   1.082
    9Na+    Na+  218   0.154   0.362   0.242
   10Na+    Na+  219   2.858   2.056   3.639
   11Na+    Na+  220   2.754   3.083   2.612
   12HOH      O  221   3.594   3.345   1.183
   12HOH     H1  222   3.570   3.307   1.268
   12HOH     H2  223   3.545   3.427   1.179
   13HOH      O  224   2.378   3.310   1.386
   13HOH     H1  225   2.318   3.312   1.460
   13HOH     H2  226   2.321   3.304   1.309
   14HOH      O  227   1.246   2.930   0.113
   14HOH     H1  228   1.193   3.008   0.134
   14HOH     H2  229   1.191   2.880   0.053
   15HOH      O  230   3.082   1.135   3.632
   15HOH     H1  231   3.084   1.222   3.673
   15HOH     H2  232   3.065   1.153   3.539
   16HOH      O  233   2.298   1.191   3.911
   16HOH     H1  234   2.215   1.202   3.957
   16HOH     H2  235   2.365   1.207   3.977
   17HOH      O  236   3.937   3.811   0.492
   17HOH     H1  237   4.020   3.848   0.464
   17HOH     H2  238   3.944   3.718   0.469
   18HOH      O  239   2.634   2.915   2.268
   18HOH     H1  240   2.673   2.910   2.355
   18HOH     H2  241   2.694   2.867   2.212
   19HOH      O  242   3.762   1.783   2.038
   19HOH     H1  243   3.696   1.715   2.022
   19HOH     H2  244   3.712   1.857   2.072
   20HOH      O  245   3.230   3.246   3.963
   20HOH     H1  246   3.250   3.157   3.990
   20HOH     H2  247   3.141   3.241   3.926
   21HOH      O  248   2.524   2.403   1.459
   21HOH     H1  249   2.456   2.337   1.443
   21HOH     H2  250   2.485   2.464   1.521
   22HOH      O  251   2.643   1.527   2.402
   22HOH     H1  252   2.570   1.584   2.426
   22HOH     H2  253   2.611   1.478   2.325
   23HOH      O  254   4.013   2.675   0.605
   23HOH     H1  255   4.011   2.707   0.515
   23HOH     H2  256   4.073   2.735   0.650
   24HOH      O  257   0.511   1.172   0.416
   24HOH     H1  258   0.418   1.160   0.433
   24HOH     H2  259   0.527   1.127   0.333
   25HOH      O  260   0.746   0.887   1.882
   25HOH     H1  261   0.826   0.857   1.838
   25HOH     H2  262   0.751   0.850   1.970
   26HOH      O  263   1.464   0.674   2.738
   26HOH     H1  264   1.388   0.703   2.787
   26HOH     H2  265   1.515   0.623   2.801
   27HOH      O  266   1.987   0.345   2.476
   27HOH     H1  267   1.953   0.314   2.560
   27HOH     H2  268   1.979   0.440   2.480
   28HOH      O  269   2.967   2.403   3.905
   28HOH     H1  270   2.900   2.471   3.911
   28HOH     H2  271   2.963   2.374   3.814
   29HOH      O  272   0.594   2.215   3.374
   29HOH     H1  273   0.567   2.136   3.328
   29HOH     H2  274   0.586   2.193   3.466
   30HOH      O  275   1.888   3.489   1.040
   30HOH     H1  276   1.967   3.441   1.015
   30HOH     H2  277   1.816   3.436   1.006
   31HOH      O  278   3.331   1.553   0.289
   31HOH     H1  279   3.427   1.546   0.284
   31HOH     H2  280   3.315   1.586   0.377
   32HOH      O  281   0.746   1.446   0.206
   32HOH     H1  282   0.679   1.469   0.270
   32HOH     H2  283   0.759   1.526   0.156
   33HOH      O  284   2.348   0.833   3.553
   33HOH     H1  285   2.355   0.881   3.636
   33HOH     H2  286   2.438   0.804   3.535
   34HOH      O  287   2.270   0.360   1.540
   34HOH     H1  288   2.190   0.366   1.592
   34HOH     H2  289   2.249   0.297   1.470
   35HOH      O  290   3.841   2.082   3.500
   35HOH     H1  291   3.788   2.149   3.543
   35HOH     H2  292   3.863   2.021   3.570
   36HOH      O  293   3.204   3.555   3.269
   36HOH     H1  294   3.297   3.543   3.286
   36HOH     H2  295   3.191   3.650   3.268
   37HOH      O  296   0.983   2.279   2.814
   37HOH     H1  297   1.048   2.254   2.881
   37HOH     H2  298   0.902   2.238   2.843
   38HOH      O  299   0.079   2.957   3.151
   38HOH     H1  300   0.010   2.895   3.176
   38HOH     H2  301   0.124   2.914   3.079
   39HOH      O  302   3.337   2.959   1.719
   39HOH     H1  303   3.401   2.965   1.649
   39HOH     H2  304   3.265   3.016   1.691
   40HOH      O  305   2.793   3.337   3.516
   40HOH     H1  306   2.740   3.257   3.512
   40HOH     H2  307   2.867   3.320   3.458
   41HOH      O  308   1.232   0.389   0.726
   41HOH     H1  309   1.218   0.478   0.759
   41HOH     H2  310   1.166   0.377   0.659
   42HOH      O  311   3.661   2.721   1.306
   42HOH     H1  312   3.707   2.651   1.260
   42HOH     H2  313   3.637   2.683   1.391
   43HOH      O  314   1.763   0.205   0.496
   43HOH     H1  315   1.744   0.273   0.561
   43HOH     H2  316   1.739   0.244   0.412
   44HOH      O  317   2.595   1.913   3.347
   44HOH     H1  318   2.517   1.876   3.307
   44HOH     H2  319   2.575   2.006   3.357
   45HOH      O  320   0.387   2.492   1.173
   45HOH     H1  321   0.472   2.458   1.201
   45HOH     H2  322   0.354   2.538   1.250
   46HOH      O  323   1.425   1.391   3.108
   46HOH     H1  324   1.440   1.378   3.202
   46HOH     H2  325   1.335   1.362   3.094
   47HOH      O  326   0.557   2.744   0.662
   47HOH     H1  327   0.486   2.709   0.715
   47HOH     H2  328   0.543   2.708   0.575
   48HOH      O  329   2.255   2.681   2.968
   48HOH     H1  330   2.225   2.644   3.051
   48HOH     H2  331   2.175   2.689   2.915
   49HOH      O  332   3.128   0.148   0.713
   49HOH     H1  333   3.116   0.200   0.793
   49HOH     H2  334   3.051   0.167   0.660
   50HOH      O  335   0.057   3.575   0.305
   50HOH     H1  336   0.031   3.512   0.239
   50HOH     H2  337   0.018   3.543   0.386
   51HOH      O  338   0.593   0.203   1.015
   51HOH     H1  339   0.575   0.156   1.096
   51HOH     H2  340   0.552   0.289   1.027
   52HOH      O  341   3.956   3.526   0.826
   52HOH     H1  342   3.996   3.458   0.881
   52HOH     H2  343   4.022   3.595   0.822
   53HOH      O  344   2.253   3.620   0.847
   53HOH     H1  345   2.291   3.541   0.885
   53HOH     H2  346   2.323   3.658   0.794
   54HOH      O  347   0.832   3.025   2.532
   54HOH     H1  348   0.856   2.943   2.574
   54HOH     H2  349   0.896   3.036   2.461
   55HOH      O  350   2.297   2.227   3.786
   55HOH     H1  351   2.332   2.301   3.836
   55HOH     H2  352   2.361   2.212   3.717
   56HOH      O  353   3.154   3.563   0.046
   56HOH     H1  354   3.115   3.520  -0.030
   56HOH     H2  355   3.248   3.552   0.036
   57HOH      O  356   1.344   1.404   0.739
   57HOH     H1  357   1.368   1.312   0.733
   57HOH     H2  358   1.288   1.419   0.663
   58HOH      O  359   0.060   3.564   1.478
   58HOH     H1  360   0.000   3.521   1.539
   58HOH     H2  361   0.146   3.528   1.500
   59HOH      O  362   2.507   0.250   3.383
   59HOH     H1  363   2.438   0.309   3.354
   59HOH     H2  364   2.466   0.163   3.384
   60HOH      O  365   1.793   2.812   0.008
   60HOH     H1  366   1.713   2.792   0.057
   60HOH     H2  367   1.845   2.732   0.013
   61HOH      O  368   0.113   2.561   3.649
   61HOH     H1  369   0.156   2.550   3.564
   61HOH     H2  370   0.032   2.512   3.641
   62HOH      O  371   3.924   1.279   0.180
   62HOH     H1  372   3.984   1.349   0.154
   62HOH     H2  373   3.920   1.285   0.275
   63HOH      O  374   2.449   0.649   0.213
   63HOH     H1  375   2.396   0.625   0.289
   63HOH     H2  376   2.521   0.585   0.214
   64HOH      O  377   3.380   2.152   0.030
   64HOH     H1  378   3.296   2.129  -0.010
   64HOH     H2  379   3.380   2.107   0.114
   65HOH      O  380   1.327   1.321   0.027
   65HOH     H1  381   1.421   1.328   0.010
   65HOH     H2  382   1.307   1.229   0.008
   66HOH      O  383   0.761   2.283   1.971
   66HOH     H1  384   0.808   2.365   1.989
   66HOH     H2  385   0.685   2.311   1.920
   67HOH      O  386   1.386   3.145   1.229
   67HOH     H1  387   1.453   3.210   1.246
   67HOH     H2  388   1.332   3.144   1.308
   68HOH      O  389   2.730   3.080   0.008
   68HOH     H1  390   2.653   3.135   0.022
   68HOH     H2  391   2.705   3.022  -0.063
   69HOH      O  392   0.542   0.248   1.480
   69HOH     H1  393   0.514   0.213   1.565
   69HOH     H2  394   0.633   0.276   1.495
   70HOH      O  395   1.940   3.710   1.263
   70HOH     H1  396   1.986   3.665   1.192
   70HOH     H2  397   1.904   3.640   1.317
   71HOH      O  398   1.028   0.351   0.561
   71HOH     H1  399   0.956   0.402   0.598
   71HOH     H2  400   0.988   0.269   0.534
   72HOH      O  401   2.511   1.780   1.546
   72HOH     H1  402   2.479   1.695   1.575
   72HOH     H2  403   2.433   1.831   1.528
   73HOH      O  404   1.412   0.187   3.889
   73HOH     H1  405   1.392   0.132   3.813
   73HOH     H2  406   1.494   0.230   3.867
   74HOH      O  407   3.705   3.503   2.148
   74HOH     H1  408   3.745   3.531   2.230
   74HOH     H2  409   3.623   3.552   2.143
   75HOH      O  410   3.706   1.415   2.438
   75HOH     H1  411   3.767   1.488   2.444
   75HOH     H2  412   3.684   1.395   2.529
   76HOH      O  413   3.805   3.699   3.294
   76HOH     H1  414   3.827   3.610   3.321
   76HOH     H2  415   3.718   3.715   3.332
   77HOH      O  416   2.579   3.713   3.370
   77HOH     H1  417   2.604   3.803   3.390
   77HOH     H2  418   2.662   3.665   3.368
   78HOH      O  419   0.935   1.069   2.054
   78HOH     H1  420   1.012   1.108   2.094
   78HOH     H2  421   0.952   0.974   2.056
   79HOH      O  422   3.660   2.564   0.145
   79HOH     H1  423   3.638   2.548   0.236
   79HOH     H2  424   3.698   2.652   0.144
   80HOH      O  425   0.212   0.112   3.786
   80HOH     H1  426   0.205   0.019   3.767
   80HOH     H2  427   0.302   0.123   3.816
   81HOH      O  428   3.826   1.806   1.759
   81HOH     H1  429   3.919   1.818   1.778
   81HOH     H2  430   3.789   1.769   1.839
   82HOH      O  431   3.621   0.085   1.394
   82HOH     H1  432   3.578   0.157   1.441
   82HOH     H2  433   3.640   0.020   1.462
   83HOH      O  434   0.984   3.268   2.037
   83HOH     H1  435   0.953   3.199   1.978
   83HOH     H2  436   0.987   3.346   1.982
   84HOH      O  437   0.767   1.530   3.665
   84HOH     H1  438   0.863   1.533   3.664
   84HOH     H2  439   0.741   1.615   3.629
   85HOH      O  440   0.536   0.111   2.842
   85HOH     H1  441   0.618   0.072   2.811
   85HOH     H2  442   0.476   0.101   2.768
   86HOH      O  443   3.920   1.039   0.029
   86HOH     H1  444   4.007   1.003   0.016
   86HOH     H2  445   3.935   1.127   0.064
   87HOH      O  446   2.619   3.079   3.619
   87HOH     H1  447   2.635   3.001   3.565
   87HOH     H2  448   2.578   3.044   3.699
   88HOH      O  449   2.050   1.843   0.849
   88HOH     H1  450   1.973   1.898   0.865
   88HOH     H2  451   2.038   1.810   0.760
   89HOH      O  452   1.950   3.235   3.611
   89HOH     H1  453   2.018   3.293   3.577
   89HOH     H2  454   1.903   3.288   3.676
   90HOH      O  455   0.872   3.336   1.667
   90HOH     H1  456   0.811   3.262   1.666
   90HOH     H2  457   0.826   3.404   1.717
   91HOH      O  458   2.094   3.492   0.634
   91HOH     H1  459   2.100   3.399   0.653
   91HOH     H2  460   2.135   3.535   0.709
   92HOH      O  461   0.996   1.667   0.490
   92HOH     H1  462   0.914   1.633   0.525
   92HOH     H2  463   0.984   1.666   0.395
   93HOH      O  464   0.928   0.550   1.287
   93HOH     H1  465   0.948   0.532   1.379
   93HOH     H2  466   0.961   0.473   1.240
   94HOH      O  467   1.553   3.491   3.402
   94HOH     H1  468   1.488   3.422   3.390
   94HOH     H2  469   1.636   3.444   3.413
   95HOH      O  470   1.445   2.069   0.382
   95HOH     H1  471   1.352   2.091   0.378
   95HOH     H2  472   1.487   2.147   0.418
   96HOH      O  473   1.142   0.933   2.515
   96HOH     H1  474   1.127   0.839   2.502
   96HOH     H2  475   1.195   0.937   2.595
   97HOH      O  476   0.200   2.144   0.289
   97HOH     H1  477   0.204   2.068   0.232
   97HOH     H2  478   0.226   2.111   0.375
   98HOH      O  479   0.378   0.483   3.289
   98HOH     H1  480   0.362   0.398   3.330
   98HOH     H2  481   0.360   0.547   3.358
   99HOH      O  482   1.456   2.480   3.756
   99HOH     H1  483   1.419   2.566   3.779
   99HOH     H2  484   1.546   2.484   3.788
  100HOH      O  485   3.809   1.136   3.746
  100HOH     H1  486   3.730   1.175   3.781
  100HOH     H2  487   3.854   1.099   3.822
  101HOH      O  488   0.650   2.949   2.135
  101HOH     H1  489   0.657   3.041   2.158
  101HOH     H2  490   0.737   2.924   2.106
  102HOH      O  491   3.075   2.697   3.164
  102HOH     H1  492   3.012   2.712   3.095
  102HOH     H2  493   3.160   2.713   3.123
  103HOH      O  494   0.067   1.342   3.900
  103HOH     H1  495  -0.018   1.352   3.940
  103HOH     H2  496   0.109   1.428   3.910
  104HOH      O  497   2.975   2.101   0.086
  104HOH     H1  498   2.959   2.073   0.176
  104HOH     H2  499   3.036   2.174   0.094
  105HOH      O  500   0.851   0.898   0.777
  105HOH     H1  501   0.822   0.941   0.857
  105HOH     H2  502   0.792   0.932   0.709
  106HOH      O  503   3.503   0.016   3.900
  106HOH     H1  504   3.553  -0.009   3.822
  106HOH     H2  505   3.557   0.085   3.941
  107HOH      O  506   0.423   2.831   3.215
  107HOH     H1  507   0.392   2.816   3.305
  107HOH     H2  508   0.390   2.917   3.192
  108HOH      O  509   0.939   1.253   1.096
  108HOH     H1  510   0.997   1.294   1.160
  108HOH     H2  511   0.851   1.265   1.131
  109HOH      O  512   2.332   3.977   1.562
  109HOH     H1  513   2.360   3.934   1.481
  109HOH     H2  514   2.245   4.012   1.541
  110HOH      O  515   2.384   0.971   2.847
  110HOH     H1  516   2.314   0.924   2.802
  110HOH     H2  517   2.341   1.047   2.886
  111HOH      O  518   3.333   3.384   0.718
  111HOH     H1  519   3.336   3.323   0.791
  111HOH     H2  520   3.258   3.355   0.666
  112HOH      O  521   0.157   2.163   3.317
  112HOH     H1  522   0.239   2.213   3.308
  112HOH     H2  523   0.090   2.230   3.330
  113HOH      O  524   1.436   3.873   3.617
  113HOH     H1  525   1.446   3.858   3.711
  113HOH     H2  526   1.525   3.881   3.585
  114HOH      O  527   1.396   2.752   2.256
  114HOH     H1  528   1.437   2.717   2.335
  114HOH     H2  529   1.467   2.798   2.211
  115HOH      O  530   1.904   2.900   1.441
  115HOH     H1  531   1.930   2.852   1.519
  115HOH     H2  532   1.964   2.975   1.438
  116HOH      O  533   2.358   2.801   3.611
  116HOH     H1  534   2.301   2.860   3.660
  116HOH     H2  535   2.357   2.720   3.661
  117HOH      O  536   0.564   2.960   2.436
  117HOH     H1  537   0.587   2.946   2.344
  117HOH     H2  538   0.647   2.950   2.482
  118HOH      O  539   1.624   1.811   0.634
  118HOH     H1  540   1.671   1.739   0.676
  118HOH     H2  541   1.639   1.797   0.540
  119HOH      O  542   3.501   2.469   2.210
  119HOH     H1  543   3.529   2.559   2.197
  119HOH     H2  544   3.461   2.444   2.126
  120HOH      O  545   3.203   0.390   3.343
  120HOH     H1  546   3.279   0.445   3.324
  120HOH     H2  547   3.133   0.427   3.288
  121HOH      O  548   2.939   2.533   0.632
  121HOH     H1  549   3.015   2.480   0.654
  121HOH     H2  550   2.904   2.493   0.552
  122HOH      O  551   2.277   1.578   3.104
  122HOH     H1  552   2.224   1.560   3.182
  122HOH     H2  553   2.220   1.555   3.030
  123HOH      O  554   1.665   2.766   2.864
  123HOH     H1  555   1.737   2.770   2.926
  123HOH     H2  556   1.692   2.700   2.800
  124HOH      O  557   2.378   0.188   1.778
  124HOH     H1  558   2.286   0.212   1.772
  124HOH     H2  559   2.418   0.227   1.700
  125HOH      O  560   3.615   2.890   3.964
  125HOH     H1  561   3.551   2.955   3.994
  125HOH     H2  562   3.599   2.882   3.870
  126HOH      O  563   0.862   1.216   1.674
  126HOH     H1  564   0.894   1.269   1.747
  126HOH     H2  565   0.931   1.222   1.608
  127HOH      O  566   1.627   3.217   2.778
  127HOH     H1  567   1.537   3.248   2.774
  127HOH     H2  568   1.665   3.244   2.694
  128HOH      O  569   1.853   1.845   1.369
  128HOH     H1  570   1.928   1.893   1.404
  128HOH     H2  571   1.879   1.821   1.280
  129HOH      O  572   1.078   3.143   1.777
  129HOH     H1  573   1.050   3.230   1.747
  129HOH     H2  574   1.160   3.160   1.824
  130HOH      O  575   2.028   0.147   2.996
  130HOH     H1  576   1.996   0.070   3.042
  130HOH     H2  577   2.123   0.144   3.007
  131HOH      O  578   2.903   1.144   2.319
  131HOH     H1  579   2.873   1.100   2.398
  131HOH     H2  580   2.938   1.074   2.265
  132HOH      O  581   1.756   0.517   2.883
  132HOH     H1  582   1.763   0.608   2.913
  132HOH     H2  583   1.783   0.465   2.960
  133HOH      O  584   0.769   2.486   0.730
  133HOH     H1  585   0.852   2.499   0.776
  133HOH     H2  586   0.787   2.513   0.640
  134HOH      O  587   0.373   3.289   2.553
  134HOH     H1  588   0.401   3.211   2.600
  134HOH     H2  589   0.277   3.290   2.564
  135HOH      O  590   1.740   3.247   0.926
  135HOH     H1  591   1.699   3.313   0.870
  135HOH     H2  592   1.754   3.172   0.868
  136HOH      O  593   0.344   3.850   0.857
  136HOH     H1  594   0.374   3.792   0.927
  136HOH     H2  595   0.423   3.891   0.823
  137HOH      O  596   3.542   2.503   3.271
  137HOH     H1  597   3.548   2.419   3.226
  137HOH     H2  598   3.492   2.485   3.350
  138HOH      O  599   3.560   0.855   3.306
  138HOH     H1  600   3.524   0.944   3.309
  138HOH     H2  601   3.654   0.867   3.297
  139HOH      O  602   3.636   3.736   1.582
  139HOH     H1  603   3.542   3.729   1.595
  139HOH     H2  604   3.651   3.704   1.493
  140HOH      O  605   2.637   2.167   2.711
  140HOH     H1  606   2.578   2.142   2.782
  140HOH     H2  607   2.682   2.086   2.687
  141HOH      O  608   1.057   1.691   1.898
  141HOH     H1  609   1.050   1.727   1.987
  141HOH     H2  610   1.143   1.721   1.867
  142HOH      O  611   3.102   3.021   1.531
  142HOH     H1  612   3.112   2.950   1.468
  142HOH     H2  613   3.032   2.992   1.590
  143HOH      O  614   1.970   0.271   3.893
  143HOH     H1  615   2.056   0.294   3.928
  143HOH     H2  616   1.937   0.351   3.854
  144HOH      O  617   3.851   0.202   3.582
  144HOH     H1  618   3.885   0.289   3.566
  144HOH     H2  619   3.881   0.150   3.507
  145HOH      O  620   1.905   1.010   2.009
  145HOH     H1  621   1.839   0.942   2.000
  145HOH     H2  622   1.986   0.969   1.979
  146HOH      O  623   3.907   0.106   2.308
  146HOH     H1  624   3.896   0.125   2.215
  146HOH     H2  625   3.841   0.160   2.351
  147HOH      O  626   2.075   0.410   2.942
  147HOH     H1  627   2.149   0.402   3.003
  147HOH     H2  628   2.035   0.323   2.942
  148HOH      O  629   3.877   3.270   2.788
  148HOH     H1  630   3.869   3.177   2.809
  148HOH     H2  631   3.969   3.290   2.808
  149HOH      O  632   0.681   1.807   0.690
  149HOH     H1  633   0.734   1.729   0.674
  149HOH     H2  634   0.595   1.784   0.655
  150HOH      O  635   2.632   2.520   1.017
  150HOH     H1  636   2.667   2.553   1.100
  150HOH     H2  637   2.554   2.470   1.042
  151HOH      O  638   2.886   3.879   0.965
  151HOH     H1  639   2.981   3.883   0.975
  151HOH     H2  640   2.872   3.828   0.885
  152HOH      O  641   1.066   3.075   3.853
  152HOH     H1  642   1.005   3.020   3.904
  152HOH     H2  643   1.062   3.160   3.895
  153HOH      O  644   2.570   1.056   1.209
  153HOH     H1  645   2.501   1.014   1.158
  153HOH     H2  646   2.524   1.120   1.263
  154HOH      O  647   3.054   3.212   2.305
  154HOH     H1  648   3.082   3.302   2.290
  154HOH     H2  649   3.073   3.167   2.223
  155HOH      O  650   1.814   3.267   3.085
  155HOH     H1  651   1.765   3.200   3.038
  155HOH     H2  652   1.749   3.309   3.142
  156HOH      O  653   2.503   0.598   1.761
  156HOH     H1  654   2.581   0.554   1.726
  156HOH     H2  655   2.471   0.539   1.829
  157HOH      O  656   0.745   3.963   1.340
  157HOH     H1  657   0.744   3.938   1.433
  157HOH     H2  658   0.833   3.940   1.310
  158HOH      O  659   1.698   3.813   1.819
  158HOH     H1  660   1.695   3.730   1.866
  158HOH     H2  661   1.717   3.789   1.728
  159HOH      O  662   3.509   1.169   3.642
  159HOH     H1  663   3.499   1.152   3.548
  159HOH     H2  664   3.449   1.108   3.684
  160HOH      O  665   1.340   0.390   1.448
  160HOH     H1  666   1.355   0.296   1.458
  160HOH     H2  667   1.371   0.428   1.530
  161HOH      O  668   0.641   3.509   3.876
  161HOH     H1  669   0.621   3.580   3.816
  161HOH     H2  670   0.733   3.487   3.857
  162HOH      O  671   0.953   1.160   0.466
  162HOH     H1  672   0.993   1.085   0.423
  162HOH     H2  673   0.978   1.152   0.558
  163HOH      O  674   3.314   0.373   1.255
  163HOH     H1  675   3.386   0.373   1.192
  163HOH     H2  676   3.353   0.407   1.335
  164HOH      O  677   3.456   1.356   1.781
  164HOH     H1  678   3.523   1.315   1.727
  164HOH     H2  679   3.475   1.327   1.870
  165HOH      O  680   0.539   1.783   0.248
  165HOH     H1  681   0.545   1.834   0.329
  165HOH     H2  682   0.535   1.692   0.278
  166HOH      O  683   2.134   2.686   3.859
  166HOH     H1  684   2.230   2.683   3.865
  166HOH     H2  685   2.104   2.682   3.949
  167HOH      O  686   3.641   2.847   2.669
  167HOH     H1  687   3.708   2.860   2.602
  167HOH     H2  688   3.564   2.817   2.621
  168HOH      O  689   2.884   3.043   1.233
  168HOH     H1  690   2.892   2.981   1.306
  168HOH     H2  691   2.967   3.036   1.187
  169HOH      O  692   0.249   2.614   3.435
  169HOH     H1  693   0.214   2.703   3.423
  169HOH     H2  694   0.342   2.627   3.450
  170HOH      O  695   0.620   3.912   3.381
  170HOH     H1  696   0.599   3.918   3.474
  170HOH     H2  697   0.660   3.997   3.361
  171HOH      O  698   0.746   2.735   0.318
  171HOH     H1  699   0.829   2.783   0.316
  171HOH     H2  700   0.680   2.801   0.296
  172HOH      O  701   3.263   0.901   4.013
  172HOH     H1  702   3.299   0.829   4.065
  172HOH     H2  703   3.307   0.892   3.928
  173HOH      O  704   3.114   0.995   0.924
  173HOH     H1  705   3.117   0.911   0.971
  173HOH     H2  706   3.026   0.998   0.887
  174HOH      O  707   0.150   0.151   0.940
  174HOH     H1  708   0.228   0.127   0.989
  174HOH     H2  709   0.077   0.129   0.999
  175HOH      O  710   0.918   3.810   0.425
  175HOH     H1  711   0.950   3.855   0.503
  175HOH     H2  712   0.902   3.721   0.455
  176HOH      O  713   3.349   0.370   4.012
  176HOH     H1  714   3.313   0.307   3.949
  176HOH     H2  715   3.278   0.384   4.074
  177HOH      O  716   1.479   3.281   3.094
  177HOH     H1  717   1.406   3.236   3.052
  177HOH     H2  718   1.465   3.268   3.188
  178HOH      O  719   0.539   0.084   1.268
  178HOH     H1  720   0.612   0.035   1.306
  178HOH     H2  721   0.520   0.152   1.333
  179HOH      O  722   3.499   3.227   1.410
  179HOH     H1  723   3.403   3.228   1.412
  179HOH     H2  724   3.524   3.247   1.500
  180HOH      O  725   0.824   2.540   2.194
  180HOH     H1  726   0.915   2.513   2.212
  180HOH     H2  727   0.772   2.489   2.256
  181HOH      O  728   0.509   2.688   3.489
  181HOH     H1  729   0.548   2.618   3.437
  181HOH     H2  730   0.566   2.763   3.474
  182HOH      O  731   0.591   3.082   0.432
  182HOH     H1  732   0.579   3.009   0.371
  182HOH     H2  733   0.596   3.159   0.375
  183HOH      O  734   2.918   1.815   2.413
  183HOH     H1  735   3.001   1.767   2.405
  183HOH     H2  736   2.856   1.767   2.359
  184HOH      O  737   0.728   0.459   1.575
  184HOH     H1  738   0.641   0.478   1.612
  184HOH     H2  739   0.779   0.538   1.594
  185HOH      O  740   0.220   3.532   1.859
  185HOH     H1  741   0.310   3.559   1.875
  185HOH     H2  742   0.179   3.531   1.946
  186HOH      O  743   3.620   0.772   2.150
  186HOH     H1  744   3.640   0.853   2.103
  186HOH     H2  745   3.540   0.740   2.110
  187HOH      O  746   3.130   1.792   2.866
  187HOH     H1  747   3.057   1.732   2.885
  187HOH     H2  748   3.088   1.870   2.831
  188HOH      O  749   0.630   0.580   0.282
  188HOH     H1  750   0.568   0.510   0.302
  188HOH     H2  751   0.681   0.590   0.363
  189HOH      O  752   3.243   0.812   1.483
  189HOH     H1  753   3.295   0.888   1.511
  189HOH     H2  754   3.251   0.813   1.388
  190HOH      O  755   0.836   1.196   2.688
  190HOH     H1  756   0.859   1.272   2.742
  190HOH     H2  757   0.911   1.185   2.629
  191HOH      O  758   0.853   3.670   2.003
  191HOH     H1  759   0.853   3.605   2.073
  191HOH     H2  760   0.765   3.706   2.004
  192HOH      O  761   2.918   1.383   3.748
  192HOH     H1  762   2.915   1.427   3.664
  192HOH     H2  763   2.832   1.341   3.758
  193HOH      O  764   1.767   0.756   3.300
  193HOH     H1  765   1.857   0.773   3.275
  193HOH     H2  766   1.772   0.678   3.356
  194HOH      O  767   1.439   1.091   1.604
  194HOH     H1  768   1.434   1.146   1.526
  194HOH     H2  769   1.499   1.138   1.662
  195HOH      O  770   2.125   1.835   0.278
  195HOH     H1  771   2.083   1.903   0.331
  195HOH     H2  772   2.084   1.754   0.307
  196HOH      O  773   0.455   0.087   3.888
  196HOH     H1  774   0.436   0.028   3.960
  196HOH     H2  775   0.541   0.060   3.857
  197HOH      O  776   2.738   1.975   1.734
  197HOH     H1  777   2.727   2.055   1.684
  197HOH     H2  778   2.813   1.993   1.792
  198HOH      O  779   1.081   0.703   0.966
  198HOH     H1  780   1.076   0.729   0.874
  198HOH     H2  781   1.004   0.744   1.006
  199HOH      O  782   2.657   3.677   2.422
  199HOH     H1  783   2.615   3.754   2.384
  199HOH     H2  784   2.594   3.606   2.410
  200HOH      O  785   3.111   1.120   1.940
  200HOH     H1  786   3.089   1.067   2.017
  200HOH     H2  787   3.159   1.195   1.976
  201HOH      O  788   0.671   1.014   0.212
  201HOH     H1  789   0.661   0.970   0.128
  201HOH     H2  790   0.754   1.062   0.205
  202HOH      O  791   1.508   2.067   3.610
  202HOH     H1  792   1.446   2.132   3.643
  202HOH     H2  793   1.533   2.100   3.524
  203HOH      O  794   3.865   0.153   0.497
  203HOH     H1  795   3.811   0.080   0.527
  203HOH     H2  796   3.809   0.201   0.436
  204HOH      O  797   0.704   0.370   2.170
  204HOH     H1  798   0.755   0.358   2.250
  204HOH     H2  799   0.720   0.461   2.144
  205HOH      O  800   3.806   2.364   1.856
  205HOH     H1  801   3.712   2.384   1.858
  205HOH     H2  802   3.811   2.275   1.823
  206HOH      O  803   3.598   0.669   2.397
  206HOH     H1  804   3.604   0.692   2.304
  206HOH     H2  805   3.688   0.647   2.421
  207HOH      O  806   0.565   1.804   3.780
  207HOH     H1  807   0.591   1.791   3.689
  207HOH     H2  808   0.482   1.850   3.775
  208HOH      O  809   2.504   1.878   0.617
  208HOH     H1  810   2.551   1.935   0.556
  208HOH     H2  811   2.456   1.938   0.674
  209HOH      O  812   2.531   1.798   1.825
  209HOH     H1  813   2.499   1.734   1.762
  209HOH     H2  814   2.607   1.837   1.783
  210HOH      O  815   1.004   0.969   1.723
  210HOH     H1  816   1.007   1.060   1.753
  210HOH     H2  817   1.083   0.959   1.669
  211HOH      O  818   0.564   1.499   2.804
  211HOH     H1  819   0.540   1.591   2.797
  211HOH     H2  820   0.601   1.478   2.718
  212HOH      O  821   3.606   0.267   0.367
  212HOH     H1  822   3.565   0.350   0.342
  212HOH     H2  823   3.535   0.203   0.360
  213HOH      O  824   0.371   1.420   2.423
  213HOH     H1  825   0.392   1.337   2.379
  213HOH     H2  826   0.341   1.393   2.510
  214HOH      O  827   3.944   4.006   1.640
  214HOH     H1  828   3.954   4.009   1.545
  214HOH     H2  829   3.990   3.926   1.666
  215HOH      O  830   1.115   3.513   0.788
  215HOH     H1  831   1.055   3.463   0.733
  215HOH     H2  832   1.076   3.601   0.792
  216HOH      O  833   1.766   2.826   0.654
  216HOH     H1  834   1.781   2.913   0.691
  216HOH     H2  835   1.764   2.841   0.559
  217HOH      O  836   2.640   1.212   2.232
  217HOH     H1  837   2.734   1.197   2.247
  217HOH     H2  838   2.598   1.186   2.314
  218HOH      O  839   0.217   0.578   0.954
  218HOH     H1  840   0.210   0.670   0.928
  218HOH     H2  841   0.156   0.569   1.027
  219HOH      O  842   0.707   0.698   3.723
  219HOH     H1  843   0.701   0.644   3.802
  219HOH     H2  844   0.621   0.740   3.715
  220HOH      O  845   3.221   3.249   1.486
  220HOH     H1  846   3.174   3.169   1.511
  220HOH     H2  847   3.208   3.308   1.561
  221HOH      O  848   3.734   0.567   3.279
  221HOH     H1  849   3.718   0.473   3.292
  221HOH     H2  850   3.715   0.606   3.364
  222HOH      O  851   0.135   1.516   2.643
  222HOH     H1  852   0.190   1.443   2.616
  222HOH     H2  853   0.196   1.589   2.655
  223HOH      O  854   1.581   1.205   3.629
  223HOH     H1  855   1.611   1.154   3.554
  223HOH     H2  856   1.648   1.273   3.639
  224HOH      O  857   2.484   3.375   2.234
  224HOH     H1  858   2.400   3.393   2.277
  224HOH     H2  859   2.464   3.308   2.169
  225HOH      O  860   2.332   2.970   1.244
  225HOH     H1  861   2.415   2.968   1.292
  225HOH     H2  862   2.266   2.987   1.312
  226HOH      O  863   3.640   3.676   1.321
  226HOH     H1  864   3.725   3.646   1.290
  226HOH     H2  865   3.604   3.726   1.247
  227HOH      O  866   2.983   3.173   3.899
  227HOH     H1  867   2.924   3.145   3.969
  227HOH     H2  868   2.947   3.257   3.871
  228HOH      O  869   1.082   1.228   2.544
  228HOH     H1  870   1.149   1.284   2.583
  228HOH     H2  871   1.131   1.151   2.514
  229HOH      O  872   1.053   2.452   3.625
  229HOH     H1  873   1.109   2.469   3.701
  229HOH     H2  874   1.079   2.518   3.561
  230HOH      O  875   3.252   3.989   3.544
  230HOH     H1  876   3.188   3.957   3.608
  230HOH     H2  877   3.203   4.052   3.491
  231HOH      O  878   0.620   0.372   2.510
  231HOH     H1  879   0.647   0.464   2.509
  231HOH     H2  880   0.526   0.375   2.491
  232HOH      O  881   3.477   2.784   3.661
  232HOH     H1  882   3.486   2.706   3.716
  232HOH     H2  883   3.560   2.829   3.669
  233HOH      O  884   0.905   3.535   3.405
  233HOH     H1  885   0.819   3.572   3.426
  233HOH     H2  886   0.888   3.475   3.333
  234HOH      O  887   0.088   1.130   0.722
  234HOH     H1  888   0.130   1.182   0.790
  234HOH     H2  889  -0.001   1.117   0.755
  235HOH      O  890   2.330   0.646   2.726
  235HOH     H1  891   2.295   0.600   2.802
  235HOH     H2  892   2.424   0.652   2.742
  236HOH      O  893   3.751   1.790   0.131
  236HOH     H1  894   3.845   1.777   0.145
  236HOH     H2  895   3.712   1.776   0.217
  237HOH      O  896   2.127   1.435   1.953
  237HOH     H1  897   2.063   1.412   1.886
  237HOH     H2  898   2.133   1.531   1.950
  238HOH      O  899   0.962   2.085   2.172
  238HOH     H1  900   0.962   1.990   2.166
  238HOH     H2  901   1.039   2.112   2.120
  239HOH      O  902   3.201   1.143   1.388
  239HOH     H1  903   3.291   1.153   1.420
  239HOH     H2  904   3.209   1.152   1.293
  240HOH      O  905   1.602   2.518   0.240
  240HOH     H1  906   1.572   2.587   0.300
  240HOH     H2  907   1.531   2.510   0.177
  241HOH      O  908   2.987   3.264   3.274
  241HOH     H1  909   3.022   3.185   3.232
  241HOH     H2  910   2.965   3.321   3.201
  242HOH      O  911   2.163   1.364   0.250
  242HOH     H1  912   2.201   1.276   0.258
  242HOH     H2  913   2.148   1.375   0.157
  243HOH      O  914   3.393   1.878   0.909
  243HOH     H1  915   3.326   1.824   0.867
  243HOH     H2  916   3.344   1.931   0.972
  244HOH      O  917   3.343   0.013   0.679
  244HOH     H1  918   3.261   0.063   0.679
  244HOH     H2  919   3.411   0.079   0.692
  245HOH      O  920   0.924   2.209   3.322
  245HOH     H1  921   0.889   2.161   3.247
  245HOH     H2  922   1.006   2.163   3.343
  246HOH      O  923   2.672   3.969   3.354
  246HOH     H1  924   2.691   3.956   3.261
  246HOH     H2  925   2.744   4.023   3.386
  247HOH      O  926   2.746   3.185   2.839
  247HOH     H1  927   2.817   3.241   2.872
  247HOH     H2  928   2.741   3.114   2.903
  248HOH      O  929   0.641   3.158   1.683
  248HOH     H1  930   0.674   3.086   1.736
  248HOH     H2  931   0.546   3.144   1.680
  249HOH      O  932   0.507   1.011   0.999
  249HOH     H1  933   0.418   1.021   1.032
  249HOH     H2  934   0.529   1.097   0.963
  250HOH      O  935   3.411   0.782   1.246
  250HOH     H1  936   3.492   0.775   1.296
  250HOH     H2  937   3.391   0.691   1.220
  251HOH      O  938   3.970   1.408   2.804
  251HOH     H1  939   4.021   1.375   2.877
  251HOH     H2  940   4.030   1.466   2.757
  252HOH      O  941   1.973   0.169   3.413
  252HOH     H1  942   1.921   0.226   3.357
  252HOH     H2  943   2.026   0.117   3.353
  253HOH      O  944   3.971   3.165   2.356
  253HOH     H1  945   3.952   3.133   2.268
  253HOH     H2  946   3.900   3.227   2.375
  254HOH      O  947   2.421   1.521   0.426
  254HOH     H1  948   2.399   1.433   0.396
  254HOH     H2  949   2.419   1.575   0.347
  255HOH      O  950   1.144   2.324   1.088
  255HOH     H1  951   1.170   2.294   1.001
  255HOH     H2  952   1.213   2.291   1.146
  256HOH      O  953   3.869   0.831   0.697
  256HOH     H1  954   3.856   0.915   0.653
  256HOH     H2  955   3.883   0.769   0.625
  257HOH      O  956   3.099   2.870   0.006
  257HOH     H1  957   3.129   2.802  -0.055
  257HOH     H2  958   3.007   2.850   0.021
  258HOH      O  959   2.182   3.773   3.996
  258HOH     H1  960   2.231   3.718   3.935
  258HOH     H2  961   2.243   3.842   4.021
  259HOH      O  962   3.907   2.070   2.073
  259HOH     H1  963   3.841   2.059   2.142
  259HOH     H2  964   3.967   1.997   2.087
  260HOH      O  965   0.304   2.367   0.216
  260HOH     H1  966   0.257   2.287   0.240
  260HOH     H2  967   0.371   2.337   0.154
  261HOH      O  968   1.365   0.361   3.433
  261HOH     H1  969   1.272   0.381   3.425
  261HOH     H2  970   1.390   0.399   3.517
  262HOH      O  971   0.965   1.444   3.407
  262HOH     H1  972   1.005   1.362   3.438
  262HOH     H2  973   1.038   1.506   3.401
  263HOH      O  974   2.279   0.553   2.094
  263HOH     H1  975   2.342   0.491   2.056
  263HOH     H2  976   2.234   0.502   2.162
  264HOH      O  977   1.582   1.204   1.982
  264HOH     H1  978   1.641   1.279   1.986
  264HOH     H2  979   1.634   1.131   2.016
  265HOH      O  980   0.229   1.623   3.946
  265HOH     H1  981   0.192   1.602   4.031
  265HOH     H2  982   0.309   1.570   3.942
  266HOH      O  983   0.748   2.061   2.558
  266HOH     H1  984   0.760   2.150   2.589
  266HOH     H2  985   0.659   2.060   2.522
  267HOH      O  986   1.706   0.318   0.226
  267HOH     H1  987   1.789   0.357   0.251
  267HOH     H2  988   1.650   0.393   0.205
  268HOH      O  989   3.555   3.204   0.289
  268HOH     H1  990   3.649   3.198   0.302
  268HOH     H2  991   3.520   3.221   0.377
  269HOH      O  992   3.093   2.347   0.090
  269HOH     H1  993   3.065   2.372   0.002
  269HOH     H2  994   3.015   2.358   0.145
  270HOH      O  995   2.714   3.221   1.135
  270HOH     H1  996   2.771   3.185   1.202
  270HOH     H2  997   2.767   3.221   1.055
  271HOH      O  998   2.457   3.370   3.717
  271HOH     H1  999   2.499   3.311   3.654
  271HOH     H2 1000   2.401   3.313   3.769
  272HOH      O 1001   1.737   2.252   1.346
  272HOH     H1 1002   1.787   2.269   1.266
  272HOH     H2 1003   1.795   2.198   1.400
  273HOH      O 1004   0.894   0.268   3.675
  273HOH     H1 1005   0.912   0.361   3.661
  273HOH     H2 1006   0.968   0.237   3.727
  274HOH      O 1007   2.200   1.476   0.977
  274HOH     H1 1008   2.206   1.381   0.987
  274HOH     H2 1009   2.260   1.497   0.906
  275HOH      O 1010   1.082   0.682   3.347
  275HOH     H1 1011   1.150   0.686   3.414
  275HOH     H2 1012   1.002   0.709   3.392
  276HOH      O 1013   0.725   2.714   1.540
  276HOH     H1 1014   0.737   2.806   1.519
  276HOH     H2 1015   0.790   2.668   1.486
  277HOH      O 1016   2.464   2.072   3.615
  277HOH     H1 1017   2.488   1.983   3.640
  277HOH     H2 1018   2.529   2.098   3.551
  278HOH      O 1019   0.485   0.807   2.747
  278HOH     H1 1020   0.568   0.819   2.702
  278HOH     H2 1021   0.509   0.771   2.833
  279HOH      O 1022   2.079   3.164   0.719
  279HOH     H1 1023   2.071   3.185   0.626
  279HOH     H2 1024   2.172   3.141   0.730
  280HOH      O 1025   1.866   1.019   0.921
  280HOH     H1 1026   1.817   1.091   0.880
  280HOH     H2 1027   1.814   0.995   0.998
  281HOH      O 1028   3.978   2.819   3.652
  281HOH     H1 1029   3.941   2.794   3.737
  281HOH     H2 1030   4.046   2.754   3.636
  282HOH      O 1031   3.997   3.227   0.667
  282HOH     H1 1032   3.903   3.245   0.664
  282HOH     H2 1033   4.005   3.153   0.727
  283HOH      O 1034   2.202   0.608   1.186
  283HOH     H1 1035   2.123   0.593   1.236
  283HOH     H2 1036   2.179   0.583   1.096
  284HOH      O 1037   0.764   1.545   0.910
  284HOH     H1 1038   0.851   1.506   0.918
  284HOH     H2 1039   0.761   1.612   0.978
  285HOH      O 1040   3.122   2.183   1.216
  285HOH     H1 1041   3.029   2.208   1.223
  285HOH     H2 1042   3.164   2.229   1.288
  286HOH      O 1043   1.867   2.750   3.045
  286HOH     H1 1044   1.937   2.701   3.086
  286HOH     H2 1045   1.868   2.835   3.087
  287HOH      O 1046   1.411   3.566   3.613
  287HOH     H1 1047   1.471   3.553   3.540
  287HOH     H2 1048   1.340   3.503   3.598
  288HOH      O 1049   3.729   3.358   2.990
  288HOH     H1 1050   3.786   3.317   2.925
  288HOH     H2 1051   3.775   3.348   3.073
  289HOH      O 1052   1.046   3.936   3.862
  289HOH     H1 1053   1.117   3.910   3.921
  289HOH     H2 1054   1.060   3.882   3.784
  290HOH      O 1055   2.986   0.389   2.473
  290HOH     H1 1056   2.984   0.300   2.437
  290HOH     H2 1057   2.951   0.443   2.402
  291HOH      O 1058   2.161   1.152   0.688
  291HOH     H1 1059   2.146   1.246   0.677
  291HOH     H2 1060   2.074   1.113   0.681
  292HOH      O 1061   3.668   0.589   3.010
  292HOH     H1 1062   3.740   0.537   2.974
  292HOH     H2 1063   3.685   0.592   3.104
  293HOH      O 1064   3.367   2.835   3.263
  293HOH     H1 1065   3.360   2.767   3.195
  293HOH     H2 1066   3.374   2.917   3.214
  294HOH      O 1067   3.940   0.975   2.243
  294HOH     H1 1068   3.845   0.966   2.254
  294HOH     H2 1069   3.961   1.058   2.286
  295HOH      O 1070   0.713   2.353   2.555
  295HOH     H1 1071   0.696   2.443   2.580
  295HOH     H2 1072   0.796   2.357   2.507
  296HOH      O 1073   0.320   3.002   0.129
  296HOH     H1 1074   0.267   3.073   0.166
  296HOH     H2 1075   0.257   2.943   0.089
  297HOH      O 1076   2.674   1.298   3.673
  297HOH     H1 1077   2.683   1.255   3.588
  297HOH     H2 1078   2.622   1.376   3.655
  298HOH      O 1079   1.086   0.608   0.322
  298HOH     H1 1080   1.015   0.574   0.269
  298HOH     H2 1081   1.043   0.661   0.389
  299HOH      O 1082   3.502   0.343   3.604
  299HOH     H1 1083   3.501   0.285   3.528
  299HOH     H2 1084   3.409   0.361   3.620
  300HOH      O 1085   0.101   0.757   2.411
  300HOH     H1 1086   0.040   0.705   2.359
  300HOH     H2 1087   0.045   0.812   2.466
  301HOH      O 1088   2.507   1.879   3.863
  301HOH     H1 1089   2.569   1.870   3.936
  301HOH     H2 1090   2.441   1.811   3.879
  302HOH      O 1091   3.023   3.915   1.914
  302HOH     H1 1092   2.986   3.839   1.961
  302HOH     H2 1093   2.986   3.909   1.826
  303HOH      O 1094   1.974   3.079   1.767
  303HOH     H1 1095   1.981   3.003   1.709
  303HOH     H2 1096   1.933   3.147   1.713
  304HOH      O 1097   2.742   2.964   0.805
  304HOH     H1 1098   2.698   3.018   0.739
  304HOH     H2 1099   2.755   2.879   0.762
  305HOH      O 1100   0.374   3.135   1.560
  305HOH     H1 1101   0.341   3.045   1.557
  305HOH     H2 1102   0.360   3.168   1.471
  306HOH      O 1103   1.856   1.582   3.476
  306HOH     H1 1104   1.825   1.667   3.447
  306HOH     H2 1105   1.852   1.586   3.572
  307HOH      O 1106   3.247   0.746   0.369
  307HOH     H1 1107   3.258   0.659   0.407
  307HOH     H2 1108   3.325   0.794   0.397
  308HOH      O 1109   1.053   2.099   0.672
  308HOH     H1 1110   0.958   2.097   0.688
  308HOH     H2 1111   1.078   2.007   0.662
  309HOH      O 1112   0.204   0.204   2.395
  309HOH     H1 1113   0.179   0.280   2.342
  309HOH     H2 1114   0.254   0.149   2.335
  310HOH      O 1115   0.532   0.296   1.963
  310HOH     H1 1116   0.535   0.381   1.919
  310HOH     H2 1117   0.619   0.286   2.002
  311HOH      O 1118   0.989   1.693   0.205
  311HOH     H1 1119   1.058   1.629   0.193
  311HOH     H2 1120   0.936   1.687   0.126
  312HOH      O 1121   3.716   2.910   3.649
  312HOH     H1 1122   3.812   2.914   3.649
  312HOH     H2 1123   3.688   3.001   3.650
  313HOH      O 1124   1.111   0.034   1.687
  313HOH     H1 1125   1.103  -0.054   1.651
  313HOH     H2 1126   1.034   0.080   1.654
  314HOH      O 1127   1.560   3.360   1.297
  314HOH     H1 1128   1.634   3.302   1.315
  314HOH     H2 1129   1.574   3.435   1.354
  315HOH      O 1130   0.435   1.690   2.385
  315HOH     H1 1131   0.374   1.705   2.313
  315HOH     H2 1132   0.422   1.598   2.409
  316HOH      O 1133   0.259   1.231   1.267
  316HOH     H1 1134   0.255   1.151   1.320
  316HOH     H2 1135   0.325   1.285   1.309
  317HOH      O 1136   0.090   3.986   2.374
  317HOH     H1 1137   0.005   4.025   2.359
  317HOH     H2 1138   0.139   4.052   2.423
  318HOH      O 1139   2.756   0.887   1.799
  318HOH     H1 1140   2.750   0.834   1.720
  318HOH     H2 1141   2.772   0.976   1.768
  319HOH      O 1142   1.852   0.230   2.679
  319HOH     H1 1143   1.769   0.201   2.641
  319HOH     H2 1144   1.847   0.203   2.770
  320HOH      O 1145   1.789   0.993   3.982
  320HOH     H1 1146   1.716   1.027   3.930
  320HOH     H2 1147   1.840   0.942   3.919
  321HOH      O 1148   3.880   1.059   1.020
  321HOH     H1 1149   3.857   1.088   0.931
  321HOH     H2 1150   3.874   1.138   1.074
  322HOH      O 1151   2.087   3.378   3.861
  322HOH     H1 1152   2.147   3.387   3.787
  322HOH     H2 1153   2.032   3.456   3.856
  323HOH      O 1154   2.116   0.757   2.281
  323HOH     H1 1155   2.141   0.759   2.373
  323HOH     H2 1156   2.022   0.776   2.282
  324HOH      O 1157   3.731   0.969   2.014
  324HOH     H1 1158   3.802   1.031   2.028
  324HOH     H2 1159   3.754   0.923   1.933
  325HOH      O 1160   1.046   3.009   3.552
  325HOH     H1 1161   1.136   3.027   3.524
  325HOH     H2 1162   1.042   3.042   3.642
  326HOH      O 1163   3.711   2.047   0.589
  326HOH     H1 1164   3.649   1.982   0.556
  326HOH     H2 1165   3.667   2.084   0.666
  327HOH      O 1166   2.307   3.211   3.873
  327HOH     H1 1167   2.270   3.139   3.823
  327HOH     H2 1168   2.232   3.268   3.894
  328HOH      O 1169   3.216   2.624   0.313
  328HOH     H1 1170   3.249   2.566   0.382
  328HOH     H2 1171   3.146   2.674   0.356
  329HOH      O 1172   3.292   3.126   3.633
  329HOH     H1 1173   3.296   3.030   3.632
  329HOH     H2 1174   3.211   3.147   3.585
  330HOH      O 1175   0.749   1.041   1.302
  330HOH     H1 1176   0.714   1.046   1.391
  330HOH     H2 1177   0.823   0.981   1.309
  331HOH      O 1178   0.337   0.177   0.317
  331HOH     H1 1179   0.411   0.203   0.371
  331HOH     H2 1180   0.267   0.159   0.380
  332HOH      O 1181   3.076   2.320   2.376
  332HOH     H1 1182   3.149   2.273   2.417
  332HOH     H2 1183   2.998   2.277   2.411
  333HOH      O 1184   0.432   0.481   3.764
  333HOH     H1 1185   0.468   0.448   3.847
  333HOH     H2 1186   0.346   0.439   3.758
  334HOH      O 1187   0.348   2.354   2.114
  334HOH     H1 1188   0.367   2.447   2.127
  334HOH     H2 1189   0.392   2.332   2.032
  335HOH      O 1190   0.746   1.036   3.637
  335HOH     H1 1191   0.761   0.953   3.592
  335HOH     H2 1192   0.669   1.073   3.594
  336HOH      O 1193   3.351   1.763   0.085
  336HOH     H1 1194   3.298   1.839   0.108
  336HOH     H2 1195   3.337   1.701   0.157
  337HOH      O 1196   1.140   1.358   3.095
  337HOH     H1 1197   1.188   1.289   3.141
  337HOH     H2 1198   1.132   1.429   3.160
  338HOH      O 1199   2.008   0.735   1.902
  338HOH     H1 1200   1.949   0.661   1.893
  338HOH     H2 1201   2.059   0.716   1.981
  339HOH      O 1202   0.511   0.920   3.367
  339HOH     H1 1203   0.474   0.851   3.421
  339HOH     H2 1204   0.475   1.001   3.403
  340HOH      O 1205   2.718   3.666   0.420
  340HOH     H1 1206   2.640   3.666   0.364
  340HOH     H2 1207   2.780   3.610   0.374
  341HOH      O 1208   3.813   3.546   2.399
  341HOH     H1 1209   3.899   3.522   2.434
  341HOH     H2 1210   3.791   3.629   2.442
  342HOH      O 1211   3.500   0.504   0.323
  342HOH     H1 1212   3.500   0.597   0.343
  342HOH     H2 1213   3.421   0.490   0.270
  343HOH      O 1214   0.247   1.154   1.652
  343HOH     H1 1215   0.153   1.159   1.669
  343HOH     H2 1216   0.253   1.126   1.561
  344HOH      O 1217   0.293   0.762   1.226
  344HOH     H1 1218   0.381   0.733   1.201
  344HOH     H2 1219   0.270   0.828   1.161
  345HOH      O 1220   3.283   0.244   1.969
  345HOH     H1 1221   3.350   0.302   2.006
  345HOH     H2 1222   3.227   0.303   1.919
  346HOH      O 1223   0.751   3.358   3.629
  346HOH     H1 1224   0.817   3.410   3.675
  346HOH     H2 1225   0.699   3.423   3.581
  347HOH      O 1226   2.738   0.879   2.220
  347HOH     H1 1227   2.652   0.888   2.178
  347HOH     H2 1228   2.799   0.870   2.146
  348HOH      O 1229   3.556   2.633   3.869
  348HOH     H1 1230   3.491   2.588   3.922
  348HOH     H2 1231   3.610   2.681   3.932
  349HOH      O 1232   1.478   3.391   0.588
  349HOH     H1 1233   1.544   3.331   0.623
  349HOH     H2 1234   1.526   3.472   0.570
  350HOH      O 1235   1.019   0.500   3.616
  350HOH     H1 1236   0.996   0.573   3.558
  350HOH     H2 1237   1.083   0.537   3.677
  351HOH      O 1238   2.065   0.865   1.065
  351HOH     H1 1239   2.158   0.882   1.052
  351HOH     H2 1240   2.020   0.922   1.002
  352HOH      O 1241   0.042   1.868   2.432
  352HOH     H1 1242   0.112   1.890   2.370
  352HOH     H2 1243  -0.030   1.838   2.376
  353HOH      O 1244   3.540   3.829   3.103
  353HOH     H1 1245   3.594   3.772   3.049
  353HOH     H2 1246   3.552   3.916   3.065
  354HOH      O 1247   2.296   0.204   1.318
  354HOH     H1 1248   2.388   0.179   1.323
  354HOH     H2 1249   2.276   0.202   1.224
  355HOH      O 1250   2.711   1.861   3.574
  355HOH     H1 1251   2.691   1.768   3.590
  355HOH     H2 1252   2.692   1.873   3.481
  356HOH      O 1253   3.596   0.274   0.003
  356HOH     H1 1254   3.511   0.318   0.007
  356HOH     H2 1255   3.627   0.288  -0.086
  357HOH      O 1256   2.582   1.987   0.350
  357HOH     H1 1257   2.496   1.994   0.308
  357HOH     H2 1258   2.596   2.072   0.391
  358HOH      O 1259   3.332   1.432   2.947
  358HOH     H1 1260   3.321   1.493   2.874
  358HOH     H2 1261   3.249   1.436   2.995
  359HOH      O 1262   2.353   2.963   3.043
  359HOH     H1 1263   2.317   2.979   3.130
  359HOH     H2 1264   2.276   2.952   2.987
  360HOH      O 1265   3.957   1.448   3.429
  360HOH     H1 1266   3.884   1.508   3.441
  360HOH     H2 1267   3.940   1.407   3.343
  361HOH      O 1268   2.045   0.108   1.049
  361HOH     H1 1269   2.137   0.120   1.027
  361HOH     H2 1270   2.045   0.051   1.125
  362HOH      O 1271   2.564   0.254   1.538
  362HOH     H1 1272   2.501   0.317   1.503
  362HOH     H2 1273   2.562   0.180   1.477
  363HOH      O 1274   1.771   2.552   0.756
  363HOH     H1 1275   1.786   2.646   0.749
  363HOH     H2 1276   1.859   2.515   0.766
  364HOH      O 1277   2.718   0.307   2.020
  364HOH     H1 1278   2.803   0.268   2.044
  364HOH     H2 1279   2.657   0.271   2.085
  365HOH      O 1280   1.122   2.103   2.623
  365HOH     H1 1281   1.196   2.146   2.580
  365HOH     H2 1282   1.103   2.158   2.699
  366HOH      O 1283   0.430   1.377   3.939
  366HOH     H1 1284   0.461   1.461   3.973
  366HOH     H2 1285   0.507   1.337   3.900
  367HOH      O 1286   0.039   3.478   2.506
  367HOH     H1 1287   0.073   3.529   2.580
  367HOH     H2 1288   0.024   3.391   2.542
  368HOH      O 1289   0.912   0.809   2.847
  368HOH     H1 1290   1.005   0.824   2.859
  368HOH     H2 1291   0.905   0.716   2.824
  369HOH      O 1292   0.869   2.873   3.941
  369HOH     H1 1293   0.775   2.856   3.939
  369HOH     H2 1294   0.903   2.831   3.862
  370HOH      O 1295   2.219   3.393   2.366
  370HOH     H1 1296   2.185   3.339   2.437
  370HOH     H2 1297   2.142   3.413   2.313
  371HOH      O 1298   2.747   3.153   2.173
  371HOH     H1 1299   2.673   3.213   2.163
  371HOH     H2 1300   2.709   3.076   2.216
  372HOH      O 1301   2.345   2.237   0.415
  372HOH     H1 1302   2.335   2.169   0.349
  372HOH     H2 1303   2.283   2.214   0.484
  373HOH      O 1304   1.267   2.422   3.161
  373HOH     H1 1305   1.286   2.392   3.250
  373HOH     H2 1306   1.317   2.503   3.152
  374HOH      O 1307   3.401   2.440   0.995
  374HOH     H1 1308   3.390   2.518   1.050
  374HOH     H2 1309   3.464   2.386   1.042
  375HOH      O 1310   0.793   2.736   1.086
  375HOH     H1 1311   0.700   2.728   1.067
  375HOH     H2 1312   0.817   2.654   1.128
  376HOH      O 1313   3.019   0.676   1.289
  376HOH     H1 1314   2.991   0.699   1.200
  376HOH     H2 1315   2.989   0.749   1.343
  377HOH      O 1316   0.344   2.739   0.923
  377HOH     H1 1317   0.327   2.769   1.012
  377HOH     H2 1318   0.410   2.670   0.933
  378HOH      O 1319   1.366   1.321   1.421
  378HOH     H1 1320   1.335   1.409   1.401
  378HOH     H2 1321   1.461   1.327   1.410
  379HOH      O 1322   0.231   0.091   0.669
  379HOH     H1 1323   0.316   0.132   0.689
  379HOH     H2 1324   0.179   0.105   0.748
  380HOH      O 1325   1.505   0.559   0.157
  380HOH     H1 1326   1.420   0.549   0.113
  380HOH     H2 1327   1.564   0.591   0.089
  381HOH      O 1328   2.948   1.293   0.720
  381HOH     H1 1329   3.010   1.323   0.654
  381HOH     H2 1330   2.970   1.201   0.733
  382HOH      O 1331   2.484   0.519   1.367
  382HOH     H1 1332   2.420   0.514   1.438
  382HOH     H2 1333   2.442   0.473   1.294
  383HOH      O 1334   2.434   3.892   3.849
  383HOH     H1 1335   2.493   3.959   3.815
  383HOH     H2 1336   2.348   3.934   3.848
  384HOH      O 1337   3.428   3.570   3.479
  384HOH     H1 1338   3.338   3.598   3.493
  384HOH     H2 1339   3.481   3.641   3.514
  385HOH      O 1340   0.765   3.170   0.634
  385HOH     H1 1341   0.706   3.115   0.584
  385HOH     H2 1342   0.709   3.238   0.672
  386HOH      O 1343   2.390   4.011   3.406
  386HOH     H1 1344   2.483   3.988   3.398
  386HOH     H2 1345   2.348   3.969   3.331
  387HOH      O 1346   1.999   3.640   0.116
  387HOH     H1 1347   2.076   3.679   0.074
  387HOH     H2 1348   1.927   3.698   0.094
  388HOH      O 1349   1.269   0.999   3.867
  388HOH     H1 1350   1.205   1.068   3.884
  388HOH     H2 1351   1.257   0.978   3.774
  389HOH      O 1352   0.589   3.404   0.394
  389HOH     H1 1353   0.542   3.382   0.313
  389HOH     H2 1354   0.521   3.440   0.452
  390HOH      O 1355   1.831   0.505   3.393
  390HOH     H1 1356   1.907   0.520   3.450
  390HOH     H2 1357   1.866   0.454   3.320
  391HOH      O 1358   1.072   1.227   1.507
  391HOH     H1 1359   1.059   1.275   1.425
  391HOH     H2 1360   1.167   1.226   1.519
  392HOH      O 1361   2.519   0.191   0.678
  392HOH     H1 1362   2.428   0.162   0.675
  392HOH     H2 1363   2.537   0.201   0.772
  393HOH      O 1364   1.197   3.116   1.441
  393HOH     H1 1365   1.160   3.132   1.527
  393HOH     H2 1366   1.155   3.036   1.411
  394HOH      O 1367   0.225   1.217   0.043
  394HOH     H1 1368   0.174   1.237  -0.035
  394HOH     H2 1369   0.315   1.240   0.020
  395HOH      O 1370   1.193   3.656   0.524
  395HOH     H1 1371   1.270   3.674   0.577
  395HOH     H2 1372   1.191   3.727   0.459
  396HOH      O 1373   2.470   2.638   1.676
  396HOH     H1 1374   2.452   2.715   1.730
  396HOH     H2 1375   2.518   2.579   1.734
  397HOH      O 1376   1.408   2.642   0.073
  397HOH     H1 1377   1.375   2.646  -0.017
  397HOH     H2 1378   1.438   2.731   0.091
  398HOH      O 1379   3.071   3.085   0.187
  398HOH     H1 1380   3.142   3.091   0.251
  398HOH     H2 1381   3.091   3.006   0.137
  399HOH      O 1382   2.734   1.124   3.034
  399HOH     H1 1383   2.789   1.070   2.977
  399HOH     H2 1384   2.655   1.072   3.048
  400HOH      O 1385   1.246   3.120   3.002
  400HOH     H1 1386   1.228   3.060   2.929
  400HOH     H2 1387   1.170   3.110   3.060
  401HOH      O 1388   2.097   0.219   1.756
  401HOH     H1 1389   2.062   0.161   1.688
  401HOH     H2 1390   2.030   0.286   1.767
  402HOH      O 1391   2.456   1.076   1.469
  402HOH     H1 1392   2.412   0.998   1.436
  402HOH     H2 1393   2.469   1.059   1.562
  403HOH      O 1394   1.244   3.762   3.459
  403HOH     H1 1395   1.246   3.832   3.393
  403HOH     H2 1396   1.325   3.774   3.509
  404HOH      O 1397   0.293   2.077   3.952
  404HOH     H1 1398   0.354   2.060   4.024
  404HOH     H2 1399   0.291   2.172   3.944
  405HOH      O 1400   1.944   3.141   1.092
  405HOH     H1 1401   1.874   3.084   1.124
  405HOH     H2 1402   1.902   3.198   1.028
  406HOH      O 1403   3.870   2.460   3.667
  406HOH     H1 1404   3.805   2.399   3.701
  406HOH     H2 1405   3.833   2.490   3.584
  407HOH      O 1406   2.543   1.589   1.297
  407HOH     H1 1407   2.566   1.599   1.205
  407HOH     H2 1408   2.462   1.637   1.308
  408HOH      O 1409   2.957   1.970   0.837
  408HOH     H1 1410   2.947   2.006   0.925
  408HOH     H2 1411   2.913   1.885   0.841
  409HOH      O 1412   0.339   2.168   2.299
  409HOH     H1 1413   0.258   2.162   2.348
  409HOH     H2 1414   0.330   2.248   2.247
  410HOH      O 1415   3.949   2.209   2.985
  410HOH     H1 1416   4.040   2.183   2.992
  410HOH     H2 1417   3.924   2.232   3.075
  411HOH      O 1418   1.027   3.443   2.286
  411HOH     H1 1419   0.969   3.371   2.260
  411HOH     H2 1420   1.078   3.407   2.359
  412HOH      O 1421   0.201   0.094   1.924
  412HOH     H1 1422   0.237   0.013   1.888
  412HOH     H2 1423   0.108   0.091   1.902
  413HOH      O 1424   1.345   2.659   1.293
  413HOH     H1 1425   1.277   2.701   1.346
  413HOH     H2 1426   1.352   2.571   1.329
  414HOH      O 1427   0.909   2.354   0.386
  414HOH     H1 1428   0.825   2.397   0.369
  414HOH     H2 1429   0.886   2.269   0.422
  415HOH      O 1430   2.200   3.399   3.582
  415HOH     H1 1431   2.238   3.487   3.581
  415HOH     H2 1432   2.275   3.341   3.567
  416HOH      O 1433   2.194   3.692   3.024
  416HOH     H1 1434   2.222   3.600   3.022
  416HOH     H2 1435   2.218   3.726   2.938
  417HOH      O 1436   3.059   0.127   1.247
  417HOH     H1 1437   3.045   0.033   1.252
  417HOH     H2 1438   3.052   0.157   1.338
  418HOH      O 1439   1.673   3.951   0.408
  418HOH     H1 1440   1.684   3.919   0.497
  418HOH     H2 1441   1.708   4.040   0.410
  419HOH      O 1442   2.398   1.628   0.684
  419HOH     H1 1443   2.407   1.723   0.688
  419HOH     H2 1444   2.417   1.606   0.592
  420HOH      O 1445   3.618   1.173   0.055
  420HOH     H1 1446   3.627   1.229  -0.022
  420HOH     H2 1447   3.705   1.172   0.094
  421HOH      O 1448   1.235   2.254   0.845
  421HOH     H1 1449   1.327   2.237   0.827
  421HOH     H2 1450   1.188   2.212   0.773
  422HOH      O 1451   2.487   2.020   1.353
  422HOH     H1 1452   2.414   1.976   1.396
  422HOH     H2 1453   2.467   2.113   1.361
  423HOH      O 1454   0.642   2.237   2.294
  423HOH     H1 1455   0.671   2.250   2.384
  423HOH     H2 1456   0.547   2.242   2.298
  424HOH      O 1457   3.494   0.124   1.168
  424HOH     H1 1458   3.551   0.086   1.235
  424HOH     H2 1459   3.516   0.217   1.169
  425HOH      O 1460   2.996   0.706   3.719
  425HOH     H1 1461   3.071   0.661   3.680
  425HOH     H2 1462   2.943   0.734   3.644
  426HOH      O 1463   2.189   1.249   1.488
  426HOH     H1 1464   2.243   1.224   1.412
  426HOH     H2 1465   2.194   1.344   1.491
  427HOH      O 1466   1.551   1.102   3.193
  427HOH     H1 1467   1.467   1.124   3.234
  427HOH     H2 1468   1.614   1.104   3.265
  428HOH      O 1469   2.088   1.230   3.315
  428HOH     H1 1470   2.001   1.223   3.276
  428HOH     H2 1471   2.101   1.147   3.359
  429HOH      O 1472   2.586   2.871   3.441
  429HOH     H1 1473   2.605   2.820   3.362
  429HOH     H2 1474   2.501   2.837   3.471
  430HOH      O 1475   2.835   2.473   3.574
  430HOH     H1 1476   2.878   2.488   3.490
  430HOH     H2 1477   2.792   2.555   3.595
  431HOH      O 1478   2.930   1.681   1.950
  431HOH     H1 1479   2.864   1.743   1.980
  431HOH     H2 1480   2.907   1.599   1.993
  432HOH      O 1481   0.478   2.597   3.757
  432HOH     H1 1482   0.477   2.623   3.665
  432HOH     H2 1483   0.544   2.528   3.762
  433HOH      O 1484   3.105   0.900   2.764
  433HOH     H1 1485   3.156   0.875   2.841
  433HOH     H2 1486   3.035   0.955   2.798
  434HOH      O 1487   0.010   1.764   0.237
  434HOH     H1 1488   0.039   1.846   0.198
  434HOH     H2 1489  -0.046   1.790   0.310
  435HOH      O 1490   3.907   0.692   2.259
  435HOH     H1 1491   3.829   0.680   2.205
  435HOH     H2 1492   3.928   0.784   2.250
  436HOH      O 1493   0.454   0.392   1.151
  436HOH     H1 1494   0.362   0.375   1.171
  436HOH     H2 1495   0.459   0.487   1.138
  437HOH      O 1496   2.963   1.907   0.350
  437HOH     H1 1497   3.012   1.898   0.432
  437HOH     H2 1498   2.883   1.858   0.366
  438HOH      O 1499   1.162   2.244   0.159
  438HOH     H1 1500   1.257   2.248   0.172
  438HOH     H2 1501   1.131   2.332   0.180
  439HOH      O 1502   2.940   2.882   2.908
  439HOH     H1 1503   2.980   2.873   2.822
  439HOH     H2 1504   2.870   2.817   2.909
  440HOH      O 1505   3.633   0.021   3.653
  440HOH     H1 1506   3.586   0.064   3.582
  440HOH     H2 1507   3.704   0.081   3.675
  441HOH      O 1508   2.576   2.162   3.897
  441HOH     H1 1509   2.663   2.123   3.910
  441HOH     H2 1510   2.520   2.089   3.872
  442HOH      O 1511   0.727   2.092   0.199
  442HOH     H1 1512   0.809   2.063   0.239
  442HOH     H2 1513   0.681   2.138   0.270
  443HOH      O 1514   3.214   2.016   0.544
  443HOH     H1 1515   3.189   2.064   0.465
  443HOH     H2 1516   3.207   2.081   0.615
  444HOH      O 1517   2.592   0.719   2.045
  444HOH     H1 1518   2.675   0.764   2.027
  444HOH     H2 1519   2.577   0.666   1.967
  445HOH      O 1520   2.072   2.982   2.918
  445HOH     H1 1521   2.011   3.001   2.990
  445HOH     H2 1522   2.016   2.942   2.851
  446HOH      O 1523   1.238   2.701   0.601
  446HOH     H1 1524   1.211   2.626   0.549
  446HOH     H2 1525   1.228   2.776   0.543
  447HOH      O 1526   2.907   2.008   3.339
  447HOH     H1 1527   2.992   1.987   3.301
  447HOH     H2 1528   2.844   1.960   3.285
  448HOH      O 1529   3.516   0.771   0.687
  448HOH     H1 1530   3.567   0.786   0.767
  448HOH     H2 1531   3.470   0.854   0.672
  449HOH      O 1532   3.945   3.082   2.095
  449HOH     H1 1533   3.955   3.162   2.044
  449HOH     H2 1534   3.928   3.014   2.029
  450HOH      O 1535   2.819   3.104   0.268
  450HOH     H1 1536   2.913   3.098   0.253
  450HOH     H2 1537   2.783   3.137   0.185
  451HOH      O 1538   2.744   0.503   1.713
  451HOH     H1 1539   2.764   0.590   1.678
  451HOH     H2 1540   2.730   0.449   1.635
  452HOH      O 1541   2.861   1.420   0.948
  452HOH     H1 1542   2.770   1.391   0.937
  452HOH     H2 1543   2.900   1.408   0.862
  453HOH      O 1544   1.367   0.276   2.259
  453HOH     H1 1545   1.447   0.321   2.287
  453HOH     H2 1546   1.398   0.211   2.195
  454HOH      O 1547   3.378   1.798   2.617
  454HOH     H1 1548   3.393   1.729   2.682
  454HOH     H2 1549   3.297   1.841   2.646
  455HOH      O 1550   3.564   0.392   2.701
  455HOH     H1 1551   3.517   0.420   2.623
  455HOH     H2 1552   3.515   0.430   2.774
  456HOH      O 1553   1.391   1.343   2.097
  456HOH     H1 1554   1.440   1.278   2.047
  456HOH     H2 1555   1.420   1.427   2.062
  457HOH      O 1556   1.755   1.359   1.331
  457HOH     H1 1557   1.802   1.439   1.307
  457HOH     H2 1558   1.816   1.313   1.390
  458HOH      O 1559   2.106   3.812   0.987
  458HOH     H1 1560   2.022   3.826   0.944
  458HOH     H2 1561   2.140   3.731   0.948
  459HOH      O 1562   2.502   2.722   0.314
  459HOH     H1 1563   2.486   2.628   0.317
  459HOH     H2 1564   2.449   2.753   0.241
  460HOH      O 1565   0.309   1.611   0.203
  460HOH     H1 1566   0.362   1.689   0.183
  460HOH     H2 1567   0.368   1.554   0.251
  461HOH      O 1568   3.150   3.322   1.213
  461HOH     H1 1569   3.181   3.357   1.297
  461HOH     H2 1570   3.096   3.247   1.237
  462HOH      O 1571   2.924   1.117   1.381
  462HOH     H1 1572   3.016   1.144   1.390
  462HOH     H2 1573   2.912   1.103   1.287
  463HOH      O 1574   0.624   0.886   2.302
  463HOH     H1 1575   0.711   0.920   2.324
  463HOH     H2 1576   0.596   0.838   2.380
  464HOH      O 1577   1.906   3.833   3.317
  464HOH     H1 1578   1.818   3.797   3.310
  464HOH     H2 1579   1.902   3.891   3.393
  465HOH      O 1580   0.306   2.005   3.681
  465HOH     H1 1581   0.267   1.918   3.666
  465HOH     H2 1582   0.282   2.027   3.771
  466HOH      O 1583   2.510   1.534   3.265
  466HOH     H1 1584   2.460   1.604   3.223
  466HOH     H2 1585   2.472   1.453   3.232
  467HOH      O 1586   1.702   2.517   3.820
  467HOH     H1 1587   1.767   2.512   3.750
  467HOH     H2 1588   1.742   2.572   3.887
  468HOH      O 1589   0.922   0.211   1.387
  468HOH     H1 1590   0.941   0.258   1.468
  468HOH     H2 1591   0.856   0.265   1.344
  469HOH      O 1592   1.131   2.889   2.792
  469HOH     H1 1593   1.056   2.864   2.846
  469HOH     H2 1594   1.206   2.849   2.836
  470HOH      O 1595   0.960   1.984   0.314
  470HOH     H1 1596   0.928   1.896   0.335
  470HOH     H2 1597   1.036   1.970   0.258
  471HOH      O 1598   0.108   3.754   0.835
  471HOH     H1 1599   0.189   3.804   0.845
  471HOH     H2 1600   0.081   3.770   0.744
  472HOH      O 1601   2.727   2.343   3.163
  472HOH     H1 1602   2.766   2.413   3.216
  472HOH     H2 1603   2.678   2.389   3.095
  473HOH      O 1604   1.934   1.872   3.224
  473HOH     H1 1605   2.010   1.864   3.281
  473HOH     H2 1606   1.928   1.966   3.205
  474HOH      O 1607   3.303   3.990   1.911
  474HOH     H1 1608   3.277   4.077   1.941
  474HOH     H2 1609   3.227   3.935   1.930
  475HOH      O 1610   3.943   2.443   1.503
  475HOH     H1 1611   3.870   2.386   1.524
  475HOH     H2 1612   3.943   2.509   1.573
  476HOH      O 1613   2.367   3.388   0.936
  476HOH     H1 1614   2.436   3.423   0.879
  476HOH     H2 1615   2.412   3.329   0.996
  477HOH      O 1616   1.520   2.316   1.752
  477HOH     H1 1617   1.608   2.331   1.717
  477HOH     H2 1618   1.487   2.403   1.773
  478HOH      O 1619   2.758   2.559   3.921
  478HOH     H1 1620   2.769   2.623   3.991
  478HOH     H2 1621   2.711   2.607   3.852
  479HOH      O 1622   2.809   3.455   0.674
  479HOH     H1 1623   2.804   3.543   0.711
  479HOH     H2 1624   2.855   3.467   0.590
  480HOH      O 1625   0.508   1.118   2.680
  480HOH     H1 1626   0.581   1.102   2.741
  480HOH     H2 1627   0.528   1.064   2.604
  481HOH      O 1628   3.232   3.579   0.513
  481HOH     H1 1629   3.137   3.587   0.501
  481HOH     H2 1630   3.255   3.654   0.568
  482HOH      O 1631   1.068   3.547   2.619
  482HOH     H1 1632   1.122   3.503   2.553
  482HOH     H2 1633   1.038   3.476   2.677
  483HOH      O 1634   3.323   3.172   3.263
  483HOH     H1 1635   3.239   3.190   3.221
  483HOH     H2 1636   3.370   3.119   3.200
  484HOH      O 1637   2.854   0.343   1.238
  484HOH     H1 1638   2.893   0.402   1.174
  484HOH     H2 1639   2.881   0.255   1.210
  485HOH      O 1640   1.339   0.104   1.473
  485HOH     H1 1641   1.316   0.050   1.398
  485HOH     H2 1642   1.386   0.045   1.532
  486HOH      O 1643   3.333   3.919   2.572
  486HOH     H1 1644   3.392   3.993   2.590
  486HOH     H2 1645   3.376   3.844   2.614
  487HOH      O 1646   3.155   1.633   2.477
  487HOH     H1 1647   3.209   1.616   2.554
  487HOH     H2 1648   3.073   1.586   2.495
  488HOH      O 1649   1.229   2.960   2.297
  488HOH     H1 1650   1.295   2.891   2.309
  488HOH     H2 1651   1.178   2.930   2.222
  489HOH      O 1652   0.232   0.837   2.721
  489HOH     H1 1653   0.326   0.818   2.720
  489HOH     H2 1654   0.208   0.833   2.814
  490HOH      O 1655   0.072   1.502   0.153
  490HOH     H1 1656   0.165   1.503   0.179
  490HOH     H2 1657   0.045   1.594   0.155
  491HOH      O 1658   1.930   0.425   0.335
  491HOH     H1 1659   1.977   0.393   0.411
  491HOH     H2 1660   1.998   0.441   0.270
  492HOH      O 1661   3.561   1.517   3.321
  492HOH     H1 1662   3.480   1.534   3.369
  492HOH     H2 1663   3.621   1.482   3.387
  493HOH      O 1664   3.494   1.528   3.996
  493HOH     H1 1665   3.505   1.603   4.054
  493HOH     H2 1666   3.403   1.535   3.966
  494HOH      O 1667   3.225   1.945   1.104
  494HOH     H1 1668   3.232   1.913   1.194
  494HOH     H2 1669   3.176   2.026   1.111
  495HOH      O 1670   2.873   1.984   2.914
  495HOH     H1 1671   2.845   1.961   3.003
  495HOH     H2 1672   2.839   1.913   2.859
  496HOH      O 1673   3.322   2.099   3.077
  496HOH     H1 1674   3.252   2.049   3.119
  496HOH     H2 1675   3.288   2.189   3.071
  497HOH      O 1676   1.526   1.389   3.401
  497HOH     H1 1677   1.464   1.333   3.448
  497HOH     H2 1678   1.509   1.477   3.435
  498HOH      O 1679   2.421   3.911   0.578
  498HOH     H1 1680   2.450   3.885   0.665
  498HOH     H2 1681   2.349   3.851   0.558
  499HOH      O 1682   1.484   3.757   2.876
  499HOH     H1 1683   1.543   3.832   2.881
  499HOH     H2 1684   1.405   3.785   2.924
  500HOH      O 1685   0.870   1.604   2.219
  500HOH     H1 1686   0.888   1.518   2.258
  500HOH     H2 1687   0.802   1.586   2.154
  501HOH      O 1688   3.417   3.038   3.048
  501HOH     H1 1689   3.496   2.997   3.012
  501HOH     H2 1690   3.387   3.096   2.978
  502HOH      O 1691   1.293   2.595   0.847
  502HOH     H1 1692   1.288   2.648   0.768
  502HOH     H2 1693   1.324   2.510   0.816
  503HOH      O 1694   0.507   3.501   2.841
  503HOH     H1 1695   0.497   3.502   2.746
  503HOH     H2 1696   0.505   3.594   2.866
  504HOH      O 1697   3.690   2.065   2.971
  504HOH     H1 1698   3.656   2.005   3.037
  504HOH     H2 1699   3.781   2.039   2.958
  505HOH      O 1700   1.974   0.989   3.452
  505HOH     H1 1701   1.976   0.940   3.370
  505HOH     H2 1702   2.018   0.932   3.515
  506HOH      O 1703   1.340   3.913   1.310
  506HOH     H1 1704   1.408   3.871   1.258
  506HOH     H2 1705   1.258   3.874   1.278
  507HOH      O 1706   3.677   2.112   4.023
  507HOH     H1 1707   3.667   2.204   3.999
  507HOH     H2 1708   3.772   2.097   4.019
  508HOH      O 1709   3.527   1.959   1.805
  508HOH     H1 1710   3.524   1.864   1.797
  508HOH     H2 1711   3.620   1.979   1.817
  509HOH      O 1712   0.290   1.541   3.469
  509HOH     H1 1713   0.345   1.467   3.493
  509HOH     H2 1714   0.299   1.602   3.542
  510HOH      O 1715   3.351   0.288   2.275
  510HOH     H1 1716   3.268   0.242   2.262
  510HOH     H2 1717   3.417   0.219   2.277
  511HOH      O 1718   2.756   1.235   2.704
  511HOH     H1 1719   2.702   1.286   2.764
  511HOH     H2 1720   2.727   1.262   2.616
  512HOH      O 1721   2.198   2.807   3.373
  512HOH     H1 1722   2.209   2.891   3.328
  512HOH     H2 1723   2.223   2.826   3.464
  513HOH      O 1724   3.341   2.790   1.997
  513HOH     H1 1725   3.385   2.875   1.991
  513HOH     H2 1726   3.250   2.810   1.975
  514HOH      O 1727   0.714   3.519   1.780
  514HOH     H1 1728   0.649   3.482   1.839
  514HOH     H2 1729   0.673   3.598   1.745
  515HOH      O 1730   3.916   0.537   2.492
  515HOH     H1 1731   3.944   0.564   2.405
  515HOH     H2 1732   3.990   0.560   2.549
  516HOH      O 1733   2.383   3.762   2.224
  516HOH     H1 1734   2.389   3.818   2.301
  516HOH     H2 1735   2.291   3.766   2.199
  517HOH      O 1736   2.672   1.127   3.897
  517HOH     H1 1737   2.693   1.191   3.829
  517HOH     H2 1738   2.699   1.169   3.978
  518HOH      O 1739   2.352   3.337   0.382
  518HOH     H1 1740   2.436   3.291   0.388
  518HOH     H2 1741   2.356   3.383   0.299
  519HOH      O 1742   1.072   3.058   3.206
  519HOH     H1 1743   1.090   3.132   3.264
  519HOH     H2 1744   1.099   2.981   3.257
  520HOH      O 1745   3.018   3.061   0.806
  520HOH     H1 1746   2.984   3.142   0.846
  520HOH     H2 1747   2.941   3.008   0.790
  521HOH      O 1748   1.058   2.687   0.025
  521HOH     H1 1749   1.010   2.606   0.045
  521HOH     H2 1750   0.990   2.749  -0.000
  522HOH      O 1751   1.686   0.438   0.621
  522HOH     H1 1752   1.643   0.478   0.546
  522HOH     H2 1753   1.615   0.409   0.678
  523HOH      O 1754   3.217   3.146   2.570
  523HOH     H1 1755   3.303   3.123   2.535
  523HOH     H2 1756   3.169   3.182   2.495
  524HOH      O 1757   2.895   1.638   2.806
  524HOH     H1 1758   2.813   1.688   2.809
  524HOH     H2 1759   2.874   1.556   2.850
  525HOH      O 1760   2.646   1.550   0.784
  525HOH     H1 1761   2.653   1.458   0.761
  525HOH     H2 1762   2.561   1.577   0.748
  526HOH      O 1763   0.059   3.420   3.853
  526HOH     H1 1764   0.020   3.494   3.807
  526HOH     H2 1765   0.121   3.460   3.913
  527HOH      O 1766   1.650   3.655   3.752
  527HOH     H1 1767   1.565   3.649   3.709
  527HOH     H2 1768   1.645   3.593   3.824
  528HOH      O 1769   0.991   3.732   2.820
  528HOH     H1 1770   1.019   3.666   2.757
  528HOH     H2 1771   1.029   3.813   2.787
  529HOH      O 1772   0.771   0.028   0.100
  529HOH     H1 1773   0.815   0.089   0.040
  529HOH     H2 1774   0.758  -0.051   0.048
  530HOH      O 1775   3.605   2.571   1.517
  530HOH     H1 1776   3.652   2.488   1.515
  530HOH     H2 1777   3.513   2.545   1.522
  531HOH      O 1778   3.178   0.757   2.262
  531HOH     H1 1779   3.137   0.780   2.345
  531HOH     H2 1780   3.165   0.662   2.255
  532HOH      O 1781   1.413   2.788   2.931
  532HOH     H1 1782   1.364   2.714   2.896
  532HOH     H2 1783   1.503   2.773   2.903
  533HOH      O 1784   3.789   3.841   2.547
  533HOH     H1 1785   3.708   3.891   2.556
  533HOH     H2 1786   3.838   3.887   2.479
  534HOH      O 1787   0.111   3.207   2.574
  534HOH     H1 1788   0.123   3.135   2.636
  534HOH     H2 1789   0.077   3.165   2.495
  535HOH      O 1790   3.339   2.464   4.010
  535HOH     H1 1791   3.380   2.378   4.020
  535HOH     H2 1792   3.254   2.455   4.054
  536HOH      O 1793   1.715   2.681   1.766
  536HOH     H1 1794   1.694   2.601   1.718
  536HOH     H2 1795   1.790   2.718   1.718
  537HOH      O 1796   0.271   0.382   1.963
  537HOH     H1 1797   0.230   0.300   1.935
  537HOH     H2 1798   0.357   0.356   1.994
  538HOH      O 1799   0.594   2.463   3.270
  538HOH     H1 1800   0.592   2.372   3.300
  538HOH     H2 1801   0.607   2.456   3.176
  539HOH      O 1802   0.787   1.988   1.909
  539HOH     H1 1803   0.882   1.989   1.894
  539HOH     H2 1804   0.767   1.898   1.933
  540HOH      O 1805   3.714   3.552   0.999
  540HOH     H1 1806   3.736   3.486   1.064
  540HOH     H2 1807   3.790   3.555   0.941
  541HOH      O 1808   3.407   1.698   2.138
  541HOH     H1 1809   3.321   1.668   2.166
  541HOH     H2 1810   3.467   1.664   2.205
  542HOH      O 1811   0.135   0.948   0.048
  542HOH     H1 1812   0.200   1.017   0.054
  542HOH     H2 1813   0.117   0.922   0.138
  543HOH      O 1814   2.142   3.703   3.296
  543HOH     H1 1815   2.052   3.729   3.316
  543HOH     H2 1816   2.142   3.687   3.201
  544HOH      O 1817   1.594   2.009   0.955
  544HOH     H1 1818   1.617   2.102   0.957
  544HOH     H2 1819   1.514   2.005   0.902
  545HOH      O 1820   3.813   1.663   3.494
  545HOH     H1 1821   3.887   1.722   3.510
  545HOH     H2 1822   3.779   1.642   3.581
  546HOH      O 1823   2.862   0.955   3.625
  546HOH     H1 1824   2.808   1.009   3.567
  546HOH     H2 1825   2.947   0.999   3.626
  547HOH      O 1826   2.946   3.374   2.100
  547HOH     H1 1827   2.926   3.283   2.123
  547HOH     H2 1828   2.914   3.425   2.175
  548HOH      O 1829   3.220   1.946   0.226
  548HOH     H1 1830   3.139   1.914   0.265
  548HOH     H2 1831   3.232   2.034   0.262
  549HOH      O 1832   0.740   3.772   4.000
  549HOH     H1 1833   0.695   3.688   4.011
  549HOH     H2 1834   0.778   3.767   3.913
  550HOH      O 1835   1.274   3.769   3.060
  550HOH     H1 1836   1.334   3.694   3.062
  550HOH     H2 1837   1.188   3.733   3.081
  551HOH      O 1838   0.684   2.155   0.506
  551HOH     H1 1839   0.647   2.240   0.526
  551HOH     H2 1840   0.718   2.122   0.589
  552HOH      O 1841   3.033   2.270   3.304
  552HOH     H1 1842   2.956   2.213   3.307
  552HOH     H2 1843   3.092   2.234   3.370
  553HOH      O 1844   3.289   3.568   1.415
  553HOH     H1 1845   3.345   3.512   1.468
  553HOH     H2 1846   3.324   3.560   1.326
  554HOH      O 1847   3.221   1.494   2.700
  554HOH     H1 1848   3.260   1.436   2.634
  554HOH     H2 1849   3.128   1.470   2.701
  555HOH      O 1850   3.037   1.400   1.132
  555HOH     H1 1851   2.973   1.390   1.062
  555HOH     H2 1852   3.030   1.492   1.157
  556HOH      O 1853   2.290   0.415   3.607
  556HOH     H1 1854   2.289   0.324   3.577
  556HOH     H2 1855   2.369   0.422   3.660
  557HOH      O 1856   2.233   3.054   3.303
  557HOH     H1 1857   2.168   3.116   3.272
  557HOH     H2 1858   2.293   3.105   3.357
  558HOH      O 1859   1.878   0.086   2.362
  558HOH     H1 1860   1.947   0.025   2.391
  558HOH     H2 1861   1.901   0.169   2.404
  559HOH      O 1862   1.505   2.897   1.251
  559HOH     H1 1863   1.464   2.866   1.331
  559HOH     H2 1864   1.482   2.990   1.247
  560HOH      O 1865   4.026   1.789   2.109
  560HOH     H1 1866   4.056   1.799   2.019
  560HOH     H2 1867   3.937   1.756   2.100
  561HOH      O 1868   1.430   2.256   0.106
  561HOH     H1 1869   1.464   2.169   0.123
  561HOH     H2 1870   1.497   2.300   0.054
  562HOH      O 1871   1.669   3.492   0.824
  562HOH     H1 1872   1.656   3.544   0.745
  562HOH     H2 1873   1.617   3.536   0.891
  563HOH      O 1874   3.726   2.852   0.261
  563HOH     H1 1875   3.684   2.876   0.178
  563HOH     H2 1876   3.681   2.906   0.326
  564HOH      O 1877   0.845   3.529   0.168
  564HOH     H1 1878   0.920   3.581   0.138
  564HOH     H2 1879   0.827   3.468   0.097
  565HOH      O 1880   0.222   2.074   1.948
  565HOH     H1 1881   0.264   2.090   1.863
  565HOH     H2 1882   0.230   2.157   1.994
  566HOH      O 1883   4.007   0.608   3.325
  566HOH     H1 1884   4.064   0.568   3.259
  566HOH     H2 1885   3.921   0.609   3.284
  567HOH      O 1886   3.995   3.831   1.426
  567HOH     H1 1887   4.022   3.747   1.464
  567HOH     H2 1888   3.951   3.807   1.344
  568HOH      O 1889   0.635   3.420   0.772
  568HOH     H1 1890   0.687   3.414   0.852
  568HOH     H2 1891   0.556   3.370   0.791
  569HOH      O 1892   3.926   1.793   1.039
  569HOH     H1 1893   3.884   1.714   1.073
  569HOH     H2 1894   3.990   1.760   0.976
  570HOH      O 1895   3.450   1.225   1.442
  570HOH     H1 1896   3.519   1.281   1.477
  570HOH     H2 1897   3.488   1.187   1.363
  571HOH      O 1898   0.408   0.062   2.573
  571HOH     H1 1899   0.375   0.131   2.516
  571HOH     H2 1900   0.503   0.060   2.556
  572HOH      O 1901   3.076   3.622   1.781
  572HOH     H1 1902   3.078   3.701   1.727
  572HOH     H2 1903   2.989   3.624   1.821
  573HOH      O 1904   3.760   2.299   0.230
  573HOH     H1 1905   3.699   2.288   0.157
  573HOH     H2 1906   3.706   2.332   0.301
  574HOH      O 1907   2.987   3.501   2.562
  574HOH     H1 1908   3.053   3.569   2.550
  574HOH     H2 1909   2.941   3.527   2.641
  575HOH      O 1910   2.025   1.193   4.005
  575HOH     H1 1911   1.981   1.109   3.990
  575HOH     H2 1912   1.964   1.241   4.061
  576HOH      O 1913   2.699   1.911   0.050
  576HOH     H1 1914   2.703   1.954   0.136
  576HOH     H2 1915   2.709   1.818   0.069
  577HOH      O 1916   3.952   4.022   4.022
  577HOH     H1 1917   3.957   3.968   3.943
  577HOH     H2 1918   3.981   3.964   4.092
  578HOH      O 1919   2.684   0.003   0.510
  578HOH     H1 1920   2.640  -0.082   0.515
  578HOH     H2 1921   2.624   0.063   0.556
  579HOH      O 1922   1.962   3.659   0.452
  579HOH     H1 1923   1.965   3.594   0.522
  579HOH     H2 1924   1.958   3.606   0.372
  580HOH      O 1925   1.396   0.757   0.573
  580HOH     H1 1926   1.446   0.700   0.516
  580HOH     H2 1927   1.454   0.774   0.647
  581HOH      O 1928   0.331   0.485   0.619
  581HOH     H1 1929   0.255   0.536   0.646
  581HOH     H2 1930   0.334   0.412   0.681
  582HOH      O 1931   0.076   0.631   3.825
  582HOH     H1 1932   0.081   0.630   3.729
  582HOH     H2 1933  -0.012   0.600   3.844
  583HOH      O 1934   0.786   2.212   3.951
  583HOH     H1 1935   0.766   2.162   4.029
  583HOH     H2 1936   0.836   2.151   3.896
  584HOH      O 1937   0.086   0.606   0.604
  584HOH     H1 1938   0.024   0.569   0.541
  584HOH     H2 1939   0.039   0.603   0.687
  585HOH      O 1940   0.847   1.610   3.994
  585HOH     H1 1941   0.897   1.638   3.918
  585HOH     H2 1942   0.755   1.613   3.965
  586HOH      O 1943   2.533   0.893   2.624
  586HOH     H1 1944   2.488   0.932   2.699
  586HOH     H2 1945   2.614   0.857   2.661
  587HOH      O 1946   2.574   1.143   1.970
  587HOH     H1 1947   2.604   1.151   2.061
  587HOH     H2 1948   2.482   1.171   1.973
  588HOH      O 1949   0.245   1.863   2.216
  588HOH     H1 1950   0.156   1.852   2.183
  588HOH     H2 1951   0.301   1.832   2.144
  589HOH      O 1952   0.774   1.709   1.860
  589HOH     H1 1953   0.868   1.705   1.880
  589HOH     H2 1954   0.736   1.636   1.907
  590HOH      O 1955   1.229   3.283   0.008
  590HOH     H1 1956   1.165   3.352  -0.010
  590HOH     H2 1957   1.224   3.269   0.102
  591HOH      O 1958   2.094   0.554   0.923
  591HOH     H1 1959   2.063   0.643   0.905
  591HOH     H2 1960   2.015   0.501   0.925
  592HOH      O 1961   3.021   3.647   2.818
  592HOH     H1 1962   3.054   3.737   2.814
  592HOH     H2 1963   3.053   3.613   2.902
  593HOH      O 1964   2.892   0.802   2.009
  593HOH     H1 1965   2.904   0.707   2.004
  593HOH     H2 1966   2.851   0.826   1.926
  594HOH      O 1967   2.275   0.899   1.991
  594HOH     H1 1968   2.254   0.987   1.959
  594HOH     H2 1969   2.269   0.843   1.913
  595HOH      O 1970   1.596   1.085   2.911
  595HOH     H1 1971   1.558   1.125   2.990
  595HOH     H2 1972   1.686   1.117   2.911
  596HOH      O 1973   2.579   3.624   1.580
  596HOH     H1 1974   2.624   3.580   1.652
  596HOH     H2 1975   2.578   3.560   1.509
  597HOH      O 1976   3.041   1.883   1.527
  597HOH     H1 1977   2.956   1.842   1.539
  597HOH     H2 1978   3.081   1.881   1.614
  598HOH      O 1979   3.425   2.981   0.606
  598HOH     H1 1980   3.515   2.985   0.573
  598HOH     H2 1981   3.434   2.944   0.694
  599HOH      O 1982   3.226   0.955   3.014
  599HOH     H1 1983   3.211   0.897   3.088
  599HOH     H2 1984   3.313   0.932   2.982
  600HOH      O 1985   0.135   0.572   0.074
  600HOH     H1 1986   0.099   0.592  -0.011
  600HOH     H2 1987   0.220   0.531   0.056
  601HOH      O 1988   0.504   1.768   2.657
  601HOH     H1 1989   0.501   1.756   2.562
  601HOH     H2 1990   0.412   1.773   2.684
  602HOH      O 1991   1.890   0.553   2.157
  602HOH     H1 1992   1.969   0.539   2.210
  602HOH     H2 1993   1.872   0.646   2.166
  603HOH      O 1994   3.344   0.976   3.715
  603HOH     H1 1995   3.377   0.908   3.656
  603HOH     H2 1996   3.249   0.972   3.704
  604HOH      O 1997   1.293   2.566   2.863
  604HOH     H1 1998   1.240   2.539   2.788
  604HOH     H2 1999   1.316   2.483   2.906
  605HOH      O 2000   3.863   0.551   3.908
  605HOH     H1 2001   3.809   0.526   3.984
  605HOH     H2 2002   3.844   0.483   3.843
  606HOH      O 2003   3.891   3.017   2.925
  606HOH     H1 2004   3.886   3.051   3.014
  606HOH     H2 2005   3.804   2.982   2.907
  607HOH      O 2006   3.145   2.623   3.866
  607HOH     H1 2007   3.232   2.583   3.872
  607HOH     H2 2008   3.086   2.556   3.900
  608HOH      O 2009   0.441   1.577   1.580
  608HOH     H1 2010   0.404   1.567   1.492
  608HOH     H2 2011   0.488   1.495   1.596
  609HOH      O 2012   0.149   2.580   0.160
  609HOH     H1 2013   0.076   2.557   0.217
  609HOH     H2 2014   0.215   2.513   0.177
  610HOH      O 2015   1.213   3.516   2.105
  610HOH     H1 2016   1.287   3.455   2.109
  610HOH     H2 2017   1.146   3.475   2.160
  611HOH      O 2018   2.606   2.913   3.851
  611HOH     H1 2019   2.629   2.831   3.808
  611HOH     H2 2020   2.555   2.886   3.927
  612HOH      O 2021   0.556   2.116   3.614
  612HOH     H1 2022   0.552   2.181   3.684
  612HOH     H2 2023   0.466   2.084   3.606
  613HOH      O 2024   3.464   0.112   3.448
  613HOH     H1 2025   3.453   0.136   3.356
  613HOH     H2 2026   3.392   0.051   3.465
  614HOH      O 2027   0.917   0.453   0.144
  614HOH     H1 2028   0.851   0.480   0.080
  614HOH     H2 2029   0.970   0.388   0.097
  615HOH      O 2030   2.301   0.465   0.756
  615HOH     H1 2031   2.284   0.374   0.735
  615HOH     H2 2032   2.235   0.488   0.822
  616HOH      O 2033   3.154   3.912   0.943
  616HOH     H1 2034   3.193   3.999   0.957
  616HOH     H2 2035   3.185   3.860   1.017
  617HOH      O 2036   2.722   2.360   0.429
  617HOH     H1 2037   2.699   2.288   0.488
  617HOH     H2 2038   2.648   2.420   0.434
  618HOH      O 2039   1.858   0.713   1.165
  618HOH     H1 2040   1.894   0.669   1.242
  618HOH     H2 2041   1.923   0.779   1.142
  619HOH      O 2042   0.251   3.984   3.330
  619HOH     H1 2043   0.182   3.920   3.310
  619HOH     H2 2044   0.312   3.977   3.257
  620HOH      O 2045   0.226   1.230   0.463
  620HOH     H1 2046   0.140   1.223   0.420
  620HOH     H2 2047   0.214   1.300   0.528
  621HOH      O 2048   1.134   3.841   1.136
  621HOH     H1 2049   1.181   3.871   1.059
  621HOH     H2 2050   1.073   3.775   1.104
  622HOH      O 2051   2.206   0.099   2.568
  622HOH     H1 2052   2.141   0.029   2.573
  622HOH     H2 2053   2.155   0.180   2.574
  623HOH      O 2054   1.304   3.031   3.483
  623HOH     H1 2055   1.347   2.968   3.426
  623HOH     H2 2056   1.325   3.002   3.572
  624HOH      O 2057   1.848   2.471   3.572
  624HOH     H1 2058   1.941   2.484   3.591
  624HOH     H2 2059   1.842   2.483   3.477
  625HOH      O 2060   3.164   2.349   2.870
  625HOH     H1 2061   3.082   2.307   2.896
  625HOH     H2 2062   3.204   2.375   2.953
  626HOH      O 2063   0.932   0.819   1.241
  626HOH     H1 2064   0.914   0.725   1.241
  626HOH     H2 2065   1.024   0.825   1.268
  627HOH      O 2066   1.753   2.807   0.374
  627HOH     H1 2067   1.737   2.713   0.372
  627HOH     H2 2068   1.849   2.814   0.379
  628HOH      O 2069   2.061   1.588   0.381
  628HOH     H1 2070   2.131   1.523   0.374
  628HOH     H2 2071   1.982   1.542   0.355
  629HOH      O 2072   1.232   0.795   2.857
  629HOH     H1 2073   1.278   0.765   2.935
  629HOH     H2 2074   1.245   0.890   2.856
  630HOH      O 2075   0.032   3.782   2.722
  630HOH     H1 2076   0.093   3.791   2.649
  630HOH     H2 2077  -0.051   3.811   2.686
  631HOH      O 2078   2.415   3.127   0.767
  631HOH     H1 2079   2.445   3.218   0.761
  631HOH     H2 2080   2.412   3.110   0.861
  632HOH      O 2081   3.981   2.052   2.629
  632HOH     H1 2082   3.985   1.992   2.554
  632HOH     H2 2083   3.947   1.999   2.701
  633HOH      O 2084   2.984   0.587   3.193
  633HOH     H1 2085   3.056   0.647   3.211
  633HOH     H2 2086   2.909   0.624   3.241
  634HOH      O 2087   0.881   3.653   2.330
  634HOH     H1 2088   0.875   3.670   2.424
  634HOH     H2 2089   0.939   3.577   2.323
  635HOH      O 2090   0.950   0.741   0.523
  635HOH     H1 2091   0.870   0.791   0.507
  635HOH     H2 2092   0.977   0.766   0.611
  636HOH      O 2093   1.231   2.612   3.526
  636HOH     H1 2094   1.186   2.680   3.476
  636HOH     H2 2095   1.320   2.646   3.537
  637HOH      O 2096   1.833   3.845   2.148
  637HOH     H1 2097   1.818   3.752   2.128
  637HOH     H2 2098   1.797   3.857   2.236
  638HOH      O 2099   1.100   0.942   3.213
  638HOH     H1 2100   1.070   0.942   3.303
  638HOH     H2 2101   1.145   0.858   3.202
  639HOH      O 2102   1.818   0.543   2.610
  639HOH     H1 2103   1.784   0.512   2.694
  639HOH     H2 2104   1.740   0.555   2.555
  640HOH      O 2105   3.664   3.177   3.635
  640HOH     H1 2106   3.672   3.212   3.724
  640HOH     H2 2107   3.599   3.234   3.593
  641HOH      O 2108   3.559   0.214   0.724
  641HOH     H1 2109   3.602   0.285   0.675
  641HOH     H2 2110   3.484   0.256   0.766
  642HOH      O 2111   1.478   0.176   0.339
  642HOH     H1 2112   1.437   0.225   0.410
  642HOH     H2 2113   1.552   0.230   0.311
  643HOH      O 2114   3.215   1.183   1.114
  643HOH     H1 2115   3.176   1.270   1.111
  643HOH     H2 2116   3.149   1.125   1.077
  644HOH      O 2117   3.089   0.473   1.116
  644HOH     H1 2118   3.085   0.540   1.184
  644HOH     H2 2119   3.138   0.401   1.156
  645HOH      O 2120   1.182   2.223   2.995
  645HOH     H1 2121   1.250   2.155   2.996
  645HOH     H2 2122   1.199   2.276   3.073
  646HOH      O 2123   0.955   1.892   2.535
  646HOH     H1 2124   0.884   1.957   2.538
  646HOH     H2 2125   1.030   1.937   2.574
  647HOH      O 2126   0.662   0.700   1.322
  647HOH     H1 2127   0.741   0.743   1.287
  647HOH     H2 2128   0.609   0.680   1.245
  648HOH      O 2129   1.021   1.412   1.844
  648HOH     H1 2130   1.026   1.506   1.862
  648HOH     H2 2131   1.110   1.380   1.862
  649HOH      O 2132   3.257   0.134   3.936
  649HOH     H1 2133   3.344   0.094   3.930
  649HOH     H2 2134   3.200   0.063   3.967
  650HOH      O 2135   1.304   3.948   3.264
  650HOH     H1 2136   1.240   4.013   3.232
  650HOH     H2 2137   1.318   3.891   3.189
  651HOH      O 2138   2.198   3.545   1.343
  651HOH     H1 2139   2.182   3.472   1.283
  651HOH     H2 2140   2.113   3.561   1.384
  652HOH      O 2141   3.594   3.656   0.777
  652HOH     H1 2142   3.641   3.733   0.744
  652HOH     H2 2143   3.651   3.621   0.845
  653HOH      O 2144   1.250   0.372   0.394
  653HOH     H1 2145   1.187   0.303   0.416
  653HOH     H2 2146   1.197   0.450   0.382
  654HOH      O 2147   3.908   2.740   3.951
  654HOH     H1 2148   3.833   2.796   3.929
  654HOH     H2 2149   3.964   2.796   4.004
  655HOH      O 2150   2.421   0.912   0.112
  655HOH     H1 2151   2.484   0.920   0.040
  655HOH     H2 2152   2.443   0.830   0.155
  656HOH      O 2153   3.338   2.648   1.138
  656HOH     H1 2154   3.389   2.727   1.120
  656HOH     H2 2155   3.301   2.663   1.225
  657HOH      O 2156   3.705   1.118   3.091
  657HOH     H1 2157   3.644   1.048   3.071
  657HOH     H2 2158   3.653   1.198   3.088
  658HOH      O 2159   2.551   0.757   1.366
  658HOH     H1 2160   2.545   0.664   1.348
  658HOH     H2 2161   2.479   0.796   1.317
  659HOH      O 2162   1.279   2.343   3.450
  659HOH     H1 2163   1.239   2.403   3.513
  659HOH     H2 2164   1.373   2.354   3.463
  660HOH      O 2165   3.085   0.792   2.525
  660HOH     H1 2166   3.038   0.728   2.579
  660HOH     H2 2167   3.120   0.855   2.587
  661HOH      O 2168   2.487   2.408   3.973
  661HOH     H1 2169   2.498   2.318   3.943
  661HOH     H2 2170   2.484   2.402   4.068
  662HOH      O 2171   0.665   2.726   3.216
  662HOH     H1 2172   0.657   2.631   3.226
  662HOH     H2 2173   0.575   2.757   3.213
  663HOH      O 2174   2.688   1.288   0.750
  663HOH     H1 2175   2.661   1.255   0.664
  663HOH     H2 2176   2.782   1.273   0.753
  664HOH      O 2177   0.961   2.523   1.132
  664HOH     H1 2178   1.024   2.458   1.102
  664HOH     H2 2179   0.937   2.572   1.054
  665HOH      O 2180   0.938   1.439   2.458
  665HOH     H1 2181   1.032   1.428   2.439
  665HOH     H2 2182   0.904   1.349   2.460
  666HOH      O 2183   2.796   0.925   2.492
  666HOH     H1 2184   2.769   0.885   2.410
  666HOH     H2 2185   2.794   0.853   2.555
  667HOH      O 2186   1.560   2.842   0.180
  667HOH     H1 2187   1.623   2.818   0.248
  667HOH     H2 2188   1.580   2.933   0.160
  668HOH      O 2189   3.710   2.377   3.986
  668HOH     H1 2190   3.672   2.450   4.034
  668HOH     H2 2191   3.802   2.401   3.975
  669HOH      O 2192   2.295   0.835   3.182
  669HOH     H1 2193   2.381   0.852   3.143
  669HOH     H2 2194   2.314   0.785   3.261
  670HOH      O 2195   0.490   2.010   2.450
  670HOH     H1 2196   0.423   2.055   2.398
  670HOH     H2 2197   0.481   1.918   2.426
  671HOH      O 2198   0.174   3.856   0.581
  671HOH     H1 2199   0.261   3.818   0.597
  671HOH     H2 2200   0.180   3.944   0.617
  672HOH      O 2201   3.212   3.553   2.045
  672HOH     H1 2202   3.191   3.510   2.129
  672HOH     H2 2203   3.142   3.524   1.986
  673HOH      O 2204   3.476   3.472   2.959
  673HOH     H1 2205   3.540   3.402   2.960
  673HOH     H2 2206   3.526   3.551   2.982
  674HOH      O 2207   1.021   2.871   1.272
  674HOH     H1 2208   0.977   2.809   1.331
  674HOH     H2 2209   0.949   2.923   1.237
  675HOH      O 2210   2.936   3.793   3.489
  675HOH     H1 2211   2.994   3.751   3.552
  675HOH     H2 2212   2.917   3.879   3.527
  676HOH      O 2213   3.347   1.615   1.287
  676HOH     H1 2214   3.332   1.586   1.377
  676HOH     H2 2215   3.317   1.706   1.285
  677HOH      O 2216   3.211   2.376   0.572
  677HOH     H1 2217   3.284   2.394   0.632
  677HOH     H2 2218   3.158   2.311   0.618
  678HOH      O 2219   0.671   2.433   0.270
  678HOH     H1 2220   0.732   2.498   0.235
  678HOH     H2 2221   0.619   2.406   0.195
  679HOH      O 2222   2.873   2.068   1.338
  679HOH     H1 2223   2.827   1.988   1.315
  679HOH     H2 2224   2.955   2.038   1.377
  680HOH      O 2225   0.646   3.865   2.387
  680HOH     H1 2226   0.649   3.770   2.378
  680HOH     H2 2227   0.627   3.879   2.480
  681HOH      O 2228   1.304   0.013   1.014
  681HOH     H1 2229   1.225   0.054   0.979
  681HOH     H2 2230   1.345   0.080   1.068
  682HOH      O 2231   1.473   1.586   1.976
  682HOH     H1 2232   1.392   1.593   1.926
  682HOH     H2 2233   1.475   1.664   2.031
  683HOH      O 2234   2.101   2.444   1.237
  683HOH     H1 2235   2.070   2.489   1.316
  683HOH     H2 2236   2.183   2.488   1.215
  684HOH      O 2237   0.827   3.751   3.078
  684HOH     H1 2238   0.785   3.837   3.079
  684HOH     H2 2239   0.856   3.740   2.987
  685HOH      O 2240   2.227   0.779   0.683
  685HOH     H1 2241   2.153   0.831   0.714
  685HOH     H2 2242   2.289   0.780   0.756
  686HOH      O 2243   1.568   1.064   3.844
  686HOH     H1 2244   1.477   1.039   3.861
  686HOH     H2 2245   1.563   1.114   3.762
  687HOH      O 2246   0.595   2.993   0.779
  687HOH     H1 2247   0.620   2.973   0.869
  687HOH     H2 2248   0.582   2.907   0.738
  688HOH      O 2249   0.125   0.430   2.227
  688HOH     H1 2250   0.113   0.513   2.181
  688HOH     H2 2251   0.220   0.422   2.236
  689HOH      O 2252   3.037   2.781   0.466
  689HOH     H1 2253   3.032   2.754   0.558
  689HOH     H2 2254   2.949   2.813   0.446
  690HOH      O 2255   0.477   2.949   1.907
  690HOH     H1 2256   0.545   2.948   1.975
  690HOH     H2 2257   0.416   3.017   1.936
  691HOH      O 2258   3.966   2.447   3.964
  691HOH     H1 2259   3.975   2.442   3.869
  691HOH     H2 2260   3.953   2.541   3.981
  692HOH      O 2261   0.631   2.742   3.960
  692HOH     H1 2262   0.585   2.720   4.040
  692HOH     H2 2263   0.591   2.688   3.892
  693HOH      O 2264   0.045   0.815   0.871
  693HOH     H1 2265  -0.023   0.841   0.809
  693HOH     H2 2266  -0.003   0.788   0.949
  694HOH      O 2267   1.161   0.277   1.982
  694HOH     H1 2268   1.113   0.194   1.979
  694HOH     H2 2269   1.241   0.257   2.030
  695HOH      O 2270   3.725   0.301   3.795
  695HOH     H1 2271   3.667   0.330   3.724
  695HOH     H2 2272   3.792   0.248   3.750
  696HOH      O 2273   3.891   2.121   1.438
  696HOH     H1 2274   3.940   2.145   1.359
  696HOH     H2 2275   3.949   2.063   1.486
  697HOH      O 2276   0.287   1.072   2.891
  697HOH     H1 2277   0.359   1.068   2.829
  697HOH     H2 2278   0.318   1.025   2.968
  698HOH      O 2279   1.338   2.232   3.759
  698HOH     H1 2280   1.358   2.219   3.851
  698HOH     H2 2281   1.361   2.323   3.742
  699HOH      O 2282   0.348   1.779   3.296
  699HOH     H1 2283   0.297   1.772   3.376
  699HOH     H2 2284   0.431   1.737   3.316
  700HOH      O 2285   2.840   1.727   0.870
  700HOH     H1 2286   2.893   1.688   0.940
  700HOH     H2 2287   2.802   1.651   0.825
  701HOH      O 2288   0.231   3.868   1.862
  701HOH     H1 2289   0.137   3.856   1.876
  701HOH     H2 2290   0.253   3.804   1.795
  702HOH      O 2291   1.799   3.753   2.694
  702HOH     H1 2292   1.750   3.806   2.631
  702HOH     H2 2293   1.776   3.663   2.673
  703HOH      O 2294   0.891   1.998   3.770
  703HOH     H1 2295   0.875   1.932   3.703
  703HOH     H2 2296   0.940   2.067   3.725
  704HOH      O 2297   0.302   3.292   1.274
  704HOH     H1 2298   0.221   3.279   1.226
  704HOH     H2 2299   0.280   3.359   1.340
  705HOH      O 2300   1.680   1.291   2.272
  705HOH     H1 2301   1.683   1.327   2.183
  705HOH     H2 2302   1.660   1.366   2.328
  706HOH      O 2303   0.332   3.457   0.504
  706HOH     H1 2304   0.348   3.537   0.554
  706HOH     H2 2305   0.307   3.488   0.417
  707HOH      O 2306   1.967   0.843   0.771
  707HOH     H1 2307   1.923   0.907   0.826
  707HOH     H2 2308   1.903   0.823   0.702
  708HOH      O 2309   1.120   2.487   2.681
  708HOH     H1 2310   1.049   2.432   2.717
  708HOH     H2 2311   1.095   2.501   2.590
  709HOH      O 2312   1.500   3.787   0.271
  709HOH     H1 2313   1.420   3.823   0.309
  709HOH     H2 2314   1.570   3.827   0.322
  710HOH      O 2315   1.363   1.030   2.336
  710HOH     H1 2316   1.293   0.970   2.362
  710HOH     H2 2317   1.424   1.030   2.410
  711HOH      O 2318   2.274   2.599   1.487
  711HOH     H1 2319   2.346   2.616   1.547
  711HOH     H2 2320   2.196   2.631   1.533
  712HOH      O 2321   0.620   3.932   3.657
  712HOH     H1 2322   0.572   3.866   3.707
  712HOH     H2 2323   0.673   3.978   3.722
  713HOH      O 2324   2.154   1.088   1.704
  713HOH     H1 2325   2.153   1.136   1.622
  713HOH     H2 2326   2.175   0.998   1.679
  714HOH      O 2327   3.941   2.195   0.068
  714HOH     H1 2328   3.963   2.276   0.023
  714HOH     H2 2329   3.872   2.220   0.130
  715HOH      O 2330   2.328   3.474   1.780
  715HOH     H1 2331   2.422   3.493   1.789
  715HOH     H2 2332   2.288   3.559   1.761
  716HOH      O 2333   0.334   3.646   2.309
  716HOH     H1 2334   0.243   3.675   2.296
  716HOH     H2 2335   0.381   3.679   2.233
  717HOH      O 2336   3.592   1.420   3.575
  717HOH     H1 2337   3.589   1.332   3.611
  717HOH     H2 2338   3.653   1.467   3.631
  718HOH      O 2339   2.361   0.154   2.798
  718HOH     H1 2340   2.285   0.141   2.741
  718HOH     H2 2341   2.414   0.075   2.786
  719HOH      O 2342   3.249   0.657   0.811
  719HOH     H1 2343   3.227   0.586   0.750
  719HOH     H2 2344   3.335   0.688   0.782
  720HOH      O 2345   3.315   3.218   2.864
  720HOH     H1 2346   3.277   3.224   2.777
  720HOH     H2 2347   3.301   3.304   2.902
  721HOH      O 2348   1.001   1.086   3.742
  721HOH     H1 2349   0.990   1.165   3.796
  721HOH     H2 2350   0.916   1.074   3.700
  722HOH      O 2351   3.251   1.124   0.711
  722HOH     H1 2352   3.251   1.089   0.800
  722HOH     H2 2353   3.159   1.124   0.686
  723HOH      O 2354   0.040   3.414   3.160
  723HOH     H1 2355  -0.031   3.417   3.223
  723HOH     H2 2356   0.002   3.449   3.079
  724HOH      O 2357   3.301   0.024   1.385
  724HOH     H1 2358   3.233   0.056   1.444
  724HOH     H2 2359   3.357   0.099   1.370
  725HOH      O 2360   0.899   1.806   0.893
  725HOH     H1 2361   0.891   1.716   0.861
  725HOH     H2 2362   0.872   1.861   0.819
  726HOH      O 2363   3.010   1.344   2.717
  726HOH     H1 2364   3.060   1.301   2.786
  726HOH     H2 2365   2.934   1.288   2.702
  727HOH      O 2366   3.639   2.843   0.762
  727HOH     H1 2367   3.552   2.818   0.794
  727HOH     H2 2368   3.681   2.760   0.740
  728HOH      O 2369   3.635   4.021   0.541
  728HOH     H1 2370   3.575   3.979   0.479
  728HOH     H2 2371   3.582   4.088   0.584
  729HOH      O 2372   0.816   2.808   0.676
  729HOH     H1 2373   0.862   2.745   0.621
  729HOH     H2 2374   0.729   2.770   0.688
  730HOH      O 2375   2.973   2.774   1.159
  730HOH     H1 2376   2.965   2.690   1.113
  730HOH     H2 2377   3.046   2.818   1.116
  731HOH      O 2378   1.597   0.954   1.066
  731HOH     H1 2379   1.521   0.907   1.033
  731HOH     H2 2380   1.563   1.040   1.091
  732HOH      O 2381   1.137   3.529   3.546
  732HOH     H1 2382   1.045   3.533   3.521
  732HOH     H2 2383   1.170   3.617   3.529
  733HOH      O 2384   0.702   0.565   3.972
  733HOH     H1 2385   0.619   0.612   3.984
  733HOH     H2 2386   0.677   0.473   3.967
  734HOH      O 2387   1.910   0.872   3.775
  734HOH     H1 2388   1.842   0.811   3.745
  734HOH     H2 2389   1.990   0.840   3.733
  735HOH      O 2390   0.490   0.814   0.288
  735HOH     H1 2391   0.554   0.746   0.267
  735HOH     H2 2392   0.538   0.896   0.282
  736HOH      O 2393   0.572   1.288   2.261
  736HOH     H1 2394   0.641   1.233   2.300
  736HOH     H2 2395   0.533   1.233   2.193
  737HOH      O 2396   2.563   3.262   2.473
  737HOH     H1 2397   2.576   3.304   2.388
  737HOH     H2 2398   2.486   3.205   2.459
  738HOH      O 2399   0.931   2.633   1.389
  738HOH     H1 2400   0.948   2.607   1.299
  738HOH     H2 2401   0.979   2.570   1.442
  739HOH      O 2402   3.223   0.663   3.567
  739HOH     H1 2403   3.272   0.634   3.644
  739HOH     H2 2404   3.282   0.643   3.494
  740HOH      O 2405   1.569   1.982   3.857
  740HOH     H1 2406   1.660   2.004   3.881
  740HOH     H2 2407   1.562   2.006   3.765
  741HOH      O 2408   2.731   0.739   1.579
  741HOH     H1 2409   2.664   0.763   1.516
  741HOH     H2 2410   2.812   0.776   1.543
  742HOH      O 2411   0.128   1.107   2.053
  742HOH     H1 2412   0.147   1.020   2.019
  742HOH     H2 2413   0.139   1.099   2.148
  743HOH      O 2414   0.767   0.257   0.264
  743HOH     H1 2415   0.824   0.320   0.221
  743HOH     H2 2416   0.765   0.182   0.205
  744HOH      O 2417   1.765   1.314   0.630
  744HOH     H1 2418   1.743   1.405   0.650
  744HOH     H2 2419   1.841   1.320   0.572
  745HOH      O 2420   2.369   3.769   1.726
  745HOH     H1 2421   2.356   3.850   1.677
  745HOH     H2 2422   2.452   3.735   1.694
  746HOH      O 2423   3.417   2.729   2.538
  746HOH     H1 2424   3.373   2.787   2.475
  746HOH     H2 2425   3.382   2.642   2.518
  747HOH      O 2426   2.414   2.854   0.116
  747HOH     H1 2427   2.402   2.947   0.133
  747HOH     H2 2428   2.329   2.824   0.084
  748HOH      O 2429   3.895   0.949   1.519
  748HOH     H1 2430   3.894   0.968   1.613
  748HOH     H2 2431   3.950   0.871   1.511
  749HOH      O 2432   1.110   3.419   2.989
  749HOH     H1 2433   1.157   3.491   3.032
  749HOH     H2 2434   1.177   3.377   2.933
  750HOH      O 2435   2.420   1.199   0.560
  750HOH     H1 2436   2.341   1.182   0.612
  750HOH     H2 2437   2.391   1.191   0.469
  751HOH      O 2438   3.615   1.857   3.407
  751HOH     H1 2439   3.612   1.862   3.311
  751HOH     H2 2440   3.689   1.800   3.425
  752HOH      O 2441   1.029   3.869   3.584
  752HOH     H1 2442   1.107   3.833   3.540
  752HOH     H2 2443   0.999   3.938   3.526
  753HOH      O 2444   0.479   0.854   3.755
  753HOH     H1 2445   0.392   0.843   3.794
  753HOH     H2 2446   0.473   0.938   3.710
  754HOH      O 2447   0.316   1.934   1.337
  754HOH     H1 2448   0.321   2.028   1.358
  754HOH     H2 2449   0.231   1.924   1.294
  755HOH      O 2450   1.769   3.214   1.645
  755HOH     H1 2451   1.712   3.139   1.657
  755HOH     H2 2452   1.757   3.268   1.723
  756HOH      O 2453   3.463   0.510   1.450
  756HOH     H1 2454   3.508   0.437   1.493
  756HOH     H2 2455   3.407   0.548   1.519
  757HOH      O 2456   2.668   2.866   1.089
  757HOH     H1 2457   2.753   2.879   1.132
  757HOH     H2 2458   2.678   2.908   1.004
  758HOH      O 2459   1.612   0.717   3.937
  758HOH     H1 2460   1.645   0.742   3.850
  758HOH     H2 2461   1.669   0.645   3.963
  759HOH      O 2462   3.771   3.742   3.976
  759HOH     H1 2463   3.682   3.721   3.947
  759HOH     H2 2464   3.767   3.736   4.072
  760HOH      O 2465   2.273   0.597   0.490
  760HOH     H1 2466   2.249   0.668   0.551
  760HOH     H2 2467   2.281   0.520   0.546
  761HOH      O 2468   0.972   2.427   3.166
  761HOH     H1 2469   0.935   2.361   3.225
  761HOH     H2 2470   1.060   2.394   3.146
  762HOH      O 2471   0.209   1.126   3.675
  762HOH     H1 2472   0.131   1.173   3.648
  762HOH     H2 2473   0.187   1.091   3.762
  763HOH      O 2474   3.260   1.838   3.462
  763HOH     H1 2475   3.329   1.902   3.477
  763HOH     H2 2476   3.286   1.761   3.513
  764HOH      O 2477   2.500   1.121   2.454
  764HOH     H1 2478   2.536   1.046   2.500
  764HOH     H2 2479   2.473   1.181   2.523
  765HOH      O 2480   2.299   3.791   1.232
  765HOH     H1 2481   2.269   3.713   1.278
  765HOH     H2 2482   2.221   3.824   1.188
  766HOH      O 2483   3.814   1.033   0.305
  766HOH     H1 2484   3.848   1.056   0.219
  766HOH     H2 2485   3.848   0.945   0.322
  767HOH      O 2486   4.021   3.940   2.965
  767HOH     H1 2487   3.993   4.019   2.919
  767HOH     H2 2488   4.022   3.872   2.897
  768HOH      O 2489   2.875   2.733   0.077
  768HOH     H1 2490   2.898   2.665   0.141
  768HOH     H2 2491   2.836   2.803   0.129
  769HOH      O 2492   3.948   3.356   1.996
  769HOH     H1 2493   3.869   3.400   2.026
  769HOH     H2 2494   4.020   3.407   2.034
  770HOH      O 2495   0.071   3.749   2.229
  770HOH     H1 2496  -0.003   3.786   2.181
  770HOH     H2 2497   0.107   3.822   2.279
  771HOH      O 2498   1.123   0.173   3.810
  771HOH     H1 2499   1.098   0.082   3.823
  771HOH     H2 2500   1.197   0.169   3.749
  772HOH      O 2501   0.756   1.235   1.979
  772HOH     H1 2502   0.823   1.170   1.998
  772HOH     H2 2503   0.701   1.194   1.912
  773HOH      O 2504   3.108   1.400   0.521
  773HOH     H1 2505   3.194   1.436   0.496
  773HOH     H2 2506   3.050   1.477   0.523
  774HOH      O 2507   1.053   0.712   3.805
  774HOH     H1 2508   1.119   0.778   3.825
  774HOH     H2 2509   0.972   0.747   3.842
  775HOH      O 2510   4.018   0.090   3.390
  775HOH     H1 2511   4.113   0.101   3.396
  775HOH     H2 2512   4.006   0.014   3.332
  776HOH      O 2513   2.879   2.468   0.216
  776HOH     H1 2514   2.826   2.451   0.138
  776HOH     H2 2515   2.835   2.422   0.287
  777HOH      O 2516   3.869   3.193   1.449
  777HOH     H1 2517   3.790   3.140   1.442
  777HOH     H2 2518   3.934   3.135   1.488
  778HOH      O 2519   3.009   2.850   2.172
  778HOH     H1 2520   3.035   2.930   2.126
  778HOH     H2 2521   2.925   2.826   2.133
  779HOH      O 2522   1.513   0.842   3.240
  779HOH     H1 2523   1.501   0.932   3.210
  779HOH     H2 2524   1.607   0.826   3.231
  780HOH      O 2525   2.093   2.349   0.085
  780HOH     H1 2526   2.145   2.423   0.116
  780HOH     H2 2527   2.009   2.358   0.132
  781HOH      O 2528   0.748   0.506   3.373
  781HOH     H1 2529   0.716   0.485   3.285
  781HOH     H2 2530   0.697   0.450   3.431
  782HOH      O 2531   3.348   1.963   2.302
  782HOH     H1 2532   3.309   2.022   2.367
  782HOH     H2 2533   3.391   1.895   2.355
  783HOH      O 2534   3.741   0.247   3.031
  783HOH     H1 2535   3.767   0.308   2.962
  783HOH     H2 2536   3.803   0.264   3.102
  784HOH      O 2537   1.300   0.722   1.126
  784HOH     H1 2538   1.259   0.724   1.212
  784HOH     H2 2539   1.227   0.731   1.064
  785HOH      O 2540   3.233   0.447   0.229
  785HOH     H1 2541   3.211   0.377   0.290
  785HOH     H2 2542   3.151   0.495   0.217
  786HOH      O 2543   0.579   3.913   0.758
  786HOH     H1 2544   0.632   3.990   0.779
  786HOH     H2 2545   0.642   3.844   0.739
  787HOH      O 2546   3.487   0.658   2.811
  787HOH     H1 2547   3.554   0.646   2.879
  787HOH     H2 2548   3.530   0.712   2.745
  788HOH      O 2549   3.152   1.465   3.166
  788HOH     H1 2550   3.209   1.472   3.243
  788HOH     H2 2551   3.065   1.485   3.200
  789HOH      O 2552   3.123   0.528   2.155
  789HOH     H1 2553   3.141   0.444   2.198
  789HOH     H2 2554   3.132   0.509   2.062
  790HOH      O 2555   0.286   2.215   3.013
  790HOH     H1 2556   0.379   2.196   3.023
  790HOH     H2 2557   0.259   2.250   3.098
  791HOH      O 2558   2.839   1.394   1.997
  791HOH     H1 2559   2.750   1.428   1.991
  791HOH     H2 2560   2.849   1.367   2.088
  792HOH      O 2561   1.253   0.436   2.498
  792HOH     H1 2562   1.280   0.370   2.434
  792HOH     H2 2563   1.313   0.424   2.572
  793HOH      O 2564   1.351   0.198   1.756
  793HOH     H1 2565   1.271   0.242   1.785
  793HOH     H2 2566   1.321   0.132   1.694
  794HOH      O 2567   0.093   2.590   1.953
  794HOH     H1 2568   0.049   2.663   1.996
  794HOH     H2 2569   0.114   2.529   2.024
  795HOH      O 2570   2.474   0.117   2.426
  795HOH     H1 2571   2.386   0.131   2.460
  795HOH     H2 2572   2.485   0.022   2.426
  796HOH      O 2573   0.694   1.908   1.220
  796HOH     H1 2574   0.767   1.923   1.160
  796HOH     H2 2575   0.616   1.920   1.166
  797HOH      O 2576   0.610   1.653   3.286
  797HOH     H1 2577   0.608   1.557   3.294
  797HOH     H2 2578   0.667   1.670   3.211
  798HOH      O 2579   2.999   0.732   0.871
  798HOH     H1 2580   3.092   0.715   0.854
  798HOH     H2 2581   2.953   0.676   0.809
  799HOH      O 2582   0.201   0.281   3.128
  799HOH     H1 2583   0.282   0.332   3.122
  799HOH     H2 2584   0.218   0.204   3.074
  800HOH      O 2585   3.490   1.313   3.150
  800HOH     H1 2586   3.470   1.344   3.061
  800HOH     H2 2587   3.501   1.393   3.201
  801HOH      O 2588   1.781   0.068   1.544
  801HOH     H1 2589   1.736   0.069   1.460
  801HOH     H2 2590   1.719   0.107   1.605
  802HOH      O 2591   4.016   3.886   3.236
  802HOH     H1 2592   4.021   3.909   3.144
  802HOH     H2 2593   3.947   3.820   3.240
  803HOH      O 2594   2.962   0.859   1.492
  803HOH     H1 2595   2.945   0.945   1.454
  803HOH     H2 2596   3.058   0.852   1.494
  804HOH      O 2597   0.374   0.495   2.483
  804HOH     H1 2598   0.368   0.591   2.490
  804HOH     H2 2599   0.385   0.479   2.389
  805HOH      O 2600   0.525   2.406   0.055
  805HOH     H1 2601   0.543   2.359  -0.026
  805HOH     H2 2602   0.469   2.479   0.030
  806HOH      O 2603   2.035   3.874   1.758
  806HOH     H1 2604   2.005   3.953   1.803
  806HOH     H2 2605   2.058   3.813   1.829
  807HOH      O 2606   0.032   0.077   1.225
  807HOH     H1 2607  -0.003  -0.011   1.219
  807HOH     H2 2608   0.121   0.071   1.190
  808HOH      O 2609   1.651   0.806   3.698
  808HOH     H1 2610   1.594   0.781   3.625
  808HOH     H2 2611   1.604   0.876   3.743
  809HOH      O 2612   3.832   3.133   0.312
  809HOH     H1 2613   3.882   3.213   0.294
  809HOH     H2 2614   3.865   3.070   0.248
  810HOH      O 2615   0.409   3.685   1.045
  810HOH     H1 2616   0.476   3.717   1.106
  810HOH     H2 2617   0.433   3.593   1.030
  811HOH      O 2618   0.731   0.859   2.623
  811HOH     H1 2619   0.788   0.875   2.698
  811HOH     H2 2620   0.782   0.804   2.564
  812HOH      O 2621   1.817   0.538   4.023
  812HOH     H1 2622   1.869   0.613   4.053
  812HOH     H2 2623   1.877   0.464   4.031
  813HOH      O 2624   3.259   0.142   1.050
  813HOH     H1 2625   3.321   0.098   1.108
  813HOH     H2 2626   3.184   0.164   1.106
  814HOH      O 2627   0.707   0.397   0.492
  814HOH     H1 2628   0.639   0.339   0.525
  814HOH     H2 2629   0.737   0.355   0.411
  815HOH      O 2630   1.355   0.080   2.662
  815HOH     H1 2631   1.362   0.063   2.755
  815HOH     H2 2632   1.293   0.015   2.630
  816HOH      O 2633   2.503   0.108   3.746
  816HOH     H1 2634   2.545   0.162   3.813
  816HOH     H2 2635   2.537   0.142   3.663
  817HOH      O 2636   0.336   3.158   2.103
  817HOH     H1 2637   0.394   3.225   2.140
  817HOH     H2 2638   0.330   3.092   2.172
  818HOH      O 2639   3.730   2.560   2.833
  818HOH     H1 2640   3.698   2.596   2.750
  818HOH     H2 2641   3.825   2.567   2.827
  819HOH      O 2642   3.083   2.216   1.771
  819HOH     H1 2643   3.028   2.147   1.808
  819HOH     H2 2644   3.171   2.179   1.769
  820HOH      O 2645   0.166   2.211   2.501
  820HOH     H1 2646   0.103   2.164   2.555
  820HOH     H2 2647   0.121   2.292   2.477
  821HOH      O 2648   3.614   0.322   1.561
  821HOH     H1 2649   3.584   0.288   1.645
  821HOH     H2 2650   3.704   0.352   1.577
  822HOH      O 2651   0.699   0.694   2.086
  822HOH     H1 2652   0.648   0.748   2.145
  822HOH     H2 2653   0.790   0.718   2.104
  823HOH      O 2654   3.833   2.969   1.862
  823HOH     H1 2655   3.837   3.043   1.801
  823HOH     H2 2656   3.795   2.897   1.811
  824HOH      O 2657   2.751   0.076   2.451
  824HOH     H1 2658   2.665   0.118   2.453
  824HOH     H2 2659   2.753   0.028   2.368
  825HOH      O 2660   0.947   0.216   2.974
  825HOH     H1 2661   1.003   0.272   3.029
  825HOH     H2 2662   0.897   0.278   2.921
  826HOH      O 2663   3.637   2.239   2.285
  826HOH     H1 2664   3.589   2.317   2.259
  826HOH     H2 2665   3.683   2.264   2.365
  827HOH      O 2666   1.240   2.894   1.038
  827HOH     H1 2667   1.191   2.890   0.956
  827HOH     H2 2668   1.176   2.923   1.103
  828HOH      O 2669   1.720   1.418   3.197
  828HOH     H1 2670   1.654   1.408   3.128
  828HOH     H2 2671   1.674   1.392   3.277
  829HOH      O 2672   3.584   2.070   0.825
  829HOH     H1 2673   3.647   2.049   0.894
  829HOH     H2 2674   3.502   2.086   0.872
  830HOH      O 2675   3.221   2.858   2.362
  830HOH     H1 2676   3.168   2.840   2.440
  830HOH     H2 2677   3.162   2.840   2.289
  831HOH      O 2678   3.155   2.078   3.884
  831HOH     H1 2679   3.113   2.086   3.798
  831HOH     H2 2680   3.082   2.080   3.945
  832HOH      O 2681   3.485   2.156   1.590
  832HOH     H1 2682   3.459   2.227   1.649
  832HOH     H2 2683   3.478   2.077   1.643
  833HOH      O 2684   0.818   2.974   0.974
  833HOH     H1 2685   0.822   3.030   1.051
  833HOH     H2 2686   0.820   2.885   1.010
  834HOH      O 2687   2.396   2.074   1.730
  834HOH     H1 2688   2.364   2.051   1.643
  834HOH     H2 2689   2.428   1.991   1.766
  835HOH      O 2690   3.617   1.543   0.263
  835HOH     H1 2691   3.595   1.454   0.291
  835HOH     H2 2692   3.631   1.591   0.345
  836HOH      O 2693   2.593   0.449   2.382
  836HOH     H1 2694   2.582   0.365   2.337
  836HOH     H2 2695   2.679   0.480   2.354
  837HOH      O 2696   0.574   0.330   3.984
  837HOH     H1 2697   0.492   0.355   4.027
  837HOH     H2 2698   0.557   0.243   3.948
  838HOH      O 2699   0.174   2.858   0.732
  838HOH     H1 2700   0.245   2.818   0.782
  838HOH     H2 2701   0.218   2.898   0.657
  839HOH      O 2702   3.419   1.139   0.284
  839HOH     H1 2703   3.346   1.181   0.237
  839HOH     H2 2704   3.478   1.110   0.214
  840HOH      O 2705   2.605   0.009   1.744
  840HOH     H1 2706   2.618  -0.073   1.696
  840HOH     H2 2707   2.524   0.045   1.708
  841HOH      O 2708   2.910   2.497   3.302
  841HOH     H1 2709   2.978   2.429   3.306
  841HOH     H2 2710   2.958   2.576   3.277
  842HOH      O 2711   2.542   2.209   3.337
  842HOH     H1 2712   2.458   2.194   3.295
  842HOH     H2 2713   2.583   2.277   3.284
  843HOH      O 2714   1.255   3.325   1.844
  843HOH     H1 2715   1.309   3.338   1.921
  843HOH     H2 2716   1.182   3.387   1.854
  844HOH      O 2717   1.037   3.464   1.074
  844HOH     H1 2718   1.115   3.505   1.037
  844HOH     H2 2719   1.070   3.412   1.148
  845HOH      O 2720   3.472   1.110   3.337
  845HOH     H1 2721   3.377   1.125   3.340
  845HOH     H2 2722   3.501   1.156   3.258
  846HOH      O 2723   3.192   3.481   2.307
  846HOH     H1 2724   3.236   3.426   2.371
  846HOH     H2 2725   3.187   3.567   2.349
  847HOH      O 2726   2.639   0.838   3.951
  847HOH     H1 2727   2.652   0.805   3.862
  847HOH     H2 2728   2.645   0.933   3.942
  848HOH      O 2729   2.749   2.214   3.504
  848HOH     H1 2730   2.679   2.223   3.439
  848HOH     H2 2731   2.758   2.302   3.542
  849HOH      O 2732   3.127   1.919   3.224
  849HOH     H1 2733   3.167   1.879   3.147
  849HOH     H2 2734   3.179   1.886   3.298
  850HOH      O 2735   0.570   1.638   3.999
  850HOH     H1 2736   0.563   1.690   3.919
  850HOH     H2 2737   0.564   1.702   4.069
  851HOH      O 2738   3.755   1.178   0.504
  851HOH     H1 2739   3.665   1.193   0.476
  851HOH     H2 2740   3.794   1.126   0.434
  852HOH      O 2741   1.782   2.963   1.218
  852HOH     H1 2742   1.689   2.949   1.236
  852HOH     H2 2743   1.827   2.904   1.278
  853HOH      O 2744   3.442   1.044   1.184
  853HOH     H1 2745   3.351   1.067   1.164
  853HOH     H2 2746   3.441   0.950   1.200
  854HOH      O 2747   3.069   3.452   3.731
  854HOH     H1 2748   3.113   3.404   3.661
  854HOH     H2 2749   3.096   3.543   3.718
  855HOH      O 2750   3.531   1.692   1.881
  855HOH     H1 2751   3.490   1.693   1.967
  855HOH     H2 2752   3.583   1.612   1.880
  856HOH      O 2753   2.321   1.250   2.963
  856HOH     H1 2754   2.251   1.187   2.945
  856HOH     H2 2755   2.324   1.255   3.059
  857HOH      O 2756   3.454   3.333   2.406
  857HOH     H1 2757   3.525   3.328   2.470
  857HOH     H2 2758   3.438   3.242   2.382
  858HOH      O 2759   3.676   2.989   0.503
  858HOH     H1 2760   3.732   2.943   0.566
  858HOH     H2 2761   3.734   3.053   0.463
  859HOH      O 2762   3.222   2.775   1.379
  859HOH     H1 2763   3.157   2.705   1.386
  859HOH     H2 2764   3.268   2.774   1.463
  860HOH      O 2765   2.925   2.769   2.428
  860HOH     H1 2766   2.850   2.820   2.459
  860HOH     H2 2767   2.911   2.761   2.334
  861HOH      O 2768   2.767   0.717   1.037
  861HOH     H1 2769   2.790   0.781   1.104
  861HOH     H2 2770   2.850   0.695   0.995
  862HOH      O 2771   1.094   0.019   1.965
  862HOH     H1 2772   1.118   0.031   1.873
  862HOH     H2 2773   1.129  -0.067   1.988
  863HOH      O 2774   2.560   3.976   2.804
  863HOH     H1 2775   2.653   3.954   2.805
  863HOH     H2 2776   2.516   3.892   2.789
  864HOH      O 2777   1.909   3.326   2.212
  864HOH     H1 2778   1.910   3.305   2.306
  864HOH     H2 2779   1.882   3.244   2.170
  865HOH      O 2780   1.390   1.781   2.144
  865HOH     H1 2781   1.374   1.783   2.238
  865HOH     H2 2782   1.364   1.868   2.113
  866HOH      O 2783   0.583   1.358   3.519
  866HOH     H1 2784   0.635   1.406   3.584
  866HOH     H2 2785   0.604   1.401   3.436
  867HOH      O 2786   3.866   0.897   1.263
  867HOH     H1 2787   3.850   0.979   1.217
  867HOH     H2 2788   3.892   0.924   1.351
  868HOH      O 2789   1.268   2.103   1.433
  868HOH     H1 2790   1.286   2.045   1.359
  868HOH     H2 2791   1.346   2.159   1.439
  869HOH      O 2792   1.380   3.515   1.131
  869HOH     H1 2793   1.448   3.466   1.176
  869HOH     H2 2794   1.382   3.482   1.041
  870HOH      O 2795   2.436   0.565   3.971
  870HOH     H1 2796   2.465   0.641   4.021
  870HOH     H2 2797   2.407   0.502   4.036
  871HOH      O 2798   1.427   0.534   3.660
  871HOH     H1 2799   1.518   0.530   3.689
  871HOH     H2 2800   1.376   0.523   3.740
  872HOH      O 2801   0.171   1.956   2.868
  872HOH     H1 2802   0.134   1.937   2.955
  872HOH     H2 2803   0.223   2.035   2.881
  873HOH      O 2804   1.839   1.364   0.072
  873HOH     H1 2805   1.814   1.382   0.162
  873HOH     H2 2806   1.758   1.337   0.029
  874HOH      O 2807   1.849   1.292   1.066
  874HOH     H1 2808   1.768   1.249   1.039
  874HOH     H2 2809   1.839   1.305   1.160
  875HOH      O 2810   1.648   3.264   1.917
  875HOH     H1 2811   1.655   3.170   1.933
  875HOH     H2 2812   1.563   3.288   1.955
  876HOH      O 2813   0.602   3.727   1.244
  876HOH     H1 2814   0.626   3.819   1.233
  876HOH     H2 2815   0.620   3.708   1.336
  877HOH      O 2816   0.234   1.002   2.288
  877HOH     H1 2817   0.215   1.046   2.372
  877HOH     H2 2818   0.165   0.935   2.281
  878HOH      O 2819   0.556   3.693   3.205
  878HOH     H1 2820   0.557   3.780   3.243
  878HOH     H2 2821   0.631   3.692   3.146
  879HOH      O 2822   3.579   0.054   2.575
  879HOH     H1 2823   3.513   0.071   2.642
  879HOH     H2 2824   3.656   0.104   2.603
  880HOH      O 2825   2.462   0.405   1.940
  880HOH     H1 2826   2.420   0.332   1.894
  880HOH     H2 2827   2.551   0.374   1.958
  881HOH      O 2828   1.104   2.036   1.889
  881HOH     H1 2829   1.134   1.977   1.958
  881HOH     H2 2830   1.181   2.049   1.833
  882HOH      O 2831   1.558   1.694   2.487
  882HOH     H1 2832   1.503   1.650   2.421
  882HOH     H2 2833   1.647   1.668   2.464
  883HOH      O 2834   0.115   0.721   3.042
  883HOH     H1 2835   0.205   0.755   3.042
  883HOH     H2 2836   0.114   0.655   2.973
  884HOH      O 2837   2.073   0.028   0.207
  884HOH     H1 2838   1.985   0.021   0.171
  884HOH     H2 2839   2.065  -0.003   0.297
  885HOH      O 2840   3.061   3.099   3.069
  885HOH     H1 2841   3.042   3.018   3.021
  885HOH     H2 2842   3.048   3.169   3.004
  886HOH      O 2843   0.229   0.088   2.923
  886HOH     H1 2844   0.151   0.032   2.914
  886HOH     H2 2845   0.238   0.131   2.839
  887HOH      O 2846   3.035   2.794   3.411
  887HOH     H1 2847   3.107   2.857   3.418
  887HOH     H2 2848   3.021   2.785   3.317
  888HOH      O 2849   2.888   3.851   2.510
  888HOH     H1 2850   2.859   3.933   2.471
  888HOH     H2 2851   2.830   3.785   2.472
  889HOH      O 2852   3.108   2.604   3.591
  889HOH     H1 2853   3.113   2.631   3.683
  889HOH     H2 2854   3.082   2.683   3.544
  890HOH      O 2855   1.097   3.697   0.162
  890HOH     H1 2856   1.121   3.772   0.108
  890HOH     H2 2857   1.075   3.734   0.247
  891HOH      O 2858   1.266   1.559   2.722
  891HOH     H1 2859   1.193   1.577   2.781
  891HOH     H2 2860   1.304   1.644   2.704
  892HOH      O 2861   3.373   0.590   3.774
  892HOH     H1 2862   3.379   0.513   3.831
  892HOH     H2 2863   3.464   0.615   3.757
  893HOH      O 2864   0.694   3.319   2.945
  893HOH     H1 2865   0.625   3.257   2.969
  893HOH     H2 2866   0.648   3.395   2.912
  894HOH      O 2867   0.327   4.027   0.108
  894HOH     H1 2868   0.338   4.090   0.179
  894HOH     H2 2869   0.372   3.948   0.140
  895HOH      O 2870   3.041   0.241   0.044
  895HOH     H1 2871   3.010   0.180   0.111
  895HOH     H2 2872   3.125   0.205   0.015
  896HOH      O 2873   3.612   0.670   3.840
  896HOH     H1 2874   3.695   0.690   3.883
  896HOH     H2 2875   3.546   0.709   3.897
  897HOH      O 2876   0.776   1.984   3.494
  897HOH     H1 2877   0.705   2.037   3.530
  897HOH     H2 2878   0.827   2.046   3.442
  898HOH      O 2879   3.480   0.988   1.611
  898HOH     H1 2880   3.524   0.934   1.544
  898HOH     H2 2881   3.544   1.056   1.632
  899HOH      O 2882   1.958   1.385   2.615
  899HOH     H1 2883   2.038   1.401   2.665
  899HOH     H2 2884   1.984   1.322   2.547
  900HOH      O 2885   3.408   0.591   3.312
  900HOH     H1 2886   3.484   0.650   3.312
  900HOH     H2 2887   3.445   0.505   3.295
  901HOH      O 2888   2.298   2.244   1.395
  901HOH     H1 2889   2.239   2.270   1.324
  901HOH     H2 2890   2.250   2.267   1.475
  902HOH      O 2891   3.505   0.052   2.289
  902HOH     H1 2892   3.564  -0.013   2.251
  902HOH     H2 2893   3.515   0.041   2.384
  903HOH      O 2894   2.126   3.082   1.452
  903HOH     H1 2895   2.194   3.033   1.499
  903HOH     H2 2896   2.124   3.168   1.495
  904HOH      O 2897   1.168   1.476   2.221
  904HOH     H1 2898   1.232   1.424   2.173
  904HOH     H2 2899   1.085   1.429   2.210
  905HOH      O 2900   3.226   1.865   1.352
  905HOH     H1 2901   3.296   1.922   1.383
  905HOH     H2 2902   3.157   1.874   1.417
  906HOH      O 2903   2.351   1.270   3.242
  906HOH     H1 2904   2.263   1.251   3.276
  906HOH     H2 2905   2.403   1.291   3.319
  907HOH      O 2906   3.854   1.560   3.014
  907HOH     H1 2907   3.878   1.518   2.931
  907HOH     H2 2908   3.926   1.620   3.032
  908HOH      O 2909   0.407   3.709   0.595
  908HOH     H1 2910   0.377   3.722   0.684
  908HOH     H2 2911   0.497   3.742   0.595
  909HOH      O 2912   1.553   3.195   3.660
  909HOH     H1 2913   1.573   3.103   3.679
  909HOH     H2 2914   1.504   3.225   3.737
  910HOH      O 2915   1.039   3.267   2.567
  910HOH     H1 2916   0.987   3.209   2.511
  910HOH     H2 2917   0.984   3.283   2.644
  911HOH      O 2918   2.487   3.187   2.038
  911HOH     H1 2919   2.532   3.224   1.963
  911HOH     H2 2920   2.420   3.130   2.000
  912HOH      O 2921   1.252   1.672   2.390
  912HOH     H1 2922   1.253   1.635   2.478
  912HOH     H2 2923   1.203   1.608   2.338
  913HOH      O 2924   1.542   0.786   1.278
  913HOH     H1 2925   1.477   0.749   1.218
  913HOH     H2 2926   1.609   0.824   1.222
  914HOH      O 2927   0.802   2.387   3.562
  914HOH     H1 2928   0.870   2.433   3.611
  914HOH     H2 2929   0.841   2.304   3.538
  915HOH      O 2930   3.883   3.557   1.249
  915HOH     H1 2931   3.912   3.566   1.340
  915HOH     H2 2932   3.963   3.575   1.198
  916HOH      O 2933   2.721   1.480   2.986
  916HOH     H1 2934   2.664   1.438   2.921
  916HOH     H2 2935   2.672   1.476   3.067
  917HOH      O 2936   1.890   3.458   2.909
  917HOH     H1 2937   1.866   3.379   2.957
  917HOH     H2 2938   1.836   3.527   2.947
  918HOH      O 2939   1.700   3.637   2.985
  918HOH     H1 2940   1.653   3.692   2.922
  918HOH     H2 2941   1.638   3.625   3.057
  919HOH      O 2942   3.183   1.166   0.095
  919HOH     H1 2943   3.233   1.119   0.029
  919HOH     H2 2944   3.092   1.138   0.081
  920HOH      O 2945   2.883   0.130   1.717
  920HOH     H1 2946   2.844   0.138   1.630
  920HOH     H2 2947   2.819   0.080   1.768
  921HOH      O 2948   0.953   3.535   1.440
  921HOH     H1 2949   1.047   3.528   1.425
  921HOH     H2 2950   0.931   3.459   1.494
  922HOH      O 2951   2.997   0.177   2.269
  922HOH     H1 2952   2.962   0.094   2.303
  922HOH     H2 2953   2.996   0.166   2.174
  923HOH      O 2954   0.219   3.130   1.870
  923HOH     H1 2955   0.251   3.142   1.960
  923HOH     H2 2956   0.204   3.219   1.838
  924HOH      O 2957   1.731   2.097   0.225
  924HOH     H1 2958   1.731   2.159   0.153
  924HOH     H2 2959   1.639   2.072   0.234
  925HOH      O 2960   3.387   3.340   3.763
  925HOH     H1 2961   3.360   3.282   3.692
  925HOH     H2 2962   3.328   3.320   3.835
  926HOH      O 2963   2.511   3.769   3.124
  926HOH     H1 2964   2.541   3.742   3.211
  926HOH     H2 2965   2.457   3.696   3.094
  927HOH      O 2966   0.472   2.042   0.110
  927HOH     H1 2967   0.491   1.959   0.155
  927HOH     H2 2968   0.545   2.099   0.134
  928HOH      O 2969   2.387   3.618   3.831
  928HOH     H1 2970   2.385   3.566   3.751
  928HOH     H2 2971   2.441   3.694   3.808
  929HOH      O 2972   3.592   2.663   3.057
  929HOH     H1 2973   3.594   2.604   3.132
  929HOH     H2 2974   3.645   2.619   2.991
  930HOH      O 2975   3.125   3.239   0.511
  930HOH     H1 2976   3.157   3.154   0.479
  930HOH     H2 2977   3.063   3.216   0.581
  931HOH      O 2978   0.711   0.358   1.259
  931HOH     H1 2979   0.628   0.344   1.214
  931HOH     H2 2980   0.707   0.450   1.288
  932HOH      O 2981   2.577   0.231   0.958
  932HOH     H1 2982   2.591   0.326   0.960
  932HOH     H2 2983   2.665   0.193   0.956
  933HOH      O 2984   3.695   1.367   1.122
  933HOH     H1 2985   3.662   1.454   1.146
  933HOH     H2 2986   3.751   1.342   1.195
  934HOH      O 2987   1.139   3.369   0.489
  934HOH     H1 2988   1.051   3.397   0.515
  934HOH     H2 2989   1.193   3.446   0.504
  935HOH      O 2990   1.647   1.026   2.215
  935HOH     H1 2991   1.667   1.113   2.250
  935HOH     H2 2992   1.554   1.014   2.234
  936HOH      O 2993   3.045   0.846   3.425
  936HOH     H1 2994   3.104   0.794   3.479
  936HOH     H2 2995   3.098   0.920   3.394
  937HOH      O 2996   3.183   1.827   0.737
  937HOH     H1 2997   3.211   1.894   0.676
  937HOH     H2 2998   3.097   1.856   0.767
  938HOH      O 2999   0.130   2.850   0.038
  938HOH     H1 3000   0.134   2.775   0.097
  938HOH     H2 3001   0.169   2.818  -0.043
  939HOH      O 3002   2.722   1.112   3.443
  939HOH     H1 3003   2.645   1.075   3.399
  939HOH     H2 3004   2.760   1.172   3.379
  940HOH      O 3005   2.432   0.352   2.992
  940HOH     H1 3006   2.371   0.323   2.924
  940HOH     H2 3007   2.466   0.271   3.029
  941HOH      O 3008   0.274   3.101   3.832
  941HOH     H1 3009   0.311   3.178   3.877
  941HOH     H2 3010   0.330   3.028   3.859
  942HOH      O 3011   0.486   3.284   3.948
  942HOH     H1 3012   0.524   3.366   3.919
  942HOH     H2 3013   0.470   3.296   4.041
  943HOH      O 3014   3.127   3.868   1.256
  943HOH     H1 3015   3.129   3.793   1.316
  943HOH     H2 3016   3.188   3.932   1.296
  944HOH      O 3017   2.961   1.512   1.740
  944HOH     H1 3018   2.954   1.573   1.667
  944HOH     H2 3019   2.960   1.568   1.818
  945HOH      O 3020   0.309   2.156   0.885
  945HOH     H1 3021   0.272   2.231   0.838
  945HOH     H2 3022   0.404   2.167   0.878
  946HOH      O 3023   3.610   3.310   1.661
  946HOH     H1 3024   3.691   3.289   1.708
  946HOH     H2 3025   3.542   3.309   1.728
  947HOH      O 3026   1.799   3.203   1.355
  947HOH     H1 3027   1.781   3.122   1.307
  947HOH     H2 3028   1.802   3.177   1.447
  948HOH      O 3029   0.334   2.640   3.036
  948HOH     H1 3030   0.241   2.631   3.056
  948HOH     H2 3031   0.363   2.711   3.093
  949HOH      O 3032   1.332   2.097   1.751
  949HOH     H1 3033   1.312   2.097   1.658
  949HOH     H2 3034   1.383   2.177   1.765
  950HOH      O 3035   0.127   1.548   3.260
  950HOH     H1 3036   0.057   1.521   3.319
  950HOH     H2 3037   0.196   1.579   3.318
  951HOH      O 3038   0.770   4.022   3.055
  951HOH     H1 3039   0.743   4.027   2.964
  951HOH     H2 3040   0.816   4.104   3.071
  952HOH      O 3041   1.892   4.011   1.958
  952HOH     H1 3042   1.876   3.965   2.040
  952HOH     H2 3043   1.827   3.975   1.897
  953HOH      O 3044   2.670   3.863   1.505
  953HOH     H1 3045   2.711   3.848   1.420
  953HOH     H2 3046   2.639   3.777   1.533
  954HOH      O 3047   3.027   2.520   2.707
  954HOH     H1 3048   3.066   2.440   2.742
  954HOH     H2 3049   2.948   2.490   2.661
  955HOH      O 3050   2.214   1.517   1.507
  955HOH     H1 3051   2.243   1.567   1.431
  955HOH     H2 3052   2.127   1.552   1.528
  956HOH      O 3053   2.502   0.854   0.885
  956HOH     H1 3054   2.466   0.818   0.966
  956HOH     H2 3055   2.596   0.863   0.902
  957HOH      O 3056   3.782   1.488   4.020
  957HOH     H1 3057   3.831   1.506   4.100
  957HOH     H2 3058   3.692   1.512   4.041
  958HOH      O 3059   2.702   1.236   1.519
  958HOH     H1 3060   2.790   1.212   1.490
  958HOH     H2 3061   2.644   1.201   1.452
  959HOH      O 3062   1.914   1.291   3.086
  959HOH     H1 3063   1.850   1.345   3.131
  959HOH     H2 3064   1.979   1.353   3.054
  960HOH      O 3065   1.641   0.081   0.794
  960HOH     H1 3066   1.645   0.043   0.882
  960HOH     H2 3067   1.590   0.162   0.805
  961HOH      O 3068   2.468   3.152   1.036
  961HOH     H1 3069   2.425   3.106   1.108
  961HOH     H2 3070   2.561   3.152   1.059
  962HOH      O 3071   2.312   1.710   1.333
  962HOH     H1 3072   2.250   1.746   1.270
  962HOH     H2 3073   2.309   1.769   1.408
  963HOH      O 3074   2.203   0.563   3.215
  963HOH     H1 3075   2.297   0.558   3.234
  963HOH     H2 3076   2.196   0.623   3.141
  964HOH      O 3077   0.695   1.034   1.567
  964HOH     H1 3078   0.665   0.984   1.643
  964HOH     H2 3079   0.763   1.092   1.602
  965HOH      O 3080   1.390   2.678   3.196
  965HOH     H1 3081   1.428   2.717   3.117
  965HOH     H2 3082   1.460   2.681   3.260
  966HOH      O 3083   2.547   3.407   0.728
  966HOH     H1 3084   2.502   3.473   0.675
  966HOH     H2 3085   2.637   3.408   0.694
  967HOH      O 3086   1.262   2.002   3.157
  967HOH     H1 3087   1.194   1.938   3.137
  967HOH     H2 3088   1.344   1.954   3.146
  968HOH      O 3089   3.914   1.005   2.888
  968HOH     H1 3090   3.843   1.048   2.936
  968HOH     H2 3091   3.982   0.992   2.953
  969HOH      O 3092   1.665   1.761   1.062
  969HOH     H1 3093   1.650   1.853   1.042
  969HOH     H2 3094   1.623   1.714   0.990
  970HOH      O 3095   0.982   3.872   2.189
  970HOH     H1 3096   1.023   3.820   2.120
  970HOH     H2 3097   0.947   3.808   2.251
  971HOH      O 3098   0.784   3.389   1.025
  971HOH     H1 3099   0.867   3.411   1.067
  971HOH     H2 3100   0.725   3.368   1.097
  972HOH      O 3101   2.082   3.046   0.217
  972HOH     H1 3102   2.090   3.106   0.143
  972HOH     H2 3103   2.005   3.077   0.265
  973HOH      O 3104   1.411   2.572   1.804
  973HOH     H1 3105   1.341   2.531   1.856
  973HOH     H2 3106   1.445   2.641   1.860
  974HOH      O 3107   1.807   3.057   3.903
  974HOH     H1 3108   1.808   2.975   3.952
  974HOH     H2 3109   1.854   3.036   3.821
  975HOH      O 3110   1.194   1.572   3.262
  975HOH     H1 3111   1.164   1.644   3.207
  975HOH     H2 3112   1.289   1.584   3.268
  976HOH      O 3113   0.288   3.293   2.892
  976HOH     H1 3114   0.272   3.273   2.984
  976HOH     H2 3115   0.345   3.223   2.861
  977HOH      O 3116   1.698   3.881   2.435
  977HOH     H1 3117   1.611   3.922   2.435
  977HOH     H2 3118   1.759   3.955   2.438
  978HOH      O 3119   3.121   0.436   1.877
  978HOH     H1 3120   3.030   0.458   1.895
  978HOH     H2 3121   3.154   0.510   1.826
  979HOH      O 3122   1.173   2.088   3.381
  979HOH     H1 3123   1.244   2.151   3.395
  979HOH     H2 3124   1.201   2.038   3.304
  980HOH      O 3125   1.866   3.749   0.875
  980HOH     H1 3126   1.813   3.760   0.954
  980HOH     H2 3127   1.892   3.657   0.876
  981HOH      O 3128   3.442   2.959   1.443
  981HOH     H1 3129   3.387   2.972   1.366
  981HOH     H2 3130   3.514   3.021   1.432
  982HOH      O 3131   3.986   0.514   0.820
  982HOH     H1 3132   4.058   0.513   0.883
  982HOH     H2 3133   3.908   0.527   0.873
  983HOH      O 3134   2.753   2.288   1.196
  983HOH     H1 3135   2.734   2.230   1.123
  983HOH     H2 3136   2.789   2.231   1.264
  984HOH      O 3137   0.260   3.831   2.566
  984HOH     H1 3138   0.307   3.901   2.611
  984HOH     H2 3139   0.247   3.864   2.477
  985HOH      O 3140   3.005   3.905   3.244
  985HOH     H1 3141   2.982   3.834   3.304
  985HOH     H2 3142   3.044   3.972   3.301
  986HOH      O 3143   3.791   2.562   0.671
  986HOH     H1 3144   3.862   2.610   0.629
  986HOH     H2 3145   3.832   2.516   0.744
  987HOH      O 3146   1.500   3.550   2.210
  987HOH     H1 3147   1.560   3.536   2.283
  987HOH     H2 3148   1.472   3.641   2.219
  988HOH      O 3149   1.740   3.070   0.450
  988HOH     H1 3150   1.697   3.128   0.387
  988HOH     H2 3151   1.735   2.983   0.409
  989HOH      O 3152   1.908   2.577   1.428
  989HOH     H1 3153   1.918   2.663   1.387
  989HOH     H2 3154   1.949   2.587   1.514
  990HOH      O 3155   2.308   2.332   1.746
  990HOH     H1 3156   2.364   2.255   1.733
  990HOH     H2 3157   2.308   2.346   1.841
  991HOH      O 3158   1.470   0.821   3.492
  991HOH     H1 3159   1.481   0.837   3.398
  991HOH     H2 3160   1.381   0.786   3.500
  992HOH      O 3161   1.649   3.705   1.105
  992HOH     H1 3162   1.696   3.624   1.119
  992HOH     H2 3163   1.654   3.751   1.189
  993HOH      O 3164   0.007   1.221   2.362
  993HOH     H1 3165   0.001   1.192   2.453
  993HOH     H2 3166   0.020   1.316   2.368
  994HOH      O 3167   1.845   0.316   1.133
  994HOH     H1 3168   1.914   0.259   1.099
  994HOH     H2 3169   1.859   0.400   1.089
  995HOH      O 3170   2.483   3.779   0.827
  995HOH     H1 3171   2.485   3.761   0.921
  995HOH     H2 3172   2.573   3.768   0.798
  996HOH      O 3173   0.770   1.568   0.624
  996HOH     H1 3174   0.771   1.496   0.562
  996HOH     H2 3175   0.762   1.526   0.710
  997HOH      O 3176   2.011   0.845   3.214
  997HOH     H1 3177   1.981   0.873   3.127
  997HOH     H2 3178   2.106   0.832   3.203
  998HOH      O 3179   0.252   2.068   0.555
  998HOH     H1 3180   0.249   1.992   0.613
  998HOH     H2 3181   0.215   2.139   0.607
  999HOH      O 3182   2.768   0.756   2.730
  999HOH     H1 3183   2.818   0.725   2.805
  999HOH     H2 3184   2.711   0.682   2.707
 1000HOH      O 3185   0.273   1.906   0.767
 1000HOH     H1 3186   0.293   1.840   0.833
 1000HOH     H2 3187   0.285   1.990   0.812
 1001HOH      O 3188   1.568   0.473   3.242
 1001HOH     H1 3189   1.536   0.451   3.329
 1001HOH     H2 3190   1.663   0.466   3.249
 1002HOH      O 3191   0.348   1.538   1.338
 1002HOH     H1 3192   0.425   1.586   1.309
 1002HOH     H2 3193   0.274   1.585   1.300
 1003HOH      O 3194   1.901   3.561   3.786
 1003HOH     H1 3195   1.859   3.479   3.811
 1003HOH     H2 3196   1.830   3.616   3.755
 1004HOH      O 3197   1.070   0.415   1.778
 1004HOH     H1 3198   1.115   0.373   1.851
 1004HOH     H2 3199   1.079   0.509   1.796
 1005HOH      O 3200   1.668   1.794   3.589
 1005HOH     H1 3201   1.636   1.881   3.612
 1005HOH     H2 3202   1.723   1.768   3.663
 1006HOH      O 3203   0.098   1.573   0.899
 1006HOH     H1 3204   0.092   1.628   0.821
 1006HOH     H2 3205   0.042   1.498   0.879
 1007HOH      O 3206   3.893   1.409   0.466
 1007HOH     H1 3207   3.808   1.373   0.492
 1007HOH     H2 3208   3.885   1.503   0.482
 1008HOH      O 3209   3.598   1.693   0.486
 1008HOH     H1 3210   3.583   1.678   0.580
 1008HOH     H2 3211   3.556   1.777   0.469
 1009HOH      O 3212   1.234   3.108   2.702
 1009HOH     H1 3213   1.200   3.022   2.726
 1009HOH     H2 3214   1.164   3.148   2.649
 1010HOH      O 3215   1.765   3.904   0.649
 1010HOH     H1 3216   1.823   3.854   0.706
 1010HOH     H2 3217   1.722   3.966   0.707
 1011HOH      O 3218   1.730   3.881   3.577
 1011HOH     H1 3219   1.795   3.940   3.615
 1011HOH     H2 3220   1.715   3.816   3.646
 1012HOH      O 3221   2.324   0.159   1.044
 1012HOH     H1 3222   2.324   0.080   0.991
 1012HOH     H2 3223   2.404   0.206   1.017
 1013HOH      O 3224   2.890   3.563   2.320
 1013HOH     H1 3225   2.809   3.612   2.335
 1013HOH     H2 3226   2.921   3.540   2.407
 1014HOH      O 3227   1.222   3.229   1.029
 1014HOH     H1 3228   1.271   3.204   1.107
 1014HOH     H2 3229   1.290   3.257   0.967
 1015HOH      O 3230   0.192   0.382   3.681
 1015HOH     H1 3231   0.105   0.403   3.647
 1015HOH     H2 3232   0.189   0.288   3.699
 1016HOH      O 3233   3.839   0.910   3.544
 1016HOH     H1 3234   3.843   0.988   3.599
 1016HOH     H2 3235   3.829   0.944   3.455
 1017HOH      O 3236   0.425   0.418   2.780
 1017HOH     H1 3237   0.471   0.371   2.711
 1017HOH     H2 3238   0.492   0.470   2.824
 1018HOH      O 3239   3.511   2.453   3.679
 1018HOH     H1 3240   3.533   2.519   3.744
 1018HOH     H2 3241   3.451   2.497   3.620
 1019HOH      O 3242   1.608   0.175   1.744
 1019HOH     H1 3243   1.631   0.251   1.797
 1019HOH     H2 3244   1.513   0.176   1.740
 1020HOH      O 3245   1.255   1.161   3.276
 1020HOH     H1 3246   1.204   1.091   3.234
 1020HOH     H2 3247   1.232   1.155   3.369
 1021HOH      O 3248   4.016   3.543   2.919
 1021HOH     H1 3249   4.007   3.638   2.927
 1021HOH     H2 3250   4.086   3.531   2.855
 1022HOH      O 3251   0.888   1.088   3.061
 1022HOH     H1 3252   0.849   1.065   3.145
 1022HOH     H2 3253   0.982   1.071   3.072
 1023HOH      O 3254   0.575   0.134   0.523
 1023HOH     H1 3255   0.601   0.057   0.472
 1023HOH     H2 3256   0.622   0.125   0.606
 1024HOH      O 3257   3.757   0.659   3.574
 1024HOH     H1 3258   3.787   0.750   3.566
 1024HOH     H2 3259   3.710   0.658   3.658
 1025HOH      O 3260   3.675   2.246   3.643
 1025HOH     H1 3261   3.625   2.327   3.653
 1025HOH     H2 3262   3.638   2.187   3.709
 1026HOH      O 3263   3.415   1.991   2.853
 1026HOH     H1 3264   3.366   2.027   2.927
 1026HOH     H2 3265   3.396   1.897   2.855
 1027HOH      O 3266   0.976   3.124   2.315
 1027HOH     H1 3267   0.926   3.144   2.236
 1027HOH     H2 3268   1.045   3.064   2.284
 1028HOH      O 3269   3.528   3.854   1.886
 1028HOH     H1 3270   3.552   3.899   1.806
 1028HOH     H2 3271   3.446   3.896   1.913
 1029HOH      O 3272   3.832   1.448   1.680
 1029HOH     H1 3273   3.926   1.438   1.662
 1029HOH     H2 3274   3.829   1.479   1.770
 1030HOH      O 3275   3.500   3.606   1.991
 1030HOH     H1 3276   3.411   3.595   2.025
 1030HOH     H2 3277   3.497   3.688   1.941
 1031HOH      O 3278   0.172   3.247   0.494
 1031HOH     H1 3279   0.233   3.318   0.515
 1031HOH     H2 3280   0.101   3.256   0.556
 1032HOH      O 3281   0.895   2.482   0.040
 1032HOH     H1 3282   0.908   2.387   0.035
 1032HOH     H2 3283   0.827   2.500  -0.025
 1033HOH      O 3284   1.375   3.299   3.371
 1033HOH     H1 3285   1.280   3.312   3.361
 1033HOH     H2 3286   1.382   3.215   3.418
 1034HOH      O 3287   1.914   2.966   3.223
 1034HOH     H1 3288   1.941   2.922   3.304
 1034HOH     H2 3289   1.828   3.002   3.243
 1035HOH      O 3290   1.182   0.744   1.371
 1035HOH     H1 3291   1.205   0.810   1.436
 1035HOH     H2 3292   1.172   0.663   1.422
 1036HOH      O 3293   0.872   3.407   3.139
 1036HOH     H1 3294   0.796   3.378   3.088
 1036HOH     H2 3295   0.943   3.412   3.075
 1037HOH      O 3296   1.414   0.486   1.861
 1037HOH     H1 3297   1.483   0.548   1.884
 1037HOH     H2 3298   1.433   0.408   1.914
 1038HOH      O 3299   2.792   2.839   0.401
 1038HOH     H1 3300   2.715   2.796   0.362
 1038HOH     H2 3301   2.788   2.929   0.368
 1039HOH      O 3302   3.424   3.400   0.086
 1039HOH     H1 3303   3.419   3.368   0.176
 1039HOH     H2 3304   3.345   3.367   0.044
 1040HOH      O 3305   0.749   1.331   0.508
 1040HOH     H1 3306   0.678   1.269   0.491
 1040HOH     H2 3307   0.826   1.276   0.522
 1041HOH      O 3308   1.445   1.784   1.538
 1041HOH     H1 3309   1.518   1.723   1.533
 1041HOH     H2 3310   1.482   1.868   1.512
 1042HOH      O 3311   0.852   1.788   1.600
 1042HOH     H1 3312   0.807   1.758   1.679
 1042HOH     H2 3313   0.781   1.823   1.545
 1043HOH      O 3314   0.702   2.807   2.722
 1043HOH     H1 3315   0.749   2.729   2.691
 1043HOH     H2 3316   0.761   2.848   2.785
 1044HOH      O 3317   0.865   0.752   3.113
 1044HOH     H1 3318   0.921   0.724   3.186
 1044HOH     H2 3319   0.917   0.818   3.067
 1045HOH      O 3320   1.766   1.367   3.741
 1045HOH     H1 3321   1.792   1.459   3.746
 1045HOH     H2 3322   1.836   1.325   3.692
 1046HOH      O 3323   0.509   1.162   3.147
 1046HOH     H1 3324   0.578   1.221   3.179
 1046HOH     H2 3325   0.428   1.203   3.175
 1047HOH      O 3326   2.028   1.499   3.262
 1047HOH     H1 3327   1.947   1.525   3.306
 1047HOH     H2 3328   2.048   1.413   3.298
 1048HOH      O 3329   4.003   3.830   1.900
 1048HOH     H1 3330   3.961   3.863   1.979
 1048HOH     H2 3331   3.944   3.762   1.867
 1049HOH      O 3332   1.640   1.032   0.557
 1049HOH     H1 3333   1.718   1.076   0.522
 1049HOH     H2 3334   1.625   0.959   0.497
 1050HOH      O 3335   3.694   0.650   1.739
 1050HOH     H1 3336   3.661   0.582   1.797
 1050HOH     H2 3337   3.629   0.720   1.745
 1051HOH      O 3338   3.480   3.568   3.877
 1051HOH     H1 3339   3.438   3.491   3.840
 1051HOH     H2 3340   3.502   3.543   3.967
 1052HOH      O 3341   3.217   3.598   0.849
 1052HOH     H1 3342   3.247   3.516   0.810
 1052HOH     H2 3343   3.247   3.665   0.789
 1053HOH      O 3344   2.266   0.015   4.019
 1053HOH     H1 3345   2.276   0.103   3.985
 1053HOH     H2 3346   2.220   0.026   4.101
 1054HOH      O 3347   1.790   3.111   0.700
 1054HOH     H1 3348   1.867   3.162   0.674
 1054HOH     H2 3349   1.751   3.082   0.618
 1055HOH      O 3350   0.763   0.972   3.273
 1055HOH     H1 3351   0.786   0.881   3.254
 1055HOH     H2 3352   0.675   0.968   3.310
 1056HOH      O 3353   3.110   2.801   0.776
 1056HOH     H1 3354   3.102   2.895   0.791
 1056HOH     H2 3355   3.033   2.764   0.819
 1057HOH      O 3356   3.597   1.324   3.856
 1057HOH     H1 3357   3.518   1.308   3.806
 1057HOH     H2 3358   3.574   1.396   3.915
 1058HOH      O 3359   3.866   1.404   0.859
 1058HOH     H1 3360   3.817   1.376   0.936
 1058HOH     H2 3361   3.798   1.431   0.796
 1059HOH      O 3362   0.245   0.910   0.621
 1059HOH     H1 3363   0.189   0.987   0.628
 1059HOH     H2 3364   0.221   0.856   0.696
 1060HOH      O 3365   2.635   0.265   2.711
 1060HOH     H1 3366   2.554   0.262   2.761
 1060HOH     H2 3367   2.649   0.175   2.682
 1061HOH      O 3368   0.068   0.538   1.705
 1061HOH     H1 3369   0.080   0.519   1.798
 1061HOH     H2 3370   0.141   0.493   1.662
 1062HOH      O 3371   3.636   3.100   1.070
 1062HOH     H1 3372   3.572   3.128   1.004
 1062HOH     H2 3373   3.662   3.182   1.114
 1063HOH      O 3374   3.960   2.478   0.287
 1063HOH     H1 3375   3.890   2.424   0.250
 1063HOH     H2 3376   3.979   2.438   0.372
 1064HOH      O 3377   0.371   0.154   3.496
 1064HOH     H1 3378   0.357   0.097   3.571
 1064HOH     H2 3379   0.339   0.104   3.421
 1065HOH      O 3380   3.844   1.152   0.780
 1065HOH     H1 3381   3.869   1.240   0.808
 1065HOH     H2 3382   3.807   1.165   0.693
 1066HOH      O 3383   2.745   3.819   1.213
 1066HOH     H1 3384   2.780   3.856   1.132
 1066HOH     H2 3385   2.657   3.790   1.189
 1067HOH      O 3386   1.344   0.974   0.882
 1067HOH     H1 3387   1.350   1.067   0.860
 1067HOH     H2 3388   1.260   0.964   0.926
 1068HOH      O 3389   3.891   1.871   3.069
 1068HOH     H1 3390   3.807   1.860   3.112
 1068HOH     H2 3391   3.930   1.948   3.109
 1069HOH      O 3392   3.263   2.873   3.534
 1069HOH     H1 3393   3.328   2.841   3.596
 1069HOH     H2 3394   3.306   2.866   3.449
 1070HOH      O 3395   2.011   3.936   0.442
 1070HOH     H1 3396   1.934   3.973   0.486
 1070HOH     H2 3397   1.990   3.843   0.432
 1071HOH      O 3398   3.146   1.435   0.148
 1071HOH     H1 3399   3.165   1.342   0.139
 1071HOH     H2 3400   3.215   1.468   0.206
 1072HOH      O 3401   2.918   1.425   0.306
 1072HOH     H1 3402   2.937   1.505   0.355
 1072HOH     H2 3403   3.002   1.401   0.266
 1073HOH      O 3404   2.098   2.601   3.202
 1073HOH     H1 3405   2.018   2.578   3.249
 1073HOH     H2 3406   2.132   2.678   3.247
 1074HOH      O 3407   1.364   3.209   2.330
 1074HOH     H1 3408   1.451   3.181   2.358
 1074HOH     H2 3409   1.309   3.131   2.341
 1075HOH      O 3410   2.017   2.856   0.433
 1075HOH     H1 3411   2.090   2.815   0.480
 1075HOH     H2 3412   2.059   2.911   0.367
 1076HOH      O 3413   0.355   0.856   1.725
 1076HOH     H1 3414   0.392   0.943   1.741
 1076HOH     H2 3415   0.423   0.809   1.678
 1077HOH      O 3416   2.971   3.451   0.446
 1077HOH     H1 3417   2.940   3.428   0.358
 1077HOH     H2 3418   3.029   3.378   0.470
 1078HOH      O 3419   3.919   3.292   1.199
 1078HOH     H1 3420   3.904   3.252   1.284
 1078HOH     H2 3421   3.900   3.385   1.212
 1079HOH      O 3422   1.943   1.270   1.734
 1079HOH     H1 3423   1.997   1.214   1.789
 1079HOH     H2 3424   1.946   1.229   1.648
 1080HOH      O 3425   2.626   0.531   2.664
 1080HOH     H1 3426   2.632   0.509   2.570
 1080HOH     H2 3427   2.637   0.447   2.708
 1081HOH      O 3428   3.058   3.689   1.447
 1081HOH     H1 3429   3.140   3.639   1.449
 1081HOH     H2 3430   2.996   3.632   1.402
 1082HOH      O 3431   3.768   2.505   3.425
 1082HOH     H1 3432   3.750   2.598   3.440
 1082HOH     H2 3433   3.695   2.475   3.371
 1083HOH      O 3434   0.640   3.616   3.550
 1083HOH     H1 3435   0.562   3.560   3.545
 1083HOH     H2 3436   0.632   3.675   3.476
 1084HOH      O 3437   0.116   0.480   2.876
 1084HOH     H1 3438   0.123   0.503   2.783
 1084HOH     H2 3439   0.202   0.447   2.899
 1085HOH      O 3440   1.705   3.722   0.107
 1085HOH     H1 3441   1.626   3.750   0.154
 1085HOH     H2 3442   1.725   3.795   0.049
 1086HOH      O 3443   2.596   3.607   2.062
 1086HOH     H1 3444   2.565   3.549   2.132
 1086HOH     H2 3445   2.549   3.689   2.077
 1087HOH      O 3446   0.898   3.225   0.344
 1087HOH     H1 3447   0.886   3.303   0.290
 1087HOH     H2 3448   0.816   3.215   0.392
 1088HOH      O 3449   1.461   3.499   1.734
 1088HOH     H1 3450   1.394   3.441   1.769
 1088HOH     H2 3451   1.528   3.504   1.802
 1089HOH      O 3452   3.008   3.823   2.211
 1089HOH     H1 3453   3.005   3.727   2.206
 1089HOH     H2 3454   3.086   3.847   2.161
 1090HOH      O 3455   2.003   0.728   0.047
 1090HOH     H1 3456   2.061   0.738  -0.029
 1090HOH     H2 3457   2.061   0.734   0.122
 1091HOH      O 3458   1.621   3.875   1.314
 1091HOH     H1 3459   1.670   3.955   1.295
 1091HOH     H2 3460   1.552   3.902   1.374
 1092HOH      O 3461   3.481   3.834   3.550
 1092HOH     H1 3462   3.412   3.899   3.561
 1092HOH     H2 3463   3.554   3.867   3.603
 1093HOH      O 3464   2.371   2.347   2.973
 1093HOH     H1 3465   2.307   2.320   2.907
 1093HOH     H2 3466   2.445   2.287   2.960
 1094HOH      O 3467   1.608   3.951   3.200
 1094HOH     H1 3468   1.648   3.872   3.238
 1094HOH     H2 3469   1.532   3.968   3.255
 1095HOH      O 3470   0.316   2.586   1.435
 1095HOH     H1 3471   0.245   2.554   1.491
 1095HOH     H2 3472   0.376   2.631   1.494
 1096HOH      O 3473   1.178   1.773   3.026
 1096HOH     H1 3474   1.242   1.813   2.966
 1096HOH     H2 3475   1.112   1.736   2.968
 1097HOH      O 3476   1.788   3.747   1.559
 1097HOH     H1 3477   1.746   3.775   1.478
 1097HOH     H2 3478   1.878   3.725   1.534
 1098HOH      O 3479   1.830   2.777   3.458
 1098HOH     H1 3480   1.768   2.810   3.393
 1098HOH     H2 3481   1.851   2.688   3.428
 1099HOH      O 3482   2.279   1.113   0.303
 1099HOH     H1 3483   2.206   1.051   0.312
 1099HOH     H2 3484   2.341   1.067   0.247
 1100HOH      O 3485   3.748   2.316   1.040
 1100HOH     H1 3486   3.776   2.225   1.041
 1100HOH     H2 3487   3.661   2.315   1.080
 1101HOH      O 3488   1.982   3.474   2.549
 1101HOH     H1 3489   2.009   3.427   2.628
 1101HOH     H2 3490   1.977   3.406   2.482
 1102HOH      O 3491   3.077   2.480   2.115
 1102HOH     H1 3492   2.998   2.524   2.083
 1102HOH     H2 3493   3.051   2.439   2.197
 1103HOH      O 3494   0.937   3.716   0.857
 1103HOH     H1 3495   0.857   3.694   0.810
 1103HOH     H2 3496   0.917   3.697   0.949
 1104HOH      O 3497   1.755   2.377   1.654
 1104HOH     H1 3498   1.816   2.353   1.584
 1104HOH     H2 3499   1.812   2.401   1.728
 1105HOH      O 3500   1.830   2.543   0.464
 1105HOH     H1 3501   1.911   2.498   0.490
 1105HOH     H2 3502   1.779   2.549   0.545
 1106HOH      O 3503   2.132   1.021   2.651
 1106HOH     H1 3504   2.142   0.936   2.607
 1106HOH     H2 3505   2.122   1.084   2.579
 1107HOH      O 3506   0.479   2.023   3.199
 1107HOH     H1 3507   0.452   1.983   3.116
 1107HOH     H2 3508   0.456   1.958   3.265
 1108HOH      O 3509   1.182   0.029   2.250
 1108HOH     H1 3510   1.168   0.119   2.220
 1108HOH     H2 3511   1.112  -0.021   2.209
 1109HOH      O 3512   2.015   0.292   0.575
 1109HOH     H1 3513   1.953   0.238   0.527
 1109HOH     H2 3514   1.982   0.292   0.665
 1110HOH      O 3515   1.351   3.070   0.754
 1110HOH     H1 3516   1.413   3.033   0.817
 1110HOH     H2 3517   1.265   3.062   0.797
 1111HOH      O 3518   2.724   2.305   0.071
 1111HOH     H1 3519   2.697   2.369   0.006
 1111HOH     H2 3520   2.660   2.233   0.062
 1112HOH      O 3521   3.911   2.733   2.043
 1112HOH     H1 3522   3.842   2.687   2.091
 1112HOH     H2 3523   3.863   2.792   1.985
 1113HOH      O 3524   0.554   2.321   2.819
 1113HOH     H1 3525   0.498   2.259   2.772
 1113HOH     H2 3526   0.564   2.394   2.758
 1114HOH      O 3527   3.622   1.614   2.767
 1114HOH     H1 3528   3.628   1.520   2.752
 1114HOH     H2 3529   3.610   1.623   2.861
 1115HOH      O 3530   0.345   0.670   3.478
 1115HOH     H1 3531   0.376   0.638   3.563
 1115HOH     H2 3532   0.258   0.704   3.496
 1116HOH      O 3533   3.780   3.863   0.713
 1116HOH     H1 3534   3.730   3.910   0.647
 1116HOH     H2 3535   3.864   3.846   0.672
 1117HOH      O 3536   2.811   0.666   0.060
 1117HOH     H1 3537   2.838   0.732   0.124
 1117HOH     H2 3538   2.767   0.716  -0.009
 1118HOH      O 3539   3.522   2.023   0.209
 1118HOH     H1 3540   3.491   1.949   0.157
 1118HOH     H2 3541   3.599   2.054   0.163
 1119HOH      O 3542   1.765   0.624   1.735
 1119HOH     H1 3543   1.693   0.618   1.672
 1119HOH     H2 3544   1.755   0.710   1.775
 1120HOH      O 3545   2.520   2.583   3.061
 1120HOH     H1 3546   2.528   2.554   2.970
 1120HOH     H2 3547   2.426   2.578   3.079
 1121HOH      O 3548   2.652   2.451   1.801
 1121HOH     H1 3549   2.721   2.475   1.863
 1121HOH     H2 3550   2.694   2.392   1.739
 1122HOH      O 3551   1.898   3.380   1.882
 1122HOH     H1 3552   1.943   3.404   1.963
 1122HOH     H2 3553   1.823   3.328   1.911
 1123HOH      O 3554   0.959   3.509   3.769
 1123HOH     H1 3555   1.045   3.485   3.734
 1123HOH     H2 3556   0.966   3.603   3.789
 1124HOH      O 3557   0.858   3.001   1.830
 1124HOH     H1 3558   0.941   3.046   1.816
 1124HOH     H2 3559   0.878   2.932   1.893
 1125HOH      O 3560   1.615   3.489   4.018
 1125HOH     H1 3561   1.660   3.562   4.059
 1125HOH     H2 3562   1.584   3.435   4.090
 1126HOH      O 3563   3.400   1.351   0.691
 1126HOH     H1 3564   3.375   1.383   0.777
 1126HOH     H2 3565   3.350   1.270   0.680
 1127HOH      O 3566   1.604   3.627   0.598
 1127HOH     H1 3567   1.542   3.695   0.623
 1127HOH     H2 3568   1.672   3.673   0.549
 1128HOH      O 3569   2.059   1.801   3.658
 1128HOH     H1 3570   2.060   1.771   3.567
 1128HOH     H2 3571   2.072   1.895   3.652
 1129HOH      O 3572   1.643   1.290   1.607
 1129HOH     H1 3573   1.695   1.241   1.542
 1129HOH     H2 3574   1.709   1.337   1.659
 1130HOH      O 3575   1.795   0.402   1.416
 1130HOH     H1 3576   1.814   0.314   1.448
 1130HOH     H2 3577   1.799   0.394   1.320
 1131HOH      O 3578   0.408   3.404   1.001
 1131HOH     H1 3579   0.351   3.361   1.065
 1131HOH     H2 3580   0.429   3.335   0.938
 1132HOH      O 3581   3.522   2.743   2.176
 1132HOH     H1 3582   3.466   2.746   2.098
 1132HOH     H2 3583   3.549   2.834   2.190
 1133HOH      O 3584   1.424   0.122   2.032
 1133HOH     H1 3585   1.516   0.122   2.005
 1133HOH     H2 3586   1.380   0.066   1.968
 1134HOH      O 3587   0.574   0.627   0.612
 1134HOH     H1 3588   0.639   0.561   0.589
 1134HOH     H2 3589   0.490   0.581   0.612
 1135HOH      O 3590   3.355   2.551   2.764
 1135HOH     H1 3591   3.395   2.617   2.706
 1135HOH     H2 3592   3.276   2.524   2.718
 1136HOH      O 3593   1.364   0.456   1.190
 1136HOH     H1 3594   1.360   0.441   1.284
 1136HOH     H2 3595   1.362   0.552   1.181
 1137HOH      O 3596   1.361   0.685   1.660
 1137HOH     H1 3597   1.439   0.670   1.608
 1137HOH     H2 3598   1.337   0.598   1.692
 1138HOH      O 3599   1.567   2.515   1.164
 1138HOH     H1 3600   1.560   2.445   1.229
 1138HOH     H2 3601   1.656   2.507   1.129
 1139HOH      O 3602   2.125   1.079   2.911
 1139HOH     H1 3603   2.057   1.020   2.947
 1139HOH     H2 3604   2.129   1.056   2.818
 1140HOH      O 3605   2.115   2.472   3.688
 1140HOH     H1 3606   2.140   2.551   3.736
 1140HOH     H2 3607   2.198   2.428   3.669
 1141HOH      O 3608   2.160   0.366   2.240
 1141HOH     H1 3609   2.139   0.324   2.323
 1141HOH     H2 3610   2.142   0.299   2.174
 1142HOH      O 3611   1.642   3.098   0.138
 1142HOH     H1 3612   1.623   3.184   0.176
 1142HOH     H2 3613   1.674   3.118   0.050
 1143HOH      O 3614   1.709   0.147   2.116
 1143HOH     H1 3615   1.771   0.106   2.056
 1143HOH     H2 3616   1.739   0.121   2.203
 1144HOH      O 3617   2.981   3.317   2.924
 1144HOH     H1 3618   3.066   3.359   2.931
 1144HOH     H2 3619   2.924   3.368   2.981
 1145HOH      O 3620   2.303   2.109   3.257
 1145HOH     H1 3621   2.265   2.195   3.242
 1145HOH     H2 3622   2.228   2.050   3.263
 1146HOH      O 3623   3.831   2.978   2.526
 1146HOH     H1 3624   3.810   3.065   2.492
 1146HOH     H2 3625   3.876   2.933   2.454
 1147HOH      O 3626   3.101   1.845   1.823
 1147HOH     H1 3627   3.019   1.813   1.860
 1147HOH     H2 3628   3.140   1.897   1.894
 1148HOH      O 3629   3.580   0.507   0.620
 1148HOH     H1 3630   3.530   0.480   0.543
 1148HOH     H2 3631   3.551   0.597   0.638
 1149HOH      O 3632   2.781   3.985   3.095
 1149HOH     H1 3633   2.869   3.997   3.131
 1149HOH     H2 3634   2.793   3.927   3.020
 1150HOH      O 3635   0.457   1.029   2.150
 1150HOH     H1 3636   0.370   1.022   2.189
 1150HOH     H2 3637   0.510   0.966   2.199
 1151HOH      O 3638   2.809   0.133   0.976
 1151HOH     H1 3639   2.885   0.175   0.936
 1151HOH     H2 3640   2.818   0.040   0.954
 1152HOH      O 3641   2.776   0.933   0.857
 1152HOH     H1 3642   2.734   0.892   0.781
 1152HOH     H2 3643   2.845   0.872   0.882
 1153HOH      O 3644   2.075   1.883   0.000
 1153HOH     H1 3645   2.110   1.968   0.029
 1153HOH     H2 3646   2.086   1.825   0.076
 1154HOH      O 3647   1.914   0.176   0.838
 1154HOH     H1 3648   1.946   0.166   0.928
 1154HOH     H2 3649   1.830   0.128   0.837
 1155HOH      O 3650   3.024   1.036   0.586
 1155HOH     H1 3651   3.020   0.945   0.556
 1155HOH     H2 3652   2.996   1.087   0.511
 1156HOH      O 3653   0.433   3.091   2.752
 1156HOH     H1 3654   0.453   3.080   2.845
 1156HOH     H2 3655   0.458   3.007   2.712
 1157HOH      O 3656   1.060   1.827   3.562
 1157HOH     H1 3657   1.059   1.921   3.544
 1157HOH     H2 3658   1.024   1.786   3.484
 1158HOH      O 3659   2.408   1.362   2.608
 1158HOH     H1 3660   2.335   1.414   2.643
 1158HOH     H2 3661   2.376   1.331   2.524
 1159HOH      O 3662   0.789   3.067   3.152
 1159HOH     H1 3663   0.880   3.078   3.179
 1159HOH     H2 3664   0.755   2.998   3.209
 1160HOH      O 3665   0.389   3.720   2.050
 1160HOH     H1 3666   0.473   3.759   2.030
 1160HOH     H2 3667   0.328   3.760   1.988
 1161HOH      O 3668   2.461   3.888   2.496
 1161HOH     H1 3669   2.513   3.837   2.558
 1161HOH     H2 3670   2.374   3.893   2.536
 1162HOH      O 3671   2.230   3.256   2.732
 1162HOH     H1 3672   2.280   3.179   2.756
 1162HOH     H2 3673   2.190   3.234   2.648
 1163HOH      O 3674   3.135   2.318   0.974
 1163HOH     H1 3675   3.221   2.359   0.971
 1163HOH     H2 3676   3.140   2.255   1.046
 1164HOH      O 3677   2.242   0.897   3.936
 1164HOH     H1 3678   2.278   0.907   4.024
 1164HOH     H2 3679   2.259   0.981   3.893
 1165HOH      O 3680   2.156   2.029   1.225
 1165HOH     H1 3681   2.151   2.008   1.319
 1165HOH     H2 3682   2.126   1.949   1.182
 1166HOH      O 3683   0.226   2.900   3.452
 1166HOH     H1 3684   0.139   2.900   3.493
 1166HOH     H2 3685   0.263   2.985   3.475
 1167HOH      O 3686   0.590   2.505   3.007
 1167HOH     H1 3687   0.502   2.540   3.013
 1167HOH     H2 3688   0.593   2.462   2.922
 1168HOH      O 3689   1.340   0.098   3.638
 1168HOH     H1 3690   1.372   0.008   3.642
 1168HOH     H2 3691   1.304   0.107   3.550
 1169HOH      O 3692   3.457   2.023   3.554
 1169HOH     H1 3693   3.490   2.065   3.634
 1169HOH     H2 3694   3.534   1.980   3.516
 1170HOH      O 3695   3.934   1.805   2.803
 1170HOH     H1 3696   4.013   1.751   2.802
 1170HOH     H2 3697   3.920   1.825   2.896
 1171HOH      O 3698   1.787   3.025   2.913
 1171HOH     H1 3699   1.738   3.085   2.858
 1171HOH     H2 3700   1.721   2.983   2.968
 1172HOH      O 3701   2.789   1.273   3.230
 1172HOH     H1 3702   2.856   1.326   3.189
 1172HOH     H2 3703   2.773   1.202   3.169
 1173HOH      O 3704   0.191   3.098   0.899
 1173HOH     H1 3705   0.208   3.029   0.835
 1173HOH     H2 3706   0.131   3.058   0.962
 1174HOH      O 3707   2.980   0.924   3.924
 1174HOH     H1 3708   3.066   0.897   3.956
 1174HOH     H2 3709   2.968   0.877   3.841
 1175HOH      O 3710   2.265   1.179   1.206
 1175HOH     H1 3711   2.211   1.151   1.132
 1175HOH     H2 3712   2.322   1.246   1.170
 1176HOH      O 3713   1.998   3.409   0.258
 1176HOH     H1 3714   1.976   3.486   0.206
 1176HOH     H2 3715   2.019   3.342   0.194
 1177HOH      O 3716   1.824   1.600   1.206
 1177HOH     H1 3717   1.898   1.589   1.147
 1177HOH     H2 3718   1.777   1.676   1.172
 1178HOH      O 3719   2.144   3.035   3.713
 1178HOH     H1 3720   2.072   2.977   3.737
 1178HOH     H2 3721   2.107   3.093   3.646
 1179HOH      O 3722   0.377   0.766   2.473
 1179HOH     H1 3723   0.316   0.770   2.400
 1179HOH     H2 3724   0.352   0.839   2.529
 1180HOH      O 3725   0.851   1.625   1.174
 1180HOH     H1 3726   0.888   1.540   1.199
 1180HOH     H2 3727   0.903   1.689   1.223
 1181HOH      O 3728   0.498   1.992   2.091
 1181HOH     H1 3729   0.416   2.028   2.126
 1181HOH     H2 3730   0.471   1.917   2.039
 1182HOH      O 3731   3.363   2.742   0.777
 1182HOH     H1 3732   3.352   2.651   0.750
 1182HOH     H2 3733   3.274   2.774   0.789
 1183HOH      O 3734   3.358   3.789   3.296
 1183HOH     H1 3735   3.432   3.785   3.236
 1183HOH     H2 3736   3.395   3.820   3.379
 1184HOH      O 3737   0.697   0.886   0.541
 1184HOH     H1 3738   0.626   0.823   0.532
 1184HOH     H2 3739   0.654   0.969   0.559
 1185HOH      O 3740   0.444   0.168   1.727
 1185HOH     H1 3741   0.460   0.076   1.706
 1185HOH     H2 3742   0.497   0.184   1.805
 1186HOH      O 3743   4.010   3.761   3.852
 1186HOH     H1 3744   3.940   3.757   3.918
 1186HOH     H2 3745   3.982   3.698   3.785
 1187HOH      O 3746   0.326   3.094   3.186
 1187HOH     H1 3747   0.316   3.068   3.277
 1187HOH     H2 3748   0.245   3.065   3.144
 1188HOH      O 3749   2.796   0.855   1.271
 1188HOH     H1 3750   2.750   0.939   1.279
 1188HOH     H2 3751   2.734   0.791   1.304
 1189HOH      O 3752   2.108   1.683   0.631
 1189HOH     H1 3753   2.070   1.661   0.546
 1189HOH     H2 3754   2.202   1.668   0.619
 1190HOH      O 3755   2.640   3.224   1.813
 1190HOH     H1 3756   2.609   3.221   1.722
 1190HOH     H2 3757   2.671   3.136   1.830
 1191HOH      O 3758   1.408   1.658   3.480
 1191HOH     H1 3759   1.373   1.710   3.407
 1191HOH     H2 3760   1.482   1.708   3.513
 1192HOH      O 3761   2.593   3.907   2.008
 1192HOH     H1 3762   2.504   3.935   2.032
 1192HOH     H2 3763   2.603   3.935   1.917
 1193HOH      O 3764   0.478   3.850   0.254
 1193HOH     H1 3765   0.507   3.927   0.303
 1193HOH     H2 3766   0.555   3.793   0.250
 1194HOH      O 3767   3.700   1.367   2.711
 1194HOH     H1 3768   3.635   1.307   2.748
 1194HOH     H2 3769   3.782   1.345   2.755
 1195HOH      O 3770   2.491   0.998   1.740
 1195HOH     H1 3771   2.476   1.061   1.811
 1195HOH     H2 3772   2.561   0.941   1.772
 1196HOH      O 3773   3.708   1.934   1.338
 1196HOH     H1 3774   3.727   1.867   1.403
 1196HOH     H2 3775   3.773   2.002   1.354
 1197HOH      O 3776   1.841   0.383   3.137
 1197HOH     H1 3777   1.897   0.386   3.059
 1197HOH     H2 3778   1.821   0.290   3.149
 1198HOH      O 3779   3.203   3.446   2.978
 1198HOH     H1 3780   3.179   3.496   3.056
 1198HOH     H2 3781   3.296   3.467   2.964
 1199HOH      O 3782   1.909   3.836   3.035
 1199HOH     H1 3783   1.908   3.864   3.127
 1199HOH     H2 3784   1.878   3.745   3.039
 1200HOH      O 3785   1.534   3.357   0.219
 1200HOH     H1 3786   1.566   3.380   0.306
 1200HOH     H2 3787   1.447   3.397   0.214
 1201HOH      O 3788   3.492   1.225   2.832
 1201HOH     H1 3789   3.433   1.300   2.845
 1201HOH     H2 3790   3.435   1.153   2.806
 1202HOH      O 3791   2.624   0.836   0.623
 1202HOH     H1 3792   2.576   0.768   0.575
 1202HOH     H2 3793   2.572   0.849   0.703
 1203HOH      O 3794   2.818   2.475   2.547
 1203HOH     H1 3795   2.804   2.396   2.495
 1203HOH     H2 3796   2.826   2.545   2.482
 1204HOH      O 3797   2.577   3.471   1.240
 1204HOH     H1 3798   2.508   3.438   1.299
 1204HOH     H2 3799   2.613   3.392   1.199
 1205HOH      O 3800   3.278   4.013   0.355
 1205HOH     H1 3801   3.367   3.983   0.340
 1205HOH     H2 3802   3.262   3.996   0.448
 1206HOH      O 3803   0.939   0.088   0.505
 1206HOH     H1 3804   0.953   0.022   0.573
 1206HOH     H2 3805   0.851   0.071   0.472
 1207HOH      O 3806   0.523   1.523   0.380
 1207HOH     H1 3807   0.516   1.428   0.387
 1207HOH     H2 3808   0.521   1.555   0.470
 1208HOH      O 3809   2.399   3.520   3.119
 1208HOH     H1 3810   2.363   3.480   3.199
 1208HOH     H2 3811   2.377   3.458   3.050
 1209HOH      O 3812   3.913   2.353   2.107
 1209HOH     H1 3813   3.894   2.371   2.015
 1209HOH     H2 3814   3.912   2.258   2.114
 1210HOH      O 3815   2.016   2.270   3.837
 1210HOH     H1 3816   2.014   2.359   3.802
 1210HOH     H2 3817   2.106   2.257   3.866
 1211HOH      O 3818   2.184   0.332   0.182
 1211HOH     H1 3819   2.171   0.238   0.197
 1211HOH     H2 3820   2.279   0.343   0.178
 1212HOH      O 3821   0.222   1.784   2.670
 1212HOH     H1 3822   0.199   1.840   2.744
 1212HOH     H2 3823   0.154   1.801   2.605
 1213HOH      O 3824   2.651   1.498   1.541
 1213HOH     H1 3825   2.684   1.408   1.545
 1213HOH     H2 3826   2.626   1.509   1.449
 1214HOH      O 3827   2.508   2.292   0.759
 1214HOH     H1 3828   2.422   2.250   0.761
 1214HOH     H2 3829   2.495   2.374   0.806
 1215HOH      O 3830   3.520   1.648   2.393
 1215HOH     H1 3831   3.545   1.558   2.415
 1215HOH     H2 3832   3.469   1.678   2.468
 1216HOH      O 3833   3.348   1.321   2.506
 1216HOH     H1 3834   3.357   1.345   2.414
 1216HOH     H2 3835   3.318   1.230   2.504
 1217HOH      O 3836   1.274   1.787   1.781
 1217HOH     H1 3837   1.302   1.877   1.799
 1217HOH     H2 3838   1.317   1.764   1.699
 1218HOH      O 3839   0.202   2.881   2.927
 1218HOH     H1 3840   0.166   2.884   2.838
 1218HOH     H2 3841   0.296   2.872   2.915
 1219HOH      O 3842   1.551   2.374   3.477
 1219HOH     H1 3843   1.585   2.443   3.421
 1219HOH     H2 3844   1.602   2.381   3.558
 1220HOH      O 3845   0.758   3.725   1.523
 1220HOH     H1 3846   0.839   3.689   1.487
 1220HOH     H2 3847   0.780   3.747   1.614
 1221HOH      O 3848   2.024   1.950   0.496
 1221HOH     H1 3849   2.081   2.005   0.550
 1221HOH     H2 3850   1.981   1.891   0.558
 1222HOH      O 3851   0.365   1.360   2.685
 1222HOH     H1 3852   0.427   1.287   2.688
 1222HOH     H2 3853   0.401   1.425   2.744
 1223HOH      O 3854   1.402   3.116   0.491
 1223HOH     H1 3855   1.429   3.207   0.481
 1223HOH     H2 3856   1.381   3.107   0.584
 1224HOH      O 3857   2.838   0.516   0.719
 1224HOH     H1 3858   2.743   0.508   0.724
 1224HOH     H2 3859   2.859   0.503   0.627
 1225HOH      O 3860   2.346   1.617   0.174
 1225HOH     H1 3861   2.282   1.553   0.145
 1225HOH     H2 3862   2.307   1.702   0.153
 1226HOH      O 3863   1.249   1.598   1.437
 1226HOH     H1 3864   1.169   1.645   1.457
 1226HOH     H2 3865   1.318   1.646   1.483
 1227HOH      O 3866   0.836   3.796   1.774
 1227HOH     H1 3867   0.872   3.753   1.852
 1227HOH     H2 3868   0.841   3.890   1.794
 1228HOH      O 3869   3.494   2.346   1.816
 1228HOH     H1 3870   3.423   2.284   1.834
 1228HOH     H2 3871   3.480   2.417   1.878
 1229HOH      O 3872   2.929   1.127   0.335
 1229HOH     H1 3873   2.946   1.221   0.326
 1229HOH     H2 3874   2.848   1.123   0.386
 1230HOH      O 3875   2.415   3.556   0.571
 1230HOH     H1 3876   2.402   3.496   0.497
 1230HOH     H2 3877   2.376   3.639   0.542
 1231HOH      O 3878   0.050   3.049   1.186
 1231HOH     H1 3879   0.061   3.060   1.280
 1231HOH     H2 3880  -0.033   3.091   1.166
 1232HOH      O 3881   0.931   2.265   2.396
 1232HOH     H1 3882   0.994   2.220   2.452
 1232HOH     H2 3883   0.945   2.228   2.309
 1233HOH      O 3884   3.881   2.769   3.193
 1233HOH     H1 3885   3.821   2.831   3.150
 1233HOH     H2 3886   3.832   2.737   3.268
 1234HOH      O 3887   3.198   2.982   1.116
 1234HOH     H1 3888   3.250   2.907   1.145
 1234HOH     H2 3889   3.263   3.043   1.081
 1235HOH      O 3890   1.239   2.454   0.470
 1235HOH     H1 3891   1.257   2.492   0.384
 1235HOH     H2 3892   1.238   2.360   0.455
 1236HOH      O 3893   2.628   2.202   1.946
 1236HOH     H1 3894   2.557   2.187   2.008
 1236HOH     H2 3895   2.590   2.184   1.860
 1237HOH      O 3896   2.249   2.727   0.561
 1237HOH     H1 3897   2.341   2.750   0.557
 1237HOH     H2 3898   2.215   2.777   0.635
 1238HOH      O 3899   3.253   2.387   3.111
 1238HOH     H1 3900   3.183   2.371   3.174
 1238HOH     H2 3901   3.286   2.474   3.133
 1239HOH      O 3902   0.565   0.528   1.833
 1239HOH     H1 3903   0.477   0.564   1.841
 1239HOH     H2 3904   0.622   0.599   1.862
 1240HOH      O 3905   1.935   1.172   3.658
 1240HOH     H1 3906   1.958   1.119   3.581
 1240HOH     H2 3907   1.913   1.108   3.725
 1241HOH      O 3908   3.832   1.691   2.415
 1241HOH     H1 3909   3.866   1.731   2.495
 1241HOH     H2 3910   3.745   1.728   2.404
 1242HOH      O 3911   1.287   2.931   3.774
 1242HOH     H1 3912   1.211   2.974   3.814
 1242HOH     H2 3913   1.351   2.926   3.845
 1243HOH      O 3914   3.700   0.830   0.902
 1243HOH     H1 3915   3.770   0.837   0.838
 1243HOH     H2 3916   3.730   0.882   0.976
 1244HOH      O 3917   0.395   3.974   3.102
 1244HOH     H1 3918   0.340   4.025   3.043
 1244HOH     H2 3919   0.478   4.022   3.104
 1245HOH      O 3920   2.798   0.332   1.493
 1245HOH     H1 3921   2.806   0.338   1.398
 1245HOH     H2 3922   2.714   0.288   1.507
 1246HOH      O 3923   2.545   2.769   0.590
 1246HOH     H1 3924   2.583   2.857   0.581
 1246HOH     H2 3925   2.563   2.726   0.507
 1247HOH      O 3926   0.278   2.649   2.206
 1247HOH     H1 3927   0.373   2.651   2.222
 1247HOH     H2 3928   0.247   2.734   2.236
 1248HOH      O 3929   0.809   1.695   3.061
 1248HOH     H1 3930   0.772   1.611   3.033
 1248HOH     H2 3931   0.846   1.733   2.981
 1249HOH      O 3932   3.518   2.267   1.159
 1249HOH     H1 3933   3.473   2.318   1.227
 1249HOH     H2 3934   3.515   2.177   1.191
 1250HOH      O 3935   4.001   0.873   2.637
 1250HOH     H1 3936   3.957   0.908   2.714
 1250HOH     H2 3937   4.093   0.888   2.653
 1251HOH      O 3938   2.599   1.675   1.040
 1251HOH     H1 3939   2.634   1.638   0.959
 1251HOH     H2 3940   2.611   1.769   1.030
 1252HOH      O 3941   1.655   2.923   2.169
 1252HOH     H1 3942   1.621   2.972   2.245
 1252HOH     H2 3943   1.732   2.973   2.142
 1253HOH      O 3944   3.861   2.143   3.246
 1253HOH     H1 3945   3.866   2.113   3.337
 1253HOH     H2 3946   3.768   2.136   3.224
 1254HOH      O 3947   3.723   3.256   2.485
 1254HOH     H1 3948   3.708   3.235   2.577
 1254HOH     H2 3949   3.742   3.350   2.485
 1255HOH      O 3950   1.563   0.846   0.783
 1255HOH     H1 3951   1.494   0.910   0.800
 1255HOH     H2 3952   1.632   0.897   0.740
 1256HOH      O 3953   1.499   2.011   0.109
 1256HOH     H1 3954   1.446   1.954   0.164
 1256HOH     H2 3955   1.531   1.953   0.040
 1257HOH      O 3956   1.132   2.328   1.776
 1257HOH     H1 3957   1.144   2.394   1.845
 1257HOH     H2 3958   1.153   2.245   1.818
 1258HOH      O 3959   0.532   3.494   1.954
 1258HOH     H1 3960   0.462   3.540   2.001
 1258HOH     H2 3961   0.603   3.486   2.017
 1259HOH      O 3962   2.228   0.987   0.888
 1259HOH     H1 3963   2.316   0.953   0.874
 1259HOH     H2 3964   2.216   1.052   0.819
 1260HOH      O 3965   1.040   1.631   3.765
 1260HOH     H1 3966   1.065   1.695   3.697
 1260HOH     H2 3967   1.115   1.629   3.824
 1261HOH      O 3968   3.464   3.701   2.374
 1261HOH     H1 3969   3.459   3.606   2.365
 1261HOH     H2 3970   3.496   3.715   2.463
 1262HOH      O 3971   1.295   1.839   2.773
 1262HOH     H1 3972   1.261   1.923   2.744
 1262HOH     H2 3973   1.382   1.833   2.734
 1263HOH      O 3974   0.243   1.649   1.768
 1263HOH     H1 3975   0.236   1.555   1.753
 1263HOH     H2 3976   0.294   1.681   1.694
 1264HOH      O 3977   2.823   1.083   1.096
 1264HOH     H1 3978   2.735   1.075   1.132
 1264HOH     H2 3979   2.810   1.083   1.001
 1265HOH      O 3980   1.362   0.074   2.941
 1265HOH     H1 3981   1.348   0.139   3.009
 1265HOH     H2 3982   1.275   0.038   2.924
 1266HOH      O 3983   2.161   2.786   0.106
 1266HOH     H1 3984   2.152   2.758   0.197
 1266HOH     H2 3985   2.111   2.868   0.102
 1267HOH      O 3986   1.017   0.164   2.557
 1267HOH     H1 3987   1.013   0.202   2.469
 1267HOH     H2 3988   1.053   0.076   2.544
 1268HOH      O 3989   0.244   3.666   3.963
 1268HOH     H1 3990   0.173   3.720   3.927
 1268HOH     H2 3991   0.233   3.672   4.057
 1269HOH      O 3992   3.169   0.505   0.597
 1269HOH     H1 3993   3.078   0.515   0.570
 1269HOH     H2 3994   3.190   0.414   0.578
 1270HOH      O 3995   0.708   3.988   0.364
 1270HOH     H1 3996   0.771   3.916   0.359
 1270HOH     H2 3997   0.706   4.023   0.274
 1271HOH      O 3998   1.351   0.674   3.078
 1271HOH     H1 3999   1.397   0.730   3.141
 1271HOH     H2 4000   1.394   0.589   3.086
 1272HOH      O 4001   3.847   0.309   1.028
 1272HOH     H1 4002   3.843   0.247   0.956
 1272HOH     H2 4003   3.820   0.259   1.105
 1273HOH      O 4004   3.370   0.525   2.430
 1273HOH     H1 4005   3.373   0.456   2.364
 1273HOH     H2 4006   3.458   0.561   2.433
 1274HOH      O 4007   1.831   1.700   3.045
 1274HOH     H1 4008   1.869   1.753   3.115
 1274HOH     H2 4009   1.737   1.706   3.059
 1275HOH      O 4010   3.679   1.757   1.550
 1275HOH     H1 4011   3.739   1.764   1.625
 1275HOH     H2 4012   3.639   1.671   1.560
 1276HOH      O 4013   1.696   1.663   1.525
 1276HOH     H1 4014   1.746   1.734   1.484
 1276HOH     H2 4015   1.722   1.585   1.478
 1277HOH      O 4016   2.565   1.534   1.972
 1277HOH     H1 4017   2.535   1.521   1.881
 1277HOH     H2 4018   2.556   1.628   1.987
 1278HOH      O 4019   0.172   3.245   0.220
 1278HOH     H1 4020   0.080   3.260   0.197
 1278HOH     H2 4021   0.172   3.239   0.315
 1279HOH      O 4022   2.452   2.375   1.143
 1279HOH     H1 4023   2.389   2.446   1.141
 1279HOH     H2 4024   2.482   2.372   1.234
 1280HOH      O 4025   2.371   3.424   0.109
 1280HOH     H1 4026   2.457   3.459   0.086
 1280HOH     H2 4027   2.312   3.461   0.042
 1281HOH      O 4028   3.176   1.117   3.307
 1281HOH     H1 4029   3.185   1.212   3.303
 1281HOH     H2 4030   3.204   1.087   3.220
 1282HOH      O 4031   3.018   3.447   0.990
 1282HOH     H1 4032   3.073   3.519   0.958
 1282HOH     H2 4033   3.060   3.420   1.072
 1283HOH      O 4034   1.975   2.218   1.156
 1283HOH     H1 4035   2.005   2.299   1.197
 1283HOH     H2 4036   2.041   2.153   1.179
 1284HOH      O 4037   3.018   3.771   0.432
 1284HOH     H1 4038   3.011   3.774   0.527
 1284HOH     H2 4039   2.927   3.775   0.402
 1285HOH      O 4040   1.925   1.192   2.248
 1285HOH     H1 4041   1.845   1.240   2.267
 1285HOH     H2 4042   1.898   1.122   2.189
 1286HOH      O 4043   2.339   1.983   0.805
 1286HOH     H1 4044   2.286   1.908   0.833
 1286HOH     H2 4045   2.390   2.006   0.883
 1287HOH      O 4046   0.449   1.516   2.148
 1287HOH     H1 4047   0.484   1.454   2.212
 1287HOH     H2 4048   0.356   1.494   2.141
 1288HOH      O 4049   2.315   2.932   1.565
 1288HOH     H1 4050   2.358   2.939   1.650
 1288HOH     H2 4051   2.354   2.854   1.525
 1289HOH      O 4052   3.259   1.598   1.806
 1289HOH     H1 4053   3.351   1.580   1.829
 1289HOH     H2 4054   3.240   1.682   1.849
 1290HOH      O 4055   0.518   0.638   1.061
 1290HOH     H1 4056   0.449   0.637   0.995
 1290HOH     H2 4057   0.599   0.634   1.010
 1291HOH      O 4058   0.879   3.415   0.623
 1291HOH     H1 4059   0.806   3.465   0.658
 1291HOH     H2 4060   0.859   3.324   0.643
 1292HOH      O 4061   2.131   1.928   3.385
 1292HOH     H1 4062   2.173   1.842   3.388
 1292HOH     H2 4063   2.160   1.971   3.466
 1293HOH      O 4064   0.794   2.202   1.657
 1293HOH     H1 4065   0.877   2.154   1.657
 1293HOH     H2 4066   0.767   2.203   1.749
 1294HOH      O 4067   2.354   1.553   3.561
 1294HOH     H1 4068   2.339   1.610   3.637
 1294HOH     H2 4069   2.329   1.466   3.592
 1295HOH      O 4070   3.245   2.940   0.400
 1295HOH     H1 4071   3.178   2.876   0.423
 1295HOH     H2 4072   3.310   2.934   0.469
 1296HOH      O 4073   3.366   3.082   2.347
 1296HOH     H1 4074   3.306   3.008   2.353
 1296HOH     H2 4075   3.440   3.048   2.296
 1297HOH      O 4076   2.249   0.262   3.878
 1297HOH     H1 4077   2.193   0.280   3.802
 1297HOH     H2 4078   2.321   0.324   3.869
 1298HOH      O 4079   3.573   3.141   2.687
 1298HOH     H1 4080   3.616   3.060   2.714
 1298HOH     H2 4081   3.489   3.140   2.733
 1299HOH      O 4082   2.992   3.365   0.181
 1299HOH     H1 4083   3.051   3.438   0.162
 1299HOH     H2 4084   3.039   3.287   0.149
 1300HOH      O 4085   3.661   1.454   0.682
 1300HOH     H1 4086   3.578   1.407   0.688
 1300HOH     H2 4087   3.641   1.543   0.712
 1301HOH      O 4088   3.841   0.250   1.317
 1301HOH     H1 4089   3.772   0.189   1.344
 1301HOH     H2 4090   3.916   0.194   1.299
 1302HOH      O 4091   0.866   0.405   0.882
 1302HOH     H1 4092   0.933   0.402   0.950
 1302HOH     H2 4093   0.815   0.484   0.902
 1303HOH      O 4094   3.349   3.773   0.686
 1303HOH     H1 4095   3.359   3.866   0.703
 1303HOH     H2 4096   3.430   3.733   0.719
 1304HOH      O 4097   0.084   1.982   1.565
 1304HOH     H1 4098   0.110   2.074   1.568
 1304HOH     H2 4099   0.163   1.934   1.589
 1305HOH      O 4100   0.166   3.880   3.716
 1305HOH     H1 4101   0.143   3.849   3.628
 1305HOH     H2 4102   0.092   3.854   3.771
 1306HOH      O 4103   0.572   3.072   0.153
 1306HOH     H1 4104   0.477   3.069   0.143
 1306HOH     H2 4105   0.605   3.073   0.063
 1307HOH      O 4106   1.074   0.440   1.047
 1307HOH     H1 4107   1.158   0.438   1.093
 1307HOH     H2 4108   1.067   0.530   1.015
 1308HOH      O 4109   2.303   3.983   0.881
 1308HOH     H1 4110   2.371   3.926   0.845
 1308HOH     H2 4111   2.234   3.922   0.908
 1309HOH      O 4112   1.113   3.340   1.311
 1309HOH     H1 4113   1.184   3.394   1.347
 1309HOH     H2 4114   1.126   3.254   1.352
 1310HOH      O 4115   3.165   1.395   1.949
 1310HOH     H1 4116   3.186   1.445   2.028
 1310HOH     H2 4117   3.209   1.442   1.878
 1311HOH      O 4118   3.405   1.643   3.644
 1311HOH     H1 4119   3.480   1.584   3.650
 1311HOH     H2 4120   3.420   1.708   3.712
 1312HOH      O 4121   3.400   1.000   0.538
 1312HOH     H1 4122   3.380   1.064   0.470
 1312HOH     H2 4123   3.344   1.026   0.612
 1313HOH      O 4124   3.368   3.201   1.031
 1313HOH     H1 4125   3.439   3.236   1.083
 1313HOH     H2 4126   3.290   3.249   1.061
 1314HOH      O 4127   3.708   2.310   1.485
 1314HOH     H1 4128   3.763   2.232   1.477
 1314HOH     H2 4129   3.621   2.277   1.508
 1315HOH      O 4130   0.751   3.209   3.854
 1315HOH     H1 4131   0.766   3.250   3.769
 1315HOH     H2 4132   0.658   3.221   3.871
 1316HOH      O 4133   1.192   2.111   0.425
 1316HOH     H1 4134   1.144   2.085   0.504
 1316HOH     H2 4135   1.126   2.112   0.356
 1317HOH      O 4136   3.151   1.237   1.628
 1317HOH     H1 4137   3.246   1.247   1.642
 1317HOH     H2 4138   3.144   1.206   1.538
 1318HOH      O 4139   0.448   1.935   1.097
 1318HOH     H1 4140   0.402   1.858   1.065
 1318HOH     H2 4141   0.415   1.948   1.185
 1319HOH      O 4142   3.883   0.448   2.873
 1319HOH     H1 4143   3.871   0.466   2.780
 1319HOH     H2 4144   3.976   0.467   2.888
 1320HOH      O 4145   1.672   3.018   3.281
 1320HOH     H1 4146   1.669   3.099   3.332
 1320HOH     H2 4147   1.593   3.021   3.227
 1321HOH      O 4148   0.138   1.674   1.246
 1321HOH     H1 4149   0.095   1.753   1.279
 1321HOH     H2 4150   0.075   1.604   1.262
 1322HOH      O 4151   1.241   1.207   1.821
 1322HOH     H1 4152   1.276   1.118   1.825
 1322HOH     H2 4153   1.318   1.263   1.828
 1323HOH      O 4154   1.070   3.647   3.174
 1323HOH     H1 4155   1.027   3.627   3.257
 1323HOH     H2 4156   0.998   3.672   3.115
 1324HOH      O 4157   3.963   3.840   1.153
 1324HOH     H1 4158   3.942   3.891   1.075
 1324HOH     H2 4159   4.051   3.806   1.135
 1325HOH      O 4160   0.206   2.560   1.694
 1325HOH     H1 4161   0.292   2.600   1.706
 1325HOH     H2 4162   0.172   2.551   1.783
 1326HOH      O 4163   2.919   0.018   3.562
 1326HOH     H1 4164   2.890   0.092   3.509
 1326HOH     H2 4165   2.948   0.058   3.644
 1327HOH      O 4166   2.234   0.158   0.683
 1327HOH     H1 4167   2.151   0.183   0.641
 1327HOH     H2 4168   2.215   0.073   0.724
 1328HOH      O 4169   1.099   2.458   1.522
 1328HOH     H1 4170   1.079   2.428   1.611
 1328HOH     H2 4171   1.176   2.514   1.533
 1329HOH      O 4172   3.566   2.226   3.174
 1329HOH     H1 4173   3.611   2.235   3.090
 1329HOH     H2 4174   3.477   2.199   3.151
 1330HOH      O 4175   3.240   2.090   2.509
 1330HOH     H1 4176   3.179   2.061   2.577
 1330HOH     H2 4177   3.309   2.136   2.557
 1331HOH      O 4178   2.463   3.163   0.086
 1331HOH     H1 4179   2.448   3.240   0.141
 1331HOH     H2 4180   2.404   3.176   0.011
 1332HOH      O 4181   0.425   3.218   0.821
 1332HOH     H1 4182   0.332   3.199   0.838
 1332HOH     H2 4183   0.462   3.134   0.794
 1333HOH      O 4184   2.800   0.211   3.390
 1333HOH     H1 4185   2.711   0.245   3.381
 1333HOH     H2 4186   2.833   0.206   3.301
 1334HOH      O 4187   3.335   2.420   2.472
 1334HOH     H1 4188   3.255   2.434   2.421
 1334HOH     H2 4189   3.406   2.433   2.409
 1335HOH      O 4190   0.706   1.403   3.266
 1335HOH     H1 4191   0.793   1.417   3.304
 1335HOH     H2 4192   0.718   1.418   3.172
 1336HOH      O 4193   0.435   3.574   2.580
 1336HOH     H1 4194   0.415   3.492   2.535
 1336HOH     H2 4195   0.381   3.639   2.536
 1337HOH      O 4196   2.363   0.808   1.122
 1337HOH     H1 4197   2.342   0.867   1.195
 1337HOH     H2 4198   2.312   0.729   1.140
 1338HOH      O 4199   1.800   0.761   0.590
 1338HOH     H1 4200   1.786   0.668   0.605
 1338HOH     H2 4201   1.748   0.781   0.512
 1339HOH      O 4202   1.006   3.202   0.862
 1339HOH     H1 4203   1.091   3.201   0.906
 1339HOH     H2 4204   0.951   3.258   0.916
 1340HOH      O 4205   1.763   0.989   0.220
 1340HOH     H1 4206   1.694   1.056   0.220
 1340HOH     H2 4207   1.788   0.980   0.128
 1341HOH      O 4208   3.470   2.872   1.143
 1341HOH     H1 4209   3.507   2.959   1.130
 1341HOH     H2 4210   3.528   2.830   1.206
 1342HOH      O 4211   0.558   0.765   1.567
 1342HOH     H1 4212   0.653   0.756   1.576
 1342HOH     H2 4213   0.541   0.744   1.475
 1343HOH      O 4214   3.920   0.461   2.027
 1343HOH     H1 4215   3.825   0.456   2.030
 1343HOH     H2 4216   3.950   0.378   2.062
 1344HOH      O 4217   0.624   1.036   2.916
 1344HOH     H1 4218   0.587   1.073   2.996
 1344HOH     H2 4219   0.716   1.065   2.917
 1345HOH      O 4220   2.624   3.258   0.358
 1345HOH     H1 4221   2.662   3.343   0.334
 1345HOH     H2 4222   2.693   3.195   0.339
 1346HOH      O 4223   3.179   0.497   2.624
 1346HOH     H1 4224   3.105   0.472   2.568
 1346HOH     H2 4225   3.256   0.485   2.569
 1347HOH      O 4226   2.076   0.037   1.554
 1347HOH     H1 4227   1.990   0.054   1.514
 1347HOH     H2 4228   2.058  -0.027   1.622
 1348HOH      O 4229   0.852   2.576   2.955
 1348HOH     H1 4230   0.906   2.506   2.991
 1348HOH     H2 4231   0.764   2.557   2.987
 1349HOH      O 4232   2.873   1.024   2.828
 1349HOH     H1 4233   2.840   1.112   2.813
 1349HOH     H2 4234   2.843   0.974   2.752
 1350HOH      O 4235   2.340   3.762   2.737
 1350HOH     H1 4236   2.354   3.669   2.723
 1350HOH     H2 4237   2.246   3.775   2.727
 1351HOH      O 4238   2.110   3.866   2.150
 1351HOH     H1 4239   2.085   3.827   2.234
 1351HOH     H2 4240   2.032   3.859   2.096
 1352HOH      O 4241   3.312   2.527   1.535
 1352HOH     H1 4242   3.241   2.558   1.479
 1352HOH     H2 4243   3.301   2.575   1.617
 1353HOH      O 4244   3.794   2.214   2.744
 1353HOH     H1 4245   3.874   2.184   2.702
 1353HOH     H2 4246   3.819   2.229   2.835
 1354HOH      O 4247   2.884   2.835   1.409
 1354HOH     H1 4248   2.914   2.783   1.334
 1354HOH     H2 4249   2.841   2.772   1.466
 1355HOH      O 4250   1.162   2.798   3.304
 1355HOH     H1 4251   1.229   2.749   3.256
 1355HOH     H2 4252   1.079   2.767   3.267
 1356HOH      O 4253   1.713   3.235   3.471
 1356HOH     H1 4254   1.650   3.218   3.540
 1356HOH     H2 4255   1.799   3.230   3.514
 1357HOH      O 4256   3.901   2.636   1.774
 1357HOH     H1 4257   3.867   2.553   1.805
 1357HOH     H2 4258   3.983   2.648   1.823
 1358HOH      O 4259   3.128   0.348   3.774
 1358HOH     H1 4260   3.108   0.385   3.860
 1358HOH     H2 4261   3.165   0.262   3.793
 1359HOH      O 4262   0.349   1.843   1.586
 1359HOH     H1 4263   0.348   1.865   1.493
 1359HOH     H2 4264   0.406   1.766   1.591
 1360HOH      O 4265   0.884   3.679   1.101
 1360HOH     H1 4266   0.797   3.673   1.140
 1360HOH     H2 4267   0.912   3.587   1.091
 1361HOH      O 4268   3.787   2.481   1.256
 1361HOH     H1 4269   3.791   2.412   1.190
 1361HOH     H2 4270   3.800   2.436   1.339
 1362HOH      O 4271   2.269   3.063   1.939
 1362HOH     H1 4272   2.205   3.082   1.870
 1362HOH     H2 4273   2.215   3.034   2.013
 1363HOH      O 4274   1.076   4.024   0.278
 1363HOH     H1 4275   1.003   4.051   0.223
 1363HOH     H2 4276   1.050   4.048   0.367
 1364HOH      O 4277   0.763   3.989   2.781
 1364HOH     H1 4278   0.800   4.063   2.735
 1364HOH     H2 4279   0.742   3.926   2.712
 1365HOH      O 4280   2.959   2.912   1.741
 1365HOH     H1 4281   3.005   2.855   1.803
 1365HOH     H2 4282   2.879   2.864   1.720
 1366HOH      O 4283   0.147   0.880   1.910
 1366HOH     H1 4284   0.235   0.877   1.873
 1366HOH     H2 4285   0.125   0.789   1.927
 1367HOH      O 4286   1.638   0.161   3.467
 1367HOH     H1 4287   1.573   0.226   3.495
 1367HOH     H2 4288   1.631   0.091   3.532
 1368HOH      O 4289   2.100   1.742   1.118
 1368HOH     H1 4290   2.117   1.649   1.103
 1368HOH     H2 4291   2.092   1.779   1.030
 1369HOH      O 4292   2.970   0.521   3.927
 1369HOH     H1 4293   2.918   0.585   3.977
 1369HOH     H2 4294   2.995   0.568   3.847
 1370HOH      O 4295   2.856   0.513   2.276
 1370HOH     H1 4296   2.919   0.506   2.204
 1370HOH     H2 4297   2.832   0.606   2.277
 1371HOH      O 4298   0.447   0.651   0.032
 1371HOH     H1 4299   0.447   0.693   0.118
 1371HOH     H2 4300   0.396   0.711  -0.023
 1372HOH      O 4301   3.923   1.350   3.180
 1372HOH     H1 4302   3.955   1.287   3.115
 1372HOH     H2 4303   3.912   1.431   3.131
 1373HOH      O 4304   0.552   1.084   0.696
 1373HOH     H1 4305   0.531   1.128   0.614
 1373HOH     H2 4306   0.575   1.155   0.756
 1374HOH      O 4307   2.635   0.385   0.536
 1374HOH     H1 4308   2.595   0.462   0.578
 1374HOH     H2 4309   2.580   0.312   0.564
 1375HOH      O 4310   0.103   3.606   1.105
 1375HOH     H1 4311   0.158   3.657   1.045
 1375HOH     H2 4312   0.107   3.517   1.071
 1376HOH      O 4313   0.651   3.309   1.239
 1376HOH     H1 4314   0.653   3.338   1.330
 1376HOH     H2 4315   0.559   3.286   1.224
 1377HOH      O 4316   0.136   2.258   1.525
 1377HOH     H1 4317   0.052   2.297   1.549
 1377HOH     H2 4318   0.170   2.315   1.456
 1378HOH      O 4319   1.009   2.819   0.311
 1378HOH     H1 4320   1.009   2.882   0.239
 1378HOH     H2 4321   1.095   2.829   0.351
 1379HOH      O 4322   1.104   4.021   2.889
 1379HOH     H1 4323   1.073   4.066   2.967
 1379HOH     H2 4324   1.053   4.058   2.817
 1380HOH      O 4325   2.519   3.767   0.256
 1380HOH     H1 4326   2.462   3.843   0.258
 1380HOH     H2 4327   2.573   3.780   0.178
 1381HOH      O 4328   0.095   3.285   3.571
 1381HOH     H1 4329   0.184   3.255   3.551
 1381HOH     H2 4330   0.107   3.347   3.643
 1382HOH      O 4331   1.720   2.272   3.999
 1382HOH     H1 4332   1.780   2.230   3.937
 1382HOH     H2 4333   1.701   2.357   3.959
 1383HOH      O 4334   3.629   0.825   1.410
 1383HOH     H1 4335   3.658   0.734   1.399
 1383HOH     H2 4336   3.705   0.877   1.385
 1384HOH      O 4337   2.865   0.526   1.944
 1384HOH     H1 4338   2.848   0.529   1.850
 1384HOH     H2 4339   2.805   0.460   1.978
 1385HOH      O 4340   1.481   2.682   0.416
 1385HOH     H1 4341   1.433   2.729   0.348
 1385HOH     H2 4342   1.446   2.717   0.498
 1386HOH      O 4343   2.214   3.745   0.520
 1386HOH     H1 4344   2.136   3.798   0.504
 1386HOH     H2 4345   2.182   3.655   0.521
 1387HOH      O 4346   0.265   3.415   1.593
 1387HOH     H1 4347   0.268   3.458   1.678
 1387HOH     H2 4348   0.292   3.325   1.610
 1388HOH      O 4349   1.799   1.869   0.128
 1388HOH     H1 4350   1.777   1.951   0.172
 1388HOH     H2 4351   1.853   1.894   0.054
 1389HOH      O 4352   0.323   2.380   3.236
 1389HOH     H1 4353   0.416   2.400   3.244
 1389HOH     H2 4354   0.280   2.448   3.288
 1390HOH      O 4355   3.936   3.588   3.674
 1390HOH     H1 4356   3.951   3.567   3.582
 1390HOH     H2 4357   3.843   3.570   3.688
 1391HOH      O 4358   1.023   1.416   1.292
 1391HOH     H1 4359   1.102   1.468   1.307
 1391HOH     H2 4360   0.964   1.444   1.363
 1392HOH      O 4361   2.968   0.053   3.844
 1392HOH     H1 4362   2.969  -0.039   3.869
 1392HOH     H2 4363   2.946   0.100   3.924
 1393HOH      O 4364   0.130   1.621   3.010
 1393HOH     H1 4365   0.121   1.567   3.089
 1393HOH     H2 4366   0.224   1.632   2.998
 1394HOH      O 4367   2.905   1.552   2.537
 1394HOH     H1 4368   2.815   1.576   2.517
 1394HOH     H2 4369   2.915   1.571   2.631
 1395HOH      O 4370   2.926   0.220   3.154
 1395HOH     H1 4371   2.946   0.202   3.063
 1395HOH     H2 4372   2.851   0.279   3.151
 1396HOH      O 4373   1.641   3.978   2.918
 1396HOH     H1 4374   1.711   3.939   2.971
 1396HOH     H2 4375   1.583   4.019   2.981
 1397HOH      O 4376   3.061   2.551   1.392
 1397HOH     H1 4377   3.025   2.503   1.467
 1397HOH     H2 4378   2.991   2.550   1.327
 1398HOH      O 4379   0.138   2.249   1.115
 1398HOH     H1 4380   0.209   2.260   1.178
 1398HOH     H2 4381   0.176   2.271   1.031
 1399HOH      O 4382   0.560   3.927   1.703
 1399HOH     H1 4383   0.633   3.889   1.655
 1399HOH     H2 4384   0.487   3.867   1.687
 1400HOH      O 4385   1.168   3.754   1.997
 1400HOH     H1 4386   1.246   3.759   1.941
 1400HOH     H2 4387   1.175   3.669   2.040
 1401HOH      O 4388   2.485   1.055   3.658
 1401HOH     H1 4389   2.520   1.100   3.735
 1401HOH     H2 4390   2.544   0.982   3.644
 1402HOH      O 4391   3.554   0.004   0.924
 1402HOH     H1 4392   3.578   0.074   0.864
 1402HOH     H2 4393   3.519   0.049   1.001
 1403HOH      O 4394   0.335   0.135   2.177
 1403HOH     H1 4395   0.424   0.100   2.167
 1403HOH     H2 4396   0.289   0.107   2.098
 1404HOH      O 4397   1.572   2.964   2.664
 1404HOH     H1 4398   1.580   2.883   2.714
 1404HOH     H2 4399   1.581   3.033   2.729
 1405HOH      O 4400   3.550   0.157   1.811
 1405HOH     H1 4401   3.487   0.099   1.854
 1405HOH     H2 4402   3.604   0.097   1.758
 1406HOH      O 4403   0.560   2.147   0.947
 1406HOH     H1 4404   0.535   2.065   0.990
 1406HOH     H2 4405   0.586   2.204   1.019
 1407HOH      O 4406   0.150   2.354   2.800
 1407HOH     H1 4407   0.076   2.350   2.861
 1407HOH     H2 4408   0.227   2.361   2.856
 1408HOH      O 4409   1.205   2.549   0.225
 1408HOH     H1 4410   1.275   2.580   0.167
 1408HOH     H2 4411   1.129   2.602   0.201
 1409HOH      O 4412   3.431   0.874   2.473
 1409HOH     H1 4413   3.500   0.809   2.477
 1409HOH     H2 4414   3.369   0.840   2.408
 1410HOH      O 4415   0.932   2.686   3.251
 1410HOH     H1 4416   0.846   2.713   3.219
 1410HOH     H2 4417   0.941   2.596   3.219
 1411HOH      O 4418   1.084   2.838   0.835
 1411HOH     H1 4419   1.141   2.825   0.759
 1411HOH     H2 4420   1.040   2.754   0.847
 1412HOH      O 4421   3.095   0.108   1.534
 1412HOH     H1 4422   3.021   0.080   1.589
 1412HOH     H2 4423   3.133   0.182   1.581
 1413HOH      O 4424   0.936   2.165   1.165
 1413HOH     H1 4425   0.945   2.178   1.260
 1413HOH     H2 4426   1.005   2.219   1.127
 1414HOH      O 4427   0.608   0.768   3.037
 1414HOH     H1 4428   0.603   0.854   2.994
 1414HOH     H2 4429   0.702   0.751   3.046
 1415HOH      O 4430   0.596   3.369   1.509
 1415HOH     H1 4431   0.603   3.291   1.564
 1415HOH     H2 4432   0.644   3.436   1.556
 1416HOH      O 4433   2.352   2.388   3.553
 1416HOH     H1 4434   2.300   2.356   3.479
 1416HOH     H2 4435   2.440   2.398   3.518
 1417HOH      O 4436   1.367   1.800   0.318
 1417HOH     H1 4437   1.283   1.764   0.347
 1417HOH     H2 4438   1.374   1.885   0.363
 1418HOH      O 4439   4.027   3.049   3.824
 1418HOH     H1 4440   4.116   3.083   3.828
 1418HOH     H2 4441   4.018   3.014   3.736
 1419HOH      O 4442   1.400   0.364   2.695
 1419HOH     H1 4443   1.399   0.390   2.787
 1419HOH     H2 4444   1.380   0.270   2.697
 1420HOH      O 4445   3.395   0.066   2.790
 1420HOH     H1 4446   3.399  -0.021   2.830
 1420HOH     H2 4447   3.360   0.122   2.859
 1421HOH      O 4448   2.064   1.188   2.467
 1421HOH     H1 4449   2.014   1.176   2.386
 1421HOH     H2 4450   2.151   1.217   2.438
 1422HOH      O 4451   3.872   0.025   0.933
 1422HOH     H1 4452   3.786  -0.016   0.942
 1422HOH     H2 4453   3.907  -0.011   0.851
 1423HOH      O 4454   1.348   3.412   0.853
 1423HOH     H1 4455   1.393   3.425   0.769
 1423HOH     H2 4456   1.258   3.439   0.836
 1424HOH      O 4457   1.821   1.548   2.408
 1424HOH     H1 4458   1.869   1.502   2.477
 1424HOH     H2 4459   1.883   1.553   2.335
 1425HOH      O 4460   3.480   1.945   0.470
 1425HOH     H1 4461   3.396   1.960   0.514
 1425HOH     H2 4462   3.466   1.975   0.380
 1426HOH      O 4463   0.925   3.353   2.795
 1426HOH     H1 4464   0.989   3.358   2.866
 1426HOH     H2 4465   0.842   3.335   2.839
 1427HOH      O 4466   2.347   3.662   3.534
 1427HOH     H1 4467   2.291   3.684   3.459
 1427HOH     H2 4468   2.436   3.664   3.499
 1428HOH      O 4469   3.700   1.809   3.909
 1428HOH     H1 4470   3.605   1.795   3.909
 1428HOH     H2 4471   3.724   1.807   4.002
 1429HOH      O 4472   2.090   1.220   1.005
 1429HOH     H1 4473   2.068   1.142   0.954
 1429HOH     H2 4474   2.008   1.246   1.046
 1430HOH      O 4475   1.586   0.580   2.499
 1430HOH     H1 4476   1.547   0.580   2.586
 1430HOH     H2 4477   1.555   0.661   2.458
 1431HOH      O 4478   0.872   2.818   2.085
 1431HOH     H1 4479   0.964   2.841   2.095
 1431HOH     H2 4480   0.863   2.733   2.128
 1432HOH      O 4481   3.537   3.769   1.079
 1432HOH     H1 4482   3.590   3.706   1.030
 1432HOH     H2 4483   3.565   3.855   1.047
 1433HOH      O 4484   1.412   2.963   3.156
 1433HOH     H1 4485   1.418   2.898   3.087
 1433HOH     H2 4486   1.352   3.029   3.121
 1434HOH      O 4487   2.256   0.940   1.347
 1434HOH     H1 4488   2.162   0.920   1.352
 1434HOH     H2 4489   2.259   1.035   1.339
 1435HOH      O 4490   2.738   3.744   0.672
 1435HOH     H1 4491   2.723   3.708   0.585
 1435HOH     H2 4492   2.820   3.793   0.663
 1436HOH      O 4493   3.733   0.071   0.128
 1436HOH     H1 4494   3.805   0.042   0.072
 1436HOH     H2 4495   3.700   0.150   0.085
 1437HOH      O 4496   1.466   1.459   2.332
 1437HOH     H1 4497   1.431   1.400   2.265
 1437HOH     H2 4498   1.399   1.527   2.341
 1438HOH      O 4499   2.024   0.619   2.784
 1438HOH     H1 4500   2.059   0.539   2.824
 1438HOH     H2 4501   1.961   0.588   2.720
 1439HOH      O 4502   3.876   3.267   1.744
 1439HOH     H1 4503   3.903   3.311   1.825
 1439HOH     H2 4504   3.877   3.336   1.678
 1440HOH      O 4505   3.476   3.331   1.898
 1440HOH     H1 4506   3.535   3.358   1.968
 1440HOH     H2 4507   3.407   3.398   1.898
 1441HOH      O 4508   3.922   2.769   2.367
 1441HOH     H1 4509   3.991   2.779   2.302
 1441HOH     H2 4510   3.867   2.698   2.332
 1442HOH      O 4511   2.117   0.169   2.036
 1442HOH     H1 4512   2.058   0.094   2.039
 1442HOH     H2 4513   2.112   0.200   1.946
 1443HOH      O 4514   1.028   0.218   0.059
 1443HOH     H1 4515   1.105   0.197   0.111
 1443HOH     H2 4516   1.062   0.235  -0.029
 1444HOH      O 4517   2.468   1.967   1.079
 1444HOH     H1 4518   2.461   1.998   1.169
 1444HOH     H2 4519   2.442   1.875   1.083
 1445HOH      O 4520   1.550   1.615   3.002
 1445HOH     H1 4521   1.531   1.522   3.014
 1445HOH     H2 4522   1.560   1.626   2.908
 1446HOH      O 4523   0.686   3.496   2.185
 1446HOH     H1 4524   0.597   3.487   2.217
 1446HOH     H2 4525   0.731   3.546   2.254
 1447HOH      O 4526   0.254   0.364   3.969
 1447HOH     H1 4527   0.233   0.273   3.993
 1447HOH     H2 4528   0.175   0.396   3.926
 1448HOH      O 4529   1.623   0.790   0.365
 1448HOH     H1 4530   1.670   0.856   0.313
 1448HOH     H2 4531   1.550   0.763   0.309
 1449HOH      O 4532   0.979   1.388   0.830
 1449HOH     H1 4533   1.024   1.337   0.762
 1449HOH     H2 4534   0.958   1.324   0.898
 1450HOH      O 4535   0.105   0.171   0.446
 1450HOH     H1 4536   0.123   0.144   0.536
 1450HOH     H2 4537   0.010   0.168   0.439
 1451HOH      O 4538   0.651   1.755   3.532
 1451HOH     H1 4539   0.622   1.727   3.445
 1451HOH     H2 4540   0.708   1.830   3.516
 1452HOH      O 4541   1.210   0.564   0.075
 1452HOH     H1 4542   1.137   0.555   0.137
 1452HOH     H2 4543   1.253   0.646   0.100
 1453HOH      O 4544   3.044   2.742   1.929
 1453HOH     H1 4545   3.041   2.778   2.017
 1453HOH     H2 4546   2.972   2.679   1.926
 1454HOH      O 4547   3.295   1.759   3.055
 1454HOH     H1 4548   3.234   1.755   2.982
 1454HOH     H2 4549   3.315   1.668   3.076
 1455HOH      O 4550   1.120   2.713   1.782
 1455HOH     H1 4551   1.182   2.785   1.793
 1455HOH     H2 4552   1.134   2.657   1.858
 1456HOH      O 4553   1.919   0.925   1.435
 1456HOH     H1 4554   1.831   0.888   1.442
 1456HOH     H2 4555   1.970   0.880   1.503
 1457HOH      O 4556   1.946   0.836   2.946
 1457HOH     H1 4557   1.854   0.844   2.919
 1457HOH     H2 4558   1.982   0.768   2.889
 1458HOH      O 4559   0.360   0.892   3.090
 1458HOH     H1 4560   0.435   0.834   3.098
 1458HOH     H2 4561   0.370   0.954   3.162
 1459HOH      O 4562   2.856   2.032   3.886
 1459HOH     H1 4563   2.888   2.064   3.971
 1459HOH     H2 4564   2.806   1.953   3.907
 1460HOH      O 4565   3.320   2.106   1.840
 1460HOH     H1 4566   3.280   2.078   1.923
 1460HOH     H2 4567   3.396   2.048   1.830
 1461HOH      O 4568   3.506   2.093   3.805
 1461HOH     H1 4569   3.539   2.103   3.895
 1461HOH     H2 4570   3.432   2.153   3.801
 1462HOH      O 4571   3.826   0.158   2.058
 1462HOH     H1 4572   3.752   0.219   2.055
 1462HOH     H2 4573   3.852   0.147   1.967
 1463HOH      O 4574   0.116   1.061   3.409
 1463HOH     H1 4575   0.062   1.133   3.442
 1463HOH     H2 4576   0.168   1.033   3.484
 1464HOH      O 4577   2.087   0.538   3.475
 1464HOH     H1 4578   2.120   0.547   3.386
 1464HOH     H2 4579   2.146   0.474   3.516
 1465HOH      O 4580   1.005   3.951   1.348
 1465HOH     H1 4581   1.048   3.930   1.265
 1465HOH     H2 4582   0.987   4.045   1.342
 1466HOH      O 4583   3.826   3.295   3.841
 1466HOH     H1 4584   3.894   3.359   3.822
 1466HOH     H2 4585   3.872   3.212   3.849
 1467HOH      O 4586   3.989   0.447   3.537
 1467HOH     H1 4587   3.936   0.523   3.562
 1467HOH     H2 4588   4.022   0.467   3.450
 1468HOH      O 4589   1.581   1.419   3.965
 1468HOH     H1 4590   1.577   1.515   3.967
 1468HOH     H2 4591   1.637   1.399   3.891
 1469HOH      O 4592   2.621   0.440   0.271
 1469HOH     H1 4593   2.712   0.449   0.243
 1469HOH     H2 4594   2.625   0.395   0.355
 1470HOH      O 4595   2.861   3.608   1.972
 1470HOH     H1 4596   2.893   3.525   2.008
 1470HOH     H2 4597   2.774   3.618   2.011
 1471HOH      O 4598   1.807   0.540   0.978
 1471HOH     H1 4599   1.815   0.619   1.031
 1471HOH     H2 4600   1.717   0.541   0.946
 1472HOH      O 4601   1.565   2.754   1.971
 1472HOH     H1 4602   1.601   2.817   2.033
 1472HOH     H2 4603   1.640   2.729   1.916
 1473HOH      O 4604   2.985   3.856   0.700
 1473HOH     H1 4605   3.014   3.923   0.638
 1473HOH     H2 4606   3.049   3.859   0.771
 1474HOH      O 4607   1.626   1.652   2.746
 1474HOH     H1 4608   1.720   1.666   2.753
 1474HOH     H2 4609   1.606   1.658   2.653
 1475HOH      O 4610   1.231   3.892   0.024
 1475HOH     H1 4611   1.264   3.971   0.065
 1475HOH     H2 4612   1.304   3.861  -0.030
 1476HOH      O 4613   2.184   3.410   2.958
 1476HOH     H1 4614   2.112   3.464   2.925
 1476HOH     H2 4615   2.190   3.337   2.896
 1477HOH      O 4616   3.327   2.467   2.009
 1477HOH     H1 4617   3.314   2.561   2.002
 1477HOH     H2 4618   3.247   2.434   2.049
 1478HOH      O 4619   0.684   1.221   3.857
 1478HOH     H1 4620   0.724   1.161   3.794
 1478HOH     H2 4621   0.742   1.297   3.857
 1479HOH      O 4622   3.119   4.018   0.103
 1479HOH     H1 4623   3.162   4.017   0.188
 1479HOH     H2 4624   3.045   3.958   0.112
 1480HOH      O 4625   1.461   3.920   3.876
 1480HOH     H1 4626   1.471   4.015   3.889
 1480HOH     H2 4627   1.548   3.885   3.893
 1481HOH      O 4628   3.219   0.708   3.142
 1481HOH     H1 4629   3.278   0.648   3.188
 1481HOH     H2 4630   3.189   0.658   3.067
 1482HOH      O 4631   3.953   3.499   0.529
 1482HOH     H1 4632   3.870   3.468   0.565
 1482HOH     H2 4633   4.015   3.488   0.601
 1483HOH      O 4634   3.945   0.303   3.221
 1483HOH     H1 4635   4.031   0.318   3.183
 1483HOH     H2 4636   3.963   0.260   3.305
 1484HOH      O 4637   3.848   0.445   1.638
 1484HOH     H1 4638   3.935   0.479   1.617
 1484HOH     H2 4639   3.800   0.521   1.671
 1485HOH      O 4640   3.748   1.577   3.767
 1485HOH     H1 4641   3.730   1.659   3.813
 1485HOH     H2 4642   3.782   1.519   3.835
 1486HOH      O 4643   2.096   3.689   2.388
 1486HOH     H1 4644   2.051   3.633   2.451
 1486HOH     H2 4645   2.170   3.636   2.358
 1487HOH      O 4646   1.864   2.427   0.209
 1487HOH     H1 4647   1.879   2.402   0.301
 1487HOH     H2 4648   1.770   2.442   0.203
 1488HOH      O 4649   2.903   1.561   3.191
 1488HOH     H1 4650   2.879   1.648   3.225
 1488HOH     H2 4651   2.853   1.552   3.110
 1489HOH      O 4652   0.667   0.090   2.522
 1489HOH     H1 4653   0.673   0.186   2.524
 1489HOH     H2 4654   0.720   0.064   2.447
 1490HOH      O 4655   0.555   0.352   3.532
 1490HOH     H1 4656   0.551   0.391   3.619
 1490HOH     H2 4657   0.467   0.315   3.519
 1491HOH      O 4658   1.649   1.726   0.340
 1491HOH     H1 4659   1.556   1.740   0.320
 1491HOH     H2 4660   1.695   1.760   0.264
 1492HOH      O 4661   1.163   1.435   0.527
 1492HOH     H1 4662   1.108   1.513   0.516
 1492HOH     H2 4663   1.150   1.385   0.447
 1493HOH      O 4664   0.029   3.878   0.211
 1493HOH     H1 4665   0.082   3.837   0.279
 1493HOH     H2 4666  -0.061   3.857   0.236
 1494HOH      O 4667   1.092   0.609   2.631
 1494HOH     H1 4668   1.147   0.608   2.709
 1494HOH     H2 4669   1.133   0.546   2.572
 1495HOH      O 4670   2.912   0.350   2.742
 1495HOH     H1 4671   2.929   0.372   2.650
 1495HOH     H2 4672   2.817   0.337   2.746
 1496HOH      O 4673   1.079   0.128   0.874
 1496HOH     H1 4674   1.006   0.127   0.937
 1496HOH     H2 4675   1.090   0.220   0.851
 1497HOH      O 4676   3.267   0.238   2.958
 1497HOH     H1 4677   3.184   0.197   2.935
 1497HOH     H2 4678   3.273   0.315   2.901
 1498HOH      O 4679   2.655   0.787   3.672
 1498HOH     H1 4680   2.740   0.825   3.649
 1498HOH     H2 4681   2.660   0.697   3.641
 1499HOH      O 4682   0.631   1.398   1.692
 1499HOH     H1 4683   0.578   1.420   1.769
 1499HOH     H2 4684   0.691   1.330   1.724
 1500HOH      O 4685   3.847   0.467   0.572
 1500HOH     H1 4686   3.761   0.439   0.603
 1500HOH     H2 4687   3.903   0.460   0.650
 1501HOH      O 4688   3.955   3.028   0.069
 1501HOH     H1 4689   4.027   2.968   0.084
 1501HOH     H2 4690   3.957   3.046  -0.024
 1502HOH      O 4691   1.829   2.537   1.111
 1502HOH     H1 4692   1.874   2.598   1.053
 1502HOH     H2 4693   1.899   2.498   1.163
 1503HOH      O 4694   3.796   0.707   0.457
 1503HOH     H1 4695   3.802   0.617   0.487
 1503HOH     H2 4696   3.851   0.710   0.378
 1504HOH      O 4697   0.031   2.943   2.715
 1504HOH     H1 4698  -0.038   2.936   2.649
 1504HOH     H2 4699  -0.016   2.946   2.799
 1505HOH      O 4700   1.317   3.952   0.369
 1505HOH     H1 4701   1.248   3.996   0.320
 1505HOH     H2 4702   1.383   4.020   0.383
 1506HOH      O 4703   0.233   2.906   1.707
 1506HOH     H1 4704   0.223   2.976   1.772
 1506HOH     H2 4705   0.299   2.848   1.746
 1507HOH      O 4706   0.392   0.404   2.233
 1507HOH     H1 4707   0.374   0.313   2.210
 1507HOH     H2 4708   0.477   0.423   2.195
 1508HOH      O 4709   3.768   3.411   3.301
 1508HOH     H1 4710   3.675   3.390   3.311
 1508HOH     H2 4711   3.813   3.339   3.344
 1509HOH      O 4712   1.545   1.150   0.245
 1509HOH     H1 4713   1.458   1.111   0.234
 1509HOH     H2 4714   1.527   1.244   0.254
 1510HOH      O 4715   2.052   3.815   2.778
 1510HOH     H1 4716   1.973   3.770   2.747
 1510HOH     H2 4717   2.037   3.826   2.872
 1511HOH      O 4718   1.746   0.149   3.215
 1511HOH     H1 4719   1.695   0.073   3.187
 1511HOH     H2 4720   1.705   0.177   3.297
 1512HOH      O 4721   3.774   2.943   1.484
 1512HOH     H1 4722   3.727   2.924   1.565
 1512HOH     H2 4723   3.746   2.875   1.422
 1513HOH      O 4724   0.117   0.606   1.990
 1513HOH     H1 4725   0.029   0.570   1.997
 1513HOH     H2 4726   0.175   0.530   2.002
 1514HOH      O 4727   3.289   0.915   1.818
 1514HOH     H1 4728   3.235   0.992   1.800
 1514HOH     H2 4729   3.363   0.924   1.758
 1515HOH      O 4730   3.588   1.869   1.097
 1515HOH     H1 4731   3.526   1.917   1.041
 1515HOH     H2 4732   3.630   1.938   1.150
 1516HOH      O 4733   3.960   1.311   1.216
 1516HOH     H1 4734   3.944   1.401   1.246
 1516HOH     H2 4735   4.032   1.319   1.154
 1517HOH      O 4736   3.716   3.457   2.711
 1517HOH     H1 4737   3.770   3.381   2.734
 1517HOH     H2 4738   3.767   3.532   2.741
 1518HOH      O 4739   2.423   2.780   1.017
 1518HOH     H1 4740   2.495   2.824   1.062
 1518HOH     H2 4741   2.448   2.781   0.925
 1519HOH      O 4742   3.358   0.324   0.868
 1519HOH     H1 4743   3.341   0.404   0.919
 1519HOH     H2 4744   3.326   0.253   0.923
 1520HOH      O 4745   2.472   2.064   3.057
 1520HOH     H1 4746   2.486   1.972   3.033
 1520HOH     H2 4747   2.399   2.062   3.118
 1521HOH      O 4748   2.616   2.931   1.404
 1521HOH     H1 4749   2.709   2.922   1.426
 1521HOH     H2 4750   2.607   2.884   1.321
 1522HOH      O 4751   2.851   0.550   2.942
 1522HOH     H1 4752   2.903   0.548   3.022
 1522HOH     H2 4753   2.887   0.481   2.888
 1523HOH      O 4754   0.771   2.957   1.458
 1523HOH     H1 4755   0.862   2.943   1.483
 1523HOH     H2 4756   0.744   3.035   1.505
 1524HOH      O 4757   0.245   0.808   0.375
 1524HOH     H1 4758   0.331   0.818   0.335
 1524HOH     H2 4759   0.257   0.838   0.465
 1525HOH      O 4760   0.103   0.175   0.121
 1525HOH     H1 4761   0.028   0.142   0.073
 1525HOH     H2 4762   0.160   0.099   0.133
 1526HOH      O 4763   1.680   3.717   3.302
 1526HOH     H1 4764   1.726   3.642   3.264
 1526HOH     H2 4765   1.619   3.678   3.365
 1527HOH      O 4766   2.546   3.182   1.549
 1527HOH     H1 4767   2.511   3.253   1.495
 1527HOH     H2 4768   2.513   3.102   1.509
 1528HOH      O 4769   1.582   2.848   3.720
 1528HOH     H1 4770   1.523   2.848   3.796
 1528HOH     H2 4771   1.668   2.863   3.758
 1529HOH      O 4772   3.139   3.724   2.511
 1529HOH     H1 4773   3.060   3.775   2.496
 1529HOH     H2 4774   3.211   3.784   2.487
 1530HOH      O 4775   2.576   0.501   1.034
 1530HOH     H1 4776   2.632   0.579   1.030
 1530HOH     H2 4777   2.527   0.511   1.115
 1531HOH      O 4778   4.007   2.561   2.841
 1531HOH     H1 4779   4.028   2.572   2.934
 1531HOH     H2 4780   4.090   2.539   2.800
 1532HOH      O 4781   3.087   3.906   2.732
 1532HOH     H1 4782   3.036   3.899   2.651
 1532HOH     H2 4783   3.173   3.936   2.704
 1533HOH      O 4784   0.858   0.241   1.728
 1533HOH     H1 4785   0.800   0.291   1.670
 1533HOH     H2 4786   0.920   0.305   1.762
 1534HOH      O 4787   1.890   1.634   0.000
 1534HOH     H1 4788   1.848   1.550   0.019
 1534HOH     H2 4789   1.835   1.698   0.046
 1535HOH      O 4790   0.909   0.106   3.433
 1535HOH     H1 4791   0.887   0.123   3.525
 1535HOH     H2 4792   0.828   0.120   3.385
 1536HOH      O 4793   1.911   1.206   1.472
 1536HOH     H1 4794   1.999   1.243   1.462
 1536HOH     H2 4795   1.921   1.114   1.448
 1537HOH      O 4796   1.331   3.359   2.740
 1537HOH     H1 4797   1.297   3.269   2.747
 1537HOH     H2 4798   1.331   3.378   2.646
 1538HOH      O 4799   2.800   1.946   2.610
 1538HOH     H1 4800   2.759   1.890   2.676
 1538HOH     H2 4801   2.855   1.887   2.559
 1539HOH      O 4802   2.034   1.528   2.960
 1539HOH     H1 4803   2.003   1.553   3.048
 1539HOH     H2 4804   1.981   1.581   2.900
 1540HOH      O 4805   0.625   3.856   1.995
 1540HOH     H1 4806   0.605   3.943   2.030
 1540HOH     H2 4807   0.661   3.874   1.908
 1541HOH      O 4808   3.633   1.991   2.170
 1541HOH     H1 4809   3.542   1.983   2.198
 1541HOH     H2 4810   3.654   2.083   2.185
 1542HOH      O 4811   1.528   2.440   0.730
 1542HOH     H1 4812   1.519   2.404   0.642
 1542HOH     H2 4813   1.617   2.475   0.732
 1543HOH      O 4814   0.598   1.647   1.271
 1543HOH     H1 4815   0.635   1.731   1.243
 1543HOH     H2 4816   0.674   1.595   1.296
 1544HOH      O 4817   3.305   3.888   2.217
 1544HOH     H1 4818   3.337   3.967   2.260
 1544HOH     H2 4819   3.354   3.817   2.259
 1545HOH      O 4820   3.681   3.251   2.223
 1545HOH     H1 4821   3.714   3.337   2.195
 1545HOH     H2 4822   3.676   3.258   2.319
 1546HOH      O 4823   2.575   0.115   1.282
 1546HOH     H1 4824   2.600   0.133   1.192
 1546HOH     H2 4825   2.587   0.020   1.291
 1547HOH      O 4826   0.968   2.747   2.597
 1547HOH     H1 4827   1.047   2.734   2.545
 1547HOH     H2 4828   0.991   2.713   2.683
 1548HOH      O 4829   2.044   1.425   2.233
 1548HOH     H1 4830   2.021   1.333   2.244
 1548HOH     H2 4831   2.082   1.430   2.145
 1549HOH      O 4832   0.652   0.152   3.319
 1549HOH     H1 4833   0.629   0.174   3.229
 1549HOH     H2 4834   0.589   0.202   3.372
 1550HOH      O 4835   3.750   3.293   0.590
 1550HOH     H1 4836   3.683   3.360   0.583
 1550HOH     H2 4837   3.702   3.210   0.590
 1551HOH      O 4838   3.236   3.383   1.725
 1551HOH     H1 4839   3.202   3.471   1.742
 1551HOH     H2 4840   3.177   3.325   1.773
 1552HOH      O 4841   3.377   3.823   1.526
 1552HOH     H1 4842   3.293   3.779   1.508
 1552HOH     H2 4843   3.375   3.902   1.473
 1553HOH      O 4844   1.458   2.321   1.482
 1553HOH     H1 4845   1.553   2.322   1.496
 1553HOH     H2 4846   1.421   2.349   1.565
 1554HOH      O 4847   3.188   3.773   3.057
 1554HOH     H1 4848   3.107   3.791   3.104
 1554HOH     H2 4849   3.257   3.802   3.117
 1555HOH      O 4850   0.630   1.461   2.542
 1555HOH     H1 4851   0.715   1.462   2.499
 1555HOH     H2 4852   0.567   1.451   2.471
 1556HOH      O 4853   0.119   3.500   2.108
 1556HOH     H1 4854   0.102   3.584   2.150
 1556HOH     H2 4855   0.169   3.450   2.173
 1557HOH      O 4856   1.679   1.173   0.845
 1557HOH     H1 4857   1.593   1.151   0.811
 1557HOH     H2 4858   1.723   1.217   0.773
 1558HOH      O 4859   2.699   0.373   3.150
 1558HOH     H1 4860   2.656   0.292   3.123
 1558HOH     H2 4861   2.627   0.428   3.181
 1559HOH      O 4862   0.955   2.601   0.530
 1559HOH     H1 4863   0.933   2.656   0.455
 1559HOH     H2 4864   0.991   2.522   0.492
 1560HOH      O 4865   3.032   0.976   2.148
 1560HOH     H1 4866   2.971   0.920   2.100
 1560HOH     H2 4867   3.102   0.917   2.176
 1561HOH      O 4868   1.339   0.255   3.169
 1561HOH     H1 4869   1.418   0.286   3.212
 1561HOH     H2 4870   1.270   0.264   3.236
 1562HOH      O 4871   1.895   1.697   2.791
 1562HOH     H1 4872   1.963   1.762   2.773
 1562HOH     H2 4873   1.869   1.714   2.882
 1563HOH      O 4874   1.829   2.198   0.506
 1563HOH     H1 4875   1.818   2.124   0.447
 1563HOH     H2 4876   1.849   2.158   0.591
 1564HOH      O 4877   1.594   3.518   1.487
 1564HOH     H1 4878   1.679   3.561   1.491
 1564HOH     H2 4879   1.560   3.523   1.576
 1565HOH      O 4880   2.032   3.977   1.263
 1565HOH     H1 4881   1.968   3.930   1.209
 1565HOH     H2 4882   2.061   3.912   1.328
 1566HOH      O 4883   2.474   1.338   1.130
 1566HOH     H1 4884   2.531   1.336   1.053
 1566HOH     H2 4885   2.496   1.421   1.174
 1567HOH      O 4886   3.595   1.862   3.133
 1567HOH     H1 4887   3.589   1.771   3.104
 1567HOH     H2 4888   3.516   1.903   3.099
 1568HOH      O 4889   3.542   1.667   0.798
 1568HOH     H1 4890   3.465   1.628   0.840
 1568HOH     H2 4891   3.563   1.743   0.853
 1569HOH      O 4892   3.410   0.120   3.173
 1569HOH     H1 4893   3.452   0.063   3.108
 1569HOH     H2 4894   3.335   0.157   3.127
 1570HOH      O 4895   0.363   1.634   0.626
 1570HOH     H1 4896   0.336   1.714   0.672
 1570HOH     H2 4897   0.285   1.606   0.578
 1571HOH      O 4898   0.216   0.265   2.681
 1571HOH     H1 4899   0.174   0.310   2.608
 1571HOH     H2 4900   0.279   0.328   2.715
 1572HOH      O 4901   1.416   3.890   1.913
 1572HOH     H1 4902   1.510   3.880   1.903
 1572HOH     H2 4903   1.380   3.871   1.826
 1573HOH      O 4904   0.295   1.267   3.276
 1573HOH     H1 4905   0.207   1.237   3.301
 1573HOH     H2 4906   0.293   1.362   3.290
 1574HOH      O 4907   0.739   2.928   3.473
 1574HOH     H1 4908   0.771   2.839   3.454
 1574HOH     H2 4909   0.811   2.969   3.521
 1575HOH      O 4910   4.017   1.485   2.356
 1575HOH     H1 4911   4.085   1.512   2.418
 1575HOH     H2 4912   3.964   1.564   2.344
 1576HOH      O 4913   2.852   2.175   2.480
 1576HOH     H1 4914   2.876   2.085   2.505
 1576HOH     H2 4915   2.756   2.172   2.471
 1577HOH      O 4916   1.134   1.608   0.804
 1577HOH     H1 4917   1.071   1.543   0.835
 1577HOH     H2 4918   1.220   1.573   0.828
 1578HOH      O 4919   1.034   0.967   0.169
 1578HOH     H1 4920   1.006   0.889   0.123
 1578HOH     H2 4921   0.975   1.037   0.139
 1579HOH      O 4922   0.736   0.120   0.788
 1579HOH     H1 4923   0.686   0.144   0.867
 1579HOH     H2 4924   0.818   0.170   0.797
 1580HOH      O 4925   3.625   2.900   2.924
 1580HOH     H1 4926   3.586   2.823   2.964
 1580HOH     H2 4927   3.645   2.874   2.834
 1581HOH      O 4928   2.473   1.397   2.202
 1581HOH     H1 4929   2.490   1.434   2.115
 1581HOH     H2 4930   2.532   1.322   2.208
 1582HOH      O 4931   3.147   1.533   2.227
 1582HOH     H1 4932   3.059   1.497   2.237
 1582HOH     H2 4933   3.160   1.589   2.303
 1583HOH      O 4934   0.454   1.435   0.996
 1583HOH     H1 4935   0.523   1.464   1.056
 1583HOH     H2 4936   0.503   1.397   0.922
 1584HOH      O 4937   1.526   3.563   2.700
 1584HOH     H1 4938   1.443   3.516   2.705
 1584HOH     H2 4939   1.510   3.644   2.748
 1585HOH      O 4940   3.302   1.645   0.547
 1585HOH     H1 4941   3.244   1.693   0.607
 1585HOH     H2 4942   3.378   1.622   0.600
 1586HOH      O 4943   1.300   0.998   0.539
 1586HOH     H1 4944   1.312   1.021   0.446
 1586HOH     H2 4945   1.345   0.915   0.548
 1587HOH      O 4946   1.952   2.176   1.470
 1587HOH     H1 4947   1.996   2.245   1.519
 1587HOH     H2 4948   2.012   2.102   1.472
 1588HOH      O 4949   0.027   0.955   3.149
 1588HOH     H1 4950   0.078   0.970   3.229
 1588HOH     H2 4951   0.050   0.866   3.124
 1589HOH      O 4952   1.586   0.639   1.509
 1589HOH     H1 4953   1.616   0.558   1.468
 1589HOH     H2 4954   1.565   0.697   1.436
 1590HOH      O 4955   1.043   3.490   1.850
 1590HOH     H1 4956   0.982   3.528   1.787
 1590HOH     H2 4957   1.055   3.559   1.916
 1591HOH      O 4958   1.818   0.786   2.279
 1591HOH     H1 4959   1.765   0.854   2.237
 1591HOH     H2 4960   1.796   0.793   2.372
 1592HOH      O 4961   0.848   0.800   4.018
 1592HOH     H1 4962   0.812   0.716   3.987
 1592HOH     H2 4963   0.784   0.865   3.992
 1593HOH      O 4964   2.983   3.770   0.148
 1593HOH     H1 4965   3.050   3.721   0.100
 1593HOH     H2 4966   3.000   3.753   0.240
 1594HOH      O 4967   1.309   3.704   1.666
 1594HOH     H1 4968   1.344   3.616   1.684
 1594HOH     H2 4969   1.216   3.690   1.649
 1595HOH      O 4970   3.562   0.401   1.145
 1595HOH     H1 4971   3.565   0.485   1.099
 1595HOH     H2 4972   3.653   0.382   1.166
 1596HOH      O 4973   2.449   0.318   0.108
 1596HOH     H1 4974   2.493   0.234   0.102
 1596HOH     H2 4975   2.508   0.373   0.159
 1597HOH      O 4976   0.924   0.144   1.095
 1597HOH     H1 4977   0.829   0.150   1.081
 1597HOH     H2 4978   0.940   0.193   1.175
 1598HOH      O 4979   3.032   2.099   2.192
 1598HOH     H1 4980   3.031   2.184   2.235
 1598HOH     H2 4981   3.022   2.036   2.263
 1599HOH      O 4982   0.270   2.847   1.173
 1599HOH     H1 4983   0.227   2.929   1.148
 1599HOH     H2 4984   0.216   2.812   1.244
 1600HOH      O 4985   1.569   2.019   1.387
 1600HOH     H1 4986   1.638   1.953   1.374
 1600HOH     H2 4987   1.615   2.103   1.387
 1601HOH      O 4988   2.552   3.044   0.524
 1601HOH     H1 4989   2.495   3.079   0.593
 1601HOH     H2 4990   2.557   3.114   0.459
 1602HOH      O 4991   2.506   1.590   3.974
 1602HOH     H1 4992   2.463   1.606   4.057
 1602HOH     H2 4993   2.435   1.570   3.913
 1603HOH      O 4994   3.119   3.087   2.080
 1603HOH     H1 4995   3.214   3.083   2.092
 1603HOH     H2 4996   3.107   3.133   1.996
 1604HOH      O 4997   3.389   3.063   0.099
 1604HOH     H1 4998   3.332   3.003   0.148
 1604HOH     H2 4999   3.452   3.095   0.164
 1605HOH      O 5000   1.947   1.522   1.591
 1605HOH     H1 5001   1.956   1.444   1.645
 1605HOH     H2 5002   1.891   1.580   1.641
 1606HOH      O 5003   2.121   3.054   2.179
 1606HOH     H1 5004   2.197   2.997   2.191
 1606HOH     H2 5005   2.106   3.092   2.265
 1607HOH      O 5006   3.051   1.911   3.630
 1607HOH     H1 5007   3.122   1.909   3.694
 1607HOH     H2 5008   3.089   1.872   3.551
 1608HOH      O 5009   2.957   2.238   3.027
 1608HOH     H1 5010   2.915   2.270   3.107
 1608HOH     H2 5011   2.919   2.152   3.012
 1609HOH      O 5012   3.549   3.481   0.517
 1609HOH     H1 5013   3.553   3.544   0.589
 1609HOH     H2 5014   3.456   3.467   0.501
 1610HOH      O 5015   0.159   3.333   2.304
 1610HOH     H1 5016   0.096   3.265   2.280
 1610HOH     H2 5017   0.116   3.380   2.376
 1611HOH      O 5018   3.973   2.162   0.786
 1611HOH     H1 5019   3.963   2.156   0.691
 1611HOH     H2 5020   3.970   2.255   0.805
 1612HOH      O 5021   1.645   2.128   3.360
 1612HOH     H1 5022   1.664   2.146   3.268
 1612HOH     H2 5023   1.621   2.213   3.397
 1613HOH      O 5024   1.865   3.097   2.041
 1613HOH     H1 5025   1.950   3.073   2.078
 1613HOH     H2 5026   1.877   3.090   1.946
 1614HOH      O 5027   2.893   1.499   3.500
 1614HOH     H1 5028   2.806   1.537   3.513
 1614HOH     H2 5029   2.936   1.557   3.438
 1615HOH      O 5030   1.271   3.446   2.465
 1615HOH     H1 5031   1.306   3.371   2.416
 1615HOH     H2 5032   1.337   3.514   2.455
 1616HOH      O 5033   2.178   0.760   0.257
 1616HOH     H1 5034   2.171   0.727   0.346
 1616HOH     H2 5035   2.271   0.749   0.235
 1617HOH      O 5036   0.909   1.813   3.299
 1617HOH     H1 5037   0.885   1.762   3.221
 1617HOH     H2 5038   0.862   1.896   3.288
 1618HOH      O 5039   2.869   3.273   0.877
 1618HOH     H1 5040   2.815   3.311   0.809
 1618HOH     H2 5041   2.930   3.343   0.902
 1619HOH      O 5042   2.956   0.434   3.583
 1619HOH     H1 5043   2.978   0.403   3.496
 1619HOH     H2 5044   3.030   0.408   3.638
 1620HOH      O 5045   1.683   0.114   1.279
 1620HOH     H1 5046   1.596   0.150   1.260
 1620HOH     H2 5047   1.744   0.180   1.245
 1621HOH      O 5048   1.226   0.702   3.578
 1621HOH     H1 5049   1.302   0.673   3.628
 1621HOH     H2 5050   1.156   0.711   3.644
 1622HOH      O 5051   0.736   0.088   3.817
 1622HOH     H1 5052   0.762   0.167   3.770
 1622HOH     H2 5053   0.817   0.056   3.857
 1623HOH      O 5054   3.063   1.720   1.054
 1623HOH     H1 5055   3.134   1.659   1.033
 1623HOH     H2 5056   3.107   1.803   1.072
 1624HOH      O 5057   1.022   0.432   3.136
 1624HOH     H1 5058   1.098   0.487   3.116
 1624HOH     H2 5059   1.034   0.406   3.227
 1625HOH      O 5060   2.352   2.899   2.260
 1625HOH     H1 5061   2.440   2.899   2.221
 1625HOH     H2 5062   2.363   2.941   2.345
 1626HOH      O 5063   3.613   0.024   2.981
 1626HOH     H1 5064   3.631   0.030   2.887
 1626HOH     H2 5065   3.661   0.098   3.019
 1627HOH      O 5066   0.934   3.349   3.990
 1627HOH     H1 5067   0.955   3.411   3.920
 1627HOH     H2 5068   0.849   3.313   3.966
 1628HOH      O 5069   0.846   0.083   2.306
 1628HOH     H1 5070   0.918   0.028   2.275
 1628HOH     H2 5071   0.888   0.164   2.333
 1629HOH      O 5072   1.594   2.327   0.457
 1629HOH     H1 5073   1.593   2.368   0.370
 1629HOH     H2 5074   1.682   2.290   0.465
 1630HOH      O 5075   3.684   2.753   3.400
 1630HOH     H1 5076   3.595   2.732   3.373
 1630HOH     H2 5077   3.674   2.798   3.484
 1631HOH      O 5078   2.975   0.176   1.996
 1631HOH     H1 5079   3.009   0.087   2.000
 1631HOH     H2 5080   2.962   0.192   1.903
 1632HOH      O 5081   3.232   0.597   1.667
 1632HOH     H1 5082   3.240   0.686   1.633
 1632HOH     H2 5083   3.172   0.553   1.608
 1633HOH      O 5084   2.939   3.853   1.635
 1633HOH     H1 5085   2.995   3.789   1.592
 1633HOH     H2 5086   2.858   3.852   1.583
 1634HOH      O 5087   3.816   0.993   3.290
 1634HOH     H1 5088   3.782   1.067   3.240
 1634HOH     H2 5089   3.904   0.978   3.254
 1635HOH      O 5090   2.335   2.022   0.238
 1635HOH     H1 5091   2.281   1.950   0.270
 1635HOH     H2 5092   2.291   2.052   0.158
 1636HOH      O 5093   1.677   1.034   3.428
 1636HOH     H1 5094   1.773   1.034   3.419
 1636HOH     H2 5095   1.656   0.948   3.464
 1637HOH      O 5096   1.875   1.633   3.750
 1637HOH     H1 5097   1.951   1.681   3.719
 1637HOH     H2 5098   1.874   1.646   3.844
 1638HOH      O 5099   2.647   3.401   2.690
 1638HOH     H1 5100   2.644   3.354   2.606
 1638HOH     H2 5101   2.642   3.332   2.756
 1639HOH      O 5102   1.856   2.027   3.857
 1639HOH     H1 5103   1.914   2.103   3.846
 1639HOH     H2 5104   1.916   1.953   3.867
 1640HOH      O 5105   1.472   2.809   1.523
 1640HOH     H1 5106   1.524   2.729   1.512
 1640HOH     H2 5107   1.383   2.777   1.537
 1641HOH      O 5108   1.065   3.050   0.587
 1641HOH     H1 5109   0.995   3.062   0.522
 1641HOH     H2 5110   1.131   3.116   0.563
 1642HOH      O 5111   2.344   3.996   0.309
 1642HOH     H1 5112   2.343   4.002   0.405
 1642HOH     H2 5113   2.259   4.030   0.282
 1643HOH      O 5114   3.387   2.269   2.690
 1643HOH     H1 5115   3.373   2.334   2.621
 1643HOH     H2 5116   3.306   2.270   2.741
 1644HOH      O 5117   3.170   3.368   3.486
 1644HOH     H1 5118   3.101   3.342   3.425
 1644HOH     H2 5119   3.236   3.410   3.431
 1645HOH      O 5120   3.555   0.585   0.957
 1645HOH     H1 5121   3.615   0.659   0.962
 1645HOH     H2 5122   3.577   0.543   0.874
 1646HOH      O 5123   2.843   3.563   1.317
 1646HOH     H1 5124   2.758   3.522   1.301
 1646HOH     H2 5125   2.840   3.646   1.269
 1647HOH      O 5126   0.081   1.980   1.223
 1647HOH     H1 5127   0.032   1.943   1.150
 1647HOH     H2 5128   0.104   2.069   1.194
 1648HOH      O 5129   0.610   2.474   1.630
 1648HOH     H1 5130   0.696   2.446   1.661
 1648HOH     H2 5131   0.622   2.565   1.603
 1649HOH      O 5132   0.316   3.020   0.560
 1649HOH     H1 5133   0.408   3.045   0.566
 1649HOH     H2 5134   0.271   3.101   0.535
 1650HOH      O 5135   1.904   3.493   1.405
 1650HOH     H1 5136   1.879   3.408   1.369
 1650HOH     H2 5137   1.926   3.476   1.497
 1651HOH      O 5138   0.497   2.348   1.854
 1651HOH     H1 5139   0.462   2.276   1.803
 1651HOH     H2 5140   0.521   2.414   1.789
 1652HOH      O 5141   2.631   3.750   4.016
 1652HOH     H1 5142   2.613   3.656   4.015
 1652HOH     H2 5143   2.562   3.788   3.961
 1653HOH      O 5144   1.266   1.695   1.075
 1653HOH     H1 5145   1.195   1.757   1.059
 1653HOH     H2 5146   1.232   1.635   1.141
 1654HOH      O 5147   2.597   0.615   2.985
 1654HOH     H1 5148   2.691   0.600   2.972
 1654HOH     H2 5149   2.561   0.528   3.003
 1655HOH      O 5150   1.224   3.618   3.827
 1655HOH     H1 5151   1.280   3.607   3.750
 1655HOH     H2 5152   1.285   3.610   3.901
 1656HOH      O 5153   3.996   0.098   2.774
 1656HOH     H1 5154   3.915   0.137   2.740
 1656HOH     H2 5155   4.065   0.142   2.725
 1657HOH      O 5156   1.823   1.232   2.837
 1657HOH     H1 5157   1.871   1.291   2.779
 1657HOH     H2 5158   1.878   1.224   2.915
 1658HOH      O 5159   3.962   2.411   0.871
 1658HOH     H1 5160   4.007   2.478   0.923
 1658HOH     H2 5161   3.869   2.422   0.892
 1659HOH      O 5162   1.978   0.511   3.728
 1659HOH     H1 5163   2.022   0.501   3.644
 1659HOH     H2 5164   2.046   0.545   3.787
 1660HOH      O 5165   2.183   3.303   1.608
 1660HOH     H1 5166   2.250   3.322   1.674
 1660HOH     H2 5167   2.113   3.366   1.625
 1661HOH      O 5168   2.809   3.884   2.834
 1661HOH     H1 5169   2.790   3.800   2.791
 1661HOH     H2 5170   2.903   3.896   2.821
 1662HOH      O 5171   1.334   2.892   1.848
 1662HOH     H1 5172   1.360   2.911   1.758
 1662HOH     H2 5173   1.414   2.859   1.890
 1663HOH      O 5174   1.627   2.577   1.437
 1663HOH     H1 5175   1.632   2.616   1.349
 1663HOH     H2 5176   1.717   2.549   1.455
 1664HOH      O 5177   2.573   2.553   3.413
 1664HOH     H1 5178   2.639   2.605   3.368
 1664HOH     H2 5179   2.501   2.546   3.350
 1665HOH      O 5180   3.458   2.028   1.350
 1665HOH     H1 5181   3.534   1.971   1.341
 1665HOH     H2 5182   3.462   2.059   1.440
 1666HOH      O 5183   0.444   3.388   2.257
 1666HOH     H1 5184   0.426   3.472   2.300
 1666HOH     H2 5185   0.370   3.332   2.282
 1667HOH      O 5186   0.733   1.914   2.248
 1667HOH     H1 5187   0.702   1.889   2.334
 1667HOH     H2 5188   0.744   1.832   2.200
 1668HOH      O 5189   1.920   2.875   3.713
 1668HOH     H1 5190   1.966   2.799   3.749
 1668HOH     H2 5191   1.883   2.844   3.630
 1669HOH      O 5192   0.359   3.599   3.588
 1669HOH     H1 5193   0.345   3.528   3.525
 1669HOH     H2 5194   0.281   3.653   3.582
 1670HOH      O 5195   0.123   1.523   0.487
 1670HOH     H1 5196   0.062   1.450   0.492
 1670HOH     H2 5197   0.076   1.589   0.435
 1671HOH      O 5198   0.172   0.580   1.387
 1671HOH     H1 5199   0.151   0.635   1.463
 1671HOH     H2 5200   0.218   0.638   1.327
 1672HOH      O 5201   0.101   3.749   3.471
 1672HOH     H1 5202   0.074   3.806   3.399
 1672HOH     H2 5203   0.145   3.676   3.428
 1673HOH      O 5204   3.018   0.339   0.870
 1673HOH     H1 5205   2.976   0.403   0.813
 1673HOH     H2 5206   3.049   0.390   0.945
 1674HOH      O 5207   3.789   0.791   0.010
 1674HOH     H1 5208   3.871   0.745   0.026
 1674HOH     H2 5209   3.815   0.880  -0.011
 1675HOH      O 5210   2.788   0.316   3.804
 1675HOH     H1 5211   2.853   0.352   3.864
 1675HOH     H2 5212   2.838   0.264   3.742
 1676HOH      O 5213   1.698   0.480   3.685
 1676HOH     H1 5214   1.790   0.503   3.692
 1676HOH     H2 5215   1.680   0.479   3.591
 1677HOH      O 5216   1.458   2.978   3.962
 1677HOH     H1 5217   1.489   3.069   3.967
 1677HOH     H2 5218   1.400   2.968   4.037
 1678HOH      O 5219   0.476   1.113   3.546
 1678HOH     H1 5220   0.396   1.123   3.597
 1678HOH     H2 5221   0.496   1.202   3.516
 1679HOH      O 5222   2.674   2.747   3.209
 1679HOH     H1 5223   2.711   2.812   3.149
 1679HOH     H2 5224   2.615   2.695   3.155
 1680HOH      O 5225   0.482   0.529   3.037
 1680HOH     H1 5226   0.540   0.604   3.056
 1680HOH     H2 5227   0.430   0.519   3.117
 1681HOH      O 5228   3.786   3.760   0.233
 1681HOH     H1 5229   3.788   3.787   0.325
 1681HOH     H2 5230   3.720   3.691   0.230
 1682HOH      O 5231   2.172   3.708   1.918
 1682HOH     H1 5232   2.195   3.768   1.989
 1682HOH     H2 5233   2.244   3.716   1.856
 1683HOH      O 5234   1.390   1.972   0.745
 1683HOH     H1 5235   1.324   1.938   0.684
 1683HOH     H2 5236   1.472   1.932   0.716
 1684HOH      O 5237   0.849   0.721   3.499
 1684HOH     H1 5238   0.798   0.661   3.444
 1684HOH     H2 5239   0.814   0.708   3.588
 1685HOH      O 5240   2.101   2.887   0.746
 1685HOH     H1 5241   2.077   2.974   0.714
 1685HOH     H2 5242   2.121   2.900   0.838
 1686HOH      O 5243   1.647   0.064   2.672
 1686HOH     H1 5244   1.650   0.029   2.761
 1686HOH     H2 5245   1.556   0.094   2.662
 1687HOH      O 5246   2.834   3.398   3.821
 1687HOH     H1 5247   2.922   3.430   3.801
 1687HOH     H2 5248   2.794   3.384   3.735
 1688HOH      O 5249   2.140   1.535   0.010
 1688HOH     H1 5250   2.136   1.482  -0.069
 1688HOH     H2 5251   2.049   1.555   0.030
 1689HOH      O 5252   3.344   1.545   0.999
 1689HOH     H1 5253   3.390   1.463   0.984
 1689HOH     H2 5254   3.353   1.561   1.093
 1690HOH      O 5255   0.036   2.311   0.481
 1690HOH     H1 5256   0.091   2.332   0.556
 1690HOH     H2 5257   0.097   2.292   0.410
 1691HOH      O 5258   0.929   1.334   2.168
 1691HOH     H1 5259   0.945   1.258   2.223
 1691HOH     H2 5260   0.856   1.307   2.111
 1692HOH      O 5261   2.711   1.647   0.126
 1692HOH     H1 5262   2.678   1.604   0.048
 1692HOH     H2 5263   2.785   1.593   0.154
 1693HOH      O 5264   0.548   2.380   0.609
 1693HOH     H1 5265   0.528   2.442   0.538
 1693HOH     H2 5266   0.624   2.419   0.653
 1694HOH      O 5267   3.579   1.618   3.048
 1694HOH     H1 5268   3.540   1.556   3.109
 1694HOH     H2 5269   3.673   1.606   3.059
 1695HOH      O 5270   0.223   1.000   1.067
 1695HOH     H1 5271   0.224   1.095   1.078
 1695HOH     H2 5272   0.168   0.985   0.990
 1696HOH      O 5273   1.904   0.406   1.813
 1696HOH     H1 5274   1.847   0.397   1.890
 1696HOH     H2 5275   1.863   0.475   1.761
 1697HOH      O 5276   3.733   1.496   1.923
 1697HOH     H1 5277   3.697   1.409   1.940
 1697HOH     H2 5278   3.790   1.513   1.998
 1698HOH      O 5279   1.327   1.610   3.762
 1698HOH     H1 5280   1.362   1.693   3.795
 1698HOH     H2 5281   1.328   1.620   3.667
 1699HOH      O 5282   0.749   2.148   2.875
 1699HOH     H1 5283   0.666   2.189   2.850
 1699HOH     H2 5284   0.744   2.060   2.838
 1700HOH      O 5285   2.548   0.625   3.312
 1700HOH     H1 5286   2.636   0.652   3.288
 1700HOH     H2 5287   2.558   0.582   3.397
 1701HOH      O 5288   0.778   2.043   3.155
 1701HOH     H1 5289   0.693   2.082   3.176
 1701HOH     H2 5290   0.775   2.027   3.061
 1702HOH      O 5291   0.341   0.330   0.835
 1702HOH     H1 5292   0.304   0.255   0.882
 1702HOH     H2 5293   0.316   0.406   0.888
 1703HOH      O 5294   2.975   2.406   1.591
 1703HOH     H1 5295   2.899   2.348   1.586
 1703HOH     H2 5296   3.035   2.363   1.651
 1704HOH      O 5297   2.714   1.756   0.394
 1704HOH     H1 5298   2.671   1.842   0.394
 1704HOH     H2 5299   2.658   1.702   0.339
 1705HOH      O 5300   0.566   2.559   2.686
 1705HOH     H1 5301   0.585   2.652   2.681
 1705HOH     H2 5302   0.478   2.550   2.650
 1706HOH      O 5303   3.182   1.539   3.934
 1706HOH     H1 5304   3.155   1.621   3.976
 1706HOH     H2 5305   3.169   1.472   4.001
 1707HOH      O 5306   2.345   3.500   2.701
 1707HOH     H1 5307   2.289   3.422   2.703
 1707HOH     H2 5308   2.434   3.465   2.710
 1708HOH      O 5309   2.278   1.183   1.974
 1708HOH     H1 5310   2.260   1.185   1.880
 1708HOH     H2 5311   2.227   1.256   2.010
 1709HOH      O 5312   2.988   0.786   0.408
 1709HOH     H1 5313   3.083   0.773   0.403
 1709HOH     H2 5314   2.964   0.826   0.325
 1710HOH      O 5315   3.089   1.200   2.958
 1710HOH     H1 5316   3.150   1.126   2.958
 1710HOH     H2 5317   3.036   1.187   3.037
 1711HOH      O 5318   0.651   2.336   1.163
 1711HOH     H1 5319   0.660   2.267   1.230
 1711HOH     H2 5320   0.741   2.355   1.137
 1712HOH      O 5321   1.511   3.855   0.927
 1712HOH     H1 5322   1.558   3.818   1.002
 1712HOH     H2 5323   1.436   3.899   0.966
 1713HOH      O 5324   2.382   2.423   0.215
 1713HOH     H1 5325   2.403   2.352   0.276
 1713HOH     H2 5326   2.334   2.486   0.268
 1714HOH      O 5327   1.455   1.157   1.168
 1714HOH     H1 5328   1.368   1.194   1.184
 1714HOH     H2 5329   1.515   1.228   1.191
 1715HOH      O 5330   2.066   0.778   1.609
 1715HOH     H1 5331   2.156   0.750   1.624
 1715HOH     H2 5332   2.021   0.762   1.691
 1716HOH      O 5333   2.818   4.006   0.133
 1716HOH     H1 5334   2.843   3.913   0.126
 1716HOH     H2 5335   2.726   4.007   0.108
 1717HOH      O 5336   0.725   1.443   3.009
 1717HOH     H1 5337   0.784   1.376   2.974
 1717HOH     H2 5338   0.670   1.468   2.934
 1718HOH      O 5339   3.014   2.243   3.617
 1718HOH     H1 5340   2.987   2.331   3.591
 1718HOH     H2 5341   3.101   2.232   3.579
 1719HOH      O 5342   3.805   3.112   3.148
 1719HOH     H1 5343   3.728   3.160   3.178
 1719HOH     H2 5344   3.854   3.093   3.229
 1720HOH      O 5345   2.925   2.842   3.761
 1720HOH     H1 5346   2.951   2.865   3.850
 1720HOH     H2 5347   2.962   2.912   3.707
 1721HOH      O 5348   0.819   1.498   1.463
 1721HOH     H1 5349   0.862   1.558   1.524
 1721HOH     H2 5350   0.770   1.438   1.519
 1722HOH      O 5351   1.676   3.297   2.508
 1722HOH     H1 5352   1.662   3.390   2.492
 1722HOH     H2 5353   1.769   3.283   2.493
 1723HOH      O 5354   1.150   1.833   0.623
 1723HOH     H1 5355   1.171   1.764   0.687
 1723HOH     H2 5356   1.093   1.790   0.560
 1724HOH      O 5357   2.279   1.323   2.373
 1724HOH     H1 5358   2.201   1.379   2.369
 1724HOH     H2 5359   2.341   1.366   2.313
 1725HOH      O 5360   2.485   1.277   0.075
 1725HOH     H1 5361   2.509   1.331   0.000
 1725HOH     H2 5362   2.568   1.252   0.115
 1726HOH      O 5363   2.320   1.304   3.646
 1726HOH     H1 5364   2.324   1.246   3.570
 1726HOH     H2 5365   2.332   1.245   3.721
 1727HOH      O 5366   3.468   1.280   0.988
 1727HOH     H1 5367   3.553   1.298   1.027
 1727HOH     H2 5368   3.441   1.196   1.026
 1728HOH      O 5369   0.508   3.412   3.139
 1728HOH     H1 5370   0.509   3.504   3.166
 1728HOH     H2 5371   0.450   3.410   3.063
 1729HOH      O 5372   2.883   0.901   0.183
 1729HOH     H1 5373   2.889   0.915   0.088
 1729HOH     H2 5374   2.893   0.989   0.220
 1730HOH      O 5375   2.702   1.882   2.038
 1730HOH     H1 5376   2.770   1.939   2.001
 1730HOH     H2 5377   2.635   1.877   1.969
 1731HOH      O 5378   1.572   1.167   2.504
 1731HOH     H1 5379   1.604   1.221   2.432
 1731HOH     H2 5380   1.562   1.228   2.577
 1732HOH      O 5381   2.105   1.395   3.790
 1732HOH     H1 5382   2.056   1.319   3.820
 1732HOH     H2 5383   2.168   1.359   3.728
 1733HOH      O 5384   2.533   1.355   2.849
 1733HOH     H1 5385   2.497   1.361   2.761
 1733HOH     H2 5386   2.470   1.301   2.897
 1734HOH      O 5387   2.977   3.004   2.643
 1734HOH     H1 5388   3.037   2.931   2.632
 1734HOH     H2 5389   3.033   3.082   2.640
 1735HOH      O 5390   1.862   0.097   3.692
 1735HOH     H1 5391   1.903   0.137   3.616
 1735HOH     H2 5392   1.923   0.113   3.764
 1736HOH      O 5393   3.196   1.960   2.051
 1736HOH     H1 5394   3.262   1.944   2.118
 1736HOH     H2 5395   3.135   2.022   2.090
 1737HOH      O 5396   0.816   3.750   3.734
 1737HOH     H1 5397   0.735   3.744   3.684
 1737HOH     H2 5398   0.879   3.790   3.674
 1738HOH      O 5399   1.650   0.880   2.509
 1738HOH     H1 5400   1.619   0.834   2.587
 1738HOH     H2 5401   1.651   0.972   2.535
 1739HOH      O 5402   3.138   0.222   0.363
 1739HOH     H1 5403   3.157   0.129   0.367
 1739HOH     H2 5404   3.049   0.230   0.397
 1740HOH      O 5405   3.992   2.369   3.326
 1740HOH     H1 5406   3.940   2.296   3.291
 1740HOH     H2 5407   3.928   2.426   3.369
 1741HOH      O 5408   2.102   3.292   1.262
 1741HOH     H1 5409   2.098   3.216   1.319
 1741HOH     H2 5410   2.042   3.271   1.190
 1742HOH      O 5411   0.277   0.517   0.372
 1742HOH     H1 5412   0.284   0.612   0.367
 1742HOH     H2 5413   0.332   0.493   0.446
 1743HOH      O 5414   3.811   3.647   1.852
 1743HOH     H1 5415   3.746   3.582   1.880
 1743HOH     H2 5416   3.761   3.709   1.798
 1744HOH      O 5417   2.526   3.141   3.225
 1744HOH     H1 5418   2.499   3.104   3.141
 1744HOH     H2 5419   2.611   3.103   3.242
 1745HOH      O 5420   2.812   3.452   3.081
 1745HOH     H1 5421   2.789   3.511   3.010
 1745HOH     H2 5422   2.753   3.477   3.153
 1746HOH      O 5423   2.591   0.118   3.026
 1746HOH     H1 5424   2.666   0.065   3.055
 1746HOH     H2 5425   2.563   0.078   2.944
 1747HOH      O 5426   3.332   3.789   3.831
 1747HOH     H1 5427   3.388   3.858   3.869
 1747HOH     H2 5428   3.384   3.710   3.838
 1748HOH      O 5429   3.298   1.370   3.408
 1748HOH     H1 5430   3.380   1.328   3.434
 1748HOH     H2 5431   3.263   1.407   3.490
 1749HOH      O 5432   3.756   0.329   2.392
 1749HOH     H1 5433   3.808   0.399   2.433
 1749HOH     H2 5434   3.673   0.371   2.370
 1750HOH      O 5435   0.509   0.231   3.095
 1750HOH     H1 5436   0.495   0.197   3.007
 1750HOH     H2 5437   0.516   0.326   3.084
 1751HOH      O 5438   1.619   2.983   1.700
 1751HOH     H1 5439   1.690   2.918   1.700
 1751HOH     H2 5440   1.550   2.943   1.647
 1752HOH      O 5441   0.862   2.663   3.491
 1752HOH     H1 5442   0.903   2.664   3.405
 1752HOH     H2 5443   0.811   2.582   3.493
 1753HOH      O 5444   3.737   1.822   2.629
 1753HOH     H1 5445   3.803   1.819   2.699
 1753HOH     H2 5446   3.664   1.771   2.663
 1754HOH      O 5447   3.328   2.654   3.044
 1754HOH     H1 5448   3.423   2.661   3.042
 1754HOH     H2 5449   3.304   2.620   2.958
 1755HOH      O 5450   2.186   1.419   2.763
 1755HOH     H1 5451   2.146   1.478   2.827
 1755HOH     H2 5452   2.230   1.352   2.816
 1756HOH      O 5453   1.748   3.902   3.924
 1756HOH     H1 5454   1.827   3.903   3.869
 1756HOH     H2 5455   1.757   3.979   3.980
 1757HOH      O 5456   1.981   0.610   1.386
 1757HOH     H1 5457   1.938   0.537   1.431
 1757HOH     H2 5458   2.018   0.664   1.456
 1758HOH      O 5459   3.594   1.470   1.533
 1758HOH     H1 5460   3.684   1.476   1.563
 1758HOH     H2 5461   3.541   1.477   1.612
 1759HOH      O 5462   1.431   1.739   3.212
 1759HOH     H1 5463   1.458   1.690   3.135
 1759HOH     H2 5464   1.512   1.773   3.250
 1760HOH      O 5465   3.870   2.587   2.580
 1760HOH     H1 5466   3.955   2.573   2.621
 1760HOH     H2 5467   3.885   2.658   2.518
 1761HOH      O 5468   0.956   1.315   3.877
 1761HOH     H1 5469   0.979   1.309   3.969
 1761HOH     H2 5470   0.993   1.399   3.848
 1762HOH      O 5471   2.929   1.398   2.276
 1762HOH     H1 5472   2.921   1.305   2.298
 1762HOH     H2 5473   2.903   1.444   2.356
 1763HOH      O 5474   2.831   1.724   1.600
 1763HOH     H1 5475   2.767   1.654   1.607
 1763HOH     H2 5476   2.781   1.800   1.571
 1764HOH      O 5477   1.424   3.815   0.654
 1764HOH     H1 5478   1.468   3.831   0.737
 1764HOH     H2 5479   1.395   3.901   0.625
 1765HOH      O 5480   0.495   1.192   1.450
 1765HOH     H1 5481   0.454   1.220   1.532
 1765HOH     H2 5482   0.570   1.139   1.479
 1766HOH      O 5483   2.004   3.490   1.658
 1766HOH     H1 5484   2.046   3.560   1.708
 1766HOH     H2 5485   1.947   3.447   1.722
 1767HOH      O 5486   2.957   1.197   3.973
 1767HOH     H1 5487   2.951   1.106   3.945
 1767HOH     H2 5488   2.971   1.246   3.893
 1768HOH      O 5489   3.242   2.695   1.729
 1768HOH     H1 5490   3.171   2.720   1.788
 1768HOH     H2 5491   3.298   2.772   1.724
 1769HOH      O 5492   3.249   2.238   3.465
 1769HOH     H1 5493   3.326   2.181   3.471
 1769HOH     H2 5494   3.284   2.327   3.467
 1770HOH      O 5495   2.342   0.778   1.682
 1770HOH     H1 5496   2.388   0.861   1.690
 1770HOH     H2 5497   2.405   0.712   1.710
 1771HOH      O 5498   0.095   2.493   2.372
 1771HOH     H1 5499   0.015   2.454   2.337
 1771HOH     H2 5500   0.131   2.543   2.299
 1772HOH      O 5501   0.827   0.011   1.863
 1772HOH     H1 5502   0.899   0.003   1.925
 1772HOH     H2 5503   0.834   0.100   1.829
 1773HOH      O 5504   3.370   0.740   2.032
 1773HOH     H1 5505   3.290   0.744   2.084
 1773HOH     H2 5506   3.353   0.798   1.957
 1774HOH      O 5507   3.226   0.587   2.894
 1774HOH     H1 5508   3.311   0.627   2.873
 1774HOH     H2 5509   3.200   0.542   2.813
 1775HOH      O 5510   2.391   3.210   3.452
 1775HOH     H1 5511   2.450   3.207   3.376
 1775HOH     H2 5512   2.440   3.164   3.521
 1776HOH      O 5513   2.684   3.684   2.685
 1776HOH     H1 5514   2.671   3.689   2.590
 1776HOH     H2 5515   2.680   3.590   2.705
 1777HOH      O 5516   3.541   0.783   0.374
 1777HOH     H1 5517   3.500   0.854   0.424
 1777HOH     H2 5518   3.633   0.786   0.398
 1778HOH      O 5519   3.195   2.234   0.314
 1778HOH     H1 5520   3.205   2.295   0.387
 1778HOH     H2 5521   3.177   2.289   0.238
 1779HOH      O 5522   1.221   1.542   0.149
 1779HOH     H1 5523   1.245   1.621   0.102
 1779HOH     H2 5524   1.245   1.470   0.090
 1780HOH      O 5525   2.276   1.672   3.813
 1780HOH     H1 5526   2.237   1.611   3.876
 1780HOH     H2 5527   2.208   1.738   3.799
 1781HOH      O 5528   2.093   2.358   0.773
 1781HOH     H1 5529   2.100   2.450   0.798
 1781HOH     H2 5530   2.019   2.324   0.824
 1782HOH      O 5531   2.915   0.510   0.447
 1782HOH     H1 5532   2.908   0.475   0.359
 1782HOH     H2 5533   2.912   0.605   0.436
 1783HOH      O 5534   1.328   1.338   3.715
 1783HOH     H1 5535   1.308   1.429   3.735
 1783HOH     H2 5536   1.405   1.318   3.769
 1784HOH      O 5537   0.200   3.518   2.747
 1784HOH     H1 5538   0.227   3.439   2.792
 1784HOH     H2 5539   0.282   3.559   2.720
 1785HOH      O 5540   1.845   0.086   0.057
 1785HOH     H1 5541   1.780   0.154   0.074
 1785HOH     H2 5542   1.917   0.132   0.015
 1786HOH      O 5543   0.718   3.683   0.698
 1786HOH     H1 5544   0.689   3.600   0.736
 1786HOH     H2 5545   0.715   3.669   0.604
 1787HOH      O 5546   0.734   0.639   0.861
 1787HOH     H1 5547   0.785   0.718   0.844
 1787HOH     H2 5548   0.662   0.643   0.798
 1788HOH      O 5549   3.955   1.216   1.478
 1788HOH     H1 5550   3.969   1.247   1.389
 1788HOH     H2 5551   3.964   1.121   1.472
 1789HOH      O 5552   0.780   2.048   0.754
 1789HOH     H1 5553   0.733   2.074   0.833
 1789HOH     H2 5554   0.736   1.968   0.725
 1790HOH      O 5555   1.103   1.111   0.683
 1790HOH     H1 5556   1.070   1.055   0.753
 1790HOH     H2 5557   1.175   1.062   0.644
 1791HOH      O 5558   2.533   0.252   2.195
 1791HOH     H1 5559   2.462   0.214   2.143
 1791HOH     H2 5560   2.530   0.205   2.279
 1792HOH      O 5561   3.845   2.094   1.789
 1792HOH     H1 5562   3.886   2.081   1.875
 1792HOH     H2 5563   3.839   2.006   1.752
 1793HOH      O 5564   0.956   1.328   2.895
 1793HOH     H1 5565   1.025   1.347   2.959
 1793HOH     H2 5566   0.942   1.234   2.903
 1794HOH      O 5567   2.097   4.015   3.235
 1794HOH     H1 5568   2.070   3.928   3.264
 1794HOH     H2 5569   2.167   3.998   3.171
 1795HOH      O 5570   0.722   3.219   2.224
 1795HOH     H1 5571   0.713   3.312   2.201
 1795HOH     H2 5572   0.729   3.218   2.319
 1796HOH      O 5573   0.218   2.486   0.947
 1796HOH     H1 5574   0.224   2.580   0.932
 1796HOH     H2 5575   0.256   2.472   1.033
 1797HOH      O 5576   3.259   2.271   1.464
 1797HOH     H1 5577   3.330   2.214   1.491
 1797HOH     H2 5578   3.285   2.358   1.496
 1798HOH      O 5579   3.220   1.444   3.658
 1798HOH     H1 5580   3.264   1.529   3.660
 1798HOH     H2 5581   3.153   1.451   3.726
 1799HOH      O 5582   1.158   0.680   0.705
 1799HOH     H1 5583   1.137   0.674   0.612
 1799HOH     H2 5584   1.235   0.737   0.708
 1800HOH      O 5585   2.898   2.274   2.739
 1800HOH     H1 5586   2.895   2.217   2.663
 1800HOH     H2 5587   2.813   2.262   2.781
 1801HOH      O 5588   1.272   2.883   0.398
 1801HOH     H1 5589   1.327   2.958   0.422
 1801HOH     H2 5590   1.269   2.885   0.303
 1802HOH      O 5591   3.667   2.545   0.413
 1802HOH     H1 5592   3.593   2.606   0.425
 1802HOH     H2 5593   3.716   2.550   0.495
 1803HOH      O 5594   1.429   3.331   2.074
 1803HOH     H1 5595   1.418   3.271   2.148
 1803HOH     H2 5596   1.477   3.405   2.111
 1804HOH      O 5597   0.635   2.362   3.792
 1804HOH     H1 5598   0.678   2.295   3.845
 1804HOH     H2 5599   0.692   2.373   3.716
 1805HOH      O 5600   3.435   0.527   1.864
 1805HOH     H1 5601   3.371   0.529   1.793
 1805HOH     H2 5602   3.402   0.590   1.928
 1806HOH      O 5603   1.114   0.515   1.505
 1806HOH     H1 5604   1.199   0.480   1.478
 1806HOH     H2 5605   1.091   0.465   1.583
 1807HOH      O 5606   1.589   1.359   2.688
 1807HOH     H1 5607   1.625   1.442   2.717
 1807HOH     H2 5608   1.631   1.294   2.744
 1808HOH      O 5609   3.043   2.202   0.738
 1808HOH     H1 5610   2.979   2.137   0.768
 1808HOH     H2 5611   3.065   2.252   0.816
 1809HOH      O 5612   0.530   1.072   1.906
 1809HOH     H1 5613   0.520   1.055   2.000
 1809HOH     H2 5614   0.570   0.993   1.871
 1810HOH      O 5615   0.201   2.325   0.711
 1810HOH     H1 5616   0.147   2.377   0.772
 1810HOH     H2 5617   0.285   2.371   0.708
 1811HOH      O 5618   3.828   3.052   0.829
 1811HOH     H1 5619   3.763   2.984   0.812
 1811HOH     H2 5620   3.815   3.076   0.921
 1812HOH      O 5621   2.027   2.368   0.488
 1812HOH     H1 5622   2.066   2.358   0.575
 1812HOH     H2 5623   1.961   2.299   0.482
 1813HOH      O 5624   0.767   3.523   2.550
 1813HOH     H1 5625   0.839   3.493   2.605
 1813HOH     H2 5626   0.712   3.446   2.536
 1814HOH      O 5627   0.343   1.706   0.958
 1814HOH     H1 5628   0.258   1.669   0.980
 1814HOH     H2 5629   0.399   1.630   0.943
 1815HOH      O 5630   2.252   2.372   3.230
 1815HOH     H1 5631   2.205   2.455   3.219
 1815HOH     H2 5632   2.291   2.355   3.144
 1816HOH      O 5633   3.331   1.029   2.700
 1816HOH     H1 5634   3.245   0.988   2.706
 1816HOH     H2 5635   3.381   0.970   2.643
 1817HOH      O 5636   2.843   2.664   1.641
 1817HOH     H1 5637   2.784   2.654   1.715
 1817HOH     H2 5638   2.890   2.581   1.636
 1818HOH      O 5639   2.080   0.779   3.584
 1818HOH     H1 5640   2.073   0.687   3.559
 1818HOH     H2 5641   2.173   0.799   3.578
 1819HOH      O 5642   3.966   0.414   0.320
 1819HOH     H1 5643   3.894   0.397   0.259
 1819HOH     H2 5644   3.929   0.395   0.407
 1820HOH      O 5645   2.624   1.593   3.507
 1820HOH     H1 5646   2.611   1.595   3.412
 1820HOH     H2 5647   2.537   1.579   3.544
 1821HOH      O 5648   1.383   2.243   1.207
 1821HOH     H1 5649   1.364   2.152   1.229
 1821HOH     H2 5650   1.454   2.268   1.266
 1822HOH      O 5651   0.286   0.406   1.609
 1822HOH     H1 5652   0.330   0.353   1.674
 1822HOH     H2 5653   0.310   0.367   1.525
 1823HOH      O 5654   2.176   2.125   0.631
 1823HOH     H1 5655   2.229   2.068   0.688
 1823HOH     H2 5656   2.157   2.201   0.686
 1824HOH      O 5657   0.758   0.929   1.049
 1824HOH     H1 5658   0.669   0.954   1.075
 1824HOH     H2 5659   0.814   0.963   1.119
 1825HOH      O 5660   0.914   2.832   2.934
 1825HOH     H1 5661   0.882   2.873   3.015
 1825HOH     H2 5662   0.914   2.738   2.954
 1826HOH      O 5663   1.339   0.112   0.117
 1826HOH     H1 5664   1.388   0.156   0.186
 1826HOH     H2 5665   1.377   0.144   0.035
 1827HOH      O 5666   0.896   1.215   0.182
 1827HOH     H1 5667   0.841   1.290   0.162
 1827HOH     H2 5668   0.921   1.226   0.274
 1828HOH      O 5669   2.526   0.908   3.062
 1828HOH     H1 5670   2.490   0.922   2.975
 1828HOH     H2 5671   2.565   0.820   3.057
 1829HOH      O 5672   3.517   0.363   3.233
 1829HOH     H1 5673   3.465   0.284   3.218
 1829HOH     H2 5674   3.584   0.360   3.164
 1830HOH      O 5675   3.654   3.533   3.671
 1830HOH     H1 5676   3.613   3.478   3.604
 1830HOH     H2 5677   3.585   3.546   3.737
 1831HOH      O 5678   2.453   0.722   2.411
 1831HOH     H1 5679   2.505   0.647   2.384
 1831HOH     H2 5680   2.506   0.765   2.478
 1832HOH      O 5681   3.407   3.541   1.138
 1832HOH     H1 5682   3.442   3.627   1.117
 1832HOH     H2 5683   3.316   3.543   1.107
 1833HOH      O 5684   3.555   2.377   2.897
 1833HOH     H1 5685   3.479   2.411   2.850
 1833HOH     H2 5686   3.625   2.441   2.879
 1834HOH      O 5687   1.214   2.737   1.518
 1834HOH     H1 5688   1.198   2.697   1.604
 1834HOH     H2 5689   1.133   2.783   1.497
 1835HOH      O 5690   3.433   2.745   0.179
 1835HOH     H1 5691   3.472   2.663   0.148
 1835HOH     H2 5692   3.355   2.718   0.226
 1836HOH      O 5693   2.785   0.746   3.313
 1836HOH     H1 5694   2.726   0.820   3.295
 1836HOH     H2 5695   2.866   0.786   3.344
 1837HOH      O 5696   1.355   3.569   0.207
 1837HOH     H1 5697   1.261   3.588   0.198
 1837HOH     H2 5698   1.390   3.644   0.254
 1838HOH      O 5699   1.290   1.037   0.228
 1838HOH     H1 5700   1.197   1.039   0.206
 1838HOH     H2 5701   1.316   0.946   0.213
 1839HOH      O 5702   2.902   0.174   0.520
 1839HOH     H1 5703   2.832   0.110   0.509
 1839HOH     H2 5704   2.862   0.258   0.499
 1840HOH      O 5705   1.927   2.770   1.027
 1840HOH     H1 5706   1.844   2.808   1.058
 1840HOH     H2 5707   1.988   2.843   1.029
 1841HOH      O 5708   2.707   0.553   3.556
 1841HOH     H1 5709   2.798   0.524   3.555
 1841HOH     H2 5710   2.662   0.485   3.606
 1842HOH      O 5711   2.693   1.112   0.491
 1842HOH     H1 5712   2.681   1.018   0.502
 1842HOH     H2 5713   2.605   1.149   0.495
 1843HOH      O 5714   3.877   0.173   1.794
 1843HOH     H1 5715   3.912   0.122   1.721
 1843HOH     H2 5716   3.879   0.264   1.764
 1844HOH      O 5717   0.109   1.249   2.977
 1844HOH     H1 5718   0.133   1.236   3.069
 1844HOH     H2 5719   0.168   1.192   2.928
 1845HOH      O 5720   1.498   1.580   0.917
 1845HOH     H1 5721   1.441   1.645   0.958
 1845HOH     H2 5722   1.446   1.545   0.844
 1846HOH      O 5723   2.736   2.023   1.088
 1846HOH     H1 5724   2.643   2.017   1.068
 1846HOH     H2 5725   2.758   1.938   1.127
 1847HOH      O 5726   3.612   3.858   2.160
 1847HOH     H1 5727   3.568   3.790   2.212
 1847HOH     H2 5728   3.576   3.847   2.072
 1848HOH      O 5729   2.693   3.515   1.780
 1848HOH     H1 5730   2.731   3.552   1.859
 1848HOH     H2 5731   2.687   3.421   1.797
 1849HOH      O 5732   1.762   1.590   1.815
 1849HOH     H1 5733   1.783   1.681   1.835
 1849HOH     H2 5734   1.681   1.595   1.763
 1850HOH      O 5735   2.851   2.634   2.911
 1850HOH     H1 5736   2.900   2.583   2.847
 1850HOH     H2 5737   2.812   2.569   2.969
 1851HOH      O 5738   3.675   3.984   1.661
 1851HOH     H1 5739   3.769   3.992   1.679
 1851HOH     H2 5740   3.665   3.896   1.624
 1852HOH      O 5741   0.643   0.961   3.964
 1852HOH     H1 5742   0.634   1.055   3.947
 1852HOH     H2 5743   0.586   0.920   3.898
 1853HOH      O 5744   1.100   3.320   3.324
 1853HOH     H1 5745   1.091   3.386   3.393
 1853HOH     H2 5746   1.033   3.344   3.260
 1854HOH      O 5747   0.245   1.125   2.545
 1854HOH     H1 5748   0.312   1.141   2.611
 1854HOH     H2 5749   0.162   1.128   2.593
 1855HOH      O 5750   2.475   2.475   0.508
 1855HOH     H1 5751   2.474   2.482   0.604
 1855HOH     H2 5752   2.411   2.406   0.488
 1856HOH      O 5753   2.762   1.692   2.222
 1856HOH     H1 5754   2.706   1.658   2.293
 1856HOH     H2 5755   2.707   1.758   2.179
 1857HOH      O 5756   1.086   0.311   3.404
 1857HOH     H1 5757   1.038   0.229   3.394
 1857HOH     H2 5758   1.042   0.356   3.477
 1858HOH      O 5759   0.036   2.592   3.093
 1858HOH     H1 5760  -0.032   2.651   3.125
 1858HOH     H2 5761   0.030   2.515   3.149
 1859HOH      O 5762   1.536   0.611   0.913
 1859HOH     H1 5763   1.455   0.644   0.953
 1859HOH     H2 5764   1.583   0.689   0.886
 1860HOH      O 5765   0.511   3.389   3.448
 1860HOH     H1 5766   0.500   3.307   3.495
 1860HOH     H2 5767   0.513   3.364   3.356
 1861HOH      O 5768   0.881   3.156   1.187
 1861HOH     H1 5769   0.793   3.191   1.203
 1861HOH     H2 5770   0.936   3.233   1.172
 1862HOH      O 5771   0.665   3.271   2.529
 1862HOH     H1 5772   0.695   3.180   2.524
 1862HOH     H2 5773   0.582   3.267   2.577
 1863HOH      O 5774   2.103   3.277   3.192
 1863HOH     H1 5775   2.141   3.295   3.106
 1863HOH     H2 5776   2.013   3.253   3.174
 1864HOH      O 5777   0.222   1.740   3.648
 1864HOH     H1 5778   0.165   1.720   3.722
 1864HOH     H2 5779   0.164   1.784   3.585
 1865HOH      O 5780   4.008   0.743   0.279
 1865HOH     H1 5781   4.085   0.770   0.329
 1865HOH     H2 5782   4.038   0.672   0.223
 1866HOH      O 5783   0.264   2.382   3.927
 1866HOH     H1 5784   0.193   2.407   3.987
 1866HOH     H2 5785   0.272   2.457   3.868
 1867HOH      O 5786   0.753   3.594   0.435
 1867HOH     H1 5787   0.721   3.505   0.451
 1867HOH     H2 5788   0.767   3.598   0.341
 1868HOH      O 5789   2.878   2.057   1.948
 1868HOH     H1 5790   2.802   2.114   1.961
 1868HOH     H2 5791   2.933   2.072   2.026
 1869HOH      O 5792   3.562   3.020   2.177
 1869HOH     H1 5793   3.627   3.090   2.178
 1869HOH     H2 5794   3.509   3.037   2.100
 1870HOH      O 5795   1.168   2.675   2.432
 1870HOH     H1 5796   1.214   2.755   2.407
 1870HOH     H2 5797   1.150   2.631   2.350
 1871HOH      O 5798   1.825   1.983   0.804
 1871HOH     H1 5799   1.743   1.959   0.847
 1871HOH     H2 5800   1.833   2.077   0.820
 1872HOH      O 5801   0.498   3.758   2.909
 1872HOH     H1 5802   0.480   3.786   2.999
 1872HOH     H2 5803   0.564   3.819   2.878
 1873HOH      O 5804   1.583   3.061   2.406
 1873HOH     H1 5805   1.651   3.127   2.417
 1873HOH     H2 5806   1.581   3.014   2.490
 1874HOH      O 5807   3.029   0.508   1.502
 1874HOH     H1 5808   2.946   0.461   1.511
 1874HOH     H2 5809   3.021   0.553   1.418
 1875HOH      O 5810   1.996   3.206   0.028
 1875HOH     H1 5811   2.022   3.267  -0.041
 1875HOH     H2 5812   1.938   3.143  -0.015
 1876HOH      O 5813   1.878   2.259   0.904
 1876HOH     H1 5814   1.795   2.304   0.915
 1876HOH     H2 5815   1.900   2.226   0.991
 1877HOH      O 5816   2.722   2.997   1.937
 1877HOH     H1 5817   2.739   2.908   1.970
 1877HOH     H2 5818   2.764   3.054   2.000
 1878HOH      O 5819   1.240   1.911   3.797
 1878HOH     H1 5820   1.275   1.998   3.781
 1878HOH     H2 5821   1.170   1.901   3.732
 1879HOH      O 5822   2.077   3.347   0.939
 1879HOH     H1 5823   2.168   3.376   0.938
 1879HOH     H2 5824   2.075   3.270   0.882
 1880HOH      O 5825   0.589   3.166   3.538
 1880HOH     H1 5826   0.646   3.096   3.504
 1880HOH     H2 5827   0.648   3.239   3.555
 1881HOH      O 5828   0.882   2.544   1.866
 1881HOH     H1 5829   0.902   2.597   1.788
 1881HOH     H2 5830   0.941   2.577   1.933
 1882HOH      O 5831   2.184   1.670   3.411
 1882HOH     H1 5832   2.125   1.607   3.369
 1882HOH     H2 5833   2.251   1.616   3.453
 1883HOH      O 5834   0.689   1.492   1.998
 1883HOH     H1 5835   0.718   1.401   1.988
 1883HOH     H2 5836   0.610   1.486   2.052
 1884HOH      O 5837   3.954   2.043   0.500
 1884HOH     H1 5838   3.860   2.059   0.506
 1884HOH     H2 5839   3.991   2.126   0.469
 1885HOH      O 5840   0.346   2.156   1.697
 1885HOH     H1 5841   0.380   2.093   1.634
 1885HOH     H2 5842   0.269   2.193   1.655
 1886HOH      O 5843   1.495   3.246   3.951
 1886HOH     H1 5844   1.516   3.339   3.961
 1886HOH     H2 5845   1.404   3.239   3.981
 1887HOH      O 5846   0.222   1.390   2.012
 1887HOH     H1 5847   0.192   1.299   2.011
 1887HOH     H2 5848   0.286   1.396   1.941
 1888HOH      O 5849   2.781   1.196   1.768
 1888HOH     H1 5850   2.764   1.224   1.678
 1888HOH     H2 5851   2.698   1.212   1.813
 1889HOH      O 5852   2.111   3.227   0.458
 1889HOH     H1 5853   2.205   3.244   0.456
 1889HOH     H2 5854   2.078   3.272   0.380
 1890HOH      O 5855   0.030   1.792   0.728
 1890HOH     H1 5856  -0.043   1.849   0.704
 1890HOH     H2 5857   0.107   1.849   0.722
 1891HOH      O 5858   1.788   1.455   0.325
 1891HOH     H1 5859   1.752   1.399   0.394
 1891HOH     H2 5860   1.754   1.542   0.344
 1892HOH      O 5861   0.886   0.925   2.365
 1892HOH     H1 5862   0.944   0.859   2.325
 1892HOH     H2 5863   0.941   0.967   2.431
 1893HOH      O 5864   3.824   3.442   1.537
 1893HOH     H1 5865   3.826   3.353   1.501
 1893HOH     H2 5866   3.732   3.458   1.557
 1894HOH      O 5867   2.201   2.614   0.330
 1894HOH     H1 5868   2.107   2.599   0.339
 1894HOH     H2 5869   2.233   2.622   0.420
 1895HOH      O 5870   0.117   0.776   1.590
 1895HOH     H1 5871   0.191   0.799   1.646
 1895HOH     H2 5872   0.069   0.710   1.639
 1896HOH      O 5873   1.446   3.811   2.207
 1896HOH     H1 5874   1.388   3.827   2.133
 1896HOH     H2 5875   1.435   3.888   2.263
 1897HOH      O 5876   3.957   0.671   1.105
 1897HOH     H1 5877   3.929   0.738   1.168
 1897HOH     H2 5878   3.932   0.588   1.145
 1898HOH      O 5879   2.369   3.051   2.510
 1898HOH     H1 5880   2.277   3.076   2.499
 1898HOH     H2 5881   2.384   3.054   2.604
 1899HOH      O 5882   1.231   0.911   1.598
 1899HOH     H1 5883   1.275   0.831   1.628
 1899HOH     H2 5884   1.302   0.973   1.585
 1900HOH      O 5885   1.647   0.790   2.955
 1900HOH     H1 5886   1.613   0.876   2.930
 1900HOH     H2 5887   1.580   0.752   3.011
 1901HOH      O 5888   2.502   2.565   0.778
 1901HOH     H1 5889   2.554   2.570   0.858
 1901HOH     H2 5890   2.541   2.629   0.720
 1902HOH      O 5891   0.414   3.368   0.167
 1902HOH     H1 5892   0.399   3.460   0.148
 1902HOH     H2 5893   0.327   3.330   0.176
 1903HOH      O 5894   3.033   0.132   2.881
 1903HOH     H1 5895   3.030   0.057   2.822
 1903HOH     H2 5896   3.019   0.208   2.824
 1904HOH      O 5897   1.490   2.688   3.510
 1904HOH     H1 5898   1.552   2.730   3.570
 1904HOH     H2 5899   1.545   2.654   3.439
 1905HOH      O 5900   3.755   0.464   0.148
 1905HOH     H1 5901   3.691   0.397   0.123
 1905HOH     H2 5902   3.703   0.529   0.195
 1906HOH      O 5903   1.448   0.440   2.956
 1906HOH     H1 5904   1.543   0.447   2.964
 1906HOH     H2 5905   1.423   0.382   3.028
 1907HOH      O 5906   3.143   0.130   3.334
 1907HOH     H1 5907   3.057   0.146   3.294
 1907HOH     H2 5908   3.189   0.213   3.324
 1908HOH      O 5909   3.813   2.035   0.983
 1908HOH     H1 5910   3.872   2.066   0.914
 1908HOH     H2 5911   3.850   1.950   1.010
 1909HOH      O 5912   1.305   1.314   2.645
 1909HOH     H1 5913   1.281   1.400   2.678
 1909HOH     H2 5914   1.401   1.313   2.646
 1910HOH      O 5915   3.883   3.911   2.144
 1910HOH     H1 5916   3.881   3.993   2.192
 1910HOH     H2 5917   3.792   3.880   2.146
 1911HOH      O 5918   0.116   2.903   2.238
 1911HOH     H1 5919   0.037   2.950   2.213
 1911HOH     H2 5920   0.172   2.968   2.280
 1912HOH      O 5921   1.058   1.009   0.918
 1912HOH     H1 5922   0.985   0.951   0.896
 1912HOH     H2 5923   1.021   1.073   0.978
 1913HOH      O 5924   1.317   1.066   2.807
 1913HOH     H1 5925   1.291   1.151   2.773
 1913HOH     H2 5926   1.412   1.072   2.817
 1914HOH      O 5927   0.252   3.695   3.083
 1914HOH     H1 5928   0.314   3.767   3.069
 1914HOH     H2 5929   0.224   3.670   2.995
 1915HOH      O 5930   1.477   0.227   1.109
 1915HOH     H1 5931   1.447   0.316   1.129
 1915HOH     H2 5932   1.494   0.229   1.015
 1916HOH      O 5933   1.718   0.405   2.006
 1916HOH     H1 5934   1.745   0.480   2.059
 1916HOH     H2 5935   1.698   0.337   2.070
 1917HOH      O 5936   1.518   1.442   1.180
 1917HOH     H1 5937   1.603   1.463   1.218
 1917HOH     H2 5938   1.520   1.482   1.094
 1918HOH      O 5939   0.048   2.659   1.268
 1918HOH     H1 5940  -0.022   2.594   1.266
 1918HOH     H2 5941   0.046   2.694   1.356
 1919HOH      O 5942   3.694   3.379   0.025
 1919HOH     H1 5943   3.727   3.351  -0.060
 1919HOH     H2 5944   3.603   3.350   0.025
 1920HOH      O 5945   0.582   2.569   0.939
 1920HOH     H1 5946   0.652   2.548   0.877
 1920HOH     H2 5947   0.580   2.494   0.999
 1921HOH      O 5948   2.742   3.497   0.181
 1921HOH     H1 5949   2.675   3.492   0.113
 1921HOH     H2 5950   2.812   3.441   0.150
 1922HOH      O 5951   3.525   3.712   2.647
 1922HOH     H1 5952   3.456   3.701   2.713
 1922HOH     H2 5953   3.596   3.655   2.678
 1923HOH      O 5954   2.911   3.242   2.529
 1923HOH     H1 5955   2.932   3.332   2.554
 1923HOH     H2 5956   2.964   3.226   2.451
 1924HOH      O 5957   1.017   1.605   2.873
 1924HOH     H1 5958   1.001   1.511   2.881
 1924HOH     H2 5959   0.957   1.634   2.805
 1925HOH      O 5960   1.649   1.890   3.259
 1925HOH     H1 5961   1.732   1.886   3.211
 1925HOH     H2 5962   1.656   1.969   3.313
 1926HOH      O 5963   0.672   1.285   1.186
 1926HOH     H1 5964   0.594   1.325   1.226
 1926HOH     H2 5965   0.674   1.196   1.222
 1927HOH      O 5966   2.397   0.973   2.225
 1927HOH     H1 5967   2.362   1.009   2.143
 1927HOH     H2 5968   2.441   1.047   2.266
 1928HOH      O 5969   1.632   3.586   2.453
 1928HOH     H1 5970   1.583   3.603   2.534
 1928HOH     H2 5971   1.686   3.663   2.441
 1929HOH      O 5972   2.514   3.697   1.077
 1929HOH     H1 5973   2.426   3.717   1.108
 1929HOH     H2 5974   2.543   3.624   1.132
 1930HOH      O 5975   2.750   2.224   1.555
 1930HOH     H1 5976   2.766   2.161   1.485
 1930HOH     H2 5977   2.701   2.295   1.514
 1931HOH      O 5978   2.525   0.406   3.759
 1931HOH     H1 5979   2.508   0.451   3.842
 1931HOH     H2 5980   2.615   0.374   3.767
 1932HOH      O 5981   2.146   3.410   2.058
 1932HOH     H1 5982   2.152   3.428   1.964
 1932HOH     H2 5983   2.218   3.350   2.076
 1933HOH      O 5984   1.185   1.178   3.535
 1933HOH     H1 5985   1.255   1.226   3.578
 1933HOH     H2 5986   1.120   1.163   3.604
 1934HOH      O 5987   1.006   2.912   1.603
 1934HOH     H1 5988   1.030   2.828   1.642
 1934HOH     H2 5989   0.940   2.948   1.663
 1935HOH      O 5990   1.685   3.588   1.952
 1935HOH     H1 5991   1.635   3.576   2.033
 1935HOH     H2 5992   1.752   3.520   1.955
 1936HOH      O 5993   1.603   0.372   2.314
 1936HOH     H1 5994   1.671   0.332   2.367
 1936HOH     H2 5995   1.572   0.447   2.365
 1937HOH      O 5996   1.125   1.997   0.078
 1937HOH     H1 5997   1.093   2.011  -0.011
 1937HOH     H2 5998   1.166   2.080   0.102
 1938HOH      O 5999   0.404   2.167   2.666
 1938HOH     H1 6000   0.320   2.194   2.629
 1938HOH     H2 6001   0.444   2.115   2.596
 1939HOH      O 6002   3.646   1.614   1.213
 1939HOH     H1 6003   3.624   1.696   1.169
 1939HOH     H2 6004   3.571   1.597   1.270
 1940HOH      O 6005   2.742   1.248   0.106
 1940HOH     H1 6006   2.823   1.241   0.055
 1940HOH     H2 6007   2.766   1.300   0.182
 1941HOH      O 6008   2.497   1.005   3.348
 1941HOH     H1 6009   2.428   1.031   3.409
 1941HOH     H2 6010   2.451   0.980   3.268
 1942HOH      O 6011   3.456   2.494   0.706
 1942HOH     H1 6012   3.439   2.463   0.795
 1942HOH     H2 6013   3.550   2.481   0.694
 1943HOH      O 6014   2.315   3.980   3.091
 1943HOH     H1 6015   2.409   3.982   3.071
 1943HOH     H2 6016   2.291   3.887   3.085
 1944HOH      O 6017   1.716   1.434   2.028
 1944HOH     H1 6018   1.634   1.484   2.030
 1944HOH     H2 6019   1.764   1.469   1.953
 1945HOH      O 6020   3.531   3.973   0.281
 1945HOH     H1 6021   3.506   3.936   0.196
 1945HOH     H2 6022   3.603   4.032   0.261
 1946HOH      O 6023   2.841   2.706   0.809
 1946HOH     H1 6024   2.878   2.644   0.746
 1946HOH     H2 6025   2.790   2.653   0.869
 1947HOH      O 6026   0.763   1.177   2.412
 1947HOH     H1 6027   0.759   1.185   2.508
 1947HOH     H2 6028   0.782   1.085   2.397
 1948HOH      O 6029   3.322   3.387   0.344
 1948HOH     H1 6030   3.295   3.471   0.382
 1948HOH     H2 6031   3.263   3.323   0.384
 1949HOH      O 6032   0.425   2.230   1.421
 1949HOH     H1 6033   0.433   2.322   1.444
 1949HOH     H2 6034   0.516   2.200   1.411
 1950HOH      O 6035   0.403   2.707   0.115
 1950HOH     H1 6036   0.379   2.798   0.131
 1950HOH     H2 6037   0.323   2.658   0.137
 1951HOH      O 6038   4.008   1.478   2.075
 1951HOH     H1 6039   4.014   1.496   2.169
 1951HOH     H2 6040   4.099   1.466   2.047
 1952HOH      O 6041   0.499   2.604   0.442
 1952HOH     H1 6042   0.549   2.575   0.365
 1952HOH     H2 6043   0.422   2.648   0.406
 1953HOH      O 6044   0.274   2.809   0.395
 1953HOH     H1 6045   0.296   2.894   0.432
 1953HOH     H2 6046   0.183   2.817   0.368
 1954HOH      O 6047   1.080   1.803   2.174
 1954HOH     H1 6048   1.139   1.826   2.245
 1954HOH     H2 6049   1.014   1.746   2.214
 1955HOH      O 6050   0.482   1.914   2.944
 1955HOH     H1 6051   0.566   1.868   2.942
 1955HOH     H2 6052   0.452   1.914   2.853
 1956HOH      O 6053   3.426   1.810   3.849
 1956HOH     H1 6054   3.431   1.900   3.816
 1956HOH     H2 6055   3.389   1.820   3.937
 1957HOH      O 6056   2.619   2.426   2.803
 1957HOH     H1 6057   2.623   2.347   2.749
 1957HOH     H2 6058   2.666   2.492   2.753
 1958HOH      O 6059   1.001   0.696   1.830
 1958HOH     H1 6060   1.030   0.781   1.797
 1958HOH     H2 6061   0.982   0.711   1.923
 1959HOH      O 6062   0.263   0.828   3.893
 1959HOH     H1 6063   0.196   0.871   3.947
 1959HOH     H2 6064   0.219   0.752   3.856
 1960HOH      O 6065   3.457   2.678   0.515
 1960HOH     H1 6066   3.445   2.623   0.593
 1960HOH     H2 6067   3.456   2.768   0.548
 1961HOH      O 6068   0.499   3.729   3.799
 1961HOH     H1 6069   0.454   3.697   3.720
 1961HOH     H2 6070   0.440   3.705   3.871
 1962HOH      O 6071   3.522   1.235   2.016
 1962HOH     H1 6072   3.539   1.142   2.004
 1962HOH     H2 6073   3.594   1.265   2.072
 1963HOH      O 6074   3.973   1.004   1.799
 1963HOH     H1 6075   3.983   1.082   1.853
 1963HOH     H2 6076   4.032   0.940   1.838
 1964HOH      O 6077   1.163   2.823   2.095
 1964HOH     H1 6078   1.138   2.735   2.121
 1964HOH     H2 6079   1.235   2.810   2.033
 1965HOH      O 6080   0.673   3.745   2.665
 1965HOH     H1 6081   0.587   3.713   2.693
 1965HOH     H2 6082   0.718   3.667   2.634
 1966HOH      O 6083   2.010   3.924   2.505
 1966HOH     H1 6084   2.053   3.844   2.475
 1966HOH     H2 6085   1.964   3.897   2.585
 1967HOH      O 6086   1.574   2.274   0.937
 1967HOH     H1 6087   1.548   2.341   0.874
 1967HOH     H2 6088   1.510   2.283   1.009
 1968HOH      O 6089   3.886   1.970   3.727
 1968HOH     H1 6090   3.966   1.928   3.759
 1968HOH     H2 6091   3.816   1.930   3.778
 1969HOH      O 6092   3.620   0.934   2.746
 1969HOH     H1 6093   3.707   0.971   2.757
 1969HOH     H2 6094   3.591   0.966   2.660
 1970HOH      O 6095   3.110   3.726   3.711
 1970HOH     H1 6096   3.198   3.745   3.742
 1970HOH     H2 6097   3.052   3.754   3.782
 1971HOH      O 6098   2.424   1.770   3.185
 1971HOH     H1 6099   2.491   1.779   3.117
 1971HOH     H2 6100   2.354   1.719   3.144
 1972HOH      O 6101   0.225   2.721   3.833
 1972HOH     H1 6102   0.194   2.664   3.762
 1972HOH     H2 6103   0.321   2.712   3.830
 1973HOH      O 6104   1.479   0.345   0.803
 1973HOH     H1 6105   1.499   0.420   0.859
 1973HOH     H2 6106   1.399   0.371   0.756
 1974HOH      O 6107   1.447   3.567   3.110
 1974HOH     H1 6108   1.426   3.542   3.201
 1974HOH     H2 6109   1.478   3.486   3.070
 1975HOH      O 6110   1.019   2.180   3.629
 1975HOH     H1 6111   1.022   2.266   3.672
 1975HOH     H2 6112   1.076   2.189   3.553
 1976HOH      O 6113   2.027   3.924   3.833
 1976HOH     H1 6114   2.070   3.874   3.902
 1976HOH     H2 6115   2.072   3.897   3.753
 1977HOH      O 6116   1.476   3.945   1.599
 1977HOH     H1 6117   1.466   3.850   1.596
 1977HOH     H2 6118   1.558   3.958   1.647
 1978HOH      O 6119   0.602   0.040   2.178
 1978HOH     H1 6120   0.618  -0.051   2.203
 1978HOH     H2 6121   0.676   0.088   2.216
 1979HOH      O 6122   2.086   2.360   1.603
 1979HOH     H1 6123   2.149   2.336   1.672
 1979HOH     H2 6124   2.081   2.455   1.608
 1980HOH      O 6125   2.541   0.028   0.097
 1980HOH     H1 6126   2.466  -0.004   0.047
 1980HOH     H2 6127   2.520   0.006   0.188
 1981HOH      O 6128   0.889   1.654   2.649
 1981HOH     H1 6129   0.921   1.728   2.597
 1981HOH     H2 6130   0.891   1.579   2.589
 1982HOH      O 6131   2.143   0.752   2.554
 1982HOH     H1 6132   2.096   0.699   2.619
 1982HOH     H2 6133   2.236   0.737   2.574
 1983HOH      O 6134   4.010   1.228   3.580
 1983HOH     H1 6135   3.986   1.319   3.564
 1983HOH     H2 6136   3.951   1.199   3.650
 1984HOH      O 6137   0.023   1.793   3.861
 1984HOH     H1 6138   0.096   1.748   3.904
 1984HOH     H2 6139  -0.036   1.815   3.933
 1985HOH      O 6140   1.027   1.893   1.124
 1985HOH     H1 6141   0.997   1.871   1.035
 1985HOH     H2 6142   1.007   1.986   1.133
 1986HOH      O 6143   3.675   1.278   2.218
 1986HOH     H1 6144   3.678   1.191   2.258
 1986HOH     H2 6145   3.695   1.338   2.289
 1987HOH      O 6146   1.934   1.519   0.952
 1987HOH     H1 6147   1.897   1.437   0.986
 1987HOH     H2 6148   2.026   1.497   0.934
 1988HOH      O 6149   2.412   2.638   3.838
 1988HOH     H1 6150   2.484   2.643   3.775
 1988HOH     H2 6151   2.427   2.555   3.884
 1989HOH      O 6152   0.246   0.988   1.430
 1989HOH     H1 6153   0.299   0.923   1.385
 1989HOH     H2 6154   0.180   0.936   1.477
 1990HOH      O 6155   1.447   1.152   0.707
 1990HOH     H1 6156   1.516   1.171   0.642
 1990HOH     H2 6157   1.375   1.118   0.655
 1991HOH      O 6158   0.575   2.683   2.177
 1991HOH     H1 6159   0.589   2.774   2.154
 1991HOH     H2 6160   0.659   2.640   2.161
 1992HOH      O 6161   1.348   1.940   1.228
 1992HOH     H1 6162   1.306   1.866   1.186
 1992HOH     H2 6163   1.433   1.907   1.256
 1993HOH      O 6164   2.429   1.547   1.695
 1993HOH     H1 6165   2.494   1.522   1.628
 1993HOH     H2 6166   2.345   1.533   1.652
 1994HOH      O 6167   3.710   0.568   1.321
 1994HOH     H1 6168   3.778   0.507   1.348
 1994HOH     H2 6169   3.633   0.542   1.372
 1995HOH      O 6170   2.103   2.077   3.627
 1995HOH     H1 6171   2.189   2.106   3.659
 1995HOH     H2 6172   2.050   2.156   3.626
 1996HOH      O 6173   0.092   1.979   0.093
 1996HOH     H1 6174   0.172   2.004   0.047
 1996HOH     H2 6175   0.027   2.045   0.066
 1997HOH      O 6176   3.927   1.556   1.304
 1997HOH     H1 6177   3.844   1.590   1.269
 1997HOH     H2 6178   3.957   1.624   1.364
 1998HOH      O 6179   1.072   0.319   2.330
 1998HOH     H1 6180   1.135   0.368   2.384
 1998HOH     H2 6181   1.086   0.351   2.241
 1999HOH      O 6182   2.604   3.480   3.967
 1999HOH     H1 6183   2.675   3.444   3.914
 1999HOH     H2 6184   2.527   3.479   3.909
 2000HOH      O 6185   2.292   0.168   3.562
 2000HOH     H1 6186   2.315   0.096   3.503
 2000HOH     H2 6187   2.350   0.156   3.637
 2001HOH      O 6188   2.180   1.388   0.630
 2001HOH     H1 6189   2.132   1.468   0.653
 2001HOH     H2 6190   2.272   1.416   0.625
 2002HOH      O 6191   2.174   0.625   3.849
 2002HOH     H1 6192   2.179   0.709   3.805
 2002HOH     H2 6193   2.254   0.621   3.902
 2003HOH      O 6194   0.078   3.008   1.473
 2003HOH     H1 6195   0.012   2.945   1.443
 2003HOH     H2 6196   0.112   2.970   1.554
 2004HOH      O 6197   0.402   1.753   2.019
 2004HOH     H1 6198   0.389   1.737   1.926
 2004HOH     H2 6199   0.396   1.667   2.060
 2005HOH      O 6200   1.975   1.230   0.448
 2005HOH     H1 6201   1.977   1.146   0.402
 2005HOH     H2 6202   2.034   1.287   0.398
 2006HOH      O 6203   3.699   3.639   3.036
 2006HOH     H1 6204   3.711   3.669   3.126
 2006HOH     H2 6205   3.751   3.559   3.030
 2007HOH      O 6206   2.808   3.575   3.372
 2007HOH     H1 6207   2.794   3.508   3.439
 2007HOH     H2 6208   2.877   3.630   3.408
 2008HOH      O 6209   1.223   3.225   0.276
 2008HOH     H1 6210   1.174   3.288   0.328
 2008HOH     H2 6211   1.281   3.182   0.339
 2009HOH      O 6212   0.100   3.347   1.032
 2009HOH     H1 6213   0.054   3.295   1.098
 2009HOH     H2 6214   0.107   3.289   0.956
 2010HOH      O 6215   1.016   2.196   1.416
 2010HOH     H1 6216   1.018   2.285   1.451
 2010HOH     H2 6217   1.102   2.160   1.436
 2011HOH      O 6218   2.385   0.031   2.033
 2011HOH     H1 6219   2.388   0.074   1.947
 2011HOH     H2 6220   2.293   0.035   2.058
 2012HOH      O 6221   2.410   3.077   2.799
 2012HOH     H1 6222   2.401   3.043   2.888
 2012HOH     H2 6223   2.481   3.026   2.761
 2013HOH      O 6224   3.372   1.349   2.253
 2013HOH     H1 6225   3.328   1.430   2.227
 2013HOH     H2 6226   3.415   1.319   2.173
 2014HOH      O 6227   0.459   2.714   1.720
 2014HOH     H1 6228   0.547   2.705   1.682
 2014HOH     H2 6229   0.470   2.778   1.790
 2015HOH      O 6230   3.736   2.363   2.516
 2015HOH     H1 6231   3.758   2.324   2.600
 2015HOH     H2 6232   3.774   2.451   2.520
 2016HOH      O 6233   3.692   2.785   1.694
 2016HOH     H1 6234   3.647   2.721   1.638
 2016HOH     H2 6235   3.770   2.739   1.725
 2017HOH      O 6236   1.031   4.012   3.201
 2017HOH     H1 6237   0.984   4.032   3.281
 2017HOH     H2 6238   0.974   3.951   3.154
 2018HOH      O 6239   3.533   3.318   3.377
 2018HOH     H1 6240   3.460   3.273   3.333
 2018HOH     H2 6241   3.492   3.390   3.424
 2019HOH      O 6242   1.244   0.487   3.855
 2019HOH     H1 6243   1.230   0.516   3.945
 2019HOH     H2 6244   1.192   0.406   3.848
 2020HOH      O 6245   1.894   2.575   4.013
 2020HOH     H1 6246   1.924   2.525   3.937
 2020HOH     H2 6247   1.923   2.524   4.088
 2021HOH      O 6248   1.557   2.778   0.867
 2021HOH     H1 6249   1.616   2.791   0.793
 2021HOH     H2 6250   1.534   2.685   0.863
 2022HOH      O 6251   1.926   3.587   2.117
 2022HOH     H1 6252   1.926   3.503   2.162
 2022HOH     H2 6253   2.016   3.596   2.085
 2023HOH      O 6254   0.971   3.039   0.139
 2023HOH     H1 6255   0.930   3.112   0.186
 2023HOH     H2 6256   0.901   3.004   0.084
 2024HOH      O 6257   0.410   0.810   0.817
 2024HOH     H1 6258   0.424   0.845   0.729
 2024HOH     H2 6259   0.454   0.872   0.875
 2025HOH      O 6260   0.528   3.130   3.011
 2025HOH     H1 6261   0.617   3.106   3.036
 2025HOH     H2 6262   0.472   3.082   3.073
 2026HOH      O 6263   3.191   1.537   1.552
 2026HOH     H1 6264   3.129   1.464   1.556
 2026HOH     H2 6265   3.199   1.568   1.642
 2027HOH      O 6266   0.208   3.527   3.336
 2027HOH     H1 6267   0.160   3.461   3.286
 2027HOH     H2 6268   0.250   3.581   3.270
 2028HOH      O 6269   3.964   1.779   1.455
 2028HOH     H1 6270   4.019   1.852   1.484
 2028HOH     H2 6271   3.906   1.763   1.529
 2029HOH      O 6272   1.031   1.773   1.363
 2029HOH     H1 6273   1.038   1.832   1.288
 2029HOH     H2 6274   0.992   1.827   1.432
 2030HOH      O 6275   0.019   2.725   1.539
 2030HOH     H1 6276   0.089   2.674   1.580
 2030HOH     H2 6277  -0.053   2.722   1.602
 2031HOH      O 6278   2.475   2.889   1.847
 2031HOH     H1 6279   2.411   2.949   1.884
 2031HOH     H2 6280   2.560   2.927   1.869
 2032HOH      O 6281   0.351   3.790   1.573
 2032HOH     H1 6282   0.302   3.858   1.526
 2032HOH     H2 6283   0.335   3.710   1.523
 2033HOH      O 6284   3.553   0.735   0.112
 2033HOH     H1 6285   3.636   0.778   0.092
 2033HOH     H2 6286   3.540   0.751   0.206
 2034HOH      O 6287   3.490   1.354   0.427
 2034HOH     H1 6288   3.463   1.362   0.519
 2034HOH     H2 6289   3.435   1.284   0.392
 2035HOH      O 6290   0.502   1.911   0.487
 2035HOH     H1 6291   0.575   1.973   0.480
 2035HOH     H2 6292   0.427   1.965   0.511
 2036HOH      O 6293   2.571   0.559   0.770
 2036HOH     H1 6294   2.479   0.533   0.766
 2036HOH     H2 6295   2.592   0.555   0.864
 2037HOH      O 6296   3.883   1.773   0.443
 2037HOH     H1 6297   3.900   1.853   0.493
 2037HOH     H2 6298   3.795   1.747   0.470
 2038HOH      O 6299   3.511   0.922   3.001
 2038HOH     H1 6300   3.531   0.916   2.907
 2038HOH     H2 6301   3.522   0.833   3.034
 2039HOH      O 6302   1.184   1.172   2.195
 2039HOH     H1 6303   1.237   1.236   2.149
 2039HOH     H2 6304   1.247   1.113   2.235
 2040HOH      O 6305   0.186   0.367   1.215
 2040HOH     H1 6306   0.109   0.311   1.212
 2040HOH     H2 6307   0.159   0.443   1.267
 2041HOH      O 6308   0.867   0.672   2.483
 2041HOH     H1 6309   0.899   0.664   2.393
 2041HOH     H2 6310   0.940   0.643   2.537
 2042HOH      O 6311   2.028   0.983   0.294
 2042HOH     H1 6312   2.069   0.899   0.272
 2042HOH     H2 6313   1.938   0.974   0.262
 2043HOH      O 6314   2.214   3.871   3.629
 2043HOH     H1 6315   2.257   3.787   3.611
 2043HOH     H2 6316   2.260   3.933   3.572
 2044HOH      O 6317   2.759   1.817   3.160
 2044HOH     H1 6318   2.694   1.850   3.222
 2044HOH     H2 6319   2.708   1.793   3.083
 2045HOH      O 6320   3.708   1.183   1.614
 2045HOH     H1 6321   3.742   1.114   1.558
 2045HOH     H2 6322   3.770   1.255   1.604
 2046HOH      O 6323   3.323   3.757   2.829
 2046HOH     H1 6324   3.266   3.697   2.780
 2046HOH     H2 6325   3.284   3.760   2.916
 2047HOH      O 6326   1.286   2.682   3.854
 2047HOH     H1 6327   1.271   2.770   3.819
 2047HOH     H2 6328   1.200   2.654   3.886
 2048HOH      O 6329   1.442   0.014   2.385
 2048HOH     H1 6330   1.428   0.044   2.475
 2048HOH     H2 6331   1.383   0.067   2.332
 2049HOH      O 6332   3.997   2.761   0.344
 2049HOH     H1 6333   3.994   2.676   0.300
 2049HOH     H2 6334   3.914   2.802   0.323
 2050HOH      O 6335   1.554   1.713   3.941
 2050HOH     H1 6336   1.491   1.722   4.013
 2050HOH     H2 6337   1.562   1.801   3.906
 2051HOH      O 6338   2.901   1.619   0.524
 2051HOH     H1 6339   2.900   1.643   0.617
 2051HOH     H2 6340   2.811   1.633   0.495
 2052HOH      O 6341   2.307   2.608   1.188
 2052HOH     H1 6342   2.316   2.629   1.281
 2052HOH     H2 6343   2.334   2.689   1.143
 2053HOH      O 6344   2.763   3.950   2.223
 2053HOH     H1 6345   2.709   3.949   2.144
 2053HOH     H2 6346   2.832   3.887   2.206
 2054HOH      O 6347   2.655   2.942   2.966
 2054HOH     H1 6348   2.573   2.929   3.015
 2054HOH     H2 6349   2.630   2.928   2.875
 2055HOH      O 6350   2.155   2.946   1.036
 2055HOH     H1 6351   2.114   3.029   1.061
 2055HOH     H2 6352   2.211   2.923   1.110
 2056HOH      O 6353   0.198   1.303   1.023
 2056HOH     H1 6354   0.215   1.396   1.006
 2056HOH     H2 6355   0.239   1.286   1.107
 2057HOH      O 6356   2.669   2.136   0.598
 2057HOH     H1 6357   2.608   2.178   0.658
 2057HOH     H2 6358   2.744   2.111   0.653
 2058HOH      O 6359   0.670   1.275   0.889
 2058HOH     H1 6360   0.717   1.340   0.836
 2058HOH     H2 6361   0.705   1.285   0.977
 2059HOH      O 6362   0.137   1.964   3.134
 2059HOH     H1 6363   0.147   2.030   3.203
 2059HOH     H2 6364   0.190   1.890   3.164
 2060HOH      O 6365   3.911   1.216   2.012
 2060HOH     H1 6366   3.912   1.304   2.052
 2060HOH     H2 6367   4.002   1.189   2.011
 2061HOH      O 6368   2.049   2.615   0.844
 2061HOH     H1 6369   2.094   2.676   0.786
 2061HOH     H2 6370   2.007   2.671   0.910
 2062HOH      O 6371   0.070   1.863   3.440
 2062HOH     H1 6372   0.029   1.852   3.354
 2062HOH     H2 6373   0.057   1.956   3.461
 2063HOH      O 6374   1.777   3.324   3.846
 2063HOH     H1 6375   1.783   3.233   3.875
 2063HOH     H2 6376   1.737   3.369   3.920
 2064HOH      O 6377   0.395   1.291   1.817
 2064HOH     H1 6378   0.336   1.244   1.759
 2064HOH     H2 6379   0.450   1.223   1.856
 2065HOH      O 6380   3.333   2.572   3.446
 2065HOH     H1 6381   3.340   2.654   3.396
 2065HOH     H2 6382   3.254   2.583   3.499
 2066HOH      O 6383   3.592   3.577   0.247
 2066HOH     H1 6384   3.570   3.496   0.201
 2066HOH     H2 6385   3.591   3.554   0.340
 2067HOH      O 6386   1.649   0.223   3.747
 2067HOH     H1 6387   1.730   0.179   3.725
 2067HOH     H2 6388   1.673   0.315   3.755
 2068HOH      O 6389   3.070   2.032   2.697
 2068HOH     H1 6390   3.064   2.088   2.774
 2068HOH     H2 6391   2.979   2.017   2.671
 2069HOH      O 6392   3.392   3.086   1.959
 2069HOH     H1 6393   3.363   3.053   1.874
 2069HOH     H2 6394   3.436   3.168   1.940
 2070HOH      O 6395   3.624   2.055   2.576
 2070HOH     H1 6396   3.602   2.056   2.483
 2070HOH     H2 6397   3.688   1.984   2.584
 2071HOH      O 6398   0.815   0.714   1.629
 2071HOH     H1 6399   0.843   0.785   1.571
 2071HOH     H2 6400   0.885   0.706   1.693
 2072HOH      O 6401   1.293   1.787   0.019
 2072HOH     H1 6402   1.241   1.848   0.072
 2072HOH     H2 6403   1.305   1.832  -0.064
 2073HOH      O 6404   3.803   2.542   2.261
 2073HOH     H1 6405   3.838   2.461   2.223
 2073HOH     H2 6406   3.716   2.519   2.293
 2074HOH      O 6407   3.895   3.200   3.444
 2074HOH     H1 6408   3.826   3.196   3.511
 2074HOH     H2 6409   3.974   3.222   3.493
 2075HOH      O 6410   3.762   0.219   2.659
 2075HOH     H1 6411   3.690   0.275   2.686
 2075HOH     H2 6412   3.803   0.265   2.586
 2076HOH      O 6413   0.010   1.165   2.665
 2076HOH     H1 6414   0.004   1.129   2.754
 2076HOH     H2 6415  -0.000   1.259   2.677
 2077HOH      O 6416   2.907   0.459   0.198
 2077HOH     H1 6417   2.954   0.393   0.147
 2077HOH     H2 6418   2.883   0.526   0.133
 2078HOH      O 6419   0.665   2.142   1.398
 2078HOH     H1 6420   0.727   2.161   1.468
 2078HOH     H2 6421   0.701   2.065   1.354
 2079HOH      O 6422   1.733   1.550   0.749
 2079HOH     H1 6423   1.661   1.552   0.812
 2079HOH     H2 6424   1.812   1.545   0.802
 2080HOH      O 6425   2.704   1.836   1.314
 2080HOH     H1 6426   2.676   1.751   1.350
 2080HOH     H2 6427   2.630   1.894   1.330
 2081HOH      O 6428   3.670   1.020   2.367
 2081HOH     H1 6429   3.607   1.025   2.439
 2081HOH     H2 6430   3.642   0.944   2.316
 2082HOH      O 6431   0.724   1.868   2.800
 2082HOH     H1 6432   0.800   1.835   2.752
 2082HOH     H2 6433   0.649   1.841   2.748
 2083HOH      O 6434   3.643   0.379   1.954
 2083HOH     H1 6435   3.565   0.423   1.921
 2083HOH     H2 6436   3.641   0.292   1.913
 2084HOH      O 6437   0.070   0.759   3.535
 2084HOH     H1 6438   0.042   0.690   3.474
 2084HOH     H2 6439   0.004   0.828   3.525
 2085HOH      O 6440   0.299   0.048   1.140
 2085HOH     H1 6441   0.319  -0.043   1.160
 2085HOH     H2 6442   0.371   0.097   1.180
 2086HOH      O 6443   0.283   3.661   1.325
 2086HOH     H1 6444   0.355   3.643   1.264
 2086HOH     H2 6445   0.204   3.635   1.277
 2087HOH      O 6446   1.494   0.507   0.418
 2087HOH     H1 6447   1.414   0.455   0.421
 2087HOH     H2 6448   1.510   0.520   0.324
 2088HOH      O 6449   0.140   0.564   2.627
 2088HOH     H1 6450   0.142   0.660   2.631
 2088HOH     H2 6451   0.204   0.542   2.560
 2089HOH      O 6452   2.245   2.124   4.027
 2089HOH     H1 6453   2.184   2.190   4.062
 2089HOH     H2 6454   2.260   2.152   3.937
 2090HOH      O 6455   1.238   3.598   1.341
 2090HOH     H1 6456   1.302   3.668   1.352
 2090HOH     H2 6457   1.259   3.559   1.256
 2091HOH      O 6458   0.063   1.866   1.863
 2091HOH     H1 6459   0.126   1.924   1.904
 2091HOH     H2 6460   0.113   1.789   1.838
 2092HOH      O 6461   3.927   3.397   0.193
 2092HOH     H1 6462   3.880   3.365   0.116
 2092HOH     H2 6463   3.866   3.458   0.235
 2093HOH      O 6464   2.900   3.806   3.908
 2093HOH     H1 6465   2.930   3.817   3.998
 2093HOH     H2 6466   2.806   3.792   3.915
 2094HOH      O 6467   0.320   3.104   3.572
 2094HOH     H1 6468   0.294   3.109   3.663
 2094HOH     H2 6469   0.413   3.126   3.572
 2095HOH      O 6470   1.939   3.486   3.309
 2095HOH     H1 6471   1.975   3.473   3.397
 2095HOH     H2 6472   2.013   3.470   3.251
 2096HOH      O 6473   3.087   2.762   2.621
 2096HOH     H1 6474   3.020   2.770   2.553
 2096HOH     H2 6475   3.081   2.672   2.651
 2097HOH      O 6476   0.061   1.430   1.644
 2097HOH     H1 6477   0.028   1.354   1.595
 2097HOH     H2 6478   0.122   1.473   1.584
 2098HOH      O 6479   2.695   2.718   3.694
 2098HOH     H1 6480   2.683   2.747   3.604
 2098HOH     H2 6481   2.787   2.732   3.713
 2099HOH      O 6482   1.019   2.553   0.849
 2099HOH     H1 6483   1.106   2.562   0.889
 2099HOH     H2 6484   1.036   2.558   0.755
 2100HOH      O 6485   2.684   2.542   1.289
 2100HOH     H1 6486   2.723   2.458   1.264
 2100HOH     H2 6487   2.617   2.519   1.354
 2101HOH      O 6488   0.300   2.496   2.584
 2101HOH     H1 6489   0.255   2.495   2.500
 2101HOH     H2 6490   0.241   2.451   2.644
 2102HOH      O 6491   1.016   3.924   0.686
 2102HOH     H1 6492   1.074   3.990   0.724
 2102HOH     H2 6493   1.029   3.846   0.740
 2103HOH      O 6494   1.010   2.745   3.713
 2103HOH     H1 6495   1.078   2.785   3.658
 2103HOH     H2 6496   0.933   2.742   3.657
 2104HOH      O 6497   1.191   3.940   2.515
 2104HOH     H1 6498   1.195   3.970   2.425
 2104HOH     H2 6499   1.210   3.846   2.511
 2105HOH      O 6500   1.067   3.790   1.559
 2105HOH     H1 6501   1.044   3.837   1.478
 2105HOH     H2 6502   1.068   3.698   1.533
 2106HOH      O 6503   3.010   3.174   1.844
 2106HOH     H1 6504   2.988   3.094   1.797
 2106HOH     H2 6505   2.930   3.226   1.843
 2107HOH      O 6506   1.383   0.833   0.059
 2107HOH     H1 6507   1.323   0.859  -0.011
 2107HOH     H2 6508   1.465   0.814   0.015
 2108HOH      O 6509   0.313   3.635   0.219
 2108HOH     H1 6510   0.225   3.639   0.255
 2108HOH     H2 6511   0.347   3.724   0.229
 2109HOH      O 6512   0.459   2.823   2.868
 2109HOH     H1 6513   0.547   2.828   2.830
 2109HOH     H2 6514   0.457   2.739   2.914
 2110HOH      O 6515   0.321   3.082   2.376
 2110HOH     H1 6516   0.346   3.159   2.428
 2110HOH     H2 6517   0.384   3.015   2.402
 2111HOH      O 6518   2.929   2.499   1.029
 2111HOH     H1 6519   2.847   2.450   1.040
 2111HOH     H2 6520   2.985   2.442   0.978
   4.02731   4.02731   4.02731   0.00000   0.00000   0.00000   0.00000   0.00000   0.00000
