Generated with MDTraj, t= 179.0
 6533
    1MOL     C1    1   0.831   1.895   2.349
    1MOL     C2    2   0.782   1.825   2.246
    1MOL     C3    3   0.865   1.769   2.155
    1MOL     C4    4   1.005   1.779   2.171
    1MOL     C5    5   1.051   1.842   2.286
    1MOL     C6    6   0.961   1.906   2.375
    1MOL     C7    7   1.112   1.705   2.081
    1MOL     C8    8   1.168   1.799   1.972
    1MOL     N1    9   1.305   1.767   1.926
    1MOL     C9   10   1.300   1.631   1.868
    1MOL    C10   11   1.427   1.782   2.017
    1MOL    C11   12   1.322   1.871   1.818
    1MOL     H1   13   1.208   1.622   1.811
    1MOL     H2   14   1.316   1.561   1.951
    1MOL     H3   15   1.394   1.623   1.812
    1MOL     H4   16   1.422   1.696   2.084
    1MOL     H5   17   1.415   1.873   2.076
    1MOL     H6   18   1.509   1.790   1.946
    1MOL     H7   19   1.424   1.873   1.780
    1MOL     H8   20   1.298   1.963   1.872
    1MOL     H9   21   1.251   1.850   1.737
    1MOL    H10   22   0.759   1.943   2.414
    1MOL    H11   23   0.675   1.821   2.230
    1MOL    H12   24   0.826   1.711   2.071
    1MOL    H13   25   1.155   1.842   2.316
    1MOL    H14   26   0.988   1.960   2.465
    1MOL    H15   27   1.196   1.666   2.139
    1MOL    H16   28   1.064   1.617   2.037
    1MOL    H17   29   1.099   1.807   1.888
    1MOL    H18   30   1.173   1.897   2.020
    2OCB     C1   31   0.360   1.647   2.410
    2OCB     C2   32   0.594   1.591   2.583
    2OCB     C3   33   0.384   1.712   2.533
    2OCB     C4   34   0.459   1.551   2.377
    2OCB     C5   35   0.573   1.529   2.461
    2OCB     C6   36   0.491   1.680   2.624
    2OCB     O1   37   0.718   1.565   2.644
    2OCB     C7   38   0.518   1.754   2.760
    2OCB     C8   39   0.822   1.659   2.643
    2OCB     O2   40   0.819   1.746   2.765
    2OCB     C9   41   0.749   1.867   2.748
    2OCB    C10   42   0.609   1.876   2.734
    2OCB    C11   43   0.549   1.998   2.705
    2OCB    C12   44   0.822   1.978   2.727
    2OCB    C13   45   0.626   2.114   2.697
    2OCB    C14   46   0.767   2.101   2.705
    2OCB     O3   47   0.847   2.208   2.672
    2OCB    C15   48   0.557   2.253   2.664
    2OCB    C16   49   0.551   2.281   2.515
    2OCB    C17   50   0.659   2.330   2.444
    2OCB    C18   51   0.866   2.260   2.535
    2OCB     O4   52   0.767   2.367   2.506
    2OCB     O5   53   0.461   1.500   2.250
    2OCB    C19   54   0.250   1.700   2.316
    2OCB    C20   55   0.317   1.813   2.236
    2OCB     O6   56   0.402   1.640   2.082
    2OCB    C21   57   0.377   1.770   2.116
    2OCB    C22   58   0.664   2.333   2.300
    2OCB    C23   59   0.560   2.281   2.229
    2OCB    C24   60   0.425   1.865   2.032
    2OCB    C25   61   0.407   2.000   2.062
    2OCB     O7   62   0.570   2.269   2.090
    2OCB     O8   63   0.477   2.086   1.979
    2OCB    C26   64   0.602   2.138   2.027
    2OCB    C27   65   0.300   1.947   2.267
    2OCB    C28   66   0.349   2.042   2.184
    2OCB    C29   67   0.444   2.227   2.438
    2OCB    C30   68   0.331   2.188   2.216
    2OCB    C31   69   0.450   2.237   2.300
    2OCB    C32   70   0.508   1.579   2.146
    2OCB    C33   71   0.423   2.287   2.736
    2OCB    C34   72   0.433   2.275   2.897
    2OCB    C35   73   0.353   2.374   2.977
    2OCB     O9   74   0.403   2.484   3.006
    2OCB    C36   75   0.400   1.778   2.848
    2OCB    C37   76   0.433   1.857   2.980
    2OCB    C38   77   0.314   1.855   3.072
    2OCB    O10   78   0.206   1.895   3.042
    2OCB    C39   79   0.119   1.748   2.383
    2OCB    C40   80   0.067   1.639   2.485
    2OCB    C41   81   0.059   1.506   2.412
    2OCB    O11   82   0.157   1.434   2.415
    2OCB    C42   83   0.193   2.228   2.284
    2OCB    C43   84   0.166   2.376   2.280
    2OCB    C44   85   0.023   2.405   2.312
    2OCB    O12   86  -0.005   2.475   2.408
    2OCB    C45   87   0.955   1.599   2.628
    2OCB    C46   88   1.206   1.524   2.544
    2OCB    C47   89   1.062   1.684   2.654
    2OCB    C48   90   0.970   1.482   2.559
    2OCB    C49   91   1.098   1.437   2.521
    2OCB    C50   92   1.192   1.647   2.607
    2OCB    C51   93   0.604   1.503   2.056
    2OCB    C52   94   0.768   1.350   1.886
    2OCB    C53   95   0.620   1.540   1.921
    2OCB    C54   96   0.686   1.399   2.107
    2OCB    C55   97   0.756   1.314   2.018
    2OCB    C56   98   0.701   1.464   1.840
    2OCB    C57   99   0.713   2.145   1.919
    2OCB    C58  100   0.924   2.150   1.738
    2OCB    C59  101   0.814   2.240   1.931
    2OCB    C60  102   0.730   2.043   1.830
    2OCB    C61  103   0.831   2.044   1.735
    2OCB    C62  104   0.911   2.248   1.839
    2OCB    C63  105   1.007   2.308   2.522
    2OCB    C64  106   1.273   2.343   2.443
    2OCB    C65  107   1.037   2.381   2.404
    2OCB    C66  108   1.110   2.252   2.596
    2OCB    C67  109   1.244   2.271   2.561
    2OCB    C68  110   1.173   2.407   2.371
    2OCB    O13  111   0.824   1.202   2.058
    2OCB    O14  112   0.833   1.951   1.634
    2OCB    O15  113   0.999   2.353   1.839
    2OCB    O16  114   1.119   1.328   2.436
    2OCB    O17  115   1.300   1.729   2.615
    2OCB    O18  116   1.210   2.485   2.262
    2OCB    O19  117   1.347   2.209   2.629
    2OCB    C69  118   0.740   1.845   1.621
    2OCB    C70  119   0.550   1.653   1.600
    2OCB    C71  120   0.773   1.718   1.666
    2OCB    C72  121   0.617   1.874   1.560
    2OCB    C73  122   0.527   1.774   1.542
    2OCB    C74  123   0.672   1.620   1.662
    2OCB    O20  124   0.704   1.490   1.707
    2OCB    C75  125   1.012   1.259   2.379
    2OCB    C76  126   0.800   1.111   2.279
    2OCB    C77  127   0.935   1.176   2.463
    2OCB    C78  128   0.983   1.271   2.238
    2OCB    C79  129   0.873   1.194   2.191
    2OCB    C80  130   0.826   1.106   2.415
    2OCB    C81  131   1.022   2.438   1.942
    2OCB    C82  132   1.071   2.625   2.134
    2OCB    C83  133   0.974   2.567   1.923
    2OCB    C84  134   1.107   2.404   2.050
    2OCB    C85  135   1.128   2.502   2.150
    2OCB    C86  136   0.991   2.659   2.029
    2OCB    C87  137   0.962   2.808   2.017
    2OCB    O21  138   0.877   2.852   1.937
    2OCB    C88  139   1.212   1.973   3.038
    2OCB    O22  140   1.218   2.081   3.098
    2OCB    C89  141   0.741   1.028   2.517
    2OCB    O23  142   0.638   0.975   2.480
    2OCB    O24  143   0.245   2.335   3.018
    2OCB    O25  144  -0.061   2.370   2.228
    2OCB    O26  145  -0.039   1.475   2.350
    2OCB    C90  146   0.412   1.794   1.448
    2OCB    O27  147   0.382   1.704   1.373
    2OCB    O28  148   1.176   1.871   3.088
    2OCB    O29  149   1.033   2.894   2.076
    2OCB    O30  150   0.327   1.874   1.473
    2OCB    O31  151   0.776   1.026   2.633
    2OCB    O32  152   0.336   1.813   3.183
    2OCB    C91  153   1.309   1.851   2.685
    2OCB    C92  154   1.290   2.087   2.826
    2OCB    C93  155   1.334   1.966   2.615
    2OCB    C94  156   1.269   1.848   2.819
    2OCB    C95  157   1.258   1.968   2.895
    2OCB    C96  158   1.337   2.084   2.692
    2OCB    C97  159   1.352   1.976   2.463
    2OCB    C98  160   1.047   1.372   2.154
    2OCB    C99  161   0.908   1.705   1.737
    2OCB      C  162   1.159   2.262   2.067
    2OCB     H1  163   0.311   1.788   2.560
    2OCB     H2  164   0.647   1.457   2.427
    2OCB     H3  165   0.582   1.689   2.820
    2OCB     H4  166   0.815   1.717   2.550
    2OCB     H5  167   0.441   2.004   2.690
    2OCB     H6  168   0.930   1.970   2.738
    2OCB     H7  169   0.633   2.323   2.699
    2OCB     H8  170   0.857   2.180   2.460
    2OCB     H9  171   0.227   1.625   2.240
    2OCB    H10  172   0.752   2.366   2.246
    2OCB    H11  173   0.457   1.843   1.930
    2OCB    H12  174   0.632   2.066   2.104
    2OCB    H13  175   0.260   1.975   2.364
    2OCB    H14  176   0.362   2.174   2.485
    2OCB    H15  177   0.336   2.242   2.122
    2OCB    H16  178   0.567   1.663   2.186
    2OCB    H17  179   0.404   2.393   2.718
    2OCB    H18  180   0.343   2.222   2.700
    2OCB    H19  181   0.411   2.175   2.934
    2OCB    H20  182   0.537   2.283   2.930
    2OCB    H21  183   0.350   1.684   2.870
    2OCB    H22  184   0.325   1.836   2.793
    2OCB    H23  185   0.518   1.805   3.023
    2OCB    H24  186   0.452   1.961   2.952
    2OCB    H25  187   0.134   1.837   2.444
    2OCB    H26  188   0.040   1.775   2.313
    2OCB    H27  189   0.123   1.635   2.579
    2OCB    H28  190  -0.037   1.666   2.504
    2OCB    H29  191   0.113   2.189   2.222
    2OCB    H30  192   0.173   2.177   2.379
    2OCB    H31  193   0.239   2.425   2.343
    2OCB    H32  194   0.185   2.415   2.180
    2OCB    H33  195   1.303   1.502   2.500
    2OCB    H34  196   1.051   1.775   2.712
    2OCB    H35  197   0.886   1.430   2.513
    2OCB    H36  198   0.826   1.286   1.820
    2OCB    H37  199   0.560   1.619   1.877
    2OCB    H38  200   0.675   1.369   2.211
    2OCB    H39  201   1.006   2.147   1.666
    2OCB    H40  202   0.806   2.307   2.017
    2OCB    H41  203   0.664   1.956   1.828
    2OCB    H42  204   1.378   2.355   2.418
    2OCB    H43  205   0.956   2.403   2.335
    2OCB    H44  206   1.086   2.196   2.685
    2OCB    H45  207   0.472   1.577   1.587
    2OCB    H46  208   0.601   1.976   1.526
    2OCB    H47  209   0.721   1.048   2.241
    2OCB    H48  210   0.964   1.166   2.567
    2OCB    H49  211   1.099   2.703   2.204
    2OCB    H50  212   0.918   2.595   1.834
    2OCB    H51  213   1.267   2.180   2.877
    2OCB    H52  214   1.262   1.750   2.864
    2OCB    H53  215   1.365   1.877   2.419
    2OCB    H54  216   1.268   2.032   2.421
    2OCB    H55  217   1.444   2.033   2.448
    2OCB    H56  218   0.997   1.388   2.058
    2OCB    H57  219   1.037   1.467   2.207
    2OCB    H58  220   1.154   1.355   2.140
    2OCB    H59  221   0.930   1.601   1.758
    2OCB    H60  222   0.990   1.750   1.680
    2OCB    H61  223   0.905   1.754   1.834
    2OCB    H62  224   1.124   2.228   2.165
    2OCB    H63  225   1.141   2.188   1.989
    2OCB    H64  226   1.268   2.258   2.069
    3Na+    Na+  227   3.837   2.794   2.229
    4Na+    Na+  228   1.606   3.234   0.630
    5Na+    Na+  229   3.295   1.789   2.554
    6Na+    Na+  230   3.167   2.260   1.343
    7Na+    Na+  231   1.629   3.059   2.864
    8Na+    Na+  232   2.514   2.851   2.597
    9Na+    Na+  233   0.649   0.944   3.783
   10HOH      O  234   0.019   3.145   0.303
   10HOH     H1  235   0.093   3.084   0.292
   10HOH     H2  236  -0.041   3.100   0.363
   11HOH      O  237   2.714   2.762   3.873
   11HOH     H1  238   2.745   2.710   3.799
   11HOH     H2  239   2.790   2.767   3.932
   12HOH      O  240   2.139   0.858   2.075
   12HOH     H1  241   2.104   0.838   2.162
   12HOH     H2  242   2.127   0.778   2.025
   13HOH      O  243   2.910   2.699   1.186
   13HOH     H1  244   2.957   2.774   1.151
   13HOH     H2  245   2.964   2.669   1.259
   14HOH      O  246   1.325   0.995   1.946
   14HOH     H1  247   1.388   0.979   2.016
   14HOH     H2  248   1.369   0.965   1.867
   15HOH      O  249   0.076   1.923   3.860
   15HOH     H1  250   0.159   1.964   3.834
   15HOH     H2  251   0.092   1.892   3.949
   16HOH      O  252   3.250   2.425   1.849
   16HOH     H1  253   3.272   2.351   1.792
   16HOH     H2  254   3.325   2.485   1.840
   17HOH      O  255   0.350   1.631   0.902
   17HOH     H1  256   0.299   1.602   0.827
   17HOH     H2  257   0.345   1.559   0.965
   18HOH      O  258   1.240   3.435   2.836
   18HOH     H1  259   1.191   3.421   2.917
   18HOH     H2  260   1.293   3.356   2.827
   19HOH      O  261   0.635   3.116   1.534
   19HOH     H1  262   0.544   3.099   1.511
   19HOH     H2  263   0.642   3.088   1.626
   20HOH      O  264   3.603   1.701   1.868
   20HOH     H1  265   3.528   1.642   1.876
   20HOH     H2  266   3.621   1.704   1.774
   21HOH      O  267   3.639   0.983   0.495
   21HOH     H1  268   3.708   0.943   0.548
   21HOH     H2  269   3.600   1.048   0.553
   22HOH      O  270   0.137   2.740   1.731
   22HOH     H1  271   0.064   2.733   1.669
   22HOH     H2  272   0.107   2.691   1.808
   23HOH      O  273   1.985   0.094   0.411
   23HOH     H1  274   1.988   0.001   0.431
   23HOH     H2  275   1.930   0.131   0.480
   24HOH      O  276   4.003   3.146   2.790
   24HOH     H1  277   4.093   3.123   2.814
   24HOH     H2  278   3.999   3.241   2.805
   25HOH      O  279   1.811   1.512   2.861
   25HOH     H1  280   1.871   1.584   2.841
   25HOH     H2  281   1.832   1.488   2.951
   26HOH      O  282   0.839   2.250   2.982
   26HOH     H1  283   0.791   2.226   2.903
   26HOH     H2  284   0.816   2.182   3.046
   27HOH      O  285   1.065   0.740   1.028
   27HOH     H1  286   1.160   0.746   1.017
   27HOH     H2  287   1.050   0.650   1.056
   28HOH      O  288   2.014   1.474   2.544
   28HOH     H1  289   2.036   1.480   2.637
   28HOH     H2  290   1.920   1.489   2.540
   29HOH      O  291   3.742   3.378   1.002
   29HOH     H1  292   3.777   3.458   1.040
   29HOH     H2  293   3.651   3.374   1.033
   30HOH      O  294   1.296   0.512   0.027
   30HOH     H1  295   1.207   0.537   0.051
   30HOH     H2  296   1.318   0.569  -0.047
   31HOH      O  297   2.405   3.512   3.372
   31HOH     H1  298   2.491   3.540   3.339
   31HOH     H2  299   2.382   3.438   3.317
   32HOH      O  300   0.796   2.498   3.398
   32HOH     H1  301   0.741   2.487   3.320
   32HOH     H2  302   0.752   2.566   3.449
   33HOH      O  303   2.033   2.870   2.040
   33HOH     H1  304   2.025   2.938   1.972
   33HOH     H2  305   2.127   2.851   2.042
   34HOH      O  306   2.901   2.371   3.368
   34HOH     H1  307   2.938   2.315   3.437
   34HOH     H2  308   2.934   2.333   3.286
   35HOH      O  309   3.986   0.345   3.756
   35HOH     H1  310   3.895   0.335   3.787
   35HOH     H2  311   3.977   0.377   3.666
   36HOH      O  312   0.124   2.901   0.360
   36HOH     H1  313   0.134   2.857   0.444
   36HOH     H2  314   0.078   2.838   0.305
   37HOH      O  315   1.441   3.433   2.203
   37HOH     H1  316   1.457   3.481   2.284
   37HOH     H2  317   1.352   3.400   2.212
   38HOH      O  318   1.850   3.380   1.509
   38HOH     H1  319   1.790   3.396   1.436
   38HOH     H2  320   1.795   3.391   1.587
   39HOH      O  321   3.789   0.115   3.611
   39HOH     H1  322   3.755   0.143   3.526
   39HOH     H2  323   3.774   0.191   3.668
   40HOH      O  324   1.857   2.273   3.867
   40HOH     H1  325   1.773   2.305   3.901
   40HOH     H2  326   1.870   2.188   3.910
   41HOH      O  327   3.058   0.606   2.509
   41HOH     H1  328   3.075   0.531   2.565
   41HOH     H2  329   3.145   0.633   2.479
   42HOH      O  330   0.452   1.458   1.238
   42HOH     H1  331   0.414   1.527   1.292
   42HOH     H2  332   0.546   1.462   1.255
   43HOH      O  333   1.386   1.320   1.103
   43HOH     H1  334   1.336   1.339   1.024
   43HOH     H2  335   1.365   1.391   1.163
   44HOH      O  336   2.281   0.489   1.761
   44HOH     H1  337   2.291   0.571   1.809
   44HOH     H2  338   2.332   0.425   1.812
   45HOH      O  339   2.561   0.250   0.161
   45HOH     H1  340   2.467   0.246   0.181
   45HOH     H2  341   2.604   0.234   0.245
   46HOH      O  342   2.712   1.809   3.051
   46HOH     H1  343   2.796   1.791   3.009
   46HOH     H2  344   2.700   1.903   3.041
   47HOH      O  345   1.432   2.972   1.031
   47HOH     H1  346   1.404   2.891   1.074
   47HOH     H2  347   1.457   3.030   1.104
   48HOH      O  348   1.548   3.125   1.299
   48HOH     H1  349   1.563   3.109   1.392
   48HOH     H2  350   1.620   3.183   1.273
   49HOH      O  351   1.027   0.193   0.075
   49HOH     H1  352   1.019   0.272   0.022
   49HOH     H2  353   0.958   0.135   0.041
   50HOH      O  354   0.942   3.078   0.073
   50HOH     H1  355   0.948   3.169   0.045
   50HOH     H2  356   0.865   3.075   0.129
   51HOH      O  357   3.857   1.957   3.174
   51HOH     H1  358   3.886   1.960   3.083
   51HOH     H2  359   3.902   2.030   3.216
   52HOH      O  360   3.385   2.205   2.952
   52HOH     H1  361   3.356   2.246   2.870
   52HOH     H2  362   3.455   2.146   2.926
   53HOH      O  363   3.553   2.162   4.033
   53HOH     H1  364   3.479   2.210   4.069
   53HOH     H2  365   3.582   2.214   3.958
   54HOH      O  366   0.524   2.980   3.892
   54HOH     H1  367   0.495   2.920   3.960
   54HOH     H2  368   0.531   3.065   3.935
   55HOH      O  369   3.971   2.928   0.725
   55HOH     H1  370   3.972   3.000   0.788
   55HOH     H2  371   3.893   2.878   0.748
   56HOH      O  372   0.753   1.607   1.138
   56HOH     H1  373   0.707   1.623   1.055
   56HOH     H2  374   0.845   1.601   1.113
   57HOH      O  375   3.308   2.761   2.144
   57HOH     H1  376   3.393   2.748   2.103
   57HOH     H2  377   3.283   2.674   2.177
   58HOH      O  378   2.329   2.361   3.062
   58HOH     H1  379   2.309   2.318   3.145
   58HOH     H2  380   2.344   2.453   3.086
   59HOH      O  381   1.294   2.606   3.138
   59HOH     H1  382   1.216   2.552   3.128
   59HOH     H2  383   1.277   2.657   3.218
   60HOH      O  384   0.131   2.297   1.527
   60HOH     H1  385   0.176   2.342   1.598
   60HOH     H2  386   0.151   2.204   1.541
   61HOH      O  387   2.788   1.758   1.784
   61HOH     H1  388   2.734   1.834   1.765
   61HOH     H2  389   2.749   1.687   1.733
   62HOH      O  390   2.045   2.665   2.558
   62HOH     H1  391   2.069   2.735   2.620
   62HOH     H2  392   2.049   2.585   2.609
   63HOH      O  393   2.076   2.364   0.118
   63HOH     H1  394   1.989   2.326   0.105
   63HOH     H2  395   2.119   2.306   0.181
   64HOH      O  396   3.313   3.483   2.011
   64HOH     H1  397   3.364   3.504   2.090
   64HOH     H2  398   3.370   3.507   1.939
   65HOH      O  399   2.304   3.188   1.694
   65HOH     H1  400   2.388   3.197   1.739
   65HOH     H2  401   2.239   3.195   1.764
   66HOH      O  402   1.473   2.364   0.860
   66HOH     H1  403   1.389   2.342   0.820
   66HOH     H2  404   1.484   2.299   0.930
   67HOH      O  405   1.429   0.426   2.083
   67HOH     H1  406   1.365   0.367   2.043
   67HOH     H2  407   1.398   0.514   2.062
   68HOH      O  408   1.263   0.643   2.184
   68HOH     H1  409   1.204   0.692   2.127
   68HOH     H2  410   1.206   0.585   2.234
   69HOH      O  411   3.797   0.503   0.411
   69HOH     H1  412   3.742   0.548   0.475
   69HOH     H2  413   3.870   0.468   0.462
   70HOH      O  414   1.379   2.153   1.407
   70HOH     H1  415   1.438   2.188   1.475
   70HOH     H2  416   1.296   2.198   1.422
   71HOH      O  417   2.881   1.170   0.112
   71HOH     H1  418   2.858   1.220   0.033
   71HOH     H2  419   2.922   1.090   0.078
   72HOH      O  420   3.233   3.923   2.995
   72HOH     H1  421   3.276   3.900   2.913
   72HOH     H2  422   3.292   3.891   3.063
   73HOH      O  423   2.200   0.450   2.896
   73HOH     H1  424   2.169   0.436   2.806
   73HOH     H2  425   2.123   0.480   2.944
   74HOH      O  426   2.041   1.263   0.609
   74HOH     H1  427   2.117   1.254   0.665
   74HOH     H2  428   1.970   1.289   0.669
   75HOH      O  429   3.954   3.008   2.215
   75HOH     H1  430   3.972   3.052   2.132
   75HOH     H2  431   3.940   3.079   2.277
   76HOH      O  432   0.651   0.375   1.044
   76HOH     H1  433   0.719   0.309   1.057
   76HOH     H2  434   0.668   0.441   1.110
   77HOH      O  435   2.040   3.652   3.847
   77HOH     H1  436   1.972   3.710   3.881
   77HOH     H2  437   2.083   3.618   3.926
   78HOH      O  438   1.251   1.720   1.458
   78HOH     H1  439   1.323   1.748   1.402
   78HOH     H2  440   1.207   1.801   1.483
   79HOH      O  441   1.358   3.516   0.135
   79HOH     H1  442   1.380   3.530   0.043
   79HOH     H2  443   1.421   3.569   0.183
   80HOH      O  444   2.654   3.821   1.018
   80HOH     H1  445   2.728   3.869   1.055
   80HOH     H2  446   2.694   3.743   0.979
   81HOH      O  447   2.301   1.724   2.685
   81HOH     H1  448   2.246   1.754   2.757
   81HOH     H2  449   2.389   1.720   2.722
   82HOH      O  450   1.850   3.712   0.020
   82HOH     H1  451   1.862   3.768   0.097
   82HOH     H2  452   1.836   3.624   0.055
   83HOH      O  453   0.573   0.793   1.689
   83HOH     H1  454   0.485   0.755   1.687
   83HOH     H2  455   0.618   0.744   1.758
   84HOH      O  456   0.710   3.385   0.054
   84HOH     H1  457   0.787   3.354   0.006
   84HOH     H2  458   0.732   3.368   0.146
   85HOH      O  459   0.573   1.088   0.402
   85HOH     H1  460   0.659   1.073   0.361
   85HOH     H2  461   0.591   1.147   0.475
   86HOH      O  462   2.455   0.469   2.214
   86HOH     H1  463   2.535   0.496   2.259
   86HOH     H2  464   2.412   0.409   2.275
   87HOH      O  465   0.298   3.439   2.033
   87HOH     H1  466   0.246   3.365   2.063
   87HOH     H2  467   0.388   3.407   2.034
   88HOH      O  468   2.481   3.189   3.448
   88HOH     H1  469   2.524   3.271   3.473
   88HOH     H2  470   2.546   3.121   3.466
   89HOH      O  471   2.071   3.586   1.429
   89HOH     H1  472   2.116   3.588   1.344
   89HOH     H2  473   2.067   3.493   1.451
   90HOH      O  474   3.796   1.893   2.547
   90HOH     H1  475   3.746   1.973   2.561
   90HOH     H2  476   3.887   1.921   2.550
   91HOH      O  477   2.680   1.839   0.201
   91HOH     H1  478   2.607   1.901   0.210
   91HOH     H2  479   2.647   1.758   0.239
   92HOH      O  480   1.024   0.841   4.051
   92HOH     H1  481   0.949   0.819   3.996
   92HOH     H2  482   1.073   0.906   4.001
   93HOH      O  483   1.791   1.191   0.488
   93HOH     H1  484   1.886   1.188   0.502
   93HOH     H2  485   1.766   1.098   0.481
   94HOH      O  486   3.749   2.344   3.193
   94HOH     H1  487   3.806   2.268   3.204
   94HOH     H2  488   3.742   2.356   3.098
   95HOH      O  489   2.086   0.703   3.290
   95HOH     H1  490   2.155   0.743   3.342
   95HOH     H2  491   2.010   0.701   3.349
   96HOH      O  492   3.203   2.471   1.233
   96HOH     H1  493   3.167   2.538   1.291
   96HOH     H2  494   3.211   2.514   1.148
   97HOH      O  495   1.331   2.955   1.925
   97HOH     H1  496   1.310   2.865   1.897
   97HOH     H2  497   1.378   2.944   2.008
   98HOH      O  498   2.079   1.769   2.211
   98HOH     H1  499   1.994   1.727   2.227
   98HOH     H2  500   2.133   1.742   2.285
   99HOH      O  501   1.234   1.494   3.344
   99HOH     H1  502   1.156   1.525   3.391
   99HOH     H2  503   1.232   1.399   3.355
  100HOH      O  504   3.311   3.912   3.986
  100HOH     H1  505   3.320   3.898   3.892
  100HOH     H2  506   3.400   3.905   4.020
  101HOH      O  507   1.863   1.732   0.837
  101HOH     H1  508   1.795   1.751   0.772
  101HOH     H2  509   1.894   1.818   0.865
  102HOH      O  510   1.494   3.083   0.266
  102HOH     H1  511   1.446   3.003   0.287
  102HOH     H2  512   1.583   3.054   0.246
  103HOH      O  513   0.566   0.340   3.854
  103HOH     H1  514   0.599   0.387   3.931
  103HOH     H2  515   0.556   0.249   3.884
  104HOH      O  516   0.476   2.020   3.297
  104HOH     H1  517   0.417   2.068   3.239
  104HOH     H2  518   0.467   1.928   3.271
  105HOH      O  519   2.058   1.100   2.417
  105HOH     H1  520   2.040   1.093   2.511
  105HOH     H2  521   2.096   1.187   2.406
  106HOH      O  522   3.557   0.798   2.086
  106HOH     H1  523   3.498   0.872   2.100
  106HOH     H2  524   3.617   0.801   2.161
  107HOH      O  525   0.250   2.802   2.631
  107HOH     H1  526   0.243   2.750   2.711
  107HOH     H2  527   0.337   2.782   2.596
  108HOH      O  528   1.331   1.918   3.423
  108HOH     H1  529   1.263   1.981   3.402
  108HOH     H2  530   1.379   1.907   3.341
  109HOH      O  531   1.911   0.087   2.832
  109HOH     H1  532   1.957   0.118   2.909
  109HOH     H2  533   1.854   0.160   2.807
  110HOH      O  534   2.154   0.003   3.381
  110HOH     H1  535   2.244   0.033   3.386
  110HOH     H2  536   2.103   0.083   3.366
  111HOH      O  537   3.511   0.008   1.446
  111HOH     H1  538   3.448   0.074   1.474
  111HOH     H2  539   3.552   0.045   1.368
  112HOH      O  540   0.257   1.184   3.967
  112HOH     H1  541   0.344   1.178   4.008
  112HOH     H2  542   0.196   1.185   4.041
  113HOH      O  543   2.207   3.862   2.406
  113HOH     H1  544   2.245   3.926   2.346
  113HOH     H2  545   2.131   3.906   2.444
  114HOH      O  546   0.604   0.630   1.230
  114HOH     H1  547   0.533   0.576   1.265
  114HOH     H2  548   0.581   0.643   1.138
  115HOH      O  549   0.047   0.460   2.610
  115HOH     H1  550   0.033   0.442   2.517
  115HOH     H2  551   0.125   0.516   2.612
  116HOH      O  552   2.383   2.474   0.784
  116HOH     H1  553   2.295   2.459   0.819
  116HOH     H2  554   2.372   2.543   0.719
  117HOH      O  555   3.133   3.393   0.615
  117HOH     H1  556   3.126   3.344   0.533
  117HOH     H2  557   3.053   3.444   0.620
  118HOH      O  558   0.139   2.779   0.633
  118HOH     H1  559   0.216   2.782   0.690
  118HOH     H2  560   0.077   2.840   0.674
  119HOH      O  561   2.368   2.009   3.078
  119HOH     H1  562   2.363   2.069   3.004
  119HOH     H2  563   2.277   1.994   3.104
  120HOH      O  564   1.805   3.504   2.991
  120HOH     H1  565   1.897   3.477   2.985
  120HOH     H2  566   1.798   3.545   3.077
  121HOH      O  567   0.329   2.001   3.816
  121HOH     H1  568   0.391   2.028   3.748
  121HOH     H2  569   0.322   1.906   3.805
  122HOH      O  570   1.759   2.729   2.026
  122HOH     H1  571   1.747   2.824   2.017
  122HOH     H2  572   1.790   2.717   2.115
  123HOH      O  573   3.735   1.874   3.811
  123HOH     H1  574   3.668   1.820   3.854
  123HOH     H2  575   3.723   1.858   3.718
  124HOH      O  576   0.274   1.531   0.246
  124HOH     H1  577   0.189   1.504   0.211
  124HOH     H2  578   0.327   1.451   0.244
  125HOH      O  579   2.308   2.407   0.387
  125HOH     H1  580   2.294   2.324   0.342
  125HOH     H2  581   2.293   2.386   0.480
  126HOH      O  582   1.544   3.123   3.415
  126HOH     H1  583   1.527   3.091   3.504
  126HOH     H2  584   1.624   3.174   3.423
  127HOH      O  585   0.174   1.614   1.262
  127HOH     H1  586   0.256   1.643   1.302
  127HOH     H2  587   0.136   1.693   1.224
  128HOH      O  588   0.227   3.847   0.416
  128HOH     H1  589   0.199   3.814   0.330
  128HOH     H2  590   0.192   3.784   0.478
  129HOH      O  591   0.647   0.375   1.780
  129HOH     H1  592   0.555   0.362   1.805
  129HOH     H2  593   0.674   0.452   1.830
  130HOH      O  594   1.221   0.103   2.340
  130HOH     H1  595   1.285   0.173   2.328
  130HOH     H2  596   1.231   0.048   2.262
  131HOH      O  597   0.156   0.927   3.984
  131HOH     H1  598   0.224   0.862   3.970
  131HOH     H2  599   0.200   1.011   3.971
  132HOH      O  600   2.067   3.259   2.094
  132HOH     H1  601   2.083   3.322   2.165
  132HOH     H2  602   2.025   3.185   2.136
  133HOH      O  603   2.290   2.832   1.916
  133HOH     H1  604   2.317   2.836   1.824
  133HOH     H2  605   2.372   2.828   1.965
  134HOH      O  606   0.846   0.735   3.087
  134HOH     H1  607   0.826   0.761   2.997
  134HOH     H2  608   0.832   0.814   3.139
  135HOH      O  609   2.402   1.257   4.030
  135HOH     H1  610   2.375   1.323   3.966
  135HOH     H2  611   2.483   1.290   4.067
  136HOH      O  612   0.269   1.275   2.228
  136HOH     H1  613   0.260   1.349   2.287
  136HOH     H2  614   0.198   1.216   2.253
  137HOH      O  615   3.962   0.176   3.064
  137HOH     H1  616   3.993   0.112   3.128
  137HOH     H2  617   3.869   0.186   3.083
  138HOH      O  618   1.158   3.063   1.585
  138HOH     H1  619   1.128   3.046   1.675
  138HOH     H2  620   1.224   2.995   1.570
  139HOH      O  621   3.874   3.026   0.463
  139HOH     H1  622   3.782   3.012   0.484
  139HOH     H2  623   3.921   2.962   0.516
  140HOH      O  624   1.913   3.310   2.684
  140HOH     H1  625   1.842   3.261   2.643
  140HOH     H2  626   1.871   3.362   2.752
  141HOH      O  627   0.328   3.635   2.519
  141HOH     H1  628   0.349   3.595   2.604
  141HOH     H2  629   0.315   3.561   2.460
  142HOH      O  630   0.739   0.535   2.223
  142HOH     H1  631   0.677   0.584   2.277
  142HOH     H2  632   0.692   0.455   2.199
  143HOH      O  633   0.619   2.817   0.938
  143HOH     H1  634   0.595   2.733   0.978
  143HOH     H2  635   0.664   2.793   0.857
  144HOH      O  636   3.131   0.949   1.428
  144HOH     H1  637   3.215   0.994   1.419
  144HOH     H2  638   3.104   0.967   1.518
  145HOH      O  639   0.804   2.245   0.926
  145HOH     H1  640   0.797   2.150   0.935
  145HOH     H2  641   0.898   2.262   0.928
  146HOH      O  642   2.892   0.652   3.838
  146HOH     H1  643   2.983   0.670   3.862
  146HOH     H2  644   2.893   0.563   3.804
  147HOH      O  645   3.105   3.118   3.435
  147HOH     H1  646   3.167   3.050   3.409
  147HOH     H2  647   3.144   3.200   3.403
  148HOH      O  648   3.207   1.922   3.314
  148HOH     H1  649   3.178   1.837   3.281
  148HOH     H2  650   3.229   1.906   3.406
  149HOH      O  651   2.481   3.097   1.021
  149HOH     H1  652   2.480   3.065   1.111
  149HOH     H2  653   2.391   3.126   1.006
  150HOH      O  654   0.497   3.373   3.356
  150HOH     H1  655   0.513   3.365   3.262
  150HOH     H2  656   0.477   3.465   3.369
  151HOH      O  657   1.285   0.555   1.866
  151HOH     H1  658   1.231   0.622   1.909
  151HOH     H2  659   1.355   0.605   1.823
  152HOH      O  660   2.065   3.883   1.502
  152HOH     H1  661   2.066   3.802   1.451
  152HOH     H2  662   2.033   3.858   1.588
  153HOH      O  663   1.896   2.105   0.525
  153HOH     H1  664   1.863   2.099   0.615
  153HOH     H2  665   1.935   2.019   0.509
  154HOH      O  666   0.767   2.785   1.440
  154HOH     H1  667   0.795   2.701   1.475
  154HOH     H2  668   0.825   2.800   1.365
  155HOH      O  669   1.641   2.391   3.996
  155HOH     H1  670   1.592   2.313   3.970
  155HOH     H2  671   1.580   2.440   4.051
  156HOH      O  672   0.488   2.587   1.166
  156HOH     H1  673   0.520   2.515   1.111
  156HOH     H2  674   0.534   2.575   1.249
  157HOH      O  675   4.017   1.198   2.424
  157HOH     H1  676   4.037   1.290   2.410
  157HOH     H2  677   4.068   1.152   2.358
  158HOH      O  678   2.471   3.631   0.601
  158HOH     H1  679   2.482   3.726   0.594
  158HOH     H2  680   2.435   3.605   0.516
  159HOH      O  681   0.851   0.434   2.458
  159HOH     H1  682   0.798   0.357   2.480
  159HOH     H2  683   0.834   0.449   2.365
  160HOH      O  684   0.097   3.875   0.729
  160HOH     H1  685   0.147   3.937   0.782
  160HOH     H2  686   0.020   3.923   0.702
  161HOH      O  687   3.855   0.286   2.388
  161HOH     H1  688   3.950   0.289   2.397
  161HOH     H2  689   3.840   0.304   2.295
  162HOH      O  690   3.780   2.124   1.042
  162HOH     H1  691   3.845   2.194   1.042
  162HOH     H2  692   3.830   2.044   1.023
  163HOH      O  693   0.202   0.575   1.988
  163HOH     H1  694   0.243   0.519   1.922
  163HOH     H2  695   0.113   0.539   1.997
  164HOH      O  696   1.039   0.624   3.760
  164HOH     H1  697   1.041   0.549   3.700
  164HOH     H2  698   1.097   0.689   3.719
  165HOH      O  699   3.669   3.485   0.759
  165HOH     H1  700   3.682   3.428   0.834
  165HOH     H2  701   3.700   3.571   0.788
  166HOH      O  702   1.720   0.014   2.578
  166HOH     H1  703   1.701   0.078   2.510
  166HOH     H2  704   1.670   0.044   2.654
  167HOH      O  705   2.578   3.535   1.577
  167HOH     H1  706   2.660   3.581   1.595
  167HOH     H2  707   2.511   3.604   1.580
  168HOH      O  708   2.941   0.396   1.605
  168HOH     H1  709   2.855   0.438   1.605
  168HOH     H2  710   2.936   0.331   1.534
  169HOH      O  711   0.660   0.104   1.748
  169HOH     H1  712   0.683   0.196   1.762
  169HOH     H2  713   0.622   0.102   1.660
  170HOH      O  714   2.352   1.308   3.593
  170HOH     H1  715   2.343   1.325   3.687
  170HOH     H2  716   2.444   1.326   3.573
  171HOH      O  717   0.802   1.763   3.072
  171HOH     H1  718   0.769   1.767   2.983
  171HOH     H2  719   0.727   1.737   3.125
  172HOH      O  720   1.244   0.479   2.617
  172HOH     H1  721   1.314   0.535   2.651
  172HOH     H2  722   1.210   0.434   2.694
  173HOH      O  723   3.443   1.942   0.129
  173HOH     H1  724   3.396   1.923   0.210
  173HOH     H2  725   3.455   2.037   0.131
  174HOH      O  726   3.642   3.260   1.533
  174HOH     H1  727   3.660   3.236   1.442
  174HOH     H2  728   3.547   3.268   1.537
  175HOH      O  729   0.495   2.589   0.775
  175HOH     H1  730   0.573   2.623   0.730
  175HOH     H2  731   0.529   2.523   0.835
  176HOH      O  732   0.746   0.661   2.592
  176HOH     H1  733   0.691   0.702   2.525
  176HOH     H2  734   0.800   0.598   2.545
  177HOH      O  735   3.503   0.196   2.710
  177HOH     H1  736   3.486   0.104   2.690
  177HOH     H2  737   3.553   0.228   2.635
  178HOH      O  738   0.685   2.635   3.611
  178HOH     H1  739   0.702   2.681   3.694
  178HOH     H2  740   0.594   2.606   3.619
  179HOH      O  741   0.423  -0.025   3.442
  179HOH     H1  742   0.422   0.034   3.518
  179HOH     H2  743   0.433   0.034   3.367
  180HOH      O  744   2.375   0.983   4.000
  180HOH     H1  745   2.409   0.961   4.087
  180HOH     H2  746   2.403   1.074   3.985
  181HOH      O  747   0.791   2.642   2.395
  181HOH     H1  748   0.728   2.638   2.323
  181HOH     H2  749   0.791   2.553   2.431
  182HOH      O  750   1.903   1.067   2.669
  182HOH     H1  751   1.905   1.162   2.679
  182HOH     H2  752   1.810   1.045   2.674
  183HOH      O  753   0.287   0.289   0.186
  183HOH     H1  754   0.225   0.239   0.133
  183HOH     H2  755   0.373   0.256   0.158
  184HOH      O  756   2.048   2.734   3.091
  184HOH     H1  757   2.015   2.668   3.030
  184HOH     H2  758   1.981   2.739   3.159
  185HOH      O  759   2.602   1.046   3.255
  185HOH     H1  760   2.654   1.068   3.333
  185HOH     H2  761   2.574   0.956   3.269
  186HOH      O  762   2.685   2.275   3.213
  186HOH     H1  763   2.659   2.340   3.148
  186HOH     H2  764   2.744   2.322   3.272
  187HOH      O  765   1.348   0.586   3.095
  187HOH     H1  766   1.269   0.618   3.138
  187HOH     H2  767   1.384   0.662   3.050
  188HOH      O  768   3.429   3.942   2.727
  188HOH     H1  769   3.357   3.920   2.668
  188HOH     H2  770   3.505   3.896   2.691
  189HOH      O  771   2.174   1.083   3.557
  189HOH     H1  772   2.244   1.127   3.509
  189HOH     H2  773   2.145   1.147   3.622
  190HOH      O  774   1.416   1.219   2.398
  190HOH     H1  775   1.388   1.271   2.474
  190HOH     H2  776   1.335   1.184   2.362
  191HOH      O  777   0.826   4.041   0.052
  191HOH     H1  778   0.790   4.012  -0.032
  191HOH     H2  779   0.775   3.993   0.118
  192HOH      O  780   0.401   3.004   3.009
  192HOH     H1  781   0.476   3.032   3.062
  192HOH     H2  782   0.324   3.034   3.058
  193HOH      O  783   0.659   2.588   1.819
  193HOH     H1  784   0.626   2.603   1.731
  193HOH     H2  785   0.617   2.506   1.847
  194HOH      O  786   3.683   3.241   3.760
  194HOH     H1  787   3.657   3.209   3.847
  194HOH     H2  788   3.779   3.233   3.759
  195HOH      O  789   1.224   1.020   2.307
  195HOH     H1  790   1.231   1.004   2.401
  195HOH     H2  791   1.132   1.003   2.286
  196HOH      O  792   0.724   1.034   3.972
  196HOH     H1  793   0.751   0.955   4.019
  196HOH     H2  794   0.794   1.097   3.987
  197HOH      O  795   3.856   1.321   1.905
  197HOH     H1  796   3.875   1.252   1.842
  197HOH     H2  797   3.939   1.333   1.952
  198HOH      O  798   0.959   2.531   0.077
  198HOH     H1  799   0.889   2.573   0.026
  198HOH     H2  800   0.954   2.439   0.053
  199HOH      O  801   2.747   1.967   3.964
  199HOH     H1  802   2.732   1.909   4.039
  199HOH     H2  803   2.660   1.976   3.924
  200HOH      O  804   3.180   2.478   0.484
  200HOH     H1  805   3.087   2.473   0.507
  200HOH     H2  806   3.179   2.490   0.389
  201HOH      O  807   2.051   3.155   3.059
  201HOH     H1  808   2.038   3.123   3.148
  201HOH     H2  809   2.073   3.077   3.008
  202HOH      O  810   1.954   2.242   1.491
  202HOH     H1  811   1.911   2.170   1.536
  202HOH     H2  812   1.972   2.306   1.560
  203HOH      O  813   0.803   0.621   1.814
  203HOH     H1  814   0.877   0.586   1.765
  203HOH     H2  815   0.842   0.660   1.892
  204HOH      O  816   2.140   2.905   2.904
  204HOH     H1  817   2.099   2.856   2.975
  204HOH     H2  818   2.229   2.923   2.935
  205HOH      O  819   0.214   2.992   2.024
  205HOH     H1  820   0.124   2.978   1.995
  205HOH     H2  821   0.264   2.998   1.943
  206HOH      O  822   2.422   2.426   1.675
  206HOH     H1  823   2.364   2.477   1.619
  206HOH     H2  824   2.365   2.359   1.713
  207HOH      O  825   3.494   2.978   0.161
  207HOH     H1  826   3.547   2.899   0.146
  207HOH     H2  827   3.539   3.024   0.232
  208HOH      O  828   2.929   2.108   0.227
  208HOH     H1  829   2.880   2.155   0.160
  208HOH     H2  830   2.872   2.109   0.304
  209HOH      O  831   2.915   0.753   3.173
  209HOH     H1  832   2.844   0.721   3.229
  209HOH     H2  833   2.968   0.675   3.154
  210HOH      O  834   1.511   2.181   3.952
  210HOH     H1  835   1.416   2.179   3.958
  210HOH     H2  836   1.539   2.093   3.979
  211HOH      O  837   3.603   3.648   1.607
  211HOH     H1  838   3.669   3.663   1.540
  211HOH     H2  839   3.523   3.684   1.570
  212HOH      O  840   2.730   0.970   1.229
  212HOH     H1  841   2.679   0.932   1.157
  212HOH     H2  842   2.668   0.978   1.301
  213HOH      O  843   1.208   1.697   0.579
  213HOH     H1  844   1.124   1.669   0.616
  213HOH     H2  845   1.186   1.774   0.528
  214HOH      O  846   0.519   3.468   1.680
  214HOH     H1  847   0.444   3.410   1.678
  214HOH     H2  848   0.516   3.515   1.597
  215HOH      O  849   2.638   1.421   3.986
  215HOH     H1  850   2.672   1.349   3.933
  215HOH     H2  851   2.705   1.489   3.978
  216HOH      O  852   2.884   0.259   0.383
  216HOH     H1  853   2.852   0.170   0.371
  216HOH     H2  854   2.806   0.311   0.399
  217HOH      O  855   0.650   2.190   0.695
  217HOH     H1  856   0.598   2.121   0.736
  217HOH     H2  857   0.716   2.213   0.761
  218HOH      O  858   3.016   1.751   1.480
  218HOH     H1  859   3.043   1.737   1.570
  218HOH     H2  860   2.921   1.734   1.480
  219HOH      O  861   2.503   3.807   2.031
  219HOH     H1  862   2.453   3.735   1.992
  219HOH     H2  863   2.467   3.886   1.990
  220HOH      O  864   2.361   1.171   3.325
  220HOH     H1  865   2.417   1.173   3.402
  220HOH     H2  866   2.406   1.113   3.264
  221HOH      O  867   3.248   0.395   3.468
  221HOH     H1  868   3.223   0.409   3.559
  221HOH     H2  869   3.222   0.476   3.423
  222HOH      O  870   2.007   2.027   2.601
  222HOH     H1  871   2.053   1.943   2.614
  222HOH     H2  872   2.055   2.088   2.657
  223HOH      O  873   2.367   3.942   0.116
  223HOH     H1  874   2.422   3.960   0.040
  223HOH     H2  875   2.315   4.022   0.128
  224HOH      O  876   3.025   1.408   2.716
  224HOH     H1  877   2.999   1.415   2.808
  224HOH     H2  878   2.953   1.361   2.674
  225HOH      O  879   2.420   3.348   2.488
  225HOH     H1  880   2.423   3.414   2.557
  225HOH     H2  881   2.485   3.377   2.424
  226HOH      O  882   3.514   2.478   3.566
  226HOH     H1  883   3.598   2.434   3.552
  226HOH     H2  884   3.474   2.430   3.638
  227HOH      O  885   2.345   0.634   2.518
  227HOH     H1  886   2.363   0.716   2.471
  227HOH     H2  887   2.309   0.576   2.452
  228HOH      O  888   0.423   1.358   1.729
  228HOH     H1  889   0.493   1.311   1.683
  228HOH     H2  890   0.423   1.321   1.817
  229HOH      O  891   2.552   0.604   3.663
  229HOH     H1  892   2.609   0.529   3.681
  229HOH     H2  893   2.474   0.565   3.623
  230HOH      O  894   0.066   1.211   0.137
  230HOH     H1  895   0.058   1.203   0.232
  230HOH     H2  896  -0.004   1.155   0.103
  231HOH      O  897   0.949   3.973   0.515
  231HOH     H1  898   0.971   3.907   0.581
  231HOH     H2  899   1.014   3.961   0.446
  232HOH      O  900   0.476   3.763   3.263
  232HOH     H1  901   0.476   3.751   3.168
  232HOH     H2  902   0.478   3.857   3.275
  233HOH      O  903   1.126   2.484   1.557
  233HOH     H1  904   1.140   2.579   1.550
  233HOH     H2  905   1.178   2.457   1.632
  234HOH      O  906   2.940   2.759   2.280
  234HOH     H1  907   2.878   2.703   2.328
  234HOH     H2  908   3.000   2.790   2.348
  235HOH      O  909   2.397   2.123   2.552
  235HOH     H1  910   2.312   2.167   2.554
  235HOH     H2  911   2.387   2.055   2.484
  236HOH      O  912   3.377   0.780   4.024
  236HOH     H1  913   3.380   0.875   4.016
  236HOH     H2  914   3.468   0.754   4.036
  237HOH      O  915   1.953   3.559   2.239
  237HOH     H1  916   1.982   3.589   2.325
  237HOH     H2  917   1.879   3.502   2.257
  238HOH      O  918   1.530   0.316   3.386
  238HOH     H1  919   1.590   0.265   3.441
  238HOH     H2  920   1.446   0.312   3.434
  239HOH      O  921   1.575   2.720   1.803
  239HOH     H1  922   1.483   2.705   1.826
  239HOH     H2  923   1.618   2.737   1.887
  240HOH      O  924   2.566   2.611   1.794
  240HOH     H1  925   2.526   2.543   1.740
  240HOH     H2  926   2.559   2.579   1.884
  241HOH      O  927   0.140   0.948   2.666
  241HOH     H1  928   0.209   0.970   2.603
  241HOH     H2  929   0.080   0.893   2.616
  242HOH      O  930   0.594   0.889   0.990
  242HOH     H1  931   0.670   0.894   0.932
  242HOH     H2  932   0.561   0.800   0.979
  243HOH      O  933   2.176   2.149   0.243
  243HOH     H1  934   2.232   2.100   0.183
  243HOH     H2  935   2.194   2.111   0.329
  244HOH      O  936   3.699   2.870   0.802
  244HOH     H1  937   3.682   2.948   0.854
  244HOH     H2  938   3.665   2.891   0.715
  245HOH      O  939   3.526   3.457   0.128
  245HOH     H1  940   3.532   3.380   0.186
  245HOH     H2  941   3.502   3.529   0.187
  246HOH      O  942   0.547   0.509   2.741
  246HOH     H1  943   0.602   0.581   2.711
  246HOH     H2  944   0.568   0.437   2.682
  247HOH      O  945   2.360   1.722   0.197
  247HOH     H1  946   2.346   1.736   0.104
  247HOH     H2  947   2.427   1.654   0.202
  248HOH      O  948   2.728   4.059   0.668
  248HOH     H1  949   2.659   3.995   0.685
  248HOH     H2  950   2.734   4.063   0.573
  249HOH      O  951   1.000   3.032   3.681
  249HOH     H1  952   0.976   2.943   3.656
  249HOH     H2  953   1.085   3.023   3.723
  250HOH      O  954   2.313   0.757   3.110
  250HOH     H1  955   2.301   0.743   3.016
  250HOH     H2  956   2.224   0.753   3.146
  251HOH      O  957   2.990   3.636   2.919
  251HOH     H1  958   2.961   3.714   2.872
  251HOH     H2  959   3.018   3.576   2.851
  252HOH      O  960   1.189   2.726   1.578
  252HOH     H1  961   1.124   2.781   1.621
  252HOH     H2  962   1.257   2.787   1.549
  253HOH      O  963   0.378   2.060   0.041
  253HOH     H1  964   0.290   2.026   0.059
  253HOH     H2  965   0.378   2.077  -0.053
  254HOH      O  966   3.613   0.857   0.951
  254HOH     H1  967   3.686   0.919   0.959
  254HOH     H2  968   3.576   0.853   1.040
  255HOH      O  969   2.209   3.243   3.362
  255HOH     H1  970   2.163   3.166   3.329
  255HOH     H2  971   2.289   3.208   3.402
  256HOH      O  972   2.969   2.735   0.006
  256HOH     H1  973   2.995   2.734   0.098
  256HOH     H2  974   3.044   2.772  -0.040
  257HOH      O  975   3.676   0.728   1.303
  257HOH     H1  976   3.624   0.658   1.343
  257HOH     H2  977   3.613   0.798   1.286
  258HOH      O  978   3.696   0.161   3.102
  258HOH     H1  979   3.658   0.249   3.096
  258HOH     H2  980   3.633   0.105   3.056
  259HOH      O  981   2.920   3.693   1.111
  259HOH     H1  982   2.869   3.704   1.192
  259HOH     H2  983   2.864   3.640   1.054
  260HOH      O  984   0.406   0.247   0.618
  260HOH     H1  985   0.363   0.165   0.596
  260HOH     H2  986   0.455   0.229   0.698
  261HOH      O  987   3.582   1.868   0.778
  261HOH     H1  988   3.676   1.868   0.762
  261HOH     H2  989   3.551   1.948   0.734
  262HOH      O  990   1.763   1.314   2.691
  262HOH     H1  991   1.765   1.379   2.762
  262HOH     H2  992   1.671   1.310   2.665
  263HOH      O  993   2.511   3.455   0.806
  263HOH     H1  994   2.525   3.524   0.741
  263HOH     H2  995   2.493   3.376   0.754
  264HOH      O  996   0.060  -0.005   2.241
  264HOH     H1  997   0.086  -0.001   2.332
  264HOH     H2  998   0.138   0.019   2.192
  265HOH      O  999   3.113   3.349   1.780
  265HOH     H1 1000   3.057   3.359   1.857
  265HOH     H2 1001   3.053   3.332   1.708
  266HOH      O 1002   0.406   1.657   0.432
  266HOH     H1 1003   0.354   1.607   0.369
  266HOH     H2 1004   0.443   1.591   0.490
  267HOH      O 1005   3.923   2.311   1.426
  267HOH     H1 1006   4.016   2.314   1.445
  267HOH     H2 1007   3.881   2.315   1.512
  268HOH      O 1008   1.027   1.307   1.296
  268HOH     H1 1009   1.049   1.299   1.388
  268HOH     H2 1010   1.063   1.227   1.256
  269HOH      O 1011   2.273   0.327   1.527
  269HOH     H1 1012   2.201   0.271   1.555
  269HOH     H2 1013   2.271   0.401   1.588
  270HOH      O 1014   3.836   0.596   0.139
  270HOH     H1 1015   3.926   0.626   0.130
  270HOH     H2 1016   3.832   0.560   0.228
  271HOH      O 1017   3.756   2.593   0.925
  271HOH     H1 1018   3.763   2.532   0.851
  271HOH     H2 1019   3.733   2.677   0.884
  272HOH      O 1020   2.940   0.880   2.661
  272HOH     H1 1021   3.019   0.913   2.619
  272HOH     H2 1022   2.965   0.794   2.696
  273HOH      O 1023   0.149   2.786   3.045
  273HOH     H1 1024   0.139   2.724   2.972
  273HOH     H2 1025   0.098   2.863   3.017
  274HOH      O 1026   1.619   3.632   3.927
  274HOH     H1 1027   1.653   3.550   3.892
  274HOH     H2 1028   1.692   3.670   3.976
  275HOH      O 1029   2.605   3.863   2.275
  275HOH     H1 1030   2.543   3.813   2.327
  275HOH     H2 1031   2.582   3.844   2.184
  276HOH      O 1032   3.266   3.884   3.419
  276HOH     H1 1033   3.270   3.873   3.514
  276HOH     H2 1034   3.228   3.971   3.407
  277HOH      O 1035   0.262   3.261   1.722
  277HOH     H1 1036   0.235   3.303   1.803
  277HOH     H2 1037   0.267   3.168   1.742
  278HOH      O 1038   2.725   2.590   3.415
  278HOH     H1 1039   2.793   2.529   3.382
  278HOH     H2 1040   2.732   2.584   3.510
  279HOH      O 1041   1.987   2.540   2.161
  279HOH     H1 1042   1.937   2.584   2.230
  279HOH     H2 1043   2.071   2.585   2.160
  280HOH      O 1044   2.567   3.453   1.854
  280HOH     H1 1045   2.558   3.475   1.762
  280HOH     H2 1046   2.628   3.379   1.856
  281HOH      O 1047   2.320   2.363   1.066
  281HOH     H1 1048   2.360   2.277   1.077
  281HOH     H2 1049   2.266   2.375   1.144
  282HOH      O 1050   3.586   3.979   2.147
  282HOH     H1 1051   3.572   4.050   2.210
  282HOH     H2 1052   3.673   3.946   2.167
  283HOH      O 1053   0.261   3.525   3.506
  283HOH     H1 1054   0.310   3.598   3.545
  283HOH     H2 1055   0.221   3.562   3.428
  284HOH      O 1056   0.656   3.126   3.664
  284HOH     H1 1057   0.619   3.151   3.748
  284HOH     H2 1058   0.734   3.075   3.687
  285HOH      O 1059   3.524   1.514   0.885
  285HOH     H1 1060   3.447   1.479   0.840
  285HOH     H2 1061   3.489   1.583   0.942
  286HOH      O 1062   3.333   0.957   0.663
  286HOH     H1 1063   3.371   0.871   0.678
  286HOH     H2 1064   3.257   0.960   0.721
  287HOH      O 1065   2.786   2.150   1.982
  287HOH     H1 1066   2.843   2.211   1.935
  287HOH     H2 1067   2.778   2.075   1.923
  288HOH      O 1068   2.546   3.210   2.184
  288HOH     H1 1069   2.568   3.284   2.240
  288HOH     H2 1070   2.587   3.135   2.226
  289HOH      O 1071   3.690   0.714   2.328
  289HOH     H1 1072   3.731   0.782   2.381
  289HOH     H2 1073   3.635   0.665   2.389
  290HOH      O 1074   0.117   3.673   3.053
  290HOH     H1 1075   0.172   3.701   2.980
  290HOH     H2 1076   0.180   3.648   3.121
  291HOH      O 1077   1.623   3.527   1.590
  291HOH     H1 1078   1.633   3.494   1.679
  291HOH     H2 1079   1.694   3.590   1.579
  292HOH      O 1080   2.289   0.480   3.868
  292HOH     H1 1081   2.248   0.540   3.806
  292HOH     H2 1082   2.327   0.537   3.934
  293HOH      O 1083   0.007   0.755   0.156
  293HOH     H1 1084   0.080   0.712   0.112
  293HOH     H2 1085  -0.022   0.822   0.095
  294HOH      O 1086   1.745   1.970   1.329
  294HOH     H1 1087   1.795   1.888   1.323
  294HOH     H2 1088   1.769   2.006   1.415
  295HOH      O 1089   4.028   1.890   0.464
  295HOH     H1 1090   3.952   1.877   0.521
  295HOH     H2 1091   4.020   1.821   0.398
  296HOH      O 1092   1.078   1.015   1.197
  296HOH     H1 1093   0.994   1.018   1.243
  296HOH     H2 1094   1.069   0.941   1.137
  297HOH      O 1095   2.095   3.908   1.983
  297HOH     H1 1096   2.099   3.828   2.035
  297HOH     H2 1097   2.004   3.938   1.992
  298HOH      O 1098   1.914   1.030   1.435
  298HOH     H1 1099   1.862   0.950   1.441
  298HOH     H2 1100   2.001   1.004   1.465
  299HOH      O 1101   1.328   0.677   3.864
  299HOH     H1 1102   1.399   0.705   3.806
  299HOH     H2 1103   1.249   0.686   3.812
  300HOH      O 1104   4.003   0.427   0.769
  300HOH     H1 1105   4.068   0.357   0.772
  300HOH     H2 1106   4.038   0.495   0.827
  301HOH      O 1107   1.749   1.885   3.098
  301HOH     H1 1108   1.830   1.862   3.143
  301HOH     H2 1109   1.776   1.942   3.026
  302HOH      O 1110   1.607   2.338   0.511
  302HOH     H1 1111   1.670   2.283   0.464
  302HOH     H2 1112   1.548   2.276   0.553
  303HOH      O 1113   1.040   3.555   3.741
  303HOH     H1 1114   1.044   3.622   3.810
  303HOH     H2 1115   0.984   3.593   3.674
  304HOH      O 1116   2.156   1.238   1.287
  304HOH     H1 1117   2.137   1.245   1.380
  304HOH     H2 1118   2.070   1.241   1.245
  305HOH      O 1119   2.384   1.976   3.548
  305HOH     H1 1120   2.357   2.008   3.462
  305HOH     H2 1121   2.322   1.906   3.568
  306HOH      O 1122   3.430   0.477   0.061
  306HOH     H1 1123   3.461   0.562   0.028
  306HOH     H2 1124   3.476   0.467   0.145
  307HOH      O 1125   2.246   2.355   2.575
  307HOH     H1 1126   2.151   2.347   2.565
  307HOH     H2 1127   2.257   2.406   2.655
  308HOH      O 1128   1.299   2.674   1.833
  308HOH     H1 1129   1.272   2.671   1.741
  308HOH     H2 1130   1.262   2.595   1.871
  309HOH      O 1131   2.961   0.907   0.046
  309HOH     H1 1132   2.975   0.901   0.141
  309HOH     H2 1133   3.023   0.844   0.009
  310HOH      O 1134   0.184   0.412   3.148
  310HOH     H1 1135   0.158   0.369   3.229
  310HOH     H2 1136   0.220   0.496   3.175
  311HOH      O 1137   0.455   3.557   3.008
  311HOH     H1 1138   0.499   3.472   3.022
  311HOH     H2 1139   0.439   3.560   2.914
  312HOH      O 1140   0.548   3.602   0.047
  312HOH     H1 1141   0.526   3.609   0.140
  312HOH     H2 1142   0.593   3.517   0.040
  313HOH      O 1143   2.399   1.985   2.305
  313HOH     H1 1144   2.331   2.006   2.241
  313HOH     H2 1145   2.443   1.909   2.268
  314HOH      O 1146   0.997   0.136   1.567
  314HOH     H1 1147   0.944   0.057   1.571
  314HOH     H2 1148   0.975   0.184   1.647
  315HOH      O 1149   1.356   1.305   1.610
  315HOH     H1 1150   1.270   1.284   1.573
  315HOH     H2 1151   1.339   1.315   1.704
  316HOH      O 1152   3.533   3.641   3.730
  316HOH     H1 1153   3.454   3.591   3.709
  316HOH     H2 1154   3.557   3.612   3.818
  317HOH      O 1155   0.190   3.143   3.798
  317HOH     H1 1156   0.160   3.056   3.775
  317HOH     H2 1157   0.268   3.158   3.744
  318HOH      O 1158   0.425   3.077   1.139
  318HOH     H1 1159   0.499   3.089   1.080
  318HOH     H2 1160   0.452   3.006   1.198
  319HOH      O 1161   1.387   2.100   0.915
  319HOH     H1 1162   1.464   2.055   0.951
  319HOH     H2 1163   1.338   2.129   0.992
  320HOH      O 1164   0.363   3.225   0.777
  320HOH     H1 1165   0.284   3.203   0.728
  320HOH     H2 1166   0.412   3.143   0.782
  321HOH      O 1167   1.880   0.653   0.047
  321HOH     H1 1168   1.900   0.733   0.095
  321HOH     H2 1169   1.939   0.588   0.083
  322HOH      O 1170   3.053   2.728   3.660
  322HOH     H1 1171   3.086   2.813   3.688
  322HOH     H2 1172   3.119   2.696   3.598
  323HOH      O 1173   0.767   2.359   3.830
  323HOH     H1 1174   0.763   2.324   3.741
  323HOH     H2 1175   0.678   2.390   3.848
  324HOH      O 1176   2.366   2.360   2.109
  324HOH     H1 1177   2.387   2.342   2.200
  324HOH     H2 1178   2.450   2.376   2.066
  325HOH      O 1179   3.283   0.064   1.143
  325HOH     H1 1180   3.291   0.139   1.083
  325HOH     H2 1181   3.282   0.104   1.231
  326HOH      O 1182   3.375   2.207   0.248
  326HOH     H1 1183   3.293   2.244   0.215
  326HOH     H2 1184   3.435   2.281   0.252
  327HOH      O 1185   3.997   1.505   3.304
  327HOH     H1 1186   3.910   1.469   3.319
  327HOH     H2 1187   4.020   1.477   3.215
  328HOH      O 1188   2.558   0.984   3.607
  328HOH     H1 1189   2.549   1.076   3.634
  328HOH     H2 1190   2.550   0.935   3.689
  329HOH      O 1191   0.693   2.443   0.346
  329HOH     H1 1192   0.652   2.406   0.268
  329HOH     H2 1193   0.659   2.533   0.350
  330HOH      O 1194   0.137   3.190   0.660
  330HOH     H1 1195   0.119   3.139   0.581
  330HOH     H2 1196   0.079   3.266   0.653
  331HOH      O 1197   2.395   0.183   3.650
  331HOH     H1 1198   2.327   0.123   3.679
  331HOH     H2 1199   2.420   0.232   3.728
  332HOH      O 1200   1.600   2.705   3.288
  332HOH     H1 1201   1.577   2.759   3.213
  332HOH     H2 1202   1.530   2.722   3.352
  333HOH      O 1203   3.600   3.904   0.663
  333HOH     H1 1204   3.567   3.968   0.726
  333HOH     H2 1205   3.524   3.850   0.642
  334HOH      O 1206   2.446   2.588   4.040
  334HOH     H1 1207   2.456   2.604   3.947
  334HOH     H2 1208   2.533   2.604   4.077
  335HOH      O 1209   3.723   2.658   0.355
  335HOH     H1 1210   3.810   2.650   0.395
  335HOH     H2 1211   3.691   2.568   0.349
  336HOH      O 1212   3.684   2.523   2.474
  336HOH     H1 1213   3.729   2.518   2.559
  336HOH     H2 1214   3.592   2.533   2.497
  337HOH      O 1215   2.323   2.918   0.038
  337HOH     H1 1216   2.361   2.877  -0.039
  337HOH     H2 1217   2.246   2.864   0.059
  338HOH      O 1218   3.197   0.610   3.290
  338HOH     H1 1219   3.274   0.605   3.234
  338HOH     H2 1220   3.127   0.570   3.238
  339HOH      O 1221   1.374   2.550   3.967
  339HOH     H1 1222   1.319   2.511   3.898
  339HOH     H2 1223   1.312   2.598   4.022
  340HOH      O 1224   2.483   1.479   1.747
  340HOH     H1 1225   2.549   1.509   1.685
  340HOH     H2 1226   2.501   1.385   1.758
  341HOH      O 1227   1.004   0.456   2.023
  341HOH     H1 1228   0.982   0.435   2.113
  341HOH     H2 1229   0.956   0.537   2.005
  342HOH      O 1230   3.377   2.234   2.680
  342HOH     H1 1231   3.337   2.191   2.604
  342HOH     H2 1232   3.394   2.323   2.650
  343HOH      O 1233   0.252   0.036   0.576
  343HOH     H1 1234   0.239  -0.034   0.511
  343HOH     H2 1235   0.163   0.057   0.605
  344HOH      O 1236   1.209   0.788   3.614
  344HOH     H1 1237   1.267   0.740   3.555
  344HOH     H2 1238   1.246   0.876   3.619
  345HOH      O 1239   1.623   0.916   0.693
  345HOH     H1 1240   1.703   0.941   0.648
  345HOH     H2 1241   1.643   0.923   0.786
  346HOH      O 1242   0.625   2.811   1.978
  346HOH     H1 1243   0.712   2.849   1.989
  346HOH     H2 1244   0.639   2.735   1.921
  347HOH      O 1245   0.520   1.174   3.019
  347HOH     H1 1246   0.473   1.258   3.013
  347HOH     H2 1247   0.526   1.144   2.929
  348HOH      O 1248   2.392   2.108   1.610
  348HOH     H1 1249   2.366   2.141   1.696
  348HOH     H2 1250   2.314   2.121   1.555
  349HOH      O 1251   1.572   0.303   0.152
  349HOH     H1 1252   1.585   0.288   0.058
  349HOH     H2 1253   1.563   0.398   0.159
  350HOH      O 1254   2.418   4.014   1.899
  350HOH     H1 1255   2.325   4.036   1.888
  350HOH     H2 1256   2.448   4.072   1.969
  351HOH      O 1257   2.686   2.182   0.362
  351HOH     H1 1258   2.678   2.248   0.431
  351HOH     H2 1259   2.702   2.233   0.282
  352HOH      O 1260   1.482   0.976   2.194
  352HOH     H1 1261   1.391   0.980   2.222
  352HOH     H2 1262   1.521   1.056   2.229
  353HOH      O 1263   1.452   0.804   2.975
  353HOH     H1 1264   1.512   0.818   3.047
  353HOH     H2 1265   1.474   0.873   2.912
  354HOH      O 1266   0.886   0.206   2.798
  354HOH     H1 1267   0.908   0.295   2.824
  354HOH     H2 1268   0.945   0.187   2.725
  355HOH      O 1269   0.087   3.394   2.800
  355HOH     H1 1270   0.064   3.419   2.890
  355HOH     H2 1271   0.024   3.440   2.745
  356HOH      O 1272   3.476   1.612   3.416
  356HOH     H1 1273   3.414   1.585   3.348
  356HOH     H2 1274   3.508   1.530   3.453
  357HOH      O 1275   3.503   1.943   1.046
  357HOH     H1 1276   3.550   1.899   0.975
  357HOH     H2 1277   3.522   2.036   1.034
  358HOH      O 1278   3.317   0.481   3.842
  358HOH     H1 1279   3.256   0.555   3.839
  358HOH     H2 1280   3.344   0.475   3.933
  359HOH      O 1281   3.161   1.265   1.143
  359HOH     H1 1282   3.105   1.187   1.154
  359HOH     H2 1283   3.101   1.334   1.115
  360HOH      O 1284   2.692   2.089   3.019
  360HOH     H1 1285   2.682   2.127   3.106
  360HOH     H2 1286   2.664   2.159   2.959
  361HOH      O 1287   0.880   3.002   3.038
  361HOH     H1 1288   0.971   3.005   3.067
  361HOH     H2 1289   0.851   2.913   3.057
  362HOH      O 1290   3.966   0.662   0.892
  362HOH     H1 1291   3.891   0.714   0.863
  362HOH     H2 1292   3.983   0.693   0.981
  363HOH      O 1293   2.737   3.581   0.934
  363HOH     H1 1294   2.771   3.585   0.845
  363HOH     H2 1295   2.675   3.509   0.933
  364HOH      O 1296   0.983   0.414   0.600
  364HOH     H1 1297   0.958   0.378   0.514
  364HOH     H2 1298   1.071   0.380   0.615
  365HOH      O 1299   3.869   3.590   0.019
  365HOH     H1 1300   3.852   3.625   0.107
  365HOH     H2 1301   3.908   3.504   0.036
  366HOH      O 1302   1.389   2.888   1.507
  366HOH     H1 1303   1.458   2.952   1.523
  366HOH     H2 1304   1.400   2.864   1.415
  367HOH      O 1305   2.555   1.278   1.124
  367HOH     H1 1306   2.468   1.253   1.093
  367HOH     H2 1307   2.577   1.355   1.072
  368HOH      O 1308   1.616   2.459   2.296
  368HOH     H1 1309   1.694   2.514   2.304
  368HOH     H2 1310   1.648   2.370   2.309
  369HOH      O 1311   3.834   1.865   0.661
  369HOH     H1 1312   3.811   1.773   0.674
  369HOH     H2 1313   3.918   1.875   0.706
  370HOH      O 1314   3.274   0.420   0.296
  370HOH     H1 1315   3.281   0.500   0.245
  370HOH     H2 1316   3.364   0.403   0.326
  371HOH      O 1317   1.254   1.269   3.511
  371HOH     H1 1318   1.249   1.220   3.429
  371HOH     H2 1319   1.165   1.267   3.546
  372HOH      O 1320   3.781   2.000   4.065
  372HOH     H1 1321   3.783   1.948   3.985
  372HOH     H2 1322   3.712   2.064   4.051
  373HOH      O 1323   2.013   3.836   2.779
  373HOH     H1 1324   2.095   3.871   2.812
  373HOH     H2 1325   1.947   3.871   2.839
  374HOH      O 1326   3.955   1.345   2.970
  374HOH     H1 1327   3.899   1.273   3.001
  374HOH     H2 1328   3.896   1.420   2.963
  375HOH      O 1329   0.417   1.153   0.721
  375HOH     H1 1330   0.495   1.103   0.699
  375HOH     H2 1331   0.404   1.138   0.815
  376HOH      O 1332   0.540   0.908   3.152
  376HOH     H1 1333   0.604   0.903   3.082
  376HOH     H2 1334   0.469   0.962   3.117
  377HOH      O 1335   0.916   0.331   0.328
  377HOH     H1 1336   0.921   0.258   0.267
  377HOH     H2 1337   0.902   0.408   0.272
  378HOH      O 1338   3.822   3.545   0.473
  378HOH     H1 1339   3.743   3.552   0.526
  378HOH     H2 1340   3.816   3.457   0.434
  379HOH      O 1341   1.199   2.654   0.101
  379HOH     H1 1342   1.168   2.740   0.072
  379HOH     H2 1343   1.120   2.607   0.127
  380HOH      O 1344   3.796   1.195   2.124
  380HOH     H1 1345   3.823   1.238   2.043
  380HOH     H2 1346   3.774   1.266   2.184
  381HOH      O 1347   3.810   0.822   2.828
  381HOH     H1 1348   3.833   0.739   2.787
  381HOH     H2 1349   3.827   0.887   2.760
  382HOH      O 1350   1.496   2.446   1.190
  382HOH     H1 1351   1.404   2.447   1.215
  382HOH     H2 1352   1.536   2.513   1.245
  383HOH      O 1353   3.274   2.925   3.351
  383HOH     H1 1354   3.357   2.973   3.342
  383HOH     H2 1355   3.294   2.837   3.322
  384HOH      O 1356   1.363   1.657   3.528
  384HOH     H1 1357   1.334   1.590   3.466
  384HOH     H2 1358   1.379   1.734   3.474
  385HOH      O 1359   2.461   0.265   1.818
  385HOH     H1 1360   2.381   0.213   1.829
  385HOH     H2 1361   2.510   0.218   1.751
  386HOH      O 1362   3.512   0.841   3.435
  386HOH     H1 1363   3.550   0.753   3.432
  386HOH     H2 1364   3.502   0.866   3.343
  387HOH      O 1365   0.056   1.508   0.085
  387HOH     H1 1366   0.049   1.413   0.078
  387HOH     H2 1367   0.003   1.541   0.012
  388HOH      O 1368   1.072   2.879   3.189
  388HOH     H1 1369   1.109   2.826   3.259
  388HOH     H2 1370   0.983   2.846   3.178
  389HOH      O 1371   2.771   0.302   2.246
  389HOH     H1 1372   2.768   0.222   2.298
  389HOH     H2 1373   2.713   0.363   2.292
  390HOH      O 1374   1.343   2.758   1.199
  390HOH     H1 1375   1.256   2.729   1.225
  390HOH     H2 1376   1.369   2.696   1.130
  391HOH      O 1377   3.340   1.435   3.235
  391HOH     H1 1378   3.316   1.343   3.219
  391HOH     H2 1379   3.365   1.469   3.149
  392HOH      O 1380   1.422   2.431   0.201
  392HOH     H1 1381   1.344   2.454   0.151
  392HOH     H2 1382   1.422   2.335   0.203
  393HOH      O 1383   3.629   1.146   0.241
  393HOH     H1 1384   3.669   1.097   0.313
  393HOH     H2 1385   3.699   1.202   0.208
  394HOH      O 1386   3.546   1.352   3.900
  394HOH     H1 1387   3.526   1.266   3.937
  394HOH     H2 1388   3.618   1.335   3.838
  395HOH      O 1389   2.287   2.812   3.451
  395HOH     H1 1390   2.376   2.828   3.419
  395HOH     H2 1391   2.251   2.899   3.468
  396HOH      O 1392   1.894   0.816   3.120
  396HOH     H1 1393   1.978   0.791   3.158
  396HOH     H2 1394   1.909   0.813   3.026
  397HOH      O 1395   3.218   0.097   3.414
  397HOH     H1 1396   3.128   0.107   3.445
  397HOH     H2 1397   3.262   0.177   3.446
  398HOH      O 1398   3.148   0.854   1.926
  398HOH     H1 1399   3.091   0.851   1.849
  398HOH     H2 1400   3.109   0.793   1.988
  399HOH      O 1401   0.464   2.521   0.138
  399HOH     H1 1402   0.381   2.548   0.176
  399HOH     H2 1403   0.480   2.435   0.175
  400HOH      O 1404   0.136   2.106   3.461
  400HOH     H1 1405   0.154   2.012   3.453
  400HOH     H2 1406   0.198   2.147   3.401
  401HOH      O 1407   0.702   3.389   0.889
  401HOH     H1 1408   0.679   3.459   0.950
  401HOH     H2 1409   0.797   3.382   0.896
  402HOH      O 1410   2.871   0.172   1.421
  402HOH     H1 1411   2.939   0.159   1.488
  402HOH     H2 1412   2.852   0.084   1.389
  403HOH      O 1413   3.827   0.160   0.412
  403HOH     H1 1414   3.883   0.230   0.444
  403HOH     H2 1415   3.745   0.170   0.461
  404HOH      O 1416   3.987   1.467   3.657
  404HOH     H1 1417   4.051   1.492   3.589
  404HOH     H2 1418   3.974   1.547   3.707
  405HOH      O 1419   3.597   2.067   3.167
  405HOH     H1 1420   3.635   2.155   3.173
  405HOH     H2 1421   3.661   2.010   3.209
  406HOH      O 1422   1.959   4.006   1.027
  406HOH     H1 1423   1.905   4.084   1.030
  406HOH     H2 1424   1.912   3.946   0.969
  407HOH      O 1425   1.745   0.145   3.483
  407HOH     H1 1426   1.822   0.193   3.454
  407HOH     H2 1427   1.768   0.113   3.571
  408HOH      O 1428   2.121   2.027   0.689
  408HOH     H1 1429   2.074   1.971   0.626
  408HOH     H2 1430   2.105   2.116   0.658
  409HOH      O 1431   0.169   2.967   1.009
  409HOH     H1 1432   0.256   2.999   1.031
  409HOH     H2 1433   0.185   2.896   0.947
  410HOH      O 1434   3.747   4.009   0.014
  410HOH     H1 1435   3.813   4.019   0.083
  410HOH     H2 1436   3.673   3.966   0.058
  411HOH      O 1437   3.071   1.688   2.611
  411HOH     H1 1438   3.056   1.616   2.672
  411HOH     H2 1439   3.024   1.663   2.532
  412HOH      O 1440   1.643   3.410   2.725
  412HOH     H1 1441   1.681   3.498   2.736
  412HOH     H2 1442   1.648   3.394   2.631
  413HOH      O 1443   2.958   1.747   2.000
  413HOH     H1 1444   2.948   1.673   2.060
  413HOH     H2 1445   2.892   1.731   1.932
  414HOH      O 1446   1.424   3.378   0.659
  414HOH     H1 1447   1.369   3.410   0.587
  414HOH     H2 1448   1.363   3.367   0.732
  415HOH      O 1449   3.551   2.854   1.180
  415HOH     H1 1450   3.529   2.857   1.273
  415HOH     H2 1451   3.524   2.766   1.152
  416HOH      O 1452   0.317   2.141   0.449
  416HOH     H1 1453   0.365   2.182   0.521
  416HOH     H2 1454   0.301   2.051   0.479
  417HOH      O 1455   2.450   2.812   3.854
  417HOH     H1 1456   2.431   2.780   3.766
  417HOH     H2 1457   2.545   2.806   3.862
  418HOH      O 1458   3.229   3.072   1.467
  418HOH     H1 1459   3.288   3.085   1.393
  418HOH     H2 1460   3.247   3.146   1.525
  419HOH      O 1461   2.078   2.638   3.807
  419HOH     H1 1462   2.151   2.577   3.825
  419HOH     H2 1463   2.006   2.606   3.862
  420HOH      O 1464   1.410   0.170   2.618
  420HOH     H1 1465   1.378   0.088   2.581
  420HOH     H2 1466   1.333   0.228   2.617
  421HOH      O 1467   3.135   0.692   0.105
  421HOH     H1 1468   3.209   0.730   0.058
  421HOH     H2 1469   3.160   0.699   0.197
  422HOH      O 1470   0.281   3.875   1.671
  422HOH     H1 1471   0.308   3.834   1.753
  422HOH     H2 1472   0.362   3.882   1.620
  423HOH      O 1473   3.621   1.821   3.572
  423HOH     H1 1474   3.695   1.821   3.511
  423HOH     H2 1475   3.566   1.748   3.542
  424HOH      O 1476   0.150   0.100   0.046
  424HOH     H1 1477   0.140   0.151  -0.034
  424HOH     H2 1478   0.174   0.013   0.016
  425HOH      O 1479   0.513   1.361   3.898
  425HOH     H1 1480   0.601   1.398   3.891
  425HOH     H2 1481   0.455   1.438   3.893
  426HOH      O 1482   2.197   1.376   2.916
  426HOH     H1 1483   2.252   1.358   2.993
  426HOH     H2 1484   2.238   1.452   2.874
  427HOH      O 1485   2.101   1.967   1.648
  427HOH     H1 1486   2.148   1.957   1.565
  427HOH     H2 1487   2.147   1.910   1.709
  428HOH      O 1488   3.393   1.547   1.791
  428HOH     H1 1489   3.330   1.487   1.831
  428HOH     H2 1490   3.338   1.606   1.738
  429HOH      O 1491   2.028   0.264   2.391
  429HOH     H1 1492   1.948   0.238   2.345
  429HOH     H2 1493   2.084   0.186   2.388
  430HOH      O 1494   0.621   3.514   2.243
  430HOH     H1 1495   0.554   3.579   2.222
  430HOH     H2 1496   0.602   3.441   2.184
  431HOH      O 1497   1.488   3.599   2.419
  431HOH     H1 1498   1.547   3.660   2.463
  431HOH     H2 1499   1.412   3.593   2.478
  432HOH      O 1500   2.592   0.616   2.879
  432HOH     H1 1501   2.641   0.619   2.797
  432HOH     H2 1502   2.505   0.649   2.857
  433HOH      O 1503   2.189   2.748   1.244
  433HOH     H1 1504   2.129   2.702   1.185
  433HOH     H2 1505   2.254   2.787   1.186
  434HOH      O 1506   2.986   3.949   0.694
  434HOH     H1 1507   2.894   3.970   0.676
  434HOH     H2 1508   2.997   3.967   0.787
  435HOH      O 1509   1.343   0.402   1.193
  435HOH     H1 1510   1.309   0.399   1.104
  435HOH     H2 1511   1.345   0.495   1.215
  436HOH      O 1512   2.937   0.779   2.339
  436HOH     H1 1513   2.869   0.803   2.402
  436HOH     H2 1514   2.990   0.713   2.383
  437HOH      O 1515   1.196   3.358   3.617
  437HOH     H1 1516   1.123   3.300   3.594
  437HOH     H2 1517   1.154   3.432   3.662
  438HOH      O 1518   0.808   0.145   1.049
  438HOH     H1 1519   0.797   0.088   0.973
  438HOH     H2 1520   0.892   0.120   1.087
  439HOH      O 1521   2.658   1.970   0.533
  439HOH     H1 1522   2.665   1.897   0.473
  439HOH     H2 1523   2.678   2.047   0.480
  440HOH      O 1524   3.539   2.201   0.913
  440HOH     H1 1525   3.632   2.196   0.936
  440HOH     H2 1526   3.535   2.164   0.825
  441HOH      O 1527   1.817   2.355   3.359
  441HOH     H1 1528   1.750   2.287   3.362
  441HOH     H2 1529   1.813   2.397   3.445
  442HOH      O 1530   2.845   1.574   1.168
  442HOH     H1 1531   2.796   1.574   1.086
  442HOH     H2 1532   2.908   1.502   1.158
  443HOH      O 1533   1.123   2.100   3.345
  443HOH     H1 1534   1.036   2.071   3.319
  443HOH     H2 1535   1.175   2.096   3.264
  444HOH      O 1536   0.748   2.262   1.226
  444HOH     H1 1537   0.723   2.277   1.134
  444HOH     H2 1538   0.673   2.217   1.264
  445HOH      O 1539   1.877   0.023   2.328
  445HOH     H1 1540   1.849  -0.068   2.318
  445HOH     H2 1541   1.826   0.071   2.263
  446HOH      O 1542   1.889   0.413   0.776
  446HOH     H1 1543   1.826   0.439   0.843
  446HOH     H2 1544   1.971   0.453   0.803
  447HOH      O 1545   2.939   1.406   2.994
  447HOH     H1 1546   3.017   1.377   3.041
  447HOH     H2 1547   2.866   1.363   3.039
  448HOH      O 1548   3.714   0.471   2.175
  448HOH     H1 1549   3.628   0.431   2.159
  448HOH     H2 1550   3.694   0.558   2.210
  449HOH      O 1551   0.999   0.819   2.299
  449HOH     H1 1552   1.062   0.775   2.356
  449HOH     H2 1553   0.930   0.849   2.358
  450HOH      O 1554   1.201   2.888   3.771
  450HOH     H1 1555   1.296   2.875   3.771
  450HOH     H2 1556   1.168   2.829   3.838
  451HOH      O 1557   2.116   2.299   3.713
  451HOH     H1 1558   2.032   2.302   3.759
  451HOH     H2 1559   2.179   2.335   3.776
  452HOH      O 1560   0.275   0.297   2.617
  452HOH     H1 1561   0.281   0.270   2.709
  452HOH     H2 1562   0.207   0.364   2.617
  453HOH      O 1563   2.186   1.546   1.633
  453HOH     H1 1564   2.279   1.566   1.639
  453HOH     H2 1565   2.182   1.451   1.645
  454HOH      O 1566   3.020   0.661   2.093
  454HOH     H1 1567   2.943   0.648   2.038
  454HOH     H2 1568   2.988   0.710   2.168
  455HOH      O 1569   3.167   1.125   1.992
  455HOH     H1 1570   3.134   1.132   2.082
  455HOH     H2 1571   3.154   1.034   1.969
  456HOH      O 1572   2.168   2.470   3.307
  456HOH     H1 1573   2.103   2.521   3.355
  456HOH     H2 1574   2.204   2.409   3.372
  457HOH      O 1575   2.937   0.322   3.598
  457HOH     H1 1576   2.972   0.247   3.551
  457HOH     H2 1577   2.993   0.329   3.676
  458HOH      O 1578   2.246   2.630   0.195
  458HOH     H1 1579   2.234   2.543   0.233
  458HOH     H2 1580   2.324   2.623   0.140
  459HOH      O 1581   0.244   1.253   3.303
  459HOH     H1 1582   0.190   1.308   3.246
  459HOH     H2 1583   0.326   1.243   3.256
  460HOH      O 1584   2.674   0.385   1.549
  460HOH     H1 1585   2.630   0.301   1.566
  460HOH     H2 1586   2.693   0.383   1.456
  461HOH      O 1587   2.898   2.064   2.435
  461HOH     H1 1588   2.823   2.092   2.382
  461HOH     H2 1589   2.881   1.971   2.453
  462HOH      O 1590   3.504   0.561   2.479
  462HOH     H1 1591   3.428   0.616   2.460
  462HOH     H2 1592   3.497   0.488   2.418
  463HOH      O 1593   2.979   2.129   2.960
  463HOH     H1 1594   2.886   2.107   2.961
  463HOH     H2 1595   3.003   2.125   2.868
  464HOH      O 1596   0.427   1.602   3.866
  464HOH     H1 1597   0.365   1.644   3.806
  464HOH     H2 1598   0.464   1.675   3.917
  465HOH      O 1599   3.269   0.663   1.487
  465HOH     H1 1600   3.289   0.756   1.475
  465HOH     H2 1601   3.234   0.658   1.576
  466HOH      O 1602   2.751   0.058   0.082
  466HOH     H1 1603   2.807   0.092   0.012
  466HOH     H2 1604   2.679   0.121   0.087
  467HOH      O 1605   0.091   3.301   3.465
  467HOH     H1 1606   0.164   3.363   3.468
  467HOH     H2 1607   0.025   3.338   3.523
  468HOH      O 1608   2.926   3.043   0.740
  468HOH     H1 1609   2.930   3.086   0.825
  468HOH     H2 1610   2.865   2.970   0.753
  469HOH      O 1611   0.525   3.849   1.541
  469HOH     H1 1612   0.522   3.777   1.604
  469HOH     H2 1613   0.586   3.911   1.579
  470HOH      O 1614   2.277   3.279   0.712
  470HOH     H1 1615   2.273   3.315   0.801
  470HOH     H2 1616   2.229   3.342   0.658
  471HOH      O 1617   3.074   3.536   3.897
  471HOH     H1 1618   3.013   3.500   3.832
  471HOH     H2 1619   3.149   3.476   3.894
  472HOH      O 1620   1.742   2.954  -0.019
  472HOH     H1 1621   1.752   2.960   0.076
  472HOH     H2 1622   1.820   2.996  -0.054
  473HOH      O 1623   2.846   2.223   1.586
  473HOH     H1 1624   2.762   2.214   1.542
  473HOH     H2 1625   2.827   2.275   1.664
  474HOH      O 1626   2.386   1.306   2.260
  474HOH     H1 1627   2.292   1.324   2.262
  474HOH     H2 1628   2.409   1.291   2.351
  475HOH      O 1629   0.957   0.890   1.739
  475HOH     H1 1630   0.978   0.830   1.811
  475HOH     H2 1631   0.898   0.954   1.779
  476HOH      O 1632   0.604   1.657   0.933
  476HOH     H1 1633   0.509   1.660   0.924
  476HOH     H2 1634   0.628   1.567   0.908
  477HOH      O 1635   0.539   2.895   2.783
  477HOH     H1 1636   0.615   2.952   2.797
  477HOH     H2 1637   0.493   2.896   2.867
  478HOH      O 1638   3.959   2.392   3.953
  478HOH     H1 1639   3.968   2.303   3.920
  478HOH     H2 1640   4.016   2.444   3.897
  479HOH      O 1641   1.446   2.097   0.633
  479HOH     H1 1642   1.446   2.007   0.665
  479HOH     H2 1643   1.399   2.146   0.699
  480HOH      O 1644   3.021   3.883   1.821
  480HOH     H1 1645   3.080   3.916   1.890
  480HOH     H2 1646   2.942   3.936   1.829
  481HOH      O 1647   2.200   0.009   3.768
  481HOH     H1 1648   2.246  -0.018   3.848
  481HOH     H2 1649   2.155   0.090   3.792
  482HOH      O 1650   2.405   0.693   0.238
  482HOH     H1 1651   2.415   0.607   0.198
  482HOH     H2 1652   2.465   0.749   0.189
  483HOH      O 1653   1.880   3.507   3.648
  483HOH     H1 1654   1.916   3.592   3.675
  483HOH     H2 1655   1.936   3.479   3.576
  484HOH      O 1656   1.657   1.025   2.905
  484HOH     H1 1657   1.636   1.055   2.817
  484HOH     H2 1658   1.683   1.104   2.952
  485HOH      O 1659   1.078   0.640   0.187
  485HOH     H1 1660   1.048   0.676   0.270
  485HOH     H2 1661   1.040   0.698   0.121
  486HOH      O 1662   0.298   3.151   2.227
  486HOH     H1 1663   0.246   3.101   2.164
  486HOH     H2 1664   0.360   3.088   2.264
  487HOH      O 1665   1.708   1.943   0.744
  487HOH     H1 1666   1.706   1.939   0.840
  487HOH     H2 1667   1.616   1.932   0.718
  488HOH      O 1668   2.897   3.711   3.172
  488HOH     H1 1669   2.963   3.685   3.237
  488HOH     H2 1670   2.932   3.680   3.089
  489HOH      O 1671   3.016   2.480   1.932
  489HOH     H1 1672   3.013   2.414   2.001
  489HOH     H2 1673   3.093   2.458   1.880
  490HOH      O 1674   3.829  -0.034   2.463
  490HOH     H1 1675   3.817   0.018   2.384
  490HOH     H2 1676   3.892   0.017   2.515
  491HOH      O 1677   0.727   1.871   1.182
  491HOH     H1 1678   0.716   1.782   1.148
  491HOH     H2 1679   0.793   1.862   1.251
  492HOH      O 1680   2.964   3.174   0.985
  492HOH     H1 1681   2.881   3.221   0.995
  492HOH     H2 1682   3.029   3.244   0.971
  493HOH      O 1683   2.319   3.337   1.215
  493HOH     H1 1684   2.310   3.365   1.306
  493HOH     H2 1685   2.372   3.406   1.174
  494HOH      O 1686   3.864   0.099   1.865
  494HOH     H1 1687   3.928   0.157   1.823
  494HOH     H2 1688   3.784   0.111   1.813
  495HOH      O 1689   3.946   2.881   3.602
  495HOH     H1 1690   3.873   2.834   3.562
  495HOH     H2 1691   3.986   2.929   3.529
  496HOH      O 1692   1.107   3.053   2.504
  496HOH     H1 1693   1.026   3.004   2.490
  496HOH     H2 1694   1.161   3.033   2.427
  497HOH      O 1695   0.966   1.409   0.855
  497HOH     H1 1696   0.959   1.488   0.909
  497HOH     H2 1697   0.941   1.438   0.767
  498HOH      O 1698   0.964   0.429   3.956
  498HOH     H1 1699   1.000   0.484   3.887
  498HOH     H2 1700   0.871   0.449   3.956
  499HOH      O 1701   0.164   3.630   0.671
  499HOH     H1 1702   0.259   3.625   0.685
  499HOH     H2 1703   0.140   3.717   0.701
  500HOH      O 1704   0.988   0.370   3.089
  500HOH     H1 1705   1.040   0.335   3.161
  500HOH     H2 1706   0.918   0.305   3.076
  501HOH      O 1707   0.088   3.727   0.198
  501HOH     H1 1708   0.103   3.632   0.195
  501HOH     H2 1709   0.017   3.738   0.262
  502HOH      O 1710   1.099   3.067   1.873
  502HOH     H1 1711   1.186   3.032   1.893
  502HOH     H2 1712   1.042   3.030   1.940
  503HOH      O 1713   3.778   2.458   3.523
  503HOH     H1 1714   3.795   2.384   3.581
  503HOH     H2 1715   3.767   2.418   3.436
  504HOH      O 1716   3.931   1.264   1.488
  504HOH     H1 1717   3.858   1.278   1.427
  504HOH     H2 1718   4.001   1.320   1.454
  505HOH      O 1719   3.707   1.745   0.199
  505HOH     H1 1720   3.697   1.822   0.143
  505HOH     H2 1721   3.692   1.777   0.287
  506HOH      O 1722   1.065   2.264   0.943
  506HOH     H1 1723   1.115   2.237   0.866
  506HOH     H2 1724   1.127   2.259   1.015
  507HOH      O 1725   0.941   2.485   0.718
  507HOH     H1 1726   0.954   2.425   0.645
  507HOH     H2 1727   0.958   2.432   0.796
  508HOH      O 1728   0.446   2.789   0.059
  508HOH     H1 1729   0.477   2.716   0.113
  508HOH     H2 1730   0.468   2.867   0.109
  509HOH      O 1731   2.806   0.727   3.472
  509HOH     H1 1732   2.844   0.640   3.461
  509HOH     H2 1733   2.757   0.722   3.554
  510HOH      O 1734   0.889   3.696   3.942
  510HOH     H1 1735   0.800   3.704   3.907
  510HOH     H2 1736   0.877   3.690   4.037
  511HOH      O 1737   1.057   3.389   0.623
  511HOH     H1 1738   0.972   3.346   0.633
  511HOH     H2 1739   1.118   3.333   0.670
  512HOH      O 1740   0.129   1.309   2.800
  512HOH     H1 1741   0.103   1.222   2.770
  512HOH     H2 1742   0.060   1.335   2.860
  513HOH      O 1743   1.956   1.317   1.128
  513HOH     H1 1744   1.873   1.313   1.176
  513HOH     H2 1745   1.964   1.408   1.101
  514HOH      O 1746   1.893   3.236   0.959
  514HOH     H1 1747   1.876   3.155   0.911
  514HOH     H2 1748   1.986   3.254   0.942
  515HOH      O 1749   1.926   1.560   0.332
  515HOH     H1 1750   1.993   1.498   0.303
  515HOH     H2 1751   1.872   1.510   0.393
  516HOH      O 1752   2.894   3.418   3.738
  516HOH     H1 1753   2.897   3.340   3.683
  516HOH     H2 1754   2.834   3.477   3.693
  517HOH      O 1755   3.255   0.197   2.872
  517HOH     H1 1756   3.258   0.161   2.961
  517HOH     H2 1757   3.344   0.183   2.838
  518HOH      O 1758   1.111   0.495   2.363
  518HOH     H1 1759   1.166   0.481   2.440
  518HOH     H2 1760   1.021   0.484   2.394
  519HOH      O 1761   4.066   0.913   2.004
  519HOH     H1 1762   4.008   0.836   2.010
  519HOH     H2 1763   4.006   0.987   1.999
  520HOH      O 1764   3.545   2.824   3.282
  520HOH     H1 1765   3.538   2.729   3.276
  520HOH     H2 1766   3.610   2.848   3.216
  521HOH      O 1767   2.538   1.790   2.828
  521HOH     H1 1768   2.525   1.885   2.833
  521HOH     H2 1769   2.581   1.768   2.911
  522HOH      O 1770   0.533   0.056   3.911
  522HOH     H1 1771   0.612   0.016   3.874
  522HOH     H2 1772   0.474  -0.018   3.925
  523HOH      O 1773   1.862   1.713   1.946
  523HOH     H1 1774   1.956   1.725   1.956
  523HOH     H2 1775   1.831   1.688   2.033
  524HOH      O 1776   0.177   3.909   3.385
  524HOH     H1 1777   0.264   3.946   3.401
  524HOH     H2 1778   0.129   3.924   3.466
  525HOH      O 1779   3.606   0.579   3.370
  525HOH     H1 1780   3.652   0.510   3.419
  525HOH     H2 1781   3.648   0.579   3.284
  526HOH      O 1782   0.552   0.161   1.487
  526HOH     H1 1783   0.574   0.084   1.433
  526HOH     H2 1784   0.612   0.229   1.456
  527HOH      O 1785   2.829   0.998   3.458
  527HOH     H1 1786   2.805   0.906   3.465
  527HOH     H2 1787   2.835   1.028   3.549
  528HOH      O 1788   0.159   0.688   1.321
  528HOH     H1 1789   0.216   0.754   1.360
  528HOH     H2 1790   0.091   0.673   1.387
  529HOH      O 1791   1.535   1.205   0.230
  529HOH     H1 1792   1.570   1.132   0.281
  529HOH     H2 1793   1.447   1.178   0.206
  530HOH      O 1794   3.145   1.726   1.730
  530HOH     H1 1795   3.211   1.794   1.717
  530HOH     H2 1796   3.138   1.717   1.825
  531HOH      O 1797   0.907   3.885   1.208
  531HOH     H1 1798   0.899   3.847   1.120
  531HOH     H2 1799   0.985   3.940   1.203
  532HOH      O 1800   0.366   0.466   1.772
  532HOH     H1 1801   0.337   0.419   1.694
  532HOH     H2 1802   0.364   0.558   1.746
  533HOH      O 1803   1.890   2.623   0.824
  533HOH     H1 1804   1.812   2.605   0.771
  533HOH     H2 1805   1.856   2.643   0.911
  534HOH      O 1806   3.819   2.400   0.173
  534HOH     H1 1807   3.884   2.407   0.103
  534HOH     H2 1808   3.830   2.311   0.206
  535HOH      O 1809   3.224   0.534   0.976
  535HOH     H1 1810   3.228   0.440   0.961
  535HOH     H2 1811   3.149   0.563   0.925
  536HOH      O 1812   3.266   0.772   0.353
  536HOH     H1 1813   3.277   0.862   0.384
  536HOH     H2 1814   3.355   0.737   0.351
  537HOH      O 1815   3.288   1.411   2.723
  537HOH     H1 1816   3.325   1.324   2.733
  537HOH     H2 1817   3.196   1.395   2.702
  538HOH      O 1818   1.733   2.240   2.686
  538HOH     H1 1819   1.684   2.238   2.768
  538HOH     H2 1820   1.708   2.159   2.641
  539HOH      O 1821   3.230   2.383   3.267
  539HOH     H1 1822   3.289   2.309   3.284
  539HOH     H2 1823   3.196   2.365   3.179
  540HOH      O 1824   3.687   2.132   3.476
  540HOH     H1 1825   3.719   2.042   3.490
  540HOH     H2 1826   3.706   2.177   3.558
  541HOH      O 1827   0.124   0.887   3.070
  541HOH     H1 1828   0.100   0.948   3.140
  541HOH     H2 1829   0.058   0.819   3.075
  542HOH      O 1830   2.919   2.575   0.842
  542HOH     H1 1831   2.985   2.617   0.896
  542HOH     H2 1832   2.872   2.517   0.902
  543HOH      O 1833   2.886   0.188   3.917
  543HOH     H1 1834   2.964   0.134   3.904
  543HOH     H2 1835   2.918   0.266   3.963
  544HOH      O 1836   2.802   3.263   1.875
  544HOH     H1 1837   2.861   3.335   1.896
  544HOH     H2 1838   2.859   3.189   1.859
  545HOH      O 1839   0.631   3.082   3.114
  545HOH     H1 1840   0.704   3.061   3.173
  545HOH     H2 1841   0.667   3.067   3.026
  546HOH      O 1842   1.388   0.867   1.485
  546HOH     H1 1843   1.293   0.875   1.472
  546HOH     H2 1844   1.413   0.951   1.525
  547HOH      O 1845   1.884   0.618   2.168
  547HOH     H1 1846   1.860   0.531   2.199
  547HOH     H2 1847   1.885   0.672   2.248
  548HOH      O 1848   2.739   1.497   0.370
  548HOH     H1 1849   2.765   1.411   0.404
  548HOH     H2 1850   2.681   1.533   0.438
  549HOH      O 1851   2.252   3.922   2.878
  549HOH     H1 1852   2.266   4.015   2.895
  549HOH     H2 1853   2.310   3.901   2.805
  550HOH      O 1854   2.693   2.541   2.838
  550HOH     H1 1855   2.682   2.539   2.933
  550HOH     H2 1856   2.773   2.491   2.822
  551HOH      O 1857   1.975   2.669   0.164
  551HOH     H1 1858   1.952   2.679   0.257
  551HOH     H2 1859   2.065   2.637   0.165
  552HOH      O 1860   0.845   0.501   2.863
  552HOH     H1 1861   0.860   0.480   2.955
  552HOH     H2 1862   0.751   0.520   2.858
  553HOH      O 1863   0.268   0.683   3.196
  553HOH     H1 1864   0.292   0.772   3.170
  553HOH     H2 1865   0.317   0.627   3.135
  554HOH      O 1866   0.948   1.165   4.021
  554HOH     H1 1867   0.979   1.205   4.102
  554HOH     H2 1868   1.027   1.128   3.980
  555HOH      O 1869   2.870   3.180   2.839
  555HOH     H1 1870   2.793   3.204   2.788
  555HOH     H2 1871   2.905   3.263   2.871
  556HOH      O 1872   1.703   1.915   2.639
  556HOH     H1 1873   1.612   1.912   2.669
  556HOH     H2 1874   1.697   1.952   2.551
  557HOH      O 1875   0.023   3.343   1.626
  557HOH     H1 1876  -0.024   3.277   1.678
  557HOH     H2 1877   0.114   3.313   1.627
  558HOH      O 1878   0.518   1.199   0.094
  558HOH     H1 1879   0.605   1.161   0.109
  558HOH     H2 1880   0.528   1.251   0.014
  559HOH      O 1881   0.422   3.516   2.729
  559HOH     H1 1882   0.515   3.518   2.705
  559HOH     H2 1883   0.399   3.423   2.730
  560HOH      O 1884   2.084   0.805   2.349
  560HOH     H1 1885   2.076   0.881   2.406
  560HOH     H2 1886   2.048   0.733   2.401
  561HOH      O 1887   2.130   2.941   2.306
  561HOH     H1 1888   2.069   2.905   2.242
  561HOH     H2 1889   2.087   2.926   2.391
  562HOH      O 1890   2.147   0.562   1.157
  562HOH     H1 1891   2.086   0.586   1.227
  562HOH     H2 1892   2.170   0.471   1.175
  563HOH      O 1893   2.779   2.963   2.164
  563HOH     H1 1894   2.845   2.910   2.209
  563HOH     H2 1895   2.822   3.048   2.150
  564HOH      O 1896   0.516   3.105   3.421
  564HOH     H1 1897   0.596   3.108   3.474
  564HOH     H2 1898   0.492   3.196   3.408
  565HOH      O 1899   2.506   3.958   3.921
  565HOH     H1 1900   2.575   4.002   3.871
  565HOH     H2 1901   2.513   3.866   3.895
  566HOH      O 1902   1.217   3.622   3.259
  566HOH     H1 1903   1.219   3.539   3.211
  566HOH     H2 1904   1.241   3.687   3.193
  567HOH      O 1905   3.536   2.518   3.188
  567HOH     H1 1906   3.522   2.486   3.100
  567HOH     H2 1907   3.607   2.465   3.223
  568HOH      O 1908   0.006   0.866   0.396
  568HOH     H1 1909   0.063   0.803   0.439
  568HOH     H2 1910  -0.011   0.828   0.310
  569HOH      O 1911   2.508   0.822   2.052
  569HOH     H1 1912   2.515   0.768   2.131
  569HOH     H2 1913   2.596   0.857   2.040
  570HOH      O 1914   3.387   0.161   0.538
  570HOH     H1 1915   3.382   0.153   0.443
  570HOH     H2 1916   3.344   0.083   0.572
  571HOH      O 1917   2.041   2.817   1.464
  571HOH     H1 1918   2.108   2.873   1.503
  571HOH     H2 1919   2.082   2.782   1.385
  572HOH      O 1920   3.719   0.978   2.631
  572HOH     H1 1921   3.696   1.037   2.559
  572HOH     H2 1922   3.708   1.031   2.710
  573HOH      O 1923   0.895   0.719   2.044
  573HOH     H1 1924   0.941   0.774   2.108
  573HOH     H2 1925   0.809   0.705   2.082
  574HOH      O 1926   4.058   1.290   0.833
  574HOH     H1 1927   3.971   1.250   0.828
  574HOH     H2 1928   4.048   1.362   0.895
  575HOH      O 1929   0.324   1.902   1.188
  575HOH     H1 1930   0.334   1.826   1.245
  575HOH     H2 1931   0.280   1.968   1.242
  576HOH      O 1932   1.020   3.088   0.486
  576HOH     H1 1933   1.095   3.108   0.429
  576HOH     H2 1934   1.059   3.056   0.567
  577HOH      O 1935   3.276   2.620   3.121
  577HOH     H1 1936   3.210   2.588   3.182
  577HOH     H2 1937   3.359   2.594   3.160
  578HOH      O 1938   1.581   3.075   1.551
  578HOH     H1 1939   1.550   3.156   1.593
  578HOH     H2 1940   1.660   3.052   1.601
  579HOH      O 1941   1.822   2.921   3.606
  579HOH     H1 1942   1.819   2.862   3.681
  579HOH     H2 1943   1.781   2.871   3.535
  580HOH      O 1944   1.000   1.171   3.264
  580HOH     H1 1945   1.091   1.195   3.249
  580HOH     H2 1946   0.952   1.213   3.192
  581HOH      O 1947   1.113   2.335   3.018
  581HOH     H1 1948   1.132   2.244   3.042
  581HOH     H2 1949   1.019   2.336   3.002
  582HOH      O 1950   2.299   3.858   3.568
  582HOH     H1 1951   2.227   3.839   3.509
  582HOH     H2 1952   2.258   3.895   3.646
  583HOH      O 1953   1.174   0.791   1.992
  583HOH     H1 1954   1.099   0.850   1.990
  583HOH     H2 1955   1.249   0.846   1.971
  584HOH      O 1956   3.433   1.181   2.716
  584HOH     H1 1957   3.388   1.112   2.667
  584HOH     H2 1958   3.509   1.203   2.662
  585HOH      O 1959   3.109   0.610   1.721
  585HOH     H1 1960   3.055   0.537   1.693
  585HOH     H2 1961   3.046   0.679   1.743
  586HOH      O 1962   3.914   1.098   3.989
  586HOH     H1 1963   3.918   1.118   3.895
  586HOH     H2 1964   3.921   1.003   3.994
  587HOH      O 1965   1.949   2.342   2.586
  587HOH     H1 1966   1.933   2.331   2.492
  587HOH     H2 1967   1.872   2.304   2.628
  588HOH      O 1968   2.953   3.253   0.221
  588HOH     H1 1969   2.903   3.334   0.212
  588HOH     H2 1970   2.963   3.241   0.315
  589HOH      O 1971   3.168   0.207   0.154
  589HOH     H1 1972   3.199   0.293   0.182
  589HOH     H2 1973   3.115   0.176   0.228
  590HOH      O 1974   0.069   3.285   1.995
  590HOH     H1 1975   0.015   3.210   1.971
  590HOH     H2 1976   0.021   3.360   1.960
  591HOH      O 1977   0.538   2.670   2.192
  591HOH     H1 1978   0.442   2.663   2.194
  591HOH     H2 1979   0.557   2.706   2.105
  592HOH      O 1980   0.332   1.275   0.382
  592HOH     H1 1981   0.397   1.229   0.329
  592HOH     H2 1982   0.273   1.206   0.412
  593HOH      O 1983   0.059   3.788   3.968
  593HOH     H1 1984   0.058   3.752   4.056
  593HOH     H2 1985  -0.034   3.794   3.943
  594HOH      O 1986   2.552   3.205   3.063
  594HOH     H1 1987   2.637   3.246   3.047
  594HOH     H2 1988   2.569   3.141   3.132
  595HOH      O 1989   3.670   2.961   1.769
  595HOH     H1 1990   3.583   2.934   1.740
  595HOH     H2 1991   3.702   3.019   1.699
  596HOH      O 1992   3.599   0.372   2.923
  596HOH     H1 1993   3.539   0.439   2.890
  596HOH     H2 1994   3.608   0.310   2.851
  597HOH      O 1995   2.618   2.737   1.213
  597HOH     H1 1996   2.598   2.705   1.125
  597HOH     H2 1997   2.709   2.767   1.207
  598HOH      O 1998   0.374   2.965   3.657
  598HOH     H1 1999   0.420   2.997   3.579
  598HOH     H2 2000   0.438   2.976   3.728
  599HOH      O 2001   1.196   1.468   2.899
  599HOH     H1 2002   1.137   1.486   2.826
  599HOH     H2 2003   1.154   1.507   2.975
  600HOH      O 2004   3.388   3.660   0.240
  600HOH     H1 2005   3.298   3.665   0.208
  600HOH     H2 2006   3.421   3.749   0.233
  601HOH      O 2007   4.008   0.736   1.507
  601HOH     H1 2008   3.942   0.803   1.489
  601HOH     H2 2009   4.057   0.770   1.582
  602HOH      O 2010   2.583   2.798   2.077
  602HOH     H1 2011   2.516   2.811   2.145
  602HOH     H2 2012   2.638   2.876   2.082
  603HOH      O 2013   2.623   1.183   0.212
  603HOH     H1 2014   2.609   1.225   0.297
  603HOH     H2 2015   2.716   1.198   0.193
  604HOH      O 2016   3.590   2.852   0.516
  604HOH     H1 2017   3.498   2.830   0.500
  604HOH     H2 2018   3.638   2.793   0.458
  605HOH      O 2019   3.929   2.691   1.088
  605HOH     H1 2020   3.920   2.635   1.165
  605HOH     H2 2021   3.877   2.648   1.020
  606HOH      O 2022   0.310   0.856   1.964
  606HOH     H1 2023   0.272   0.769   1.978
  606HOH     H2 2024   0.234   0.914   1.957
  607HOH      O 2025   1.821   1.995   1.617
  607HOH     H1 2026   1.777   1.913   1.641
  607HOH     H2 2027   1.914   1.976   1.626
  608HOH      O 2028   3.426   3.799   1.458
  608HOH     H1 2029   3.478   3.879   1.447
  608HOH     H2 2030   3.376   3.792   1.376
  609HOH      O 2031   2.540   2.542   1.036
  609HOH     H1 2032   2.560   2.601   0.963
  609HOH     H2 2033   2.450   2.515   1.021
  610HOH      O 2034   2.117   3.344   0.500
  610HOH     H1 2035   2.182   3.412   0.482
  610HOH     H2 2036   2.062   3.341   0.422
  611HOH      O 2037   3.011   3.803   2.199
  611HOH     H1 2038   3.049   3.786   2.113
  611HOH     H2 2039   3.071   3.865   2.240
  612HOH      O 2040   3.404   0.107   0.270
  612HOH     H1 2041   3.442   0.195   0.266
  612HOH     H2 2042   3.330   0.110   0.209
  613HOH      O 2043   1.225   2.221   3.986
  613HOH     H1 2044   1.182   2.268   4.058
  613HOH     H2 2045   1.187   2.260   3.907
  614HOH      O 2046   0.161   2.627   1.090
  614HOH     H1 2047   0.076   2.663   1.065
  614HOH     H2 2048   0.183   2.672   1.171
  615HOH      O 2049   0.868   3.669   1.438
  615HOH     H1 2050   0.809   3.594   1.443
  615HOH     H2 2051   0.943   3.638   1.387
  616HOH      O 2052   0.454   2.855   1.319
  616HOH     H1 2053   0.418   2.766   1.328
  616HOH     H2 2054   0.539   2.851   1.362
  617HOH      O 2055   2.172   3.847   3.193
  617HOH     H1 2056   2.164   3.915   3.259
  617HOH     H2 2057   2.176   3.894   3.109
  618HOH      O 2058   1.076   3.108   2.773
  618HOH     H1 2059   1.102   3.026   2.814
  618HOH     H2 2060   1.071   3.088   2.679
  619HOH      O 2061   3.832   2.718   3.434
  619HOH     H1 2062   3.856   2.688   3.347
  619HOH     H2 2063   3.797   2.640   3.478
  620HOH      O 2064   0.922   2.089   3.777
  620HOH     H1 2065   0.988   2.142   3.732
  620HOH     H2 2066   0.843   2.098   3.723
  621HOH      O 2067   2.391   0.458   3.515
  621HOH     H1 2068   2.298   0.480   3.504
  621HOH     H2 2069   2.392   0.362   3.525
  622HOH      O 2070   3.724   2.327   0.471
  622HOH     H1 2071   3.774   2.260   0.425
  622HOH     H2 2072   3.632   2.305   0.455
  623HOH      O 2073   1.046   1.642   3.044
  623HOH     H1 2074   1.086   1.729   3.046
  623HOH     H2 2075   0.959   1.656   3.082
  624HOH      O 2076   0.595   3.348   3.104
  624HOH     H1 2077   0.583   3.253   3.100
  624HOH     H2 2078   0.688   3.360   3.119
  625HOH      O 2079   3.259   3.859   1.252
  625HOH     H1 2080   3.195   3.858   1.323
  625HOH     H2 2081   3.232   3.933   1.196
  626HOH      O 2082   1.456   2.190   3.086
  626HOH     H1 2083   1.453   2.264   3.146
  626HOH     H2 2084   1.369   2.152   3.090
  627HOH      O 2085   1.057   2.381   3.356
  627HOH     H1 2086   1.067   2.363   3.263
  627HOH     H2 2087   0.975   2.429   3.363
  628HOH      O 2088   2.000   0.400   0.093
  628HOH     H1 2089   2.038   0.425   0.176
  628HOH     H2 2090   1.963   0.313   0.109
  629HOH      O 2091   1.717   3.338   3.422
  629HOH     H1 2092   1.672   3.385   3.352
  629HOH     H2 2093   1.808   3.366   3.415
  630HOH      O 2094   3.401   1.065   1.394
  630HOH     H1 2095   3.374   1.150   1.360
  630HOH     H2 2096   3.458   1.085   1.469
  631HOH      O 2097   2.564   0.997   2.878
  631HOH     H1 2098   2.504   0.999   2.953
  631HOH     H2 2099   2.651   0.990   2.917
  632HOH      O 2100   2.044   0.697   2.606
  632HOH     H1 2101   1.966   0.642   2.614
  632HOH     H2 2102   2.116   0.635   2.600
  633HOH      O 2103   3.786   2.153   0.716
  633HOH     H1 2104   3.797   2.234   0.667
  633HOH     H2 2105   3.875   2.125   0.737
  634HOH      O 2106   1.211   1.169   2.798
  634HOH     H1 2107   1.132   1.118   2.817
  634HOH     H2 2108   1.180   1.259   2.790
  635HOH      O 2109   2.874   3.935   1.280
  635HOH     H1 2110   2.856   3.909   1.371
  635HOH     H2 2111   2.805   3.999   1.260
  636HOH      O 2112   2.949   0.189   2.544
  636HOH     H1 2113   2.970   0.253   2.477
  636HOH     H2 2114   2.856   0.170   2.531
  637HOH      O 2115   2.034   3.893   3.566
  637HOH     H1 2116   2.071   3.959   3.506
  637HOH     H2 2117   2.020   3.941   3.648
  638HOH      O 2118   1.185   1.962   1.529
  638HOH     H1 2119   1.275   1.989   1.545
  638HOH     H2 2120   1.151   2.028   1.468
  639HOH      O 2121   1.852   1.393   3.904
  639HOH     H1 2122   1.780   1.455   3.912
  639HOH     H2 2123   1.838   1.331   3.975
  640HOH      O 2124   0.774   0.122   3.022
  640HOH     H1 2125   0.810   0.152   2.938
  640HOH     H2 2126   0.715   0.050   2.998
  641HOH      O 2127   2.898   2.408   2.187
  641HOH     H1 2128   2.868   2.440   2.272
  641HOH     H2 2129   2.883   2.481   2.127
  642HOH      O 2130   0.445   1.649   3.362
  642HOH     H1 2131   0.429   1.690   3.277
  642HOH     H2 2132   0.508   1.579   3.344
  643HOH      O 2133   3.868   0.932   0.615
  643HOH     H1 2134   3.921   0.909   0.538
  643HOH     H2 2135   3.932   0.940   0.686
  644HOH      O 2136   3.148   3.930   3.702
  644HOH     H1 2137   3.243   3.935   3.709
  644HOH     H2 2138   3.115   3.963   3.785
  645HOH      O 2139   2.816   1.431   2.467
  645HOH     H1 2140   2.834   1.508   2.521
  645HOH     H2 2141   2.784   1.467   2.385
  646HOH      O 2142   2.717   0.656   1.657
  646HOH     H1 2143   2.701   0.574   1.611
  646HOH     H2 2144   2.634   0.675   1.701
  647HOH      O 2145   2.813   2.407   1.776
  647HOH     H1 2146   2.779   2.487   1.734
  647HOH     H2 2147   2.875   2.439   1.841
  648HOH      O 2148   3.295   3.609   2.841
  648HOH     H1 2149   3.257   3.530   2.803
  648HOH     H2 2150   3.223   3.647   2.893
  649HOH      O 2151   1.112   0.905   1.512
  649HOH     H1 2152   1.059   0.881   1.588
  649HOH     H2 2153   1.050   0.904   1.439
  650HOH      O 2154   3.931   1.618   3.953
  650HOH     H1 2155   3.964   1.676   3.884
  650HOH     H2 2156   3.837   1.613   3.937
  651HOH      O 2157   1.826   2.237   1.062
  651HOH     H1 2158   1.748   2.186   1.085
  651HOH     H2 2159   1.836   2.299   1.134
  652HOH      O 2160   1.018   1.317   0.203
  652HOH     H1 2161   1.094   1.374   0.191
  652HOH     H2 2162   0.944   1.378   0.210
  653HOH      O 2163   0.857   3.307   3.207
  653HOH     H1 2164   0.881   3.236   3.267
  653HOH     H2 2165   0.855   3.385   3.262
  654HOH      O 2166   0.676   0.908   0.630
  654HOH     H1 2167   0.677   1.004   0.635
  654HOH     H2 2168   0.737   0.880   0.698
  655HOH      O 2169   2.920   1.751   0.124
  655HOH     H1 2170   2.843   1.794   0.161
  655HOH     H2 2171   2.992   1.778   0.182
  656HOH      O 2172   3.365   1.630   3.684
  656HOH     H1 2173   3.407   1.633   3.598
  656HOH     H2 2174   3.306   1.706   3.685
  657HOH      O 2175   3.190   0.076   2.326
  657HOH     H1 2176   3.216   0.092   2.235
  657HOH     H2 2177   3.126   0.144   2.345
  658HOH      O 2178   2.063   3.445   3.042
  658HOH     H1 2179   2.131   3.494   3.088
  658HOH     H2 2180   2.084   3.353   3.057
  659HOH      O 2181   3.942   0.858   3.940
  659HOH     H1 2182   3.909   0.803   3.869
  659HOH     H2 2183   4.036   0.866   3.922
  660HOH      O 2184   1.748   3.917   1.759
  660HOH     H1 2185   1.802   3.841   1.736
  660HOH     H2 2186   1.737   3.964   1.676
  661HOH      O 2187   1.651   3.561   3.231
  661HOH     H1 2188   1.686   3.615   3.302
  661HOH     H2 2189   1.593   3.620   3.182
  662HOH      O 2190   1.448   0.398   1.526
  662HOH     H1 2191   1.390   0.348   1.582
  662HOH     H2 2192   1.449   0.350   1.443
  663HOH      O 2193   3.532   0.217   3.939
  663HOH     H1 2194   3.466   0.271   3.983
  663HOH     H2 2195   3.585   0.181   4.010
  664HOH      O 2196   1.996   0.706   0.286
  664HOH     H1 2197   2.048   0.775   0.327
  664HOH     H2 2198   2.034   0.624   0.319
  665HOH      O 2199   2.622   1.284   3.571
  665HOH     H1 2200   2.681   1.309   3.642
  665HOH     H2 2201   2.655   1.329   3.494
  666HOH      O 2202   3.503   1.084   2.074
  666HOH     H1 2203   3.469   1.102   1.987
  666HOH     H2 2204   3.597   1.070   2.061
  667HOH      O 2205   3.278   3.217   0.772
  667HOH     H1 2206   3.217   3.270   0.720
  667HOH     H2 2207   3.363   3.230   0.730
  668HOH      O 2208   1.417   0.092   1.232
  668HOH     H1 2209   1.347   0.154   1.252
  668HOH     H2 2210   1.393   0.012   1.278
  669HOH      O 2211   1.859   2.631   0.412
  669HOH     H1 2212   1.764   2.618   0.406
  669HOH     H2 2213   1.896   2.544   0.398
  670HOH      O 2214   3.340   0.950   1.743
  670HOH     H1 2215   3.355   1.041   1.770
  670HOH     H2 2216   3.299   0.909   1.818
  671HOH      O 2217   3.718   2.867   3.062
  671HOH     H1 2218   3.727   2.878   2.967
  671HOH     H2 2219   3.743   2.776   3.078
  672HOH      O 2220   0.549   2.968   1.754
  672HOH     H1 2221   0.576   2.889   1.802
  672HOH     H2 2222   0.619   3.031   1.770
  673HOH      O 2223   0.238   3.211   1.295
  673HOH     H1 2224   0.260   3.164   1.375
  673HOH     H2 2225   0.302   3.180   1.231
  674HOH      O 2226   0.759   1.325   3.616
  674HOH     H1 2227   0.681   1.271   3.628
  674HOH     H2 2228   0.725   1.407   3.580
  675HOH      O 2229   1.647   0.929   0.040
  675HOH     H1 2230   1.734   0.967   0.028
  675HOH     H2 2231   1.646   0.853  -0.018
  676HOH      O 2232   1.364   3.295   1.147
  676HOH     H1 2233   1.394   3.270   1.234
  676HOH     H2 2234   1.407   3.379   1.130
  677HOH      O 2235   0.071   0.439   2.326
  677HOH     H1 2236   0.059   0.412   2.235
  677HOH     H2 2237   0.094   0.532   2.321
  678HOH      O 2238   1.022   3.309   2.964
  678HOH     H1 2239   1.029   3.240   2.898
  678HOH     H2 2240   0.945   3.284   3.016
  679HOH      O 2241   2.946   0.838   1.730
  679HOH     H1 2242   2.979   0.918   1.691
  679HOH     H2 2243   2.876   0.810   1.672
  680HOH      O 2244   2.190   2.663   1.701
  680HOH     H1 2245   2.119   2.720   1.671
  680HOH     H2 2246   2.212   2.697   1.788
  681HOH      O 2247   0.422   3.329   0.480
  681HOH     H1 2248   0.380   3.243   0.473
  681HOH     H2 2249   0.505   3.312   0.524
  682HOH      O 2250   3.753   2.571   2.223
  682HOH     H1 2251   3.714   2.565   2.310
  682HOH     H2 2252   3.832   2.517   2.227
  683HOH      O 2253   2.325   2.347   3.507
  683HOH     H1 2254   2.287   2.324   3.592
  683HOH     H2 2255   2.373   2.269   3.480
  684HOH      O 2256   2.155   1.061   1.890
  684HOH     H1 2257   2.250   1.064   1.881
  684HOH     H2 2258   2.140   1.012   1.971
  685HOH      O 2259   2.984   0.352   0.815
  685HOH     H1 2260   3.020   0.319   0.733
  685HOH     H2 2261   2.997   0.447   0.810
  686HOH      O 2262   3.200   2.948   0.783
  686HOH     H1 2263   3.229   3.039   0.768
  686HOH     H2 2264   3.105   2.953   0.781
  687HOH      O 2265   1.942   2.359   0.835
  687HOH     H1 2266   1.923   2.453   0.840
  687HOH     H2 2267   1.898   2.321   0.911
  688HOH      O 2268   2.660   3.405   2.342
  688HOH     H1 2269   2.717   3.469   2.297
  688HOH     H2 2270   2.709   3.382   2.421
  689HOH      O 2271   2.849   1.597   3.976
  689HOH     H1 2272   2.925   1.541   3.993
  689HOH     H2 2273   2.841   1.652   4.054
  690HOH      O 2274   1.775   3.906   2.989
  690HOH     H1 2275   1.796   3.920   3.081
  690HOH     H2 2276   1.812   3.982   2.944
  691HOH      O 2277   1.692   3.731   1.157
  691HOH     H1 2278   1.780   3.727   1.121
  691HOH     H2 2279   1.682   3.821   1.188
  692HOH      O 2280   3.170   3.665   0.071
  692HOH     H1 2281   3.144   3.616  -0.007
  692HOH     H2 2282   3.216   3.742   0.038
  693HOH      O 2283   3.936   1.144   1.716
  693HOH     H1 2284   3.936   1.200   1.638
  693HOH     H2 2285   3.890   1.065   1.689
  694HOH      O 2286   1.578   1.947   0.066
  694HOH     H1 2287   1.509   1.906   0.118
  694HOH     H2 2288   1.659   1.909   0.100
  695HOH      O 2289   0.833   2.748   3.124
  695HOH     H1 2290   0.840   2.672   3.067
  695HOH     H2 2291   0.768   2.722   3.190
  696HOH      O 2292   3.545   1.970   2.907
  696HOH     H1 2293   3.554   2.001   2.997
  696HOH     H2 2294   3.635   1.953   2.879
  697HOH      O 2295   1.277   3.870   1.116
  697HOH     H1 2296   1.186   3.873   1.146
  697HOH     H2 2297   1.328   3.860   1.196
  698HOH      O 2298   2.833   0.885   0.912
  698HOH     H1 2299   2.838   0.834   0.831
  698HOH     H2 2300   2.831   0.976   0.882
  699HOH      O 2301   1.212   2.969   2.266
  699HOH     H1 2302   1.139   2.948   2.208
  699HOH     H2 2303   1.290   2.960   2.211
  700HOH      O 2304   2.938   2.969   1.462
  700HOH     H1 2305   2.958   2.907   1.532
  700HOH     H2 2306   3.016   2.971   1.407
  701HOH      O 2307   0.495   0.274   3.107
  701HOH     H1 2308   0.586   0.300   3.118
  701HOH     H2 2309   0.493   0.228   3.024
  702HOH      O 2310   1.198   0.030   3.406
  702HOH     H1 2311   1.217  -0.059   3.438
  702HOH     H2 2312   1.202   0.085   3.484
  703HOH      O 2313   0.680   0.493   0.269
  703HOH     H1 2314   0.655   0.412   0.313
  703HOH     H2 2315   0.658   0.562   0.331
  704HOH      O 2316   0.095   3.003   3.422
  704HOH     H1 2317   0.173   3.007   3.366
  704HOH     H2 2318   0.087   3.091   3.458
  705HOH      O 2319   1.694   0.622   1.971
  705HOH     H1 2320   1.758   0.616   2.042
  705HOH     H2 2321   1.619   0.666   2.010
  706HOH      O 2322   3.492   3.315   0.617
  706HOH     H1 2323   3.558   3.340   0.682
  706HOH     H2 2324   3.494   3.385   0.552
  707HOH      O 2325   1.730   1.645   2.498
  707HOH     H1 2326   1.803   1.686   2.544
  707HOH     H2 2327   1.654   1.662   2.553
  708HOH      O 2328   1.326   2.371   1.739
  708HOH     H1 2329   1.325   2.295   1.797
  708HOH     H2 2330   1.417   2.381   1.713
  709HOH      O 2331   2.360   1.950   0.891
  709HOH     H1 2332   2.451   1.964   0.863
  709HOH     H2 2333   2.308   1.991   0.822
  710HOH      O 2334   1.257   1.501   1.270
  710HOH     H1 2335   1.257   1.558   1.347
  710HOH     H2 2336   1.181   1.444   1.282
  711HOH      O 2337   2.045   0.624   1.957
  711HOH     H1 2338   2.101   0.548   1.968
  711HOH     H2 2339   1.989   0.624   2.035
  712HOH      O 2340   1.086   1.955   0.161
  712HOH     H1 2341   1.011   1.968   0.103
  712HOH     H2 2342   1.156   1.926   0.103
  713HOH      O 2343   2.585   3.777   0.179
  713HOH     H1 2344   2.622   3.740   0.098
  713HOH     H2 2345   2.527   3.846   0.149
  714HOH      O 2346   3.346   2.732   0.442
  714HOH     H1 2347   3.317   2.661   0.498
  714HOH     H2 2348   3.301   2.717   0.359
  715HOH      O 2349   1.972   2.049   2.331
  715HOH     H1 2350   2.025   1.974   2.304
  715HOH     H2 2351   1.975   2.047   2.427
  716HOH      O 2352   1.232   3.936   0.348
  716HOH     H1 2353   1.172   3.909   0.278
  716HOH     H2 2354   1.308   3.970   0.301
  717HOH      O 2355   2.226   1.632   1.082
  717HOH     H1 2356   2.212   1.725   1.102
  717HOH     H2 2357   2.279   1.632   1.003
  718HOH      O 2358   0.047   2.384   0.500
  718HOH     H1 2359   0.065   2.343   0.415
  718HOH     H2 2360   0.040   2.311   0.561
  719HOH      O 2361   3.033   1.857   3.909
  719HOH     H1 2362   3.091   1.788   3.940
  719HOH     H2 2363   2.954   1.848   3.962
  720HOH      O 2364   1.662   1.551  -0.021
  720HOH     H1 2365   1.631   1.641  -0.012
  720HOH     H2 2366   1.667   1.518   0.069
  721HOH      O 2367   1.414   0.791   2.462
  721HOH     H1 2368   1.395   0.881   2.487
  721HOH     H2 2369   1.359   0.738   2.519
  722HOH      O 2370   1.948   0.262   1.258
  722HOH     H1 2371   1.889   0.271   1.183
  722HOH     H2 2372   1.898   0.296   1.332
  723HOH      O 2373   1.481   3.749   3.093
  723HOH     H1 2374   1.543   3.775   3.025
  723HOH     H2 2375   1.396   3.779   3.059
  724HOH      O 2376   3.422   2.034   3.693
  724HOH     H1 2377   3.508   2.011   3.658
  724HOH     H2 2378   3.407   1.971   3.763
  725HOH      O 2379   3.596   3.588   3.067
  725HOH     H1 2380   3.581   3.622   2.979
  725HOH     H2 2381   3.659   3.648   3.106
  726HOH      O 2382   3.423   3.847   3.207
  726HOH     H1 2383   3.383   3.839   3.294
  726HOH     H2 2384   3.503   3.796   3.213
  727HOH      O 2385   0.241   0.386   0.438
  727HOH     H1 2386   0.261   0.333   0.361
  727HOH     H2 2387   0.308   0.360   0.502
  728HOH      O 2388   2.420   1.118   2.031
  728HOH     H1 2389   2.455   1.029   2.039
  728HOH     H2 2390   2.413   1.148   2.121
  729HOH      O 2391   1.769   1.367   3.141
  729HOH     H1 2392   1.763   1.281   3.184
  729HOH     H2 2393   1.862   1.389   3.145
  730HOH      O 2394   1.651   1.587   0.949
  730HOH     H1 2395   1.722   1.627   0.899
  730HOH     H2 2396   1.665   1.617   1.039
  731HOH      O 2397   2.707   2.314   0.125
  731HOH     H1 2398   2.655   2.278   0.054
  731HOH     H2 2399   2.717   2.407   0.104
  732HOH      O 2400   1.889   2.309   2.309
  732HOH     H1 2401   1.945   2.232   2.303
  732HOH     H2 2402   1.930   2.374   2.251
  733HOH      O 2403   0.185   0.714   2.388
  733HOH     H1 2404   0.118   0.774   2.421
  733HOH     H2 2405   0.245   0.770   2.339
  734HOH      O 2406   0.182   3.622   2.191
  734HOH     H1 2407   0.111   3.640   2.129
  734HOH     H2 2408   0.241   3.563   2.145
  735HOH      O 2409   2.177   1.754   2.472
  735HOH     H1 2410   2.255   1.752   2.528
  735HOH     H2 2411   2.117   1.692   2.514
  736HOH      O 2412   1.333   2.689   0.666
  736HOH     H1 2413   1.389   2.756   0.630
  736HOH     H2 2414   1.282   2.657   0.592
  737HOH      O 2415   1.191   3.329   2.252
  737HOH     H1 2416   1.143   3.298   2.175
  737HOH     H2 2417   1.130   3.316   2.325
  738HOH      O 2418   0.039   1.713   3.102
  738HOH     H1 2419   0.043   1.729   3.196
  738HOH     H2 2420   0.076   1.792   3.062
  739HOH      O 2421   3.298   2.316   3.997
  739HOH     H1 2422   3.244   2.394   3.990
  739HOH     H2 2423   3.244   2.253   4.045
  740HOH      O 2424   1.879   2.769   3.300
  740HOH     H1 2425   1.786   2.747   3.296
  740HOH     H2 2426   1.915   2.706   3.363
  741HOH      O 2427   1.202   3.315   1.948
  741HOH     H1 2428   1.173   3.234   1.906
  741HOH     H2 2429   1.124   3.370   1.950
  742HOH      O 2430   0.387   1.268   1.970
  742HOH     H1 2431   0.349   1.306   2.050
  742HOH     H2 2432   0.423   1.184   1.998
  743HOH      O 2433   2.587   2.467   3.777
  743HOH     H1 2434   2.670   2.472   3.729
  743HOH     H2 2435   2.532   2.535   3.739
  744HOH      O 2436   1.282   1.140   0.161
  744HOH     H1 2437   1.204   1.123   0.214
  744HOH     H2 2438   1.264   1.098   0.077
  745HOH      O 2439   2.249   3.701   0.096
  745HOH     H1 2440   2.248   3.796   0.107
  745HOH     H2 2441   2.303   3.686   0.019
  746HOH      O 2442   0.839   0.833   0.853
  746HOH     H1 2443   0.917   0.864   0.899
  746HOH     H2 2444   0.838   0.739   0.869
  747HOH      O 2445   2.336   3.073   3.670
  747HOH     H1 2446   2.412   3.088   3.613
  747HOH     H2 2447   2.364   3.107   3.756
  748HOH      O 2448   1.699   2.055   2.402
  748HOH     H1 2449   1.625   2.100   2.363
  748HOH     H2 2450   1.770   2.068   2.339
  749HOH      O 2451   2.821   3.487   0.291
  749HOH     H1 2452   2.782   3.519   0.210
  749HOH     H2 2453   2.849   3.566   0.337
  750HOH      O 2454   3.822   1.334   0.148
  750HOH     H1 2455   3.853   1.286   0.071
  750HOH     H2 2456   3.788   1.416   0.113
  751HOH      O 2457   3.292   1.298   3.606
  751HOH     H1 2458   3.285   1.320   3.699
  751HOH     H2 2459   3.245   1.215   3.597
  752HOH      O 2460   1.986   1.783   3.222
  752HOH     H1 2461   2.066   1.734   3.201
  752HOH     H2 2462   1.956   1.744   3.304
  753HOH      O 2463   1.903   0.987   0.071
  753HOH     H1 2464   1.970   1.003   0.004
  753HOH     H2 2465   1.869   1.074   0.092
  754HOH      O 2466   2.687   3.037   0.358
  754HOH     H1 2467   2.719   2.965   0.304
  754HOH     H2 2468   2.657   2.995   0.438
  755HOH      O 2469   2.137   1.863   3.597
  755HOH     H1 2470   2.100   1.947   3.570
  755HOH     H2 2471   2.073   1.799   3.569
  756HOH      O 2472   2.677   3.888   2.627
  756HOH     H1 2473   2.663   3.838   2.547
  756HOH     H2 2474   2.748   3.842   2.672
  757HOH      O 2475   3.185   1.162   0.064
  757HOH     H1 2476   3.272   1.199   0.076
  757HOH     H2 2477   3.139   1.183   0.146
  758HOH      O 2478   0.374   3.751   3.613
  758HOH     H1 2479   0.454   3.800   3.631
  758HOH     H2 2480   0.309   3.789   3.672
  759HOH      O 2481   2.222   0.336   1.269
  759HOH     H1 2482   2.235   0.312   1.361
  759HOH     H2 2483   2.131   0.312   1.251
  760HOH      O 2484   1.056   2.966   1.335
  760HOH     H1 2485   1.084   3.004   1.419
  760HOH     H2 2486   0.970   3.005   1.319
  761HOH      O 2487   3.423   3.895   3.711
  761HOH     H1 2488   3.467   3.811   3.704
  761HOH     H2 2489   3.488   3.959   3.681
  762HOH      O 2490   1.650   0.132   2.171
  762HOH     H1 2491   1.667   0.225   2.180
  762HOH     H2 2492   1.647   0.117   2.076
  763HOH      O 2493   3.996   0.823   2.514
  763HOH     H1 2494   3.933   0.761   2.549
  763HOH     H2 2495   3.943   0.887   2.465
  764HOH      O 2496   2.023   3.905   0.483
  764HOH     H1 2497   2.106   3.880   0.442
  764HOH     H2 2498   2.035   3.883   0.576
  765HOH      O 2499   0.699   3.388   2.457
  765HOH     H1 2500   0.674   3.451   2.389
  765HOH     H2 2501   0.662   3.305   2.427
  766HOH      O 2502   2.436   1.177   1.596
  766HOH     H1 2503   2.470   1.179   1.685
  766HOH     H2 2504   2.500   1.224   1.544
  767HOH      O 2505   3.110   2.207   2.288
  767HOH     H1 2506   3.087   2.114   2.282
  767HOH     H2 2507   3.046   2.251   2.232
  768HOH      O 2508   0.665   0.543   3.170
  768HOH     H1 2509   0.579   0.577   3.144
  768HOH     H2 2510   0.725   0.615   3.153
  769HOH      O 2511   1.879   2.567   3.974
  769HOH     H1 2512   1.907   2.589   4.063
  769HOH     H2 2513   1.873   2.472   3.974
  770HOH      O 2514   2.400   3.495   3.666
  770HOH     H1 2515   2.320   3.446   3.688
  770HOH     H2 2516   2.392   3.512   3.572
  771HOH      O 2517   0.357   2.688   3.859
  771HOH     H1 2518   0.383   2.766   3.812
  771HOH     H2 2519   0.408   2.689   3.940
  772HOH      O 2520   3.451   0.316   3.312
  772HOH     H1 2521   3.403   0.296   3.231
  772HOH     H2 2522   3.385   0.351   3.372
  773HOH      O 2523   3.101   2.354   1.559
  773HOH     H1 2524   3.019   2.306   1.570
  773HOH     H2 2525   3.111   2.403   1.641
  774HOH      O 2526   2.177   0.109   0.036
  774HOH     H1 2527   2.135   0.023   0.041
  774HOH     H2 2528   2.137   0.151  -0.040
  775HOH      O 2529   2.582   2.322   1.475
  775HOH     H1 2530   2.519   2.369   1.530
  775HOH     H2 2531   2.615   2.389   1.415
  776HOH      O 2532   2.225   3.153   0.100
  776HOH     H1 2533   2.244   3.063   0.073
  776HOH     H2 2534   2.305   3.182   0.143
  777HOH      O 2535   1.826   1.137   2.264
  777HOH     H1 2536   1.764   1.096   2.323
  777HOH     H2 2537   1.912   1.118   2.301
  778HOH      O 2538   3.721   1.829   1.335
  778HOH     H1 2539   3.708   1.924   1.330
  778HOH     H2 2540   3.799   1.812   1.282
  779HOH      O 2541   0.466   2.975   2.382
  779HOH     H1 2542   0.535   2.909   2.393
  779HOH     H2 2543   0.405   2.958   2.454
  780HOH      O 2544   0.853   0.523   1.329
  780HOH     H1 2545   0.780   0.585   1.323
  780HOH     H2 2546   0.829   0.466   1.403
  781HOH      O 2547   2.549   0.921   0.177
  781HOH     H1 2548   2.583   1.002   0.215
  781HOH     H2 2549   2.622   0.885   0.128
  782HOH      O 2550   1.397   3.963   0.038
  782HOH     H1 2551   1.419   4.013  -0.041
  782HOH     H2 2552   1.419   4.022   0.110
  783HOH      O 2553   2.637   0.219   0.823
  783HOH     H1 2554   2.692   0.210   0.900
  783HOH     H2 2555   2.666   0.150   0.764
  784HOH      O 2556   3.430   0.716   0.758
  784HOH     H1 2557   3.377   0.650   0.803
  784HOH     H2 2558   3.461   0.775   0.827
  785HOH      O 2559   2.726   1.588   2.227
  785HOH     H1 2560   2.722   1.528   2.152
  785HOH     H2 2561   2.661   1.656   2.207
  786HOH      O 2562   0.551   2.383   0.949
  786HOH     H1 2563   0.633   2.334   0.952
  786HOH     H2 2564   0.483   2.316   0.939
  787HOH      O 2565   1.502   1.401   3.862
  787HOH     H1 2566   1.528   1.311   3.840
  787HOH     H2 2567   1.568   1.431   3.924
  788HOH      O 2568   2.652   2.597   0.167
  788HOH     H1 2569   2.663   2.691   0.180
  788HOH     H2 2570   2.631   2.562   0.254
  789HOH      O 2571   1.670   0.966   2.411
  789HOH     H1 2572   1.609   0.913   2.360
  789HOH     H2 2573   1.747   0.910   2.420
  790HOH      O 2574   2.376   0.910   2.407
  790HOH     H1 2575   2.363   0.977   2.474
  790HOH     H2 2576   2.300   0.918   2.349
  791HOH      O 2577   1.228   3.332   3.140
  791HOH     H1 2578   1.223   3.278   3.219
  791HOH     H2 2579   1.161   3.295   3.082
  792HOH      O 2580   1.539   1.472   1.499
  792HOH     H1 2581   1.470   1.416   1.534
  792HOH     H2 2582   1.618   1.418   1.504
  793HOH      O 2583   1.263   3.182   3.394
  793HOH     H1 2584   1.345   3.137   3.377
  793HOH     H2 2585   1.275   3.224   3.479
  794HOH      O 2586   0.300   2.773   0.878
  794HOH     H1 2587   0.395   2.772   0.864
  794HOH     H2 2588   0.287   2.720   0.957
  795HOH      O 2589   0.026   2.076   0.075
  795HOH     H1 2590  -0.041   2.089   0.008
  795HOH     H2 2591   0.024   1.982   0.093
  796HOH      O 2592   0.831   3.692   0.185
  796HOH     H1 2593   0.759   3.751   0.164
  796HOH     H2 2594   0.838   3.694   0.280
  797HOH      O 2595   2.631   1.959   1.636
  797HOH     H1 2596   2.683   1.975   1.557
  797HOH     H2 2597   2.551   2.011   1.623
  798HOH      O 2598   3.114   1.331   0.583
  798HOH     H1 2599   3.111   1.312   0.489
  798HOH     H2 2600   3.143   1.249   0.623
  799HOH      O 2601   2.588   2.588   1.429
  799HOH     H1 2602   2.606   2.640   1.350
  799HOH     H2 2603   2.494   2.575   1.428
  800HOH      O 2604   3.810   2.508   0.662
  800HOH     H1 2605   3.776   2.460   0.587
  800HOH     H2 2606   3.896   2.539   0.634
  801HOH      O 2607   0.764   3.932   2.561
  801HOH     H1 2608   0.786   4.024   2.551
  801HOH     H2 2609   0.669   3.928   2.548
  802HOH      O 2610   3.661   1.503   0.496
  802HOH     H1 2611   3.750   1.472   0.511
  802HOH     H2 2612   3.610   1.424   0.480
  803HOH      O 2613   3.320   3.671   2.342
  803HOH     H1 2614   3.390   3.676   2.276
  803HOH     H2 2615   3.345   3.736   2.408
  804HOH      O 2616   2.078   0.419   2.648
  804HOH     H1 2617   1.989   0.393   2.674
  804HOH     H2 2618   2.079   0.406   2.553
  805HOH      O 2619   0.386   0.489   1.315
  805HOH     H1 2620   0.327   0.565   1.319
  805HOH     H2 2621   0.368   0.441   1.396
  806HOH      O 2622   2.675   0.859   2.420
  806HOH     H1 2623   2.581   0.849   2.409
  806HOH     H2 2624   2.685   0.941   2.468
  807HOH      O 2625   2.487   1.326   0.422
  807HOH     H1 2626   2.438   1.251   0.388
  807HOH     H2 2627   2.471   1.396   0.358
  808HOH      O 2628   0.495   3.850   0.382
  808HOH     H1 2629   0.525   3.768   0.421
  808HOH     H2 2630   0.404   3.859   0.413
  809HOH      O 2631   2.417   3.271   2.843
  809HOH     H1 2632   2.376   3.351   2.877
  809HOH     H2 2633   2.474   3.241   2.914
  810HOH      O 2634   0.012   2.553   3.583
  810HOH     H1 2635   0.068   2.627   3.562
  810HOH     H2 2636  -0.077   2.590   3.583
  811HOH      O 2637   0.163   2.124   1.286
  811HOH     H1 2638   0.179   2.197   1.227
  811HOH     H2 2639   0.110   2.162   1.357
  812HOH      O 2640   1.708   2.006   1.936
  812HOH     H1 2641   1.773   1.940   1.959
  812HOH     H2 2642   1.760   2.078   1.899
  813HOH      O 2643  -0.017   2.810   3.833
  813HOH     H1 2644  -0.027   2.854   3.748
  813HOH     H2 2645   0.047   2.741   3.816
  814HOH      O 2646   2.728   1.612   3.633
  814HOH     H1 2647   2.798   1.616   3.699
  814HOH     H2 2648   2.773   1.583   3.554
  815HOH      O 2649   0.587   2.421   3.224
  815HOH     H1 2650   0.525   2.448   3.156
  815HOH     H2 2651   0.534   2.377   3.289
  816HOH      O 2652   2.287   3.381   1.476
  816HOH     H1 2653   2.302   3.304   1.532
  816HOH     H2 2654   2.288   3.455   1.537
  817HOH      O 2655   3.526   4.044   0.874
  817HOH     H1 2656   3.442   4.013   0.909
  817HOH     H2 2657   3.592   4.009   0.934
  818HOH      O 2658   1.890   2.342   0.393
  818HOH     H1 2659   1.924   2.257   0.421
  818HOH     H2 2660   1.870   2.330   0.300
  819HOH      O 2661   0.384   2.161   1.461
  819HOH     H1 2662   0.437   2.179   1.383
  819HOH     H2 2663   0.329   2.087   1.435
  820HOH      O 2664   0.642   1.591   3.574
  820HOH     H1 2665   0.578   1.615   3.507
  820HOH     H2 2666   0.623   1.647   3.648
  821HOH      O 2667   2.447   0.418   1.014
  821HOH     H1 2668   2.468   0.324   1.013
  821HOH     H2 2669   2.505   0.456   0.948
  822HOH      O 2670   0.003   2.697   2.277
  822HOH     H1 2671  -0.023   2.623   2.332
  822HOH     H2 2672   0.098   2.702   2.286
  823HOH      O 2673   3.044   1.063   1.667
  823HOH     H1 2674   3.002   1.119   1.732
  823HOH     H2 2675   3.133   1.098   1.660
  824HOH      O 2676   2.555   2.245   3.968
  824HOH     H1 2677   2.560   2.323   3.912
  824HOH     H2 2678   2.559   2.172   3.906
  825HOH      O 2679   0.497   3.866   2.452
  825HOH     H1 2680   0.503   3.912   2.368
  825HOH     H2 2681   0.434   3.796   2.436
  826HOH      O 2682   3.718   3.510   3.581
  826HOH     H1 2683   3.659   3.577   3.615
  826HOH     H2 2684   3.703   3.434   3.638
  827HOH      O 2685   3.022   2.396   3.075
  827HOH     H1 2686   3.022   2.302   3.054
  827HOH     H2 2687   3.037   2.439   2.991
  828HOH      O 2688   1.512   0.917   1.752
  828HOH     H1 2689   1.520   0.831   1.711
  828HOH     H2 2690   1.576   0.917   1.823
  829HOH      O 2691   3.850   2.297   1.677
  829HOH     H1 2692   3.918   2.326   1.739
  829HOH     H2 2693   3.833   2.206   1.701
  830HOH      O 2694   3.966   3.002   4.026
  830HOH     H1 2695   3.988   2.930   3.967
  830HOH     H2 2696   4.030   3.070   4.005
  831HOH      O 2697   0.006   3.728   1.683
  831HOH     H1 2698   0.084   3.781   1.670
  831HOH     H2 2699  -0.028   3.757   1.768
  832HOH      O 2700   1.752   2.982   0.251
  832HOH     H1 2701   1.721   2.901   0.293
  832HOH     H2 2702   1.833   3.003   0.296
  833HOH      O 2703   0.194   2.780   3.552
  833HOH     H1 2704   0.263   2.829   3.596
  833HOH     H2 2705   0.147   2.846   3.502
  834HOH      O 2706   1.355   1.922   3.719
  834HOH     H1 2707   1.358   2.015   3.696
  834HOH     H2 2708   1.380   1.876   3.639
  835HOH      O 2709   0.756   3.085   2.823
  835HOH     H1 2710   0.806   3.063   2.744
  835HOH     H2 2711   0.819   3.075   2.895
  836HOH      O 2712   3.539   0.806   0.319
  836HOH     H1 2713   3.590   0.863   0.376
  836HOH     H2 2714   3.558   0.838   0.230
  837HOH      O 2715   2.558   0.344   3.311
  837HOH     H1 2716   2.519   0.408   3.251
  837HOH     H2 2717   2.618   0.395   3.365
  838HOH      O 2718   4.014   2.654   0.185
  838HOH     H1 2719   3.950   2.597   0.226
  838HOH     H2 2720   3.969   2.689   0.108
  839HOH      O 2721   3.398   0.535   2.803
  839HOH     H1 2722   3.310   0.502   2.823
  839HOH     H2 2723   3.417   0.501   2.716
  840HOH      O 2724   0.830   0.184   3.272
  840HOH     H1 2725   0.926   0.179   3.278
  840HOH     H2 2726   0.809   0.145   3.187
  841HOH      O 2727   1.582   0.168   1.841
  841HOH     H1 2728   1.509   0.222   1.810
  841HOH     H2 2729   1.585   0.094   1.782
  842HOH      O 2730   0.151   4.022   3.106
  842HOH     H1 2731   0.227   3.977   3.142
  842HOH     H2 2732   0.091   4.031   3.180
  843HOH      O 2733   3.582   1.891   0.414
  843HOH     H1 2734   3.489   1.868   0.417
  843HOH     H2 2735   3.602   1.923   0.502
  844HOH      O 2736   3.115   0.526   1.299
  844HOH     H1 2737   3.045   0.590   1.283
  844HOH     H2 2738   3.173   0.570   1.361
  845HOH      O 2739   2.347   1.000   2.700
  845HOH     H1 2740   2.426   1.018   2.751
  845HOH     H2 2741   2.320   0.912   2.727
  846HOH      O 2742   1.563   2.500   2.621
  846HOH     H1 2743   1.513   2.467   2.696
  846HOH     H2 2744   1.626   2.431   2.602
  847HOH      O 2745   2.695   1.937   3.376
  847HOH     H1 2746   2.748   1.860   3.356
  847HOH     H2 2747   2.690   1.939   3.471
  848HOH      O 2748   1.573   0.603   3.469
  848HOH     H1 2749   1.500   0.642   3.421
  848HOH     H2 2750   1.542   0.516   3.494
  849HOH      O 2751   2.591   1.326   1.456
  849HOH     H1 2752   2.676   1.290   1.432
  849HOH     H2 2753   2.539   1.320   1.376
  850HOH      O 2754   1.271   0.252   1.717
  850HOH     H1 2755   1.179   0.228   1.707
  850HOH     H2 2756   1.275   0.298   1.801
  851HOH      O 2757   4.015   0.258   1.686
  851HOH     H1 2758   3.953   0.282   1.617
  851HOH     H2 2759   4.085   0.212   1.639
  852HOH      O 2760   3.316   1.044   0.400
  852HOH     H1 2761   3.337   1.027   0.492
  852HOH     H2 2762   3.399   1.072   0.361
  853HOH      O 2763   3.982   2.967   3.075
  853HOH     H1 2764   3.967   2.877   3.101
  853HOH     H2 2765   3.919   2.983   3.005
  854HOH      O 2766   1.422   0.090   0.263
  854HOH     H1 2767   1.340   0.133   0.287
  854HOH     H2 2768   1.472   0.157   0.216
  855HOH      O 2769   3.746   2.740   3.930
  855HOH     H1 2770   3.695   2.756   3.851
  855HOH     H2 2771   3.837   2.744   3.900
  856HOH      O 2772   3.009   1.664   3.561
  856HOH     H1 2773   3.045   1.750   3.582
  856HOH     H2 2774   3.032   1.650   3.469
  857HOH      O 2775   0.404   0.724   0.023
  857HOH     H1 2776   0.400   0.804   0.076
  857HOH     H2 2777   0.373   0.655   0.082
  858HOH      O 2778   3.066   3.334   2.992
  858HOH     H1 2779   3.144   3.283   2.972
  858HOH     H2 2780   3.098   3.405   3.049
  859HOH      O 2781   3.694   3.847   2.959
  859HOH     H1 2782   3.699   3.770   2.902
  859HOH     H2 2783   3.784   3.877   2.967
  860HOH      O 2784   0.153   3.453   0.242
  860HOH     H1 2785   0.071   3.414   0.212
  860HOH     H2 2786   0.166   3.417   0.330
  861HOH      O 2787   0.670   0.332   3.432
  861HOH     H1 2788   0.708   0.415   3.403
  861HOH     H2 2789   0.710   0.266   3.375
  862HOH      O 2790   1.079   2.241   3.596
  862HOH     H1 2791   1.058   2.280   3.510
  862HOH     H2 2792   1.104   2.151   3.576
  863HOH      O 2793   3.469   2.591   1.793
  863HOH     H1 2794   3.551   2.593   1.743
  863HOH     H2 2795   3.492   2.626   1.879
  864HOH      O 2796   2.283   3.519   2.907
  864HOH     H1 2797   2.189   3.517   2.894
  864HOH     H2 2798   2.295   3.551   2.996
  865HOH      O 2799   2.225   1.959   2.080
  865HOH     H1 2800   2.267   1.922   2.002
  865HOH     H2 2801   2.158   1.895   2.104
  866HOH      O 2802   1.415   3.937   2.575
  866HOH     H1 2803   1.464   3.945   2.493
  866HOH     H2 2804   1.337   3.885   2.552
  867HOH      O 2805   3.818   2.778   2.573
  867HOH     H1 2806   3.903   2.816   2.553
  867HOH     H2 2807   3.756   2.829   2.521
  868HOH      O 2808   2.181   3.199   1.005
  868HOH     H1 2809   2.206   3.290   1.021
  868HOH     H2 2810   2.177   3.160   1.092
  869HOH      O 2811   3.337   1.156   3.201
  869HOH     H1 2812   3.377   1.101   3.134
  869HOH     H2 2813   3.381   1.132   3.282
  870HOH      O 2814   2.289   2.589   1.472
  870HOH     H1 2815   2.251   2.616   1.555
  870HOH     H2 2816   2.280   2.666   1.416
  871HOH      O 2817   2.109   2.012   3.112
  871HOH     H1 2818   2.055   1.963   3.174
  871HOH     H2 2819   2.085   2.103   3.126
  872HOH      O 2820   0.721   1.400   0.235
  872HOH     H1 2821   0.690   1.324   0.284
  872HOH     H2 2822   0.704   1.377   0.143
  873HOH      O 2823   2.200   0.143   1.853
  873HOH     H1 2824   2.155   0.127   1.770
  873HOH     H2 2825   2.132   0.141   1.919
  874HOH      O 2826   3.589   1.945   1.961
  874HOH     H1 2827   3.598   1.854   1.936
  874HOH     H2 2828   3.604   1.946   2.056
  875HOH      O 2829   0.548   2.737   2.558
  875HOH     H1 2830   0.631   2.690   2.568
  875HOH     H2 2831   0.548   2.801   2.630
  876HOH      O 2832   1.841   3.104   3.814
  876HOH     H1 2833   1.928   3.102   3.854
  876HOH     H2 2834   1.850   3.049   3.736
  877HOH      O 2835   3.248   1.243   1.629
  877HOH     H1 2836   3.340   1.253   1.652
  877HOH     H2 2837   3.243   1.275   1.539
  878HOH      O 2838   3.641   3.454   3.332
  878HOH     H1 2839   3.675   3.473   3.419
  878HOH     H2 2840   3.663   3.532   3.281
  879HOH      O 2841   3.208   2.208   3.555
  879HOH     H1 2842   3.267   2.215   3.630
  879HOH     H2 2843   3.265   2.221   3.479
  880HOH      O 2844   2.028   2.429   1.680
  880HOH     H1 2845   2.077   2.512   1.670
  880HOH     H2 2846   2.094   2.367   1.709
  881HOH      O 2847   2.562   1.427   2.076
  881HOH     H1 2848   2.504   1.386   2.140
  881HOH     H2 2849   2.522   1.406   1.991
  882HOH      O 2850   1.185   3.804   2.549
  882HOH     H1 2851   1.104   3.833   2.591
  882HOH     H2 2852   1.215   3.732   2.604
  883HOH      O 2853   3.266   0.991   2.615
  883HOH     H1 2854   3.316   0.913   2.639
  883HOH     H2 2855   3.249   0.981   2.522
  884HOH      O 2856   1.346   2.526   2.820
  884HOH     H1 2857   1.253   2.547   2.820
  884HOH     H2 2858   1.357   2.464   2.892
  885HOH      O 2859   3.602   2.680   0.104
  885HOH     H1 2860   3.667   2.706   0.170
  885HOH     H2 2861   3.637   2.715   0.022
  886HOH      O 2862   3.020   1.472   0.272
  886HOH     H1 2863   3.041   1.465   0.179
  886HOH     H2 2864   2.941   1.525   0.274
  887HOH      O 2865   0.503   3.000   0.729
  887HOH     H1 2866   0.518   2.975   0.638
  887HOH     H2 2867   0.575   2.958   0.778
  888HOH      O 2868   0.165   3.142   3.101
  888HOH     H1 2869   0.113   3.215   3.068
  888HOH     H2 2870   0.106   3.067   3.095
  889HOH      O 2871   1.227   1.064   3.698
  889HOH     H1 2872   1.133   1.073   3.686
  889HOH     H2 2873   1.264   1.147   3.669
  890HOH      O 2874   3.180   2.851   3.897
  890HOH     H1 2875   3.191   2.899   3.816
  890HOH     H2 2876   3.256   2.793   3.902
  891HOH      O 2877   1.278   3.519   1.763
  891HOH     H1 2878   1.284   3.480   1.675
  891HOH     H2 2879   1.272   3.444   1.822
  892HOH      O 2880   0.474   3.543   1.391
  892HOH     H1 2881   0.388   3.512   1.362
  892HOH     H2 2882   0.466   3.638   1.391
  893HOH      O 2883   2.389   2.180   0.567
  893HOH     H1 2884   2.341   2.236   0.629
  893HOH     H2 2885   2.479   2.184   0.598
  894HOH      O 2886   2.487   3.923   1.505
  894HOH     H1 2887   2.479   3.913   1.410
  894HOH     H2 2888   2.441   3.847   1.541
  895HOH      O 2889   3.795   3.489   1.378
  895HOH     H1 2890   3.805   3.394   1.367
  895HOH     H2 2891   3.878   3.517   1.417
  896HOH      O 2892   0.023   2.242   2.870
  896HOH     H1 2893   0.090   2.268   2.933
  896HOH     H2 2894   0.036   2.300   2.796
  897HOH      O 2895   3.317   3.371   3.982
  897HOH     H1 2896   3.383   3.398   4.045
  897HOH     H2 2897   3.315   3.276   3.988
  898HOH      O 2898   2.411   3.924   2.672
  898HOH     H1 2899   2.400   3.982   2.597
  898HOH     H2 2900   2.505   3.911   2.680
  899HOH      O 2901   3.394   2.157   3.366
  899HOH     H1 2902   3.382   2.085   3.304
  899HOH     H2 2903   3.476   2.136   3.412
  900HOH      O 2904   0.097   0.457   3.961
  900HOH     H1 2905   0.035   0.441   3.890
  900HOH     H2 2906   0.167   0.509   3.921
  901HOH      O 2907   2.858   2.985   3.357
  901HOH     H1 2908   2.919   2.914   3.380
  901HOH     H2 2909   2.911   3.064   3.361
  902HOH      O 2910   1.304   2.683   2.533
  902HOH     H1 2911   1.214   2.698   2.562
  902HOH     H2 2912   1.338   2.616   2.592
  903HOH      O 2913   3.221   3.352   0.313
  903HOH     H1 2914   3.195   3.305   0.233
  903HOH     H2 2915   3.205   3.444   0.294
  904HOH      O 2916   3.360   3.346   2.641
  904HOH     H1 2917   3.452   3.323   2.654
  904HOH     H2 2918   3.311   3.271   2.676
  905HOH      O 2919   3.016   3.495   1.398
  905HOH     H1 2920   3.056   3.560   1.455
  905HOH     H2 2921   3.009   3.416   1.453
  906HOH      O 2922   1.841   3.428   0.698
  906HOH     H1 2923   1.914   3.487   0.678
  906HOH     H2 2924   1.809   3.459   0.783
  907HOH      O 2925   3.377   2.929   2.371
  907HOH     H1 2926   3.343   2.877   2.299
  907HOH     H2 2927   3.395   3.015   2.332
  908HOH      O 2928   0.789   3.700   0.458
  908HOH     H1 2929   0.718   3.720   0.518
  908HOH     H2 2930   0.867   3.695   0.513
  909HOH      O 2931   1.979   3.139   1.414
  909HOH     H1 2932   2.035   3.178   1.347
  909HOH     H2 2933   1.933   3.214   1.454
  910HOH      O 2934   2.979   0.828   0.337
  910HOH     H1 2935   2.972   0.732   0.333
  910HOH     H2 2936   3.036   0.845   0.412
  911HOH      O 2937   2.009   3.036   1.804
  911HOH     H1 2938   2.011   3.126   1.838
  911HOH     H2 2939   1.938   3.037   1.739
  912HOH      O 2940   2.003   1.450   3.097
  912HOH     H1 2941   2.059   1.477   3.170
  912HOH     H2 2942   2.062   1.410   3.034
  913HOH      O 2943   0.244   3.529   1.271
  913HOH     H1 2944   0.211   3.526   1.181
  913HOH     H2 2945   0.229   3.441   1.305
  914HOH      O 2946   0.972   3.521   1.254
  914HOH     H1 2947   1.007   3.439   1.287
  914HOH     H2 2948   0.882   3.501   1.229
  915HOH      O 2949   2.125   1.086   3.974
  915HOH     H1 2950   2.196   1.031   3.939
  915HOH     H2 2951   2.159   1.117   4.058
  916HOH      O 2952   1.759   1.290   1.611
  916HOH     H1 2953   1.828   1.238   1.652
  916HOH     H2 2954   1.690   1.227   1.590
  917HOH      O 2955   3.013   1.790   1.214
  917HOH     H1 2956   2.952   1.723   1.183
  917HOH     H2 2957   3.048   1.754   1.296
  918HOH      O 2958   2.620   0.164   2.581
  918HOH     H1 2959   2.659   0.181   2.667
  918HOH     H2 2960   2.526   0.158   2.598
  919HOH      O 2961   2.795   0.528   0.955
  919HOH     H1 2962   2.824   0.594   1.019
  919HOH     H2 2963   2.822   0.445   0.994
  920HOH      O 2964   0.779   0.767   1.498
  920HOH     H1 2965   0.813   0.757   1.587
  920HOH     H2 2966   0.684   0.767   1.509
  921HOH      O 2967   3.721   2.216   3.735
  921HOH     H1 2968   3.696   2.295   3.783
  921HOH     H2 2969   3.793   2.179   3.786
  922HOH      O 2970   2.112   1.415   3.436
  922HOH     H1 2971   2.202   1.404   3.468
  922HOH     H2 2972   2.068   1.466   3.503
  923HOH      O 2973   1.307   1.386   0.815
  923HOH     H1 2974   1.401   1.393   0.798
  923HOH     H2 2975   1.278   1.476   0.826
  924HOH      O 2976   3.594   2.948   3.534
  924HOH     H1 2977   3.576   2.898   3.454
  924HOH     H2 2978   3.621   3.034   3.502
  925HOH      O 2979   2.127   0.801   0.748
  925HOH     H1 2980   2.144   0.814   0.842
  925HOH     H2 2981   2.191   0.857   0.704
  926HOH      O 2982   3.214   1.614   0.513
  926HOH     H1 2983   3.272   1.655   0.577
  926HOH     H2 2984   3.273   1.568   0.453
  927HOH      O 2985   2.446   1.734   3.715
  927HOH     H1 2986   2.526   1.692   3.682
  927HOH     H2 2987   2.445   1.820   3.672
  928HOH      O 2988   3.749   1.410   2.310
  928HOH     H1 2989   3.708   1.497   2.306
  928HOH     H2 2990   3.838   1.428   2.339
  929HOH      O 2991   3.176   1.453   2.331
  929HOH     H1 2992   3.246   1.517   2.315
  929HOH     H2 2993   3.184   1.432   2.424
  930HOH      O 2994   1.626   1.611   3.291
  930HOH     H1 2995   1.684   1.581   3.221
  930HOH     H2 2996   1.539   1.614   3.251
  931HOH      O 2997   1.281   2.112   0.425
  931HOH     H1 2998   1.343   2.115   0.498
  931HOH     H2 2999   1.336   2.120   0.347
  932HOH      O 3000   3.957   0.137   2.710
  932HOH     H1 3001   4.051   0.149   2.723
  932HOH     H2 3002   3.917   0.215   2.748
  933HOH      O 3003   2.141   3.179   2.622
  933HOH     H1 3004   2.208   3.243   2.600
  933HOH     H2 3005   2.073   3.229   2.666
  934HOH      O 3006   0.917   3.570   3.316
  934HOH     H1 3007   0.877   3.581   3.403
  934HOH     H2 3008   1.007   3.598   3.328
  935HOH      O 3009   2.797   0.457   3.411
  935HOH     H1 3010   2.864   0.440   3.346
  935HOH     H2 3011   2.827   0.413   3.490
  936HOH      O 3012   2.972   2.031   1.105
  936HOH     H1 3013   2.980   1.947   1.150
  936HOH     H2 3014   2.971   2.096   1.176
  937HOH      O 3015   2.722   2.846   1.774
  937HOH     H1 3016   2.699   2.755   1.790
  937HOH     H2 3017   2.639   2.893   1.776
  938HOH      O 3018   1.843   1.717   3.897
  938HOH     H1 3019   1.824   1.653   3.965
  938HOH     H2 3020   1.764   1.720   3.844
  939HOH      O 3021   2.659   3.674   3.313
  939HOH     H1 3022   2.720   3.700   3.245
  939HOH     H2 3023   2.590   3.741   3.311
  940HOH      O 3024   1.584   3.068   3.129
  940HOH     H1 3025   1.537   3.150   3.111
  940HOH     H2 3026   1.593   3.066   3.225
  941HOH      O 3027   2.116   2.305   0.637
  941HOH     H1 3028   2.059   2.327   0.711
  941HOH     H2 3029   2.074   2.347   0.562
  942HOH      O 3030   2.585   3.078   3.851
  942HOH     H1 3031   2.523   3.011   3.881
  942HOH     H2 3032   2.544   3.160   3.877
  943HOH      O 3033   1.549   1.668   2.938
  943HOH     H1 3034   1.495   1.675   3.017
  943HOH     H2 3035   1.610   1.742   2.944
  944HOH      O 3036   2.666   0.620   0.483
  944HOH     H1 3037   2.691   0.529   0.503
  944HOH     H2 3038   2.696   0.633   0.393
  945HOH      O 3039   2.814   0.401   2.982
  945HOH     H1 3040   2.802   0.306   2.979
  945HOH     H2 3041   2.730   0.436   2.950
  946HOH      O 3042   1.484   0.653   1.627
  946HOH     H1 3043   1.439   0.728   1.587
  946HOH     H2 3044   1.452   0.577   1.578
  947HOH      O 3045   0.207   3.148   0.067
  947HOH     H1 3046   0.266   3.132   0.141
  947HOH     H2 3047   0.264   3.177  -0.003
  948HOH      O 3048   1.848   2.398   1.287
  948HOH     H1 3049   1.890   2.351   1.359
  948HOH     H2 3050   1.790   2.461   1.330
  949HOH      O 3051   3.199   1.894   3.663
  949HOH     H1 3052   3.158   1.906   3.749
  949HOH     H2 3053   3.273   1.955   3.663
  950HOH      O 3054   1.681   4.006   1.201
  950HOH     H1 3055   1.734   4.078   1.167
  950HOH     H2 3056   1.590   4.032   1.183
  951HOH      O 3057   0.146   2.253   0.272
  951HOH     H1 3058   0.193   2.190   0.327
  951HOH     H2 3059   0.128   2.205   0.191
  952HOH      O 3060   0.399   0.818   2.237
  952HOH     H1 3061   0.389   0.815   2.142
  952HOH     H2 3062   0.427   0.908   2.255
  953HOH      O 3063   1.738  -0.003   3.958
  953HOH     H1 3064   1.691  -0.058   3.896
  953HOH     H2 3065   1.675   0.063   3.984
  954HOH      O 3066   2.372   2.127   2.832
  954HOH     H1 3067   2.439   2.112   2.765
  954HOH     H2 3068   2.370   2.222   2.842
  955HOH      O 3069   2.787   2.626   2.037
  955HOH     H1 3070   2.861   2.686   2.046
  955HOH     H2 3071   2.712   2.677   2.065
  956HOH      O 3072   1.041   3.491   2.633
  956HOH     H1 3073   1.085   3.482   2.549
  956HOH     H2 3074   1.112   3.495   2.697
  957HOH      O 3075   3.714   0.458   1.566
  957HOH     H1 3076   3.653   0.523   1.533
  957HOH     H2 3077   3.761   0.426   1.489
  958HOH      O 3078   2.728   0.548   0.208
  958HOH     H1 3079   2.708   0.629   0.160
  958HOH     H2 3080   2.670   0.483   0.169
  959HOH      O 3081   2.918   1.813   0.823
  959HOH     H1 3082   2.849   1.802   0.887
  959HOH     H2 3083   2.897   1.750   0.754
  960HOH      O 3084   0.125   1.452   3.077
  960HOH     H1 3085   0.105   1.544   3.059
  960HOH     H2 3086   0.062   1.403   3.025
  961HOH      O 3087   3.002   1.305   3.425
  961HOH     H1 3088   3.022   1.220   3.463
  961HOH     H2 3089   3.009   1.292   3.330
  962HOH      O 3090   3.930   1.602   2.143
  962HOH     H1 3091   3.992   1.559   2.085
  962HOH     H2 3092   3.944   1.562   2.229
  963HOH      O 3093   1.507   3.246   1.986
  963HOH     H1 3094   1.497   3.322   2.043
  963HOH     H2 3095   1.458   3.176   2.030
  964HOH      O 3096   3.542   2.692   2.030
  964HOH     H1 3097   3.602   2.764   2.014
  964HOH     H2 3098   3.597   2.621   2.063
  965HOH      O 3099   0.220   2.563   0.273
  965HOH     H1 3100   0.207   2.470   0.287
  965HOH     H2 3101   0.136   2.595   0.240
  966HOH      O 3102   0.144   2.524   3.847
  966HOH     H1 3103   0.114   2.546   3.759
  966HOH     H2 3104   0.233   2.561   3.852
  967HOH      O 3105   1.775   3.777   3.475
  967HOH     H1 3106   1.860   3.770   3.518
  967HOH     H2 3107   1.719   3.715   3.522
  968HOH      O 3108   3.062   3.508   2.698
  968HOH     H1 3109   2.976   3.466   2.701
  968HOH     H2 3110   3.102   3.472   2.618
  969HOH      O 3111   2.605   2.350   0.834
  969HOH     H1 3112   2.623   2.339   0.927
  969HOH     H2 3113   2.517   2.388   0.831
  970HOH      O 3114   3.842   0.685   3.720
  970HOH     H1 3115   3.805   0.750   3.660
  970HOH     H2 3116   3.819   0.601   3.681
  971HOH      O 3117   3.289   0.461   1.907
  971HOH     H1 3118   3.236   0.386   1.881
  971HOH     H2 3119   3.256   0.534   1.853
  972HOH      O 3120   0.721   0.245   2.234
  972HOH     H1 3121   0.756   0.156   2.243
  972HOH     H2 3122   0.673   0.243   2.151
  973HOH      O 3123   3.532   3.199   0.325
  973HOH     H1 3124   3.457   3.209   0.384
  973HOH     H2 3125   3.608   3.218   0.380
  974HOH      O 3126   3.999   1.735   3.720
  974HOH     H1 3127   4.052   1.797   3.770
  974HOH     H2 3128   3.939   1.790   3.669
  975HOH      O 3129   2.523   2.814   3.337
  975HOH     H1 3130   2.575   2.856   3.405
  975HOH     H2 3131   2.548   2.722   3.339
  976HOH      O 3132   0.509   0.676   0.567
  976HOH     H1 3133   0.557   0.749   0.608
  976HOH     H2 3134   0.571   0.641   0.503
  977HOH      O 3135   3.010   1.418   1.740
  977HOH     H1 3136   3.098   1.382   1.735
  977HOH     H2 3137   3.021   1.506   1.775
  978HOH      O 3138   3.377   0.245   1.483
  978HOH     H1 3139   3.371   0.304   1.408
  978HOH     H2 3140   3.430   0.293   1.547
  979HOH      O 3141   1.495   1.316   3.190
  979HOH     H1 3142   1.584   1.348   3.208
  979HOH     H2 3143   1.485   1.325   3.095
  980HOH      O 3144   0.155   1.131   0.637
  980HOH     H1 3145   0.124   1.156   0.724
  980HOH     H2 3146   0.250   1.132   0.643
  981HOH      O 3147   0.649   3.250   0.646
  981HOH     H1 3148   0.591   3.188   0.690
  981HOH     H2 3149   0.679   3.309   0.715
  982HOH      O 3150   0.352   3.387   3.778
  982HOH     H1 3151   0.284   3.451   3.797
  982HOH     H2 3152   0.366   3.395   3.683
  983HOH      O 3153   2.157   1.260   1.581
  983HOH     H1 3154   2.249   1.234   1.585
  983HOH     H2 3155   2.112   1.197   1.638
  984HOH      O 3156   2.417   1.284   2.532
  984HOH     H1 3157   2.472   1.230   2.590
  984HOH     H2 3158   2.340   1.305   2.585
  985HOH      O 3159   2.641   2.255   2.489
  985HOH     H1 3160   2.685   2.219   2.411
  985HOH     H2 3161   2.566   2.198   2.502
  986HOH      O 3162   1.089   2.244   1.438
  986HOH     H1 3163   1.026   2.266   1.369
  986HOH     H2 3164   1.107   2.328   1.481
  987HOH      O 3165   2.530   0.161   0.448
  987HOH     H1 3166   2.551   0.068   0.435
  987HOH     H2 3167   2.439   0.169   0.421
  988HOH      O 3168   1.379   2.479   0.455
  988HOH     H1 3169   1.459   2.450   0.498
  988HOH     H2 3170   1.385   2.444   0.366
  989HOH      O 3171   1.709   0.932   1.934
  989HOH     H1 3172   1.761   0.893   2.005
  989HOH     H2 3173   1.753   0.903   1.854
  990HOH      O 3174   0.288   1.265   1.329
  990HOH     H1 3175   0.336   1.216   1.395
  990HOH     H2 3176   0.346   1.336   1.304
  991HOH      O 3177   1.614   1.175   1.085
  991HOH     H1 3178   1.545   1.241   1.089
  991HOH     H2 3179   1.673   1.197   1.157
  992HOH      O 3180   2.089   1.179   3.261
  992HOH     H1 3181   2.179   1.146   3.263
  992HOH     H2 3182   2.096   1.269   3.294
  993HOH      O 3183   3.149   2.681   1.426
  993HOH     H1 3184   3.100   2.700   1.505
  993HOH     H2 3185   3.241   2.696   1.450
  994HOH      O 3186   2.001   2.801   0.606
  994HOH     H1 3187   2.003   2.748   0.686
  994HOH     H2 3188   1.984   2.737   0.536
  995HOH      O 3189   1.373   1.657   0.938
  995HOH     H1 3190   1.352   1.703   1.020
  995HOH     H2 3191   1.466   1.635   0.946
  996HOH      O 3192   3.258   0.255   0.914
  996HOH     H1 3193   3.164   0.260   0.897
  996HOH     H2 3194   3.299   0.277   0.830
  997HOH      O 3195   3.908   0.786   3.091
  997HOH     H1 3196   3.819   0.777   3.127
  997HOH     H2 3197   3.894   0.816   3.001
  998HOH      O 3198   3.345   2.228   1.698
  998HOH     H1 3199   3.417   2.204   1.640
  998HOH     H2 3200   3.272   2.246   1.638
  999HOH      O 3201   0.240   0.462   1.006
  999HOH     H1 3202   0.284   0.455   1.091
  999HOH     H2 3203   0.147   0.455   1.027
 1000HOH      O 3204   0.859   2.257   0.038
 1000HOH     H1 3205   0.818   2.274  -0.047
 1000HOH     H2 3206   0.786   2.243   0.098
 1001HOH      O 3207   0.739   2.135   3.215
 1001HOH     H1 3208   0.660   2.187   3.228
 1001HOH     H2 3209   0.748   2.082   3.294
 1002HOH      O 3210   1.685   0.576   1.086
 1002HOH     H1 3211   1.640   0.653   1.052
 1002HOH     H2 3212   1.669   0.508   1.021
 1003HOH      O 3213   2.035   1.516   3.719
 1003HOH     H1 3214   1.981   1.470   3.784
 1003HOH     H2 3215   2.110   1.548   3.769
 1004HOH      O 3216   2.970   3.986   3.090
 1004HOH     H1 3217   3.063   3.985   3.070
 1004HOH     H2 3218   2.949   3.894   3.109
 1005HOH      O 3219   1.876   2.030   3.979
 1005HOH     H1 3220   1.910   1.949   3.942
 1005HOH     H2 3221   1.862   2.010   4.071
 1006HOH      O 3222   0.825   3.105   1.316
 1006HOH     H1 3223   0.786   3.086   1.231
 1006HOH     H2 3224   0.754   3.087   1.378
 1007HOH      O 3225   0.309   2.319   3.944
 1007HOH     H1 3226   0.230   2.367   3.921
 1007HOH     H2 3227   0.288   2.275   4.026
 1008HOH      O 3228   2.930   0.748   1.137
 1008HOH     H1 3229   2.856   0.758   1.197
 1008HOH     H2 3230   2.897   0.780   1.053
 1009HOH      O 3231   3.457   3.390   2.262
 1009HOH     H1 3232   3.527   3.445   2.227
 1009HOH     H2 3233   3.492   3.354   2.343
 1010HOH      O 3234   3.530   2.115   0.652
 1010HOH     H1 3235   3.498   2.200   0.623
 1010HOH     H2 3236   3.624   2.126   0.662
 1011HOH      O 3237   1.646   2.532   0.716
 1011HOH     H1 3238   1.585   2.503   0.783
 1011HOH     H2 3239   1.652   2.459   0.655
 1012HOH      O 3240   3.067   0.236   3.122
 1012HOH     H1 3241   2.999   0.169   3.126
 1012HOH     H2 3242   3.149   0.189   3.129
 1013HOH      O 3243   2.788   1.261   0.479
 1013HOH     H1 3244   2.746   1.175   0.488
 1013HOH     H2 3245   2.880   1.244   0.496
 1014HOH      O 3246   0.789   3.103   0.323
 1014HOH     H1 3247   0.872   3.080   0.366
 1014HOH     H2 3248   0.786   3.198   0.325
 1015HOH      O 3249   0.312   0.699   1.649
 1015HOH     H1 3250   0.358   0.734   1.573
 1015HOH     H2 3251   0.232   0.752   1.655
 1016HOH      O 3252   2.677   2.274   2.800
 1016HOH     H1 3253   2.668   2.272   2.704
 1016HOH     H2 3254   2.679   2.367   2.821
 1017HOH      O 3255   1.025   0.872   2.592
 1017HOH     H1 3256   0.955   0.926   2.628
 1017HOH     H2 3257   1.042   0.806   2.658
 1018HOH      O 3258   2.356   1.364   3.137
 1018HOH     H1 3259   2.345   1.300   3.207
 1018HOH     H2 3260   2.428   1.419   3.167
 1019HOH      O 3261   3.153   0.084   3.959
 1019HOH     H1 3262   3.150   0.119   4.047
 1019HOH     H2 3263   3.201   0.001   3.967
 1020HOH      O 3264   3.277   2.001   0.841
 1020HOH     H1 3265   3.231   2.053   0.776
 1020HOH     H2 3266   3.366   2.038   0.843
 1021HOH      O 3267   2.269   3.668   1.238
 1021HOH     H1 3268   2.306   3.717   1.164
 1021HOH     H2 3269   2.307   3.711   1.315
 1022HOH      O 3270   2.670   4.011   3.076
 1022HOH     H1 3271   2.627   3.925   3.072
 1022HOH     H2 3272   2.764   3.991   3.071
 1023HOH      O 3273   2.162   4.041   1.186
 1023HOH     H1 3274   2.134   4.007   1.271
 1023HOH     H2 3275   2.081   4.047   1.135
 1024HOH      O 3276   1.856   2.946   2.496
 1024HOH     H1 3277   1.808   2.864   2.505
 1024HOH     H2 3278   1.930   2.938   2.556
 1025HOH      O 3279   2.976   2.802   2.707
 1025HOH     H1 3280   3.022   2.856   2.771
 1025HOH     H2 3281   3.031   2.804   2.629
 1026HOH      O 3282   2.760   3.934   3.546
 1026HOH     H1 3283   2.819   3.859   3.544
 1026HOH     H2 3284   2.682   3.905   3.498
 1027HOH      O 3285   1.314   3.532   0.964
 1027HOH     H1 3286   1.230   3.577   0.969
 1027HOH     H2 3287   1.360   3.559   1.043
 1028HOH      O 3288   0.952   0.309   1.775
 1028HOH     H1 3289   0.919   0.319   1.865
 1028HOH     H2 3290   0.997   0.391   1.757
 1029HOH      O 3291   0.988   3.788   1.908
 1029HOH     H1 3292   0.933   3.842   1.851
 1029HOH     H2 3293   0.934   3.771   1.985
 1030HOH      O 3294   0.145   1.551   0.726
 1030HOH     H1 3295   0.184   1.469   0.696
 1030HOH     H2 3296   0.082   1.573   0.657
 1031HOH      O 3297   2.870   1.280   1.432
 1031HOH     H1 3298   2.890   1.221   1.360
 1031HOH     H2 3299   2.955   1.297   1.474
 1032HOH      O 3300   2.960   1.018   3.222
 1032HOH     H1 3301   2.928   1.007   3.312
 1032HOH     H2 3302   2.973   0.929   3.190
 1033HOH      O 3303   3.154   2.117   0.072
 1033HOH     H1 3304   3.185   2.026   0.075
 1033HOH     H2 3305   3.074   2.116   0.124
 1034HOH      O 3306   1.794   3.988   1.472
 1034HOH     H1 3307   1.725   3.996   1.406
 1034HOH     H2 3308   1.856   3.926   1.435
 1035HOH      O 3309   1.250   3.953   2.805
 1035HOH     H1 3310   1.309   3.961   2.730
 1035HOH     H2 3311   1.162   3.950   2.766
 1036HOH      O 3312   3.124   3.368   2.173
 1036HOH     H1 3313   3.164   3.370   2.259
 1036HOH     H2 3314   3.177   3.427   2.120
 1037HOH      O 3315   3.957   3.882   3.026
 1037HOH     H1 3316   4.038   3.833   3.039
 1037HOH     H2 3317   3.983   3.974   3.036
 1038HOH      O 3318   0.745   1.400   1.325
 1038HOH     H1 3319   0.825   1.358   1.292
 1038HOH     H2 3320   0.741   1.484   1.278
 1039HOH      O 3321   3.425   1.291   0.125
 1039HOH     H1 3322   3.476   1.363   0.088
 1039HOH     H2 3323   3.488   1.242   0.179
 1040HOH      O 3324   3.835   1.067   3.324
 1040HOH     H1 3325   3.781   1.145   3.321
 1040HOH     H2 3326   3.898   1.084   3.394
 1041HOH      O 3327   3.353   1.687   1.078
 1041HOH     H1 3328   3.386   1.774   1.055
 1041HOH     H2 3329   3.274   1.676   1.024
 1042HOH      O 3330   3.512   3.894   0.166
 1042HOH     H1 3331   3.467   3.977   0.174
 1042HOH     H2 3332   3.577   3.895   0.237
 1043HOH      O 3333   2.956   2.507   2.757
 1043HOH     H1 3334   3.040   2.516   2.711
 1043HOH     H2 3335   2.937   2.596   2.788
 1044HOH      O 3336   3.458   1.702   0.601
 1044HOH     H1 3337   3.481   1.759   0.674
 1044HOH     H2 3338   3.537   1.650   0.586
 1045HOH      O 3339   1.600   3.604   0.264
 1045HOH     H1 3340   1.643   3.686   0.286
 1045HOH     H2 3341   1.671   3.540   0.260
 1046HOH      O 3342   1.248   3.771   1.800
 1046HOH     H1 3343   1.175   3.777   1.861
 1046HOH     H2 3344   1.281   3.682   1.810
 1047HOH      O 3345   2.778   0.821   0.650
 1047HOH     H1 3346   2.779   0.733   0.613
 1047HOH     H2 3347   2.711   0.868   0.599
 1048HOH      O 3348   3.486   0.893   1.189
 1048HOH     H1 3349   3.470   0.968   1.246
 1048HOH     H2 3350   3.399   0.865   1.161
 1049HOH      O 3351   1.308   1.573   3.792
 1049HOH     H1 3352   1.375   1.506   3.809
 1049HOH     H2 3353   1.330   1.606   3.704
 1050HOH      O 3354   2.647   3.230   2.672
 1050HOH     H1 3355   2.570   3.251   2.725
 1050HOH     H2 3356   2.613   3.178   2.600
 1051HOH      O 3357   1.089   0.992   0.261
 1051HOH     H1 3358   1.120   0.949   0.340
 1051HOH     H2 3359   1.107   0.930   0.191
 1052HOH      O 3360   0.825   1.158   1.579
 1052HOH     H1 3361   0.747   1.203   1.547
 1052HOH     H2 3362   0.796   1.114   1.659
 1053HOH      O 3363   1.259   0.971   3.087
 1053HOH     H1 3364   1.314   0.916   3.032
 1053HOH     H2 3365   1.172   0.965   3.047
 1054HOH      O 3366   2.047   3.857   0.769
 1054HOH     H1 3367   1.970   3.858   0.826
 1054HOH     H2 3368   2.112   3.911   0.814
 1055HOH      O 3369   2.594   2.418   2.000
 1055HOH     H1 3370   2.667   2.472   2.028
 1055HOH     H2 3371   2.635   2.338   1.967
 1056HOH      O 3372   2.577   2.823   0.946
 1056HOH     H1 3373   2.586   2.918   0.954
 1056HOH     H2 3374   2.484   2.809   0.930
 1057HOH      O 3375   0.314   3.378   2.407
 1057HOH     H1 3376   0.302   3.301   2.353
 1057HOH     H2 3377   0.359   3.345   2.485
 1058HOH      O 3378   2.725   0.646   2.629
 1058HOH     H1 3379   2.725   0.738   2.602
 1058HOH     H2 3380   2.817   0.627   2.649
 1059HOH      O 3381   0.541   3.013   0.157
 1059HOH     H1 3382   0.597   3.030   0.233
 1059HOH     H2 3383   0.517   3.100   0.125
 1060HOH      O 3384   1.040   2.011   1.214
 1060HOH     H1 3385   0.962   2.063   1.197
 1060HOH     H2 3386   1.013   1.947   1.279
 1061HOH      O 3387   3.014   2.810   0.257
 1061HOH     H1 3388   3.019   2.770   0.344
 1061HOH     H2 3389   3.051   2.897   0.269
 1062HOH      O 3390   0.126   3.582   3.764
 1062HOH     H1 3391   0.103   3.573   3.671
 1062HOH     H2 3392   0.077   3.659   3.793
 1063HOH      O 3393   1.483   2.513   3.700
 1063HOH     H1 3394   1.449   2.562   3.774
 1063HOH     H2 3395   1.436   2.430   3.702
 1064HOH      O 3396   3.945   2.959   1.147
 1064HOH     H1 3397   3.913   2.869   1.134
 1064HOH     H2 3398   4.020   2.966   1.089
 1065HOH      O 3399   3.321   2.824   2.935
 1065HOH     H1 3400   3.238   2.858   2.904
 1065HOH     H2 3401   3.298   2.760   3.002
 1066HOH      O 3402   0.847   3.777   0.934
 1066HOH     H1 3403   0.830   3.870   0.918
 1066HOH     H2 3404   0.816   3.733   0.855
 1067HOH      O 3405   4.006   0.329   0.515
 1067HOH     H1 3406   4.020   0.354   0.606
 1067HOH     H2 3407   4.092   0.337   0.474
 1068HOH      O 3408   1.248   3.818   0.595
 1068HOH     H1 3409   1.232   3.842   0.503
 1068HOH     H2 3410   1.344   3.811   0.600
 1069HOH      O 3411   0.739   2.781   3.856
 1069HOH     H1 3412   0.725   2.768   3.950
 1069HOH     H2 3413   0.694   2.863   3.836
 1070HOH      O 3414   0.081   1.744   1.541
 1070HOH     H1 3415   0.118   1.692   1.613
 1070HOH     H2 3416   0.157   1.775   1.492
 1071HOH      O 3417   2.026   0.607   1.683
 1071HOH     H1 3418   2.120   0.606   1.698
 1071HOH     H2 3419   1.988   0.609   1.771
 1072HOH      O 3420   0.238   0.273   1.929
 1072HOH     H1 3421   0.306   0.318   1.878
 1072HOH     H2 3422   0.197   0.214   1.866
 1073HOH      O 3423   2.764   1.425   0.744
 1073HOH     H1 3424   2.829   1.470   0.690
 1073HOH     H2 3425   2.720   1.365   0.683
 1074HOH      O 3426   1.848   1.653   2.215
 1074HOH     H1 3427   1.779   1.670   2.279
 1074HOH     H2 3428   1.844   1.558   2.200
 1075HOH      O 3429   3.034   2.772   1.647
 1075HOH     H1 3430   2.963   2.709   1.661
 1075HOH     H2 3431   3.065   2.793   1.735
 1076HOH      O 3432   0.906   3.299   2.176
 1076HOH     H1 3433   0.931   3.365   2.242
 1076HOH     H2 3434   0.919   3.343   2.092
 1077HOH      O 3435   0.678   3.091   1.022
 1077HOH     H1 3436   0.678   3.171   0.969
 1077HOH     H2 3437   0.668   3.020   0.958
 1078HOH      O 3438   0.399   3.249   2.628
 1078HOH     H1 3439   0.348   3.178   2.667
 1078HOH     H2 3440   0.485   3.242   2.669
 1079HOH      O 3441   3.390   1.571   2.520
 1079HOH     H1 3442   3.475   1.552   2.482
 1079HOH     H2 3443   3.380   1.508   2.591
 1080HOH      O 3444   3.942   0.073   0.165
 1080HOH     H1 3445   3.932   0.136   0.236
 1080HOH     H2 3446   4.033   0.083   0.136
 1081HOH      O 3447   2.590   1.871   1.231
 1081HOH     H1 3448   2.648   1.825   1.292
 1081HOH     H2 3449   2.628   1.854   1.145
 1082HOH      O 3450   3.829   2.141   0.285
 1082HOH     H1 3451   3.790   2.092   0.213
 1082HOH     H2 3452   3.908   2.091   0.308
 1083HOH      O 3453   1.770   3.367   3.866
 1083HOH     H1 3454   1.801   3.409   3.786
 1083HOH     H2 3455   1.771   3.273   3.846
 1084HOH      O 3456   2.845   0.221   1.005
 1084HOH     H1 3457   2.916   0.235   1.067
 1084HOH     H2 3458   2.875   0.261   0.924
 1085HOH      O 3459   1.322   3.638   3.690
 1085HOH     H1 3460   1.358   3.639   3.779
 1085HOH     H2 3461   1.233   3.603   3.700
 1086HOH      O 3462   1.824   1.103   3.210
 1086HOH     H1 3463   1.910   1.143   3.224
 1086HOH     H2 3464   1.841   1.033   3.147
 1087HOH      O 3465   1.928   1.742   2.687
 1087HOH     H1 3466   1.983   1.785   2.752
 1087HOH     H2 3467   1.853   1.801   2.677
 1088HOH      O 3468   3.764   0.886   3.557
 1088HOH     H1 3469   3.672   0.902   3.540
 1088HOH     H2 3470   3.807   0.904   3.474
 1089HOH      O 3471   2.625   0.482   2.448
 1089HOH     H1 3472   2.549   0.432   2.476
 1089HOH     H2 3473   2.647   0.537   2.523
 1090HOH      O 3474   3.865   1.785   1.642
 1090HOH     H1 3475   3.932   1.772   1.575
 1090HOH     H2 3476   3.864   1.703   1.692
 1091HOH      O 3477   1.723   2.992   2.022
 1091HOH     H1 3478   1.769   3.006   2.105
 1091HOH     H2 3479   1.710   3.080   1.988
 1092HOH      O 3480   0.816   2.833   0.473
 1092HOH     H1 3481   0.867   2.888   0.414
 1092HOH     H2 3482   0.830   2.744   0.440
 1093HOH      O 3483   1.503   0.758   1.034
 1093HOH     H1 3484   1.452   0.781   0.957
 1093HOH     H2 3485   1.560   0.834   1.048
 1094HOH      O 3486   2.431   3.060   2.553
 1094HOH     H1 3487   2.420   3.114   2.475
 1094HOH     H2 3488   2.359   3.086   2.610
 1095HOH      O 3489   1.453   0.093   3.195
 1095HOH     H1 3490   1.455   0.148   3.274
 1095HOH     H2 3491   1.523   0.029   3.209
 1096HOH      O 3492   0.482   1.070   2.267
 1096HOH     H1 3493   0.550   1.068   2.335
 1096HOH     H2 3494   0.450   1.160   2.270
 1097HOH      O 3495   1.404   1.757   0.186
 1097HOH     H1 3496   1.365   1.779   0.102
 1097HOH     H2 3497   1.354   1.680   0.216
 1098HOH      O 3498   1.512   1.971   3.232
 1098HOH     H1 3499   1.585   1.914   3.211
 1098HOH     H2 3500   1.503   2.028   3.156
 1099HOH      O 3501   3.765   3.218   1.286
 1099HOH     H1 3502   3.693   3.172   1.242
 1099HOH     H2 3503   3.826   3.240   1.216
 1100HOH      O 3504   2.814   0.618   1.942
 1100HOH     H1 3505   2.729   0.575   1.937
 1100HOH     H2 3506   2.833   0.642   1.851
 1101HOH      O 3507   3.226   2.981   0.344
 1101HOH     H1 3508   3.297   3.017   0.291
 1101HOH     H2 3509   3.271   2.935   0.416
 1102HOH      O 3510   0.523   2.469   3.838
 1102HOH     H1 3511   0.472   2.494   3.760
 1102HOH     H2 3512   0.466   2.409   3.886
 1103HOH      O 3513   2.752   2.862   0.159
 1103HOH     H1 3514   2.843   2.837   0.174
 1103HOH     H2 3515   2.756   2.933   0.094
 1104HOH      O 3516   0.536   0.982   2.005
 1104HOH     H1 3517   0.456   0.944   1.969
 1104HOH     H2 3518   0.513   1.008   2.094
 1105HOH      O 3519   3.037   2.142   3.241
 1105HOH     H1 3520   2.989   2.120   3.161
 1105HOH     H2 3521   3.113   2.083   3.241
 1106HOH      O 3522   1.714   0.386   2.177
 1106HOH     H1 3523   1.630   0.425   2.150
 1106HOH     H2 3524   1.771   0.396   2.101
 1107HOH      O 3525   2.418   0.623   1.187
 1107HOH     H1 3526   2.326   0.613   1.212
 1107HOH     H2 3527   2.430   0.561   1.115
 1108HOH      O 3528   2.018   3.300   0.217
 1108HOH     H1 3529   2.097   3.267   0.173
 1108HOH     H2 3530   1.982   3.224   0.262
 1109HOH      O 3531   3.963   0.460   2.040
 1109HOH     H1 3532   3.957   0.365   2.048
 1109HOH     H2 3533   3.883   0.493   2.081
 1110HOH      O 3534   1.960   3.062   3.303
 1110HOH     H1 3535   1.994   3.052   3.392
 1110HOH     H2 3536   1.908   2.983   3.289
 1111HOH      O 3537   3.291   1.426   3.855
 1111HOH     H1 3538   3.314   1.507   3.810
 1111HOH     H2 3539   3.375   1.384   3.873
 1112HOH      O 3540   2.961   2.178   3.917
 1112HOH     H1 3541   2.911   2.108   3.876
 1112HOH     H2 3542   3.031   2.133   3.965
 1113HOH      O 3543   1.426   1.311   2.662
 1113HOH     H1 3544   1.471   1.395   2.667
 1113HOH     H2 3545   1.395   1.295   2.751
 1114HOH      O 3546   3.342   3.429   3.721
 1114HOH     H1 3547   3.350   3.421   3.816
 1114HOH     H2 3548   3.406   3.367   3.686
 1115HOH      O 3549   1.271   1.015   2.585
 1115HOH     H1 3550   1.219   0.945   2.625
 1115HOH     H2 3551   1.274   1.084   2.652
 1116HOH      O 3552   1.070   3.926   3.821
 1116HOH     H1 3553   1.141   3.931   3.884
 1116HOH     H2 3554   1.043   3.834   3.822
 1117HOH      O 3555   1.168   2.712   3.369
 1117HOH     H1 3556   1.248   2.710   3.421
 1117HOH     H2 3557   1.100   2.736   3.432
 1118HOH      O 3558   3.738   2.097   1.294
 1118HOH     H1 3559   3.780   2.175   1.330
 1118HOH     H2 3560   3.759   2.099   1.201
 1119HOH      O 3561   3.843   3.504   2.372
 1119HOH     H1 3562   3.919   3.541   2.326
 1119HOH     H2 3563   3.770   3.559   2.345
 1120HOH      O 3564   3.909   1.070   3.699
 1120HOH     H1 3565   3.987   1.080   3.644
 1120HOH     H2 3566   3.863   0.995   3.663
 1121HOH      O 3567   1.482   3.344   3.635
 1121HOH     H1 3568   1.396   3.381   3.618
 1121HOH     H2 3569   1.533   3.364   3.557
 1122HOH      O 3570  -0.002   1.844   1.282
 1122HOH     H1 3571   0.009   1.828   1.376
 1122HOH     H2 3572   0.053   1.921   1.265
 1123HOH      O 3573   3.521   3.564   0.459
 1123HOH     H1 3574   3.463   3.584   0.385
 1123HOH     H2 3575   3.468   3.583   0.537
 1124HOH      O 3576   2.816   2.502   2.481
 1124HOH     H1 3577   2.753   2.431   2.489
 1124HOH     H2 3578   2.808   2.550   2.564
 1125HOH      O 3579   2.926   2.472   0.574
 1125HOH     H1 3580   2.923   2.478   0.669
 1125HOH     H2 3581   2.843   2.432   0.549
 1126HOH      O 3582   2.350   2.021   4.052
 1126HOH     H1 3583   2.326   1.929   4.065
 1126HOH     H2 3584   2.405   2.022   3.974
 1127HOH      O 3585   2.075   2.833   3.989
 1127HOH     H1 3586   2.061   2.770   3.918
 1127HOH     H2 3587   2.021   2.799   4.061
 1128HOH      O 3588   3.845   3.865   2.160
 1128HOH     H1 3589   3.934   3.879   2.194
 1128HOH     H2 3590   3.845   3.774   2.129
 1129HOH      O 3591   0.720   0.551   0.005
 1129HOH     H1 3592   0.693   0.500   0.082
 1129HOH     H2 3593   0.700   0.642   0.028
 1130HOH      O 3594   2.957   1.719   3.002
 1130HOH     H1 3595   2.982   1.627   3.007
 1130HOH     H2 3596   3.040   1.766   2.993
 1131HOH      O 3597   1.971   0.633   1.398
 1131HOH     H1 3598   1.961   0.589   1.483
 1131HOH     H2 3599   1.881   0.651   1.370
 1132HOH      O 3600   2.032   3.453   2.493
 1132HOH     H1 3601   1.988   3.392   2.552
 1132HOH     H2 3602   2.086   3.508   2.550
 1133HOH      O 3603  -0.011   3.241   1.183
 1133HOH     H1 3604   0.075   3.230   1.224
 1133HOH     H2 3605  -0.023   3.162   1.130
 1134HOH      O 3606   0.975   3.357   0.921
 1134HOH     H1 3607   1.008   3.297   0.988
 1134HOH     H2 3608   1.002   3.444   0.952
 1135HOH      O 3609   0.843   2.549   1.557
 1135HOH     H1 3610   0.807   2.538   1.645
 1135HOH     H2 3611   0.937   2.534   1.568
 1136HOH      O 3612   3.746   2.536   2.730
 1136HOH     H1 3613   3.786   2.616   2.695
 1136HOH     H2 3614   3.675   2.568   2.786
 1137HOH      O 3615   1.491   3.038   0.577
 1137HOH     H1 3616   1.547   2.962   0.561
 1137HOH     H2 3617   1.436   3.012   0.650
 1138HOH      O 3618   3.961   1.589   0.565
 1138HOH     H1 3619   3.946   1.505   0.522
 1138HOH     H2 3620   3.911   1.584   0.647
 1139HOH      O 3621   1.871   1.738   1.322
 1139HOH     H1 3622   1.868   1.678   1.396
 1139HOH     H2 3623   1.964   1.743   1.300
 1140HOH      O 3624   1.725   0.836   1.482
 1140HOH     H1 3625   1.640   0.874   1.505
 1140HOH     H2 3626   1.703   0.749   1.447
 1141HOH      O 3627   3.787   2.901   0.170
 1141HOH     H1 3628   3.827   2.921   0.254
 1141HOH     H2 3629   3.856   2.918   0.106
 1142HOH      O 3630   2.325   0.206   2.861
 1142HOH     H1 3631   2.330   0.302   2.862
 1142HOH     H2 3632   2.269   0.184   2.936
 1143HOH      O 3633   3.966   0.497   1.367
 1143HOH     H1 3634   3.972   0.564   1.435
 1143HOH     H2 3635   3.938   0.419   1.413
 1144HOH      O 3636   3.499   0.824   2.653
 1144HOH     H1 3637   3.514   0.760   2.723
 1144HOH     H2 3638   3.580   0.874   2.649
 1145HOH      O 3639   1.337   0.854   0.060
 1145HOH     H1 3640   1.345   0.773   0.009
 1145HOH     H2 3641   1.425   0.869   0.094
 1146HOH      O 3642   1.205   1.158   0.668
 1146HOH     H1 3643   1.226   1.206   0.748
 1146HOH     H2 3644   1.258   1.201   0.600
 1147HOH      O 3645   2.452   3.116   0.230
 1147HOH     H1 3646   2.403   3.042   0.196
 1147HOH     H2 3647   2.495   3.083   0.309
 1148HOH      O 3648   3.537   0.497   3.673
 1148HOH     H1 3649   3.451   0.467   3.703
 1148HOH     H2 3650   3.525   0.514   3.580
 1149HOH      O 3651   0.736   0.742   0.427
 1149HOH     H1 3652   0.832   0.734   0.431
 1149HOH     H2 3653   0.714   0.802   0.499
 1150HOH      O 3654   2.981   2.697   3.361
 1150HOH     H1 3655   2.902   2.676   3.409
 1150HOH     H2 3656   3.049   2.642   3.400
 1151HOH      O 3657   1.705   2.558   2.956
 1151HOH     H1 3658   1.672   2.471   2.978
 1151HOH     H2 3659   1.647   2.618   3.003
 1152HOH      O 3660   0.121   0.137   3.814
 1152HOH     H1 3661   0.184   0.141   3.741
 1152HOH     H2 3662   0.047   0.189   3.784
 1153HOH      O 3663   3.626   3.434   2.013
 1153HOH     H1 3664   3.645   3.342   1.996
 1153HOH     H2 3665   3.628   3.475   1.927
 1154HOH      O 3666   1.502   0.131   3.907
 1154HOH     H1 3667   1.426   0.175   3.945
 1154HOH     H2 3668   1.470   0.097   3.823
 1155HOH      O 3669   1.624   1.395   3.492
 1155HOH     H1 3670   1.654   1.470   3.441
 1155HOH     H2 3671   1.554   1.357   3.439
 1156HOH      O 3672   1.354   2.925   0.778
 1156HOH     H1 3673   1.380   2.936   0.869
 1156HOH     H2 3674   1.312   2.838   0.775
 1157HOH      O 3675   1.446   2.177   0.222
 1157HOH     H1 3676   1.475   2.128   0.145
 1157HOH     H2 3677   1.512   2.158   0.288
 1158HOH      O 3678   0.774   1.425   3.992
 1158HOH     H1 3679   0.809   1.512   4.015
 1158HOH     H2 3680   0.845   1.382   3.945
 1159HOH      O 3681   0.704   0.821   0.124
 1159HOH     H1 3682   0.729   0.777   0.205
 1159HOH     H2 3683   0.613   0.846   0.138
 1160HOH      O 3684   1.490   2.697   2.312
 1160HOH     H1 3685   1.417   2.681   2.373
 1160HOH     H2 3686   1.514   2.610   2.281
 1161HOH      O 3687   0.243   3.946   1.161
 1161HOH     H1 3688   0.193   4.018   1.198
 1161HOH     H2 3689   0.199   3.867   1.193
 1162HOH      O 3690   0.505   2.252   3.430
 1162HOH     H1 3691   0.565   2.249   3.504
 1162HOH     H2 3692   0.509   2.164   3.392
 1163HOH      O 3693   0.457   2.482   3.575
 1163HOH     H1 3694   0.402   2.536   3.518
 1163HOH     H2 3695   0.456   2.396   3.533
 1164HOH      O 3696   3.044   1.017   2.225
 1164HOH     H1 3697   3.017   1.090   2.281
 1164HOH     H2 3698   2.989   0.944   2.252
 1165HOH      O 3699   0.724   3.745   2.854
 1165HOH     H1 3700   0.728   3.689   2.776
 1165HOH     H2 3701   0.763   3.691   2.924
 1166HOH      O 3702   1.714   0.548   1.718
 1166HOH     H1 3703   1.702   0.572   1.810
 1166HOH     H2 3704   1.634   0.578   1.674
 1167HOH      O 3705   0.755   1.864   0.431
 1167HOH     H1 3706   0.718   1.858   0.520
 1167HOH     H2 3707   0.847   1.887   0.445
 1168HOH      O 3708   0.521   0.217   0.855
 1168HOH     H1 3709   0.534   0.124   0.874
 1168HOH     H2 3710   0.524   0.259   0.941
 1169HOH      O 3711   1.191   0.416   0.367
 1169HOH     H1 3712   1.107   0.382   0.338
 1169HOH     H2 3713   1.204   0.495   0.315
 1170HOH      O 3714   3.679   1.304   3.316
 1170HOH     H1 3715   3.622   1.335   3.386
 1170HOH     H2 3716   3.662   1.364   3.243
 1171HOH      O 3717   3.228   0.338   2.596
 1171HOH     H1 3718   3.180   0.354   2.515
 1171HOH     H2 3719   3.212   0.246   2.616
 1172HOH      O 3720   2.792   2.639   1.603
 1172HOH     H1 3721   2.734   2.596   1.539
 1172HOH     H2 3722   2.766   2.731   1.600
 1173HOH      O 3723   3.919   3.243   2.367
 1173HOH     H1 3724   3.898   3.336   2.360
 1173HOH     H2 3725   4.000   3.241   2.418
 1174HOH      O 3726   1.023   3.674   0.635
 1174HOH     H1 3727   1.110   3.712   0.643
 1174HOH     H2 3728   1.038   3.580   0.631
 1175HOH      O 3729   1.179   0.869   0.673
 1175HOH     H1 3730   1.241   0.883   0.602
 1175HOH     H2 3731   1.154   0.958   0.700
 1176HOH      O 3732   1.232   0.414   2.874
 1176HOH     H1 3733   1.203   0.329   2.908
 1176HOH     H2 3734   1.279   0.455   2.947
 1177HOH      O 3735   2.856   3.083   0.017
 1177HOH     H1 3736   2.922   3.103  -0.049
 1177HOH     H2 3737   2.886   3.128   0.096
 1178HOH      O 3738   1.275   1.180   3.237
 1178HOH     H1 3739   1.274   1.098   3.187
 1178HOH     H2 3740   1.359   1.220   3.214
 1179HOH      O 3741   0.164   1.814   0.054
 1179HOH     H1 3742   0.091   1.775   0.102
 1179HOH     H2 3743   0.237   1.754   0.070
 1180HOH      O 3744   1.755   3.830   2.260
 1180HOH     H1 3745   1.749   3.801   2.351
 1180HOH     H2 3746   1.722   3.756   2.209
 1181HOH      O 3747   1.436   3.996   1.661
 1181HOH     H1 3748   1.361   3.967   1.714
 1181HOH     H2 3749   1.431   3.945   1.581
 1182HOH      O 3750   1.633   3.654   2.071
 1182HOH     H1 3751   1.583   3.573   2.080
 1182HOH     H2 3752   1.567   3.720   2.048
 1183HOH      O 3753   1.826   0.248   0.569
 1183HOH     H1 3754   1.864   0.311   0.631
 1183HOH     H2 3755   1.768   0.300   0.514
 1184HOH      O 3756   1.322   3.492   0.423
 1184HOH     H1 3757   1.318   3.464   0.331
 1184HOH     H2 3758   1.297   3.584   0.420
 1185HOH      O 3759   0.846   3.033   2.221
 1185HOH     H1 3760   0.882   3.120   2.200
 1185HOH     H2 3761   0.894   2.973   2.164
 1186HOH      O 3762   1.926   0.069   3.134
 1186HOH     H1 3763   1.877   0.013   3.195
 1186HOH     H2 3764   1.886   0.155   3.143
 1187HOH      O 3765   1.643   2.159   3.476
 1187HOH     H1 3766   1.591   2.150   3.556
 1187HOH     H2 3767   1.596   2.108   3.410
 1188HOH      O 3768   1.450   3.267   2.845
 1188HOH     H1 3769   1.521   3.315   2.802
 1188HOH     H2 3770   1.460   3.289   2.938
 1189HOH      O 3771   2.832   1.155   0.999
 1189HOH     H1 3772   2.872   1.077   1.037
 1189HOH     H2 3773   2.749   1.164   1.047
 1190HOH      O 3774   2.999   0.076   2.806
 1190HOH     H1 3775   2.984   0.115   2.720
 1190HOH     H2 3776   3.087   0.105   2.830
 1191HOH      O 3777   2.794   3.639   2.243
 1191HOH     H1 3778   2.721   3.698   2.227
 1191HOH     H2 3779   2.871   3.696   2.241
 1192HOH      O 3780   1.816   3.150   0.582
 1192HOH     H1 3781   1.855   3.100   0.510
 1192HOH     H2 3782   1.873   3.226   0.592
 1193HOH      O 3783   2.804   3.363   3.100
 1193HOH     H1 3784   2.898   3.354   3.089
 1193HOH     H2 3785   2.791   3.382   3.193
 1194HOH      O 3786   2.677   3.515   4.007
 1194HOH     H1 3787   2.745   3.476   3.951
 1194HOH     H2 3788   2.640   3.441   4.055
 1195HOH      O 3789   4.010   2.355   1.911
 1195HOH     H1 3790   4.067   2.280   1.893
 1195HOH     H2 3791   3.962   2.331   1.990
 1196HOH      O 3792   3.239   2.950   3.668
 1196HOH     H1 3793   3.270   3.040   3.672
 1196HOH     H2 3794   3.300   2.906   3.609
 1197HOH      O 3795   3.617   0.146   2.341
 1197HOH     H1 3796   3.556   0.208   2.301
 1197HOH     H2 3797   3.672   0.200   2.398
 1198HOH      O 3798   1.415   3.596   1.445
 1198HOH     H1 3799   1.497   3.576   1.491
 1198HOH     H2 3800   1.357   3.523   1.468
 1199HOH      O 3801   0.359   1.157   3.544
 1199HOH     H1 3802   0.302   1.181   3.617
 1199HOH     H2 3803   0.315   1.193   3.467
 1200HOH      O 3804   1.063   0.540   1.653
 1200HOH     H1 3805   1.155   0.554   1.676
 1200HOH     H2 3806   1.065   0.520   1.560
 1201HOH      O 3807   3.660   1.629   2.113
 1201HOH     H1 3808   3.756   1.625   2.117
 1201HOH     H2 3809   3.640   1.649   2.022
 1202HOH      O 3810   3.224   1.383   1.928
 1202HOH     H1 3811   3.289   1.397   1.997
 1202HOH     H2 3812   3.193   1.294   1.943
 1203HOH      O 3813   1.498   2.854   3.711
 1203HOH     H1 3814   1.534   2.941   3.728
 1203HOH     H2 3815   1.566   2.794   3.743
 1204HOH      O 3816   1.195   2.953   0.054
 1204HOH     H1 3817   1.234   3.011  -0.011
 1204HOH     H2 3818   1.110   2.992   0.074
 1205HOH      O 3819   0.184   1.135   1.756
 1205HOH     H1 3820   0.230   1.207   1.798
 1205HOH     H2 3821   0.099   1.172   1.730
 1206HOH      O 3822   3.638   1.459   3.093
 1206HOH     H1 3823   3.560   1.500   3.055
 1206HOH     H2 3824   3.712   1.509   3.056
 1207HOH      O 3825   1.490   2.330   2.010
 1207HOH     H1 3826   1.490   2.370   2.097
 1207HOH     H2 3827   1.567   2.366   1.967
 1208HOH      O 3828   3.741   1.299   3.725
 1208HOH     H1 3829   3.789   1.216   3.725
 1208HOH     H2 3830   3.804   1.363   3.692
 1209HOH      O 3831   0.507   3.999   2.223
 1209HOH     H1 3832   0.416   4.024   2.205
 1209HOH     H2 3833   0.558   4.078   2.207
 1210HOH      O 3834   1.844   0.580   3.453
 1210HOH     H1 3835   1.841   0.545   3.364
 1210HOH     H2 3836   1.752   0.589   3.478
 1211HOH      O 3837   0.872   1.971   4.010
 1211HOH     H1 3838   0.882   2.035   3.939
 1211HOH     H2 3839   0.822   2.017   4.077
 1212HOH      O 3840   3.179   0.585   0.551
 1212HOH     H1 3841   3.167   0.498   0.513
 1212HOH     H2 3842   3.203   0.640   0.476
 1213HOH      O 3843   1.522   3.829   2.789
 1213HOH     H1 3844   1.510   3.867   2.702
 1213HOH     H2 3845   1.610   3.857   2.815
 1214HOH      O 3846   3.442   0.397   0.747
 1214HOH     H1 3847   3.515   0.453   0.722
 1214HOH     H2 3848   3.380   0.406   0.675
 1215HOH      O 3849   2.682   3.179   0.681
 1215HOH     H1 3850   2.763   3.131   0.698
 1215HOH     H2 3851   2.705   3.238   0.609
 1216HOH      O 3852   3.644   0.089   1.683
 1216HOH     H1 3853   3.612   0.178   1.693
 1216HOH     H2 3854   3.612   0.062   1.597
 1217HOH      O 3855   2.495   2.964   1.260
 1217HOH     H1 3856   2.525   2.873   1.251
 1217HOH     H2 3857   2.541   2.996   1.337
 1218HOH      O 3858   1.967   2.633   1.129
 1218HOH     H1 3859   1.890   2.689   1.140
 1218HOH     H2 3860   1.947   2.554   1.179
 1219HOH      O 3861   1.761   2.838   2.821
 1219HOH     H1 3862   1.743   2.842   2.727
 1219HOH     H2 3863   1.741   2.748   2.846
 1220HOH      O 3864   0.019   0.964   0.845
 1220HOH     H1 3865   0.022   0.882   0.894
 1220HOH     H2 3866   0.030   1.032   0.911
 1221HOH      O 3867   3.900   1.350   0.447
 1221HOH     H1 3868   3.962   1.277   0.441
 1221HOH     H2 3869   3.864   1.358   0.358
 1222HOH      O 3870   1.876   2.026   2.881
 1222HOH     H1 3871   1.810   2.024   2.811
 1222HOH     H2 3872   1.945   2.083   2.847
 1223HOH      O 3873   1.228   2.454   1.299
 1223HOH     H1 3874   1.228   2.452   1.394
 1223HOH     H2 3875   1.175   2.530   1.276
 1224HOH      O 3876   0.634   0.037   1.241
 1224HOH     H1 3877   0.604  -0.032   1.183
 1224HOH     H2 3878   0.691   0.091   1.187
 1225HOH      O 3879   3.564   2.206   2.237
 1225HOH     H1 3880   3.654   2.229   2.217
 1225HOH     H2 3881   3.526   2.181   2.153
 1226HOH      O 3882   2.746   1.923   1.001
 1226HOH     H1 3883   2.723   1.974   0.922
 1226HOH     H2 3884   2.832   1.956   1.027
 1227HOH      O 3885   3.594   0.830   1.648
 1227HOH     H1 3886   3.511   0.865   1.681
 1227HOH     H2 3887   3.608   0.751   1.699
 1228HOH      O 3888   0.262   2.718   2.110
 1228HOH     H1 3889   0.203   2.672   2.051
 1228HOH     H2 3890   0.256   2.810   2.085
 1229HOH      O 3891   0.791   3.088   1.813
 1229HOH     H1 3892   0.803   2.996   1.838
 1229HOH     H2 3893   0.878   3.128   1.828
 1230HOH      O 3894   3.640   1.557   2.701
 1230HOH     H1 3895   3.731   1.534   2.683
 1230HOH     H2 3896   3.604   1.481   2.747
 1231HOH      O 3897   3.374   1.883   1.671
 1231HOH     H1 3898   3.457   1.838   1.657
 1231HOH     H2 3899   3.373   1.953   1.605
 1232HOH      O 3900   3.524   1.147   0.715
 1232HOH     H1 3901   3.469   1.069   0.723
 1232HOH     H2 3902   3.472   1.217   0.754
 1233HOH      O 3903   0.571   1.213   3.338
 1233HOH     H1 3904   0.591   1.139   3.281
 1233HOH     H2 3905   0.507   1.178   3.401
 1234HOH      O 3906   2.807   4.043   0.360
 1234HOH     H1 3907   2.760   3.966   0.394
 1234HOH     H2 3908   2.802   4.034   0.265
 1235HOH      O 3909   3.296   1.229   0.899
 1235HOH     H1 3910   3.271   1.240   0.991
 1235HOH     H2 3911   3.287   1.316   0.860
 1236HOH      O 3912   0.149   1.822   3.367
 1236HOH     H1 3913   0.204   1.820   3.289
 1236HOH     H2 3914   0.173   1.743   3.415
 1237HOH      O 3915   3.920   0.197   2.132
 1237HOH     H1 3916   3.964   0.124   2.175
 1237HOH     H2 3917   3.881   0.159   2.053
 1238HOH      O 3918   0.226   2.124   3.166
 1238HOH     H1 3919   0.238   2.202   3.111
 1238HOH     H2 3920   0.206   2.054   3.104
 1239HOH      O 3921   1.626   0.693   3.981
 1239HOH     H1 3922   1.577   0.677   3.900
 1239HOH     H2 3923   1.718   0.680   3.955
 1240HOH      O 3924   2.504   1.542   3.274
 1240HOH     H1 3925   2.592   1.523   3.307
 1240HOH     H2 3926   2.505   1.636   3.254
 1241HOH      O 3927   0.727   2.660   0.684
 1241HOH     H1 3928   0.806   2.606   0.689
 1241HOH     H2 3929   0.744   2.720   0.611
 1242HOH      O 3930   0.442   2.644   0.454
 1242HOH     H1 3931   0.455   2.556   0.489
 1242HOH     H2 3932   0.358   2.639   0.407
 1243HOH      O 3933   1.042   1.605   1.101
 1243HOH     H1 3934   1.110   1.559   1.150
 1243HOH     H2 3935   1.083   1.688   1.076
 1244HOH      O 3936   0.926   1.636   0.645
 1244HOH     H1 3937   0.905   1.589   0.564
 1244HOH     H2 3938   0.876   1.717   0.639
 1245HOH      O 3939   1.193   1.683   4.039
 1245HOH     H1 3940   1.246   1.625   3.985
 1245HOH     H2 3941   1.212   1.771   4.005
 1246HOH      O 3942   0.370   2.330   1.685
 1246HOH     H1 3943   0.399   2.262   1.623
 1246HOH     H2 3944   0.420   2.408   1.660
 1247HOH      O 3945   2.704   2.160   2.239
 1247HOH     H1 3946   2.613   2.145   2.214
 1247HOH     H2 3947   2.749   2.177   2.156
 1248HOH      O 3948   3.703   0.350   2.597
 1248HOH     H1 3949   3.750   0.414   2.650
 1248HOH     H2 3950   3.763   0.330   2.525
 1249HOH      O 3951   3.499   1.266   0.476
 1249HOH     H1 3952   3.407   1.287   0.463
 1249HOH     H2 3953   3.503   1.228   0.564
 1250HOH      O 3954   2.097   3.021   3.539
 1250HOH     H1 3955   2.158   3.062   3.601
 1250HOH     H2 3956   2.038   2.971   3.595
 1251HOH      O 3957   2.272   0.316   3.225
 1251HOH     H1 3958   2.324   0.384   3.183
 1251HOH     H2 3959   2.334   0.267   3.278
 1252HOH      O 3960   0.712   3.486   1.238
 1252HOH     H1 3961   0.677   3.497   1.150
 1252HOH     H2 3962   0.636   3.501   1.296
 1253HOH      O 3963   1.472   0.154   0.907
 1253HOH     H1 3964   1.381   0.178   0.889
 1253HOH     H2 3965   1.468   0.060   0.926
 1254HOH      O 3966   3.547   0.371   0.298
 1254HOH     H1 3967   3.606   0.319   0.244
 1254HOH     H2 3968   3.604   0.415   0.360
 1255HOH      O 3969   1.255   0.449   0.920
 1255HOH     H1 3970   1.191   0.482   0.983
 1255HOH     H2 3971   1.284   0.526   0.872
 1256HOH      O 3972   1.959   2.514   2.945
 1256HOH     H1 3973   1.965   2.458   3.023
 1256HOH     H2 3974   1.867   2.512   2.920
 1257HOH      O 3975   3.973   4.041   3.288
 1257HOH     H1 3976   3.894   3.990   3.301
 1257HOH     H2 3977   4.012   4.048   3.375
 1258HOH      O 3978   3.891   1.833   3.425
 1258HOH     H1 3979   3.888   1.845   3.331
 1258HOH     H2 3980   3.980   1.803   3.443
 1259HOH      O 3981   2.486   0.553   3.128
 1259HOH     H1 3982   2.535   0.565   3.046
 1259HOH     H2 3983   2.438   0.636   3.138
 1260HOH      O 3984   3.975   3.544   3.527
 1260HOH     H1 3985   3.976   3.614   3.462
 1260HOH     H2 3986   3.882   3.534   3.549
 1261HOH      O 3987   2.093   0.479   3.518
 1261HOH     H1 3988   2.093   0.525   3.602
 1261HOH     H2 3989   2.011   0.507   3.477
 1262HOH      O 3990   2.151   0.258   3.834
 1262HOH     H1 3991   2.065   0.283   3.798
 1262HOH     H2 3992   2.194   0.342   3.852
 1263HOH      O 3993   3.199   3.374   3.447
 1263HOH     H1 3994   3.175   3.466   3.455
 1263HOH     H2 3995   3.199   3.341   3.537
 1264HOH      O 3996   1.864   3.103   2.265
 1264HOH     H1 3997   1.894   3.047   2.337
 1264HOH     H2 3998   1.797   3.159   2.304
 1265HOH      O 3999   3.734   0.528   3.125
 1265HOH     H1 4000   3.822   0.527   3.088
 1265HOH     H2 4001   3.677   0.503   3.052
 1266HOH      O 4002   3.280   1.916   1.955
 1266HOH     H1 4003   3.330   1.986   1.997
 1266HOH     H2 4004   3.323   1.902   1.871
 1267HOH      O 4005   2.991   2.078   0.830
 1267HOH     H1 4006   2.961   1.989   0.812
 1267HOH     H2 4007   3.016   2.076   0.923
 1268HOH      O 4008   0.658   3.728   1.753
 1268HOH     H1 4009   0.699   3.745   1.838
 1268HOH     H2 4010   0.696   3.645   1.725
 1269HOH      O 4011   3.304   2.383   0.957
 1269HOH     H1 4012   3.375   2.344   0.906
 1269HOH     H2 4013   3.279   2.315   1.019
 1270HOH      O 4014   3.131   0.439   2.877
 1270HOH     H1 4015   3.180   0.359   2.857
 1270HOH     H2 4016   3.043   0.408   2.899
 1271HOH      O 4017   0.523   0.782   3.654
 1271HOH     H1 4018   0.481   0.813   3.573
 1271HOH     H2 4019   0.529   0.687   3.642
 1272HOH      O 4020   2.592   1.222   1.818
 1272HOH     H1 4021   2.686   1.236   1.828
 1272HOH     H2 4022   2.563   1.188   1.903
 1273HOH      O 4023   0.480   4.042   2.666
 1273HOH     H1 4024   0.401   4.013   2.712
 1273HOH     H2 4025   0.489   3.980   2.594
 1274HOH      O 4026   2.471   1.717   2.231
 1274HOH     H1 4027   2.469   1.644   2.292
 1274HOH     H2 4028   2.426   1.686   2.153
 1275HOH      O 4029   2.074   1.830   0.272
 1275HOH     H1 4030   2.038   1.743   0.256
 1275HOH     H2 4031   2.165   1.825   0.242
 1276HOH      O 4032   2.048   3.333   1.225
 1276HOH     H1 4033   2.046   3.370   1.137
 1276HOH     H2 4034   2.140   3.309   1.238
 1277HOH      O 4035   1.768   3.900   0.857
 1277HOH     H1 4036   1.683   3.917   0.900
 1277HOH     H2 4037   1.758   3.938   0.770
 1278HOH      O 4038   3.638   3.543   3.944
 1278HOH     H1 4039   3.723   3.559   3.985
 1278HOH     H2 4040   3.593   3.484   4.005
 1279HOH      O 4041   3.215   0.829   1.143
 1279HOH     H1 4042   3.132   0.840   1.188
 1279HOH     H2 4043   3.220   0.736   1.124
 1280HOH      O 4044   1.625   1.678   3.719
 1280HOH     H1 4045   1.545   1.650   3.675
 1280HOH     H2 4046   1.670   1.733   3.655
 1281HOH      O 4047   3.269   1.461   0.776
 1281HOH     H1 4048   3.229   1.452   0.689
 1281HOH     H2 4049   3.228   1.540   0.812
 1282HOH      O 4050   1.222   3.784   3.021
 1282HOH     H1 4051   1.244   3.858   2.965
 1282HOH     H2 4052   1.176   3.723   2.963
 1283HOH      O 4053   0.847   0.986   1.370
 1283HOH     H1 4054   0.819   0.902   1.407
 1283HOH     H2 4055   0.858   1.043   1.446
 1284HOH      O 4056   1.890   0.334   1.542
 1284HOH     H1 4057   1.822   0.299   1.599
 1284HOH     H2 4058   1.893   0.427   1.561
 1285HOH      O 4059   0.614   3.188   2.321
 1285HOH     H1 4060   0.692   3.161   2.272
 1285HOH     H2 4061   0.561   3.109   2.326
 1286HOH      O 4062   0.076   0.858   1.714
 1286HOH     H1 4063   0.059   0.819   1.800
 1286HOH     H2 4064   0.103   0.948   1.734
 1287HOH      O 4065   3.142   1.036   3.582
 1287HOH     H1 4066   3.139   0.947   3.548
 1287HOH     H2 4067   3.103   1.030   3.669
 1288HOH      O 4068   2.147   3.394   3.774
 1288HOH     H1 4069   2.092   3.472   3.776
 1288HOH     H2 4070   2.085   3.322   3.760
 1289HOH      O 4071   1.206   2.889   2.908
 1289HOH     H1 4072   1.226   2.918   2.997
 1289HOH     H2 4073   1.169   2.801   2.920
 1290HOH      O 4074   2.483   2.701   2.754
 1290HOH     H1 4075   2.416   2.690   2.821
 1290HOH     H2 4076   2.548   2.634   2.774
 1291HOH      O 4077   0.174   2.733   1.351
 1291HOH     H1 4078   0.150   2.659   1.406
 1291HOH     H2 4079   0.102   2.796   1.362
 1292HOH      O 4080   0.632   3.779   1.283
 1292HOH     H1 4081   0.721   3.747   1.268
 1292HOH     H2 4082   0.620   3.771   1.378
 1293HOH      O 4083   1.995   1.058   0.994
 1293HOH     H1 4084   1.982   1.147   1.027
 1293HOH     H2 4085   2.011   1.006   1.073
 1294HOH      O 4086   3.656   0.726   4.039
 1294HOH     H1 4087   3.714   0.672   4.092
 1294HOH     H2 4088   3.713   0.763   3.972
 1295HOH      O 4089   3.822   2.194   2.104
 1295HOH     H1 4090   3.871   2.239   2.173
 1295HOH     H2 4091   3.831   2.101   2.126
 1296HOH      O 4092   2.425   2.375   2.363
 1296HOH     H1 4093   2.508   2.349   2.404
 1296HOH     H2 4094   2.374   2.412   2.434
 1297HOH      O 4095   2.719   0.772   0.040
 1297HOH     H1 4096   2.691   0.745  -0.047
 1297HOH     H2 4097   2.802   0.816   0.026
 1298HOH      O 4098   3.357   2.819   0.957
 1298HOH     H1 4099   3.404   2.901   0.971
 1298HOH     H2 4100   3.316   2.829   0.871
 1299HOH      O 4101   1.418   2.707   3.500
 1299HOH     H1 4102   1.424   2.631   3.558
 1299HOH     H2 4103   1.459   2.778   3.550
 1300HOH      O 4104   2.086   0.456   0.358
 1300HOH     H1 4105   2.021   0.395   0.392
 1300HOH     H2 4106   2.153   0.462   0.427
 1301HOH      O 4107   2.182   0.803   1.010
 1301HOH     H1 4108   2.210   0.725   1.058
 1301HOH     H2 4109   2.158   0.865   1.078
 1302HOH      O 4110   3.445   2.774   2.594
 1302HOH     H1 4111   3.381   2.703   2.595
 1302HOH     H2 4112   3.420   2.828   2.519
 1303HOH      O 4113   3.012   3.163   0.483
 1303HOH     H1 4114   2.996   3.128   0.571
 1303HOH     H2 4115   3.092   3.118   0.454
 1304HOH      O 4116   1.612   0.166   2.788
 1304HOH     H1 4117   1.548   0.195   2.723
 1304HOH     H2 4118   1.559   0.131   2.860
 1305HOH      O 4119   1.643   0.383   0.902
 1305HOH     H1 4120   1.600   0.407   0.820
 1305HOH     H2 4121   1.596   0.304   0.931
 1306HOH      O 4122   3.977   0.448   2.975
 1306HOH     H1 4123   3.968   0.354   2.992
 1306HOH     H2 4124   4.064   0.470   3.009
 1307HOH      O 4125   3.623   2.714   3.687
 1307HOH     H1 4126   3.595   2.633   3.643
 1307HOH     H2 4127   3.643   2.774   3.615
 1308HOH      O 4128   3.171   1.836   2.357
 1308HOH     H1 4129   3.172   1.895   2.282
 1308HOH     H2 4130   3.084   1.797   2.357
 1309HOH      O 4131   1.035   0.697   0.506
 1309HOH     H1 4132   1.078   0.750   0.574
 1309HOH     H2 4133   1.036   0.608   0.541
 1310HOH      O 4134   2.589   1.675   0.529
 1310HOH     H1 4135   2.605   1.711   0.616
 1310HOH     H2 4136   2.493   1.672   0.522
 1311HOH      O 4137   0.768   4.027   0.818
 1311HOH     H1 4138   0.688   3.984   0.787
 1311HOH     H2 4139   0.808   4.063   0.739
 1312HOH      O 4140  -0.032   0.576   3.358
 1312HOH     H1 4141  -0.009   0.615   3.274
 1312HOH     H2 4142   0.048   0.584   3.410
 1313HOH      O 4143   1.975   1.559   1.004
 1313HOH     H1 4144   2.063   1.593   1.017
 1313HOH     H2 4145   1.940   1.609   0.931
 1314HOH      O 4146   1.189   0.159   3.669
 1314HOH     H1 4147   1.107   0.145   3.717
 1314HOH     H2 4148   1.252   0.103   3.713
 1315HOH      O 4149   3.385   0.613   3.073
 1315HOH     H1 4150   3.419   0.525   3.090
 1315HOH     H2 4151   3.369   0.615   2.979
 1316HOH      O 4152   2.389   1.447   0.647
 1316HOH     H1 4153   2.461   1.405   0.600
 1316HOH     H2 4154   2.341   1.494   0.579
 1317HOH      O 4155   2.800   3.074   2.439
 1317HOH     H1 4156   2.892   3.095   2.451
 1317HOH     H2 4157   2.777   3.115   2.355
 1318HOH      O 4158   0.873   3.711   3.549
 1318HOH     H1 4159   0.789   3.757   3.558
 1318HOH     H2 4160   0.923   3.765   3.488
 1319HOH      O 4161   2.731   2.894   2.712
 1319HOH     H1 4162   2.764   2.983   2.701
 1319HOH     H2 4163   2.809   2.840   2.725
 1320HOH      O 4164   1.771   2.453   3.624
 1320HOH     H1 4165   1.682   2.477   3.649
 1320HOH     H2 4166   1.795   2.384   3.686
 1321HOH      O 4167   1.303   1.391   0.023
 1321HOH     H1 4168   1.373   1.386  -0.043
 1321HOH     H2 4169   1.315   1.312   0.076
 1322HOH      O 4170   0.092   3.466   1.062
 1322HOH     H1 4171   0.037   3.391   1.086
 1322HOH     H2 4172   0.044   3.508   0.991
 1323HOH      O 4173   2.421   3.540   2.667
 1323HOH     H1 4174   2.419   3.518   2.761
 1323HOH     H2 4175   2.337   3.584   2.652
 1324HOH      O 4176   0.620   3.728   0.664
 1324HOH     H1 4177   0.571   3.651   0.693
 1324HOH     H2 4178   0.571   3.802   0.700
 1325HOH      O 4179   3.603   1.752   1.586
 1325HOH     H1 4180   3.698   1.762   1.591
 1325HOH     H2 4181   3.588   1.712   1.500
 1326HOH      O 4182   3.088   2.030   1.475
 1326HOH     H1 4183   3.020   2.055   1.538
 1326HOH     H2 4184   3.067   1.940   1.452
 1327HOH      O 4185   1.818   2.275   0.123
 1327HOH     H1 4186   1.757   2.203   0.107
 1327HOH     H2 4187   1.794   2.342   0.059
 1328HOH      O 4188   2.691   0.812   3.819
 1328HOH     H1 4189   2.760   0.747   3.832
 1328HOH     H2 4190   2.619   0.763   3.780
 1329HOH      O 4191   3.257   3.991   0.635
 1329HOH     H1 4192   3.162   3.989   0.634
 1329HOH     H2 4193   3.281   3.943   0.714
 1330HOH      O 4194   1.056   2.330   0.538
 1330HOH     H1 4195   0.977   2.282   0.513
 1330HOH     H2 4196   1.118   2.314   0.467
 1331HOH      O 4197   2.187   1.252   2.686
 1331HOH     H1 4198   2.232   1.167   2.691
 1331HOH     H2 4199   2.174   1.278   2.777
 1332HOH      O 4200   3.106   0.301   0.571
 1332HOH     H1 4201   3.172   0.236   0.548
 1332HOH     H2 4202   3.027   0.271   0.527
 1333HOH      O 4203   0.826   0.974   3.183
 1333HOH     H1 4204   0.890   1.035   3.220
 1333HOH     H2 4205   0.751   1.028   3.159
 1334HOH      O 4206   3.234   2.580   3.480
 1334HOH     H1 4207   3.237   2.509   3.416
 1334HOH     H2 4208   3.326   2.600   3.497
 1335HOH      O 4209   2.878   1.024   3.762
 1335HOH     H1 4210   2.959   1.049   3.806
 1335HOH     H2 4211   2.842   0.952   3.814
 1336HOH      O 4212   2.436   3.668   3.930
 1336HOH     H1 4213   2.423   3.606   3.858
 1336HOH     H2 4214   2.511   3.633   3.979
 1337HOH      O 4215   1.643   1.673   1.210
 1337HOH     H1 4216   1.589   1.631   1.277
 1337HOH     H2 4217   1.725   1.693   1.256
 1338HOH      O 4218   3.102   3.900   1.469
 1338HOH     H1 4219   3.070   3.975   1.518
 1338HOH     H2 4220   3.104   3.828   1.532
 1339HOH      O 4221   2.084   3.098   3.912
 1339HOH     H1 4222   2.112   3.007   3.925
 1339HOH     H2 4223   2.123   3.146   3.985
 1340HOH      O 4224   1.610   0.278   1.235
 1340HOH     H1 4225   1.553   0.201   1.235
 1340HOH     H2 4226   1.562   0.343   1.184
 1341HOH      O 4227   2.274   3.945   0.913
 1341HOH     H1 4228   2.239   4.016   0.966
 1341HOH     H2 4229   2.306   3.881   0.976
 1342HOH      O 4230   3.642   0.145   1.239
 1342HOH     H1 4231   3.702   0.079   1.202
 1342HOH     H2 4232   3.627   0.206   1.168
 1343HOH      O 4233   1.715   0.497   2.922
 1343HOH     H1 4234   1.661   0.505   3.001
 1343HOH     H2 4235   1.723   0.586   2.889
 1344HOH      O 4236   3.912   2.662   3.151
 1344HOH     H1 4237   3.891   2.571   3.128
 1344HOH     H2 4238   4.001   2.657   3.185
 1345HOH      O 4239   0.119   0.085   1.526
 1345HOH     H1 4240   0.129   0.012   1.587
 1345HOH     H2 4241   0.061   0.051   1.457
 1346HOH      O 4242   0.347   3.704   1.901
 1346HOH     H1 4243   0.429   3.666   1.869
 1346HOH     H2 4244   0.302   3.631   1.944
 1347HOH      O 4245   1.098   3.215   1.116
 1347HOH     H1 4246   1.191   3.234   1.118
 1347HOH     H2 4247   1.071   3.217   1.208
 1348HOH      O 4248   1.420   1.906   1.309
 1348HOH     H1 4249   1.502   1.873   1.345
 1348HOH     H2 4250   1.402   1.986   1.359
 1349HOH      O 4251   1.967   0.240   3.369
 1349HOH     H1 4252   1.937   0.283   3.289
 1349HOH     H2 4253   2.048   0.286   3.392
 1350HOH      O 4254   2.811   3.864   4.038
 1350HOH     H1 4255   2.775   3.952   4.050
 1350HOH     H2 4256   2.799   3.846   3.945
 1351HOH      O 4257   3.448   3.127   3.646
 1351HOH     H1 4258   3.486   3.041   3.631
 1351HOH     H2 4259   3.522   3.182   3.672
 1352HOH      O 4260   3.310   0.738   2.455
 1352HOH     H1 4261   3.321   0.777   2.368
 1352HOH     H2 4262   3.377   0.782   2.509
 1353HOH      O 4263   1.357   2.857   0.265
 1353HOH     H1 4264   1.319   2.881   0.181
 1353HOH     H2 4265   1.283   2.825   0.317
 1354HOH      O 4266   0.396   1.110   1.517
 1354HOH     H1 4267   0.464   1.172   1.542
 1354HOH     H2 4268   0.348   1.092   1.598
 1355HOH      O 4269   3.116   3.391   1.140
 1355HOH     H1 4270   3.081   3.424   1.223
 1355HOH     H2 4271   3.201   3.354   1.163
 1356HOH      O 4272   1.015   0.457   1.068
 1356HOH     H1 4273   0.974   0.414   0.993
 1356HOH     H2 4274   0.955   0.442   1.141
 1357HOH      O 4275   1.946   1.108   1.744
 1357HOH     H1 4276   2.009   1.080   1.810
 1357HOH     H2 4277   1.910   1.027   1.708
 1358HOH      O 4278   1.756   1.224   1.319
 1358HOH     H1 4279   1.813   1.178   1.381
 1358HOH     H2 4280   1.670   1.222   1.360
 1359HOH      O 4281   3.847   0.432   3.500
 1359HOH     H1 4282   3.808   0.371   3.437
 1359HOH     H2 4283   3.891   0.497   3.446
 1360HOH      O 4284   2.543   3.897   0.797
 1360HOH     H1 4285   2.584   3.877   0.881
 1360HOH     H2 4286   2.449   3.897   0.815
 1361HOH      O 4287   1.450   2.928   2.165
 1361HOH     H1 4288   1.450   2.850   2.220
 1361HOH     H2 4289   1.540   2.938   2.136
 1362HOH      O 4290   0.420   3.537   0.659
 1362HOH     H1 4291   0.420   3.460   0.603
 1362HOH     H2 4292   0.405   3.502   0.747
 1363HOH      O 4293   0.393   0.245   1.170
 1363HOH     H1 4294   0.443   0.182   1.221
 1363HOH     H2 4295   0.423   0.330   1.202
 1364HOH      O 4296   3.770   2.033   1.713
 1364HOH     H1 4297   3.808   1.951   1.683
 1364HOH     H2 4298   3.725   2.010   1.795
 1365HOH      O 4299   1.050   1.787   3.768
 1365HOH     H1 4300   1.054   1.875   3.731
 1365HOH     H2 4301   1.142   1.760   3.778
 1366HOH      O 4302   2.387   2.639   3.634
 1366HOH     H1 4303   2.371   2.559   3.585
 1366HOH     H2 4304   2.339   2.706   3.586
 1367HOH      O 4305   1.099   1.193   1.540
 1367HOH     H1 4306   1.005   1.184   1.558
 1367HOH     H2 4307   1.130   1.104   1.530
 1368HOH      O 4308   1.658   2.606   1.348
 1368HOH     H1 4309   1.670   2.691   1.305
 1368HOH     H2 4310   1.675   2.623   1.440
 1369HOH      O 4311   2.214   3.064   1.227
 1369HOH     H1 4312   2.216   2.977   1.266
 1369HOH     H2 4313   2.292   3.108   1.262
 1370HOH      O 4314   2.609   1.029   0.559
 1370HOH     H1 4315   2.609   1.093   0.629
 1370HOH     H2 4316   2.530   1.048   0.508
 1371HOH      O 4317   2.841   2.562   3.664
 1371HOH     H1 4318   2.918   2.619   3.659
 1371HOH     H2 4319   2.876   2.473   3.665
 1372HOH      O 4320   2.294   1.661   2.973
 1372HOH     H1 4321   2.384   1.678   2.945
 1372HOH     H2 4322   2.302   1.644   3.067
 1373HOH      O 4323   3.605   3.722   1.866
 1373HOH     H1 4324   3.692   3.758   1.877
 1373HOH     H2 4325   3.594   3.711   1.772
 1374HOH      O 4326   1.035   3.264   1.410
 1374HOH     H1 4327   0.975   3.204   1.366
 1374HOH     H2 4328   1.067   3.216   1.486
 1375HOH      O 4329   1.519   0.411   0.667
 1375HOH     H1 4330   1.477   0.494   0.641
 1375HOH     H2 4331   1.583   0.394   0.598
 1376HOH      O 4332   1.680   1.936   1.026
 1376HOH     H1 4333   1.691   2.020   1.070
 1376HOH     H2 4334   1.684   1.871   1.096
 1377HOH      O 4335   3.995   2.218   3.241
 1377HOH     H1 4336   4.047   2.294   3.270
 1377HOH     H2 4337   4.051   2.143   3.260
 1378HOH      O 4338   4.008   1.224   3.482
 1378HOH     H1 4339   4.089   1.235   3.431
 1378HOH     H2 4340   3.995   1.308   3.525
 1379HOH      O 4341   3.724   0.323   3.783
 1379HOH     H1 4342   3.666   0.386   3.742
 1379HOH     H2 4343   3.669   0.277   3.846
 1380HOH      O 4344   0.440   0.491   2.157
 1380HOH     H1 4345   0.422   0.436   2.233
 1380HOH     H2 4346   0.355   0.505   2.117
 1381HOH      O 4347   0.305   1.374   1.009
 1381HOH     H1 4348   0.347   1.404   1.090
 1381HOH     H2 4349   0.333   1.283   0.999
 1382HOH      O 4350   2.811   0.978   2.996
 1382HOH     H1 4351   2.833   0.893   2.959
 1382HOH     H2 4352   2.832   0.970   3.089
 1383HOH      O 4353   3.648   3.145  -0.028
 1383HOH     H1 4354   3.577   3.094   0.010
 1383HOH     H2 4355   3.726   3.116   0.019
 1384HOH      O 4356   1.925   1.549   1.527
 1384HOH     H1 4357   2.011   1.549   1.570
 1384HOH     H2 4358   1.903   1.457   1.518
 1385HOH      O 4359   2.698   0.069   1.214
 1385HOH     H1 4360   2.744   0.127   1.154
 1385HOH     H2 4361   2.612   0.110   1.226
 1386HOH      O 4362   1.879   0.834   1.690
 1386HOH     H1 4363   1.820   0.839   1.614
 1386HOH     H2 4364   1.920   0.748   1.682
 1387HOH      O 4365   3.568   2.409   0.216
 1387HOH     H1 4366   3.573   2.498   0.179
 1387HOH     H2 4367   3.658   2.376   0.212
 1388HOH      O 4368   1.015   3.111   3.362
 1388HOH     H1 4369   1.110   3.124   3.352
 1388HOH     H2 4370   1.006   3.072   3.449
 1389HOH      O 4371   3.862   1.408   2.613
 1389HOH     H1 4372   3.896   1.446   2.532
 1389HOH     H2 4373   3.903   1.322   2.618
 1390HOH      O 4374   0.335   3.040   1.482
 1390HOH     H1 4375   0.350   2.962   1.428
 1390HOH     H2 4376   0.320   3.006   1.570
 1391HOH      O 4377   3.720   0.232   0.127
 1391HOH     H1 4378   3.774   0.298   0.085
 1391HOH     H2 4379   3.780   0.159   0.143
 1392HOH      O 4380   1.878   1.357   1.855
 1392HOH     H1 4381   1.901   1.266   1.839
 1392HOH     H2 4382   1.865   1.394   1.768
 1393HOH      O 4383   3.127   2.910   2.439
 1393HOH     H1 4384   3.219   2.926   2.418
 1393HOH     H2 4385   3.095   2.995   2.470
 1394HOH      O 4386   1.703   3.480   0.930
 1394HOH     H1 4387   1.690   3.392   0.964
 1394HOH     H2 4388   1.718   3.534   1.008
 1395HOH      O 4389   1.635   0.273   2.476
 1395HOH     H1 4390   1.660   0.334   2.405
 1395HOH     H2 4391   1.540   0.274   2.476
 1396HOH      O 4392   1.240   3.928   2.108
 1396HOH     H1 4393   1.300   3.880   2.051
 1396HOH     H2 4394   1.245   3.882   2.192
 1397HOH      O 4395   0.471   1.955   0.725
 1397HOH     H1 4396   0.414   1.929   0.653
 1397HOH     H2 4397   0.416   1.947   0.803
 1398HOH      O 4398   2.693   0.392   3.703
 1398HOH     H1 4399   2.658   0.319   3.753
 1398HOH     H2 4400   2.773   0.357   3.663
 1399HOH      O 4401   0.458   0.611   2.990
 1399HOH     H1 4402   0.413   0.677   2.936
 1399HOH     H2 4403   0.472   0.538   2.930
 1400HOH      O 4404   2.189   2.215   1.759
 1400HOH     H1 4405   2.145   2.138   1.721
 1400HOH     H2 4406   2.190   2.198   1.853
 1401HOH      O 4407   3.958   3.301   0.089
 1401HOH     H1 4408   3.971   3.314  -0.005
 1401HOH     H2 4409   4.027   3.239   0.115
 1402HOH      O 4410   3.688   2.440   3.897
 1402HOH     H1 4411   3.660   2.519   3.944
 1402HOH     H2 4412   3.774   2.420   3.934
 1403HOH      O 4413   0.323   2.938   3.305
 1403HOH     H1 4414   0.384   3.007   3.334
 1403HOH     H2 4415   0.368   2.896   3.231
 1404HOH      O 4416   1.356   3.607   2.668
 1404HOH     H1 4417   1.411   3.675   2.706
 1404HOH     H2 4418   1.335   3.549   2.741
 1405HOH      O 4419   2.757   3.540   1.326
 1405HOH     H1 4420   2.727   3.588   1.403
 1405HOH     H2 4421   2.850   3.525   1.342
 1406HOH      O 4422   0.269   0.234   2.873
 1406HOH     H1 4423   0.263   0.284   2.955
 1406HOH     H2 4424   0.287   0.145   2.901
 1407HOH      O 4425   2.223   0.054   2.236
 1407HOH     H1 4426   2.280   0.026   2.165
 1407HOH     H2 4427   2.139   0.074   2.193
 1408HOH      O 4428   0.511   3.878   1.082
 1408HOH     H1 4429   0.426   3.909   1.111
 1408HOH     H2 4430   0.549   3.836   1.160
 1409HOH      O 4431   2.944   1.399   0.979
 1409HOH     H1 4432   2.911   1.456   0.910
 1409HOH     H2 4433   2.911   1.312   0.957
 1410HOH      O 4434   0.556   1.079   2.770
 1410HOH     H1 4435   0.616   1.070   2.696
 1410HOH     H2 4436   0.480   1.027   2.746
 1411HOH      O 4437   1.165   0.202   1.342
 1411HOH     H1 4438   1.142   0.174   1.431
 1411HOH     H2 4439   1.160   0.297   1.345
 1412HOH      O 4440   3.560   3.100   3.053
 1412HOH     H1 4441   3.609   3.028   3.092
 1412HOH     H2 4442   3.621   3.174   3.054
 1413HOH      O 4443   0.546   1.151   3.735
 1413HOH     H1 4444   0.521   1.219   3.798
 1413HOH     H2 4445   0.490   1.169   3.658
 1414HOH      O 4446   3.544   1.394   3.535
 1414HOH     H1 4447   3.457   1.361   3.557
 1414HOH     H2 4448   3.604   1.326   3.564
 1415HOH      O 4449   0.193   0.264   0.789
 1415HOH     H1 4450   0.234   0.303   0.866
 1415HOH     H2 4451   0.260   0.268   0.721
 1416HOH      O 4452   4.018   3.416   0.651
 1416HOH     H1 4453   4.087   3.482   0.648
 1416HOH     H2 4454   3.941   3.459   0.613
 1417HOH      O 4455   0.724   0.626   3.457
 1417HOH     H1 4456   0.702   0.667   3.541
 1417HOH     H2 4457   0.658   0.660   3.396
 1418HOH      O 4458   3.110   2.404   2.489
 1418HOH     H1 4459   3.091   2.341   2.419
 1418HOH     H2 4460   3.036   2.465   2.486
 1419HOH      O 4461   0.303   0.813   2.882
 1419HOH     H1 4462   0.266   0.856   2.804
 1419HOH     H2 4463   0.260   0.856   2.955
 1420HOH      O 4464   1.724   2.466   1.954
 1420HOH     H1 4465   1.750   2.550   1.992
 1420HOH     H2 4466   1.802   2.411   1.962
 1421HOH      O 4467   2.940   1.710   2.371
 1421HOH     H1 4468   2.942   1.650   2.297
 1421HOH     H2 4469   2.848   1.733   2.381
 1422HOH      O 4470   1.499   3.927   2.306
 1422HOH     H1 4471   1.474   3.992   2.240
 1422HOH     H2 4472   1.584   3.894   2.276
 1423HOH      O 4473   2.991   0.306   1.197
 1423HOH     H1 4474   3.047   0.375   1.232
 1423HOH     H2 4475   2.956   0.262   1.274
 1424HOH      O 4476   0.298   2.590   3.385
 1424HOH     H1 4477   0.322   2.628   3.300
 1424HOH     H2 4478   0.243   2.657   3.426
 1425HOH      O 4479   0.898   1.826   1.381
 1425HOH     H1 4480   0.924   1.737   1.405
 1425HOH     H2 4481   0.920   1.879   1.458
 1426HOH      O 4482   1.668   1.822   3.465
 1426HOH     H1 4483   1.609   1.893   3.443
 1426HOH     H2 4484   1.627   1.744   3.426
 1427HOH      O 4485   1.518   1.605   2.665
 1427HOH     H1 4486   1.438   1.657   2.674
 1427HOH     H2 4487   1.556   1.605   2.753
 1428HOH      O 4488   4.000   1.987   2.959
 1428HOH     H1 4489   4.094   1.974   2.966
 1428HOH     H2 4490   3.991   2.073   2.918
 1429HOH      O 4491   2.184   1.752   1.835
 1429HOH     H1 4492   2.256   1.730   1.895
 1429HOH     H2 4493   2.172   1.673   1.784
 1430HOH      O 4494   2.291   0.124   2.596
 1430HOH     H1 4495   2.201   0.108   2.567
 1430HOH     H2 4496   2.286   0.122   2.692
 1431HOH      O 4497   0.329   0.561   3.808
 1431HOH     H1 4498   0.403   0.540   3.752
 1431HOH     H2 4499   0.365   0.618   3.876
 1432HOH      O 4500   1.060   3.605   1.016
 1432HOH     H1 4501   0.992   3.661   0.980
 1432HOH     H2 4502   1.029   3.582   1.104
 1433HOH      O 4503   1.079   2.637   2.830
 1433HOH     H1 4504   0.994   2.597   2.849
 1433HOH     H2 4505   1.067   2.678   2.744
 1434HOH      O 4506   2.665   2.916   2.984
 1434HOH     H1 4507   2.715   2.851   3.033
 1434HOH     H2 4508   2.712   2.924   2.901
 1435HOH      O 4509   2.309   0.267   0.235
 1435HOH     H1 4510   2.247   0.216   0.182
 1435HOH     H2 4511   2.278   0.255   0.325
 1436HOH      O 4512   3.412   2.303   3.750
 1436HOH     H1 4513   3.379   2.313   3.839
 1436HOH     H2 4514   3.430   2.209   3.742
 1437HOH      O 4515   1.629   1.461   0.245
 1437HOH     H1 4516   1.612   1.533   0.305
 1437HOH     H2 4517   1.572   1.390   0.275
 1438HOH      O 4518   0.972   1.310   0.540
 1438HOH     H1 4519   0.976   1.388   0.485
 1438HOH     H2 4520   1.063   1.295   0.567
 1439HOH      O 4521   3.600   1.193   2.486
 1439HOH     H1 4522   3.517   1.187   2.438
 1439HOH     H2 4523   3.662   1.229   2.422
 1440HOH      O 4524   4.001   4.018   1.300
 1440HOH     H1 4525   3.934   4.036   1.234
 1440HOH     H2 4526   4.021   3.925   1.289
 1441HOH      O 4527   3.708   0.449   0.841
 1441HOH     H1 4528   3.776   0.452   0.773
 1441HOH     H2 4529   3.690   0.541   0.860
 1442HOH      O 4530   2.994   1.514   2.148
 1442HOH     H1 4531   2.929   1.444   2.152
 1442HOH     H2 4532   3.074   1.473   2.182
 1443HOH      O 4533   0.044   1.853   0.767
 1443HOH     H1 4534   0.130   1.884   0.796
 1443HOH     H2 4535   0.061   1.765   0.734
 1444HOH      O 4536   0.731   1.975   0.919
 1444HOH     H1 4537   0.740   1.933   1.004
 1444HOH     H2 4538   0.679   1.913   0.867
 1445HOH      O 4539   0.760   2.242   3.569
 1445HOH     H1 4540   0.778   2.163   3.518
 1445HOH     H2 4541   0.794   2.314   3.516
 1446HOH      O 4542   3.620   1.175   1.533
 1446HOH     H1 4543   3.705   1.148   1.567
 1446HOH     H2 4544   3.639   1.209   1.446
 1447HOH      O 4545   2.423   0.117   1.207
 1447HOH     H1 4546   2.380   0.194   1.245
 1447HOH     H2 4547   2.354   0.069   1.163
 1448HOH      O 4548   0.499   3.732   2.133
 1448HOH     H1 4549   0.527   3.814   2.173
 1448HOH     H2 4550   0.435   3.759   2.067
 1449HOH      O 4551   1.385   0.334   2.343
 1449HOH     H1 4552   1.329   0.388   2.399
 1449HOH     H2 4553   1.384   0.378   2.258
 1450HOH      O 4554   0.810   3.956   1.483
 1450HOH     H1 4555   0.802   3.977   1.390
 1450HOH     H2 4556   0.842   3.865   1.484
 1451HOH      O 4557   1.348   3.876   1.377
 1451HOH     H1 4558   1.376   3.785   1.386
 1451HOH     H2 4559   1.289   3.891   1.451
 1452HOH      O 4560   0.573   0.480   0.779
 1452HOH     H1 4561   0.536   0.490   0.691
 1452HOH     H2 4562   0.574   0.385   0.793
 1453HOH      O 4563   1.754   3.290   1.212
 1453HOH     H1 4564   1.812   3.245   1.151
 1453HOH     H2 4565   1.806   3.363   1.246
 1454HOH      O 4566   1.895   0.166   0.158
 1454HOH     H1 4567   1.951   0.151   0.234
 1454HOH     H2 4568   1.859   0.079   0.138
 1455HOH      O 4569   1.365   2.178   3.620
 1455HOH     H1 4570   1.327   2.264   3.603
 1455HOH     H2 4571   1.351   2.129   3.540
 1456HOH      O 4572   2.534   3.142   1.875
 1456HOH     H1 4573   2.563   3.176   1.960
 1456HOH     H2 4574   2.615   3.130   1.825
 1457HOH      O 4575   3.206   1.740   0.038
 1457HOH     H1 4576   3.197   1.768   0.129
 1457HOH     H2 4577   3.282   1.789   0.005
 1458HOH      O 4578   0.948   1.593   3.550
 1458HOH     H1 4579   0.978   1.599   3.640
 1458HOH     H2 4580   0.856   1.618   3.554
 1459HOH      O 4581   0.271   0.983   1.195
 1459HOH     H1 4582   0.318   1.039   1.256
 1459HOH     H2 4583   0.286   0.894   1.227
 1460HOH      O 4584   2.743   1.941   3.649
 1460HOH     H1 4585   2.819   1.983   3.610
 1460HOH     H2 4586   2.778   1.897   3.727
 1461HOH      O 4587   3.728   3.875   3.580
 1461HOH     H1 4588   3.750   3.965   3.604
 1461HOH     H2 4589   3.735   3.826   3.662
 1462HOH      O 4590   2.315   1.004   0.654
 1462HOH     H1 4591   2.292   1.063   0.726
 1462HOH     H2 4592   2.390   0.954   0.688
 1463HOH      O 4593   1.763   0.738   2.817
 1463HOH     H1 4594   1.730   0.808   2.874
 1463HOH     H2 4595   1.852   0.765   2.796
 1464HOH      O 4596   1.062   0.648   2.770
 1464HOH     H1 4597   0.975   0.609   2.774
 1464HOH     H2 4598   1.122   0.577   2.795
 1465HOH      O 4599   2.321   1.716   0.561
 1465HOH     H1 4600   2.232   1.728   0.595
 1465HOH     H2 4601   2.338   1.794   0.509
 1466HOH      O 4602   3.670   2.508   1.618
 1466HOH     H1 4603   3.619   2.488   1.539
 1466HOH     H2 4604   3.725   2.430   1.631
 1467HOH      O 4605   1.199   1.045   3.971
 1467HOH     H1 4606   1.226   1.051   3.879
 1467HOH     H2 4607   1.256   0.977   4.008
 1468HOH      O 4608   3.483   2.189   1.963
 1468HOH     H1 4609   3.509   2.099   1.946
 1468HOH     H2 4610   3.432   2.214   1.886
 1469HOH      O 4611   1.228   3.790   3.478
 1469HOH     H1 4612   1.226   3.750   3.391
 1469HOH     H2 4613   1.255   3.718   3.536
 1470HOH      O 4614   2.247   2.426   3.924
 1470HOH     H1 4615   2.316   2.479   3.965
 1470HOH     H2 4616   2.199   2.389   3.998
 1471HOH      O 4617   1.206   0.196   0.862
 1471HOH     H1 4618   1.158   0.198   0.778
 1471HOH     H2 4619   1.216   0.289   0.885
 1472HOH      O 4620   2.661   3.004   1.495
 1472HOH     H1 4621   2.657   3.096   1.471
 1472HOH     H2 4622   2.754   2.984   1.504
 1473HOH      O 4623   0.382   2.689   3.154
 1473HOH     H1 4624   0.312   2.741   3.114
 1473HOH     H2 4625   0.395   2.616   3.093
 1474HOH      O 4626   2.220   0.860   1.721
 1474HOH     H1 4627   2.297   0.826   1.767
 1474HOH     H2 4628   2.188   0.930   1.778
 1475HOH      O 4629   0.840   4.040   2.200
 1475HOH     H1 4630   0.860   3.946   2.193
 1475HOH     H2 4631   0.884   4.079   2.125
 1476HOH      O 4632   1.626   2.776   0.594
 1476HOH     H1 4633   1.660   2.703   0.646
 1476HOH     H2 4634   1.624   2.741   0.505
 1477HOH      O 4635   1.198   2.453   3.758
 1477HOH     H1 4636   1.117   2.502   3.772
 1477HOH     H2 4637   1.177   2.391   3.688
 1478HOH      O 4638   0.816   0.982   3.618
 1478HOH     H1 4639   0.867   0.953   3.543
 1478HOH     H2 4640   0.847   1.071   3.636
 1479HOH      O 4641   2.367   3.730   1.660
 1479HOH     H1 4642   2.308   3.675   1.712
 1479HOH     H2 4643   2.383   3.807   1.715
 1480HOH      O 4644   2.488   0.777   3.434
 1480HOH     H1 4645   2.537   0.844   3.482
 1480HOH     H2 4646   2.543   0.699   3.438
 1481HOH      O 4647   1.027   2.706   2.580
 1481HOH     H1 4648   0.983   2.766   2.520
 1481HOH     H2 4649   1.001   2.619   2.550
 1482HOH      O 4650   2.444   2.084   1.105
 1482HOH     H1 4651   2.399   2.063   1.023
 1482HOH     H2 4652   2.510   2.015   1.115
 1483HOH      O 4653   0.626   3.832   3.543
 1483HOH     H1 4654   0.599   3.923   3.543
 1483HOH     H2 4655   0.587   3.795   3.464
 1484HOH      O 4656   0.389   1.096   0.983
 1484HOH     H1 4657   0.469   1.046   0.998
 1484HOH     H2 4658   0.328   1.065   1.050
 1485HOH      O 4659   3.260   1.609   1.325
 1485HOH     H1 4660   3.315   1.618   1.248
 1485HOH     H2 4661   3.276   1.689   1.376
 1486HOH      O 4662   3.447   0.353   2.190
 1486HOH     H1 4663   3.364   0.387   2.224
 1486HOH     H2 4664   3.423   0.274   2.143
 1487HOH      O 4665   3.335   2.725   0.166
 1487HOH     H1 4666   3.427   2.698   0.165
 1487HOH     H2 4667   3.331   2.803   0.111
 1488HOH      O 4668   0.550   2.890   0.492
 1488HOH     H1 4669   0.515   2.801   0.494
 1488HOH     H2 4670   0.644   2.879   0.502
 1489HOH      O 4671   3.310   2.552   2.589
 1489HOH     H1 4672   3.263   2.486   2.538
 1489HOH     H2 4673   3.288   2.532   2.680
 1490HOH      O 4674   3.720   3.082   2.538
 1490HOH     H1 4675   3.810   3.112   2.527
 1490HOH     H2 4676   3.685   3.139   2.608
 1491HOH      O 4677   1.584   0.446   3.144
 1491HOH     H1 4678   1.588   0.377   3.210
 1491HOH     H2 4679   1.501   0.491   3.161
 1492HOH      O 4680   3.782   1.627   0.796
 1492HOH     H1 4681   3.807   1.590   0.881
 1492HOH     H2 4682   3.691   1.601   0.785
 1493HOH      O 4683   0.986   3.495   1.962
 1493HOH     H1 4684   0.929   3.466   1.890
 1493HOH     H2 4685   1.000   3.588   1.946
 1494HOH      O 4686   1.717   2.738   1.024
 1494HOH     H1 4687   1.634   2.699   0.999
 1494HOH     H2 4688   1.700   2.779   1.109
 1495HOH      O 4689   3.900   3.185   0.870
 1495HOH     H1 4690   3.851   3.238   0.933
 1495HOH     H2 4691   3.948   3.249   0.817
 1496HOH      O 4692   3.997   2.664   0.477
 1496HOH     H1 4693   4.049   2.589   0.450
 1496HOH     H2 4694   4.044   2.701   0.552
 1497HOH      O 4695   3.055   0.620   0.770
 1497HOH     H1 4696   3.044   0.715   0.768
 1497HOH     H2 4697   3.123   0.602   0.704
 1498HOH      O 4698   3.843   3.606   2.087
 1498HOH     H1 4699   3.768   3.548   2.095
 1498HOH     H2 4700   3.879   3.587   2.000
 1499HOH      O 4701   3.226   3.571   0.932
 1499HOH     H1 4702   3.135   3.589   0.955
 1499HOH     H2 4703   3.232   3.475   0.932
 1500HOH      O 4704   0.048   1.473   1.063
 1500HOH     H1 4705   0.079   1.517   1.142
 1500HOH     H2 4706   0.126   1.460   1.010
 1501HOH      O 4707   3.117   3.641   3.325
 1501HOH     H1 4708   3.180   3.713   3.333
 1501HOH     H2 4709   3.153   3.586   3.256
 1502HOH      O 4710   0.250   3.719   2.827
 1502HOH     H1 4711   0.303   3.648   2.791
 1502HOH     H2 4712   0.207   3.758   2.751
 1503HOH      O 4713   0.984   3.479   2.361
 1503HOH     H1 4714   0.991   3.571   2.385
 1503HOH     H2 4715   0.900   3.451   2.398
 1504HOH      O 4716   0.043   1.134   1.086
 1504HOH     H1 4717   0.080   1.218   1.113
 1504HOH     H2 4718   0.104   1.069   1.121
 1505HOH      O 4719   3.599   1.504   0.152
 1505HOH     H1 4720   3.646   1.588   0.156
 1505HOH     H2 4721   3.537   1.508   0.225
 1506HOH      O 4722   1.461   1.837   0.709
 1506HOH     H1 4723   1.422   1.781   0.776
 1506HOH     H2 4724   1.467   1.782   0.631
 1507HOH      O 4725   0.736   3.970   3.812
 1507HOH     H1 4726   0.735   3.875   3.797
 1507HOH     H2 4727   0.824   3.997   3.785
 1508HOH      O 4728   2.996   2.322   3.666
 1508HOH     H1 4729   2.991   2.284   3.753
 1508HOH     H2 4730   3.062   2.269   3.620
 1509HOH      O 4731   1.571   3.172   0.873
 1509HOH     H1 4732   1.507   3.116   0.916
 1509HOH     H2 4733   1.639   3.187   0.939
 1510HOH      O 4734   2.131   1.370   2.305
 1510HOH     H1 4735   2.058   1.385   2.245
 1510HOH     H2 4736   2.107   1.417   2.384
 1511HOH      O 4737   2.982   3.770   3.546
 1511HOH     H1 4738   3.050   3.826   3.582
 1511HOH     H2 4739   3.027   3.715   3.482
 1512HOH      O 4740   1.986   3.435   3.401
 1512HOH     H1 4741   2.028   3.495   3.340
 1512HOH     H2 4742   2.039   3.355   3.396
 1513HOH      O 4743   3.803   2.621   1.849
 1513HOH     H1 4744   3.777   2.552   1.911
 1513HOH     H2 4745   3.741   2.614   1.777
 1514HOH      O 4746   2.412   2.985   2.883
 1514HOH     H1 4747   2.401   3.077   2.858
 1514HOH     H2 4748   2.503   2.978   2.911
 1515HOH      O 4749   2.866   3.217   2.186
 1515HOH     H1 4750   2.799   3.262   2.134
 1515HOH     H2 4751   2.938   3.279   2.191
 1516HOH      O 4752   1.729   1.735   1.702
 1516HOH     H1 4753   1.743   1.727   1.797
 1516HOH     H2 4754   1.788   1.670   1.664
 1517HOH      O 4755   1.884   2.257   1.889
 1517HOH     H1 4756   1.937   2.277   1.812
 1517HOH     H2 4757   1.944   2.264   1.963
 1518HOH      O 4758   1.504   1.423   2.067
 1518HOH     H1 4759   1.564   1.355   2.036
 1518HOH     H2 4760   1.539   1.448   2.153
 1519HOH      O 4761   0.507   3.299   2.093
 1519HOH     H1 4762   0.576   3.240   2.062
 1519HOH     H2 4763   0.456   3.246   2.155
 1520HOH      O 4764   3.187   0.257   3.748
 1520HOH     H1 4765   3.251   0.319   3.783
 1520HOH     H2 4766   3.191   0.183   3.809
 1521HOH      O 4767   3.090   4.073   0.355
 1521HOH     H1 4768   3.003   4.046   0.325
 1521HOH     H2 4769   3.121   3.998   0.407
 1522HOH      O 4770   0.193   1.256   3.721
 1522HOH     H1 4771   0.120   1.310   3.690
 1522HOH     H2 4772   0.201   1.276   3.814
 1523HOH      O 4773   1.264   0.121   2.994
 1523HOH     H1 4774   1.259   0.060   2.921
 1523HOH     H2 4775   1.338   0.091   3.046
 1524HOH      O 4776   3.238   2.005   2.667
 1524HOH     H1 4777   3.150   2.043   2.662
 1524HOH     H2 4778   3.279   2.050   2.741
 1525HOH      O 4779   1.068   1.932   0.428
 1525HOH     H1 4780   1.075   1.939   0.333
 1525HOH     H2 4781   1.137   1.990   0.461
 1526HOH      O 4782   3.951   0.731   1.175
 1526HOH     H1 4783   4.029   0.695   1.217
 1526HOH     H2 4784   3.878   0.690   1.220
 1527HOH      O 4785   0.794   2.934   0.758
 1527HOH     H1 4786   0.866   2.964   0.814
 1527HOH     H2 4787   0.832   2.928   0.671
 1528HOH      O 4788   4.011   2.064   2.606
 1528HOH     H1 4789   4.054   2.101   2.684
 1528HOH     H2 4790   3.951   2.132   2.577
 1529HOH      O 4791   1.118   3.069   0.752
 1529HOH     H1 4792   1.182   2.997   0.753
 1529HOH     H2 4793   1.161   3.139   0.801
 1530HOH      O 4794   2.423   1.657   0.839
 1530HOH     H1 4795   2.398   1.631   0.750
 1530HOH     H2 4796   2.407   1.751   0.843
 1531HOH      O 4797   0.706   1.413   0.881
 1531HOH     H1 4798   0.792   1.370   0.880
 1531HOH     H2 4799   0.643   1.341   0.882
 1532HOH      O 4800   1.438   3.306   2.498
 1532HOH     H1 4801   1.397   3.342   2.576
 1532HOH     H2 4802   1.378   3.328   2.427
 1533HOH      O 4803   2.116   2.913   2.638
 1533HOH     H1 4804   2.137   3.004   2.618
 1533HOH     H2 4805   2.112   2.910   2.734
 1534HOH      O 4806   2.773   2.820   0.786
 1534HOH     H1 4807   2.814   2.734   0.787
 1534HOH     H2 4808   2.698   2.812   0.846
 1535HOH      O 4809   2.726   1.244   3.054
 1535HOH     H1 4810   2.642   1.247   3.098
 1535HOH     H2 4811   2.758   1.155   3.067
 1536HOH      O 4812   1.626   0.849   3.180
 1536HOH     H1 4813   1.609   0.922   3.240
 1536HOH     H2 4814   1.721   0.847   3.171
 1537HOH      O 4815   1.514   2.425   3.227
 1537HOH     H1 4816   1.464   2.499   3.193
 1537HOH     H2 4817   1.593   2.465   3.264
 1538HOH      O 4818   3.904   0.718   1.954
 1538HOH     H1 4819   3.810   0.711   1.938
 1538HOH     H2 4820   3.934   0.627   1.956
 1539HOH      O 4821   1.246   2.197   1.127
 1539HOH     H1 4822   1.203   2.135   1.186
 1539HOH     H2 4823   1.271   2.270   1.184
 1540HOH      O 4824   0.046   1.148   0.390
 1540HOH     H1 4825   0.056   1.143   0.485
 1540HOH     H2 4826   0.015   1.061   0.364
 1541HOH      O 4827   2.217   3.526   1.792
 1541HOH     H1 4828   2.161   3.602   1.807
 1541HOH     H2 4829   2.249   3.502   1.879
 1542HOH      O 4830   3.362   3.843   1.759
 1542HOH     H1 4831   3.456   3.835   1.775
 1542HOH     H2 4832   3.352   3.814   1.668
 1543HOH      O 4833   3.026   3.927   1.004
 1543HOH     H1 4834   2.998   3.842   1.038
 1543HOH     H2 4835   2.997   3.990   1.070
 1544HOH      O 4836   0.818   0.764   3.879
 1544HOH     H1 4837   0.793   0.681   3.920
 1544HOH     H2 4838   0.893   0.741   3.824
 1545HOH      O 4839   2.404   0.116   3.375
 1545HOH     H1 4840   2.401   0.109   3.471
 1545HOH     H2 4841   2.477   0.176   3.359
 1546HOH      O 4842   1.596   2.442   1.700
 1546HOH     H1 4843   1.641   2.511   1.652
 1546HOH     H2 4844   1.646   2.432   1.781
 1547HOH      O 4845   1.510   2.743   3.031
 1547HOH     H1 4846   1.495   2.777   2.943
 1547HOH     H2 4847   1.426   2.706   3.057
 1548HOH      O 4848   3.673   3.146   3.355
 1548HOH     H1 4849   3.761   3.182   3.345
 1548HOH     H2 4850   3.621   3.190   3.287
 1549HOH      O 4851   1.180   2.722   0.435
 1549HOH     H1 4852   1.098   2.677   0.418
 1549HOH     H2 4853   1.248   2.659   0.411
 1550HOH      O 4854   2.159   0.256   0.943
 1550HOH     H1 4855   2.187   0.347   0.938
 1550HOH     H2 4856   2.121   0.247   1.030
 1551HOH      O 4857   1.199   0.259   2.004
 1551HOH     H1 4858   1.121   0.313   2.012
 1551HOH     H2 4859   1.165   0.170   1.995
 1552HOH      O 4860   1.866   1.040   3.498
 1552HOH     H1 4861   1.836   1.059   3.409
 1552HOH     H2 4862   1.958   1.065   3.498
 1553HOH      O 4863   0.004   3.321   3.880
 1553HOH     H1 4864   0.071   3.388   3.867
 1553HOH     H2 4865   0.044   3.241   3.846
 1554HOH      O 4866   0.859   0.517   0.837
 1554HOH     H1 4867   0.896   0.492   0.753
 1554HOH     H2 4868   0.765   0.500   0.828
 1555HOH      O 4869   3.445   1.449   2.141
 1555HOH     H1 4870   3.531   1.428   2.179
 1555HOH     H2 4871   3.444   1.544   2.135
 1556HOH      O 4872   3.973   3.622   0.911
 1556HOH     H1 4873   3.904   3.684   0.888
 1556HOH     H2 4874   4.024   3.612   0.831
 1557HOH      O 4875   1.482   1.634   0.516
 1557HOH     H1 4876   1.518   1.549   0.542
 1557HOH     H2 4877   1.388   1.625   0.529
 1558HOH      O 4878   3.540   2.571   1.108
 1558HOH     H1 4879   3.472   2.529   1.055
 1558HOH     H2 4880   3.619   2.563   1.054
 1559HOH      O 4881   1.496   0.728   2.104
 1559HOH     H1 4882   1.412   0.696   2.138
 1559HOH     H2 4883   1.502   0.818   2.135
 1560HOH      O 4884   3.722   3.745   3.335
 1560HOH     H1 4885   3.714   3.804   3.410
 1560HOH     H2 4886   3.816   3.734   3.323
 1561HOH      O 4887   2.646   3.005   3.534
 1561HOH     H1 4888   2.705   2.994   3.460
 1561HOH     H2 4889   2.702   3.001   3.611
 1562HOH      O 4890   3.419   2.883   1.698
 1562HOH     H1 4891   3.370   2.961   1.720
 1562HOH     H2 4892   3.391   2.817   1.762
 1563HOH      O 4893   3.842   3.708   0.256
 1563HOH     H1 4894   3.794   3.785   0.285
 1563HOH     H2 4895   3.828   3.644   0.325
 1564HOH      O 4896   3.971   1.115   2.677
 1564HOH     H1 4897   4.026   1.042   2.705
 1564HOH     H2 4898   3.994   1.128   2.585
 1565HOH      O 4899   0.241   0.012   0.886
 1565HOH     H1 4900   0.229   0.102   0.854
 1565HOH     H2 4901   0.255   0.022   0.980
 1566HOH      O 4902   0.511  -0.009   3.173
 1566HOH     H1 4903   0.524   0.085   3.181
 1566HOH     H2 4904   0.542  -0.030   3.085
 1567HOH      O 4905   0.365   0.151   3.647
 1567HOH     H1 4906   0.371   0.246   3.659
 1567HOH     H2 4907   0.425   0.115   3.712
 1568HOH      O 4908   2.001   0.159   2.046
 1568HOH     H1 4909   1.941   0.228   2.017
 1568HOH     H2 4910   1.953   0.078   2.031
 1569HOH      O 4911   0.970   2.997   0.969
 1569HOH     H1 4912   0.978   3.071   1.029
 1569HOH     H2 4913   1.019   3.024   0.891
 1570HOH      O 4914   0.309   1.022   2.483
 1570HOH     H1 4915   0.332   1.114   2.494
 1570HOH     H2 4916   0.393   0.976   2.479
 1571HOH      O 4917   0.982   2.867   1.675
 1571HOH     H1 4918   0.955   2.846   1.764
 1571HOH     H2 4919   0.900   2.886   1.629
 1572HOH      O 4920   2.124   1.876   1.163
 1572HOH     H1 4921   2.062   1.895   1.092
 1572HOH     H2 4922   2.184   1.950   1.162
 1573HOH      O 4923   1.858   2.985   0.839
 1573HOH     H1 4924   1.842   2.993   0.745
 1573HOH     H2 4925   1.821   2.900   0.862
 1574HOH      O 4926   3.595   0.600   1.906
 1574HOH     H1 4927   3.533   0.533   1.936
 1574HOH     H2 4928   3.572   0.678   1.956
 1575HOH      O 4929   0.356   1.298   2.527
 1575HOH     H1 4930   0.284   1.347   2.486
 1575HOH     H2 4931   0.390   1.358   2.594
 1576HOH      O 4932   1.443   2.953   2.529
 1576HOH     H1 4933   1.351   2.928   2.529
 1576HOH     H2 4934   1.462   2.975   2.437
 1577HOH      O 4935   2.241   1.174   0.181
 1577HOH     H1 4936   2.304   1.215   0.122
 1577HOH     H2 4937   2.294   1.125   0.243
 1578HOH      O 4938   2.464   1.575   2.466
 1578HOH     H1 4939   2.472   1.481   2.483
 1578HOH     H2 4940   2.388   1.602   2.518
 1579HOH      O 4941   1.637   0.598   0.229
 1579HOH     H1 4942   1.575   0.669   0.213
 1579HOH     H2 4943   1.696   0.601   0.153
 1580HOH      O 4944   3.802   2.307   2.933
 1580HOH     H1 4945   3.779   2.381   2.876
 1580HOH     H2 4946   3.896   2.295   2.920
 1581HOH      O 4947   2.910   3.476   1.979
 1581HOH     H1 4948   2.837   3.535   2.001
 1581HOH     H2 4949   2.975   3.492   2.047
 1582HOH      O 4950   0.966   3.861   2.731
 1582HOH     H1 4951   0.913   3.842   2.808
 1582HOH     H2 4952   0.904   3.894   2.666
 1583HOH      O 4953   1.519   2.145   1.661
 1583HOH     H1 4954   1.575   2.073   1.691
 1583HOH     H2 4955   1.572   2.223   1.674
 1584HOH      O 4956   1.457   2.671   0.933
 1584HOH     H1 4957   1.386   2.685   0.871
 1584HOH     H2 4958   1.460   2.576   0.946
 1585HOH      O 4959   0.852   3.608   3.057
 1585HOH     H1 4960   0.866   3.603   3.152
 1585HOH     H2 4961   0.914   3.545   3.021
 1586HOH      O 4962   0.873   1.715   3.958
 1586HOH     H1 4963   0.940   1.723   3.890
 1586HOH     H2 4964   0.859   1.804   3.989
 1587HOH      O 4965   2.942   2.229   1.277
 1587HOH     H1 4966   2.872   2.175   1.314
 1587HOH     H2 4967   2.898   2.309   1.249
 1588HOH      O 4968   1.514   3.664   0.806
 1588HOH     H1 4969   1.584   3.601   0.820
 1588HOH     H2 4970   1.434   3.616   0.828
 1589HOH      O 4971   3.475   0.135   1.978
 1589HOH     H1 4972   3.527   0.146   1.898
 1589HOH     H2 4973   3.509   0.055   2.018
 1590HOH      O 4974   1.952   1.665   3.490
 1590HOH     H1 4975   1.875   1.721   3.497
 1590HOH     H2 4976   1.952   1.614   3.571
 1591HOH      O 4977   1.847   2.977   1.584
 1591HOH     H1 4978   1.889   3.039   1.525
 1591HOH     H2 4979   1.846   2.895   1.536
 1592HOH      O 4980   1.808   3.456   0.080
 1592HOH     H1 4981   1.766   3.416   0.003
 1592HOH     H2 4982   1.862   3.386   0.117
 1593HOH      O 4983   2.869   1.213   1.852
 1593HOH     H1 4984   2.915   1.296   1.845
 1593HOH     H2 4985   2.876   1.190   1.945
 1594HOH      O 4986   2.946   3.002   1.840
 1594HOH     H1 4987   2.882   2.937   1.810
 1594HOH     H2 4988   3.007   2.952   1.894
 1595HOH      O 4989   1.695   0.586   1.362
 1595HOH     H1 4990   1.659   0.507   1.401
 1595HOH     H2 4991   1.689   0.571   1.267
 1596HOH      O 4992   1.647   1.160   3.652
 1596HOH     H1 4993   1.632   1.254   3.636
 1596HOH     H2 4994   1.724   1.139   3.601
 1597HOH      O 4995   2.654   2.077   1.385
 1597HOH     H1 4996   2.574   2.111   1.425
 1597HOH     H2 4997   2.624   2.014   1.320
 1598HOH      O 4998   3.596   1.576   1.267
 1598HOH     H1 4999   3.661   1.644   1.284
 1598HOH     H2 5000   3.601   1.559   1.173
 1599HOH      O 5001   3.220   2.169   1.100
 1599HOH     H1 5002   3.257   2.088   1.135
 1599HOH     H2 5003   3.165   2.141   1.027
 1600HOH      O 5004   1.151   3.855   1.572
 1600HOH     H1 5005   1.182   3.817   1.654
 1600HOH     H2 5006   1.076   3.801   1.548
 1601HOH      O 5007   2.030   1.303   0.313
 1601HOH     H1 5008   2.047   1.253   0.392
 1601HOH     H2 5009   2.091   1.269   0.248
 1602HOH      O 5010   2.925   3.668   0.455
 1602HOH     H1 5011   2.916   3.719   0.374
 1602HOH     H2 5012   2.968   3.728   0.516
 1603HOH      O 5013   3.167   2.146   0.615
 1603HOH     H1 5014   3.162   2.215   0.549
 1603HOH     H2 5015   3.087   2.156   0.666
 1604HOH      O 5016   1.791   0.891   3.712
 1604HOH     H1 5017   1.805   0.928   3.625
 1604HOH     H2 5018   1.835   0.952   3.771
 1605HOH      O 5019   2.887   1.170   2.403
 1605HOH     H1 5020   2.829   1.123   2.463
 1605HOH     H2 5021   2.895   1.257   2.442
 1606HOH      O 5022   3.051   2.452   4.000
 1606HOH     H1 5023   3.000   2.376   3.974
 1606HOH     H2 5024   2.992   2.527   3.986
 1607HOH      O 5025   1.063   2.706   1.271
 1607HOH     H1 5026   1.011   2.706   1.190
 1607HOH     H2 5027   1.059   2.796   1.303
 1608HOH      O 5028   3.960   3.078   1.892
 1608HOH     H1 5029   3.905   3.114   1.823
 1608HOH     H2 5030   3.987   2.992   1.859
 1609HOH      O 5031   3.632   1.087  -0.018
 1609HOH     H1 5032   3.720   1.054  -0.034
 1609HOH     H2 5033   3.622   1.085   0.077
 1610HOH      O 5034   2.551   0.942   1.441
 1610HOH     H1 5035   2.478   0.930   1.379
 1610HOH     H2 5036   2.508   0.960   1.524
 1611HOH      O 5037   4.024   0.048   0.587
 1611HOH     H1 5038   4.009   0.121   0.529
 1611HOH     H2 5039   3.972  -0.024   0.551
 1612HOH      O 5040   2.830   1.713   3.290
 1612HOH     H1 5041   2.909   1.667   3.262
 1612HOH     H2 5042   2.789   1.744   3.209
 1613HOH      O 5043   2.896   3.196   3.585
 1613HOH     H1 5044   2.871   3.124   3.641
 1613HOH     H2 5045   2.980   3.170   3.547
 1614HOH      O 5046   2.204   2.468   2.816
 1614HOH     H1 5047   2.258   2.470   2.895
 1614HOH     H2 5048   2.115   2.483   2.846
 1615HOH      O 5049   0.215   0.552   3.518
 1615HOH     H1 5050   0.219   0.534   3.612
 1615HOH     H2 5051   0.300   0.523   3.484
 1616HOH      O 5052   3.466   0.863   3.169
 1616HOH     H1 5053   3.466   0.901   3.081
 1616HOH     H2 5054   3.454   0.769   3.155
 1617HOH      O 5055   0.252   2.461   0.764
 1617HOH     H1 5056   0.185   2.529   0.773
 1617HOH     H2 5057   0.335   2.508   0.771
 1618HOH      O 5058   2.019   0.862   2.830
 1618HOH     H1 5059   2.055   0.822   2.751
 1618HOH     H2 5060   2.003   0.953   2.805
 1619HOH      O 5061   0.604   1.013   1.255
 1619HOH     H1 5062   0.695   1.004   1.282
 1619HOH     H2 5063   0.599   0.966   1.171
 1620HOH      O 5064   3.054   1.976   2.144
 1620HOH     H1 5065   3.115   1.930   2.087
 1620HOH     H2 5066   2.971   1.928   2.133
 1621HOH      O 5067   2.826   3.656   1.562
 1621HOH     H1 5068   2.811   3.750   1.558
 1621HOH     H2 5069   2.917   3.646   1.591
 1622HOH      O 5070   3.728   1.918   2.217
 1622HOH     H1 5071   3.676   1.937   2.295
 1622HOH     H2 5072   3.763   1.830   2.232
 1623HOH      O 5073   2.190   1.391   1.987
 1623HOH     H1 5074   2.218   1.299   1.981
 1623HOH     H2 5075   2.098   1.386   2.015
 1624HOH      O 5076   2.234   0.799   3.536
 1624HOH     H1 5077   2.230   0.891   3.559
 1624HOH     H2 5078   2.324   0.786   3.505
 1625HOH      O 5079   1.791   3.658   2.749
 1625HOH     H1 5080   1.785   3.626   2.839
 1625HOH     H2 5081   1.880   3.693   2.742
 1626HOH      O 5082   1.097   1.408   3.843
 1626HOH     H1 5083   1.157   1.477   3.817
 1626HOH     H2 5084   1.138   1.368   3.919
 1627HOH      O 5085   1.961   2.616   3.494
 1627HOH     H1 5086   1.886   2.578   3.541
 1627HOH     H2 5087   2.006   2.668   3.560
 1628HOH      O 5088   3.875   1.542   1.723
 1628HOH     H1 5089   3.970   1.537   1.716
 1628HOH     H2 5090   3.851   1.476   1.788
 1629HOH      O 5091   3.570   3.639   2.802
 1629HOH     H1 5092   3.475   3.632   2.798
 1629HOH     H2 5093   3.601   3.596   2.723
 1630HOH      O 5094   3.201   1.824   2.972
 1630HOH     H1 5095   3.259   1.867   3.035
 1630HOH     H2 5096   3.240   1.842   2.887
 1631HOH      O 5097   2.315   0.146   0.724
 1631HOH     H1 5098   2.403   0.156   0.761
 1631HOH     H2 5099   2.257   0.178   0.793
 1632HOH      O 5100   1.636   0.051   0.693
 1632HOH     H1 5101   1.575   0.088   0.757
 1632HOH     H2 5102   1.643   0.118   0.625
 1633HOH      O 5103   3.700   3.037   1.042
 1633HOH     H1 5104   3.794   3.017   1.044
 1633HOH     H2 5105   3.661   2.972   1.101
 1634HOH      O 5106   3.816   1.165   0.878
 1634HOH     H1 5107   3.861   1.083   0.899
 1634HOH     H2 5108   3.761   1.144   0.803
 1635HOH      O 5109   1.216   3.308   0.846
 1635HOH     H1 5110   1.263   3.365   0.907
 1635HOH     H2 5111   1.124   3.320   0.869
 1636HOH      O 5112   2.687   0.688   1.329
 1636HOH     H1 5113   2.609   0.661   1.280
 1636HOH     H2 5114   2.652   0.733   1.406
 1637HOH      O 5115   3.389   3.260   1.601
 1637HOH     H1 5116   3.326   3.318   1.643
 1637HOH     H2 5117   3.414   3.197   1.668
 1638HOH      O 5118   1.335   2.427   3.481
 1638HOH     H1 5119   1.261   2.450   3.425
 1638HOH     H2 5120   1.409   2.419   3.421
 1639HOH      O 5121  -0.006   3.750   1.221
 1639HOH     H1 5122   0.037   3.690   1.282
 1639HOH     H2 5123  -0.018   3.698   1.141
 1640HOH      O 5124   3.268   3.883   0.884
 1640HOH     H1 5125   3.240   3.792   0.892
 1640HOH     H2 5126   3.209   3.932   0.942
 1641HOH      O 5127   2.785   1.295   3.783
 1641HOH     H1 5128   2.814   1.207   3.761
 1641HOH     H2 5129   2.854   1.353   3.749
 1642HOH      O 5130   2.226   3.019   0.565
 1642HOH     H1 5131   2.181   2.963   0.628
 1642HOH     H2 5132   2.208   3.108   0.595
 1643HOH      O 5133   1.561   2.182   1.159
 1643HOH     H1 5134   1.528   2.272   1.159
 1643HOH     H2 5135   1.522   2.142   1.236
 1644HOH      O 5136   3.165   0.700   3.820
 1644HOH     H1 5137   3.137   0.710   3.729
 1644HOH     H2 5138   3.237   0.763   3.830
 1645HOH      O 5139   0.568   0.194   0.151
 1645HOH     H1 5140   0.587   0.114   0.104
 1645HOH     H2 5141   0.634   0.199   0.220
 1646HOH      O 5142   1.652   3.275   2.330
 1646HOH     H1 5143   1.643   3.347   2.267
 1646HOH     H2 5144   1.568   3.273   2.375
 1647HOH      O 5145   0.144   2.152   1.848
 1647HOH     H1 5146   0.154   2.097   1.771
 1647HOH     H2 5147   0.228   2.196   1.858
 1648HOH      O 5148   0.252   3.041   2.749
 1648HOH     H1 5149   0.298   3.033   2.832
 1648HOH     H2 5150   0.254   2.953   2.712
 1649HOH      O 5151   3.801   2.830   1.992
 1649HOH     H1 5152   3.810   2.756   1.932
 1649HOH     H2 5153   3.781   2.904   1.936
 1650HOH      O 5154   1.999   3.341   1.851
 1650HOH     H1 5155   2.028   3.322   1.940
 1650HOH     H2 5156   2.067   3.398   1.815
 1651HOH      O 5157   2.144   3.655   2.607
 1651HOH     H1 5158   2.119   3.710   2.532
 1651HOH     H2 5159   2.143   3.715   2.682
 1652HOH      O 5160   2.667   3.297   1.434
 1652HOH     H1 5161   2.588   3.335   1.472
 1652HOH     H2 5162   2.697   3.362   1.370
 1653HOH      O 5163   2.927   3.847   2.735
 1653HOH     H1 5164   2.977   3.814   2.660
 1653HOH     H2 5165   2.952   3.939   2.743
 1654HOH      O 5166   2.508   0.768   1.781
 1654HOH     H1 5167   2.507   0.681   1.821
 1654HOH     H2 5168   2.539   0.826   1.851
 1655HOH      O 5169   0.980   1.615   0.143
 1655HOH     H1 5170   0.939   1.655   0.066
 1655HOH     H2 5171   1.073   1.614   0.123
 1656HOH      O 5172   1.122   0.517   1.397
 1656HOH     H1 5173   1.029   0.528   1.381
 1656HOH     H2 5174   1.165   0.566   1.326
 1657HOH      O 5175   0.097   3.253   2.548
 1657HOH     H1 5176   0.109   3.262   2.643
 1657HOH     H2 5177   0.175   3.291   2.510
 1658HOH      O 5178   3.976   2.153   3.818
 1658HOH     H1 5179   4.003   2.199   3.738
 1658HOH     H2 5180   4.037   2.080   3.826
 1659HOH      O 5181   0.608   2.744   3.309
 1659HOH     H1 5182   0.520   2.729   3.273
 1659HOH     H2 5183   0.603   2.831   3.349
 1660HOH      O 5184   0.942   3.713   2.185
 1660HOH     H1 5185   1.029   3.744   2.213
 1660HOH     H2 5186   0.897   3.693   2.267
 1661HOH      O 5187   0.084   1.438   1.438
 1661HOH     H1 5188   0.133   1.369   1.392
 1661HOH     H2 5189   0.113   1.519   1.397
 1662HOH      O 5190   3.511   0.561   1.425
 1662HOH     H1 5191   3.426   0.602   1.440
 1662HOH     H2 5192   3.500   0.512   1.343
 1663HOH      O 5193   2.865   3.733   3.788
 1663HOH     H1 5194   2.922   3.702   3.859
 1663HOH     H2 5195   2.916   3.720   3.708
 1664HOH      O 5196   3.765   3.829   3.845
 1664HOH     H1 5197   3.722   3.750   3.879
 1664HOH     H2 5198   3.751   3.895   3.913
 1665HOH      O 5199   2.308   1.765   3.982
 1665HOH     H1 5200   2.369   1.759   3.908
 1665HOH     H2 5201   2.232   1.811   3.946
 1666HOH      O 5202   1.569   0.609   2.361
 1666HOH     H1 5203   1.513   0.677   2.399
 1666HOH     H2 5204   1.548   0.610   2.268
 1667HOH      O 5205   3.296   1.984   0.385
 1667HOH     H1 5206   3.353   2.060   0.371
 1667HOH     H2 5207   3.253   2.000   0.469
 1668HOH      O 5208   2.085   0.151   1.575
 1668HOH     H1 5209   2.065   0.084   1.510
 1668HOH     H2 5210   2.005   0.204   1.579
 1669HOH      O 5211   2.807   1.304   2.151
 1669HOH     H1 5212   2.714   1.324   2.153
 1669HOH     H2 5213   2.822   1.251   2.229
 1670HOH      O 5214   2.242   2.977   1.541
 1670HOH     H1 5215   2.312   2.943   1.598
 1670HOH     H2 5216   2.232   3.068   1.568
 1671HOH      O 5217   0.159   2.015   1.619
 1671HOH     H1 5218   0.109   1.940   1.649
 1671HOH     H2 5219   0.238   1.977   1.579
 1672HOH      O 5220   3.392   2.665   3.852
 1672HOH     H1 5221   3.460   2.691   3.789
 1672HOH     H2 5222   3.420   2.579   3.883
 1673HOH      O 5223   2.929   1.581   0.611
 1673HOH     H1 5224   3.014   1.538   0.602
 1673HOH     H2 5225   2.903   1.601   0.521
 1674HOH      O 5226   2.965   0.078   3.459
 1674HOH     H1 5227   2.933  -0.001   3.503
 1674HOH     H2 5228   2.891   0.106   3.405
 1675HOH      O 5229   3.343   3.155   1.861
 1675HOH     H1 5230   3.287   3.224   1.825
 1675HOH     H2 5231   3.341   3.169   1.956
 1676HOH      O 5232   3.370   3.219   1.242
 1676HOH     H1 5233   3.412   3.206   1.156
 1676HOH     H2 5234   3.405   3.303   1.273
 1677HOH      O 5235   1.748   2.646   1.590
 1677HOH     H1 5236   1.833   2.658   1.633
 1677HOH     H2 5237   1.685   2.686   1.651
 1678HOH      O 5238   3.181   3.430   2.426
 1678HOH     H1 5239   3.240   3.387   2.486
 1678HOH     H2 5240   3.231   3.504   2.391
 1679HOH      O 5241   3.476   3.211   0.996
 1679HOH     H1 5242   3.548   3.148   0.993
 1679HOH     H2 5243   3.414   3.179   0.929
 1680HOH      O 5244   3.551   3.880   2.456
 1680HOH     H1 5245   3.483   3.946   2.461
 1680HOH     H2 5246   3.633   3.928   2.470
 1681HOH      O 5247   3.373   1.221   2.332
 1681HOH     H1 5248   3.290   1.258   2.362
 1681HOH     H2 5249   3.397   1.273   2.255
 1682HOH      O 5250   1.842   1.966   3.719
 1682HOH     H1 5251   1.829   2.028   3.791
 1682HOH     H2 5252   1.864   2.020   3.644
 1683HOH      O 5253   1.903   1.130   3.838
 1683HOH     H1 5254   1.895   1.225   3.831
 1683HOH     H2 5255   1.989   1.116   3.876
 1684HOH      O 5256   2.688   1.094   2.590
 1684HOH     H1 5257   2.723   1.011   2.623
 1684HOH     H2 5258   2.706   1.157   2.660
 1685HOH      O 5259   2.038   3.746   1.767
 1685HOH     H1 5260   1.975   3.713   1.831
 1685HOH     H2 5261   2.081   3.819   1.811
 1686HOH      O 5262   3.699   2.742   1.470
 1686HOH     H1 5263   3.692   2.657   1.513
 1686HOH     H2 5264   3.611   2.778   1.472
 1687HOH      O 5265   0.890   3.716   2.456
 1687HOH     H1 5266   0.849   3.802   2.466
 1687HOH     H2 5267   0.858   3.666   2.531
 1688HOH      O 5268   2.596   1.199   0.778
 1688HOH     H1 5269   2.519   1.220   0.830
 1688HOH     H2 5270   2.667   1.188   0.841
 1689HOH      O 5271   3.504   0.346   1.753
 1689HOH     H1 5272   3.445   0.391   1.814
 1689HOH     H2 5273   3.569   0.413   1.730
 1690HOH      O 5274   1.238   2.345   0.723
 1690HOH     H1 5275   1.189   2.313   0.647
 1690HOH     H2 5276   1.238   2.440   0.713
 1691HOH      O 5277   0.380   1.392   2.942
 1691HOH     H1 5278   0.321   1.435   3.005
 1691HOH     H2 5279   0.330   1.388   2.861
 1692HOH      O 5280   2.151   3.636   2.048
 1692HOH     H1 5281   2.238   3.605   2.071
 1692HOH     H2 5282   2.093   3.598   2.113
 1693HOH      O 5283   1.593   3.350   0.412
 1693HOH     H1 5284   1.525   3.414   0.394
 1693HOH     H2 5285   1.576   3.279   0.350
 1694HOH      O 5286   3.928   3.215   3.285
 1694HOH     H1 5287   3.980   3.256   3.355
 1694HOH     H2 5288   3.958   3.124   3.284
 1695HOH      O 5289   3.301   2.453   2.243
 1695HOH     H1 5290   3.288   2.374   2.189
 1695HOH     H2 5291   3.349   2.421   2.320
 1696HOH      O 5292   3.522   1.063   2.961
 1696HOH     H1 5293   3.513   1.101   2.874
 1696HOH     H2 5294   3.616   1.066   2.979
 1697HOH      O 5295   1.984   1.853   0.526
 1697HOH     H1 5296   1.983   1.759   0.545
 1697HOH     H2 5297   2.014   1.859   0.436
 1698HOH      O 5298   0.990   1.211   3.666
 1698HOH     H1 5299   0.917   1.264   3.633
 1698HOH     H2 5300   1.022   1.260   3.742
 1699HOH      O 5301   1.250   0.297   0.616
 1699HOH     H1 5302   1.338   0.321   0.644
 1699HOH     H2 5303   1.239   0.338   0.531
 1700HOH      O 5304   3.169   2.616   0.984
 1700HOH     H1 5305   3.238   2.682   0.991
 1700HOH     H2 5306   3.213   2.538   0.950
 1701HOH      O 5307   3.932   3.480   1.843
 1701HOH     H1 5308   3.979   3.493   1.760
 1701HOH     H2 5309   3.840   3.473   1.817
 1702HOH      O 5310   2.097   0.661   3.714
 1702HOH     H1 5311   2.140   0.709   3.642
 1702HOH     H2 5312   2.122   0.710   3.793
 1703HOH      O 5313   0.427   3.513   0.278
 1703HOH     H1 5314   0.347   3.486   0.233
 1703HOH     H2 5315   0.440   3.448   0.346
 1704HOH      O 5316   3.503   3.721   2.127
 1704HOH     H1 5317   3.535   3.693   2.041
 1704HOH     H2 5318   3.541   3.809   2.138
 1705HOH      O 5319   2.394   3.646   0.977
 1705HOH     H1 5320   2.446   3.602   0.909
 1705HOH     H2 5321   2.440   3.626   1.059
 1706HOH      O 5322   1.086   0.044   1.142
 1706HOH     H1 5323   1.144   0.063   1.069
 1706HOH     H2 5324   1.122   0.095   1.215
 1707HOH      O 5325   1.588   0.934   0.313
 1707HOH     H1 5326   1.603   0.955   0.221
 1707HOH     H2 5327   1.668   0.889   0.340
 1708HOH      O 5328  -0.009   2.930   2.580
 1708HOH     H1 5329   0.025   3.019   2.578
 1708HOH     H2 5330   0.068   2.876   2.600
 1709HOH      O 5331   0.512   1.813   3.993
 1709HOH     H1 5332   0.474   1.891   4.032
 1709HOH     H2 5333   0.559   1.770   4.065
 1710HOH      O 5334   2.471   1.817   3.228
 1710HOH     H1 5335   2.538   1.857   3.284
 1710HOH     H2 5336   2.450   1.885   3.164
 1711HOH      O 5337   1.612   3.611   3.605
 1711HOH     H1 5338   1.522   3.639   3.626
 1711HOH     H2 5339   1.625   3.532   3.658
 1712HOH      O 5340   0.240   2.624   2.825
 1712HOH     H1 5341   0.184   2.560   2.780
 1712HOH     H2 5342   0.290   2.572   2.888
 1713HOH      O 5343   3.217   2.460   0.194
 1713HOH     H1 5344   3.152   2.456   0.124
 1713HOH     H2 5345   3.269   2.538   0.174
 1714HOH      O 5346   0.604   0.740   2.385
 1714HOH     H1 5347   0.519   0.739   2.341
 1714HOH     H2 5348   0.615   0.831   2.413
 1715HOH      O 5349   3.545   0.283   0.997
 1715HOH     H1 5350   3.589   0.346   0.940
 1715HOH     H2 5351   3.495   0.226   0.939
 1716HOH      O 5352   3.035   1.099   0.434
 1716HOH     H1 5353   3.116   1.092   0.384
 1716HOH     H2 5354   2.974   1.041   0.388
 1717HOH      O 5355   2.365   0.257   2.384
 1717HOH     H1 5356   2.342   0.224   2.471
 1717HOH     H2 5357   2.330   0.191   2.324
 1718HOH      O 5358   1.271   3.369   1.555
 1718HOH     H1 5359   1.311   3.290   1.591
 1718HOH     H2 5360   1.204   3.337   1.494
 1719HOH      O 5361   3.382   3.627   1.155
 1719HOH     H1 5362   3.342   3.615   1.069
 1719HOH     H2 5363   3.344   3.708   1.188
 1720HOH      O 5364   1.742   3.978   3.282
 1720HOH     H1 5365   1.747   3.897   3.332
 1720HOH     H2 5366   1.753   4.047   3.348
 1721HOH      O 5367   2.138   2.423   1.263
 1721HOH     H1 5368   2.062   2.397   1.315
 1721HOH     H2 5369   2.180   2.492   1.315
 1722HOH      O 5370   1.620   3.903   0.332
 1722HOH     H1 5371   1.569   3.981   0.310
 1722HOH     H2 5372   1.593   3.881   0.421
 1723HOH      O 5373   3.837   0.961   1.063
 1723HOH     H1 5374   3.866   0.891   1.122
 1723HOH     H2 5375   3.890   1.037   1.087
 1724HOH      O 5376   3.841   1.565   1.064
 1724HOH     H1 5377   3.933   1.541   1.071
 1724HOH     H2 5378   3.795   1.482   1.055
 1725HOH      O 5379   0.500   1.967   3.602
 1725HOH     H1 5380   0.524   1.992   3.513
 1725HOH     H2 5381   0.583   1.941   3.643
 1726HOH      O 5382   2.331   2.715   2.481
 1726HOH     H1 5383   2.334   2.674   2.394
 1726HOH     H2 5384   2.239   2.711   2.506
 1727HOH      O 5385   3.887   2.295   2.542
 1727HOH     H1 5386   3.938   2.365   2.502
 1727HOH     H2 5387   3.796   2.322   2.531
 1728HOH      O 5388   0.845   2.524   2.972
 1728HOH     H1 5389   0.809   2.439   2.998
 1728HOH     H2 5390   0.773   2.567   2.926
 1729HOH      O 5391   0.043   1.373   2.101
 1729HOH     H1 5392   0.133   1.386   2.131
 1729HOH     H2 5393  -0.008   1.362   2.181
 1730HOH      O 5394   1.604   1.333   0.850
 1730HOH     H1 5395   1.583   1.294   0.935
 1730HOH     H2 5396   1.614   1.426   0.868
 1731HOH      O 5397   2.913   2.807   3.107
 1731HOH     H1 5398   2.886   2.876   3.167
 1731HOH     H2 5399   2.988   2.765   3.150
 1732HOH      O 5400   3.633   3.260   2.759
 1732HOH     H1 5401   3.612   3.168   2.778
 1732HOH     H2 5402   3.656   3.297   2.844
 1733HOH      O 5403   4.015   4.021   3.571
 1733HOH     H1 5404   3.948   4.080   3.605
 1733HOH     H2 5405   4.004   3.940   3.621
 1734HOH      O 5406   2.648   1.514   0.985
 1734HOH     H1 5407   2.578   1.576   0.964
 1734HOH     H2 5408   2.676   1.480   0.901
 1735HOH      O 5409   0.517   2.271   0.221
 1735HOH     H1 5410   0.470   2.221   0.154
 1735HOH     H2 5411   0.482   2.238   0.304
 1736HOH      O 5412   0.348   3.467   0.912
 1736HOH     H1 5413   0.260   3.458   0.948
 1736HOH     H2 5414   0.365   3.383   0.869
 1737HOH      O 5415   1.231   3.724   2.306
 1737HOH     H1 5416   1.214   3.754   2.395
 1737HOH     H2 5417   1.309   3.669   2.313
 1738HOH      O 5418   2.546   0.481   4.044
 1738HOH     H1 5419   2.587   0.506   3.961
 1738HOH     H2 5420   2.544   0.385   4.041
 1739HOH      O 5421   0.398   0.304   2.363
 1739HOH     H1 5422   0.476   0.305   2.420
 1739HOH     H2 5423   0.325   0.301   2.424
 1740HOH      O 5424   3.245   3.884   2.011
 1740HOH     H1 5425   3.271   3.862   1.922
 1740HOH     H2 5426   3.313   3.846   2.066
 1741HOH      O 5427   2.769   3.953   1.537
 1741HOH     H1 5428   2.790   3.974   1.628
 1741HOH     H2 5429   2.673   3.954   1.534
 1742HOH      O 5430   2.705   3.557   3.570
 1742HOH     H1 5431   2.660   3.613   3.634
 1742HOH     H2 5432   2.690   3.600   3.486
 1743HOH      O 5433   1.485   3.549   1.174
 1743HOH     H1 5434   1.559   3.609   1.169
 1743HOH     H2 5435   1.440   3.573   1.255
 1744HOH      O 5436   2.219   1.605   3.252
 1744HOH     H1 5437   2.185   1.591   3.340
 1744HOH     H2 5438   2.312   1.582   3.258
 1745HOH      O 5439   2.169   0.406   2.088
 1745HOH     H1 5440   2.261   0.380   2.099
 1745HOH     H2 5441   2.119   0.328   2.112
 1746HOH      O 5442   2.238   3.597   3.173
 1746HOH     H1 5443   2.285   3.575   3.254
 1746HOH     H2 5444   2.202   3.684   3.188
 1747HOH      O 5445   3.683   2.390   1.953
 1747HOH     H1 5446   3.740   2.325   1.993
 1747HOH     H2 5447   3.624   2.340   1.897
 1748HOH      O 5448   0.468   3.258   3.977
 1748HOH     H1 5449   0.424   3.301   3.904
 1748HOH     H2 5450   0.537   3.319   4.002
 1749HOH      O 5451   0.966   0.164   2.518
 1749HOH     H1 5452   0.965   0.254   2.484
 1749HOH     H2 5453   1.021   0.115   2.457
 1750HOH      O 5454   2.517   0.886   0.828
 1750HOH     H1 5455   2.574   0.920   0.759
 1750HOH     H2 5456   2.540   0.793   0.835
 1751HOH      O 5457   3.874   3.857   0.579
 1751HOH     H1 5458   3.917   3.776   0.605
 1751HOH     H2 5459   3.781   3.842   0.595
 1752HOH      O 5460   0.258   0.812   0.485
 1752HOH     H1 5461   0.246   0.879   0.553
 1752HOH     H2 5462   0.346   0.777   0.500
 1753HOH      O 5463   0.246   3.987   2.814
 1753HOH     H1 5464   0.222   3.902   2.851
 1753HOH     H2 5465   0.244   4.047   2.889
 1754HOH      O 5466   3.078   0.270   1.818
 1754HOH     H1 5467   3.027   0.279   1.898
 1754HOH     H2 5468   3.025   0.312   1.750
 1755HOH      O 5469   3.673   2.907   2.353
 1755HOH     H1 5470   3.723   2.976   2.397
 1755HOH     H2 5471   3.583   2.921   2.382
 1756HOH      O 5472   2.176   0.826   1.460
 1756HOH     H1 5473   2.158   0.824   1.554
 1756HOH     H2 5474   2.162   0.736   1.431
 1757HOH      O 5475   0.349   1.420   0.615
 1757HOH     H1 5476   0.356   1.353   0.682
 1757HOH     H2 5477   0.356   1.372   0.532
 1758HOH      O 5478   3.861   0.249   1.400
 1758HOH     H1 5479   3.780   0.225   1.356
 1758HOH     H2 5480   3.922   0.178   1.380
 1759HOH      O 5481   3.895   0.589   2.714
 1759HOH     H1 5482   3.917   0.556   2.801
 1759HOH     H2 5483   3.955   0.545   2.655
 1760HOH      O 5484   0.749   3.403   3.497
 1760HOH     H1 5485   0.708   3.432   3.578
 1760HOH     H2 5486   0.676   3.369   3.445
 1761HOH      O 5487   1.683   2.080   0.361
 1761HOH     H1 5488   1.626   2.012   0.396
 1761HOH     H2 5489   1.757   2.084   0.422
 1762HOH      O 5490   1.977   1.964   0.949
 1762HOH     H1 5491   2.028   2.003   0.877
 1762HOH     H2 5492   1.913   2.032   0.971
 1763HOH      O 5493   2.110   1.856   2.889
 1763HOH     H1 5494   2.158   1.796   2.946
 1763HOH     H2 5495   2.064   1.915   2.949
 1764HOH      O 5496   1.066   0.900   2.911
 1764HOH     H1 5497   1.013   0.853   2.976
 1764HOH     H2 5498   1.080   0.836   2.841
 1765HOH      O 5499   1.312   1.296   1.890
 1765HOH     H1 5500   1.359   1.350   1.954
 1765HOH     H2 5501   1.311   1.209   1.930
 1766HOH      O 5502   4.032   3.362   3.073
 1766HOH     H1 5503   4.012   3.333   3.162
 1766HOH     H2 5504   4.078   3.445   3.084
 1767HOH      O 5505   0.105   2.473   3.217
 1767HOH     H1 5506   0.155   2.417   3.158
 1767HOH     H2 5507   0.170   2.509   3.277
 1768HOH      O 5508   3.273   2.507   2.844
 1768HOH     H1 5509   3.310   2.577   2.898
 1768HOH     H2 5510   3.234   2.446   2.906
 1769HOH      O 5511   3.680   1.346   1.031
 1769HOH     H1 5512   3.617   1.384   0.971
 1769HOH     H2 5513   3.724   1.278   0.980
 1770HOH      O 5514   3.617   3.613   2.372
 1770HOH     H1 5515   3.593   3.594   2.463
 1770HOH     H2 5516   3.597   3.706   2.361
 1771HOH      O 5517   3.288   3.535   3.135
 1771HOH     H1 5518   3.335   3.580   3.066
 1771HOH     H2 5519   3.345   3.462   3.160
 1772HOH      O 5520   1.294   0.240  -0.018
 1772HOH     H1 5521   1.312   0.330   0.010
 1772HOH     H2 5522   1.209   0.219   0.023
 1773HOH      O 5523   1.540   3.830   0.597
 1773HOH     H1 5524   1.585   3.903   0.641
 1773HOH     H2 5525   1.540   3.760   0.662
 1774HOH      O 5526   3.088   1.233   3.167
 1774HOH     H1 5527   3.178   1.201   3.171
 1774HOH     H2 5528   3.034   1.155   3.183
 1775HOH      O 5529   0.820   3.387   0.311
 1775HOH     H1 5530   0.786   3.467   0.352
 1775HOH     H2 5531   0.915   3.402   0.306
 1776HOH      O 5532   3.101   1.471   4.044
 1776HOH     H1 5533   3.175   1.430   3.999
 1776HOH     H2 5534   3.117   1.565   4.035
 1777HOH      O 5535   1.502   0.692   0.578
 1777HOH     H1 5536   1.576   0.749   0.597
 1777HOH     H2 5537   1.446   0.743   0.518
 1778HOH      O 5538   3.795   1.874   2.830
 1778HOH     H1 5539   3.882   1.905   2.857
 1778HOH     H2 5540   3.805   1.856   2.736
 1779HOH      O 5541   1.750   2.758   3.809
 1779HOH     H1 5542   1.784   2.684   3.859
 1779HOH     H2 5543   1.721   2.821   3.875
 1780HOH      O 5544   2.417   3.696   2.414
 1780HOH     H1 5545   2.419   3.666   2.505
 1780HOH     H2 5546   2.339   3.752   2.410
 1781HOH      O 5547   2.847   3.476   0.649
 1781HOH     H1 5548   2.871   3.546   0.588
 1781HOH     H2 5549   2.787   3.420   0.599
 1782HOH      O 5550   1.445   2.915   2.786
 1782HOH     H1 5551   1.355   2.898   2.815
 1782HOH     H2 5552   1.436   2.933   2.692
 1783HOH      O 5553   2.872   3.399   3.370
 1783HOH     H1 5554   2.877   3.318   3.420
 1783HOH     H2 5555   2.858   3.467   3.436
 1784HOH      O 5556   1.299   0.608   3.392
 1784HOH     H1 5557   1.291   0.520   3.428
 1784HOH     H2 5558   1.231   0.613   3.325
 1785HOH      O 5559   3.281   3.126   0.066
 1785HOH     H1 5560   3.360   3.084   0.101
 1785HOH     H2 5561   3.217   3.054   0.060
 1786HOH      O 5562   0.585   3.592   1.022
 1786HOH     H1 5563   0.502   3.549   1.001
 1786HOH     H2 5564   0.563   3.686   1.024
 1787HOH      O 5565   0.777   3.420   3.801
 1787HOH     H1 5566   0.829   3.433   3.722
 1787HOH     H2 5567   0.841   3.395   3.868
 1788HOH      O 5568   1.336   0.683   0.803
 1788HOH     H1 5569   1.278   0.736   0.748
 1788HOH     H2 5570   1.420   0.682   0.756
 1789HOH      O 5571   0.599   1.309   1.533
 1789HOH     H1 5572   0.635   1.318   1.444
 1789HOH     H2 5573   0.591   1.398   1.565
 1790HOH      O 5574   2.753   1.685   1.389
 1790HOH     H1 5575   2.701   1.625   1.441
 1790HOH     H2 5576   2.759   1.644   1.303
 1791HOH      O 5577   1.303   0.676   1.246
 1791HOH     H1 5578   1.314   0.735   1.321
 1791HOH     H2 5579   1.359   0.713   1.178
 1792HOH      O 5580   1.871   3.693   1.971
 1792HOH     H1 5581   1.935   3.630   2.004
 1792HOH     H2 5582   1.786   3.660   2.002
 1793HOH      O 5583   4.029   0.426   1.101
 1793HOH     H1 5584   3.953   0.472   1.063
 1793HOH     H2 5585   4.023   0.445   1.194
 1794HOH      O 5586   0.886   1.516   3.296
 1794HOH     H1 5587   0.920   1.524   3.384
 1794HOH     H2 5588   0.939   1.446   3.256
 1795HOH      O 5589   3.479   3.006   2.776
 1795HOH     H1 5590   3.479   2.931   2.717
 1795HOH     H2 5591   3.472   2.969   2.863
 1796HOH      O 5592   0.740   3.693   1.994
 1796HOH     H1 5593   0.801   3.645   2.051
 1796HOH     H2 5594   0.657   3.693   2.043
 1797HOH      O 5595   0.672   2.508   1.344
 1797HOH     H1 5596   0.700   2.448   1.275
 1797HOH     H2 5597   0.744   2.507   1.407
 1798HOH      O 5598   3.234   0.511   2.180
 1798HOH     H1 5599   3.269   0.485   2.095
 1798HOH     H2 5600   3.169   0.579   2.159
 1799HOH      O 5601   0.463   0.645   0.967
 1799HOH     H1 5602   0.376   0.604   0.969
 1799HOH     H2 5603   0.515   0.587   0.910
 1800HOH      O 5604   0.271   3.588   3.238
 1800HOH     H1 5605   0.341   3.640   3.279
 1800HOH     H2 5606   0.311   3.553   3.159
 1801HOH      O 5607   2.720   0.012   3.795
 1801HOH     H1 5608   2.789   0.066   3.834
 1801HOH     H2 5609   2.746   0.004   3.703
 1802HOH      O 5610   1.295   1.302   0.449
 1802HOH     H1 5611   1.370   1.333   0.499
 1802HOH     H2 5612   1.331   1.278   0.363
 1803HOH      O 5613   2.749   3.985   1.798
 1803HOH     H1 5614   2.664   3.970   1.841
 1803HOH     H2 5615   2.792   4.051   1.852
 1804HOH      O 5616   2.301   2.785   0.938
 1804HOH     H1 5617   2.256   2.852   0.887
 1804HOH     H2 5618   2.253   2.704   0.919
 1805HOH      O 5619   3.404   0.429   1.219
 1805HOH     H1 5620   3.446   0.371   1.154
 1805HOH     H2 5621   3.340   0.479   1.168
 1806HOH      O 5622   0.970   2.776   3.541
 1806HOH     H1 5623   0.977   2.701   3.601
 1806HOH     H2 5624   0.878   2.776   3.514
 1807HOH      O 5625   0.810   1.986   3.456
 1807HOH     H1 5626   0.822   1.898   3.493
 1807HOH     H2 5627   0.846   1.979   3.368
 1808HOH      O 5628   2.131   0.760   3.959
 1808HOH     H1 5629   2.167   0.827   4.018
 1808HOH     H2 5630   2.069   0.711   4.013
 1809HOH      O 5631   1.621   1.469   2.325
 1809HOH     H1 5632   1.629   1.540   2.388
 1809HOH     H2 5633   1.659   1.393   2.369
 1810HOH      O 5634   0.657   3.670   3.797
 1810HOH     H1 5635   0.693   3.582   3.788
 1810HOH     H2 5636   0.593   3.662   3.868
 1811HOH      O 5637   1.536   1.182   1.456
 1811HOH     H1 5638   1.471   1.149   1.394
 1811HOH     H2 5639   1.484   1.221   1.526
 1812HOH      O 5640   1.494   3.335   3.095
 1812HOH     H1 5641   1.400   3.337   3.114
 1812HOH     H2 5642   1.530   3.405   3.150
 1813HOH      O 5643   1.265   3.188   0.373
 1813HOH     H1 5644   1.347   3.142   0.357
 1813HOH     H2 5645   1.277   3.231   0.457
 1814HOH      O 5646   2.499   3.018   0.550
 1814HOH     H1 5647   2.404   3.023   0.549
 1814HOH     H2 5648   2.526   3.072   0.624
 1815HOH      O 5649   2.636   3.271   0.088
 1815HOH     H1 5650   2.579   3.217   0.142
 1815HOH     H2 5651   2.692   3.209   0.042
 1816HOH      O 5652   0.612   0.298   0.440
 1816HOH     H1 5653   0.522   0.267   0.452
 1816HOH     H2 5654   0.662   0.219   0.422
 1817HOH      O 5655   1.836   0.121   3.741
 1817HOH     H1 5656   1.827   0.078   3.826
 1817HOH     H2 5657   1.851   0.213   3.763
 1818HOH      O 5658   2.538   3.495   1.171
 1818HOH     H1 5659   2.566   3.410   1.138
 1818HOH     H2 5660   2.606   3.520   1.233
 1819HOH      O 5661   3.428   1.887   3.899
 1819HOH     H1 5662   3.454   1.909   3.989
 1819HOH     H2 5663   3.478   1.809   3.877
 1820HOH      O 5664   3.414   1.909   1.307
 1820HOH     H1 5665   3.480   1.841   1.321
 1820HOH     H2 5666   3.431   1.940   1.218
 1821HOH      O 5667   0.130   0.062   2.516
 1821HOH     H1 5668   0.167  -0.016   2.556
 1821HOH     H2 5669   0.187   0.133   2.545
 1822HOH      O 5670   0.866   2.897   2.457
 1822HOH     H1 5671   0.863   2.931   2.368
 1822HOH     H2 5672   0.838   2.805   2.449
 1823HOH      O 5673   3.517   4.058   2.972
 1823HOH     H1 5674   3.574   3.986   2.997
 1823HOH     H2 5675   3.463   4.023   2.901
 1824HOH      O 5676   1.454   1.406   2.927
 1824HOH     H1 5677   1.362   1.425   2.909
 1824HOH     H2 5678   1.498   1.490   2.920
 1825HOH      O 5679   2.548   2.540   0.416
 1825HOH     H1 5680   2.470   2.488   0.396
 1825HOH     H2 5681   2.514   2.627   0.438
 1826HOH      O 5682   3.832   0.986   2.350
 1826HOH     H1 5683   3.798   1.014   2.265
 1826HOH     H2 5684   3.858   1.068   2.393
 1827HOH      O 5685   1.809   0.358   2.710
 1827HOH     H1 5686   1.775   0.391   2.793
 1827HOH     H2 5687   1.737   0.305   2.674
 1828HOH      O 5688   3.673   1.651   2.448
 1828HOH     H1 5689   3.751   1.705   2.464
 1828HOH     H2 5690   3.648   1.618   2.534
 1829HOH      O 5691   2.274   1.237   0.805
 1829HOH     H1 5692   2.305   1.309   0.751
 1829HOH     H2 5693   2.255   1.277   0.890
 1830HOH      O 5694   3.847   1.622   2.984
 1830HOH     H1 5695   3.793   1.677   2.927
 1830HOH     H2 5696   3.908   1.683   3.025
 1831HOH      O 5697   0.306   1.755   3.679
 1831HOH     H1 5698   0.368   1.808   3.629
 1831HOH     H2 5699   0.275   1.689   3.616
 1832HOH      O 5700   2.831   3.016   3.768
 1832HOH     H1 5701   2.823   2.921   3.782
 1832HOH     H2 5702   2.757   3.053   3.815
 1833HOH      O 5703   2.950   0.537   0.365
 1833HOH     H1 5704   2.974   0.446   0.382
 1833HOH     H2 5705   2.880   0.532   0.301
 1834HOH      O 5706   1.372   1.661   3.177
 1834HOH     H1 5707   1.320   1.589   3.213
 1834HOH     H2 5708   1.309   1.731   3.163
 1835HOH      O 5709   3.305   3.167   3.044
 1835HOH     H1 5710   3.370   3.097   3.035
 1835HOH     H2 5711   3.348   3.233   3.099
 1836HOH      O 5712   0.355   2.196   0.945
 1836HOH     H1 5713   0.274   2.193   0.893
 1836HOH     H2 5714   0.380   2.104   0.953
 1837HOH      O 5715   0.649   3.313   2.717
 1837HOH     H1 5716   0.692   3.321   2.632
 1837HOH     H2 5717   0.711   3.264   2.771
 1838HOH      O 5718   3.693   1.301   1.309
 1838HOH     H1 5719   3.692   1.277   1.216
 1838HOH     H2 5720   3.671   1.394   1.309
 1839HOH      O 5721   0.223   2.367   1.142
 1839HOH     H1 5722   0.219   2.460   1.123
 1839HOH     H2 5723   0.301   2.336   1.096
 1840HOH      O 5724   3.543   2.691   2.850
 1840HOH     H1 5725   3.482   2.742   2.903
 1840HOH     H2 5726   3.552   2.742   2.769
 1841HOH      O 5727   1.339   1.114   1.282
 1841HOH     H1 5728   1.346   1.158   1.197
 1841HOH     H2 5729   1.259   1.061   1.276
 1842HOH      O 5730   2.608   2.537   3.116
 1842HOH     H1 5731   2.651   2.569   3.195
 1842HOH     H2 5732   2.521   2.578   3.117
 1843HOH      O 5733   1.028   1.018   2.007
 1843HOH     H1 5734   1.102   1.080   2.005
 1843HOH     H2 5735   0.950   1.074   2.007
 1844HOH      O 5736   3.428   1.026   3.844
 1844HOH     H1 5737   3.514   1.051   3.879
 1844HOH     H2 5738   3.449   0.972   3.768
 1845HOH      O 5739   3.359   2.168   2.423
 1845HOH     H1 5740   3.270   2.170   2.390
 1845HOH     H2 5741   3.414   2.170   2.345
 1846HOH      O 5742   4.002   2.768   1.532
 1846HOH     H1 5743   4.026   2.850   1.489
 1846HOH     H2 5744   3.910   2.755   1.509
 1847HOH      O 5745   3.653   0.141   0.607
 1847HOH     H1 5746   3.560   0.149   0.584
 1847HOH     H2 5747   3.654   0.085   0.684
 1848HOH      O 5748   3.150   1.778   0.307
 1848HOH     H1 5749   3.220   1.840   0.325
 1848HOH     H2 5750   3.150   1.719   0.382
 1849HOH      O 5751   0.933   2.605   0.357
 1849HOH     H1 5752   0.938   2.598   0.262
 1849HOH     H2 5753   0.900   2.521   0.387
 1850HOH      O 5754   2.173   0.100   3.051
 1850HOH     H1 5755   2.085   0.098   3.088
 1850HOH     H2 5756   2.225   0.149   3.115
 1851HOH      O 5757   0.979   0.506   3.469
 1851HOH     H1 5758   0.901   0.562   3.471
 1851HOH     H2 5759   1.021   0.527   3.386
 1852HOH      O 5760   3.155   1.057   3.863
 1852HOH     H1 5761   3.149   1.093   3.952
 1852HOH     H2 5762   3.248   1.060   3.842
 1853HOH      O 5763   1.597   1.158   3.922
 1853HOH     H1 5764   1.627   1.133   3.835
 1853HOH     H2 5765   1.607   1.078   3.974
 1854HOH      O 5766   0.419   3.846   3.978
 1854HOH     H1 5767   0.343   3.843   3.919
 1854HOH     H2 5768   0.415   3.762   4.025
 1855HOH      O 5769   3.008   1.434   3.721
 1855HOH     H1 5770   3.028   1.493   3.648
 1855HOH     H2 5771   3.089   1.428   3.770
 1856HOH      O 5772   0.232   0.565   0.223
 1856HOH     H1 5773   0.241   0.551   0.317
 1856HOH     H2 5774   0.221   0.477   0.187
 1857HOH      O 5775   2.789   1.574   2.756
 1857HOH     H1 5776   2.770   1.643   2.692
 1857HOH     H2 5777   2.835   1.619   2.827
 1858HOH      O 5778   2.007   2.299   3.165
 1858HOH     H1 5779   2.079   2.334   3.217
 1858HOH     H2 5780   1.931   2.304   3.224
 1859HOH      O 5781   3.246   3.141   2.764
 1859HOH     H1 5782   3.330   3.096   2.763
 1859HOH     H2 5783   3.194   3.095   2.830
 1860HOH      O 5784   2.150   0.953   1.225
 1860HOH     H1 5785   2.167   1.047   1.232
 1860HOH     H2 5786   2.186   0.915   1.305
 1861HOH      O 5787   2.414   1.459   3.841
 1861HOH     H1 5788   2.503   1.447   3.874
 1861HOH     H2 5789   2.415   1.546   3.802
 1862HOH      O 5790   3.531   3.434   1.236
 1862HOH     H1 5791   3.578   3.484   1.302
 1862HOH     H2 5792   3.475   3.499   1.192
 1863HOH      O 5793   0.592   3.989   2.919
 1863HOH     H1 5794   0.552   4.006   2.834
 1863HOH     H2 5795   0.621   3.898   2.914
 1864HOH      O 5796   2.379   2.720   0.533
 1864HOH     H1 5797   2.308   2.718   0.469
 1864HOH     H2 5798   2.386   2.812   0.559
 1865HOH      O 5799   0.546   2.082   1.227
 1865HOH     H1 5800   0.612   2.013   1.236
 1865HOH     H2 5801   0.479   2.043   1.171
 1866HOH      O 5802   3.858   3.114   1.635
 1866HOH     H1 5803   3.907   3.066   1.568
 1866HOH     H2 5804   3.790   3.159   1.585
 1867HOH      O 5805   0.792   2.087   0.251
 1867HOH     H1 5806   0.759   2.010   0.298
 1867HOH     H2 5807   0.850   2.131   0.314
 1868HOH      O 5808   3.692   3.325   2.991
 1868HOH     H1 5809   3.644   3.406   3.011
 1868HOH     H2 5810   3.784   3.349   3.003
 1869HOH      O 5811   3.184   1.720   0.847
 1869HOH     H1 5812   3.228   1.805   0.849
 1869HOH     H2 5813   3.097   1.739   0.811
 1870HOH      O 5814   0.036   2.116   0.626
 1870HOH     H1 5815   0.049   2.046   0.562
 1870HOH     H2 5816   0.070   2.080   0.708
 1871HOH      O 5817   1.065   2.289   0.239
 1871HOH     H1 5818   1.101   2.201   0.233
 1871HOH     H2 5819   0.978   2.282   0.198
 1872HOH      O 5820   2.560   0.496   1.925
 1872HOH     H1 5821   2.539   0.408   1.893
 1872HOH     H2 5822   2.541   0.492   2.019
 1873HOH      O 5823   1.526   0.727   3.697
 1873HOH     H1 5824   1.596   0.793   3.695
 1873HOH     H2 5825   1.546   0.669   3.623
 1874HOH      O 5826   3.603   0.630   0.568
 1874HOH     H1 5827   3.629   0.697   0.504
 1874HOH     H2 5828   3.561   0.679   0.638
 1875HOH      O 5829   3.567   1.640   3.876
 1875HOH     H1 5830   3.498   1.630   3.811
 1875HOH     H2 5831   3.580   1.552   3.911
 1876HOH      O 5832   2.949   0.637   2.820
 1876HOH     H1 5833   3.034   0.604   2.851
 1876HOH     H2 5834   2.885   0.583   2.866
 1877HOH      O 5835   2.737   1.460   3.364
 1877HOH     H1 5836   2.802   1.390   3.368
 1877HOH     H2 5837   2.789   1.540   3.364
 1878HOH      O 5838   1.477   0.630   2.704
 1878HOH     H1 5839   1.560   0.677   2.697
 1878HOH     H2 5840   1.474   0.600   2.795
 1879HOH      O 5841   3.103   0.150   1.557
 1879HOH     H1 5842   3.084   0.163   1.650
 1879HOH     H2 5843   3.197   0.168   1.549
 1880HOH      O 5844   1.922   2.772   1.771
 1880HOH     H1 5845   1.888   2.792   1.858
 1880HOH     H2 5846   1.951   2.857   1.737
 1881HOH      O 5847   3.849   2.935   2.811
 1881HOH     H1 5848   3.903   3.010   2.791
 1881HOH     H2 5849   3.849   2.882   2.731
 1882HOH      O 5850   2.859   3.383   2.578
 1882HOH     H1 5851   2.816   3.465   2.603
 1882HOH     H2 5852   2.789   3.318   2.579
 1883HOH      O 5853   3.379   3.596   0.688
 1883HOH     H1 5854   3.342   3.607   0.775
 1883HOH     H2 5855   3.325   3.529   0.647
 1884HOH      O 5856   2.330   1.968   0.420
 1884HOH     H1 5857   2.378   1.980   0.337
 1884HOH     H2 5858   2.356   2.043   0.473
 1885HOH      O 5859   2.418   2.157   3.305
 1885HOH     H1 5860   2.378   2.107   3.235
 1885HOH     H2 5861   2.512   2.144   3.294
 1886HOH      O 5862   3.071   3.743   2.533
 1886HOH     H1 5863   3.064   3.715   2.442
 1886HOH     H2 5864   3.079   3.662   2.583
 1887HOH      O 5865   2.395   2.960   2.209
 1887HOH     H1 5866   2.313   2.936   2.252
 1887HOH     H2 5867   2.373   3.039   2.159
 1888HOH      O 5868   2.226   0.190   0.471
 1888HOH     H1 5869   2.135   0.166   0.453
 1888HOH     H2 5870   2.230   0.200   0.566
 1889HOH      O 5871   1.599   3.100   3.735
 1889HOH     H1 5872   1.683   3.096   3.780
 1889HOH     H2 5873   1.572   3.191   3.743
 1890HOH      O 5874   2.434   0.938   1.141
 1890HOH     H1 5875   2.404   0.847   1.151
 1890HOH     H2 5876   2.434   0.952   1.046
 1891HOH      O 5877   3.707   3.495   2.615
 1891HOH     H1 5878   3.681   3.406   2.639
 1891HOH     H2 5879   3.755   3.484   2.533
 1892HOH      O 5880   0.955   2.594   3.767
 1892HOH     H1 5881   0.887   2.653   3.800
 1892HOH     H2 5882   0.911   2.510   3.757
 1893HOH      O 5883   2.517   2.049   0.223
 1893HOH     H1 5884   2.571   2.107   0.277
 1893HOH     H2 5885   2.492   2.103   0.148
 1894HOH      O 5886   3.439   0.795   3.691
 1894HOH     H1 5887   3.445   0.808   3.597
 1894HOH     H2 5888   3.491   0.716   3.707
 1895HOH      O 5889   0.811   1.246   3.069
 1895HOH     H1 5890   0.857   1.207   2.995
 1895HOH     H2 5891   0.719   1.224   3.055
 1896HOH      O 5892   1.015   1.104   0.859
 1896HOH     H1 5893   1.066   1.103   0.778
 1896HOH     H2 5894   1.058   1.171   0.913
 1897HOH      O 5895   0.164   1.564   3.474
 1897HOH     H1 5896   0.110   1.524   3.406
 1897HOH     H2 5897   0.254   1.539   3.451
 1898HOH      O 5898   3.272   1.319   1.379
 1898HOH     H1 5899   3.287   1.414   1.378
 1898HOH     H2 5900   3.246   1.298   1.290
 1899HOH      O 5901   2.602   2.022   0.795
 1899HOH     H1 5902   2.628   2.114   0.799
 1899HOH     H2 5903   2.609   1.999   0.702
 1900HOH      O 5904   2.577   3.916   0.400
 1900HOH     H1 5905   2.490   3.915   0.440
 1900HOH     H2 5906   2.573   3.850   0.331
 1901HOH      O 5907   2.761   0.155   3.270
 1901HOH     H1 5908   2.698   0.226   3.281
 1901HOH     H2 5909   2.712   0.086   3.227
 1902HOH      O 5910   1.901   3.011   1.185
 1902HOH     H1 5911   1.973   3.016   1.122
 1902HOH     H2 5912   1.935   3.054   1.264
 1903HOH      O 5913   2.979   2.045   3.494
 1903HOH     H1 5914   3.054   2.100   3.518
 1903HOH     H2 5915   2.971   2.055   3.399
 1904HOH      O 5916   0.476   2.396   0.558
 1904HOH     H1 5917   0.445   2.426   0.643
 1904HOH     H2 5918   0.548   2.336   0.579
 1905HOH      O 5919   2.693   1.759   2.566
 1905HOH     H1 5920   2.629   1.784   2.633
 1905HOH     H2 5921   2.639   1.732   2.492
 1906HOH      O 5922   1.700   2.263   2.966
 1906HOH     H1 5923   1.751   2.183   2.970
 1906HOH     H2 5924   1.617   2.242   3.009
 1907HOH      O 5925   0.815   2.241   0.479
 1907HOH     H1 5926   0.750   2.201   0.536
 1907HOH     H2 5927   0.770   2.317   0.441
 1908HOH      O 5928   2.088   1.858   3.859
 1908HOH     H1 5929   2.077   1.890   3.770
 1908HOH     H2 5930   2.019   1.793   3.870
 1909HOH      O 5931   0.702   1.790   0.711
 1909HOH     H1 5932   0.684   1.733   0.785
 1909HOH     H2 5933   0.625   1.846   0.705
 1910HOH      O 5934   0.930   1.110   2.844
 1910HOH     H1 5935   0.875   1.079   2.772
 1910HOH     H2 5936   0.957   1.031   2.890
 1911HOH      O 5937   2.021   3.958   3.985
 1911HOH     H1 5938   1.937   4.003   3.974
 1911HOH     H2 5939   1.998   3.875   4.028
 1912HOH      O 5940   2.697   3.275   0.958
 1912HOH     H1 5941   2.634   3.214   0.996
 1912HOH     H2 5942   2.665   3.292   0.870
 1913HOH      O 5943   1.394   4.010   3.723
 1913HOH     H1 5944   1.334   3.941   3.692
 1913HOH     H2 5945   1.478   3.966   3.732
 1914HOH      O 5946   3.076   2.773   1.922
 1914HOH     H1 5947   3.144   2.792   1.987
 1914HOH     H2 5948   3.049   2.683   1.941
 1915HOH      O 5949   1.698   3.784   2.515
 1915HOH     H1 5950   1.727   3.753   2.601
 1915HOH     H2 5951   1.706   3.879   2.521
 1916HOH      O 5952   0.715   1.023   1.815
 1916HOH     H1 5953   0.672   1.038   1.899
 1916HOH     H2 5954   0.664   0.954   1.774
 1917HOH      O 5955   0.331   3.071   0.396
 1917HOH     H1 5956   0.393   3.003   0.424
 1917HOH     H2 5957   0.252   3.023   0.373
 1918HOH      O 5958   1.840   2.652   2.367
 1918HOH     H1 5959   1.765   2.698   2.404
 1918HOH     H2 5960   1.904   2.651   2.438
 1919HOH      O 5961   0.912   1.522   0.386
 1919HOH     H1 5962   0.836   1.482   0.344
 1919HOH     H2 5963   0.935   1.595   0.329
 1920HOH      O 5964   0.637   1.672   0.147
 1920HOH     H1 5965   0.689   1.730   0.202
 1920HOH     H2 5966   0.661   1.584   0.174
 1921HOH      O 5967   0.480   0.770   3.376
 1921HOH     H1 5968   0.518   0.830   3.312
 1921HOH     H2 5969   0.394   0.748   3.341
 1922HOH      O 5970   3.720   3.932   1.014
 1922HOH     H1 5971   3.736   3.889   1.098
 1922HOH     H2 5972   3.796   3.990   1.002
 1923HOH      O 5973   1.292   0.354   3.487
 1923HOH     H1 5974   1.217   0.337   3.429
 1923HOH     H2 5975   1.270   0.309   3.569
 1924HOH      O 5976   2.275   1.332   1.068
 1924HOH     H1 5977   2.248   1.280   1.144
 1924HOH     H2 5978   2.240   1.419   1.085
 1925HOH      O 5979   1.380   0.945   0.510
 1925HOH     H1 5980   1.449   0.942   0.445
 1925HOH     H2 5981   1.424   0.973   0.591
 1926HOH      O 5982   2.040   2.098   3.532
 1926HOH     H1 5983   2.090   2.173   3.565
 1926HOH     H2 5984   1.954   2.135   3.511
 1927HOH      O 5985   2.472   3.765   3.038
 1927HOH     H1 5986   2.416   3.808   2.973
 1927HOH     H2 5987   2.416   3.755   3.115
 1928HOH      O 5988   1.836   0.216   0.976
 1928HOH     H1 5989   1.778   0.293   0.977
 1928HOH     H2 5990   1.841   0.191   0.884
 1929HOH      O 5991   0.775   3.567   2.653
 1929HOH     H1 5992   0.865   3.536   2.655
 1929HOH     H2 5993   0.730   3.507   2.593
 1930HOH      O 5994   2.762   0.155   2.916
 1930HOH     H1 5995   2.725   0.096   2.982
 1930HOH     H2 5996   2.831   0.104   2.873
 1931HOH      O 5997   2.245   0.498   0.597
 1931HOH     H1 5998   2.209   0.517   0.684
 1931HOH     H2 5999   2.329   0.455   0.615
 1932HOH      O 6000   3.985   3.008   1.406
 1932HOH     H1 6001   3.959   2.984   1.317
 1932HOH     H2 6002   4.049   3.078   1.395
 1933HOH      O 6003   0.764   3.373   1.789
 1933HOH     H1 6004   0.747   3.279   1.785
 1933HOH     H2 6005   0.677   3.413   1.778
 1934HOH      O 6006   0.307   0.622   2.669
 1934HOH     H1 6007   0.322   0.714   2.691
 1934HOH     H2 6008   0.390   0.578   2.689
 1935HOH      O 6009   2.671   2.339   0.556
 1935HOH     H1 6010   2.634   2.414   0.510
 1935HOH     H2 6011   2.647   2.352   0.647
 1936HOH      O 6012   0.168   3.898   3.755
 1936HOH     H1 6013   0.126   3.983   3.766
 1936HOH     H2 6014   0.136   3.845   3.828
 1937HOH      O 6015   2.631   3.555   2.939
 1937HOH     H1 6016   2.599   3.627   2.993
 1937HOH     H2 6017   2.677   3.497   2.999
 1938HOH      O 6018   2.722   0.949   1.888
 1938HOH     H1 6019   2.805   0.922   1.850
 1938HOH     H2 6020   2.698   1.028   1.839
 1939HOH      O 6021   0.702   0.044   0.369
 1939HOH     H1 6022   0.645  -0.033   0.371
 1939HOH     H2 6023   0.783   0.014   0.410
 1940HOH      O 6024   0.316   0.299   1.518
 1940HOH     H1 6025   0.386   0.236   1.500
 1940HOH     H2 6026   0.237   0.247   1.523
 1941HOH      O 6027   1.504   3.859   1.917
 1941HOH     H1 6028   1.561   3.880   1.843
 1941HOH     H2 6029   1.426   3.820   1.876
 1942HOH      O 6030   2.545   1.526   0.177
 1942HOH     H1 6031   2.631   1.517   0.219
 1942HOH     H2 6032   2.559   1.496   0.087
 1943HOH      O 6033   2.053   0.497   3.125
 1943HOH     H1 6034   2.134   0.449   3.143
 1943HOH     H2 6035   2.055   0.570   3.188
 1944HOH      O 6036   3.352   2.143   1.391
 1944HOH     H1 6037   3.359   2.052   1.363
 1944HOH     H2 6038   3.426   2.156   1.451
 1945HOH      O 6039   2.734   1.503   1.627
 1945HOH     H1 6040   2.816   1.455   1.640
 1945HOH     H2 6041   2.687   1.451   1.562
 1946HOH      O 6042   0.753   0.826   2.821
 1946HOH     H1 6043   0.767   0.768   2.746
 1946HOH     H2 6044   0.730   0.911   2.782
 1947HOH      O 6045   1.652   2.742   2.550
 1947HOH     H1 6046   1.576   2.800   2.556
 1947HOH     H2 6047   1.623   2.660   2.588
 1948HOH      O 6048   0.687   2.593   0.018
 1948HOH     H1 6049   0.670   2.569  -0.073
 1948HOH     H2 6050   0.605   2.575   0.064
 1949HOH      O 6051   2.531   2.031   3.794
 1949HOH     H1 6052   2.452   2.057   3.747
 1949HOH     H2 6053   2.589   1.996   3.727
 1950HOH      O 6054   0.065   2.599   1.961
 1950HOH     H1 6055   0.101   2.511   1.951
 1950HOH     H2 6056  -0.026   2.592   1.931
 1951HOH      O 6057   2.586   2.836   2.367
 1951HOH     H1 6058   2.666   2.869   2.325
 1951HOH     H2 6059   2.515   2.876   2.317
 1952HOH      O 6060   2.143   2.231   2.039
 1952HOH     H1 6061   2.167   2.144   2.069
 1952HOH     H2 6062   2.208   2.289   2.078
 1953HOH      O 6063   1.836   1.248   0.127
 1953HOH     H1 6064   1.908   1.272   0.185
 1953HOH     H2 6065   1.759   1.288   0.166
 1954HOH      O 6066   2.210   3.389   2.293
 1954HOH     H1 6067   2.138   3.388   2.356
 1954HOH     H2 6068   2.286   3.359   2.343
 1955HOH      O 6069   2.724   1.302   2.765
 1955HOH     H1 6070   2.748   1.394   2.771
 1955HOH     H2 6071   2.720   1.272   2.856
 1956HOH      O 6072   0.279   1.884   0.536
 1956HOH     H1 6073   0.330   1.817   0.490
 1956HOH     H2 6074   0.197   1.888   0.487
 1957HOH      O 6075   3.968   2.556   1.322
 1957HOH     H1 6076   3.923   2.607   1.390
 1957HOH     H2 6077   3.973   2.468   1.358
 1958HOH      O 6078   1.431   3.213   1.740
 1958HOH     H1 6079   1.453   3.284   1.800
 1958HOH     H2 6080   1.439   3.133   1.792
 1959HOH      O 6081   0.322   2.519   1.418
 1959HOH     H1 6082   0.270   2.445   1.384
 1959HOH     H2 6083   0.306   2.590   1.355
 1960HOH      O 6084   0.662   1.811   3.774
 1960HOH     H1 6085   0.611   1.805   3.854
 1960HOH     H2 6086   0.751   1.785   3.799
 1961HOH      O 6087   2.448   2.860   1.667
 1961HOH     H1 6088   2.499   2.888   1.591
 1961HOH     H2 6089   2.484   2.775   1.690
 1962HOH      O 6090   0.112   1.513   1.719
 1962HOH     H1 6091   0.099   1.467   1.636
 1962HOH     H2 6092   0.200   1.487   1.748
 1963HOH      O 6093   1.580   1.058   2.645
 1963HOH     H1 6094   1.512   1.125   2.637
 1963HOH     H2 6095   1.603   1.037   2.555
 1964HOH      O 6096   3.688   0.222   3.383
 1964HOH     H1 6097   3.598   0.253   3.376
 1964HOH     H2 6098   3.716   0.209   3.293
 1965HOH      O 6099   1.843   3.671   1.573
 1965HOH     H1 6100   1.892   3.611   1.517
 1965HOH     H2 6101   1.911   3.717   1.624
 1966HOH      O 6102   0.741   0.371   1.540
 1966HOH     H1 6103   0.692   0.382   1.622
 1966HOH     H2 6104   0.819   0.321   1.566
 1967HOH      O 6105   2.177   0.514   2.356
 1967HOH     H1 6106   2.160   0.424   2.384
 1967HOH     H2 6107   2.199   0.507   2.263
 1968HOH      O 6108   2.761   3.591   2.704
 1968HOH     H1 6109   2.684   3.567   2.755
 1968HOH     H2 6110   2.804   3.659   2.756
 1969HOH      O 6111   0.565   1.551   3.057
 1969HOH     H1 6112   0.609   1.480   3.105
 1969HOH     H2 6113   0.523   1.507   2.983
 1970HOH      O 6114   1.674   1.193   2.037
 1970HOH     H1 6115   1.702   1.179   2.127
 1970HOH     H2 6116   1.664   1.105   2.000
 1971HOH      O 6117   3.272   1.373   0.333
 1971HOH     H1 6118   3.313   1.334   0.256
 1971HOH     H2 6119   3.196   1.420   0.298
 1972HOH      O 6120   2.396   3.267   3.869
 1972HOH     H1 6121   2.304   3.293   3.864
 1972HOH     H2 6122   2.443   3.337   3.825
 1973HOH      O 6123   1.874   3.825   0.255
 1973HOH     H1 6124   1.924   3.827   0.336
 1973HOH     H2 6125   1.785   3.846   0.281
 1974HOH      O 6126   3.788   1.101   3.025
 1974HOH     H1 6127   3.758   1.083   3.114
 1974HOH     H2 6128   3.872   1.056   3.018
 1975HOH      O 6129   3.838   1.859   1.035
 1975HOH     H1 6130   3.887   1.823   1.109
 1975HOH     H2 6131   3.805   1.783   0.988
 1976HOH      O 6132   1.236   3.309   3.900
 1976HOH     H1 6133   1.306   3.275   3.957
 1976HOH     H2 6134   1.269   3.294   3.811
 1977HOH      O 6135   3.489   1.258   1.783
 1977HOH     H1 6136   3.554   1.234   1.717
 1977HOH     H2 6137   3.481   1.353   1.775
 1978HOH      O 6138   2.408   3.388   0.322
 1978HOH     H1 6139   2.418   3.299   0.288
 1978HOH     H2 6140   2.492   3.407   0.363
 1979HOH      O 6141   2.139   2.956   0.816
 1979HOH     H1 6142   2.047   2.940   0.835
 1979HOH     H2 6143   2.161   3.034   0.867
 1980HOH      O 6144   3.029   2.175   2.696
 1980HOH     H1 6145   2.953   2.155   2.640
 1980HOH     H2 6146   3.072   2.248   2.652
 1981HOH      O 6147   0.985   3.347   4.000
 1981HOH     H1 6148   1.026   3.395   4.073
 1981HOH     H2 6149   1.059   3.311   3.951
 1982HOH      O 6150   0.287   2.964   1.760
 1982HOH     H1 6151   0.382   2.952   1.767
 1982HOH     H2 6152   0.253   2.876   1.743
 1983HOH      O 6153   0.614   3.892   0.138
 1983HOH     H1 6154   0.570   3.862   0.217
 1983HOH     H2 6155   0.551   3.879   0.068
 1984HOH      O 6156   3.393   1.764   2.784
 1984HOH     H1 6157   3.429   1.853   2.791
 1984HOH     H2 6158   3.470   1.708   2.774
 1985HOH      O 6159   3.818   0.942   1.554
 1985HOH     H1 6160   3.784   0.912   1.469
 1985HOH     H2 6161   3.750   0.918   1.617
 1986HOH      O 6162   1.223   1.822   1.130
 1986HOH     H1 6163   1.289   1.830   1.198
 1986HOH     H2 6164   1.191   1.912   1.116
 1987HOH      O 6165   1.645   1.741   0.329
 1987HOH     H1 6166   1.574   1.751   0.265
 1987HOH     H2 6167   1.605   1.692   0.401
 1988HOH      O 6168   2.503   0.172   1.559
 1988HOH     H1 6169   2.413   0.204   1.552
 1988HOH     H2 6170   2.501   0.086   1.516
 1989HOH      O 6171   1.652   0.395   0.424
 1989HOH     H1 6172   1.642   0.487   0.400
 1989HOH     H2 6173   1.657   0.348   0.340
 1990HOH      O 6174   0.062   2.175   0.893
 1990HOH     H1 6175   0.033   2.219   0.973
 1990HOH     H2 6176   0.066   2.246   0.828
 1991HOH      O 6177   2.480   3.890   1.225
 1991HOH     H1 6178   2.487   3.985   1.220
 1991HOH     H2 6179   2.533   3.858   1.152
 1992HOH      O 6180   1.080   0.615   3.213
 1992HOH     H1 6181   1.007   0.673   3.190
 1992HOH     H2 6182   1.064   0.536   3.162
 1993HOH      O 6183   2.581   0.580   0.785
 1993HOH     H1 6184   2.653   0.553   0.843
 1993HOH     H2 6185   2.616   0.567   0.697
 1994HOH      O 6186   3.684   3.431   1.747
 1994HOH     H1 6187   3.674   3.509   1.692
 1994HOH     H2 6188   3.683   3.358   1.686
 1995HOH      O 6189   0.845   1.121   0.358
 1995HOH     H1 6190   0.901   1.178   0.411
 1995HOH     H2 6191   0.904   1.087   0.290
 1996HOH      O 6192   0.768   1.149   0.705
 1996HOH     H1 6193   0.824   1.126   0.779
 1996HOH     H2 6194   0.829   1.181   0.638
 1997HOH      O 6195   1.792   3.231   2.938
 1997HOH     H1 6196   1.768   3.313   2.982
 1997HOH     H2 6197   1.874   3.205   2.980
 1998HOH      O 6198   3.735   3.943   0.353
 1998HOH     H1 6199   3.773   4.031   0.342
 1998HOH     H2 6200   3.742   3.925   0.447
 1999HOH      O 6201   3.054   2.978   2.896
 1999HOH     H1 6202   3.024   2.962   2.986
 1999HOH     H2 6203   2.996   3.047   2.864
 2000HOH      O 6204   3.119   0.742   3.535
 2000HOH     H1 6205   3.026   0.760   3.517
 2000HOH     H2 6206   3.147   0.684   3.464
 2001HOH      O 6207   2.389   1.054   0.372
 2001HOH     H1 6208   2.423   0.978   0.324
 2001HOH     H2 6209   2.351   1.016   0.452
 2002HOH      O 6210   2.102   2.166   2.828
 2002HOH     H1 6211   2.190   2.131   2.842
 2002HOH     H2 6212   2.113   2.261   2.836
 2003HOH      O 6213   4.004   3.719   3.297
 2003HOH     H1 6214   4.084   3.767   3.316
 2003HOH     H2 6215   4.012   3.693   3.205
 2004HOH      O 6216   0.298   0.133   2.170
 2004HOH     H1 6217   0.248   0.194   2.115
 2004HOH     H2 6218   0.330   0.186   2.243
 2005HOH      O 6219   0.855   2.757   1.079
 2005HOH     H1 6220   0.760   2.761   1.082
 2005HOH     H2 6221   0.882   2.844   1.049
 2006HOH      O 6222   3.909   0.113   1.063
 2006HOH     H1 6223   3.956   0.195   1.080
 2006HOH     H2 6224   3.882   0.120   0.971
 2007HOH      O 6225   3.110   1.556   3.314
 2007HOH     H1 6226   3.085   1.474   3.355
 2007HOH     H2 6227   3.197   1.540   3.278
 2008HOH      O 6228   1.809   0.849   0.430
 2008HOH     H1 6229   1.860   0.846   0.511
 2008HOH     H2 6230   1.851   0.786   0.372
 2009HOH      O 6231   3.612   2.096   2.575
 2009HOH     H1 6232   3.593   2.134   2.661
 2009HOH     H2 6233   3.543   2.132   2.518
 2010HOH      O 6234   2.028   3.615   0.673
 2010HOH     H1 6235   2.093   3.604   0.604
 2010HOH     H2 6236   2.043   3.704   0.705
 2011HOH      O 6237   1.441   3.175  -0.019
 2011HOH     H1 6238   1.474   3.225   0.055
 2011HOH     H2 6239   1.441   3.084   0.011
 2012HOH      O 6240   2.045   0.007   2.569
 2012HOH     H1 6241   2.006  -0.018   2.653
 2012HOH     H2 6242   1.971   0.019   2.510
 2013HOH      O 6243   2.290   2.604   2.220
 2013HOH     H1 6244   2.312   2.511   2.224
 2013HOH     H2 6245   2.304   2.628   2.128
 2014HOH      O 6246   1.119   3.371   0.212
 2014HOH     H1 6247   1.161   3.309   0.272
 2014HOH     H2 6248   1.192   3.419   0.174
 2015HOH      O 6249   0.550   0.147   2.023
 2015HOH     H1 6250   0.456   0.146   2.038
 2015HOH     H2 6251   0.560   0.116   1.933
 2016HOH      O 6252   1.831   0.633   3.764
 2016HOH     H1 6253   1.798   0.720   3.741
 2016HOH     H2 6254   1.926   0.640   3.755
 2017HOH      O 6255   2.349   1.604   1.984
 2017HOH     H1 6256   2.389   1.561   1.909
 2017HOH     H2 6257   2.274   1.548   2.006
 2018HOH      O 6258   3.491   1.864   2.445
 2018HOH     H1 6259   3.560   1.800   2.428
 2018HOH     H2 6260   3.535   1.936   2.489
 2019HOH      O 6261   1.131   2.692   0.880
 2019HOH     H1 6262   1.071   2.736   0.941
 2019HOH     H2 6263   1.074   2.662   0.809
 2020HOH      O 6264   2.710   3.305   0.447
 2020HOH     H1 6265   2.767   3.354   0.387
 2020HOH     H2 6266   2.704   3.218   0.408
 2021HOH      O 6267   1.691   2.855   1.252
 2021HOH     H1 6268   1.772   2.906   1.247
 2021HOH     H2 6269   1.622   2.922   1.260
 2022HOH      O 6270   2.182   3.484   0.957
 2022HOH     H1 6271   2.133   3.526   0.886
 2022HOH     H2 6272   2.254   3.544   0.976
 2023HOH      O 6273   1.015   4.059   1.987
 2023HOH     H1 6274   0.956   4.031   1.917
 2023HOH     H2 6275   1.085   3.994   1.987
 2024HOH      O 6276   3.073   0.328   2.341
 2024HOH     H1 6277   3.133   0.381   2.288
 2024HOH     H2 6278   2.988   0.337   2.298
 2025HOH      O 6279   2.484   0.105   2.146
 2025HOH     H1 6280   2.517   0.076   2.231
 2025HOH     H2 6281   2.539   0.180   2.124
 2026HOH      O 6282   2.307   3.925   0.568
 2026HOH     H1 6283   2.345   4.012   0.575
 2026HOH     H2 6284   2.267   3.909   0.653
 2027HOH      O 6285   0.497   3.938   0.809
 2027HOH     H1 6286   0.482   3.912   0.900
 2027HOH     H2 6287   0.413   3.974   0.781
 2028HOH      O 6288   2.944   3.243   1.504
 2028HOH     H1 6289   2.952   3.152   1.475
 2028HOH     H2 6290   2.849   3.256   1.513
 2029HOH      O 6291   2.478   0.251   3.897
 2029HOH     H1 6292   2.470   0.168   3.944
 2029HOH     H2 6293   2.392   0.292   3.907
 2030HOH      O 6294   0.510   0.446   3.616
 2030HOH     H1 6295   0.547   0.396   3.544
 2030HOH     H2 6296   0.538   0.399   3.695
 2031HOH      O 6297   0.944   1.912   3.240
 2031HOH     H1 6298   1.037   1.906   3.218
 2031HOH     H2 6299   0.899   1.873   3.165
 2032HOH      O 6300   3.333   0.934   2.243
 2032HOH     H1 6301   3.251   0.918   2.196
 2032HOH     H2 6302   3.368   1.014   2.203
 2033HOH      O 6303   3.248   3.942   2.530
 2033HOH     H1 6304   3.186   3.869   2.527
 2033HOH     H2 6305   3.221   3.998   2.457
 2034HOH      O 6306   1.276   1.947   3.980
 2034HOH     H1 6307   1.263   2.042   3.980
 2034HOH     H2 6308   1.319   1.928   3.897
 2035HOH      O 6309   0.312   1.897   0.930
 2035HOH     H1 6310   0.319   1.802   0.924
 2035HOH     H2 6311   0.316   1.916   1.024
 2036HOH      O 6312   2.006   2.990   0.408
 2036HOH     H1 6313   2.101   3.005   0.402
 2036HOH     H2 6314   1.996   2.927   0.479
 2037HOH      O 6315   3.925   3.621   2.793
 2037HOH     H1 6316   3.943   3.713   2.813
 2037HOH     H2 6317   3.846   3.622   2.739
 2038HOH      O 6318   1.825   1.883   0.184
 2038HOH     H1 6319   1.786   1.827   0.251
 2038HOH     H2 6320   1.908   1.911   0.221
 2039HOH      O 6321   3.083   3.660   1.642
 2039HOH     H1 6322   3.087   3.729   1.709
 2039HOH     H2 6323   3.132   3.587   1.680
 2040HOH      O 6324   3.212   0.953   0.894
 2040HOH     H1 6325   3.226   1.046   0.911
 2040HOH     H2 6326   3.210   0.913   0.980
 2041HOH      O 6327   1.724   3.336   1.753
 2041HOH     H1 6328   1.676   3.300   1.828
 2041HOH     H2 6329   1.816   3.335   1.782
 2042HOH      O 6330   3.984   1.725   0.218
 2042HOH     H1 6331   4.015   1.644   0.176
 2042HOH     H2 6332   3.890   1.727   0.200
 2043HOH      O 6333   2.796   2.461   1.145
 2043HOH     H1 6334   2.710   2.490   1.116
 2043HOH     H2 6335   2.844   2.541   1.165
 2044HOH      O 6336   1.489   3.891   0.945
 2044HOH     H1 6337   1.487   3.807   0.899
 2044HOH     H2 6338   1.412   3.890   1.002
 2045HOH      O 6339   1.051   3.862   0.175
 2045HOH     H1 6340   1.020   3.941   0.131
 2045HOH     H2 6341   0.981   3.798   0.161
 2046HOH      O 6342   3.205   0.185   2.038
 2046HOH     H1 6343   3.181   0.188   1.946
 2046HOH     H2 6344   3.293   0.146   2.039
 2047HOH      O 6345   0.542   2.530   1.586
 2047HOH     H1 6346   0.459   2.535   1.538
 2047HOH     H2 6347   0.602   2.488   1.524
 2048HOH      O 6348   2.093   0.541   0.865
 2048HOH     H1 6349   2.084   0.617   0.807
 2048HOH     H2 6350   2.101   0.578   0.953
 2049HOH      O 6351   1.906   1.372   2.134
 2049HOH     H1 6352   1.895   1.377   2.039
 2049HOH     H2 6353   1.885   1.281   2.156
 2050HOH      O 6354   3.461   2.378   0.594
 2050HOH     H1 6355   3.514   2.450   0.628
 2050HOH     H2 6356   3.386   2.421   0.552
 2051HOH      O 6357   0.619   1.467   3.318
 2051HOH     H1 6358   0.714   1.473   3.310
 2051HOH     H2 6359   0.601   1.373   3.326
 2052HOH      O 6360   2.996   0.435  -0.014
 2052HOH     H1 6361   3.082   0.437   0.027
 2052HOH     H2 6362   2.944   0.500   0.035
 2053HOH      O 6363   1.686   0.950   0.950
 2053HOH     H1 6364   1.657   1.019   1.009
 2053HOH     H2 6365   1.779   0.968   0.936
 2054HOH      O 6366   3.868   0.134   0.811
 2054HOH     H1 6367   3.807   0.180   0.753
 2054HOH     H2 6368   3.940   0.109   0.754
 2055HOH      O 6369   1.798   0.305   1.922
 2055HOH     H1 6370   1.800   0.375   1.857
 2055HOH     H2 6371   1.719   0.255   1.901
 2056HOH      O 6372   3.371   1.505   2.966
 2056HOH     H1 6373   3.364   1.461   2.882
 2056HOH     H2 6374   3.341   1.594   2.949
 2057HOH      O 6375   2.987   1.096   1.249
 2057HOH     H1 6376   2.909   1.047   1.223
 2057HOH     H2 6377   3.036   1.035   1.304
 2058HOH      O 6378   3.851   3.879   1.891
 2058HOH     H1 6379   3.850   3.888   1.986
 2058HOH     H2 6380   3.850   3.969   1.858
 2059HOH      O 6381   1.533   2.084   2.141
 2059HOH     H1 6382   1.495   2.161   2.097
 2059HOH     H2 6383   1.594   2.048   2.076
 2060HOH      O 6384   3.041   2.923   1.085
 2060HOH     H1 6385   3.125   2.935   1.041
 2060HOH     H2 6386   3.003   3.011   1.090
 2061HOH      O 6387   1.365   3.709   3.965
 2061HOH     H1 6388   1.364   3.783   4.026
 2061HOH     H2 6389   1.457   3.684   3.960
 2062HOH      O 6390   0.092   1.022   2.237
 2062HOH     H1 6391   0.164   0.968   2.269
 2062HOH     H2 6392   0.066   0.981   2.155
 2063HOH      O 6393   3.399   2.853   1.427
 2063HOH     H1 6394   3.309   2.882   1.411
 2063HOH     H2 6395   3.404   2.838   1.521
 2064HOH      O 6396   0.437   0.817   1.368
 2064HOH     H1 6397   0.463   0.900   1.406
 2064HOH     H2 6398   0.513   0.789   1.317
 2065HOH      O 6399   2.870   0.326   2.011
 2065HOH     H1 6400   2.817   0.318   2.090
 2065HOH     H2 6401   2.881   0.420   1.999
 2066HOH      O 6402   0.847   3.971   1.768
 2066HOH     H1 6403   0.858   3.944   1.677
 2066HOH     H2 6404   0.779   4.038   1.764
 2067HOH      O 6405   2.257   1.910   1.442
 2067HOH     H1 6406   2.350   1.898   1.459
 2067HOH     H2 6407   2.243   1.870   1.356
 2068HOH      O 6408   3.874   3.893   2.738
 2068HOH     H1 6409   3.845   3.977   2.774
 2068HOH     H2 6410   3.878   3.909   2.643
 2069HOH      O 6411   3.052   3.130   2.562
 2069HOH     H1 6412   3.002   3.210   2.575
 2069HOH     H2 6413   3.108   3.123   2.639
 2070HOH      O 6414   2.979   0.481   3.180
 2070HOH     H1 6415   2.911   0.472   3.113
 2070HOH     H2 6416   3.034   0.403   3.168
 2071HOH      O 6417   3.759   3.829   1.255
 2071HOH     H1 6418   3.682   3.810   1.308
 2071HOH     H2 6419   3.824   3.764   1.283
 2072HOH      O 6420   1.688   3.107   2.636
 2072HOH     H1 6421   1.610   3.126   2.584
 2072HOH     H2 6422   1.740   3.049   2.580
 2073HOH      O 6423   2.233   3.600   0.374
 2073HOH     H1 6424   2.229   3.673   0.313
 2073HOH     H2 6425   2.265   3.527   0.322
 2074HOH      O 6426   1.897   0.378   3.849
 2074HOH     H1 6427   1.915   0.419   3.934
 2074HOH     H2 6428   1.851   0.446   3.799
 2075HOH      O 6429   1.158   0.251   3.239
 2075HOH     H1 6430   1.223   0.240   3.169
 2075HOH     H2 6431   1.184   0.190   3.307
 2076HOH      O 6432   1.521   1.760   1.547
 2076HOH     H1 6433   1.596   1.776   1.604
 2076HOH     H2 6434   1.513   1.665   1.544
 2077HOH      O 6435   3.406   3.327   3.250
 2077HOH     H1 6436   3.478   3.386   3.273
 2077HOH     H2 6437   3.340   3.343   3.317
 2078HOH      O 6438   2.888   0.055   1.995
 2078HOH     H1 6439   2.895   0.019   2.083
 2078HOH     H2 6440   2.908   0.148   2.006
 2079HOH      O 6441   3.992   2.264   3.578
 2079HOH     H1 6442   4.033   2.348   3.557
 2079HOH     H2 6443   4.052   2.198   3.541
 2080HOH      O 6444   2.160   2.566   0.920
 2080HOH     H1 6445   2.165   2.496   0.985
 2080HOH     H2 6446   2.071   2.599   0.927
 2081HOH      O 6447   3.984   2.325   1.115
 2081HOH     H1 6448   3.941   2.355   1.196
 2081HOH     H2 6449   4.077   2.332   1.134
 2082HOH      O 6450   2.325   2.647   3.133
 2082HOH     H1 6451   2.246   2.625   3.183
 2082HOH     H2 6452   2.322   2.742   3.123
 2083HOH      O 6453   3.291   0.114   3.159
 2083HOH     H1 6454   3.258   0.085   3.244
 2083HOH     H2 6455   3.355   0.047   3.134
 2084HOH      O 6456   2.713   0.045   2.372
 2084HOH     H1 6457   2.684   0.077   2.457
 2084HOH     H2 6458   2.679  -0.044   2.367
 2085HOH      O 6459   2.317   0.709   2.816
 2085HOH     H1 6460   2.277   0.626   2.843
 2085HOH     H2 6461   2.327   0.700   2.721
 2086HOH      O 6462   3.742   3.731   0.833
 2086HOH     H1 6463   3.723   3.799   0.898
 2086HOH     H2 6464   3.680   3.749   0.762
 2087HOH      O 6465   3.510   2.497   1.380
 2087HOH     H1 6466   3.537   2.535   1.297
 2087HOH     H2 6467   3.425   2.456   1.362
 2088HOH      O 6468   2.397   3.539   2.046
 2088HOH     H1 6469   2.430   3.521   2.134
 2088HOH     H2 6470   2.460   3.498   1.988
 2089HOH      O 6471   1.865   1.302   0.795
 2089HOH     H1 6472   1.896   1.330   0.881
 2089HOH     H2 6473   1.772   1.284   0.807
 2090HOH      O 6474   1.837   3.987   1.993
 2090HOH     H1 6475   1.779   3.944   2.057
 2090HOH     H2 6476   1.798   3.967   1.908
 2091HOH      O 6477   0.035   2.481   2.677
 2091HOH     H1 6478  -0.060   2.488   2.665
 2091HOH     H2 6479   0.069   2.463   2.589
 2092HOH      O 6480   1.604   1.382   0.571
 2092HOH     H1 6481   1.655   1.325   0.514
 2092HOH     H2 6482   1.631   1.358   0.660
 2093HOH      O 6483   2.234   0.752   0.436
 2093HOH     H1 6484   2.297   0.752   0.363
 2093HOH     H2 6485   2.236   0.663   0.469
 2094HOH      O 6486   3.330   3.186   2.133
 2094HOH     H1 6487   3.239   3.215   2.140
 2094HOH     H2 6488   3.381   3.257   2.174
 2095HOH      O 6489   3.568   2.106   1.556
 2095HOH     H1 6490   3.641   2.092   1.616
 2095HOH     H2 6491   3.597   2.067   1.474
 2096HOH      O 6492   0.638   0.262   2.617
 2096HOH     H1 6493   0.701   0.223   2.677
 2096HOH     H2 6494   0.556   0.217   2.637
 2097HOH      O 6495   0.415   0.891   0.244
 2097HOH     H1 6496   0.453   0.962   0.297
 2097HOH     H2 6497   0.339   0.862   0.293
 2098HOH      O 6498   3.817   3.308   0.358
 2098HOH     H1 6499   3.805   3.319   0.264
 2098HOH     H2 6500   3.872   3.229   0.366
 2099HOH      O 6501   1.838   0.313   3.122
 2099HOH     H1 6502   1.902   0.377   3.093
 2099HOH     H2 6503   1.754   0.347   3.092
 2100HOH      O 6504   2.669   0.342   0.570
 2100HOH     H1 6505   2.663   0.320   0.663
 2100HOH     H2 6506   2.609   0.281   0.527
 2101HOH      O 6507  -0.001   3.581   1.460
 2101HOH     H1 6508   0.007   3.645   1.531
 2101HOH     H2 6509   0.034   3.500   1.497
 2102HOH      O 6510   1.597   2.669   0.342
 2102HOH     H1 6511   1.554   2.722   0.274
 2102HOH     H2 6512   1.536   2.597   0.358
 2103HOH      O 6513   2.921   2.747   0.513
 2103HOH     H1 6514   2.923   2.656   0.543
 2103HOH     H2 6515   2.897   2.797   0.591
 2104HOH      O 6516   2.947   3.791   0.211
 2104HOH     H1 6517   2.888   3.819   0.142
 2104HOH     H2 6518   3.027   3.764   0.165
 2105HOH      O 6519   2.477   3.878   3.343
 2105HOH     H1 6520   2.445   3.967   3.330
 2105HOH     H2 6521   2.441   3.852   3.428
 2106HOH      O 6522   1.905   0.940   0.669
 2106HOH     H1 6523   1.929   1.015   0.723
 2106HOH     H2 6524   1.982   0.883   0.671
 2107HOH      O 6525   1.829   0.558   2.503
 2107HOH     H1 6526   1.740   0.561   2.466
 2107HOH     H2 6527   1.824   0.490   2.570
 2108HOH      O 6528   0.604   2.610   2.858
 2108HOH     H1 6529   0.556   2.685   2.823
 2108HOH     H2 6530   0.539   2.560   2.907
 2109HOH      O 6531   1.624   3.863   3.783
 2109HOH     H1 6532   1.615   3.775   3.821
 2109HOH     H2 6533   1.693   3.853   3.718
   4.04076   4.04076   4.04076   0.00000   0.00000   0.00000   0.00000   0.00000   0.00000
