Generated with MDTraj, t= 18879.0
 6533
    1MOL     C1    1   1.904   1.120   2.806
    1MOL     C2    2   1.996   1.124   2.909
    1MOL     C3    3   1.977   1.197   3.025
    1MOL     C4    4   1.856   1.264   3.041
    1MOL     C5    5   1.758   1.250   2.944
    1MOL     C6    6   1.780   1.178   2.828
    1MOL     C7    7   1.821   1.346   3.163
    1MOL     C8    8   1.804   1.496   3.135
    1MOL     N1    9   1.769   1.585   3.251
    1MOL     C9   10   1.680   1.519   3.352
    1MOL    C10   11   1.701   1.710   3.202
    1MOL    C11   12   1.891   1.635   3.321
    1MOL     H1   13   1.732   1.433   3.394
    1MOL     H2   14   1.585   1.494   3.304
    1MOL     H3   15   1.662   1.585   3.437
    1MOL     H4   16   1.787   1.764   3.161
    1MOL     H5   17   1.658   1.765   3.286
    1MOL     H6   18   1.625   1.683   3.129
    1MOL     H7   19   1.958   1.675   3.245
    1MOL     H8   20   1.938   1.550   3.370
    1MOL     H9   21   1.859   1.711   3.393
    1MOL    H10   22   1.922   1.069   2.712
    1MOL    H11   23   2.082   1.060   2.889
    1MOL    H12   24   2.058   1.211   3.097
    1MOL    H13   25   1.663   1.303   2.956
    1MOL    H14   26   1.706   1.164   2.749
    1MOL    H15   27   1.744   1.294   3.219
    1MOL    H16   28   1.912   1.343   3.224
    1MOL    H17   29   1.891   1.535   3.082
    1MOL    H18   30   1.722   1.504   3.064
    2OCB     C1   31   0.388   0.497   2.918
    2OCB     C2   32   0.398   0.775   2.894
    2OCB     C3   33   0.329   0.561   2.811
    2OCB     C4   34   0.451   0.575   3.015
    2OCB     C5   35   0.461   0.713   3.000
    2OCB     C6   36   0.335   0.699   2.796
    2OCB     O1   37   0.435   0.907   2.879
    2OCB     C7   38   0.279   0.766   2.673
    2OCB     C8   39   0.534   0.936   2.779
    2OCB     O2   40   0.478   0.975   2.652
    2OCB     C9   41   0.468   0.881   2.552
    2OCB    C10   42   0.380   0.774   2.561
    2OCB    C11   43   0.384   0.680   2.459
    2OCB    C12   44   0.545   0.902   2.439
    2OCB    C13   45   0.474   0.685   2.354
    2OCB    C14   46   0.553   0.800   2.345
    2OCB     O3   47   0.648   0.816   2.248
    2OCB    C15   48   0.485   0.578   2.248
    2OCB    C16   49   0.590   0.475   2.287
    2OCB    C17   50   0.723   0.500   2.256
    2OCB    C18   51   0.768   0.738   2.260
    2OCB     O4   52   0.767   0.612   2.191
    2OCB     O5   53   0.534   0.522   3.111
    2OCB    C19   54   0.389   0.346   2.925
    2OCB    C20   55   0.509   0.289   2.853
    2OCB     O6   56   0.642   0.327   3.045
    2OCB    C21   57   0.632   0.279   2.917
    2OCB    C22   58   0.821   0.412   2.300
    2OCB    C23   59   0.783   0.310   2.387
    2OCB    C24   60   0.747   0.235   2.853
    2OCB    C25   61   0.739   0.197   2.720
    2OCB     O7   62   0.887   0.242   2.446
    2OCB     O8   63   0.860   0.167   2.662
    2OCB    C26   64   0.919   0.272   2.583
    2OCB    C27   65   0.509   0.257   2.718
    2OCB    C28   66   0.619   0.205   2.651
    2OCB    C29   67   0.554   0.366   2.364
    2OCB    C30   68   0.613   0.166   2.505
    2OCB    C31   69   0.651   0.282   2.416
    2OCB    C32   70   0.661   0.468   3.071
    2OCB    C33   71   0.350   0.513   2.215
    2OCB    C34   72   0.368   0.407   2.106
    2OCB    C35   73   0.237   0.367   2.041
    2OCB     O9   74   0.194   0.424   1.943
    2OCB    C36   75   0.141   0.708   2.639
    2OCB    C37   76   0.063   0.801   2.544
    2OCB    C38   77  -0.086   0.778   2.541
    2OCB    O10   78  -0.129   0.684   2.478
    2OCB    C39   79   0.257   0.272   2.898
    2OCB    C40   80   0.263   0.119   2.919
    2OCB    C41   81   0.311   0.071   3.053
    2OCB    O11   82   0.396  -0.016   3.051
    2OCB    C42   83   0.482   0.098   2.463
    2OCB    C43   84   0.502   0.037   2.324
    2OCB    C44   85   0.410  -0.081   2.304
    2OCB    O12   86   0.449  -0.193   2.331
    2OCB    C45   87   0.636   1.038   2.823
    2OCB    C46   88   0.837   1.200   2.913
    2OCB    C47   89   0.699   1.123   2.734
    2OCB    C48   90   0.668   1.033   2.958
    2OCB    C49   91   0.770   1.117   3.001
    2OCB    C50   92   0.800   1.206   2.780
    2OCB    C51   93   0.761   0.501   3.180
    2OCB    C52   94   0.957   0.556   3.371
    2OCB    C53   95   0.879   0.429   3.185
    2OCB    C54   96   0.748   0.613   3.261
    2OCB    C55   97   0.844   0.635   3.359
    2OCB    C56   98   0.977   0.453   3.280
    2OCB    C57   99   1.067   0.300   2.597
    2OCB    C58  100   1.341   0.360   2.632
    2OCB    C59  101   1.148   0.334   2.489
    2OCB    C60  102   1.128   0.293   2.721
    2OCB    C61  103   1.264   0.312   2.738
    2OCB    C62  104   1.282   0.364   2.507
    2OCB    C63  105   0.886   0.817   2.207
    2OCB    C64  106   1.123   0.960   2.162
    2OCB    C65  107   0.997   0.752   2.155
    2OCB    C66  108   0.901   0.950   2.245
    2OCB    C67  109   1.017   1.022   2.226
    2OCB    C68  110   1.115   0.823   2.139
    2OCB    O13  111   0.836   0.748   3.437
    2OCB    O14  112   1.318   0.327   2.863
    2OCB    O15  113   1.358   0.411   2.402
    2OCB    O16  114   0.813   1.117   3.131
    2OCB    O17  115   0.882   1.281   2.699
    2OCB    O18  116   1.239   0.771   2.112
    2OCB    O19  117   1.030   1.154   2.264
    2OCB    C69  118   1.262   0.276   2.977
    2OCB    C70  119   1.132   0.158   3.187
    2OCB    C71  120   1.220   0.355   3.083
    2OCB    C72  121   1.253   0.138   2.984
    2OCB    C73  122   1.182   0.078   3.086
    2OCB    C74  123   1.140   0.296   3.180
    2OCB    O20  124   1.088   0.372   3.282
    2OCB    C75  125   0.762   1.046   3.237
    2OCB    C76  126   0.647   0.893   3.437
    2OCB    C77  127   0.636   1.076   3.285
    2OCB    C78  128   0.831   0.937   3.289
    2OCB    C79  129   0.775   0.863   3.393
    2OCB    C80  130   0.579   1.004   3.389
    2OCB    C81  131   1.310   0.456   2.281
    2OCB    C82  132   1.286   0.558   2.022
    2OCB    C83  133   1.324   0.377   2.169
    2OCB    C84  134   1.286   0.591   2.263
    2OCB    C85  135   1.275   0.640   2.133
    2OCB    C86  136   1.307   0.422   2.039
    2OCB    C87  137   1.323   0.328   1.924
    2OCB    O21  138   1.334   0.210   1.951
    2OCB    C88  139   0.666   1.474   2.313
    2OCB    O22  140   0.660   1.486   2.193
    2OCB    C89  141   0.458   1.049   3.463
    2OCB    O23  142   0.427   1.005   3.572
    2OCB    O24  143   0.183   0.260   2.059
    2OCB    O25  144   0.297  -0.057   2.269
    2OCB    O26  145   0.255   0.115   3.152
    2OCB    C90  146   1.166  -0.070   3.098
    2OCB    O27  147   1.113  -0.114   3.198
    2OCB    O28  148   0.577   1.518   2.383
    2OCB    O29  149   1.298   0.357   1.809
    2OCB    O30  150   1.220  -0.147   3.021
    2OCB    O31  151   0.391   1.139   3.417
    2OCB    O32  152  -0.158   0.861   2.593
    2OCB    C91  153   0.866   1.282   2.563
    2OCB    C92  154   0.842   1.293   2.288
    2OCB    C93  155   0.956   1.210   2.486
    2OCB    C94  156   0.763   1.355   2.505
    2OCB    C95  157   0.757   1.370   2.367
    2OCB    C96  158   0.941   1.216   2.348
    2OCB    C97  159   1.056   1.115   2.547
    2OCB    C98  160   0.972   0.919   3.237
    2OCB    C99  161   1.258   0.501   3.095
    2OCB      C  162   1.268   0.683   2.382
    2OCB     H1  163   0.282   0.507   2.729
    2OCB     H2  164   0.522   0.771   3.069
    2OCB     H3  165   0.251   0.865   2.710
    2OCB     H4  166   0.583   0.838   2.767
    2OCB     H5  167   0.322   0.591   2.461
    2OCB     H6  168   0.611   0.988   2.438
    2OCB     H7  169   0.516   0.629   2.156
    2OCB     H8  170   0.781   0.715   2.367
    2OCB     H9  171   0.412   0.327   3.030
    2OCB    H10  172   0.924   0.432   2.273
    2OCB    H11  173   0.842   0.247   2.904
    2OCB    H12  174   0.870   0.366   2.613
    2OCB    H13  175   0.413   0.261   2.667
    2OCB    H14  176   0.450   0.344   2.386
    2OCB    H15  177   0.695   0.095   2.493
    2OCB    H16  178   0.691   0.507   2.974
    2OCB    H17  179   0.312   0.465   2.305
    2OCB    H18  180   0.287   0.596   2.181
    2OCB    H19  181   0.433   0.450   2.030
    2OCB    H20  182   0.420   0.317   2.139
    2OCB    H21  183   0.089   0.701   2.735
    2OCB    H22  184   0.145   0.609   2.593
    2OCB    H23  185   0.079   0.906   2.568
    2OCB    H24  186   0.100   0.779   2.444
    2OCB    H25  187   0.178   0.304   2.967
    2OCB    H26  188   0.218   0.301   2.801
    2OCB    H27  189   0.162   0.082   2.901
    2OCB    H28  190   0.321   0.077   2.836
    2OCB    H29  191   0.467   0.014   2.531
    2OCB    H30  192   0.397   0.167   2.474
    2OCB    H31  193   0.500   0.110   2.244
    2OCB    H32  194   0.605  -0.001   2.316
    2OCB    H33  195   0.916   1.267   2.947
    2OCB    H34  196   0.663   1.120   2.631
    2OCB    H35  197   0.616   0.968   3.029
    2OCB    H36  198   1.033   0.592   3.440
    2OCB    H37  199   0.890   0.346   3.116
    2OCB    H38  200   0.668   0.687   3.256
    2OCB    H39  201   1.444   0.392   2.642
    2OCB    H40  202   1.102   0.350   2.392
    2OCB    H41  203   1.061   0.267   2.803
    2OCB    H42  204   1.215   1.015   2.144
    2OCB    H43  205   0.998   0.644   2.142
    2OCB    H44  206   0.814   0.995   2.294
    2OCB    H45  207   1.080   0.116   3.274
    2OCB    H46  208   1.294   0.079   2.901
    2OCB    H47  209   0.601   0.833   3.515
    2OCB    H48  210   0.591   1.168   3.249
    2OCB    H49  211   1.266   0.597   1.922
    2OCB    H50  212   1.336   0.269   2.181
    2OCB    H51  213   0.837   1.301   2.180
    2OCB    H52  214   0.698   1.416   2.567
    2OCB    H53  215   1.021   1.011   2.546
    2OCB    H54  216   1.150   1.117   2.491
    2OCB    H55  217   1.082   1.148   2.647
    2OCB    H56  218   0.967   0.909   3.129
    2OCB    H57  219   1.029   1.011   3.252
    2OCB    H58  220   1.024   0.833   3.280
    2OCB    H59  221   1.290   0.531   3.195
    2OCB    H60  222   1.347   0.519   3.034
    2OCB    H61  223   1.175   0.566   3.067
    2OCB    H62  224   1.312   0.780   2.359
    2OCB    H63  225   1.167   0.699   2.419
    2OCB    H64  226   1.333   0.654   2.465
    3Na+    Na+  227   4.021   0.180   2.125
    4Na+    Na+  228   0.197   0.490   0.012
    5Na+    Na+  229   2.642   0.495   2.294
    6Na+    Na+  230   0.173   0.195   1.836
    7Na+    Na+  231   0.727   3.784   3.447
    8Na+    Na+  232   2.857   0.149   3.235
    9Na+    Na+  233   1.083   3.561   2.157
   10HOH      O  234   1.735   0.136   1.584
   10HOH     H1  235   1.696   0.139   1.671
   10HOH     H2  236   1.700   0.213   1.539
   11HOH      O  237   0.371   0.591   1.819
   11HOH     H1  238   0.358   0.677   1.860
   11HOH     H2  239   0.296   0.539   1.848
   12HOH      O  240   1.691   2.011   2.974
   12HOH     H1  241   1.674   2.096   3.015
   12HOH     H2  242   1.607   1.965   2.977
   13HOH      O  243   3.527   0.262   1.488
   13HOH     H1  244   3.512   0.242   1.396
   13HOH     H2  245   3.622   0.271   1.495
   14HOH      O  246   1.394   1.445   3.619
   14HOH     H1  247   1.450   1.508   3.574
   14HOH     H2  248   1.435   1.360   3.603
   15HOH      O  249   3.428   1.882   1.784
   15HOH     H1  250   3.420   1.958   1.727
   15HOH     H2  251   3.364   1.820   1.751
   16HOH      O  252   1.686   0.839   0.588
   16HOH     H1  253   1.614   0.788   0.627
   16HOH     H2  254   1.760   0.779   0.587
   17HOH      O  255   2.028   2.371   3.973
   17HOH     H1  256   1.995   2.460   3.981
   17HOH     H2  257   2.063   2.350   4.060
   18HOH      O  258   0.893   0.510   1.539
   18HOH     H1  259   0.966   0.565   1.513
   18HOH     H2  260   0.875   0.536   1.630
   19HOH      O  261   3.450   3.923   1.243
   19HOH     H1  262   3.543   3.933   1.262
   19HOH     H2  263   3.426   4.003   1.197
   20HOH      O  264   0.001   2.147   2.239
   20HOH     H1  265   0.039   2.141   2.151
   20HOH     H2  266  -0.091   2.168   2.224
   21HOH      O  267   2.626   1.424   1.887
   21HOH     H1  268   2.688   1.479   1.839
   21HOH     H2  269   2.550   1.419   1.829
   22HOH      O  270   3.047   2.702   3.999
   22HOH     H1  271   3.074   2.782   4.046
   22HOH     H2  272   3.097   2.632   4.042
   23HOH      O  273   2.253   0.661   3.936
   23HOH     H1  274   2.291   0.636   4.020
   23HOH     H2  275   2.160   0.673   3.954
   24HOH      O  276   3.065   1.998   2.956
   24HOH     H1  277   3.019   1.928   3.001
   24HOH     H2  278   3.145   1.956   2.923
   25HOH      O  279   2.428   2.016   3.770
   25HOH     H1  280   2.333   2.000   3.776
   25HOH     H2  281   2.455   1.974   3.689
   26HOH      O  282   2.368   2.158   0.755
   26HOH     H1  283   2.436   2.174   0.821
   26HOH     H2  284   2.295   2.123   0.805
   27HOH      O  285   1.087   0.192   0.034
   27HOH     H1  286   1.113   0.273  -0.011
   27HOH     H2  287   1.154   0.128   0.008
   28HOH      O  288   2.460   3.780   3.743
   28HOH     H1  289   2.546   3.739   3.750
   28HOH     H2  290   2.479   3.873   3.732
   29HOH      O  291   2.497   3.503   0.249
   29HOH     H1  292   2.492   3.535   0.339
   29HOH     H2  293   2.407   3.505   0.217
   30HOH      O  294   1.904   3.592   1.606
   30HOH     H1  295   1.848   3.551   1.671
   30HOH     H2  296   1.848   3.601   1.529
   31HOH      O  297   3.652   1.504   1.110
   31HOH     H1  298   3.731   1.528   1.159
   31HOH     H2  299   3.620   1.586   1.074
   32HOH      O  300   1.509   3.432   1.780
   32HOH     H1  301   1.470   3.357   1.735
   32HOH     H2  302   1.480   3.423   1.871
   33HOH      O  303   1.532   2.004   1.602
   33HOH     H1  304   1.463   1.944   1.630
   33HOH     H2  305   1.532   1.999   1.507
   34HOH      O  306   2.736   3.863   0.256
   34HOH     H1  307   2.781   3.778   0.259
   34HOH     H2  308   2.729   3.888   0.348
   35HOH      O  309   1.864   3.416   2.209
   35HOH     H1  310   1.872   3.482   2.140
   35HOH     H2  311   1.889   3.462   2.289
   36HOH      O  312   2.870   2.503   2.464
   36HOH     H1  313   2.811   2.430   2.444
   36HOH     H2  314   2.913   2.477   2.545
   37HOH      O  315   3.608   1.636   3.986
   37HOH     H1  316   3.610   1.615   3.893
   37HOH     H2  317   3.517   1.662   4.003
   38HOH      O  318   2.841   3.955   3.851
   38HOH     H1  319   2.820   4.008   3.774
   38HOH     H2  320   2.918   3.997   3.888
   39HOH      O  321   0.424   1.180   1.828
   39HOH     H1  322   0.484   1.228   1.885
   39HOH     H2  323   0.337   1.214   1.850
   40HOH      O  324   2.008   1.875   2.591
   40HOH     H1  325   1.986   1.895   2.682
   40HOH     H2  326   1.935   1.822   2.560
   41HOH      O  327   1.785   2.409   0.887
   41HOH     H1  328   1.880   2.418   0.891
   41HOH     H2  329   1.753   2.499   0.888
   42HOH      O  330   2.907   1.469   3.746
   42HOH     H1  331   2.887   1.376   3.756
   42HOH     H2  332   2.944   1.475   3.657
   43HOH      O  333   3.234   0.349   1.671
   43HOH     H1  334   3.239   0.369   1.578
   43HOH     H2  335   3.297   0.279   1.685
   44HOH      O  336   1.442   3.885   3.517
   44HOH     H1  337   1.508   3.924   3.460
   44HOH     H2  338   1.361   3.887   3.466
   45HOH      O  339   0.577   2.124   0.604
   45HOH     H1  340   0.654   2.068   0.591
   45HOH     H2  341   0.591   2.165   0.689
   46HOH      O  342   1.084   3.643   3.140
   46HOH     H1  343   1.125   3.669   3.057
   46HOH     H2  344   1.093   3.721   3.196
   47HOH      O  345   3.427   2.287   3.440
   47HOH     H1  346   3.387   2.307   3.525
   47HOH     H2  347   3.518   2.267   3.461
   48HOH      O  348   2.963   2.536   0.680
   48HOH     H1  349   2.944   2.477   0.754
   48HOH     H2  350   2.937   2.486   0.603
   49HOH      O  351   0.547   2.589   0.744
   49HOH     H1  352   0.599   2.588   0.824
   49HOH     H2  353   0.600   2.542   0.680
   50HOH      O  354   1.797   3.200   1.538
   50HOH     H1  355   1.823   3.132   1.475
   50HOH     H2  356   1.732   3.252   1.491
   51HOH      O  357   0.410   0.234   0.725
   51HOH     H1  358   0.398   0.149   0.684
   51HOH     H2  359   0.494   0.227   0.770
   52HOH      O  360   1.789   1.701   0.983
   52HOH     H1  361   1.762   1.793   0.975
   52HOH     H2  362   1.762   1.676   1.072
   53HOH      O  363   1.937   2.841   0.117
   53HOH     H1  364   2.029   2.856   0.140
   53HOH     H2  365   1.914   2.915   0.061
   54HOH      O  366   2.079   2.718   2.516
   54HOH     H1  367   2.113   2.782   2.580
   54HOH     H2  368   2.002   2.760   2.479
   55HOH      O  369   3.747   2.714   0.843
   55HOH     H1  370   3.827   2.743   0.887
   55HOH     H2  371   3.770   2.714   0.750
   56HOH      O  372   0.389   0.551   1.352
   56HOH     H1  373   0.467   0.507   1.319
   56HOH     H2  374   0.422   0.623   1.406
   57HOH      O  375   2.236   3.503   0.173
   57HOH     H1  376   2.162   3.444   0.159
   57HOH     H2  377   2.202   3.589   0.151
   58HOH      O  378   0.185   0.257   4.006
   58HOH     H1  379   0.163   0.257   3.913
   58HOH     H2  380   0.218   0.169   4.022
   59HOH      O  381   2.152   0.747   1.811
   59HOH     H1  382   2.103   0.708   1.882
   59HOH     H2  383   2.111   0.833   1.798
   60HOH      O  384   2.922   4.032   3.081
   60HOH     H1  385   2.967   4.026   2.996
   60HOH     H2  386   2.917   3.942   3.112
   61HOH      O  387   3.125   2.871   1.659
   61HOH     H1  388   3.038   2.909   1.669
   61HOH     H2  389   3.183   2.933   1.704
   62HOH      O  390   3.857   1.080   2.429
   62HOH     H1  391   3.895   1.146   2.486
   62HOH     H2  392   3.866   0.998   2.477
   63HOH      O  393   2.999   0.505   2.021
   63HOH     H1  394   3.091   0.528   2.008
   63HOH     H2  395   2.980   0.440   1.953
   64HOH      O  396   1.605   3.906   1.907
   64HOH     H1  397   1.599   3.994   1.871
   64HOH     H2  398   1.514   3.878   1.918
   65HOH      O  399   3.626   2.552   1.635
   65HOH     H1  400   3.707   2.502   1.648
   65HOH     H2  401   3.623   2.612   1.709
   66HOH      O  402   2.504   3.784   0.939
   66HOH     H1  403   2.569   3.749   1.000
   66HOH     H2  404   2.423   3.786   0.989
   67HOH      O  405   0.908   0.885   3.900
   67HOH     H1  406   0.981   0.848   3.949
   67HOH     H2  407   0.830   0.863   3.951
   68HOH      O  408   2.032   0.737   0.311
   68HOH     H1  409   2.009   0.805   0.374
   68HOH     H2  410   2.106   0.691   0.351
   69HOH      O  411   3.907   2.902   3.778
   69HOH     H1  412   3.959   2.937   3.850
   69HOH     H2  413   3.929   2.958   3.703
   70HOH      O  414   1.984   3.035   2.383
   70HOH     H1  415   1.997   3.104   2.448
   70HOH     H2  416   2.068   3.029   2.338
   71HOH      O  417   3.801   3.080   3.345
   71HOH     H1  418   3.860   3.047   3.413
   71HOH     H2  419   3.855   3.083   3.266
   72HOH      O  420   3.403   1.013   1.157
   72HOH     H1  421   3.426   1.104   1.139
   72HOH     H2  422   3.308   1.009   1.144
   73HOH      O  423   0.456   2.714   0.088
   73HOH     H1  424   0.533   2.771   0.082
   73HOH     H2  425   0.445   2.680  -0.001
   74HOH      O  426   1.347   2.619   1.768
   74HOH     H1  427   1.353   2.698   1.822
   74HOH     H2  428   1.293   2.645   1.694
   75HOH      O  429   3.416   3.769   2.653
   75HOH     H1  430   3.444   3.688   2.609
   75HOH     H2  431   3.498   3.813   2.676
   76HOH      O  432   3.642   3.146   2.986
   76HOH     H1  433   3.645   3.145   2.890
   76HOH     H2  434   3.628   3.238   3.009
   77HOH      O  435   2.092   3.536   2.975
   77HOH     H1  436   2.030   3.511   3.043
   77HOH     H2  437   2.037   3.568   2.903
   78HOH      O  438   3.339   2.527   2.155
   78HOH     H1  439   3.418   2.516   2.101
   78HOH     H2  440   3.352   2.611   2.199
   79HOH      O  441   0.116   0.743   3.136
   79HOH     H1  442   0.085   0.791   3.059
   79HOH     H2  443   0.210   0.765   3.141
   80HOH      O  444   2.083   2.351   0.966
   80HOH     H1  445   2.143   2.402   1.020
   80HOH     H2  446   2.071   2.270   1.015
   81HOH      O  447   3.215   1.831   0.551
   81HOH     H1  448   3.243   1.881   0.474
   81HOH     H2  449   3.191   1.898   0.615
   82HOH      O  450   2.966   1.495   4.031
   82HOH     H1  451   3.014   1.526   3.954
   82HOH     H2  452   3.004   1.409   4.049
   83HOH      O  453   1.782   3.429   1.779
   83HOH     H1  454   1.689   3.408   1.770
   83HOH     H2  455   1.822   3.348   1.810
   84HOH      O  456   0.897   1.019   1.774
   84HOH     H1  457   0.849   1.062   1.703
   84HOH     H2  458   0.832   1.008   1.843
   85HOH      O  459   1.116   3.789   2.776
   85HOH     H1  460   1.128   3.866   2.721
   85HOH     H2  461   1.145   3.818   2.863
   86HOH      O  462   1.867   2.818   3.537
   86HOH     H1  463   1.913   2.823   3.453
   86HOH     H2  464   1.775   2.831   3.515
   87HOH      O  465   2.051   0.380   2.472
   87HOH     H1  466   2.004   0.302   2.502
   87HOH     H2  467   2.097   0.352   2.393
   88HOH      O  468   1.316   0.722   1.300
   88HOH     H1  469   1.405   0.689   1.308
   88HOH     H2  470   1.273   0.660   1.240
   89HOH      O  471   1.305   3.530   3.790
   89HOH     H1  472   1.353   3.476   3.727
   89HOH     H2  473   1.215   3.533   3.755
   90HOH      O  474   0.927   3.422   1.767
   90HOH     H1  475   0.861   3.388   1.707
   90HOH     H2  476   0.982   3.346   1.787
   91HOH      O  477   3.020   2.445   2.691
   91HOH     H1  478   3.106   2.408   2.708
   91HOH     H2  479   2.994   2.484   2.775
   92HOH      O  480   3.403   1.844   1.357
   92HOH     H1  481   3.331   1.864   1.297
   92HOH     H2  482   3.396   1.911   1.425
   93HOH      O  483   2.435   1.626   0.770
   93HOH     H1  484   2.423   1.637   0.676
   93HOH     H2  485   2.431   1.531   0.784
   94HOH      O  486   3.007   3.414   4.015
   94HOH     H1  487   2.989   3.480   3.948
   94HOH     H2  488   3.101   3.395   4.005
   95HOH      O  489   0.273   3.111   0.079
   95HOH     H1  490   0.332   3.073   0.144
   95HOH     H2  491   0.326   3.115  -0.001
   96HOH      O  492   0.076   1.264   3.187
   96HOH     H1  493   0.155   1.297   3.230
   96HOH     H2  494   0.101   1.253   3.095
   97HOH      O  495   3.961   0.097   2.526
   97HOH     H1  496   4.041   0.109   2.475
   97HOH     H2  497   3.970   0.157   2.600
   98HOH      O  498   1.641   1.936   0.999
   98HOH     H1  499   1.664   1.999   1.067
   98HOH     H2  500   1.552   1.908   1.021
   99HOH      O  501   1.119   0.419   0.292
   99HOH     H1  502   1.045   0.404   0.234
   99HOH     H2  503   1.117   0.345   0.353
  100HOH      O  504   3.286   3.571   1.652
  100HOH     H1  505   3.338   3.506   1.604
  100HOH     H2  506   3.205   3.524   1.674
  101HOH      O  507   1.683   3.640   1.072
  101HOH     H1  508   1.678   3.717   1.128
  101HOH     H2  509   1.767   3.647   1.028
  102HOH      O  510   0.515   3.512   0.004
  102HOH     H1  511   0.606   3.531   0.028
  102HOH     H2  512   0.497   3.427   0.044
  103HOH      O  513   1.839   3.173   1.831
  103HOH     H1  514   1.806   3.175   1.742
  103HOH     H2  515   1.891   3.093   1.836
  104HOH      O  516   0.249   2.850   2.969
  104HOH     H1  517   0.213   2.771   3.007
  104HOH     H2  518   0.335   2.859   3.010
  105HOH      O  519   2.392   2.728   1.104
  105HOH     H1  520   2.446   2.804   1.124
  105HOH     H2  521   2.312   2.741   1.155
  106HOH      O  522   0.254   1.268   1.165
  106HOH     H1  523   0.225   1.178   1.151
  106HOH     H2  524   0.340   1.260   1.206
  107HOH      O  525   1.124   2.528   0.448
  107HOH     H1  526   1.183   2.575   0.507
  107HOH     H2  527   1.181   2.480   0.389
  108HOH      O  528   0.406   2.839   0.776
  108HOH     H1  529   0.464   2.771   0.742
  108HOH     H2  530   0.427   2.916   0.723
  109HOH      O  531   3.246   3.822   2.456
  109HOH     H1  532   3.276   3.892   2.398
  109HOH     H2  533   3.293   3.837   2.538
  110HOH      O  534   0.800   3.285   0.815
  110HOH     H1  535   0.878   3.290   0.760
  110HOH     H2  536   0.749   3.363   0.791
  111HOH      O  537   2.113   0.461   1.750
  111HOH     H1  538   2.136   0.494   1.837
  111HOH     H2  539   2.119   0.366   1.758
  112HOH      O  540   2.523   1.631   3.597
  112HOH     H1  541   2.560   1.577   3.527
  112HOH     H2  542   2.568   1.601   3.676
  113HOH      O  543   2.970   0.260   0.394
  113HOH     H1  544   2.934   0.182   0.352
  113HOH     H2  545   2.894   0.305   0.431
  114HOH      O  546   2.524   3.039   0.187
  114HOH     H1  547   2.598   2.996   0.230
  114HOH     H2  548   2.538   3.022   0.093
  115HOH      O  549   2.838   1.197   3.807
  115HOH     H1  550   2.763   1.204   3.865
  115HOH     H2  551   2.819   1.120   3.753
  116HOH      O  552   0.167   3.137   1.169
  116HOH     H1  553   0.244   3.157   1.116
  116HOH     H2  554   0.099   3.197   1.137
  117HOH      O  555   0.645   3.375   2.347
  117HOH     H1  556   0.632   3.396   2.439
  117HOH     H2  557   0.698   3.296   2.347
  118HOH      O  558   3.644   2.344   1.231
  118HOH     H1  559   3.697   2.397   1.289
  118HOH     H2  560   3.649   2.389   1.146
  119HOH      O  561   3.675   1.245   1.626
  119HOH     H1  562   3.687   1.201   1.542
  119HOH     H2  563   3.697   1.337   1.609
  120HOH      O  564   2.448   1.406   0.522
  120HOH     H1  565   2.353   1.408   0.536
  120HOH     H2  566   2.484   1.386   0.608
  121HOH      O  567   2.961   0.513   2.901
  121HOH     H1  568   2.963   0.540   2.809
  121HOH     H2  569   3.011   0.580   2.947
  122HOH      O  570   0.145   2.909   1.310
  122HOH     H1  571   0.161   2.986   1.256
  122HOH     H2  572   0.230   2.865   1.315
  123HOH      O  573   1.508   1.764   2.203
  123HOH     H1  574   1.567   1.710   2.150
  123HOH     H2  575   1.460   1.817   2.139
  124HOH      O  576   0.282   0.257   1.163
  124HOH     H1  577   0.254   0.173   1.126
  124HOH     H2  578   0.354   0.286   1.106
  125HOH      O  579   0.542   1.801   3.725
  125HOH     H1  580   0.488   1.745   3.669
  125HOH     H2  581   0.595   1.739   3.776
  126HOH      O  582   2.011   0.663   0.043
  126HOH     H1  583   2.039   0.708   0.122
  126HOH     H2  584   1.967   0.731  -0.009
  127HOH      O  585   3.614   2.385   2.820
  127HOH     H1  586   3.564   2.304   2.822
  127HOH     H2  587   3.586   2.433   2.898
  128HOH      O  588   2.670   2.663   1.017
  128HOH     H1  589   2.665   2.567   1.012
  128HOH     H2  590   2.581   2.690   1.040
  129HOH      O  591   2.962   1.219   0.632
  129HOH     H1  592   2.883   1.236   0.580
  129HOH     H2  593   3.007   1.148   0.586
  130HOH      O  594   3.737   1.103   1.853
  130HOH     H1  595   3.714   1.131   1.764
  130HOH     H2  596   3.758   1.184   1.899
  131HOH      O  597   2.634   1.447   2.150
  131HOH     H1  598   2.589   1.528   2.175
  131HOH     H2  599   2.616   1.438   2.056
  132HOH      O  600   2.296   3.841   1.149
  132HOH     H1  601   2.218   3.804   1.109
  132HOH     H2  602   2.314   3.784   1.224
  133HOH      O  603   1.216   2.733   1.537
  133HOH     H1  604   1.121   2.726   1.534
  133HOH     H2  605   1.238   2.795   1.467
  134HOH      O  606   2.612   2.803   2.332
  134HOH     H1  607   2.567   2.724   2.363
  134HOH     H2  608   2.697   2.800   2.378
  135HOH      O  609   3.066   1.463   2.423
  135HOH     H1  610   3.152   1.430   2.396
  135HOH     H2  611   3.009   1.443   2.349
  136HOH      O  612   2.356   0.434   2.552
  136HOH     H1  613   2.403   0.500   2.500
  136HOH     H2  614   2.425   0.392   2.604
  137HOH      O  615   1.825   0.201   2.554
  137HOH     H1  616   1.786   0.243   2.477
  137HOH     H2  617   1.760   0.213   2.623
  138HOH      O  618   1.203   2.887   2.112
  138HOH     H1  619   1.191   2.889   2.017
  138HOH     H2  620   1.181   2.796   2.136
  139HOH      O  621   2.284   1.209   2.180
  139HOH     H1  622   2.261   1.301   2.198
  139HOH     H2  623   2.302   1.172   2.266
  140HOH      O  624   2.251   1.190   0.423
  140HOH     H1  625   2.327   1.244   0.444
  140HOH     H2  626   2.257   1.116   0.483
  141HOH      O  627   3.176   0.154   1.279
  141HOH     H1  628   3.153   0.062   1.276
  141HOH     H2  629   3.186   0.180   1.188
  142HOH      O  630   2.734   3.692   1.048
  142HOH     H1  631   2.738   3.668   1.141
  142HOH     H2  632   2.813   3.654   1.010
  143HOH      O  633   2.936   2.057   3.263
  143HOH     H1  634   2.918   2.108   3.184
  143HOH     H2  635   2.975   2.120   3.324
  144HOH      O  636   0.026   3.251   3.374
  144HOH     H1  637   0.009   3.267   3.466
  144HOH     H2  638   0.037   3.338   3.336
  145HOH      O  639   0.846   2.825   3.715
  145HOH     H1  640   0.767   2.792   3.671
  145HOH     H2  641   0.852   2.774   3.796
  146HOH      O  642   3.909   0.586   2.820
  146HOH     H1  643   3.914   0.682   2.821
  146HOH     H2  644   3.986   0.558   2.870
  147HOH      O  645   0.952   1.671   2.191
  147HOH     H1  646   0.998   1.588   2.196
  147HOH     H2  647   0.918   1.675   2.102
  148HOH      O  648   2.030   0.801   2.723
  148HOH     H1  649   1.980   0.723   2.701
  148HOH     H2  650   2.022   0.808   2.818
  149HOH      O  651   1.607   3.495   0.057
  149HOH     H1  652   1.696   3.521   0.081
  149HOH     H2  653   1.616   3.405   0.025
  150HOH      O  654   0.652   3.715   0.906
  150HOH     H1  655   0.676   3.807   0.894
  150HOH     H2  656   0.706   3.686   0.980
  151HOH      O  657   3.158   2.806   3.015
  151HOH     H1  658   3.173   2.834   3.105
  151HOH     H2  659   3.226   2.851   2.965
  152HOH      O  660   3.062   2.772   2.713
  152HOH     H1  661   3.071   2.818   2.796
  152HOH     H2  662   3.066   2.679   2.737
  153HOH      O  663   0.765   2.893   2.120
  153HOH     H1  664   0.680   2.899   2.164
  153HOH     H2  665   0.789   2.801   2.128
  154HOH      O  666   2.773   1.319   1.079
  154HOH     H1  667   2.815   1.280   1.156
  154HOH     H2  668   2.783   1.254   1.011
  155HOH      O  669   1.879   2.567   1.279
  155HOH     H1  670   1.915   2.481   1.258
  155HOH     H2  671   1.784   2.554   1.280
  156HOH      O  672   3.757   1.331   2.556
  156HOH     H1  673   3.776   1.414   2.600
  156HOH     H2  674   3.723   1.357   2.471
  157HOH      O  675   0.006   0.566   0.584
  157HOH     H1  676   0.077   0.507   0.560
  157HOH     H2  677   0.048   0.639   0.630
  158HOH      O  678   3.632   0.057   2.521
  158HOH     H1  679   3.554   0.080   2.572
  158HOH     H2  680   3.600   0.047   2.432
  159HOH      O  681   3.370   2.064   1.530
  159HOH     H1  682   3.278   2.052   1.554
  159HOH     H2  683   3.387   2.157   1.544
  160HOH      O  684   3.960   0.810   0.111
  160HOH     H1  685   3.933   0.750   0.181
  160HOH     H2  686   4.056   0.805   0.111
  161HOH      O  687   1.044   0.717   0.814
  161HOH     H1  688   1.086   0.789   0.767
  161HOH     H2  689   1.019   0.655   0.745
  162HOH      O  690   1.501   0.825   3.918
  162HOH     H1  691   1.555   0.794   3.990
  162HOH     H2  692   1.564   0.855   3.852
  163HOH      O  693   2.234   1.937   3.241
  163HOH     H1  694   2.219   2.017   3.292
  163HOH     H2  695   2.212   1.963   3.151
  164HOH      O  696   0.777   1.217   1.085
  164HOH     H1  697   0.772   1.136   1.035
  164HOH     H2  698   0.758   1.286   1.022
  165HOH      O  699   3.697   0.594   2.636
  165HOH     H1  700   3.760   0.636   2.577
  165HOH     H2  701   3.743   0.586   2.719
  166HOH      O  702   0.475   2.061   3.765
  166HOH     H1  703   0.483   1.966   3.752
  166HOH     H2  704   0.487   2.073   3.859
  167HOH      O  705   0.833   3.137   2.035
  167HOH     H1  706   0.833   3.075   2.107
  167HOH     H2  707   0.925   3.158   2.021
  168HOH      O  708   2.405   3.369   4.001
  168HOH     H1  709   2.414   3.385   4.095
  168HOH     H2  710   2.375   3.453   3.966
  169HOH      O  711   4.014   1.454   2.385
  169HOH     H1  712   3.931   1.492   2.415
  169HOH     H2  713   3.987   1.387   2.322
  170HOH      O  714   3.562   0.997   3.465
  170HOH     H1  715   3.658   0.991   3.466
  170HOH     H2  716   3.543   1.080   3.509
  171HOH      O  717   3.091   3.424   3.716
  171HOH     H1  718   3.034   3.405   3.641
  171HOH     H2  719   3.063   3.511   3.745
  172HOH      O  720   0.044   1.567   3.381
  172HOH     H1  721  -0.039   1.535   3.345
  172HOH     H2  722   0.084   1.616   3.308
  173HOH      O  723   2.081   3.907   2.424
  173HOH     H1  724   1.999   3.896   2.376
  173HOH     H2  725   2.058   3.965   2.497
  174HOH      O  726   0.566   1.716   2.092
  174HOH     H1  727   0.477   1.715   2.128
  174HOH     H2  728   0.613   1.648   2.140
  175HOH      O  729   0.741   0.525   3.764
  175HOH     H1  730   0.754   0.597   3.826
  175HOH     H2  731   0.828   0.510   3.727
  176HOH      O  732   0.464   1.555   3.271
  176HOH     H1  733   0.446   1.643   3.238
  176HOH     H2  734   0.541   1.565   3.326
  177HOH      O  735   2.388   4.029   3.985
  177HOH     H1  736   2.463   4.013   4.043
  177HOH     H2  737   2.348   4.109   4.020
  178HOH      O  738   2.012   1.428   1.963
  178HOH     H1  739   2.097   1.454   2.000
  178HOH     H2  740   1.952   1.432   2.038
  179HOH      O  741   3.672   2.308   0.682
  179HOH     H1  742   3.705   2.384   0.635
  179HOH     H2  743   3.731   2.299   0.757
  180HOH      O  744   0.240   1.362   0.729
  180HOH     H1  745   0.252   1.355   0.635
  180HOH     H2  746   0.175   1.295   0.750
  181HOH      O  747   3.383   2.179   2.490
  181HOH     H1  748   3.303   2.137   2.458
  181HOH     H2  749   3.352   2.252   2.544
  182HOH      O  750   0.057   2.986   3.969
  182HOH     H1  751   0.090   2.916   4.026
  182HOH     H2  752   0.104   3.065   3.998
  183HOH      O  753   2.709   0.579   1.051
  183HOH     H1  754   2.717   0.507   1.114
  183HOH     H2  755   2.623   0.616   1.068
  184HOH      O  756   0.019   0.503   3.053
  184HOH     H1  757   0.046   0.588   3.089
  184HOH     H2  758   0.064   0.439   3.107
  185HOH      O  759   0.816   1.333   3.299
  185HOH     H1  760   0.830   1.240   3.281
  185HOH     H2  761   0.732   1.337   3.344
  186HOH      O  762   0.536   2.943   2.282
  186HOH     H1  763   0.464   3.005   2.274
  186HOH     H2  764   0.493   2.858   2.293
  187HOH      O  765   1.604   3.430   3.411
  187HOH     H1  766   1.562   3.419   3.325
  187HOH     H2  767   1.581   3.520   3.436
  188HOH      O  768   3.462   1.728   2.920
  188HOH     H1  769   3.526   1.795   2.895
  188HOH     H2  770   3.473   1.659   2.855
  189HOH      O  771   1.598   3.685   2.195
  189HOH     H1  772   1.627   3.777   2.194
  189HOH     H2  773   1.674   3.636   2.226
  190HOH      O  774   1.999   1.616   2.913
  190HOH     H1  775   1.987   1.705   2.882
  190HOH     H2  776   2.031   1.568   2.836
  191HOH      O  777   2.147   0.764   3.526
  191HOH     H1  778   2.184   0.801   3.445
  191HOH     H2  779   2.179   0.822   3.595
  192HOH      O  780   2.945   3.369   0.764
  192HOH     H1  781   2.960   3.274   0.762
  192HOH     H2  782   2.909   3.386   0.851
  193HOH      O  783   1.819   3.416   3.721
  193HOH     H1  784   1.843   3.373   3.804
  193HOH     H2  785   1.775   3.348   3.671
  194HOH      O  786   0.227   1.924   2.873
  194HOH     H1  787   0.317   1.952   2.891
  194HOH     H2  788   0.173   1.977   2.931
  195HOH      O  789   0.097   2.082   4.013
  195HOH     H1  790   0.059   2.032   3.941
  195HOH     H2  791   0.192   2.075   4.001
  196HOH      O  792   1.463   2.319   2.140
  196HOH     H1  793   1.407   2.315   2.063
  196HOH     H2  794   1.427   2.253   2.200
  197HOH      O  795   3.516   1.318   1.246
  197HOH     H1  796   3.562   1.392   1.206
  197HOH     H2  797   3.436   1.310   1.194
  198HOH      O  798   1.324   2.806   3.427
  198HOH     H1  799   1.270   2.769   3.357
  198HOH     H2  800   1.262   2.822   3.499
  199HOH      O  801   2.035   1.398   3.498
  199HOH     H1  802   2.110   1.409   3.557
  199HOH     H2  803   2.058   1.322   3.444
  200HOH      O  804   2.757   3.510   2.035
  200HOH     H1  805   2.777   3.526   1.942
  200HOH     H2  806   2.837   3.534   2.081
  201HOH      O  807   1.539   3.621   2.946
  201HOH     H1  808   1.603   3.575   2.892
  201HOH     H2  809   1.577   3.619   3.034
  202HOH      O  810   1.159   1.284   3.362
  202HOH     H1  811   1.237   1.254   3.408
  202HOH     H2  812   1.091   1.286   3.429
  203HOH      O  813   2.171   0.214   1.023
  203HOH     H1  814   2.233   0.158   1.071
  203HOH     H2  815   2.085   0.175   1.042
  204HOH      O  816   0.161   0.745   1.183
  204HOH     H1  817   0.208   0.759   1.265
  204HOH     H2  818   0.128   0.832   1.159
  205HOH      O  819   0.856   3.882   3.273
  205HOH     H1  820   0.815   3.967   3.256
  205HOH     H2  821   0.944   3.890   3.235
  206HOH      O  822   2.393   2.935   3.355
  206HOH     H1  823   2.422   2.863   3.298
  206HOH     H2  824   2.396   3.013   3.300
  207HOH      O  825   0.731   1.140   0.404
  207HOH     H1  826   0.719   1.193   0.483
  207HOH     H2  827   0.746   1.204   0.334
  208HOH      O  828   1.222   3.899   0.438
  208HOH     H1  829   1.307   3.872   0.471
  208HOH     H2  830   1.159   3.864   0.501
  209HOH      O  831   1.908   0.805   1.079
  209HOH     H1  832   1.823   0.794   1.037
  209HOH     H2  833   1.949   0.878   1.033
  210HOH      O  834   1.376   2.419   0.082
  210HOH     H1  835   1.418   2.333   0.081
  210HOH     H2  836   1.448   2.481   0.072
  211HOH      O  837   3.698   1.156   1.366
  211HOH     H1  838   3.675   1.240   1.325
  211HOH     H2  839   3.614   1.116   1.389
  212HOH      O  840   3.862   3.927   0.472
  212HOH     H1  841   3.943   3.954   0.429
  212HOH     H2  842   3.793   3.953   0.411
  213HOH      O  843   2.707   2.087   3.479
  213HOH     H1  844   2.658   2.013   3.517
  213HOH     H2  845   2.741   2.053   3.396
  214HOH      O  846   0.394   0.624   3.465
  214HOH     H1  847   0.305   0.654   3.446
  214HOH     H2  848   0.409   0.648   3.556
  215HOH      O  849   0.797   0.625   0.188
  215HOH     H1  850   0.840   0.541   0.170
  215HOH     H2  851   0.822   0.645   0.278
  216HOH      O  852   2.827   0.268   3.449
  216HOH     H1  853   2.732   0.253   3.441
  216HOH     H2  854   2.846   0.251   3.541
  217HOH      O  855   1.714   0.732   2.191
  217HOH     H1  856   1.639   0.791   2.179
  217HOH     H2  857   1.682   0.667   2.254
  218HOH      O  858   1.161   1.563   3.687
  218HOH     H1  859   1.082   1.518   3.657
  218HOH     H2  860   1.233   1.517   3.644
  219HOH      O  861   3.704   1.343   0.368
  219HOH     H1  862   3.666   1.257   0.388
  219HOH     H2  863   3.707   1.346   0.273
  220HOH      O  864   1.216   1.414   3.109
  220HOH     H1  865   1.165   1.493   3.093
  220HOH     H2  866   1.209   1.399   3.203
  221HOH      O  867   0.393   1.374   3.019
  221HOH     H1  868   0.458   1.440   2.993
  221HOH     H2  869   0.381   1.389   3.113
  222HOH      O  870   2.452   1.759   1.790
  222HOH     H1  871   2.426   1.802   1.872
  222HOH     H2  872   2.382   1.781   1.729
  223HOH      O  873   3.778   2.141   2.576
  223HOH     H1  874   3.867   2.107   2.562
  223HOH     H2  875   3.792   2.231   2.604
  224HOH      O  876   1.786   3.393   0.785
  224HOH     H1  877   1.702   3.378   0.828
  224HOH     H2  878   1.790   3.326   0.717
  225HOH      O  879   3.713   3.186   0.074
  225HOH     H1  880   3.673   3.251   0.016
  225HOH     H2  881   3.674   3.103   0.047
  226HOH      O  882   3.945   1.684   0.106
  226HOH     H1  883   3.903   1.632   0.174
  226HOH     H2  884   4.019   1.726   0.149
  227HOH      O  885   3.224   1.957   0.318
  227HOH     H1  886   3.138   1.985   0.350
  227HOH     H2  887   3.207   1.923   0.230
  228HOH      O  888   2.515   0.513   0.609
  228HOH     H1  889   2.469   0.547   0.686
  228HOH     H2  890   2.475   0.428   0.592
  229HOH      O  891   3.480   3.639   2.962
  229HOH     H1  892   3.392   3.624   2.930
  229HOH     H2  893   3.512   3.715   2.912
  230HOH      O  894   1.546   3.960   0.982
  230HOH     H1  895   1.480   3.989   1.044
  230HOH     H2  896   1.626   3.953   1.033
  231HOH      O  897   2.154   3.305   1.371
  231HOH     H1  898   2.250   3.306   1.371
  231HOH     H2  899   2.131   3.218   1.402
  232HOH      O  900   1.798   2.029   0.755
  232HOH     H1  901   1.886   2.062   0.773
  232HOH     H2  902   1.756   2.025   0.841
  233HOH      O  903   0.890   1.709   0.368
  233HOH     H1  904   0.971   1.756   0.386
  233HOH     H2  905   0.902   1.672   0.280
  234HOH      O  906   1.196   0.611   2.736
  234HOH     H1  907   1.247   0.677   2.689
  234HOH     H2  908   1.238   0.528   2.715
  235HOH      O  909   1.483   1.226   1.122
  235HOH     H1  910   1.503   1.311   1.084
  235HOH     H2  911   1.392   1.233   1.150
  236HOH      O  912   1.469   1.694   2.481
  236HOH     H1  913   1.519   1.613   2.495
  236HOH     H2  914   1.476   1.710   2.387
  237HOH      O  915   3.208   0.082   3.390
  237HOH     H1  916   3.199   0.003   3.337
  237HOH     H2  917   3.230   0.151   3.327
  238HOH      O  918   2.745   2.734   2.910
  238HOH     H1  919   2.677   2.746   2.976
  238HOH     H2  920   2.713   2.663   2.855
  239HOH      O  921   0.285   2.787   2.056
  239HOH     H1  922   0.325   2.874   2.048
  239HOH     H2  923   0.331   2.745   2.128
  240HOH      O  924   2.435   1.113   0.796
  240HOH     H1  925   2.492   1.182   0.830
  240HOH     H2  926   2.484   1.032   0.812
  241HOH      O  927   2.169   1.169   3.397
  241HOH     H1  928   2.225   1.091   3.395
  241HOH     H2  929   2.200   1.223   3.325
  242HOH      O  930   1.206   0.435   0.880
  242HOH     H1  931   1.221   0.450   0.787
  242HOH     H2  932   1.274   0.373   0.906
  243HOH      O  933   2.906   3.775   3.202
  243HOH     H1  934   2.934   3.685   3.182
  243HOH     H2  935   2.813   3.766   3.223
  244HOH      O  936   2.658   0.597   0.265
  244HOH     H1  937   2.604   0.669   0.297
  244HOH     H2  938   2.596   0.525   0.251
  245HOH      O  939   3.319   1.428   1.434
  245HOH     H1  940   3.356   1.345   1.404
  245HOH     H2  941   3.394   1.487   1.438
  246HOH      O  942   2.624   1.335   0.178
  246HOH     H1  943   2.666   1.250   0.193
  246HOH     H2  944   2.643   1.385   0.257
  247HOH      O  945   3.134   1.930   0.040
  247HOH     H1  946   3.045   1.904   0.065
  247HOH     H2  947   3.127   1.955  -0.052
  248HOH      O  948   1.870   3.662   2.842
  248HOH     H1  949   1.834   3.744   2.806
  248HOH     H2  950   1.803   3.597   2.821
  249HOH      O  951   4.023   1.256   0.816
  249HOH     H1  952   3.977   1.294   0.890
  249HOH     H2  953   3.982   1.294   0.739
  250HOH      O  954   3.665   1.869   0.754
  250HOH     H1  955   3.624   1.806   0.696
  250HOH     H2  956   3.669   1.950   0.702
  251HOH      O  957   2.960   2.523   3.567
  251HOH     H1  958   2.899   2.493   3.634
  251HOH     H2  959   3.020   2.582   3.614
  252HOH      O  960   0.764   0.177   1.348
  252HOH     H1  961   0.832   0.230   1.307
  252HOH     H2  962   0.738   0.228   1.425
  253HOH      O  963   2.893   1.534   0.280
  253HOH     H1  964   2.873   1.536   0.186
  253HOH     H2  965   2.811   1.508   0.321
  254HOH      O  966   0.157   0.167   2.303
  254HOH     H1  967   0.191   0.078   2.296
  254HOH     H2  968   0.182   0.209   2.220
  255HOH      O  969   3.222   2.803   3.563
  255HOH     H1  970   3.170   2.866   3.613
  255HOH     H2  971   3.229   2.727   3.621
  256HOH      O  972   3.850   2.516   3.355
  256HOH     H1  973   3.896   2.504   3.438
  256HOH     H2  974   3.780   2.577   3.375
  257HOH      O  975   3.821   3.574   0.193
  257HOH     H1  976   3.844   3.562   0.101
  257HOH     H2  977   3.825   3.486   0.231
  258HOH      O  978   3.120   1.354   1.639
  258HOH     H1  979   3.040   1.391   1.600
  258HOH     H2  980   3.185   1.360   1.569
  259HOH      O  981   0.961   2.121   1.258
  259HOH     H1  982   0.926   2.106   1.346
  259HOH     H2  983   1.048   2.158   1.272
  260HOH      O  984   0.118   3.194   2.276
  260HOH     H1  985   0.206   3.225   2.257
  260HOH     H2  986   0.060   3.251   2.225
  261HOH      O  987   3.866   3.834   1.897
  261HOH     H1  988   3.898   3.789   1.819
  261HOH     H2  989   3.907   3.787   1.970
  262HOH      O  990   3.315   1.728   3.282
  262HOH     H1  991   3.370   1.663   3.238
  262HOH     H2  992   3.376   1.796   3.310
  263HOH      O  993   0.002   1.383   1.702
  263HOH     H1  994   0.018   1.472   1.735
  263HOH     H2  995  -0.085   1.388   1.661
  264HOH      O  996   1.944   1.618   3.627
  264HOH     H1  997   1.945   1.558   3.701
  264HOH     H2  998   1.989   1.571   3.557
  265HOH      O  999   0.866   1.096   1.515
  265HOH     H1 1000   0.932   1.055   1.459
  265HOH     H2 1001   0.784   1.050   1.493
  266HOH      O 1002   2.459   0.560   3.525
  266HOH     H1 1003   2.412   0.540   3.444
  266HOH     H2 1004   2.400   0.532   3.595
  267HOH      O 1005   1.773   2.787   3.803
  267HOH     H1 1006   1.802   2.782   3.712
  267HOH     H2 1007   1.738   2.700   3.822
  268HOH      O 1008   3.845   3.666   1.570
  268HOH     H1 1009   3.768   3.693   1.619
  268HOH     H2 1010   3.903   3.628   1.636
  269HOH      O 1011   3.979   2.695   2.445
  269HOH     H1 1012   3.999   2.775   2.398
  269HOH     H2 1013   4.010   2.625   2.388
  270HOH      O 1014   2.511   0.041   0.559
  270HOH     H1 1015   2.580  -0.005   0.511
  270HOH     H2 1016   2.484  -0.022   0.627
  271HOH      O 1017   1.427   0.895   0.276
  271HOH     H1 1018   1.415   0.990   0.286
  271HOH     H2 1019   1.338   0.860   0.274
  272HOH      O 1020   0.675   2.470   0.531
  272HOH     H1 1021   0.600   2.410   0.527
  272HOH     H2 1022   0.663   2.527   0.455
  273HOH      O 1023   2.993   2.471   2.207
  273HOH     H1 1024   2.960   2.484   2.296
  273HOH     H2 1025   3.021   2.557   2.178
  274HOH      O 1026   0.775   3.923   3.645
  274HOH     H1 1027   0.849   3.963   3.692
  274HOH     H2 1028   0.698   3.965   3.681
  275HOH      O 1029   2.825   0.576   3.352
  275HOH     H1 1030   2.824   0.480   3.355
  275HOH     H2 1031   2.830   0.602   3.444
  276HOH      O 1032   1.819   3.202   1.083
  276HOH     H1 1033   1.773   3.219   1.001
  276HOH     H2 1034   1.812   3.284   1.132
  277HOH      O 1035   0.066   1.016   1.208
  277HOH     H1 1036   0.028   1.101   1.229
  277HOH     H2 1037   0.084   0.976   1.293
  278HOH      O 1038   0.665   1.326   0.574
  278HOH     H1 1039   0.591   1.388   0.570
  278HOH     H2 1040   0.742   1.382   0.580
  279HOH      O 1041   0.980   2.640   1.900
  279HOH     H1 1042   1.033   2.718   1.883
  279HOH     H2 1043   1.039   2.581   1.948
  280HOH      O 1044   2.306   1.413   2.647
  280HOH     H1 1045   2.396   1.443   2.663
  280HOH     H2 1046   2.307   1.321   2.676
  281HOH      O 1047   1.573   0.113   2.983
  281HOH     H1 1048   1.506   0.125   3.050
  281HOH     H2 1049   1.563   0.022   2.955
  282HOH      O 1050   1.934   1.869   3.736
  282HOH     H1 1051   1.842   1.851   3.716
  282HOH     H2 1052   1.980   1.788   3.715
  283HOH      O 1053   2.582   3.090   1.669
  283HOH     H1 1054   2.604   3.115   1.579
  283HOH     H2 1055   2.614   2.999   1.676
  284HOH      O 1056   3.854   1.292   2.062
  284HOH     H1 1057   3.938   1.339   2.053
  284HOH     H2 1058   3.797   1.335   1.998
  285HOH      O 1059   3.130   0.889   2.981
  285HOH     H1 1060   3.224   0.873   2.988
  285HOH     H2 1061   3.090   0.824   3.038
  286HOH      O 1062   2.057   0.543   3.241
  286HOH     H1 1063   1.989   0.609   3.228
  286HOH     H2 1064   2.044   0.480   3.169
  287HOH      O 1065   3.817   2.856   0.460
  287HOH     H1 1066   3.851   2.835   0.374
  287HOH     H2 1067   3.888   2.904   0.503
  288HOH      O 1068   1.807   2.263   1.899
  288HOH     H1 1069   1.712   2.265   1.890
  288HOH     H2 1070   1.823   2.214   1.980
  289HOH      O 1071   2.158   1.513   0.316
  289HOH     H1 1072   2.114   1.598   0.324
  289HOH     H2 1073   2.156   1.477   0.405
  290HOH      O 1074   3.296   2.570   2.949
  290HOH     H1 1075   3.280   2.660   2.980
  290HOH     H2 1076   3.211   2.527   2.956
  291HOH      O 1077   2.258   0.961   0.617
  291HOH     H1 1078   2.331   1.006   0.660
  291HOH     H2 1079   2.252   0.877   0.661
  292HOH      O 1080   3.044   2.331   1.882
  292HOH     H1 1081   3.099   2.295   1.952
  292HOH     H2 1082   3.101   2.393   1.837
  293HOH      O 1083   1.891   0.924   4.028
  293HOH     H1 1084   1.869   0.898   3.938
  293HOH     H2 1085   1.806   0.944   4.068
  294HOH      O 1086   1.340   0.510   3.692
  294HOH     H1 1087   1.338   0.512   3.596
  294HOH     H2 1088   1.411   0.570   3.715
  295HOH      O 1089   1.218   0.403   1.378
  295HOH     H1 1090   1.237   0.440   1.464
  295HOH     H2 1091   1.211   0.479   1.320
  296HOH      O 1092   2.661   0.908   0.581
  296HOH     H1 1093   2.742   0.861   0.602
  296HOH     H2 1094   2.602   0.889   0.654
  297HOH      O 1095   1.209   2.421   2.310
  297HOH     H1 1096   1.186   2.409   2.402
  297HOH     H2 1097   1.305   2.416   2.309
  298HOH      O 1098   2.019   3.323   0.160
  298HOH     H1 1099   2.029   3.337   0.066
  298HOH     H2 1100   1.930   3.352   0.178
  299HOH      O 1101   1.034   1.304   0.344
  299HOH     H1 1102   0.974   1.306   0.270
  299HOH     H2 1103   0.994   1.362   0.409
  300HOH      O 1104   1.874   0.468   0.947
  300HOH     H1 1105   1.947   0.413   0.917
  300HOH     H2 1106   1.906   0.507   1.028
  301HOH      O 1107   2.562   2.799   1.724
  301HOH     H1 1108   2.471   2.804   1.694
  301HOH     H2 1109   2.562   2.729   1.789
  302HOH      O 1110   0.986   2.216   3.180
  302HOH     H1 1111   0.898   2.229   3.146
  302HOH     H2 1112   0.976   2.152   3.250
  303HOH      O 1113   1.138   1.599   0.860
  303HOH     H1 1114   1.116   1.692   0.856
  303HOH     H2 1115   1.189   1.583   0.780
  304HOH      O 1116   4.010   2.045   1.554
  304HOH     H1 1117   4.000   2.002   1.640
  304HOH     H2 1118   4.014   2.138   1.574
  305HOH      O 1119   1.641   2.507   2.031
  305HOH     H1 1120   1.721   2.468   2.065
  305HOH     H2 1121   1.571   2.459   2.076
  306HOH      O 1122   0.224   0.410   0.852
  306HOH     H1 1123   0.291   0.449   0.908
  306HOH     H2 1124   0.273   0.353   0.793
  307HOH      O 1125   1.734   3.177   3.656
  307HOH     H1 1126   1.825   3.177   3.628
  307HOH     H2 1127   1.727   3.100   3.713
  308HOH      O 1128   2.001   0.972   1.790
  308HOH     H1 1129   1.976   0.997   1.701
  308HOH     H2 1130   1.927   0.999   1.844
  309HOH      O 1131   1.067   3.544   0.807
  309HOH     H1 1132   1.033   3.632   0.797
  309HOH     H2 1133   1.103   3.542   0.896
  310HOH      O 1134   2.801   3.292   2.977
  310HOH     H1 1135   2.869   3.264   2.915
  310HOH     H2 1136   2.725   3.311   2.922
  311HOH      O 1137   1.315   3.247   3.856
  311HOH     H1 1138   1.367   3.257   3.776
  311HOH     H2 1139   1.267   3.165   3.843
  312HOH      O 1140   2.218   2.736   1.608
  312HOH     H1 1141   2.143   2.679   1.593
  312HOH     H2 1142   2.195   2.786   1.687
  313HOH      O 1143   3.135   2.229   0.673
  313HOH     H1 1144   3.125   2.142   0.712
  313HOH     H2 1145   3.218   2.261   0.709
  314HOH      O 1146   0.812   2.401   0.107
  314HOH     H1 1147   0.791   2.366   0.193
  314HOH     H2 1148   0.906   2.419   0.110
  315HOH      O 1149   0.652   3.523   3.796
  315HOH     H1 1150   0.601   3.577   3.736
  315HOH     H2 1151   0.601   3.522   3.877
  316HOH      O 1152   3.069   3.273   2.184
  316HOH     H1 1153   3.144   3.219   2.209
  316HOH     H2 1154   3.056   3.254   2.091
  317HOH      O 1155   1.973   0.762   2.249
  317HOH     H1 1156   1.969   0.828   2.319
  317HOH     H2 1157   1.882   0.751   2.221
  318HOH      O 1158   3.994   3.882   3.753
  318HOH     H1 1159   3.958   3.954   3.804
  318HOH     H2 1160   4.037   3.924   3.678
  319HOH      O 1161   0.965   1.569   1.062
  319HOH     H1 1162   0.979   1.497   1.124
  319HOH     H2 1163   1.000   1.537   0.979
  320HOH      O 1164   1.109   3.837   3.897
  320HOH     H1 1165   1.032   3.782   3.881
  320HOH     H2 1166   1.116   3.842   3.992
  321HOH      O 1167   2.352   3.558   2.599
  321HOH     H1 1168   2.260   3.583   2.587
  321HOH     H2 1169   2.349   3.487   2.664
  322HOH      O 1170   0.111   3.441   2.124
  322HOH     H1 1171   0.176   3.507   2.100
  322HOH     H2 1172   0.081   3.405   2.040
  323HOH      O 1173   0.851   2.999   0.180
  323HOH     H1 1174   0.793   2.996   0.256
  323HOH     H2 1175   0.909   3.073   0.197
  324HOH      O 1176   0.700   3.022   3.216
  324HOH     H1 1177   0.779   3.047   3.264
  324HOH     H2 1178   0.644   3.100   3.222
  325HOH      O 1179   4.025   0.939   0.521
  325HOH     H1 1180   4.051   0.899   0.438
  325HOH     H2 1181   4.097   0.999   0.543
  326HOH      O 1182   2.009   3.077   3.236
  326HOH     H1 1183   2.087   3.100   3.185
  326HOH     H2 1184   1.969   3.161   3.258
  327HOH      O 1185   0.018   1.165   0.279
  327HOH     H1 1186   0.061   1.228   0.336
  327HOH     H2 1187   0.088   1.109   0.247
  328HOH      O 1188   1.837   3.954   3.228
  328HOH     H1 1189   1.807   3.979   3.141
  328HOH     H2 1190   1.922   3.913   3.213
  329HOH      O 1191   1.611   2.720   2.822
  329HOH     H1 1192   1.673   2.658   2.862
  329HOH     H2 1193   1.617   2.798   2.878
  330HOH      O 1194   2.920   3.183   0.543
  330HOH     H1 1195   3.004   3.228   0.533
  330HOH     H2 1196   2.888   3.170   0.454
  331HOH      O 1197   3.107   1.656   3.758
  331HOH     H1 1198   3.023   1.615   3.740
  331HOH     H2 1199   3.164   1.584   3.784
  332HOH      O 1200   0.439   1.762   0.279
  332HOH     H1 1201   0.518   1.768   0.226
  332HOH     H2 1202   0.464   1.795   0.365
  333HOH      O 1203   2.972   2.813   0.735
  333HOH     H1 1204   2.951   2.837   0.825
  333HOH     H2 1205   2.969   2.718   0.733
  334HOH      O 1206   3.683   0.605   1.370
  334HOH     H1 1207   3.603   0.590   1.420
  334HOH     H2 1208   3.698   0.699   1.377
  335HOH      O 1209   2.325   1.074   2.953
  335HOH     H1 1210   2.248   1.038   2.996
  335HOH     H2 1211   2.396   1.015   2.976
  336HOH      O 1212   0.182   0.350   2.510
  336HOH     H1 1213   0.097   0.391   2.499
  336HOH     H2 1214   0.185   0.283   2.442
  337HOH      O 1215   2.899   2.566   1.683
  337HOH     H1 1216   2.949   2.511   1.623
  337HOH     H2 1217   2.821   2.514   1.703
  338HOH      O 1218   3.651   2.506   3.908
  338HOH     H1 1219   3.568   2.550   3.927
  338HOH     H2 1220   3.659   2.439   3.976
  339HOH      O 1221   0.138   2.444   0.464
  339HOH     H1 1222   0.087   2.413   0.389
  339HOH     H2 1223   0.110   2.387   0.536
  340HOH      O 1224   3.360   0.801   0.644
  340HOH     H1 1225   3.272   0.806   0.608
  340HOH     H2 1226   3.364   0.875   0.705
  341HOH      O 1227   3.662   0.758   0.028
  341HOH     H1 1228   3.721   0.794   0.094
  341HOH     H2 1229   3.590   0.821   0.024
  342HOH      O 1230   3.409   0.867   3.002
  342HOH     H1 1231   3.477   0.805   3.028
  342HOH     H2 1232   3.398   0.925   3.077
  343HOH      O 1233   0.506   3.862   2.018
  343HOH     H1 1234   0.579   3.921   2.000
  343HOH     H2 1235   0.519   3.834   2.109
  344HOH      O 1236   1.792   4.005   3.766
  344HOH     H1 1237   1.879   4.039   3.784
  344HOH     H2 1238   1.754   3.988   3.852
  345HOH      O 1239   0.683   2.354   1.272
  345HOH     H1 1240   0.589   2.337   1.277
  345HOH     H2 1241   0.705   2.337   1.181
  346HOH      O 1242   3.716   1.776   3.450
  346HOH     H1 1243   3.689   1.760   3.360
  346HOH     H2 1244   3.705   1.870   3.462
  347HOH      O 1245   3.009   3.266   2.805
  347HOH     H1 1246   3.060   3.190   2.778
  347HOH     H2 1247   3.014   3.326   2.731
  348HOH      O 1248   2.989   2.063   0.347
  348HOH     H1 1249   2.923   1.999   0.375
  348HOH     H2 1250   2.958   2.146   0.383
  349HOH      O 1251   1.337   3.058   0.646
  349HOH     H1 1252   1.315   3.150   0.664
  349HOH     H2 1253   1.319   3.047   0.552
  350HOH      O 1254   1.723   1.241   1.783
  350HOH     H1 1255   1.739   1.186   1.706
  350HOH     H2 1256   1.747   1.329   1.755
  351HOH      O 1257   3.878   2.299   1.527
  351HOH     H1 1258   3.814   2.247   1.478
  351HOH     H2 1259   3.870   2.268   1.617
  352HOH      O 1260   1.647   3.025   3.865
  352HOH     H1 1261   1.555   3.011   3.843
  352HOH     H2 1262   1.681   2.937   3.880
  353HOH      O 1263   1.160   1.629   3.319
  353HOH     H1 1264   1.163   1.725   3.316
  353HOH     H2 1265   1.083   1.606   3.267
  354HOH      O 1266   1.335   1.509   0.114
  354HOH     H1 1267   1.394   1.565   0.164
  354HOH     H2 1268   1.315   1.560   0.035
  355HOH      O 1269   1.820   1.385   1.097
  355HOH     H1 1270   1.739   1.434   1.086
  355HOH     H2 1271   1.793   1.294   1.102
  356HOH      O 1272   2.659   2.396   0.412
  356HOH     H1 1273   2.662   2.335   0.486
  356HOH     H2 1274   2.712   2.354   0.344
  357HOH      O 1275   0.891   2.215   1.732
  357HOH     H1 1276   0.864   2.264   1.655
  357HOH     H2 1277   0.914   2.128   1.699
  358HOH      O 1278   1.532   0.782   1.480
  358HOH     H1 1279   1.476   0.840   1.428
  358HOH     H2 1280   1.620   0.819   1.471
  359HOH      O 1281   2.334   0.472   1.484
  359HOH     H1 1282   2.271   0.401   1.479
  359HOH     H2 1283   2.418   0.433   1.458
  360HOH      O 1284   0.475   3.102   2.548
  360HOH     H1 1285   0.555   3.130   2.503
  360HOH     H2 1286   0.414   3.174   2.533
  361HOH      O 1287   3.329   0.015   1.041
  361HOH     H1 1288   3.261   0.082   1.038
  361HOH     H2 1289   3.283  -0.067   1.024
  362HOH      O 1290   1.043   2.802   1.228
  362HOH     H1 1291   1.006   2.873   1.279
  362HOH     H2 1292   1.115   2.841   1.180
  363HOH      O 1293   3.862   1.372   3.106
  363HOH     H1 1294   3.928   1.320   3.151
  363HOH     H2 1295   3.912   1.438   3.058
  364HOH      O 1296   2.456   3.990   2.679
  364HOH     H1 1297   2.520   3.942   2.731
  364HOH     H2 1298   2.451   3.941   2.596
  365HOH      O 1299   1.448   3.933   1.405
  365HOH     H1 1300   1.496   3.995   1.460
  365HOH     H2 1301   1.444   3.975   1.319
  366HOH      O 1302   3.312   1.331   1.086
  366HOH     H1 1303   3.238   1.328   1.146
  366HOH     H2 1304   3.273   1.354   1.001
  367HOH      O 1305   3.380   1.506   0.431
  367HOH     H1 1306   3.432   1.541   0.359
  367HOH     H2 1307   3.292   1.541   0.417
  368HOH      O 1308   3.454   3.529   1.431
  368HOH     H1 1309   3.537   3.483   1.419
  368HOH     H2 1310   3.478   3.609   1.477
  369HOH      O 1311   2.379   0.617   0.835
  369HOH     H1 1312   2.346   0.571   0.912
  369HOH     H2 1313   2.302   0.654   0.793
  370HOH      O 1314   1.724   1.028   3.459
  370HOH     H1 1315   1.659   1.097   3.445
  370HOH     H2 1316   1.684   0.971   3.524
  371HOH      O 1317   2.735   0.834   3.948
  371HOH     H1 1318   2.694   0.788   4.021
  371HOH     H2 1319   2.829   0.822   3.962
  372HOH      O 1320   2.309   1.652   3.283
  372HOH     H1 1321   2.231   1.605   3.252
  372HOH     H2 1322   2.276   1.738   3.310
  373HOH      O 1323   3.126   2.829   0.478
  373HOH     H1 1324   3.192   2.763   0.457
  373HOH     H2 1325   3.117   2.825   0.573
  374HOH      O 1326   2.566   0.034   1.015
  374HOH     H1 1327   2.562  -0.054   0.977
  374HOH     H2 1328   2.479   0.047   1.053
  375HOH      O 1329   3.402   0.712   1.720
  375HOH     H1 1330   3.489   0.750   1.722
  375HOH     H2 1331   3.393   0.678   1.631
  376HOH      O 1332   2.252   3.282   1.088
  376HOH     H1 1333   2.218   3.193   1.096
  376HOH     H2 1334   2.174   3.338   1.082
  377HOH      O 1335   2.659   1.527   3.799
  377HOH     H1 1336   2.636   1.441   3.835
  377HOH     H2 1337   2.749   1.517   3.770
  378HOH      O 1338   3.409   0.828   1.984
  378HOH     H1 1339   3.402   0.786   1.898
  378HOH     H2 1340   3.484   0.887   1.975
  379HOH      O 1341   3.505   0.744   2.356
  379HOH     H1 1342   3.594   0.721   2.331
  379HOH     H2 1343   3.515   0.805   2.429
  380HOH      O 1344   2.304   0.461   2.013
  380HOH     H1 1345   2.366   0.514   2.063
  380HOH     H2 1346   2.359   0.410   1.954
  381HOH      O 1347   0.513   0.918   3.994
  381HOH     H1 1348   0.507   0.985   3.926
  381HOH     H2 1349   0.520   0.968   4.076
  382HOH      O 1350   2.673   3.378   2.734
  382HOH     H1 1351   2.667   3.473   2.731
  382HOH     H2 1352   2.675   3.351   2.642
  383HOH      O 1353   1.347   2.778   0.513
  383HOH     H1 1354   1.441   2.783   0.496
  383HOH     H2 1355   1.307   2.828   0.441
  384HOH      O 1356   2.638   1.387   3.159
  384HOH     H1 1357   2.673   1.298   3.170
  384HOH     H2 1358   2.716   1.442   3.154
  385HOH      O 1359   3.523   2.513   3.087
  385HOH     H1 1360   3.442   2.533   3.040
  385HOH     H2 1361   3.508   2.425   3.123
  386HOH      O 1362   2.864   1.558   3.199
  386HOH     H1 1363   2.955   1.534   3.216
  386HOH     H2 1364   2.830   1.584   3.284
  387HOH      O 1365   2.266   2.560   3.189
  387HOH     H1 1366   2.285   2.565   3.283
  387HOH     H2 1367   2.313   2.482   3.159
  388HOH      O 1368   0.984   3.800   1.533
  388HOH     H1 1369   0.914   3.779   1.595
  388HOH     H2 1370   1.057   3.828   1.589
  389HOH      O 1371   2.876   3.979   2.415
  389HOH     H1 1372   2.849   3.911   2.477
  389HOH     H2 1373   2.964   3.953   2.388
  390HOH      O 1374   0.497   3.302   0.480
  390HOH     H1 1375   0.462   3.228   0.431
  390HOH     H2 1376   0.478   3.378   0.424
  391HOH      O 1377   1.363   1.807   1.682
  391HOH     H1 1378   1.385   1.726   1.636
  391HOH     H2 1379   1.332   1.778   1.768
  392HOH      O 1380   0.024   1.001   0.902
  392HOH     H1 1381  -0.003   0.979   0.992
  392HOH     H2 1382   0.016   1.096   0.897
  393HOH      O 1383   1.716   0.281   2.090
  393HOH     H1 1384   1.665   0.296   2.011
  393HOH     H2 1385   1.801   0.322   2.073
  394HOH      O 1386   0.576   3.961   4.016
  394HOH     H1 1387   0.659   3.918   4.035
  394HOH     H2 1388   0.589   4.000   3.929
  395HOH      O 1389   2.565   3.502   0.830
  395HOH     H1 1390   2.554   3.568   0.898
  395HOH     H2 1391   2.562   3.418   0.876
  396HOH      O 1392   0.907   3.633   3.473
  396HOH     H1 1393   0.893   3.539   3.468
  396HOH     H2 1394   0.999   3.645   3.449
  397HOH      O 1395   2.583   2.182   1.082
  397HOH     H1 1396   2.531   2.143   1.152
  397HOH     H2 1397   2.645   2.113   1.058
  398HOH      O 1398   2.732   1.813   2.470
  398HOH     H1 1399   2.757   1.736   2.520
  398HOH     H2 1400   2.640   1.828   2.493
  399HOH      O 1401   0.645   2.897   0.031
  399HOH     H1 1402   0.721   2.933   0.077
  399HOH     H2 1403   0.630   2.959  -0.041
  400HOH      O 1404   3.864   0.083   3.829
  400HOH     H1 1405   3.886   0.175   3.815
  400HOH     H2 1406   3.814   0.058   3.751
  401HOH      O 1407   4.003   0.539   1.953
  401HOH     H1 1408   4.017   0.626   1.988
  401HOH     H2 1409   4.090   0.500   1.951
  402HOH      O 1410   3.703   2.370   3.676
  402HOH     H1 1411   3.693   2.442   3.739
  402HOH     H2 1412   3.783   2.326   3.703
  403HOH      O 1413   2.735   2.973   3.185
  403HOH     H1 1414   2.797   2.983   3.257
  403HOH     H2 1415   2.790   2.949   3.110
  404HOH      O 1416   2.692   3.408   3.641
  404HOH     H1 1417   2.646   3.347   3.699
  404HOH     H2 1418   2.721   3.478   3.698
  405HOH      O 1419   1.612   3.143   1.981
  405HOH     H1 1420   1.665   3.109   2.053
  405HOH     H2 1421   1.673   3.152   1.908
  406HOH      O 1422   2.838   1.243   3.477
  406HOH     H1 1423   2.838   1.199   3.391
  406HOH     H2 1424   2.863   1.174   3.538
  407HOH      O 1425   3.395   3.253   2.742
  407HOH     H1 1426   3.423   3.279   2.829
  407HOH     H2 1427   3.318   3.199   2.756
  408HOH      O 1428   1.570   0.111   1.797
  408HOH     H1 1429   1.588   0.204   1.803
  408HOH     H2 1430   1.480   0.101   1.829
  409HOH      O 1431   0.868   0.365   0.159
  409HOH     H1 1432   0.853   0.314   0.079
  409HOH     H2 1433   0.793   0.345   0.215
  410HOH      O 1434   3.411   3.377   3.609
  410HOH     H1 1435   3.331   3.429   3.619
  410HOH     H2 1436   3.468   3.432   3.555
  411HOH      O 1437   1.341   0.844   3.004
  411HOH     H1 1438   1.266   0.840   2.945
  411HOH     H2 1439   1.331   0.928   3.050
  412HOH      O 1440   2.348   1.112   4.028
  412HOH     H1 1441   2.274   1.070   3.983
  412HOH     H2 1442   2.308   1.171   4.092
  413HOH      O 1443   1.128   1.961   1.883
  413HOH     H1 1444   1.071   2.036   1.867
  413HOH     H2 1445   1.075   1.885   1.858
  414HOH      O 1446   3.603   3.801   3.678
  414HOH     H1 1447   3.561   3.870   3.626
  414HOH     H2 1448   3.587   3.827   3.769
  415HOH      O 1449   1.848   0.456   0.062
  415HOH     H1 1450   1.839   0.425   0.152
  415HOH     H2 1451   1.882   0.545   0.070
  416HOH      O 1452   1.932   1.513   1.306
  416HOH     H1 1453   1.912   1.452   1.235
  416HOH     H2 1454   1.873   1.486   1.377
  417HOH      O 1455   3.579   0.231   1.198
  417HOH     H1 1456   3.652   0.290   1.219
  417HOH     H2 1457   3.525   0.281   1.137
  418HOH      O 1458   0.894   1.586   3.190
  418HOH     H1 1459   0.801   1.597   3.171
  418HOH     H2 1460   0.902   1.495   3.219
  419HOH      O 1461   1.431   3.560   1.240
  419HOH     H1 1462   1.438   3.564   1.336
  419HOH     H2 1463   1.492   3.490   1.215
  420HOH      O 1464   1.576   2.378   1.114
  420HOH     H1 1465   1.550   2.286   1.111
  420HOH     H2 1466   1.618   2.394   1.029
  421HOH      O 1467   1.926   2.479   1.733
  421HOH     H1 1468   1.875   2.410   1.776
  421HOH     H2 1469   1.951   2.538   1.805
  422HOH      O 1470   0.742   3.953   1.752
  422HOH     H1 1471   0.752   3.859   1.736
  422HOH     H2 1472   0.804   3.972   1.823
  423HOH      O 1473   2.710   0.062   1.689
  423HOH     H1 1474   2.761  -0.019   1.701
  423HOH     H2 1475   2.673   0.080   1.776
  424HOH      O 1476   0.049   2.409   2.727
  424HOH     H1 1477  -0.045   2.391   2.727
  424HOH     H2 1478   0.076   2.396   2.636
  425HOH      O 1479   0.397   2.136   0.285
  425HOH     H1 1480   0.312   2.166   0.252
  425HOH     H2 1481   0.377   2.093   0.368
  426HOH      O 1482   1.261   1.562   0.591
  426HOH     H1 1483   1.348   1.585   0.558
  426HOH     H2 1484   1.260   1.466   0.591
  427HOH      O 1485   2.326   0.186   3.519
  427HOH     H1 1486   2.251   0.243   3.533
  427HOH     H2 1487   2.288   0.101   3.496
  428HOH      O 1488   2.259   1.330   0.833
  428HOH     H1 1489   2.282   1.238   0.827
  428HOH     H2 1490   2.312   1.364   0.905
  429HOH      O 1491   4.010   3.246   1.028
  429HOH     H1 1492   4.005   3.331   1.071
  429HOH     H2 1493   3.979   3.263   0.939
  430HOH      O 1494   0.506   1.967   1.028
  430HOH     H1 1495   0.497   1.886   1.077
  430HOH     H2 1496   0.518   2.035   1.095
  431HOH      O 1497   1.134   1.888   3.275
  431HOH     H1 1498   1.156   1.895   3.182
  431HOH     H2 1499   1.189   1.954   3.318
  432HOH      O 1500   1.306   0.060   3.982
  432HOH     H1 1501   1.341  -0.009   4.038
  432HOH     H2 1502   1.288   0.017   3.899
  433HOH      O 1503   2.454   2.621   0.093
  433HOH     H1 1504   2.517   2.691   0.079
  433HOH     H2 1505   2.391   2.630   0.022
  434HOH      O 1506   1.616   0.778   3.107
  434HOH     H1 1507   1.523   0.771   3.087
  434HOH     H2 1508   1.619   0.783   3.203
  435HOH      O 1509   2.593   2.615   1.915
  435HOH     H1 1510   2.541   2.575   1.985
  435HOH     H2 1511   2.683   2.612   1.947
  436HOH      O 1512   3.874   3.095   1.653
  436HOH     H1 1513   3.789   3.063   1.623
  436HOH     H2 1514   3.938   3.039   1.609
  437HOH      O 1515   2.679   4.015   0.047
  437HOH     H1 1516   2.737   3.973  -0.017
  437HOH     H2 1517   2.684   3.959   0.125
  438HOH      O 1518   2.530   0.740   3.094
  438HOH     H1 1519   2.614   0.726   3.051
  438HOH     H2 1520   2.549   0.802   3.164
  439HOH      O 1521   2.875   3.751   2.773
  439HOH     H1 1522   2.816   3.722   2.843
  439HOH     H2 1523   2.929   3.818   2.814
  440HOH      O 1524   0.245   2.027   1.241
  440HOH     H1 1525   0.158   2.060   1.265
  440HOH     H2 1526   0.254   2.048   1.148
  441HOH      O 1527   3.201   2.513   1.717
  441HOH     H1 1528   3.288   2.533   1.683
  441HOH     H2 1529   3.146   2.586   1.687
  442HOH      O 1530   0.361   0.588   1.025
  442HOH     H1 1531   0.292   0.620   1.084
  442HOH     H2 1532   0.373   0.497   1.051
  443HOH      O 1533   3.453   2.892   1.386
  443HOH     H1 1534   3.510   2.922   1.315
  443HOH     H2 1535   3.369   2.876   1.343
  444HOH      O 1536   3.805   1.344   0.662
  444HOH     H1 1537   3.744   1.363   0.732
  444HOH     H2 1538   3.751   1.342   0.583
  445HOH      O 1539   2.966   3.592   2.183
  445HOH     H1 1540   3.042   3.535   2.196
  445HOH     H2 1541   2.956   3.638   2.266
  446HOH      O 1542   1.457   3.687   0.921
  446HOH     H1 1543   1.424   3.777   0.922
  446HOH     H2 1544   1.534   3.689   0.977
  447HOH      O 1545   1.240   3.362   3.514
  447HOH     H1 1546   1.257   3.452   3.489
  447HOH     H2 1547   1.252   3.312   3.433
  448HOH      O 1548   2.480   3.488   2.317
  448HOH     H1 1549   2.529   3.570   2.312
  448HOH     H2 1550   2.442   3.489   2.405
  449HOH      O 1551   0.637   2.336   1.789
  449HOH     H1 1552   0.593   2.331   1.705
  449HOH     H2 1553   0.722   2.294   1.774
  450HOH      O 1554   2.012   2.615   2.213
  450HOH     H1 1555   2.070   2.574   2.277
  450HOH     H2 1556   1.948   2.547   2.192
  451HOH      O 1557   3.299   1.889   0.946
  451HOH     H1 1558   3.393   1.872   0.951
  451HOH     H2 1559   3.266   1.868   1.034
  452HOH      O 1560   1.730   3.849   4.016
  452HOH     H1 1561   1.646   3.843   4.063
  452HOH     H2 1562   1.719   3.791   3.941
  453HOH      O 1563   0.444   1.632   0.029
  453HOH     H1 1564   0.368   1.653  -0.027
  453HOH     H2 1565   0.441   1.697   0.099
  454HOH      O 1566   3.004   2.573   2.939
  454HOH     H1 1567   3.010   2.634   3.013
  454HOH     H2 1568   2.966   2.494   2.977
  455HOH      O 1569   1.108   1.444   2.155
  455HOH     H1 1570   1.199   1.442   2.129
  455HOH     H2 1571   1.087   1.352   2.174
  456HOH      O 1572   3.491   2.292   2.266
  456HOH     H1 1573   3.443   2.277   2.347
  456HOH     H2 1574   3.429   2.338   2.209
  457HOH      O 1575   3.730   0.841   1.936
  457HOH     H1 1576   3.731   0.937   1.935
  457HOH     H2 1577   3.822   0.816   1.927
  458HOH      O 1578   0.194   2.267   0.692
  458HOH     H1 1579   0.268   2.237   0.639
  458HOH     H2 1580   0.221   2.352   0.725
  459HOH      O 1581   1.586   3.686   1.701
  459HOH     H1 1582   1.565   3.592   1.696
  459HOH     H2 1583   1.579   3.707   1.794
  460HOH      O 1584   3.739   3.581   2.741
  460HOH     H1 1585   3.747   3.675   2.752
  460HOH     H2 1586   3.826   3.547   2.758
  461HOH      O 1587   0.147   3.759   2.305
  461HOH     H1 1588   0.201   3.837   2.317
  461HOH     H2 1589   0.208   3.686   2.314
  462HOH      O 1590   3.032   0.308   3.129
  462HOH     H1 1591   3.008   0.384   3.076
  462HOH     H2 1592   3.121   0.328   3.159
  463HOH      O 1593   1.816   3.730   2.483
  463HOH     H1 1594   1.875   3.654   2.488
  463HOH     H2 1595   1.824   3.761   2.393
  464HOH      O 1596   0.572   0.703   0.911
  464HOH     H1 1597   0.483   0.670   0.926
  464HOH     H2 1598   0.560   0.777   0.852
  465HOH      O 1599   2.326   1.633   2.343
  465HOH     H1 1600   2.355   1.552   2.385
  465HOH     H2 1601   2.276   1.679   2.411
  466HOH      O 1602   2.539   0.588   2.802
  466HOH     H1 1603   2.486   0.666   2.785
  466HOH     H2 1604   2.496   0.548   2.878
  467HOH      O 1605   1.536   3.232   1.219
  467HOH     H1 1606   1.573   3.224   1.131
  467HOH     H2 1607   1.441   3.222   1.206
  468HOH      O 1608   2.828   2.006   1.992
  468HOH     H1 1609   2.772   1.929   1.981
  468HOH     H2 1610   2.794   2.070   1.930
  469HOH      O 1611   2.271   2.413   3.630
  469HOH     H1 1612   2.200   2.476   3.618
  469HOH     H2 1613   2.347   2.453   3.589
  470HOH      O 1614   2.214   3.945   0.403
  470HOH     H1 1615   2.302   3.930   0.368
  470HOH     H2 1616   2.173   3.859   0.403
  471HOH      O 1617   3.325   3.997   2.831
  471HOH     H1 1618   3.337   3.910   2.792
  471HOH     H2 1619   3.377   3.995   2.911
  472HOH      O 1620   0.257   3.944   3.345
  472HOH     H1 1621   0.177   3.904   3.310
  472HOH     H2 1622   0.280   4.010   3.280
  473HOH      O 1623   2.862   2.594   3.822
  473HOH     H1 1624   2.940   2.595   3.877
  473HOH     H2 1625   2.812   2.518   3.852
  474HOH      O 1626   2.945   2.264   0.497
  474HOH     H1 1627   3.012   2.249   0.563
  474HOH     H2 1628   2.862   2.265   0.545
  475HOH      O 1629   0.061   2.030   0.354
  475HOH     H1 1630   0.123   1.986   0.411
  475HOH     H2 1631  -0.021   2.035   0.404
  476HOH      O 1632   1.510   0.877   2.122
  476HOH     H1 1633   1.415   0.872   2.125
  476HOH     H2 1634   1.533   0.839   2.037
  477HOH      O 1635   0.950   2.643   1.582
  477HOH     H1 1636   0.988   2.558   1.559
  477HOH     H2 1637   0.927   2.635   1.674
  478HOH      O 1638   3.731   0.300   3.342
  478HOH     H1 1639   3.665   0.287   3.410
  478HOH     H2 1640   3.777   0.379   3.368
  479HOH      O 1641   2.531   1.896   3.207
  479HOH     H1 1642   2.440   1.924   3.215
  479HOH     H2 1643   2.527   1.801   3.208
  480HOH      O 1644   1.634   0.549   2.752
  480HOH     H1 1645   1.705   0.573   2.694
  480HOH     H2 1646   1.572   0.622   2.747
  481HOH      O 1647   2.373   2.262   3.213
  481HOH     H1 1648   2.444   2.215   3.170
  481HOH     H2 1649   2.405   2.278   3.302
  482HOH      O 1650   2.079   0.269   0.351
  482HOH     H1 1651   2.110   0.316   0.274
  482HOH     H2 1652   2.158   0.253   0.403
  483HOH      O 1653   3.827   2.412   2.636
  483HOH     H1 1654   3.778   2.410   2.719
  483HOH     H2 1655   3.860   2.502   2.631
  484HOH      O 1656   1.126   1.573   1.455
  484HOH     H1 1657   1.082   1.654   1.431
  484HOH     H2 1658   1.059   1.506   1.448
  485HOH      O 1659   0.015   2.974   0.250
  485HOH     H1 1660   0.070   2.960   0.174
  485HOH     H2 1661   0.035   2.900   0.308
  486HOH      O 1662   0.552   3.663   3.550
  486HOH     H1 1663   0.472   3.715   3.557
  486HOH     H2 1664   0.528   3.590   3.493
  487HOH      O 1665   0.011   3.810   3.263
  487HOH     H1 1666  -0.009   3.726   3.304
  487HOH     H2 1667  -0.062   3.825   3.203
  488HOH      O 1668   2.636   2.439   1.714
  488HOH     H1 1669   2.596   2.497   1.779
  488HOH     H2 1670   2.566   2.421   1.652
  489HOH      O 1671   2.263   3.283   3.782
  489HOH     H1 1672   2.313   3.305   3.860
  489HOH     H2 1673   2.310   3.326   3.710
  490HOH      O 1674   0.620   2.440   2.238
  490HOH     H1 1675   0.588   2.371   2.180
  490HOH     H2 1676   0.628   2.398   2.324
  491HOH      O 1677   0.605   0.059   3.771
  491HOH     H1 1678   0.633   0.141   3.729
  491HOH     H2 1679   0.510   0.058   3.758
  492HOH      O 1680   2.725   0.365   2.895
  492HOH     H1 1681   2.641   0.404   2.917
  492HOH     H2 1682   2.789   0.435   2.910
  493HOH      O 1683   1.495   2.497   3.273
  493HOH     H1 1684   1.526   2.417   3.229
  493HOH     H2 1685   1.410   2.472   3.310
  494HOH      O 1686   3.587   1.099   2.340
  494HOH     H1 1687   3.588   1.171   2.276
  494HOH     H2 1688   3.678   1.092   2.369
  495HOH      O 1689   0.782   3.356   0.450
  495HOH     H1 1690   0.851   3.308   0.497
  495HOH     H2 1691   0.701   3.328   0.492
  496HOH      O 1692   3.445   3.692   0.939
  496HOH     H1 1693   3.540   3.704   0.944
  496HOH     H2 1694   3.422   3.642   1.017
  497HOH      O 1695   1.577   3.966   2.324
  497HOH     H1 1696   1.634   4.009   2.261
  497HOH     H2 1697   1.576   4.025   2.400
  498HOH      O 1698   3.261   3.056   0.579
  498HOH     H1 1699   3.205   2.997   0.528
  498HOH     H2 1700   3.256   3.140   0.533
  499HOH      O 1701   1.637   2.291   3.169
  499HOH     H1 1702   1.607   2.230   3.237
  499HOH     H2 1703   1.728   2.309   3.192
  500HOH      O 1704   2.009   3.855   1.692
  500HOH     H1 1705   1.965   3.779   1.655
  500HOH     H2 1706   2.094   3.822   1.720
  501HOH      O 1707   4.011   3.557   2.782
  501HOH     H1 1708   4.084   3.569   2.721
  501HOH     H2 1709   3.998   3.644   2.822
  502HOH      O 1710   0.185   1.650   2.467
  502HOH     H1 1711   0.127   1.596   2.414
  502HOH     H2 1712   0.134   1.672   2.545
  503HOH      O 1713   3.533   0.509   0.676
  503HOH     H1 1714   3.627   0.524   0.678
  503HOH     H2 1715   3.499   0.558   0.751
  504HOH      O 1716   0.627   2.630   2.857
  504HOH     H1 1717   0.688   2.700   2.881
  504HOH     H2 1718   0.613   2.642   2.763
  505HOH      O 1719   0.627   0.227   1.861
  505HOH     H1 1720   0.624   0.133   1.877
  505HOH     H2 1721   0.543   0.246   1.819
  506HOH      O 1722   1.682   3.498   2.745
  506HOH     H1 1723   1.613   3.533   2.689
  506HOH     H2 1724   1.715   3.421   2.698
  507HOH      O 1725   1.791   3.683   3.749
  507HOH     H1 1726   1.740   3.716   3.675
  507HOH     H2 1727   1.801   3.590   3.730
  508HOH      O 1728   3.741   3.274   2.649
  508HOH     H1 1729   3.737   3.335   2.723
  508HOH     H2 1730   3.808   3.311   2.591
  509HOH      O 1731   0.658   4.030   3.041
  509HOH     H1 1732   0.563   4.033   3.037
  509HOH     H2 1733   0.682   4.106   3.095
  510HOH      O 1734   0.057   3.252   1.657
  510HOH     H1 1735  -0.035   3.226   1.667
  510HOH     H2 1736   0.054   3.328   1.599
  511HOH      O 1737   3.413   1.577   1.817
  511HOH     H1 1738   3.444   1.572   1.727
  511HOH     H2 1739   3.321   1.602   1.810
  512HOH      O 1740   1.136   2.712   3.235
  512HOH     H1 1741   1.053   2.704   3.281
  512HOH     H2 1742   1.118   2.682   3.146
  513HOH      O 1743   2.866   2.187   3.903
  513HOH     H1 1744   2.926   2.138   3.847
  513HOH     H2 1745   2.864   2.138   3.985
  514HOH      O 1746   0.155   1.829   3.535
  514HOH     H1 1747   0.198   1.911   3.512
  514HOH     H2 1748   0.088   1.817   3.467
  515HOH      O 1749   1.633   1.577   2.053
  515HOH     H1 1750   1.639   1.590   1.959
  515HOH     H2 1751   1.713   1.530   2.077
  516HOH      O 1752   1.852   3.899   0.801
  516HOH     H1 1753   1.859   3.843   0.879
  516HOH     H2 1754   1.939   3.896   0.762
  517HOH      O 1755   3.384   3.465   3.915
  517HOH     H1 1756   3.388   3.526   3.842
  517HOH     H2 1757   3.330   3.392   3.883
  518HOH      O 1758   3.623   3.299   2.193
  518HOH     H1 1759   3.574   3.319   2.113
  518HOH     H2 1760   3.583   3.355   2.259
  519HOH      O 1761   1.570   1.491   1.046
  519HOH     H1 1762   1.590   1.500   0.953
  519HOH     H2 1763   1.484   1.532   1.057
  520HOH      O 1764   3.680   3.633   0.715
  520HOH     H1 1765   3.644   3.721   0.711
  520HOH     H2 1766   3.612   3.577   0.677
  521HOH      O 1767   2.333   3.214   3.260
  521HOH     H1 1768   2.290   3.191   3.178
  521HOH     H2 1769   2.262   3.222   3.323
  522HOH      O 1770   3.686   2.745   3.162
  522HOH     H1 1771   3.688   2.749   3.257
  522HOH     H2 1772   3.654   2.657   3.142
  523HOH      O 1773   2.194   2.675   0.815
  523HOH     H1 1774   2.178   2.677   0.909
  523HOH     H2 1775   2.148   2.752   0.781
  524HOH      O 1776   3.814   1.132   0.172
  524HOH     H1 1777   3.827   1.052   0.121
  524HOH     H2 1778   3.893   1.140   0.225
  525HOH      O 1779   3.545   1.593   0.252
  525HOH     H1 1780   3.599   1.553   0.183
  525HOH     H2 1781   3.516   1.676   0.214
  526HOH      O 1782   2.750   1.121   3.195
  526HOH     H1 1783   2.801   1.105   3.115
  526HOH     H2 1784   2.787   1.060   3.259
  527HOH      O 1785   3.158   0.034   1.672
  527HOH     H1 1786   3.238   0.085   1.686
  527HOH     H2 1787   3.189  -0.046   1.628
  528HOH      O 1788   1.557   2.896   2.572
  528HOH     H1 1789   1.650   2.906   2.594
  528HOH     H2 1790   1.552   2.816   2.520
  529HOH      O 1791   0.652   1.820   0.142
  529HOH     H1 1792   0.740   1.783   0.149
  529HOH     H2 1793   0.666   1.909   0.110
  530HOH      O 1794   2.255   4.001   1.827
  530HOH     H1 1795   2.247   3.906   1.833
  530HOH     H2 1796   2.319   4.015   1.757
  531HOH      O 1797   0.661   0.688   1.487
  531HOH     H1 1798   0.693   0.611   1.441
  531HOH     H2 1799   0.675   0.668   1.580
  532HOH      O 1800   2.882   1.159   0.899
  532HOH     H1 1801   2.939   1.200   0.833
  532HOH     H2 1802   2.914   1.069   0.905
  533HOH      O 1803   3.966   1.758   3.864
  533HOH     H1 1804   3.970   1.705   3.944
  533HOH     H2 1805   3.890   1.724   3.816
  534HOH      O 1806   3.913   0.237   2.788
  534HOH     H1 1807   3.906   0.258   2.881
  534HOH     H2 1808   3.970   0.306   2.752
  535HOH      O 1809   1.359   1.550   1.551
  535HOH     H1 1810   1.268   1.565   1.525
  535HOH     H2 1811   1.369   1.455   1.551
  536HOH      O 1812   2.598   1.862   3.919
  536HOH     H1 1813   2.644   1.808   3.854
  536HOH     H2 1814   2.544   1.921   3.866
  537HOH      O 1815   3.712   3.583   1.155
  537HOH     H1 1816   3.723   3.670   1.117
  537HOH     H2 1817   3.711   3.524   1.080
  538HOH      O 1818   0.264   3.059   3.560
  538HOH     H1 1819   0.317   2.979   3.566
  538HOH     H2 1820   0.323   3.129   3.589
  539HOH      O 1821   3.883   0.855   2.902
  539HOH     H1 1822   3.819   0.896   2.844
  539HOH     H2 1823   3.840   0.852   2.987
  540HOH      O 1824   0.955   2.289   2.471
  540HOH     H1 1825   0.965   2.195   2.485
  540HOH     H2 1826   1.021   2.329   2.528
  541HOH      O 1827   3.206   3.873   3.724
  541HOH     H1 1828   3.285   3.880   3.778
  541HOH     H2 1829   3.174   3.963   3.717
  542HOH      O 1830   3.621   0.027   1.002
  542HOH     H1 1831   3.530   0.028   0.972
  542HOH     H2 1832   3.624   0.094   1.071
  543HOH      O 1833   1.997   3.100   0.518
  543HOH     H1 1834   2.048   3.053   0.583
  543HOH     H2 1835   2.017   3.056   0.435
  544HOH      O 1836   0.832   3.527   2.219
  544HOH     H1 1837   0.793   3.455   2.267
  544HOH     H2 1838   0.784   3.605   2.248
  545HOH      O 1839   2.401   2.353   1.607
  545HOH     H1 1840   2.370   2.331   1.519
  545HOH     H2 1841   2.323   2.346   1.662
  546HOH      O 1842   0.557   3.105   2.812
  546HOH     H1 1843   0.642   3.145   2.831
  546HOH     H2 1844   0.563   3.079   2.720
  547HOH      O 1845   3.748   0.885   1.405
  547HOH     H1 1846   3.745   0.981   1.398
  547HOH     H2 1847   3.839   0.866   1.429
  548HOH      O 1848   1.843   2.040   0.476
  548HOH     H1 1849   1.764   2.033   0.422
  548HOH     H2 1850   1.810   2.055   0.564
  549HOH      O 1851   1.039   3.595   1.931
  549HOH     H1 1852   0.985   3.541   1.874
  549HOH     H2 1853   1.127   3.588   1.894
  550HOH      O 1854   1.263   0.755   0.470
  550HOH     H1 1855   1.333   0.690   0.467
  550HOH     H2 1856   1.212   0.740   0.390
  551HOH      O 1857   3.708   1.356   0.082
  551HOH     H1 1858   3.752   1.272   0.085
  551HOH     H2 1859   3.777   1.418   0.056
  552HOH      O 1860   2.419   0.882   2.168
  552HOH     H1 1861   2.352   0.898   2.102
  552HOH     H2 1862   2.464   0.966   2.178
  553HOH      O 1863   3.553   0.882   0.917
  553HOH     H1 1864   3.521   0.924   0.997
  553HOH     H2 1865   3.563   0.954   0.854
  554HOH      O 1866   1.699   0.338   1.403
  554HOH     H1 1867   1.738   0.407   1.349
  554HOH     H2 1868   1.605   0.358   1.402
  555HOH      O 1869   1.929   0.771   3.116
  555HOH     H1 1870   1.932   0.862   3.147
  555HOH     H2 1871   1.838   0.744   3.133
  556HOH      O 1872   3.541   0.080   0.728
  556HOH     H1 1873   3.595   0.154   0.698
  556HOH     H2 1874   3.583   0.051   0.809
  557HOH      O 1875   3.042   0.846   1.395
  557HOH     H1 1876   3.026   0.911   1.463
  557HOH     H2 1877   3.108   0.788   1.432
  558HOH      O 1878   0.076   1.575   1.398
  558HOH     H1 1879   0.114   1.627   1.327
  558HOH     H2 1880   0.148   1.564   1.460
  559HOH      O 1881   2.744   2.404   1.104
  559HOH     H1 1882   2.677   2.336   1.112
  559HOH     H2 1883   2.797   2.393   1.183
  560HOH      O 1884   2.410   3.262   1.355
  560HOH     H1 1885   2.411   3.247   1.260
  560HOH     H2 1886   2.386   3.177   1.392
  561HOH      O 1887   0.099   0.721   3.403
  561HOH     H1 1888   0.120   0.808   3.436
  561HOH     H2 1889   0.101   0.730   3.308
  562HOH      O 1890   1.947   2.294   1.247
  562HOH     H1 1891   1.894   2.225   1.209
  562HOH     H2 1892   1.973   2.261   1.333
  563HOH      O 1893   0.837   0.031   1.043
  563HOH     H1 1894   0.757  -0.008   1.078
  563HOH     H2 1895   0.886   0.059   1.120
  564HOH      O 1896   2.263   3.146   0.785
  564HOH     H1 1897   2.258   3.241   0.795
  564HOH     H2 1898   2.354   3.129   0.762
  565HOH      O 1899   2.895   2.817   2.450
  565HOH     H1 1900   2.944   2.776   2.521
  565HOH     H2 1901   2.945   2.895   2.428
  566HOH      O 1902   2.403   2.483   0.335
  566HOH     H1 1903   2.479   2.440   0.374
  566HOH     H2 1904   2.437   2.530   0.259
  567HOH      O 1905   1.106   3.553   1.434
  567HOH     H1 1906   1.043   3.497   1.389
  567HOH     H2 1907   1.053   3.623   1.472
  568HOH      O 1908   1.170   2.667   2.631
  568HOH     H1 1909   1.176   2.708   2.718
  568HOH     H2 1910   1.253   2.620   2.621
  569HOH      O 1911   0.670   0.297   3.663
  569HOH     H1 1912   0.747   0.271   3.613
  569HOH     H2 1913   0.690   0.384   3.697
  570HOH      O 1914   0.079   2.002   3.198
  570HOH     H1 1915   0.174   2.005   3.213
  570HOH     H2 1916   0.055   2.093   3.180
  571HOH      O 1917   3.953   0.079   1.141
  571HOH     H1 1918   3.983   0.119   1.222
  571HOH     H2 1919   3.964   0.147   1.075
  572HOH      O 1920   0.826   2.181   0.321
  572HOH     H1 1921   0.900   2.160   0.378
  572HOH     H2 1922   0.749   2.173   0.377
  573HOH      O 1923   1.109   3.225   2.452
  573HOH     H1 1924   1.084   3.160   2.386
  573HOH     H2 1925   1.133   3.303   2.402
  574HOH      O 1926   1.331   3.676   0.215
  574HOH     H1 1927   1.299   3.608   0.155
  574HOH     H2 1928   1.307   3.643   0.302
  575HOH      O 1929   3.341   2.238   3.936
  575HOH     H1 1930   3.367   2.155   3.897
  575HOH     H2 1931   3.320   2.216   4.027
  576HOH      O 1932   2.436   1.728   0.532
  576HOH     H1 1933   2.454   1.685   0.448
  576HOH     H2 1934   2.355   1.776   0.518
  577HOH      O 1935   3.036   2.353   1.537
  577HOH     H1 1936   3.111   2.400   1.575
  577HOH     H2 1937   3.069   2.322   1.452
  578HOH      O 1938   0.297   1.363   3.295
  578HOH     H1 1939   0.349   1.300   3.345
  578HOH     H2 1940   0.350   1.443   3.294
  579HOH      O 1941   1.400   1.010   1.357
  579HOH     H1 1942   1.349   0.992   1.278
  579HOH     H2 1943   1.343   1.066   1.410
  580HOH      O 1944   2.286   1.353   0.140
  580HOH     H1 1945   2.379   1.333   0.150
  580HOH     H2 1946   2.262   1.398   0.221
  581HOH      O 1947   2.599   0.870   3.310
  581HOH     H1 1948   2.556   0.886   3.394
  581HOH     H2 1949   2.677   0.819   3.332
  582HOH      O 1950   2.103   2.274   3.094
  582HOH     H1 1951   2.182   2.264   3.146
  582HOH     H2 1952   2.127   2.336   3.025
  583HOH      O 1953   0.318   2.170   2.281
  583HOH     H1 1954   0.328   2.076   2.296
  583HOH     H2 1955   0.406   2.206   2.297
  584HOH      O 1956   0.262   0.519   3.810
  584HOH     H1 1957   0.340   0.530   3.757
  584HOH     H2 1958   0.189   0.538   3.750
  585HOH      O 1959   0.809   1.171   3.773
  585HOH     H1 1960   0.831   1.090   3.819
  585HOH     H2 1961   0.715   1.166   3.758
  586HOH      O 1962   2.432   0.827   1.830
  586HOH     H1 1963   2.358   0.866   1.876
  586HOH     H2 1964   2.411   0.734   1.824
  587HOH      O 1965   3.646   3.019   3.885
  587HOH     H1 1966   3.657   3.074   3.807
  587HOH     H2 1967   3.712   2.951   3.875
  588HOH      O 1968   2.231   2.876   0.085
  588HOH     H1 1969   2.294   2.849   0.152
  588HOH     H2 1970   2.175   2.939   0.130
  589HOH      O 1971   3.136   1.779   2.044
  589HOH     H1 1972   3.095   1.762   2.129
  589HOH     H2 1973   3.081   1.732   1.982
  590HOH      O 1974   3.759   0.409   0.095
  590HOH     H1 1975   3.677   0.359   0.098
  590HOH     H2 1976   3.738   0.490   0.141
  591HOH      O 1977   2.534   2.117   1.734
  591HOH     H1 1978   2.621   2.149   1.757
  591HOH     H2 1979   2.489   2.193   1.700
  592HOH      O 1980   2.478   0.232   2.737
  592HOH     H1 1981   2.480   0.149   2.689
  592HOH     H2 1982   2.561   0.234   2.786
  593HOH      O 1983   2.793   0.542   1.556
  593HOH     H1 1984   2.734   0.612   1.527
  593HOH     H2 1985   2.798   0.553   1.651
  594HOH      O 1986   1.402   1.042   3.451
  594HOH     H1 1987   1.444   1.096   3.384
  594HOH     H2 1988   1.401   1.098   3.529
  595HOH      O 1989   0.192   1.510   0.149
  595HOH     H1 1990   0.152   1.597   0.158
  595HOH     H2 1991   0.272   1.526   0.100
  596HOH      O 1992   3.637   3.703   1.718
  596HOH     H1 1993   3.649   3.638   1.787
  596HOH     H2 1994   3.541   3.712   1.711
  597HOH      O 1995   2.413   3.571   1.991
  597HOH     H1 1996   2.355   3.507   2.033
  597HOH     H2 1997   2.487   3.578   2.052
  598HOH      O 1998   3.666   2.838   1.726
  598HOH     H1 1999   3.605   2.850   1.798
  598HOH     H2 2000   3.749   2.816   1.769
  599HOH      O 2001   3.741   3.808   0.993
  599HOH     H1 2002   3.752   3.840   0.904
  599HOH     H2 2003   3.715   3.885   1.044
  600HOH      O 2004   3.423   0.460   3.453
  600HOH     H1 2005   3.332   0.488   3.446
  600HOH     H2 2006   3.470   0.537   3.485
  601HOH      O 2007   0.027   1.989   3.750
  601HOH     H1 2008   0.082   1.990   3.671
  601HOH     H2 2009   0.014   1.896   3.768
  602HOH      O 2010   1.104   1.057   3.757
  602HOH     H1 2011   1.104   0.970   3.797
  602HOH     H2 2012   1.026   1.058   3.702
  603HOH      O 2013   3.917   0.104   1.922
  603HOH     H1 2014   3.914   0.013   1.893
  603HOH     H2 2015   3.852   0.149   1.868
  604HOH      O 2016   1.412   0.814   1.710
  604HOH     H1 2017   1.319   0.832   1.694
  604HOH     H2 2018   1.445   0.786   1.626
  605HOH      O 2019   3.907   1.022   3.985
  605HOH     H1 2020   3.986   1.076   3.981
  605HOH     H2 2021   3.937   0.937   4.018
  606HOH      O 2022   2.857   1.114   1.247
  606HOH     H1 2023   2.787   1.051   1.229
  606HOH     H2 2024   2.910   1.072   1.315
  607HOH      O 2025   2.455   2.825   3.862
  607HOH     H1 2026   2.452   2.865   3.775
  607HOH     H2 2027   2.378   2.768   3.866
  608HOH      O 2028   0.679   3.106   3.567
  608HOH     H1 2029   0.615   3.159   3.519
  608HOH     H2 2030   0.741   3.076   3.501
  609HOH      O 2031   3.867   0.074   2.270
  609HOH     H1 2032   3.883   0.090   2.363
  609HOH     H2 2033   3.784   0.026   2.269
  610HOH      O 2034   0.806   3.442   3.274
  610HOH     H1 2035   0.898   3.421   3.258
  610HOH     H2 2036   0.787   3.512   3.212
  611HOH      O 2037   0.736   2.159   2.812
  611HOH     H1 2038   0.734   2.193   2.722
  611HOH     H2 2039   0.760   2.067   2.802
  612HOH      O 2040   1.084   3.534   2.631
  612HOH     H1 2041   0.989   3.522   2.641
  612HOH     H2 2042   1.099   3.622   2.665
  613HOH      O 2043   3.582   0.802   0.484
  613HOH     H1 2044   3.498   0.801   0.529
  613HOH     H2 2045   3.639   0.854   0.540
  614HOH      O 2046   0.158   1.750   1.197
  614HOH     H1 2047   0.194   1.833   1.228
  614HOH     H2 2048   0.081   1.775   1.146
  615HOH      O 2049   0.337   3.830   3.568
  615HOH     H1 2050   0.299   3.874   3.491
  615HOH     H2 2051   0.346   3.900   3.633
  616HOH      O 2052   3.941   1.960   0.800
  616HOH     H1 2053   3.847   1.946   0.790
  616HOH     H2 2054   3.966   2.010   0.722
  617HOH      O 2055   3.083   2.311   1.248
  617HOH     H1 2056   3.175   2.338   1.247
  617HOH     H2 2057   3.036   2.385   1.210
  618HOH      O 2058   0.107   0.053   0.608
  618HOH     H1 2059   0.088   0.003   0.687
  618HOH     H2 2060   0.202   0.041   0.595
  619HOH      O 2061   4.011   1.415   0.464
  619HOH     H1 2062   3.948   1.460   0.408
  619HOH     H2 2063   3.961   1.345   0.505
  620HOH      O 2064   1.368   3.565   0.575
  620HOH     H1 2065   1.275   3.552   0.592
  620HOH     H2 2066   1.412   3.498   0.628
  621HOH      O 2067   1.506   2.879   0.818
  621HOH     H1 2068   1.476   2.902   0.730
  621HOH     H2 2069   1.572   2.811   0.805
  622HOH      O 2070   4.026   3.322   1.915
  622HOH     H1 2071   4.060   3.287   1.833
  622HOH     H2 2072   3.978   3.248   1.954
  623HOH      O 2073   3.168   3.076   2.738
  623HOH     H1 2074   3.237   3.027   2.782
  623HOH     H2 2075   3.119   3.009   2.690
  624HOH      O 2076   2.141   0.692   0.749
  624HOH     H1 2077   2.091   0.613   0.729
  624HOH     H2 2078   2.074   0.760   0.760
  625HOH      O 2079   0.268   2.440   1.900
  625HOH     H1 2080   0.310   2.525   1.886
  625HOH     H2 2081   0.200   2.435   1.832
  626HOH      O 2082   1.347   3.441   0.961
  626HOH     H1 2083   1.268   3.438   1.015
  626HOH     H2 2084   1.376   3.532   0.964
  627HOH      O 2085   2.865   0.823   3.512
  627HOH     H1 2086   2.901   0.899   3.468
  627HOH     H2 2087   2.805   0.859   3.578
  628HOH      O 2088   0.269   1.842   0.665
  628HOH     H1 2089   0.212   1.772   0.632
  628HOH     H2 2090   0.229   1.868   0.748
  629HOH      O 2091   1.644   2.832   1.387
  629HOH     H1 2092   1.566   2.854   1.336
  629HOH     H2 2093   1.665   2.742   1.361
  630HOH      O 2094   0.134   3.688   3.871
  630HOH     H1 2095   0.065   3.747   3.840
  630HOH     H2 2096   0.209   3.745   3.886
  631HOH      O 2097   2.520   3.004   0.756
  631HOH     H1 2098   2.603   3.051   0.756
  631HOH     H2 2099   2.517   2.961   0.671
  632HOH      O 2100   0.928   1.565   3.527
  632HOH     H1 2101   0.975   1.539   3.447
  632HOH     H2 2102   0.931   1.660   3.526
  633HOH      O 2103   1.317   3.591   2.115
  633HOH     H1 2104   1.372   3.527   2.068
  633HOH     H2 2105   1.362   3.603   2.199
  634HOH      O 2106   1.503   2.202   0.026
  634HOH     H1 2107   1.572   2.250  -0.018
  634HOH     H2 2108   1.536   2.112   0.031
  635HOH      O 2109   3.382   0.470   2.146
  635HOH     H1 2110   3.440   0.534   2.106
  635HOH     H2 2111   3.301   0.519   2.162
  636HOH      O 2112   0.414   2.669   2.276
  636HOH     H1 2113   0.483   2.605   2.258
  636HOH     H2 2114   0.388   2.650   2.367
  637HOH      O 2115   1.422   3.640   1.493
  637HOH     H1 2116   1.414   3.726   1.452
  637HOH     H2 2117   1.449   3.659   1.583
  638HOH      O 2118   1.251   3.826   0.789
  638HOH     H1 2119   1.176   3.801   0.842
  638HOH     H2 2120   1.298   3.744   0.773
  639HOH      O 2121   1.470   2.934   1.195
  639HOH     H1 2122   1.403   2.885   1.147
  639HOH     H2 2123   1.480   3.015   1.146
  640HOH      O 2124   0.804   3.489   2.608
  640HOH     H1 2125   0.848   3.406   2.625
  640HOH     H2 2126   0.711   3.467   2.608
  641HOH      O 2127   3.555   2.200   0.452
  641HOH     H1 2128   3.600   2.234   0.529
  641HOH     H2 2129   3.560   2.272   0.388
  642HOH      O 2130   0.116   1.726   3.181
  642HOH     H1 2131   0.074   1.805   3.214
  642HOH     H2 2132   0.207   1.751   3.166
  643HOH      O 2133   1.697   1.748   1.772
  643HOH     H1 2134   1.727   1.775   1.686
  643HOH     H2 2135   1.644   1.670   1.756
  644HOH      O 2136   1.590   2.778   1.956
  644HOH     H1 2137   1.622   2.804   1.870
  644HOH     H2 2138   1.622   2.689   1.968
  645HOH      O 2139   2.202   3.591   1.438
  645HOH     H1 2140   2.235   3.586   1.528
  645HOH     H2 2141   2.166   3.504   1.422
  646HOH      O 2142   1.637   2.945   3.048
  646HOH     H1 2143   1.611   2.872   3.103
  646HOH     H2 2144   1.730   2.931   3.031
  647HOH      O 2145   0.137   1.575   0.898
  647HOH     H1 2146   0.100   1.492   0.927
  647HOH     H2 2147   0.198   1.552   0.828
  648HOH      O 2148   2.330   3.833   3.139
  648HOH     H1 2149   2.268   3.835   3.066
  648HOH     H2 2150   2.281   3.797   3.213
  649HOH      O 2151   3.819   0.860   1.096
  649HOH     H1 2152   3.841   0.792   1.033
  649HOH     H2 2153   3.755   0.819   1.154
  650HOH      O 2154   1.685   1.967   3.489
  650HOH     H1 2155   1.668   1.919   3.571
  650HOH     H2 2156   1.776   1.996   3.498
  651HOH      O 2157   3.661   1.769   1.303
  651HOH     H1 2158   3.567   1.781   1.316
  651HOH     H2 2159   3.701   1.801   1.384
  652HOH      O 2160   3.489   3.399   0.277
  652HOH     H1 2161   3.585   3.398   0.278
  652HOH     H2 2162   3.464   3.307   0.273
  653HOH      O 2163   0.471   0.117   3.365
  653HOH     H1 2164   0.416   0.110   3.287
  653HOH     H2 2165   0.427   0.182   3.420
  654HOH      O 2166   2.287   2.288   1.336
  654HOH     H1 2167   2.199   2.295   1.372
  654HOH     H2 2168   2.288   2.349   1.262
  655HOH      O 2169   2.714   0.407   0.458
  655HOH     H1 2170   2.706   0.483   0.400
  655HOH     H2 2171   2.676   0.437   0.541
  656HOH      O 2172   3.614   1.115   0.534
  656HOH     H1 2173   3.690   1.061   0.556
  656HOH     H2 2174   3.601   1.170   0.612
  657HOH      O 2175   0.488   2.913   3.574
  657HOH     H1 2176   0.563   2.968   3.555
  657HOH     H2 2177   0.525   2.835   3.617
  658HOH      O 2178   0.929   2.113   3.427
  658HOH     H1 2179   0.967   2.198   3.450
  658HOH     H2 2180   0.880   2.088   3.505
  659HOH      O 2181   0.829   2.384   2.953
  659HOH     H1 2182   0.817   2.303   2.903
  659HOH     H2 2183   0.747   2.431   2.941
  660HOH      O 2184   3.377   3.152   0.241
  660HOH     H1 2185   3.380   3.134   0.147
  660HOH     H2 2186   3.448   3.100   0.279
  661HOH      O 2187   0.360   3.517   0.343
  661HOH     H1 2188   0.341   3.574   0.269
  661HOH     H2 2189   0.301   3.442   0.331
  662HOH      O 2190   1.108   4.034   2.641
  662HOH     H1 2191   1.165   4.066   2.571
  662HOH     H2 2192   1.034   4.094   2.640
  663HOH      O 2193   0.901   1.665   0.096
  663HOH     H1 2194   0.951   1.718   0.035
  663HOH     H2 2195   0.947   1.581   0.098
  664HOH      O 2196   3.015   3.282   0.193
  664HOH     H1 2197   2.987   3.335   0.119
  664HOH     H2 2198   2.979   3.195   0.175
  665HOH      O 2199   2.192   3.031   2.210
  665HOH     H1 2200   2.218   3.123   2.208
  665HOH     H2 2201   2.248   2.989   2.144
  666HOH      O 2202   3.031   2.138   2.257
  666HOH     H1 2203   3.016   2.206   2.322
  666HOH     H2 2204   2.950   2.086   2.258
  667HOH      O 2205   1.992   3.689   1.273
  667HOH     H1 2206   1.928   3.681   1.343
  667HOH     H2 2207   2.077   3.688   1.318
  668HOH      O 2208   0.570   1.475   0.279
  668HOH     H1 2209   0.520   1.556   0.272
  668HOH     H2 2210   0.523   1.424   0.344
  669HOH      O 2211   0.212   0.783   0.387
  669HOH     H1 2212   0.247   0.827   0.309
  669HOH     H2 2213   0.204   0.691   0.361
  670HOH      O 2214   0.289   2.113   1.535
  670HOH     H1 2215   0.220   2.072   1.483
  670HOH     H2 2216   0.261   2.100   1.625
  671HOH      O 2217   2.118   3.935   0.675
  671HOH     H1 2218   2.206   3.912   0.703
  671HOH     H2 2219   2.129   3.967   0.585
  672HOH      O 2220   0.756   1.358   0.867
  672HOH     H1 2221   0.707   1.438   0.886
  672HOH     H2 2222   0.699   1.310   0.807
  673HOH      O 2223   1.830   1.099   2.253
  673HOH     H1 2224   1.839   1.075   2.161
  673HOH     H2 2225   1.802   1.017   2.296
  674HOH      O 2226   3.668   1.342   2.259
  674HOH     H1 2227   3.614   1.420   2.249
  674HOH     H2 2228   3.726   1.342   2.183
  675HOH      O 2229   0.928   1.990   1.517
  675HOH     H1 2230   0.840   1.952   1.516
  675HOH     H2 2231   0.983   1.924   1.475
  676HOH      O 2232   0.792   2.496   3.497
  676HOH     H1 2233   0.713   2.483   3.444
  676HOH     H2 2234   0.843   2.560   3.447
  677HOH      O 2235   3.865   3.649   3.731
  677HOH     H1 2236   3.780   3.678   3.698
  677HOH     H2 2237   3.916   3.729   3.739
  678HOH      O 2238   3.712   0.098   3.598
  678HOH     H1 2239   3.621   0.125   3.590
  678HOH     H2 2240   3.737   0.071   3.510
  679HOH      O 2241   0.241   3.656   1.988
  679HOH     H1 2242   0.311   3.717   2.008
  679HOH     H2 2243   0.277   3.600   1.919
  680HOH      O 2244   1.623   3.697   3.473
  680HOH     H1 2245   1.547   3.733   3.520
  680HOH     H2 2246   1.678   3.773   3.455
  681HOH      O 2247   2.538   0.265   2.386
  681HOH     H1 2248   2.452   0.223   2.383
  681HOH     H2 2249   2.591   0.207   2.440
  682HOH      O 2250   3.226   0.365   2.755
  682HOH     H1 2251   3.176   0.349   2.836
  682HOH     H2 2252   3.282   0.439   2.776
  683HOH      O 2253   2.052   1.941   1.675
  683HOH     H1 2254   1.978   1.990   1.710
  683HOH     H2 2255   2.013   1.879   1.613
  684HOH      O 2256   2.491   0.781   2.488
  684HOH     H1 2257   2.533   0.857   2.448
  684HOH     H2 2258   2.446   0.737   2.416
  685HOH      O 2259   0.945   0.057   3.800
  685HOH     H1 2260   0.978   0.105   3.876
  685HOH     H2 2261   1.004  -0.018   3.791
  686HOH      O 2262   1.640   1.964   1.956
  686HOH     H1 2263   1.545   1.974   1.960
  686HOH     H2 2264   1.656   1.913   1.877
  687HOH      O 2265   1.247   2.857   1.049
  687HOH     H1 2266   1.206   2.876   0.964
  687HOH     H2 2267   1.294   2.775   1.034
  688HOH      O 2268   3.863   0.675   1.731
  688HOH     H1 2269   3.910   0.632   1.803
  688HOH     H2 2270   3.898   0.634   1.652
  689HOH      O 2271   1.767   2.154   2.720
  689HOH     H1 2272   1.692   2.213   2.726
  689HOH     H2 2273   1.763   2.103   2.801
  690HOH      O 2274   2.803   1.563   1.698
  690HOH     H1 2275   2.854   1.627   1.648
  690HOH     H2 2276   2.854   1.482   1.692
  691HOH      O 2277   3.055   0.988   0.187
  691HOH     H1 2278   3.033   0.936   0.110
  691HOH     H2 2279   3.151   0.983   0.193
  692HOH      O 2280   0.087   3.488   1.507
  692HOH     H1 2281   0.108   3.501   1.415
  692HOH     H2 2282   0.126   3.563   1.552
  693HOH      O 2283   1.143   1.789   0.437
  693HOH     H1 2284   1.197   1.731   0.491
  693HOH     H2 2285   1.141   1.871   0.486
  694HOH      O 2286   3.341   1.049   0.478
  694HOH     H1 2287   3.429   1.069   0.509
  694HOH     H2 2288   3.283   1.085   0.546
  695HOH      O 2289   2.898   2.925   2.979
  695HOH     H1 2290   2.830   2.865   2.948
  695HOH     H2 2291   2.972   2.868   3.002
  696HOH      O 2292   2.831   3.344   1.048
  696HOH     H1 2293   2.735   3.349   1.045
  696HOH     H2 2294   2.853   3.376   1.136
  697HOH      O 2295   3.191   1.170   3.362
  697HOH     H1 2296   3.266   1.222   3.334
  697HOH     H2 2297   3.225   1.115   3.432
  698HOH      O 2298   0.453   1.971   1.893
  698HOH     H1 2299   0.534   2.003   1.853
  698HOH     H2 2300   0.481   1.904   1.955
  699HOH      O 2301   0.541   2.386   1.032
  699HOH     H1 2302   0.472   2.431   1.080
  699HOH     H2 2303   0.606   2.454   1.012
  700HOH      O 2304   2.050   1.446   2.678
  700HOH     H1 2305   2.005   1.387   2.619
  700HOH     H2 2306   2.143   1.426   2.666
  701HOH      O 2307   1.740   1.110   1.127
  701HOH     H1 2308   1.649   1.139   1.116
  701HOH     H2 2309   1.732   1.017   1.149
  702HOH      O 2310   3.783   2.535   1.366
  702HOH     H1 2311   3.832   2.476   1.423
  702HOH     H2 2312   3.782   2.618   1.413
  703HOH      O 2313   1.878   0.132   1.320
  703HOH     H1 2314   1.789   0.165   1.336
  703HOH     H2 2315   1.930   0.169   1.392
  704HOH      O 2316   2.266   1.810   0.846
  704HOH     H1 2317   2.309   1.858   0.917
  704HOH     H2 2318   2.336   1.758   0.807
  705HOH      O 2319   3.483   1.941   0.420
  705HOH     H1 2320   3.524   2.026   0.434
  705HOH     H2 2321   3.402   1.960   0.373
  706HOH      O 2322   2.036   0.500   2.793
  706HOH     H1 2323   1.978   0.497   2.717
  706HOH     H2 2324   2.124   0.489   2.756
  707HOH      O 2325   3.419   1.027   1.671
  707HOH     H1 2326   3.500   0.977   1.669
  707HOH     H2 2327   3.417   1.067   1.758
  708HOH      O 2328   0.980   1.135   0.043
  708HOH     H1 2329   0.936   1.163  -0.037
  708HOH     H2 2330   1.062   1.184   0.044
  709HOH      O 2331   1.257   1.127   2.828
  709HOH     H1 2332   1.307   1.093   2.754
  709HOH     H2 2333   1.187   1.064   2.841
  710HOH      O 2334   1.082   0.168   1.439
  710HOH     H1 2335   1.009   0.207   1.488
  710HOH     H2 2336   1.130   0.243   1.405
  711HOH      O 2337   3.622   0.844   1.645
  711HOH     H1 2338   3.659   0.851   1.557
  711HOH     H2 2339   3.693   0.807   1.698
  712HOH      O 2340   2.682   2.389   3.829
  712HOH     H1 2341   2.733   2.309   3.821
  712HOH     H2 2342   2.596   2.360   3.859
  713HOH      O 2343   1.024   2.270   2.149
  713HOH     H1 2344   0.969   2.204   2.191
  713HOH     H2 2345   1.058   2.323   2.221
  714HOH      O 2346   3.671   2.024   0.150
  714HOH     H1 2347   3.761   2.056   0.151
  714HOH     H2 2348   3.663   1.980   0.065
  715HOH      O 2349   3.853   0.627   0.314
  715HOH     H1 2350   3.765   0.625   0.352
  715HOH     H2 2351   3.908   0.588   0.381
  716HOH      O 2352   2.711   3.501   3.377
  716HOH     H1 2353   2.708   3.498   3.472
  716HOH     H2 2354   2.626   3.469   3.348
  717HOH      O 2355   0.794   0.154   2.114
  717HOH     H1 2356   0.776   0.195   2.030
  717HOH     H2 2357   0.883   0.181   2.135
  718HOH      O 2358   3.114   0.077   3.664
  718HOH     H1 2359   3.156   0.109   3.585
  718HOH     H2 2360   3.020   0.093   3.650
  719HOH      O 2361   0.241   3.715   0.189
  719HOH     H1 2362   0.148   3.704   0.207
  719HOH     H2 2363   0.245   3.725   0.094
  720HOH      O 2364   2.213   3.732   1.806
  720HOH     H1 2365   2.274   3.660   1.793
  720HOH     H2 2366   2.163   3.708   1.884
  721HOH      O 2367   3.436   2.144   1.226
  721HOH     H1 2368   3.391   2.145   1.311
  721HOH     H2 2369   3.500   2.215   1.233
  722HOH      O 2370   0.041   3.449   0.527
  722HOH     H1 2371   0.076   3.489   0.447
  722HOH     H2 2372  -0.033   3.504   0.550
  723HOH      O 2373   2.314   0.055   1.206
  723HOH     H1 2374   2.295  -0.039   1.194
  723HOH     H2 2375   2.285   0.074   1.295
  724HOH      O 2376   0.701   1.491   3.664
  724HOH     H1 2377   0.782   1.525   3.625
  724HOH     H2 2378   0.687   1.546   3.741
  725HOH      O 2379   1.393   2.921   3.798
  725HOH     H1 2380   1.395   2.826   3.787
  725HOH     H2 2381   1.301   2.944   3.794
  726HOH      O 2382   1.647   2.579   0.043
  726HOH     H1 2383   1.721   2.532   0.081
  726HOH     H2 2384   1.657   2.567  -0.051
  727HOH      O 2385   1.848   3.885   3.538
  727HOH     H1 2386   1.856   3.962   3.482
  727HOH     H2 2387   1.833   3.921   3.626
  728HOH      O 2388   3.735   3.439   1.917
  728HOH     H1 2389   3.821   3.438   1.875
  728HOH     H2 2390   3.750   3.482   2.002
  729HOH      O 2391   1.044   1.422   0.081
  729HOH     H1 2392   1.080   1.391  -0.002
  729HOH     H2 2393   1.120   1.441   0.136
  730HOH      O 2394   3.896   0.364   2.194
  730HOH     H1 2395   3.902   0.383   2.287
  730HOH     H2 2396   3.876   0.448   2.153
  731HOH      O 2397   1.964   0.989   3.336
  731HOH     H1 2398   2.030   1.055   3.359
  731HOH     H2 2399   1.887   1.014   3.387
  732HOH      O 2400   3.417   0.594   1.465
  732HOH     H1 2401   3.423   0.667   1.404
  732HOH     H2 2402   3.368   0.527   1.417
  733HOH      O 2403   4.015   0.321   0.973
  733HOH     H1 2404   4.104   0.356   0.960
  733HOH     H2 2405   3.964   0.396   1.002
  734HOH      O 2406   0.800   2.492   0.951
  734HOH     H1 2407   0.823   2.399   0.960
  734HOH     H2 2408   0.847   2.521   0.872
  735HOH      O 2409   1.332   0.389   3.421
  735HOH     H1 2410   1.395   0.377   3.350
  735HOH     H2 2411   1.247   0.390   3.376
  736HOH      O 2412   3.441   2.651   4.028
  736HOH     H1 2413   3.379   2.632   4.099
  736HOH     H2 2414   3.462   2.743   4.038
  737HOH      O 2415   0.865   2.894   1.477
  737HOH     H1 2416   0.895   2.808   1.506
  737HOH     H2 2417   0.787   2.876   1.424
  738HOH      O 2418   4.036   3.639   0.864
  738HOH     H1 2419   4.118   3.633   0.815
  738HOH     H2 2420   3.967   3.636   0.797
  739HOH      O 2421   0.334   2.180   3.303
  739HOH     H1 2422   0.412   2.167   3.250
  739HOH     H2 2423   0.313   2.273   3.292
  740HOH      O 2424   3.288   3.173   3.448
  740HOH     H1 2425   3.343   3.202   3.375
  740HOH     H2 2426   3.331   3.208   3.526
  741HOH      O 2427   3.115   1.529   3.267
  741HOH     H1 2428   3.138   1.465   3.201
  741HOH     H2 2429   3.180   1.599   3.257
  742HOH      O 2430   0.704   1.968   1.759
  742HOH     H1 2431   0.769   1.914   1.713
  742HOH     H2 2432   0.661   2.017   1.689
  743HOH      O 2433   1.599   1.793   0.679
  743HOH     H1 2434   1.558   1.747   0.606
  743HOH     H2 2435   1.637   1.872   0.640
  744HOH      O 2436   0.568   2.004   3.211
  744HOH     H1 2437   0.623   1.974   3.283
  744HOH     H2 2438   0.627   2.007   3.136
  745HOH      O 2439   2.879   2.841   0.988
  745HOH     H1 2440   2.808   2.782   1.015
  745HOH     H2 2441   2.957   2.802   1.026
  746HOH      O 2442   0.011   0.102   3.215
  746HOH     H1 2443   0.103   0.098   3.190
  746HOH     H2 2444  -0.028   0.166   3.155
  747HOH      O 2445   2.533   3.321   1.807
  747HOH     H1 2446   2.561   3.297   1.896
  747HOH     H2 2447   2.545   3.240   1.756
  748HOH      O 2448   2.928   0.710   0.287
  748HOH     H1 2449   2.902   0.793   0.326
  748HOH     H2 2450   2.845   0.666   0.266
  749HOH      O 2451   1.349   1.136   3.847
  749HOH     H1 2452   1.275   1.125   3.787
  749HOH     H2 2453   1.363   1.048   3.883
  750HOH      O 2454   2.780   2.960   1.371
  750HOH     H1 2455   2.723   2.884   1.377
  750HOH     H2 2456   2.841   2.938   1.300
  751HOH      O 2457   1.003   1.439   1.803
  751HOH     H1 2458   0.955   1.498   1.861
  751HOH     H2 2459   0.975   1.464   1.715
  752HOH      O 2460   2.503   1.745   1.441
  752HOH     H1 2461   2.412   1.728   1.463
  752HOH     H2 2462   2.544   1.658   1.438
  753HOH      O 2463   3.845   1.934   2.048
  753HOH     H1 2464   3.768   1.989   2.064
  753HOH     H2 2465   3.824   1.851   2.091
  754HOH      O 2466   4.038   2.567   1.221
  754HOH     H1 2467   4.036   2.662   1.224
  754HOH     H2 2468   3.948   2.541   1.242
  755HOH      O 2469   3.112   1.182   1.863
  755HOH     H1 2470   3.056   1.105   1.854
  755HOH     H2 2471   3.095   1.233   1.784
  756HOH      O 2472   3.371   3.684   3.249
  756HOH     H1 2473   3.435   3.664   3.318
  756HOH     H2 2474   3.356   3.600   3.206
  757HOH      O 2475   0.921   3.401   1.293
  757HOH     H1 2476   0.889   3.322   1.336
  757HOH     H2 2477   0.845   3.460   1.291
  758HOH      O 2478   0.450   2.902   3.168
  758HOH     H1 2479   0.381   2.963   3.195
  758HOH     H2 2480   0.531   2.946   3.190
  759HOH      O 2481   2.154   3.558   2.222
  759HOH     H1 2482   2.088   3.555   2.291
  759HOH     H2 2483   2.211   3.631   2.247
  760HOH      O 2484   0.581   2.531   0.288
  760HOH     H1 2485   0.526   2.459   0.319
  760HOH     H2 2486   0.527   2.575   0.222
  761HOH      O 2487   0.984   4.016   1.919
  761HOH     H1 2488   0.936   3.965   1.984
  761HOH     H2 2489   1.069   4.032   1.960
  762HOH      O 2490   1.054   3.811   0.953
  762HOH     H1 2491   0.971   3.803   1.000
  762HOH     H2 2492   1.120   3.777   1.014
  763HOH      O 2493   0.696   3.763   2.260
  763HOH     H1 2494   0.620   3.782   2.315
  763HOH     H2 2495   0.760   3.830   2.284
  764HOH      O 2496   0.346   3.061   2.077
  764HOH     H1 2497   0.366   3.135   2.134
  764HOH     H2 2498   0.335   3.100   1.990
  765HOH      O 2499   2.146   2.746   3.033
  765HOH     H1 2500   2.174   2.744   2.942
  765HOH     H2 2501   2.183   2.666   3.071
  766HOH      O 2502   2.117   0.308   3.703
  766HOH     H1 2503   2.205   0.339   3.726
  766HOH     H2 2504   2.067   0.312   3.784
  767HOH      O 2505   3.467   2.661   1.179
  767HOH     H1 2506   3.509   2.585   1.138
  767HOH     H2 2507   3.492   2.655   1.271
  768HOH      O 2508   1.757   1.053   1.972
  768HOH     H1 2509   1.718   1.126   1.923
  768HOH     H2 2510   1.709   0.976   1.943
  769HOH      O 2511   3.404   1.318   3.271
  769HOH     H1 2512   3.428   1.404   3.237
  769HOH     H2 2513   3.434   1.257   3.203
  770HOH      O 2514   3.285   3.077   2.082
  770HOH     H1 2515   3.241   2.999   2.048
  770HOH     H2 2516   3.364   3.044   2.125
  771HOH      O 2517   0.694   2.641   2.521
  771HOH     H1 2518   0.651   2.719   2.557
  771HOH     H2 2519   0.772   2.674   2.478
  772HOH      O 2520   1.950   1.205   1.609
  772HOH     H1 2521   1.895   1.182   1.534
  772HOH     H2 2522   1.949   1.301   1.611
  773HOH      O 2523   2.387   0.933   1.581
  773HOH     H1 2524   2.331   0.856   1.570
  773HOH     H2 2525   2.397   0.942   1.676
  774HOH      O 2526   1.210   0.185   3.576
  774HOH     H1 2527   1.261   0.145   3.647
  774HOH     H2 2528   1.273   0.241   3.531
  775HOH      O 2529   2.712   2.699   1.395
  775HOH     H1 2530   2.754   2.637   1.454
  775HOH     H2 2531   2.768   2.701   1.318
  776HOH      O 2532   2.899   3.233   3.593
  776HOH     H1 2533   2.815   3.278   3.596
  776HOH     H2 2534   2.957   3.294   3.548
  777HOH      O 2535   2.245   0.450   1.110
  777HOH     H1 2536   2.310   0.424   1.175
  777HOH     H2 2537   2.228   0.371   1.059
  778HOH      O 2538   0.409   0.286   3.620
  778HOH     H1 2539   0.440   0.329   3.539
  778HOH     H2 2540   0.489   0.265   3.668
  779HOH      O 2541   3.790   2.050   1.085
  779HOH     H1 2542   3.710   2.095   1.059
  779HOH     H2 2543   3.860   2.100   1.043
  780HOH      O 2544   0.124   4.024   1.761
  780HOH     H1 2545   0.075   4.005   1.680
  780HOH     H2 2546   0.204   3.973   1.753
  781HOH      O 2547   1.945   0.663   1.965
  781HOH     H1 2548   1.901   0.587   2.002
  781HOH     H2 2549   1.987   0.705   2.040
  782HOH      O 2550   0.255   2.044   2.618
  782HOH     H1 2551   0.230   2.011   2.704
  782HOH     H2 2552   0.330   2.101   2.635
  783HOH      O 2553   0.009   0.227   1.355
  783HOH     H1 2554   0.083   0.196   1.406
  783HOH     H2 2555   0.026   0.321   1.343
  784HOH      O 2556   1.531   0.135   2.485
  784HOH     H1 2557   1.583   0.189   2.425
  784HOH     H2 2558   1.486   0.199   2.541
  785HOH      O 2559   0.838   3.351   3.675
  785HOH     H1 2560   0.809   3.260   3.682
  785HOH     H2 2561   0.768   3.401   3.718
  786HOH      O 2562   1.253   3.181   1.208
  786HOH     H1 2563   1.197   3.253   1.179
  786HOH     H2 2564   1.210   3.102   1.174
  787HOH      O 2565   2.008   0.327   3.415
  787HOH     H1 2566   2.043   0.401   3.367
  787HOH     H2 2567   2.047   0.334   3.503
  788HOH      O 2568   2.280   1.937   0.192
  788HOH     H1 2569   2.353   1.990   0.224
  788HOH     H2 2570   2.217   1.937   0.264
  789HOH      O 2571   1.911   2.621   3.179
  789HOH     H1 2572   1.907   2.700   3.233
  789HOH     H2 2573   1.969   2.644   3.107
  790HOH      O 2574   0.316   1.884   2.393
  790HOH     H1 2575   0.253   1.812   2.394
  790HOH     H2 2576   0.300   1.931   2.474
  791HOH      O 2577   2.190   3.896   3.872
  791HOH     H1 2578   2.265   3.937   3.914
  791HOH     H2 2579   2.153   3.965   3.817
  792HOH      O 2580   1.861   2.081   3.901
  792HOH     H1 2581   1.872   2.014   3.834
  792HOH     H2 2582   1.944   2.080   3.950
  793HOH      O 2583   1.533   2.858   2.209
  793HOH     H1 2584   1.545   2.817   2.124
  793HOH     H2 2585   1.513   2.786   2.268
  794HOH      O 2586   1.268   1.848   3.609
  794HOH     H1 2587   1.290   1.762   3.646
  794HOH     H2 2588   1.233   1.897   3.683
  795HOH      O 2589   3.910   2.547   0.266
  795HOH     H1 2590   3.952   2.520   0.184
  795HOH     H2 2591   3.879   2.636   0.249
  796HOH      O 2592   1.505   0.528   1.207
  796HOH     H1 2593   1.515   0.538   1.112
  796HOH     H2 2594   1.591   0.551   1.243
  797HOH      O 2595   2.568   3.683   2.681
  797HOH     H1 2596   2.480   3.651   2.663
  797HOH     H2 2597   2.593   3.732   2.603
  798HOH      O 2598   3.585   1.388   0.823
  798HOH     H1 2599   3.494   1.384   0.795
  798HOH     H2 2600   3.586   1.454   0.893
  799HOH      O 2601   1.927   1.274   0.017
  799HOH     H1 2602   1.980   1.229   0.082
  799HOH     H2 2603   1.841   1.232   0.024
  800HOH      O 2604   1.901   3.639   3.390
  800HOH     H1 2605   1.877   3.728   3.416
  800HOH     H2 2606   1.894   3.587   3.471
  801HOH      O 2607   2.961   2.081   3.648
  801HOH     H1 2608   3.013   2.146   3.600
  801HOH     H2 2609   2.874   2.086   3.608
  802HOH      O 2610   1.891   3.939   0.171
  802HOH     H1 2611   1.814   3.924   0.116
  802HOH     H2 2612   1.871   3.894   0.253
  803HOH      O 2613   2.264   0.087   1.472
  803HOH     H1 2614   2.181   0.087   1.520
  803HOH     H2 2615   2.327   0.053   1.535
  804HOH      O 2616   2.877   0.695   0.610
  804HOH     H1 2617   2.964   0.656   0.621
  804HOH     H2 2618   2.820   0.640   0.665
  805HOH      O 2619   1.204   2.635   0.738
  805HOH     H1 2620   1.242   2.602   0.819
  805HOH     H2 2621   1.278   2.669   0.688
  806HOH      O 2622   2.029   3.128   3.628
  806HOH     H1 2623   1.991   3.060   3.683
  806HOH     H2 2624   2.121   3.133   3.654
  807HOH      O 2625   3.631   0.072   1.848
  807HOH     H1 2626   3.629   0.131   1.922
  807HOH     H2 2627   3.615  -0.015   1.885
  808HOH      O 2628   0.238   2.082   0.951
  808HOH     H1 2629   0.283   2.107   0.870
  808HOH     H2 2630   0.206   1.994   0.934
  809HOH      O 2631   1.415   1.867   0.846
  809HOH     H1 2632   1.488   1.832   0.795
  809HOH     H2 2633   1.436   1.960   0.857
  810HOH      O 2634   2.368   2.166   0.499
  810HOH     H1 2635   2.347   2.258   0.483
  810HOH     H2 2636   2.389   2.162   0.592
  811HOH      O 2637   0.537   1.160   0.076
  811HOH     H1 2638   0.617   1.200   0.112
  811HOH     H2 2639   0.516   1.214  -0.001
  812HOH      O 2640   2.467   3.450   3.297
  812HOH     H1 2641   2.430   3.488   3.217
  812HOH     H2 2642   2.445   3.357   3.292
  813HOH      O 2643   0.286   2.518   0.789
  813HOH     H1 2644   0.368   2.515   0.740
  813HOH     H2 2645   0.311   2.508   0.880
  814HOH      O 2646   3.695   2.046   3.475
  814HOH     H1 2647   3.757   2.101   3.428
  814HOH     H2 2648   3.706   2.070   3.567
  815HOH      O 2649   0.181   1.617   1.856
  815HOH     H1 2650   0.219   1.542   1.902
  815HOH     H2 2651   0.226   1.619   1.771
  816HOH      O 2652   2.712   2.831   3.931
  816HOH     H1 2653   2.750   2.746   3.908
  816HOH     H2 2654   2.620   2.824   3.905
  817HOH      O 2655   3.514   2.928   3.101
  817HOH     H1 2656   3.584   2.867   3.124
  817HOH     H2 2657   3.561   3.007   3.071
  818HOH      O 2658   1.151   3.870   3.472
  818HOH     H1 2659   1.145   3.898   3.381
  818HOH     H2 2660   1.076   3.910   3.515
  819HOH      O 2661   3.964   0.422   2.490
  819HOH     H1 2662   3.878   0.380   2.489
  819HOH     H2 2663   3.946   0.515   2.496
  820HOH      O 2664   1.022   2.980   0.499
  820HOH     H1 2665   1.082   2.955   0.429
  820HOH     H2 2666   0.980   2.897   0.524
  821HOH      O 2667   2.070   3.096   1.037
  821HOH     H1 2668   2.109   3.116   0.952
  821HOH     H2 2669   1.996   3.156   1.044
  822HOH      O 2670   2.542   2.886   0.507
  822HOH     H1 2671   2.575   2.796   0.508
  822HOH     H2 2672   2.620   2.940   0.512
  823HOH      O 2673   3.310   3.079   1.767
  823HOH     H1 2674   3.389   3.047   1.723
  823HOH     H2 2675   3.337   3.089   1.859
  824HOH      O 2676   2.115   2.062   4.021
  824HOH     H1 2677   2.145   1.996   4.084
  824HOH     H2 2678   2.129   2.145   4.065
  825HOH      O 2679   0.642   3.394   1.984
  825HOH     H1 2680   0.698   3.319   2.005
  825HOH     H2 2681   0.677   3.465   2.038
  826HOH      O 2682   3.008   2.542   0.314
  826HOH     H1 2683   2.928   2.592   0.334
  826HOH     H2 2684   2.976   2.462   0.273
  827HOH      O 2685   2.839   3.802   1.469
  827HOH     H1 2686   2.919   3.761   1.435
  827HOH     H2 2687   2.870   3.865   1.534
  828HOH      O 2688   1.121   3.425   1.109
  828HOH     H1 2689   1.132   3.514   1.141
  828HOH     H2 2690   1.038   3.396   1.147
  829HOH      O 2691   1.165   1.400   2.805
  829HOH     H1 2692   1.181   1.449   2.886
  829HOH     H2 2693   1.177   1.308   2.830
  830HOH      O 2694   0.909   2.998   2.542
  830HOH     H1 2695   0.987   3.014   2.594
  830HOH     H2 2696   0.913   2.905   2.521
  831HOH      O 2697   0.970   0.305   0.914
  831HOH     H1 2698   0.991   0.212   0.922
  831HOH     H2 2699   1.048   0.343   0.873
  832HOH      O 2700   0.470   3.476   3.404
  832HOH     H1 2701   0.541   3.434   3.356
  832HOH     H2 2702   0.417   3.518   3.336
  833HOH      O 2703   2.238   1.490   2.081
  833HOH     H1 2704   2.241   1.539   2.163
  833HOH     H2 2705   2.279   1.550   2.017
  834HOH      O 2706   1.353   0.029   1.137
  834HOH     H1 2707   1.364   0.123   1.148
  834HOH     H2 2708   1.278   0.007   1.193
  835HOH      O 2709   1.993   0.989   0.491
  835HOH     H1 2710   1.941   1.055   0.538
  835HOH     H2 2711   2.068   0.974   0.547
  836HOH      O 2712   0.181   2.266   0.192
  836HOH     H1 2713   0.122   2.321   0.140
  836HOH     H2 2714   0.143   2.179   0.189
  837HOH      O 2715   2.649   3.710   2.931
  837HOH     H1 2716   2.642   3.805   2.918
  837HOH     H2 2717   2.601   3.673   2.856
  838HOH      O 2718   2.246   3.611   0.977
  838HOH     H1 2719   2.316   3.573   1.030
  838HOH     H2 2720   2.186   3.538   0.960
  839HOH      O 2721   1.146   3.058   3.920
  839HOH     H1 2722   1.062   3.084   3.956
  839HOH     H2 2723   1.148   2.963   3.932
  840HOH      O 2724   2.902   2.088   1.493
  840HOH     H1 2725   2.826   2.037   1.520
  840HOH     H2 2726   2.870   2.179   1.491
  841HOH      O 2727   2.968   0.694   3.144
  841HOH     H1 2728   2.893   0.699   3.084
  841HOH     H2 2729   2.929   0.682   3.230
  842HOH      O 2730   3.169   2.232   0.184
  842HOH     H1 2731   3.144   2.140   0.182
  842HOH     H2 2732   3.213   2.244   0.268
  843HOH      O 2733   2.732   0.237   0.227
  843HOH     H1 2734   2.729   0.270   0.317
  843HOH     H2 2735   2.652   0.185   0.218
  844HOH      O 2736   0.830   0.691   0.445
  844HOH     H1 2737   0.858   0.658   0.530
  844HOH     H2 2738   0.870   0.778   0.437
  845HOH      O 2739   1.041   0.298   1.827
  845HOH     H1 2740   1.025   0.209   1.794
  845HOH     H2 2741   1.133   0.315   1.806
  846HOH      O 2742   0.868   2.656   3.919
  846HOH     H1 2743   0.815   2.658   3.999
  846HOH     H2 2744   0.959   2.656   3.951
  847HOH      O 2745   1.814   0.692   1.740
  847HOH     H1 2746   1.852   0.627   1.681
  847HOH     H2 2747   1.867   0.685   1.820
  848HOH      O 2748   3.413   0.148   1.705
  848HOH     H1 2749   3.491   0.132   1.759
  848HOH     H2 2750   3.446   0.196   1.629
  849HOH      O 2751   3.459   0.350   0.977
  849HOH     H1 2752   3.403   0.274   0.960
  849HOH     H2 2753   3.525   0.347   0.908
  850HOH      O 2754   1.514   0.663   0.725
  850HOH     H1 2755   1.510   0.610   0.804
  850HOH     H2 2756   1.500   0.601   0.653
  851HOH      O 2757   3.066   1.729   2.291
  851HOH     H1 2758   3.118   1.802   2.326
  851HOH     H2 2759   3.065   1.665   2.362
  852HOH      O 2760   3.148   0.769   1.657
  852HOH     H1 2761   3.155   0.674   1.669
  852HOH     H2 2762   3.231   0.803   1.689
  853HOH      O 2763   0.195   2.777   2.574
  853HOH     H1 2764   0.103   2.753   2.565
  853HOH     H2 2765   0.194   2.873   2.577
  854HOH      O 2766   0.743   3.234   2.965
  854HOH     H1 2767   0.717   3.324   2.942
  854HOH     H2 2768   0.718   3.224   3.057
  855HOH      O 2769   2.435   3.587   1.163
  855HOH     H1 2770   2.509   3.637   1.196
  855HOH     H2 2771   2.398   3.546   1.242
  856HOH      O 2772   2.642   3.770   3.241
  856HOH     H1 2773   2.597   3.779   3.157
  856HOH     H2 2774   2.595   3.700   3.286
  857HOH      O 2775   0.318   3.867   3.992
  857HOH     H1 2776   0.413   3.880   3.985
  857HOH     H2 2777   0.288   3.937   4.050
  858HOH      O 2778   1.748   2.949   0.283
  858HOH     H1 2779   1.770   3.038   0.256
  858HOH     H2 2780   1.811   2.893   0.238
  859HOH      O 2781   3.094   0.071   2.282
  859HOH     H1 2782   3.187   0.053   2.300
  859HOH     H2 2783   3.075   0.151   2.330
  860HOH      O 2784   3.649   3.214   1.021
  860HOH     H1 2785   3.682   3.302   1.002
  860HOH     H2 2786   3.723   3.169   1.063
  861HOH      O 2787   1.782   2.852   0.680
  861HOH     H1 2788   1.793   2.914   0.752
  861HOH     H2 2789   1.851   2.787   0.695
  862HOH      O 2790   3.123   3.234   1.123
  862HOH     H1 2791   3.074   3.231   1.206
  862HOH     H2 2792   3.056   3.218   1.056
  863HOH      O 2793   3.620   3.357   3.917
  863HOH     H1 2794   3.538   3.405   3.924
  863HOH     H2 2795   3.619   3.321   3.829
  864HOH      O 2796   2.102   2.344   2.620
  864HOH     H1 2797   2.060   2.262   2.596
  864HOH     H2 2798   2.137   2.328   2.708
  865HOH      O 2799   2.485   0.842   3.558
  865HOH     H1 2800   2.415   0.876   3.613
  865HOH     H2 2801   2.467   0.748   3.552
  866HOH      O 2802   2.875   0.441   2.251
  866HOH     H1 2803   2.930   0.382   2.301
  866HOH     H2 2804   2.928   0.464   2.175
  867HOH      O 2805   1.656   3.657   3.198
  867HOH     H1 2806   1.651   3.652   3.293
  867HOH     H2 2807   1.745   3.689   3.180
  868HOH      O 2808   0.022   3.278   3.662
  868HOH     H1 2809  -0.071   3.299   3.667
  868HOH     H2 2810   0.063   3.331   3.730
  869HOH      O 2811   0.700   0.723   3.983
  869HOH     H1 2812   0.733   0.690   4.066
  869HOH     H2 2813   0.629   0.782   4.007
  870HOH      O 2814   2.909   3.284   2.401
  870HOH     H1 2815   2.932   3.285   2.308
  870HOH     H2 2816   2.814   3.294   2.402
  871HOH      O 2817   3.503   1.532   2.109
  871HOH     H1 2818   3.491   1.626   2.094
  871HOH     H2 2819   3.493   1.492   2.022
  872HOH      O 2820   2.608   3.393   1.485
  872HOH     H1 2821   2.673   3.325   1.465
  872HOH     H2 2822   2.525   3.356   1.456
  873HOH      O 2823   3.072   3.645   3.867
  873HOH     H1 2824   3.125   3.711   3.823
  873HOH     H2 2825   3.054   3.683   3.953
  874HOH      O 2826   4.004   1.156   3.426
  874HOH     H1 2827   4.076   1.094   3.413
  874HOH     H2 2828   4.018   1.223   3.359
  875HOH      O 2829   2.767   0.847   1.007
  875HOH     H1 2830   2.723   0.912   1.062
  875HOH     H2 2831   2.751   0.764   1.050
  876HOH      O 2832   2.976   3.517   3.117
  876HOH     H1 2833   2.908   3.467   3.072
  876HOH     H2 2834   3.041   3.452   3.144
  877HOH      O 2835   1.850   2.304   2.272
  877HOH     H1 2836   1.839   2.240   2.202
  877HOH     H2 2837   1.863   2.252   2.351
  878HOH      O 2838   2.204   0.182   0.714
  878HOH     H1 2839   2.139   0.112   0.708
  878HOH     H2 2840   2.226   0.186   0.807
  879HOH      O 2841   3.095   2.664   1.055
  879HOH     H1 2842   3.131   2.623   0.977
  879HOH     H2 2843   3.164   2.725   1.084
  880HOH      O 2844   0.912   2.736   0.497
  880HOH     H1 2845   0.958   2.655   0.478
  880HOH     H2 2846   0.840   2.739   0.434
  881HOH      O 2847   2.901   1.671   1.923
  881HOH     H1 2848   2.828   1.731   1.942
  881HOH     H2 2849   2.888   1.647   1.831
  882HOH      O 2850   2.389   3.357   0.624
  882HOH     H1 2851   2.392   3.328   0.532
  882HOH     H2 2852   2.481   3.366   0.649
  883HOH      O 2853   2.678   1.938   1.576
  883HOH     H1 2854   2.618   1.872   1.541
  883HOH     H2 2855   2.628   1.981   1.645
  884HOH      O 2856   0.038   0.824   1.998
  884HOH     H1 2857   0.013   0.892   2.060
  884HOH     H2 2858   0.120   0.789   2.032
  885HOH      O 2859   1.869   4.013   0.512
  885HOH     H1 2860   1.908   4.005   0.599
  885HOH     H2 2861   1.857   3.923   0.483
  886HOH      O 2862   3.154   0.526   3.427
  886HOH     H1 2863   3.081   0.465   3.442
  886HOH     H2 2864   3.124   0.608   3.467
  887HOH      O 2865   3.337   2.783   2.264
  887HOH     H1 2866   3.313   2.778   2.357
  887HOH     H2 2867   3.379   2.869   2.256
  888HOH      O 2868   2.665   0.182   0.794
  888HOH     H1 2869   2.652   0.140   0.879
  888HOH     H2 2870   2.605   0.137   0.735
  889HOH      O 2871   2.250   2.495   1.130
  889HOH     H1 2872   2.196   2.568   1.161
  889HOH     H2 2873   2.339   2.532   1.125
  890HOH      O 2874   2.714   0.697   2.180
  890HOH     H1 2875   2.672   0.758   2.119
  890HOH     H2 2876   2.800   0.680   2.141
  891HOH      O 2877   2.595   3.242   3.838
  891HOH     H1 2878   2.544   3.270   3.913
  891HOH     H2 2879   2.669   3.195   3.876
  892HOH      O 2880   3.813   3.058   1.168
  892HOH     H1 2881   3.791   3.109   1.246
  892HOH     H2 2882   3.893   3.098   1.135
  893HOH      O 2883   2.642   0.566   2.523
  893HOH     H1 2884   2.591   0.640   2.557
  893HOH     H2 2885   2.677   0.524   2.602
  894HOH      O 2886   3.155   3.872   3.293
  894HOH     H1 2887   3.073   3.826   3.276
  894HOH     H2 2888   3.222   3.803   3.288
  895HOH      O 2889   1.092   1.977   3.784
  895HOH     H1 2890   1.007   1.982   3.739
  895HOH     H2 2891   1.106   2.065   3.818
  896HOH      O 2892   3.395   1.243   2.931
  896HOH     H1 2893   3.401   1.170   2.869
  896HOH     H2 2894   3.459   1.307   2.899
  897HOH      O 2895   3.839   3.764   3.081
  897HOH     H1 2896   3.845   3.846   3.031
  897HOH     H2 2897   3.758   3.772   3.131
  898HOH      O 2898   3.130   1.698   2.560
  898HOH     H1 2899   3.219   1.730   2.544
  898HOH     H2 2900   3.141   1.607   2.587
  899HOH      O 2901   2.455   3.644   0.476
  899HOH     H1 2902   2.377   3.642   0.532
  899HOH     H2 2903   2.518   3.587   0.521
  900HOH      O 2904   3.990   3.278   2.470
  900HOH     H1 2905   4.037   3.249   2.392
  900HOH     H2 2906   4.000   3.206   2.532
  901HOH      O 2907   3.166   1.825   1.204
  901HOH     H1 2908   3.090   1.881   1.219
  901HOH     H2 2909   3.145   1.743   1.248
  902HOH      O 2910   3.360   1.979   3.036
  902HOH     H1 2911   3.343   1.972   3.130
  902HOH     H2 2912   3.403   1.896   3.014
  903HOH      O 2913   2.802   1.612   0.700
  903HOH     H1 2914   2.872   1.577   0.754
  903HOH     H2 2915   2.843   1.628   0.615
  904HOH      O 2916   2.002   2.193   1.510
  904HOH     H1 2917   1.914   2.172   1.542
  904HOH     H2 2918   2.055   2.118   1.534
  905HOH      O 2919   0.129   1.298   2.596
  905HOH     H1 2920   0.069   1.312   2.523
  905HOH     H2 2921   0.080   1.243   2.657
  906HOH      O 2922   2.064   0.321   3.031
  906HOH     H1 2923   1.974   0.295   3.014
  906HOH     H2 2924   2.092   0.364   2.950
  907HOH      O 2925   2.487   3.028   2.320
  907HOH     H1 2926   2.479   3.039   2.225
  907HOH     H2 2927   2.523   2.941   2.331
  908HOH      O 2928   0.063   3.517   3.281
  908HOH     H1 2929   0.107   3.508   3.196
  908HOH     H2 2930   0.131   3.550   3.339
  909HOH      O 2931   0.924   0.236   3.588
  909HOH     H1 2932   0.958   0.179   3.656
  909HOH     H2 2933   1.000   0.255   3.533
  910HOH      O 2934   1.752   3.559   1.376
  910HOH     H1 2935   1.721   3.556   1.285
  910HOH     H2 2936   1.706   3.487   1.419
  911HOH      O 2937   2.235   3.404   2.800
  911HOH     H1 2938   2.178   3.449   2.862
  911HOH     H2 2939   2.291   3.349   2.855
  912HOH      O 2940   3.167   0.697   0.815
  912HOH     H1 2941   3.144   0.608   0.790
  912HOH     H2 2942   3.254   0.688   0.856
  913HOH      O 2943   1.132   2.481   3.607
  913HOH     H1 2944   1.050   2.480   3.657
  913HOH     H2 2945   1.189   2.422   3.656
  914HOH      O 2946   3.772   3.335   0.282
  914HOH     H1 2947   3.795   3.287   0.361
  914HOH     H2 2948   3.743   3.268   0.220
  915HOH      O 2949   3.077   1.255   0.068
  915HOH     H1 2950   3.057   1.161   0.060
  915HOH     H2 2951   3.127   1.262   0.150
  916HOH      O 2952   1.988   1.488   2.345
  916HOH     H1 2953   2.028   1.537   2.273
  916HOH     H2 2954   2.003   1.543   2.422
  917HOH      O 2955   2.986   2.741   2.158
  917HOH     H1 2956   2.971   2.750   2.252
  917HOH     H2 2957   2.953   2.823   2.121
  918HOH      O 2958   0.754   1.924   0.548
  918HOH     H1 2959   0.797   1.855   0.498
  918HOH     H2 2960   0.666   1.890   0.564
  919HOH      O 2961   3.414   1.116   3.714
  919HOH     H1 2962   3.362   1.194   3.731
  919HOH     H2 2963   3.497   1.131   3.760
  920HOH      O 2964   1.891   1.798   1.952
  920HOH     H1 2965   1.833   1.779   1.878
  920HOH     H2 2966   1.866   1.885   1.982
  921HOH      O 2967   3.278   3.848   1.621
  921HOH     H1 2968   3.368   3.827   1.596
  921HOH     H2 2969   3.236   3.763   1.636
  922HOH      O 2970   0.290   1.160   2.866
  922HOH     H1 2971   0.335   1.235   2.905
  922HOH     H2 2972   0.355   1.121   2.808
  923HOH      O 2973   3.101   0.547   4.019
  923HOH     H1 2974   3.168   0.548   4.088
  923HOH     H2 2975   3.038   0.480   4.048
  924HOH      O 2976   1.824   2.053   1.262
  924HOH     H1 2977   1.906   2.017   1.293
  924HOH     H2 2978   1.757   2.010   1.315
  925HOH      O 2979   1.912   1.534   0.591
  925HOH     H1 2980   2.005   1.515   0.584
  925HOH     H2 2981   1.886   1.499   0.676
  926HOH      O 2982   3.790   1.712   2.189
  926HOH     H1 2983   3.771   1.710   2.283
  926HOH     H2 2984   3.884   1.694   2.184
  927HOH      O 2985   2.659   1.807   1.947
  927HOH     H1 2986   2.591   1.796   2.013
  927HOH     H2 2987   2.623   1.766   1.868
  928HOH      O 2988   3.469   1.563   3.142
  928HOH     H1 2989   3.564   1.569   3.147
  928HOH     H2 2990   3.449   1.575   3.049
  929HOH      O 2991   0.041   3.924   1.513
  929HOH     H1 2992   0.120   3.959   1.472
  929HOH     H2 2993  -0.001   3.873   1.443
  930HOH      O 2994   2.054   0.037   3.709
  930HOH     H1 2995   2.060   0.132   3.693
  930HOH     H2 2996   2.083  -0.003   3.628
  931HOH      O 2997   2.711   3.589   0.067
  931HOH     H1 2998   2.782   3.586   0.131
  931HOH     H2 2999   2.632   3.573   0.118
  932HOH      O 3000   1.166   3.891   1.714
  932HOH     H1 3001   1.093   3.917   1.771
  932HOH     H2 3002   1.226   3.966   1.717
  933HOH      O 3003   3.482   3.466   0.577
  933HOH     H1 3004   3.457   3.378   0.605
  933HOH     H2 3005   3.479   3.463   0.481
  934HOH      O 3006   0.436   0.583   0.129
  934HOH     H1 3007   0.484   0.548   0.054
  934HOH     H2 3008   0.502   0.632   0.178
  935HOH      O 3009   2.289   2.655   2.814
  935HOH     H1 3010   2.318   2.664   2.723
  935HOH     H2 3011   2.369   2.634   2.862
  936HOH      O 3012   3.525   3.138   0.639
  936HOH     H1 3013   3.542   3.078   0.711
  936HOH     H2 3014   3.433   3.124   0.616
  937HOH      O 3015   1.664   0.794   2.574
  937HOH     H1 3016   1.663   0.835   2.660
  937HOH     H2 3017   1.729   0.843   2.524
  938HOH      O 3018   2.855   2.838   1.696
  938HOH     H1 3019   2.886   2.747   1.697
  938HOH     H2 3020   2.760   2.830   1.684
  939HOH      O 3021   0.277   2.878   1.608
  939HOH     H1 3022   0.261   2.914   1.695
  939HOH     H2 3023   0.263   2.784   1.619
  940HOH      O 3024   3.951   0.513   1.522
  940HOH     H1 3025   4.021   0.512   1.457
  940HOH     H2 3026   3.872   0.492   1.472
  941HOH      O 3027   0.470   2.551   3.827
  941HOH     H1 3028   0.537   2.502   3.874
  941HOH     H2 3029   0.424   2.486   3.775
  942HOH      O 3030   1.940   0.895   0.797
  942HOH     H1 3031   1.896   0.964   0.747
  942HOH     H2 3032   1.869   0.836   0.824
  943HOH      O 3033   2.625   1.698   0.993
  943HOH     H1 3034   2.639   1.689   0.899
  943HOH     H2 3035   2.549   1.643   1.011
  944HOH      O 3036   0.309   1.437   2.015
  944HOH     H1 3037   0.401   1.419   1.994
  944HOH     H2 3038   0.311   1.479   2.101
  945HOH      O 3039   1.311   2.488   1.366
  945HOH     H1 3040   1.294   2.582   1.353
  945HOH     H2 3041   1.366   2.485   1.444
  946HOH      O 3042   1.846   2.818   2.401
  946HOH     H1 3043   1.796   2.828   2.320
  946HOH     H2 3044   1.893   2.901   2.411
  947HOH      O 3045   0.327   2.073   0.534
  947HOH     H1 3046   0.316   2.004   0.599
  947HOH     H2 3047   0.419   2.100   0.543
  948HOH      O 3048   3.604   0.951   0.257
  948HOH     H1 3049   3.587   0.901   0.336
  948HOH     H2 3050   3.661   1.023   0.285
  949HOH      O 3051   1.254   3.135   3.341
  949HOH     H1 3052   1.227   3.044   3.336
  949HOH     H2 3053   1.343   3.136   3.307
  950HOH      O 3054   1.591   3.370   1.443
  950HOH     H1 3055   1.570   3.310   1.371
  950HOH     H2 3056   1.506   3.395   1.479
  951HOH      O 3057   3.439   2.150   2.822
  951HOH     H1 3058   3.422   2.119   2.911
  951HOH     H2 3059   3.450   2.070   2.770
  952HOH      O 3060   1.900   1.559   0.103
  952HOH     H1 3061   1.908   1.466   0.124
  952HOH     H2 3062   1.965   1.574   0.035
  953HOH      O 3063   2.064   0.626   1.248
  953HOH     H1 3064   2.141   0.600   1.197
  953HOH     H2 3065   2.006   0.668   1.184
  954HOH      O 3066   1.091   2.053   2.750
  954HOH     H1 3067   1.036   1.977   2.729
  954HOH     H2 3068   1.093   2.105   2.669
  955HOH      O 3069   1.151   0.592   1.140
  955HOH     H1 3070   1.136   0.675   1.094
  955HOH     H2 3071   1.155   0.526   1.071
  956HOH      O 3072   2.106   2.930   1.788
  956HOH     H1 3073   2.164   2.995   1.828
  956HOH     H2 3074   2.044   2.908   1.858
  957HOH      O 3075   1.873   3.238   2.572
  957HOH     H1 3076   1.963   3.233   2.602
  957HOH     H2 3077   1.831   3.159   2.607
  958HOH      O 3078   3.393   1.111   0.047
  958HOH     H1 3079   3.362   1.165   0.120
  958HOH     H2 3080   3.472   1.069   0.081
  959HOH      O 3081   0.384   3.609   0.619
  959HOH     H1 3082   0.382   3.705   0.622
  959HOH     H2 3083   0.371   3.588   0.526
  960HOH      O 3084   2.208   1.158   1.502
  960HOH     H1 3085   2.189   1.114   1.585
  960HOH     H2 3086   2.122   1.186   1.469
  961HOH      O 3087   3.231   2.883   0.086
  961HOH     H1 3088   3.271   2.958   0.042
  961HOH     H2 3089   3.294   2.859   0.154
  962HOH      O 3090   2.731   3.685   0.713
  962HOH     H1 3091   2.805   3.681   0.774
  962HOH     H2 3092   2.671   3.616   0.742
  963HOH      O 3093   0.947   0.534   0.624
  963HOH     H1 3094   1.021   0.474   0.611
  963HOH     H2 3095   0.869   0.480   0.613
  964HOH      O 3096   2.266   2.098   3.468
  964HOH     H1 3097   2.290   2.021   3.519
  964HOH     H2 3098   2.301   2.172   3.519
  965HOH      O 3099   0.252   4.027   1.067
  965HOH     H1 3100   0.224   4.069   0.985
  965HOH     H2 3101   0.186   3.960   1.083
  966HOH      O 3102   1.450   1.283   1.560
  966HOH     H1 3103   1.367   1.241   1.583
  966HOH     H2 3104   1.506   1.270   1.636
  967HOH      O 3105   3.172   2.351   3.224
  967HOH     H1 3106   3.251   2.313   3.263
  967HOH     H2 3107   3.199   2.440   3.198
  968HOH      O 3108   1.946   2.620   0.626
  968HOH     H1 3109   2.010   2.644   0.560
  968HOH     H2 3110   1.988   2.550   0.677
  969HOH      O 3111   0.560   2.228   2.057
  969HOH     H1 3112   0.481   2.175   2.051
  969HOH     H2 3113   0.554   2.290   1.984
  970HOH      O 3114   3.189   0.399   0.251
  970HOH     H1 3115   3.120   0.351   0.296
  970HOH     H2 3116   3.188   0.486   0.291
  971HOH      O 3117   3.581   1.270   3.478
  971HOH     H1 3118   3.510   1.293   3.418
  971HOH     H2 3119   3.591   1.348   3.534
  972HOH      O 3120   2.603   1.251   3.941
  972HOH     H1 3121   2.509   1.240   3.931
  972HOH     H2 3122   2.613   1.295   4.025
  973HOH      O 3123   1.437   3.886   0.063
  973HOH     H1 3124   1.420   3.810   0.119
  973HOH     H2 3125   1.454   3.848  -0.023
  974HOH      O 3126   2.757   3.706   1.759
  974HOH     H1 3127   2.739   3.759   1.682
  974HOH     H2 3128   2.821   3.758   1.809
  975HOH      O 3129   2.246   1.668   1.394
  975HOH     H1 3130   2.207   1.680   1.307
  975HOH     H2 3131   2.287   1.581   1.389
  976HOH      O 3132   3.506   2.820   0.556
  976HOH     H1 3133   3.473   2.841   0.643
  976HOH     H2 3134   3.576   2.884   0.540
  977HOH      O 3135   3.927   3.339   0.774
  977HOH     H1 3136   4.021   3.345   0.760
  977HOH     H2 3137   3.892   3.305   0.691
  978HOH      O 3138   2.293   0.073   2.339
  978HOH     H1 3139   2.285   0.012   2.413
  978HOH     H2 3140   2.304   0.016   2.263
  979HOH      O 3141   0.580   1.297   2.020
  979HOH     H1 3142   0.554   1.221   2.071
  979HOH     H2 3143   0.618   1.357   2.084
  980HOH      O 3144   0.678   1.939   2.597
  980HOH     H1 3145   0.639   1.921   2.511
  980HOH     H2 3146   0.768   1.907   2.589
  981HOH      O 3147   3.507   3.022   1.608
  981HOH     H1 3148   3.569   2.966   1.654
  981HOH     H2 3149   3.471   2.967   1.538
  982HOH      O 3150   1.520   3.105   0.965
  982HOH     H1 3151   1.518   3.021   0.917
  982HOH     H2 3152   1.497   3.170   0.898
  983HOH      O 3153   0.594   1.345   3.455
  983HOH     H1 3154   0.593   1.397   3.535
  983HOH     H2 3155   0.515   1.290   3.461
  984HOH      O 3156   1.444   1.853   3.028
  984HOH     H1 3157   1.455   1.836   3.121
  984HOH     H2 3158   1.358   1.895   3.022
  985HOH      O 3159   1.813   3.781   0.383
  985HOH     H1 3160   1.725   3.796   0.418
  985HOH     H2 3161   1.832   3.689   0.405
  986HOH      O 3162   3.694   1.675   1.874
  986HOH     H1 3163   3.697   1.726   1.955
  986HOH     H2 3164   3.603   1.683   1.844
  987HOH      O 3165   1.258   3.465   0.037
  987HOH     H1 3166   1.202   3.399   0.077
  987HOH     H2 3167   1.275   3.432  -0.052
  988HOH      O 3168   1.936   3.493   2.467
  988HOH     H1 3169   1.911   3.401   2.473
  988HOH     H2 3170   1.992   3.508   2.543
  989HOH      O 3171   1.538   1.297   2.238
  989HOH     H1 3172   1.627   1.333   2.244
  989HOH     H2 3173   1.488   1.346   2.303
  990HOH      O 3174   3.997   0.294   0.237
  990HOH     H1 3175   3.912   0.316   0.277
  990HOH     H2 3176   4.025   0.374   0.194
  991HOH      O 3177   1.873   3.594   0.055
  991HOH     H1 3178   1.923   3.629   0.129
  991HOH     H2 3179   1.918   3.627  -0.023
  992HOH      O 3180   1.731   1.838   1.466
  992HOH     H1 3181   1.696   1.771   1.407
  992HOH     H2 3182   1.826   1.823   1.466
  993HOH      O 3183   1.290   2.056   3.396
  993HOH     H1 3184   1.299   2.149   3.416
  993HOH     H2 3185   1.307   2.012   3.479
  994HOH      O 3186   3.355   0.295   3.232
  994HOH     H1 3187   3.399   0.297   3.147
  994HOH     H2 3188   3.408   0.350   3.288
  995HOH      O 3189   1.058   3.503   3.680
  995HOH     H1 3190   1.121   3.460   3.622
  995HOH     H2 3191   1.002   3.432   3.712
  996HOH      O 3192   3.543   2.974   1.111
  996HOH     H1 3193   3.544   3.063   1.076
  996HOH     H2 3194   3.635   2.952   1.124
  997HOH      O 3195   3.019   3.522   0.503
  997HOH     H1 3196   3.057   3.442   0.465
  997HOH     H2 3197   2.985   3.494   0.588
  998HOH      O 3198   2.322   3.020   1.295
  998HOH     H1 3199   2.386   2.964   1.338
  998HOH     H2 3200   2.239   3.000   1.340
  999HOH      O 3201   3.447   0.295   3.821
  999HOH     H1 3202   3.543   0.294   3.825
  999HOH     H2 3203   3.420   0.220   3.874
 1000HOH      O 3204   2.395   2.293   3.844
 1000HOH     H1 3205   2.407   2.198   3.832
 1000HOH     H2 3206   2.364   2.323   3.758
 1001HOH      O 3207   2.356   2.648   3.438
 1001HOH     H1 3208   2.270   2.668   3.477
 1001HOH     H2 3209   2.417   2.707   3.484
 1002HOH      O 3210   0.006   3.858   2.848
 1002HOH     H1 3211  -0.017   3.871   2.756
 1002HOH     H2 3212  -0.031   3.935   2.892
 1003HOH      O 3213   3.760   2.658   2.028
 1003HOH     H1 3214   3.718   2.659   2.114
 1003HOH     H2 3215   3.850   2.631   2.045
 1004HOH      O 3216   0.214   1.068   2.114
 1004HOH     H1 3217   0.192   1.129   2.043
 1004HOH     H2 3218   0.182   1.111   2.193
 1005HOH      O 3219   3.875   3.540   2.221
 1005HOH     H1 3220   3.942   3.472   2.224
 1005HOH     H2 3221   3.912   3.607   2.162
 1006HOH      O 3222   3.912   2.175   0.141
 1006HOH     H1 3223   3.893   2.266   0.116
 1006HOH     H2 3224   3.992   2.153   0.094
 1007HOH      O 3225   1.503   3.075   0.303
 1007HOH     H1 3226   1.578   3.029   0.340
 1007HOH     H2 3227   1.486   3.031   0.220
 1008HOH      O 3228   2.954   1.675   0.489
 1008HOH     H1 3229   2.945   1.614   0.415
 1008HOH     H2 3230   3.048   1.682   0.504
 1009HOH      O 3231   3.355   3.440   2.143
 1009HOH     H1 3232   3.294   3.466   2.213
 1009HOH     H2 3233   3.354   3.344   2.146
 1010HOH      O 3234   2.978   2.649   3.217
 1010HOH     H1 3235   3.060   2.612   3.250
 1010HOH     H2 3236   2.965   2.728   3.269
 1011HOH      O 3237   1.086   0.729   3.695
 1011HOH     H1 3238   1.009   0.784   3.711
 1011HOH     H2 3239   1.051   0.639   3.695
 1012HOH      O 3240   1.845   2.514   2.612
 1012HOH     H1 3241   1.936   2.486   2.616
 1012HOH     H2 3242   1.849   2.609   2.600
 1013HOH      O 3243   2.934   3.082   0.878
 1013HOH     H1 3244   2.906   3.000   0.919
 1013HOH     H2 3245   2.890   3.150   0.928
 1014HOH      O 3246   3.211   0.667   0.300
 1014HOH     H1 3247   3.259   0.749   0.287
 1014HOH     H2 3248   3.120   0.693   0.311
 1015HOH      O 3249   3.523   3.256   3.274
 1015HOH     H1 3250   3.584   3.190   3.243
 1015HOH     H2 3251   3.540   3.333   3.220
 1016HOH      O 3252   0.085   0.074   0.311
 1016HOH     H1 3253   0.125   0.085   0.398
 1016HOH     H2 3254   0.020   0.143   0.305
 1017HOH      O 3255   1.491   2.482   1.572
 1017HOH     H1 3256   1.469   2.541   1.644
 1017HOH     H2 3257   1.513   2.399   1.615
 1018HOH      O 3258   1.790   2.046   1.705
 1018HOH     H1 3259   1.770   2.130   1.747
 1018HOH     H2 3260   1.705   2.016   1.671
 1019HOH      O 3261   3.475   1.350   3.960
 1019HOH     H1 3262   3.435   1.270   3.996
 1019HOH     H2 3263   3.558   1.359   4.008
 1020HOH      O 3264   3.215   0.175   0.476
 1020HOH     H1 3265   3.126   0.188   0.442
 1020HOH     H2 3266   3.213   0.089   0.517
 1021HOH      O 3267   3.128   1.265   2.113
 1021HOH     H1 3268   3.132   1.242   2.020
 1021HOH     H2 3269   3.069   1.340   2.116
 1022HOH      O 3270   3.431   2.264   3.165
 1022HOH     H1 3271   3.435   2.250   3.260
 1022HOH     H2 3272   3.418   2.176   3.129
 1023HOH      O 3273   0.171   1.479   2.843
 1023HOH     H1 3274   0.261   1.492   2.871
 1023HOH     H2 3275   0.179   1.432   2.760
 1024HOH      O 3276   0.370   3.429   1.447
 1024HOH     H1 3277   0.398   3.345   1.484
 1024HOH     H2 3278   0.285   3.446   1.488
 1025HOH      O 3279   0.639   3.090   1.855
 1025HOH     H1 3280   0.551   3.089   1.892
 1025HOH     H2 3281   0.697   3.102   1.930
 1026HOH      O 3282   3.071   0.474   1.033
 1026HOH     H1 3283   2.992   0.520   1.005
 1026HOH     H2 3284   3.070   0.481   1.128
 1027HOH      O 3285   2.165   1.992   3.766
 1027HOH     H1 3286   2.148   2.028   3.853
 1027HOH     H2 3287   2.081   1.953   3.739
 1028HOH      O 3288   3.091   2.236   2.503
 1028HOH     H1 3289   3.062   2.272   2.587
 1028HOH     H2 3290   3.139   2.308   2.462
 1029HOH      O 3291   0.446   0.780   3.713
 1029HOH     H1 3292   0.474   0.807   3.800
 1029HOH     H2 3293   0.443   0.861   3.662
 1030HOH      O 3294   3.300   1.398   2.288
 1030HOH     H1 3295   3.369   1.413   2.224
 1030HOH     H2 3296   3.246   1.329   2.250
 1031HOH      O 3297   2.591   3.986   2.939
 1031HOH     H1 3298   2.646   4.063   2.955
 1031HOH     H2 3299   2.509   4.005   2.985
 1032HOH      O 3300   3.433   3.887   3.906
 1032HOH     H1 3301   3.447   3.980   3.922
 1032HOH     H2 3302   3.468   3.843   3.983
 1033HOH      O 3303   0.701   2.941   0.399
 1033HOH     H1 3304   0.738   2.951   0.487
 1033HOH     H2 3305   0.639   2.868   0.408
 1034HOH      O 3306   3.876   3.001   2.941
 1034HOH     H1 3307   3.798   3.057   2.947
 1034HOH     H2 3308   3.925   3.021   3.021
 1035HOH      O 3309   0.602   2.158   0.856
 1035HOH     H1 3310   0.561   2.084   0.902
 1035HOH     H2 3311   0.585   2.233   0.913
 1036HOH      O 3312   3.238   2.502   0.135
 1036HOH     H1 3313   3.228   2.407   0.123
 1036HOH     H2 3314   3.178   2.523   0.206
 1037HOH      O 3315   4.030   2.189   0.983
 1037HOH     H1 3316   4.005   2.123   0.918
 1037HOH     H2 3317   4.125   2.179   0.992
 1038HOH      O 3318   3.801   0.248   1.524
 1038HOH     H1 3319   3.847   0.209   1.450
 1038HOH     H2 3320   3.867   0.299   1.570
 1039HOH      O 3321   1.578   0.357   3.609
 1039HOH     H1 3322   1.582   0.262   3.622
 1039HOH     H2 3323   1.490   0.373   3.576
 1040HOH      O 3324   1.061   3.784   2.220
 1040HOH     H1 3325   1.012   3.861   2.248
 1040HOH     H2 3326   1.151   3.802   2.246
 1041HOH      O 3327   0.178   3.592   1.239
 1041HOH     H1 3328   0.116   3.530   1.199
 1041HOH     H2 3329   0.177   3.668   1.181
 1042HOH      O 3330   1.286   3.342   1.452
 1042HOH     H1 3331   1.279   3.295   1.370
 1042HOH     H2 3332   1.247   3.428   1.435
 1043HOH      O 3333   3.672   2.318   0.078
 1043HOH     H1 3334   3.677   2.223   0.092
 1043HOH     H2 3335   3.618   2.349   0.151
 1044HOH      O 3336   3.466   1.936   3.341
 1044HOH     H1 3337   3.550   1.976   3.364
 1044HOH     H2 3338   3.413   1.945   3.420
 1045HOH      O 3339   4.011   0.367   3.479
 1045HOH     H1 3340   4.087   0.415   3.445
 1045HOH     H2 3341   4.002   0.292   3.421
 1046HOH      O 3342   2.920   1.444   2.141
 1046HOH     H1 3343   2.826   1.455   2.151
 1046HOH     H2 3344   2.945   1.510   2.076
 1047HOH      O 3345   2.403   1.321   1.485
 1047HOH     H1 3346   2.420   1.352   1.574
 1047HOH     H2 3347   2.343   1.247   1.496
 1048HOH      O 3348   3.209   2.265   2.104
 1048HOH     H1 3349   3.213   2.359   2.088
 1048HOH     H2 3350   3.121   2.250   2.139
 1049HOH      O 3351   3.105   3.060   3.637
 1049HOH     H1 3352   3.022   3.107   3.627
 1049HOH     H2 3353   3.159   3.091   3.564
 1050HOH      O 3354   0.144   0.172   3.739
 1050HOH     H1 3355   0.078   0.142   3.676
 1050HOH     H2 3356   0.206   0.223   3.687
 1051HOH      O 3357   2.129   3.378   2.011
 1051HOH     H1 3358   2.128   3.411   2.101
 1051HOH     H2 3359   2.039   3.383   1.982
 1052HOH      O 3360   1.492   1.657   0.427
 1052HOH     H1 3361   1.552   1.588   0.399
 1052HOH     H2 3362   1.502   1.725   0.360
 1053HOH      O 3363   3.999   2.974   2.373
 1053HOH     H1 3364   3.977   3.026   2.450
 1053HOH     H2 3365   4.069   3.023   2.330
 1054HOH      O 3366   0.448   1.259   2.494
 1054HOH     H1 3367   0.458   1.178   2.543
 1054HOH     H2 3368   0.422   1.324   2.559
 1055HOH      O 3369   3.768   0.141   0.034
 1055HOH     H1 3370   3.823   0.083  -0.019
 1055HOH     H2 3371   3.811   0.226   0.028
 1056HOH      O 3372   3.174   1.442   2.747
 1056HOH     H1 3373   3.203   1.406   2.832
 1056HOH     H2 3374   3.219   1.387   2.683
 1057HOH      O 3375   1.506   2.674   2.409
 1057HOH     H1 3376   1.459   2.638   2.484
 1057HOH     H2 3377   1.558   2.600   2.376
 1058HOH      O 3378   3.877   3.221   2.182
 1058HOH     H1 3379   3.790   3.258   2.194
 1058HOH     H2 3380   3.863   3.127   2.175
 1059HOH      O 3381   0.538   0.378   1.007
 1059HOH     H1 3382   0.593   0.315   0.960
 1059HOH     H2 3383   0.596   0.452   1.024
 1060HOH      O 3384   3.551   2.003   2.598
 1060HOH     H1 3385   3.637   2.045   2.601
 1060HOH     H2 3386   3.497   2.064   2.548
 1061HOH      O 3387   3.425   0.585   2.923
 1061HOH     H1 3388   3.359   0.566   2.990
 1061HOH     H2 3389   3.509   0.570   2.966
 1062HOH      O 3390   0.891   1.491   0.574
 1062HOH     H1 3391   0.887   1.563   0.512
 1062HOH     H2 3392   0.929   1.530   0.653
 1063HOH      O 3393   1.693   2.649   1.013
 1063HOH     H1 3394   1.741   2.627   1.092
 1063HOH     H2 3395   1.734   2.730   0.982
 1064HOH      O 3396   0.224   1.648   3.905
 1064HOH     H1 3397   0.131   1.643   3.926
 1064HOH     H2 3398   0.227   1.662   3.811
 1065HOH      O 3399   3.522   3.791   1.454
 1065HOH     H1 3400   3.601   3.841   1.478
 1065HOH     H2 3401   3.490   3.835   1.375
 1066HOH      O 3402   3.355   3.556   0.134
 1066HOH     H1 3403   3.395   3.499   0.199
 1066HOH     H2 3404   3.376   3.515   0.050
 1067HOH      O 3405   3.727   1.827   0.348
 1067HOH     H1 3406   3.718   1.883   0.272
 1067HOH     H2 3407   3.650   1.844   0.401
 1068HOH      O 3408   2.305   2.566   3.894
 1068HOH     H1 3409   2.210   2.568   3.904
 1068HOH     H2 3410   2.322   2.486   3.844
 1069HOH      O 3411   2.633   1.526   0.384
 1069HOH     H1 3412   2.577   1.482   0.447
 1069HOH     H2 3413   2.572   1.572   0.325
 1070HOH      O 3414   1.922   2.913   3.016
 1070HOH     H1 3415   1.945   2.998   3.053
 1070HOH     H2 3416   1.994   2.856   3.040
 1071HOH      O 3417   0.067   2.738   0.358
 1071HOH     H1 3418   0.006   2.665   0.363
 1071HOH     H2 3419   0.102   2.746   0.447
 1072HOH      O 3420   0.784   1.976   2.254
 1072HOH     H1 3421   0.787   2.006   2.163
 1072HOH     H2 3422   0.722   1.903   2.253
 1073HOH      O 3423   2.056   3.665   3.894
 1073HOH     H1 3424   1.972   3.676   3.851
 1073HOH     H2 3425   2.102   3.749   3.880
 1074HOH      O 3426   3.417   0.162   2.651
 1074HOH     H1 3427   3.374   0.102   2.712
 1074HOH     H2 3428   3.371   0.245   2.661
 1075HOH      O 3429   3.816   3.403   3.592
 1075HOH     H1 3430   3.843   3.413   3.501
 1075HOH     H2 3431   3.829   3.489   3.631
 1076HOH      O 3432   1.046   2.603   2.181
 1076HOH     H1 3433   0.962   2.561   2.200
 1076HOH     H2 3434   1.112   2.542   2.213
 1077HOH      O 3435   3.204   3.053   0.886
 1077HOH     H1 3436   3.111   3.070   0.869
 1077HOH     H2 3437   3.245   3.058   0.799
 1078HOH      O 3438   0.901   3.241   2.678
 1078HOH     H1 3439   0.908   3.171   2.613
 1078HOH     H2 3440   0.872   3.197   2.758
 1079HOH      O 3441   2.653   0.943   1.245
 1079HOH     H1 3442   2.654   0.869   1.306
 1079HOH     H2 3443   2.587   1.003   1.281
 1080HOH      O 3444   0.158   0.376   3.260
 1080HOH     H1 3445   0.238   0.422   3.287
 1080HOH     H2 3446   0.189   0.290   3.229
 1081HOH      O 3447   3.941   2.821   1.208
 1081HOH     H1 3448   4.005   2.866   1.262
 1081HOH     H2 3449   3.877   2.888   1.185
 1082HOH      O 3450   3.278   2.598   3.243
 1082HOH     H1 3451   3.320   2.586   3.328
 1082HOH     H2 3452   3.255   2.690   3.240
 1083HOH      O 3453   2.123   3.670   0.424
 1083HOH     H1 3454   2.117   3.604   0.493
 1083HOH     H2 3455   2.049   3.652   0.366
 1084HOH      O 3456   1.726   1.934   2.329
 1084HOH     H1 3457   1.666   1.863   2.308
 1084HOH     H2 3458   1.672   1.997   2.377
 1085HOH      O 3459   1.292   2.971   1.405
 1085HOH     H1 3460   1.224   3.037   1.394
 1085HOH     H2 3461   1.355   2.991   1.335
 1086HOH      O 3462   2.167   2.102   1.112
 1086HOH     H1 3463   2.253   2.061   1.113
 1086HOH     H2 3464   2.124   2.070   1.191
 1087HOH      O 3465   1.934   2.156   2.512
 1087HOH     H1 3466   1.930   2.060   2.514
 1087HOH     H2 3467   1.860   2.184   2.567
 1088HOH      O 3468   2.813   1.185   2.051
 1088HOH     H1 3469   2.877   1.132   2.003
 1088HOH     H2 3470   2.864   1.253   2.094
 1089HOH      O 3471   3.991   1.579   3.001
 1089HOH     H1 3472   4.025   1.662   3.034
 1089HOH     H2 3473   4.065   1.541   2.953
 1090HOH      O 3474   3.494   0.613   3.895
 1090HOH     H1 3475   3.578   0.630   3.939
 1090HOH     H2 3476   3.449   0.553   3.953
 1091HOH      O 3477   1.996   0.063   1.570
 1091HOH     H1 3478   1.901   0.076   1.564
 1091HOH     H2 3479   2.006  -0.027   1.599
 1092HOH      O 3480   1.234   0.691   3.995
 1092HOH     H1 3481   1.199   0.720   3.911
 1092HOH     H2 3482   1.324   0.725   3.996
 1093HOH      O 3483   1.873   2.968   2.757
 1093HOH     H1 3484   1.882   2.943   2.849
 1093HOH     H2 3485   1.951   2.933   2.715
 1094HOH      O 3486   1.645   2.451   0.353
 1094HOH     H1 3487   1.715   2.477   0.294
 1094HOH     H2 3488   1.660   2.503   0.432
 1095HOH      O 3489   3.595   3.863   1.984
 1095HOH     H1 3490   3.675   3.831   1.943
 1095HOH     H2 3491   3.532   3.792   1.974
 1096HOH      O 3492   0.939   1.814   2.668
 1096HOH     H1 3493   0.982   1.737   2.706
 1096HOH     H2 3494   0.907   1.784   2.583
 1097HOH      O 3495   1.267   3.159   2.212
 1097HOH     H1 3496   1.342   3.182   2.266
 1097HOH     H2 3497   1.275   3.065   2.197
 1098HOH      O 3498   2.920   0.230   2.760
 1098HOH     H1 3499   2.941   0.320   2.736
 1098HOH     H2 3500   2.869   0.238   2.841
 1099HOH      O 3501   2.212   2.387   2.894
 1099HOH     H1 3502   2.292   2.345   2.863
 1099HOH     H2 3503   2.225   2.481   2.876
 1100HOH      O 3504   0.139   1.192   1.853
 1100HOH     H1 3505   0.086   1.114   1.836
 1100HOH     H2 3506   0.088   1.264   1.817
 1101HOH      O 3507   2.128   3.264   3.429
 1101HOH     H1 3508   2.163   3.329   3.490
 1101HOH     H2 3509   2.059   3.220   3.479
 1102HOH      O 3510   1.518   2.529   3.562
 1102HOH     H1 3511   1.523   2.612   3.514
 1102HOH     H2 3512   1.523   2.462   3.494
 1103HOH      O 3513   2.064   2.041   0.860
 1103HOH     H1 3514   2.108   1.958   0.843
 1103HOH     H2 3515   2.087   2.061   0.951
 1104HOH      O 3516   1.670   0.117   0.402
 1104HOH     H1 3517   1.747   0.064   0.423
 1104HOH     H2 3518   1.615   0.060   0.348
 1105HOH      O 3519   3.229   2.879   3.284
 1105HOH     H1 3520   3.255   2.845   3.370
 1105HOH     H2 3521   3.227   2.974   3.296
 1106HOH      O 3522   0.505   2.591   1.461
 1106HOH     H1 3523   0.458   2.600   1.544
 1106HOH     H2 3524   0.470   2.512   1.421
 1107HOH      O 3525   1.975   1.406   3.816
 1107HOH     H1 3526   2.044   1.470   3.834
 1107HOH     H2 3527   1.960   1.364   3.901
 1108HOH      O 3528   0.012   2.566   0.743
 1108HOH     H1 3529  -0.022   2.624   0.812
 1108HOH     H2 3530   0.096   2.535   0.776
 1109HOH      O 3531   3.466   1.039   3.209
 1109HOH     H1 3532   3.477   1.030   3.304
 1109HOH     H2 3533   3.555   1.052   3.176
 1110HOH      O 3534   0.269   2.827   1.005
 1110HOH     H1 3535   0.304   2.821   0.916
 1110HOH     H2 3536   0.340   2.867   1.056
 1111HOH      O 3537   2.892   1.806   3.421
 1111HOH     H1 3538   2.884   1.847   3.334
 1111HOH     H2 3539   2.980   1.831   3.451
 1112HOH      O 3540   2.762   0.134   3.720
 1112HOH     H1 3541   2.671   0.149   3.744
 1112HOH     H2 3542   2.810   0.208   3.756
 1113HOH      O 3543   3.251   2.807   1.987
 1113HOH     H1 3544   3.203   2.765   2.057
 1113HOH     H2 3545   3.245   2.746   1.913
 1114HOH      O 3546   1.781   0.858   1.498
 1114HOH     H1 3547   1.872   0.880   1.478
 1114HOH     H2 3548   1.780   0.844   1.593
 1115HOH      O 3549   0.471   3.733   2.575
 1115HOH     H1 3550   0.436   3.771   2.495
 1115HOH     H2 3551   0.538   3.795   2.605
 1116HOH      O 3552   4.024   3.038   3.548
 1116HOH     H1 3553   4.033   3.125   3.587
 1116HOH     H2 3554   4.107   3.023   3.502
 1117HOH      O 3555   3.066   1.309   1.200
 1117HOH     H1 3556   3.070   1.221   1.163
 1117HOH     H2 3557   3.002   1.355   1.146
 1118HOH      O 3558   1.817   2.074   2.115
 1118HOH     H1 3559   1.755   2.042   2.049
 1118HOH     H2 3560   1.794   2.026   2.195
 1119HOH      O 3561   1.926   2.639   3.982
 1119HOH     H1 3562   1.893   2.689   3.908
 1119HOH     H2 3563   1.939   2.703   4.051
 1120HOH      O 3564   1.571   1.028   2.358
 1120HOH     H1 3565   1.543   1.104   2.308
 1120HOH     H2 3566   1.568   0.955   2.295
 1121HOH      O 3567   3.336   3.616   1.209
 1121HOH     H1 3568   3.340   3.710   1.226
 1121HOH     H2 3569   3.381   3.576   1.284
 1122HOH      O 3570   0.102   3.406   3.912
 1122HOH     H1 3571   0.059   3.487   3.941
 1122HOH     H2 3572   0.066   3.338   3.970
 1123HOH      O 3573   2.469   1.882   3.555
 1123HOH     H1 3574   2.516   1.809   3.595
 1123HOH     H2 3575   2.425   1.843   3.479
 1124HOH      O 3576   0.266   1.040   0.196
 1124HOH     H1 3577   0.266   1.033   0.101
 1124HOH     H2 3578   0.339   1.099   0.216
 1125HOH      O 3579   0.349   4.038   3.766
 1125HOH     H1 3580   0.288   4.111   3.777
 1125HOH     H2 3581   0.334   3.983   3.843
 1126HOH      O 3582   3.592   0.594   2.038
 1126HOH     H1 3583   3.638   0.621   2.118
 1126HOH     H2 3584   3.633   0.645   1.968
 1127HOH      O 3585   2.512   1.535   1.655
 1127HOH     H1 3586   2.502   1.613   1.708
 1127HOH     H2 3587   2.606   1.529   1.638
 1128HOH      O 3588   0.918   3.008   3.351
 1128HOH     H1 3589   0.964   3.034   3.271
 1128HOH     H2 3590   0.973   3.041   3.422
 1129HOH      O 3591   0.534   1.115   3.802
 1129HOH     H1 3592   0.507   1.207   3.795
 1129HOH     H2 3593   0.516   1.079   3.716
 1130HOH      O 3594   3.027   1.085   1.556
 1130HOH     H1 3595   2.982   1.168   1.573
 1130HOH     H2 3596   3.109   1.109   1.514
 1131HOH      O 3597   0.409   3.463   1.883
 1131HOH     H1 3598   0.480   3.449   1.944
 1131HOH     H2 3599   0.409   3.384   1.828
 1132HOH      O 3600   3.430   1.805   2.043
 1132HOH     H1 3601   3.425   1.802   1.948
 1132HOH     H2 3602   3.339   1.816   2.071
 1133HOH      O 3603   2.267   0.902   3.746
 1133HOH     H1 3604   2.217   0.977   3.780
 1133HOH     H2 3605   2.270   0.841   3.820
 1134HOH      O 3606   0.548   3.860   3.314
 1134HOH     H1 3607   0.458   3.890   3.308
 1134HOH     H2 3608   0.589   3.888   3.233
 1135HOH      O 3609   2.235   3.161   1.882
 1135HOH     H1 3610   2.266   3.234   1.829
 1135HOH     H2 3611   2.176   3.201   1.945
 1136HOH      O 3612   3.407   2.598   3.492
 1136HOH     H1 3613   3.381   2.509   3.516
 1136HOH     H2 3614   3.371   2.653   3.561
 1137HOH      O 3615   1.691   1.145   1.503
 1137HOH     H1 3616   1.695   1.066   1.448
 1137HOH     H2 3617   1.606   1.184   1.482
 1138HOH      O 3618   2.443   1.787   2.119
 1138HOH     H1 3619   2.467   1.875   2.149
 1138HOH     H2 3620   2.403   1.746   2.195
 1139HOH      O 3621   2.988   0.971   0.488
 1139HOH     H1 3622   2.945   0.893   0.522
 1139HOH     H2 3623   3.042   0.940   0.415
 1140HOH      O 3624   3.188   1.269   3.805
 1140HOH     H1 3625   3.128   1.219   3.750
 1140HOH     H2 3626   3.146   1.272   3.891
 1141HOH      O 3627   3.633   3.180   1.384
 1141HOH     H1 3628   3.579   3.147   1.455
 1141HOH     H2 3629   3.656   3.269   1.410
 1142HOH      O 3630   0.588   2.470   3.336
 1142HOH     H1 3631   0.574   2.395   3.278
 1142HOH     H2 3632   0.517   2.531   3.313
 1143HOH      O 3633   1.004   1.778   1.331
 1143HOH     H1 3634   1.057   1.844   1.287
 1143HOH     H2 3635   0.962   1.730   1.259
 1144HOH      O 3636   2.757   1.824   3.675
 1144HOH     H1 3637   2.787   1.806   3.586
 1144HOH     H2 3638   2.837   1.825   3.728
 1145HOH      O 3639   1.729   2.527   2.972
 1145HOH     H1 3640   1.796   2.467   3.006
 1145HOH     H2 3641   1.720   2.594   3.039
 1146HOH      O 3642   2.712   0.239   1.194
 1146HOH     H1 3643   2.766   0.171   1.234
 1146HOH     H2 3644   2.667   0.196   1.122
 1147HOH      O 3645   0.127   1.837   0.899
 1147HOH     H1 3646   0.040   1.870   0.919
 1147HOH     H2 3647   0.117   1.742   0.897
 1148HOH      O 3648   1.118   0.894   1.667
 1148HOH     H1 3649   1.059   0.939   1.728
 1148HOH     H2 3650   1.060   0.858   1.600
 1149HOH      O 3651   1.601   0.440   3.301
 1149HOH     H1 3652   1.590   0.522   3.349
 1149HOH     H2 3653   1.660   0.462   3.229
 1150HOH      O 3654   0.222   0.769   0.041
 1150HOH     H1 3655   0.194   0.844  -0.010
 1150HOH     H2 3656   0.316   0.761   0.023
 1151HOH      O 3657   1.108   0.691   1.446
 1151HOH     H1 3658   1.053   0.688   1.368
 1151HOH     H2 3659   1.189   0.732   1.417
 1152HOH      O 3660   0.403   2.651   3.249
 1152HOH     H1 3661   0.323   2.636   3.200
 1152HOH     H2 3662   0.414   2.746   3.249
 1153HOH      O 3663   3.670   0.129   2.817
 1153HOH     H1 3664   3.616   0.146   2.740
 1153HOH     H2 3665   3.757   0.161   2.793
 1154HOH      O 3666   0.588   3.131   3.857
 1154HOH     H1 3667   0.497   3.131   3.826
 1154HOH     H2 3668   0.638   3.098   3.783
 1155HOH      O 3669   1.093   3.847   0.136
 1155HOH     H1 3670   1.089   3.905   0.213
 1155HOH     H2 3671   1.168   3.790   0.153
 1156HOH      O 3672   1.944   0.291   3.921
 1156HOH     H1 3673   1.888   0.354   3.966
 1156HOH     H2 3674   1.963   0.224   3.986
 1157HOH      O 3675   1.772   3.881   2.709
 1157HOH     H1 3676   1.814   3.866   2.624
 1157HOH     H2 3677   1.686   3.917   2.686
 1158HOH      O 3678   2.343   0.491   3.301
 1158HOH     H1 3679   2.262   0.534   3.274
 1158HOH     H2 3680   2.330   0.399   3.278
 1159HOH      O 3681   1.367   3.784   1.938
 1159HOH     H1 3682   1.356   3.730   2.016
 1159HOH     H2 3683   1.324   3.734   1.868
 1160HOH      O 3684   1.963   0.037   1.088
 1160HOH     H1 3685   1.973  -0.058   1.081
 1160HOH     H2 3686   1.937   0.052   1.179
 1161HOH      O 3687   2.484   3.836   2.446
 1161HOH     H1 3688   2.415   3.777   2.416
 1161HOH     H2 3689   2.542   3.847   2.370
 1162HOH      O 3690   0.422   3.153   1.537
 1162HOH     H1 3691   0.362   3.126   1.467
 1162HOH     H2 3692   0.494   3.091   1.532
 1163HOH      O 3693   0.848   1.716   2.431
 1163HOH     H1 3694   0.897   1.727   2.349
 1163HOH     H2 3695   0.757   1.733   2.407
 1164HOH      O 3696   3.459   3.967   3.480
 1164HOH     H1 3697   3.365   3.957   3.460
 1164HOH     H2 3698   3.469   4.059   3.502
 1165HOH      O 3699   2.770   0.573   1.836
 1165HOH     H1 3700   2.856   0.539   1.859
 1165HOH     H2 3701   2.709   0.506   1.867
 1166HOH      O 3702   3.495   2.420   0.274
 1166HOH     H1 3703   3.426   2.460   0.221
 1166HOH     H2 3704   3.508   2.481   0.346
 1167HOH      O 3705   1.929   1.896   2.856
 1167HOH     H1 3706   2.013   1.924   2.893
 1167HOH     H2 3707   1.864   1.921   2.922
 1168HOH      O 3708   3.847   3.487   3.966
 1168HOH     H1 3709   3.855   3.548   3.893
 1168HOH     H2 3710   3.775   3.428   3.941
 1169HOH      O 3711   1.198   1.098   0.338
 1169HOH     H1 3712   1.140   1.174   0.339
 1169HOH     H2 3713   1.138   1.023   0.333
 1170HOH      O 3714   2.145   1.609   0.962
 1170HOH     H1 3715   2.100   1.541   0.912
 1170HOH     H2 3716   2.174   1.671   0.895
 1171HOH      O 3717   1.961   3.415   3.195
 1171HOH     H1 3718   1.900   3.348   3.226
 1171HOH     H2 3719   1.955   3.484   3.261
 1172HOH      O 3720   2.720   2.976   2.118
 1172HOH     H1 3721   2.633   2.989   2.079
 1172HOH     H2 3722   2.701   2.937   2.204
 1173HOH      O 3723   1.244   1.016   1.132
 1173HOH     H1 3724   1.232   0.927   1.100
 1173HOH     H2 3725   1.193   1.070   1.072
 1174HOH      O 3726   0.094   1.292   4.017
 1174HOH     H1 3727   0.067   1.357   3.952
 1174HOH     H2 3728   0.111   1.343   4.096
 1175HOH      O 3729   3.621   3.413   3.049
 1175HOH     H1 3730   3.589   3.499   3.020
 1175HOH     H2 3731   3.713   3.412   3.024
 1176HOH      O 3732   0.788   1.010   0.856
 1176HOH     H1 3733   0.701   0.993   0.819
 1176HOH     H2 3734   0.848   0.987   0.785
 1177HOH      O 3735   2.579   2.509   3.616
 1177HOH     H1 3736   2.622   2.589   3.584
 1177HOH     H2 3737   2.610   2.500   3.706
 1178HOH      O 3738   0.545   0.918   0.760
 1178HOH     H1 3739   0.477   0.969   0.804
 1178HOH     H2 3740   0.529   0.932   0.667
 1179HOH      O 3741   2.211   2.649   0.406
 1179HOH     H1 3742   2.147   2.581   0.387
 1179HOH     H2 3743   2.296   2.607   0.389
 1180HOH      O 3744   1.045   3.070   1.352
 1180HOH     H1 3745   0.996   3.149   1.373
 1180HOH     H2 3746   1.025   3.010   1.423
 1181HOH      O 3747   1.388   2.657   3.764
 1181HOH     H1 3748   1.311   2.640   3.711
 1181HOH     H2 3749   1.458   2.606   3.723
 1182HOH      O 3750   1.730   3.193   0.607
 1182HOH     H1 3751   1.681   3.203   0.526
 1182HOH     H2 3752   1.804   3.136   0.584
 1183HOH      O 3753   2.521   0.096   1.924
 1183HOH     H1 3754   2.556   0.049   1.999
 1183HOH     H2 3755   2.429   0.071   1.920
 1184HOH      O 3756   0.306   2.416   3.635
 1184HOH     H1 3757   0.267   2.415   3.548
 1184HOH     H2 3758   0.325   2.324   3.654
 1185HOH      O 3759   0.832   3.755   2.731
 1185HOH     H1 3760   0.921   3.784   2.751
 1185HOH     H2 3761   0.843   3.669   2.690
 1186HOH      O 3762   1.829   0.202   3.111
 1186HOH     H1 3763   1.817   0.219   3.205
 1186HOH     H2 3764   1.743   0.174   3.081
 1187HOH      O 3765   0.413   2.469   3.004
 1187HOH     H1 3766   0.455   2.528   2.942
 1187HOH     H2 3767   0.423   2.512   3.089
 1188HOH      O 3768   2.053   2.817   1.096
 1188HOH     H1 3769   2.092   2.777   1.173
 1188HOH     H2 3770   2.052   2.911   1.115
 1189HOH      O 3771   2.034   0.040   2.624
 1189HOH     H1 3772   1.956   0.092   2.604
 1189HOH     H2 3773   2.103   0.105   2.638
 1190HOH      O 3774   3.563   2.625   2.593
 1190HOH     H1 3775   3.649   2.652   2.625
 1190HOH     H2 3776   3.569   2.530   2.584
 1191HOH      O 3777   1.079   2.326   1.884
 1191HOH     H1 3778   1.055   2.305   1.974
 1191HOH     H2 3779   1.015   2.278   1.831
 1192HOH      O 3780   2.866   3.002   3.430
 1192HOH     H1 3781   2.867   3.089   3.470
 1192HOH     H2 3782   2.886   2.942   3.502
 1193HOH      O 3783   2.428   0.596   2.250
 1193HOH     H1 3784   2.337   0.597   2.279
 1193HOH     H2 3785   2.439   0.680   2.205
 1194HOH      O 3786   3.292   3.163   3.039
 1194HOH     H1 3787   3.339   3.089   3.080
 1194HOH     H2 3788   3.207   3.163   3.082
 1195HOH      O 3789   2.270   2.513   2.469
 1195HOH     H1 3790   2.241   2.450   2.535
 1195HOH     H2 3791   2.222   2.593   2.489
 1196HOH      O 3792   0.587   1.550   2.872
 1196HOH     H1 3793   0.559   1.521   2.786
 1196HOH     H2 3794   0.680   1.527   2.876
 1197HOH      O 3795   0.045   3.533   2.519
 1197HOH     H1 3796  -0.021   3.466   2.500
 1197HOH     H2 3797   0.054   3.581   2.437
 1198HOH      O 3798   4.017   2.983   0.607
 1198HOH     H1 3799   4.059   3.052   0.556
 1198HOH     H2 3800   4.064   2.984   0.691
 1199HOH      O 3801   2.056   0.101   3.235
 1199HOH     H1 3802   2.027   0.117   3.145
 1199HOH     H2 3803   2.053   0.187   3.277
 1200HOH      O 3804   3.618   0.287   2.016
 1200HOH     H1 3805   3.588   0.301   2.106
 1200HOH     H2 3806   3.623   0.375   1.979
 1201HOH      O 3807   2.850   2.576   1.953
 1201HOH     H1 3808   2.916   2.518   1.916
 1201HOH     H2 3809   2.892   2.613   2.030
 1202HOH      O 3810   0.944   0.719   2.746
 1202HOH     H1 3811   1.028   0.676   2.728
 1202HOH     H2 3812   0.878   0.652   2.729
 1203HOH      O 3813   0.245   3.810   2.990
 1203HOH     H1 3814   0.298   3.889   2.991
 1203HOH     H2 3815   0.161   3.837   2.955
 1204HOH      O 3816   1.899   0.592   2.583
 1204HOH     H1 3817   1.841   0.635   2.520
 1204HOH     H2 3818   1.943   0.523   2.533
 1205HOH      O 3819   1.331   3.971   3.744
 1205HOH     H1 3820   1.369   3.930   3.666
 1205HOH     H2 3821   1.281   3.900   3.785
 1206HOH      O 3822   4.005   2.161   2.911
 1206HOH     H1 3823   4.016   2.182   2.819
 1206HOH     H2 3824   4.065   2.220   2.956
 1207HOH      O 3825   3.768   1.607   2.477
 1207HOH     H1 3826   3.791   1.678   2.537
 1207HOH     H2 3827   3.673   1.603   2.480
 1208HOH      O 3828   3.341   0.821   3.478
 1208HOH     H1 3829   3.411   0.885   3.468
 1208HOH     H2 3830   3.342   0.798   3.571
 1209HOH      O 3831   3.502   3.811   0.599
 1209HOH     H1 3832   3.438   3.879   0.578
 1209HOH     H2 3833   3.494   3.748   0.527
 1210HOH      O 3834   1.592   0.851   3.646
 1210HOH     H1 3835   1.499   0.837   3.634
 1210HOH     H2 3836   1.628   0.764   3.664
 1211HOH      O 3837   2.980   0.837   2.190
 1211HOH     H1 3838   3.053   0.774   2.190
 1211HOH     H2 3839   3.021   0.920   2.212
 1212HOH      O 3840   3.754   2.243   2.270
 1212HOH     H1 3841   3.755   2.215   2.361
 1212HOH     H2 3842   3.662   2.253   2.248
 1213HOH      O 3843   1.276   1.095   3.095
 1213HOH     H1 3844   1.196   1.137   3.126
 1213HOH     H2 3845   1.285   1.126   3.005
 1214HOH      O 3846   0.225   0.915   1.434
 1214HOH     H1 3847   0.234   1.010   1.440
 1214HOH     H2 3848   0.285   0.881   1.501
 1215HOH      O 3849   0.496   3.830   0.223
 1215HOH     H1 3850   0.419   3.773   0.226
 1215HOH     H2 3851   0.471   3.901   0.163
 1216HOH      O 3852   3.103   0.152   1.903
 1216HOH     H1 3853   3.167   0.101   1.953
 1216HOH     H2 3854   3.118   0.128   1.812
 1217HOH      O 3855   3.087   1.930   3.826
 1217HOH     H1 3856   3.074   1.850   3.775
 1217HOH     H2 3857   3.030   1.995   3.784
 1218HOH      O 3858   3.174   1.643   0.233
 1218HOH     H1 3859   3.102   1.581   0.235
 1218HOH     H2 3860   3.185   1.666   0.141
 1219HOH      O 3861   1.149   1.883   0.804
 1219HOH     H1 3862   1.240   1.853   0.806
 1219HOH     H2 3863   1.153   1.967   0.757
 1220HOH      O 3864   3.544   3.588   3.474
 1220HOH     H1 3865   3.605   3.649   3.516
 1220HOH     H2 3866   3.598   3.536   3.416
 1221HOH      O 3867   3.626   0.671   3.520
 1221HOH     H1 3868   3.602   0.762   3.538
 1221HOH     H2 3869   3.720   0.673   3.507
 1222HOH      O 3870   2.087   3.052   0.216
 1222HOH     H1 3871   2.164   3.049   0.272
 1222HOH     H2 3872   2.070   3.145   0.202
 1223HOH      O 3873   1.051   0.942   2.833
 1223HOH     H1 3874   1.021   0.908   2.917
 1223HOH     H2 3875   1.015   0.881   2.768
 1224HOH      O 3876   0.709   0.979   1.978
 1224HOH     H1 3877   0.636   1.035   2.005
 1224HOH     H2 3878   0.720   0.918   2.052
 1225HOH      O 3879   0.001   0.323   1.756
 1225HOH     H1 3880   0.013   0.400   1.701
 1225HOH     H2 3881  -0.027   0.357   1.840
 1226HOH      O 3882   0.997   2.597   3.004
 1226HOH     H1 3883   0.960   2.513   2.975
 1226HOH     H2 3884   0.925   2.659   2.992
 1227HOH      O 3885   0.092   2.490   1.715
 1227HOH     H1 3886   0.007   2.451   1.695
 1227HOH     H2 3887   0.116   2.537   1.635
 1228HOH      O 3888   2.638   1.363   0.754
 1228HOH     H1 3889   2.652   1.305   0.679
 1228HOH     H2 3890   2.700   1.434   0.741
 1229HOH      O 3891   1.002   2.226   3.920
 1229HOH     H1 3892   0.960   2.291   3.865
 1229HOH     H2 3893   1.062   2.276   3.976
 1230HOH      O 3894   0.074   1.732   2.731
 1230HOH     H1 3895   0.074   1.644   2.769
 1230HOH     H2 3896   0.150   1.775   2.771
 1231HOH      O 3897   3.307   0.709   3.720
 1231HOH     H1 3898   3.382   0.690   3.777
 1231HOH     H2 3899   3.258   0.628   3.716
 1232HOH      O 3900   3.993   0.996   1.782
 1232HOH     H1 3901   4.012   0.922   1.840
 1232HOH     H2 3902   3.899   1.011   1.792
 1233HOH      O 3903   4.022   3.250   0.070
 1233HOH     H1 3904   4.000   3.180   0.132
 1233HOH     H2 3905   3.937   3.282   0.040
 1234HOH      O 3906   0.415   3.273   0.727
 1234HOH     H1 3907   0.440   3.298   0.638
 1234HOH     H2 3908   0.476   3.320   0.784
 1235HOH      O 3909   0.727   3.681   0.162
 1235HOH     H1 3910   0.741   3.753   0.100
 1235HOH     H2 3911   0.651   3.708   0.214
 1236HOH      O 3912   0.120   2.351   3.443
 1236HOH     H1 3913   0.117   2.262   3.477
 1236HOH     H2 3914   0.068   2.348   3.363
 1237HOH      O 3915   2.189   0.622   2.346
 1237HOH     H1 3916   2.151   0.550   2.398
 1237HOH     H2 3917   2.114   0.672   2.316
 1238HOH      O 3918   3.705   1.119   0.873
 1238HOH     H1 3919   3.689   1.212   0.859
 1238HOH     H2 3920   3.774   1.116   0.940
 1239HOH      O 3921   2.423   1.652   0.277
 1239HOH     H1 3922   2.412   1.733   0.227
 1239HOH     H2 3923   2.348   1.598   0.252
 1240HOH      O 3924   2.755   0.583   3.624
 1240HOH     H1 3925   2.753   0.678   3.614
 1240HOH     H2 3926   2.665   0.555   3.604
 1241HOH      O 3927   3.344   4.010   2.263
 1241HOH     H1 3928   3.356   4.104   2.249
 1241HOH     H2 3929   3.432   3.976   2.277
 1242HOH      O 3930   0.266   4.018   1.373
 1242HOH     H1 3931   0.354   4.049   1.394
 1242HOH     H2 3932   0.271   3.986   1.283
 1243HOH      O 3933   3.112   1.994   0.773
 1243HOH     H1 3934   3.175   1.955   0.834
 1243HOH     H2 3935   3.027   1.961   0.803
 1244HOH      O 3936   3.241   0.567   1.908
 1244HOH     H1 3937   3.279   0.622   1.840
 1244HOH     H2 3938   3.243   0.479   1.871
 1245HOH      O 3939   2.693   3.696   3.834
 1245HOH     H1 3940   2.679   3.671   3.926
 1245HOH     H2 3941   2.757   3.766   3.838
 1246HOH      O 3942   1.816   0.347   0.314
 1246HOH     H1 3943   1.903   0.312   0.331
 1246HOH     H2 3944   1.758   0.271   0.321
 1247HOH      O 3945   3.735   3.748   2.367
 1247HOH     H1 3946   3.652   3.701   2.367
 1247HOH     H2 3947   3.801   3.683   2.343
 1248HOH      O 3948   2.402   1.905   1.069
 1248HOH     H1 3949   2.402   1.813   1.095
 1248HOH     H2 3950   2.429   1.952   1.148
 1249HOH      O 3951   1.339   3.758   2.351
 1249HOH     H1 3952   1.402   3.830   2.342
 1249HOH     H2 3953   1.394   3.681   2.367
 1250HOH      O 3954   3.112   1.593   1.322
 1250HOH     H1 3955   3.053   1.535   1.274
 1250HOH     H2 3956   3.186   1.538   1.346
 1251HOH      O 3957   2.144   2.904   0.660
 1251HOH     H1 3958   2.198   2.887   0.582
 1251HOH     H2 3959   2.204   2.947   0.721
 1252HOH      O 3960   2.411   1.047   1.350
 1252HOH     H1 3961   2.399   0.994   1.429
 1252HOH     H2 3962   2.363   1.129   1.369
 1253HOH      O 3963   1.136   0.041   0.931
 1253HOH     H1 3964   1.152  -0.041   0.885
 1253HOH     H2 3965   1.199   0.041   1.003
 1254HOH      O 3966   2.639   1.449   3.425
 1254HOH     H1 3967   2.683   1.376   3.468
 1254HOH     H2 3968   2.619   1.416   3.337
 1255HOH      O 3969   1.607   0.570   2.372
 1255HOH     H1 3970   1.623   0.626   2.448
 1255HOH     H2 3971   1.513   0.552   2.375
 1256HOH      O 3972   1.779   0.003   2.139
 1256HOH     H1 3973   1.763  -0.056   2.065
 1256HOH     H2 3974   1.787   0.090   2.100
 1257HOH      O 3975   1.596   0.740   3.381
 1257HOH     H1 3976   1.568   0.795   3.454
 1257HOH     H2 3977   1.681   0.705   3.409
 1258HOH      O 3978   3.225   3.235   3.821
 1258HOH     H1 3979   3.198   3.149   3.788
 1258HOH     H2 3980   3.159   3.295   3.788
 1259HOH      O 3981   3.741   1.829   1.568
 1259HOH     H1 3982   3.807   1.816   1.635
 1259HOH     H2 3983   3.714   1.920   1.579
 1260HOH      O 3984   3.073   3.406   1.709
 1260HOH     H1 3985   2.987   3.448   1.713
 1260HOH     H2 3986   3.062   3.325   1.758
 1261HOH      O 3987   2.768   2.967   0.610
 1261HOH     H1 3988   2.833   2.906   0.646
 1261HOH     H2 3989   2.812   3.052   0.614
 1262HOH      O 3990   1.126   2.835   3.667
 1262HOH     H1 3991   1.038   2.824   3.630
 1262HOH     H2 3992   1.113   2.827   3.762
 1263HOH      O 3993   2.120   2.031   2.992
 1263HOH     H1 3994   2.211   2.037   2.962
 1263HOH     H2 3995   2.103   2.115   3.034
 1264HOH      O 3996   1.531   3.937   2.616
 1264HOH     H1 3997   1.487   3.956   2.699
 1264HOH     H2 3998   1.518   4.015   2.563
 1265HOH      O 3999   3.907   1.834   2.585
 1265HOH     H1 4000   3.990   1.794   2.613
 1265HOH     H2 4001   3.933   1.900   2.522
 1266HOH      O 4002   2.487   1.382   0.971
 1266HOH     H1 4003   2.556   1.372   0.906
 1266HOH     H2 4004   2.534   1.388   1.055
 1267HOH      O 4005   0.529   0.047   1.338
 1267HOH     H1 4006   0.619   0.075   1.353
 1267HOH     H2 4007   0.533  -0.005   1.258
 1268HOH      O 4008   0.697   0.280   1.590
 1268HOH     H1 4009   0.666   0.237   1.669
 1268HOH     H2 4010   0.701   0.373   1.613
 1269HOH      O 4011   0.811   2.697   0.240
 1269HOH     H1 4012   0.746   2.629   0.220
 1269HOH     H2 4013   0.773   2.777   0.204
 1270HOH      O 4014   3.178   1.668   2.978
 1270HOH     H1 4015   3.270   1.690   2.959
 1270HOH     H2 4016   3.165   1.584   2.933
 1271HOH      O 4017   0.320   1.653   3.634
 1271HOH     H1 4018   0.262   1.724   3.607
 1271HOH     H2 4019   0.279   1.574   3.598
 1272HOH      O 4020   2.349   3.210   0.384
 1272HOH     H1 4021   2.387   3.133   0.426
 1272HOH     H2 4022   2.374   3.202   0.292
 1273HOH      O 4023   1.202   0.428   3.910
 1273HOH     H1 4024   1.237   0.497   3.967
 1273HOH     H2 4025   1.251   0.435   3.829
 1274HOH      O 4026   3.311   3.432   2.567
 1274HOH     H1 4027   3.227   3.441   2.613
 1274HOH     H2 4028   3.355   3.359   2.611
 1275HOH      O 4029   1.579   0.870   2.835
 1275HOH     H1 4030   1.504   0.924   2.862
 1275HOH     H2 4031   1.608   0.827   2.916
 1276HOH      O 4032   3.134   3.975   0.153
 1276HOH     H1 4033   3.105   4.008   0.068
 1276HOH     H2 4034   3.227   4.000   0.158
 1277HOH      O 4035   3.368   2.911   2.839
 1277HOH     H1 4036   3.412   2.944   2.917
 1277HOH     H2 4037   3.431   2.923   2.769
 1278HOH      O 4038   1.098   3.215   1.848
 1278HOH     H1 4039   1.190   3.192   1.829
 1278HOH     H2 4040   1.048   3.142   1.814
 1279HOH      O 4041   0.414   2.835   1.368
 1279HOH     H1 4042   0.351   2.864   1.434
 1279HOH     H2 4043   0.448   2.752   1.402
 1280HOH      O 4044   1.842   0.816   3.781
 1280HOH     H1 4045   1.808   0.737   3.737
 1280HOH     H2 4046   1.892   0.861   3.713
 1281HOH      O 4047   0.613   0.803   1.184
 1281HOH     H1 4048   0.578   0.722   1.223
 1281HOH     H2 4049   0.623   0.782   1.091
 1282HOH      O 4050   3.947   0.231   0.695
 1282HOH     H1 4051   3.952   0.253   0.788
 1282HOH     H2 4052   4.021   0.173   0.680
 1283HOH      O 4053   1.576   2.833   3.474
 1283HOH     H1 4054   1.595   2.913   3.522
 1283HOH     H2 4055   1.486   2.845   3.442
 1284HOH      O 4056   0.876   2.395   3.741
 1284HOH     H1 4057   0.868   2.426   3.651
 1284HOH     H2 4058   0.788   2.366   3.765
 1285HOH      O 4059   0.682   0.337   0.395
 1285HOH     H1 4060   0.743   0.320   0.466
 1285HOH     H2 4061   0.602   0.369   0.438
 1286HOH      O 4062   0.188   0.344   0.495
 1286HOH     H1 4063   0.114   0.295   0.460
 1286HOH     H2 4064   0.236   0.280   0.548
 1287HOH      O 4065   2.945   3.905   1.706
 1287HOH     H1 4066   3.013   3.970   1.688
 1287HOH     H2 4067   2.981   3.853   1.778
 1288HOH      O 4068   3.390   3.296   1.582
 1288HOH     H1 4069   3.370   3.298   1.489
 1288HOH     H2 4070   3.400   3.203   1.603
 1289HOH      O 4071   1.086   1.824   4.004
 1289HOH     H1 4072   1.147   1.757   3.972
 1289HOH     H2 4073   1.080   1.887   3.933
 1290HOH      O 4074   1.869   4.009   2.965
 1290HOH     H1 4075   1.822   3.959   2.898
 1290HOH     H2 4076   1.843   4.100   2.950
 1291HOH      O 4077   0.319   3.162   1.820
 1291HOH     H1 4078   0.241   3.107   1.821
 1291HOH     H2 4079   0.349   3.161   1.729
 1292HOH      O 4080   2.048   1.153   0.215
 1292HOH     H1 4081   2.134   1.166   0.255
 1292HOH     H2 4082   2.008   1.082   0.265
 1293HOH      O 4083   2.718   1.954   1.049
 1293HOH     H1 4084   2.793   1.949   0.990
 1293HOH     H2 4085   2.668   1.874   1.033
 1294HOH      O 4086   0.158   3.365   0.767
 1294HOH     H1 4087   0.238   3.313   0.775
 1294HOH     H2 4088   0.166   3.406   0.680
 1295HOH      O 4089   1.418   3.336   2.054
 1295HOH     H1 4090   1.339   3.286   2.078
 1295HOH     H2 4091   1.482   3.269   2.031
 1296HOH      O 4092   2.640   1.948   0.615
 1296HOH     H1 4093   2.705   1.924   0.550
 1296HOH     H2 4094   2.581   1.872   0.620
 1297HOH      O 4095   2.628   4.003   2.133
 1297HOH     H1 4096   2.707   4.056   2.119
 1297HOH     H2 4097   2.647   3.919   2.091
 1298HOH      O 4098   3.908   2.297   0.391
 1298HOH     H1 4099   3.834   2.240   0.372
 1298HOH     H2 4100   3.898   2.370   0.329
 1299HOH      O 4101   1.208   2.209   1.596
 1299HOH     H1 4102   1.167   2.283   1.550
 1299HOH     H2 4103   1.228   2.243   1.683
 1300HOH      O 4104   1.206   0.034   2.387
 1300HOH     H1 4105   1.175   0.059   2.300
 1300HOH     H2 4106   1.243  -0.054   2.375
 1301HOH      O 4107   3.737   3.451   0.920
 1301HOH     H1 4108   3.815   3.413   0.881
 1301HOH     H2 4109   3.702   3.509   0.852
 1302HOH      O 4110   2.044   3.371   0.500
 1302HOH     H1 4111   2.015   3.280   0.498
 1302HOH     H2 4112   2.138   3.367   0.484
 1303HOH      O 4113   3.316   2.142   1.879
 1303HOH     H1 4114   3.245   2.077   1.880
 1303HOH     H2 4115   3.305   2.190   1.961
 1304HOH      O 4116   2.807   3.439   1.759
 1304HOH     H1 4117   2.722   3.396   1.767
 1304HOH     H2 4118   2.786   3.530   1.737
 1305HOH      O 4119   0.492   1.392   3.934
 1305HOH     H1 4120   0.491   1.475   3.982
 1305HOH     H2 4121   0.446   1.411   3.852
 1306HOH      O 4122   1.502   3.227   3.152
 1306HOH     H1 4123   1.447   3.302   3.130
 1306HOH     H2 4124   1.528   3.191   3.068
 1307HOH      O 4125   0.650   0.937   1.429
 1307HOH     H1 4126   0.639   0.931   1.334
 1307HOH     H2 4127   0.628   0.850   1.461
 1308HOH      O 4128   3.541   1.469   3.716
 1308HOH     H1 4129   3.459   1.475   3.667
 1308HOH     H2 4130   3.523   1.407   3.786
 1309HOH      O 4131   2.538   2.042   2.201
 1309HOH     H1 4132   2.607   2.075   2.143
 1309HOH     H2 4133   2.579   2.034   2.286
 1310HOH      O 4134   2.334   0.628   0.158
 1310HOH     H1 4135   2.395   0.561   0.189
 1310HOH     H2 4136   2.303   0.672   0.238
 1311HOH      O 4137   3.200   0.235   0.954
 1311HOH     H1 4138   3.152   0.307   0.994
 1311HOH     H2 4139   3.236   0.272   0.873
 1312HOH      O 4140   1.723   3.888   1.538
 1312HOH     H1 4141   1.648   3.833   1.561
 1312HOH     H2 4142   1.772   3.896   1.620
 1313HOH      O 4143   3.719   4.019   0.250
 1313HOH     H1 4144   3.758   4.081   0.189
 1313HOH     H2 4145   3.687   3.947   0.195
 1314HOH      O 4146   2.248   1.764   2.574
 1314HOH     H1 4147   2.220   1.677   2.604
 1314HOH     H2 4148   2.166   1.810   2.557
 1315HOH      O 4149   2.801   1.881   0.408
 1315HOH     H1 4150   2.854   1.805   0.434
 1315HOH     H2 4151   2.741   1.847   0.342
 1316HOH      O 4152   2.643   2.305   2.369
 1316HOH     H1 4153   2.689   2.236   2.418
 1316HOH     H2 4154   2.678   2.299   2.281
 1317HOH      O 4155   2.445   0.006   3.716
 1317HOH     H1 4156   2.420   0.092   3.682
 1317HOH     H2 4157   2.409   0.003   3.804
 1318HOH      O 4158   0.546   1.776   1.259
 1318HOH     H1 4159   0.509   1.689   1.243
 1318HOH     H2 4160   0.628   1.776   1.210
 1319HOH      O 4161   3.204   3.478   2.890
 1319HOH     H1 4162   3.128   3.527   2.859
 1319HOH     H2 4163   3.180   3.386   2.879
 1320HOH      O 4164   3.231   2.581   0.801
 1320HOH     H1 4165   3.306   2.600   0.745
 1320HOH     H2 4166   3.161   2.557   0.741
 1321HOH      O 4167   2.880   1.752   2.987
 1321HOH     H1 4168   2.836   1.696   3.051
 1321HOH     H2 4169   2.967   1.715   2.979
 1322HOH      O 4170   1.445   3.014   2.813
 1322HOH     H1 4171   1.510   2.980   2.875
 1322HOH     H2 4172   1.473   2.982   2.728
 1323HOH      O 4173   0.585   3.029   1.317
 1323HOH     H1 4174   0.631   3.007   1.236
 1323HOH     H2 4175   0.526   2.954   1.332
 1324HOH      O 4176   2.770   2.916   3.690
 1324HOH     H1 4177   2.776   2.883   3.780
 1324HOH     H2 4178   2.685   2.961   3.687
 1325HOH      O 4179   0.705   3.116   2.397
 1325HOH     H1 4180   0.684   3.056   2.325
 1325HOH     H2 4181   0.774   3.071   2.446
 1326HOH      O 4182   3.563   2.483   2.021
 1326HOH     H1 4183   3.621   2.556   1.997
 1326HOH     H2 4184   3.619   2.405   2.013
 1327HOH      O 4185   2.469   2.441   2.122
 1327HOH     H1 4186   2.449   2.373   2.186
 1327HOH     H2 4187   2.515   2.509   2.172
 1328HOH      O 4188   1.949   2.873   2.051
 1328HOH     H1 4189   1.974   2.816   2.123
 1328HOH     H2 4190   1.898   2.943   2.092
 1329HOH      O 4191   1.169   2.780   3.955
 1329HOH     H1 4192   1.256   2.743   3.942
 1329HOH     H2 4193   1.140   2.744   4.039
 1330HOH      O 4194   0.865   0.726   1.774
 1330HOH     H1 4195   0.850   0.795   1.839
 1330HOH     H2 4196   0.848   0.645   1.822
 1331HOH      O 4197   1.182   2.297   1.197
 1331HOH     H1 4198   1.248   2.365   1.209
 1331HOH     H2 4199   1.106   2.343   1.160
 1332HOH      O 4200   2.778   0.455   0.771
 1332HOH     H1 4201   2.748   0.500   0.850
 1332HOH     H2 4202   2.749   0.364   0.784
 1333HOH      O 4203   1.245   2.964   3.017
 1333HOH     H1 4204   1.283   3.040   3.061
 1333HOH     H2 4205   1.290   2.959   2.933
 1334HOH      O 4206   1.401   2.634   1.006
 1334HOH     H1 4207   1.424   2.574   1.076
 1334HOH     H2 4208   1.485   2.660   0.968
 1335HOH      O 4209   1.604   4.034   3.334
 1335HOH     H1 4210   1.629   4.114   3.380
 1335HOH     H2 4211   1.684   4.004   3.292
 1336HOH      O 4212   3.716   1.626   3.186
 1336HOH     H1 4213   3.774   1.561   3.146
 1336HOH     H2 4214   3.757   1.710   3.165
 1337HOH      O 4215   1.633   1.803   2.691
 1337HOH     H1 4216   1.562   1.793   2.626
 1337HOH     H2 4217   1.633   1.896   2.713
 1338HOH      O 4218   1.987   3.614   0.814
 1338HOH     H1 4219   1.925   3.564   0.760
 1338HOH     H2 4220   2.069   3.612   0.764
 1339HOH      O 4221   3.795   0.712   2.243
 1339HOH     H1 4222   3.833   0.706   2.331
 1339HOH     H2 4223   3.820   0.800   2.213
 1340HOH      O 4224   1.424   3.480   2.439
 1340HOH     H1 4225   1.478   3.543   2.488
 1340HOH     H2 4226   1.485   3.410   2.415
 1341HOH      O 4227   0.441   3.289   3.605
 1341HOH     H1 4228   0.439   3.322   3.695
 1341HOH     H2 4229   0.460   3.367   3.552
 1342HOH      O 4230   2.521   2.555   2.363
 1342HOH     H1 4231   2.578   2.483   2.387
 1342HOH     H2 4232   2.434   2.529   2.394
 1343HOH      O 4233   1.255   1.957   1.471
 1343HOH     H1 4234   1.234   2.042   1.510
 1343HOH     H2 4235   1.272   1.900   1.546
 1344HOH      O 4236   2.530   3.239   1.005
 1344HOH     H1 4237   2.445   3.278   1.026
 1344HOH     H2 4238   2.525   3.150   1.039
 1345HOH      O 4239   0.526   2.127   0.007
 1345HOH     H1 4240   0.494   2.109   0.095
 1345HOH     H2 4241   0.616   2.094   0.006
 1346HOH      O 4242   3.736   1.663   3.707
 1346HOH     H1 4243   3.751   1.711   3.626
 1346HOH     H2 4244   3.668   1.599   3.685
 1347HOH      O 4245   2.649   0.433   0.020
 1347HOH     H1 4246   2.707   0.401   0.089
 1347HOH     H2 4247   2.624   0.521   0.049
 1348HOH      O 4248   0.448   1.547   2.614
 1348HOH     H1 4249   0.371   1.594   2.584
 1348HOH     H2 4250   0.499   1.530   2.534
 1349HOH      O 4251   3.049   0.860   4.002
 1349HOH     H1 4252   3.062   0.768   3.982
 1349HOH     H2 4253   3.125   0.904   3.963
 1350HOH      O 4254   0.174   2.327   2.942
 1350HOH     H1 4255   0.265   2.358   2.940
 1350HOH     H2 4256   0.135   2.363   2.862
 1351HOH      O 4257   2.501   2.546   2.924
 1351HOH     H1 4258   2.504   2.463   2.972
 1351HOH     H2 4259   2.558   2.532   2.848
 1352HOH      O 4260   1.363   0.828   2.661
 1352HOH     H1 4261   1.315   0.908   2.641
 1352HOH     H2 4262   1.438   0.858   2.713
 1353HOH      O 4263   2.098   1.505   3.145
 1353HOH     H1 4264   2.173   1.450   3.120
 1353HOH     H2 4265   2.073   1.549   3.064
 1354HOH      O 4266   0.151   1.417   3.572
 1354HOH     H1 4267   0.118   1.471   3.501
 1354HOH     H2 4268   0.082   1.420   3.639
 1355HOH      O 4269   3.570   1.787   0.992
 1355HOH     H1 4270   3.610   1.826   1.070
 1355HOH     H2 4271   3.624   1.818   0.919
 1356HOH      O 4272   1.023   1.275   0.725
 1356HOH     H1 4273   0.993   1.198   0.676
 1356HOH     H2 4274   0.944   1.325   0.742
 1357HOH      O 4275   3.698   1.395   1.885
 1357HOH     H1 4276   3.711   1.490   1.886
 1357HOH     H2 4277   3.667   1.376   1.797
 1358HOH      O 4278   1.558   0.093   3.632
 1358HOH     H1 4279   1.491   0.026   3.649
 1358HOH     H2 4280   1.641   0.049   3.652
 1359HOH      O 4281   1.568   2.948   1.656
 1359HOH     H1 4282   1.657   2.927   1.684
 1359HOH     H2 4283   1.571   2.941   1.561
 1360HOH      O 4284   0.044   4.041   3.517
 1360HOH     H1 4285   0.112   3.998   3.465
 1360HOH     H2 4286  -0.029   4.054   3.457
 1361HOH      O 4287   3.788   0.286   0.464
 1361HOH     H1 4288   3.829   0.260   0.547
 1361HOH     H2 4289   3.779   0.204   0.416
 1362HOH      O 4290   2.382   0.036   3.083
 1362HOH     H1 4291   2.365  -0.043   3.134
 1362HOH     H2 4292   2.301   0.052   3.035
 1363HOH      O 4293   0.520   1.553   0.657
 1363HOH     H1 4294   0.581   1.590   0.720
 1363HOH     H2 4295   0.450   1.514   0.710
 1364HOH      O 4296   2.911   3.637   0.249
 1364HOH     H1 4297   2.934   3.603   0.335
 1364HOH     H2 4298   2.994   3.654   0.206
 1365HOH      O 4299   3.728   3.445   1.419
 1365HOH     H1 4300   3.748   3.480   1.332
 1365HOH     H2 4301   3.787   3.491   1.478
 1366HOH      O 4302   1.128   3.205   0.248
 1366HOH     H1 4303   1.196   3.232   0.311
 1366HOH     H2 4304   1.139   3.111   0.240
 1367HOH      O 4305   0.369   0.075   1.955
 1367HOH     H1 4306   0.313   0.128   2.013
 1367HOH     H2 4307   0.393  -0.001   2.009
 1368HOH      O 4308   3.018   0.899   0.925
 1368HOH     H1 4309   2.936   0.851   0.938
 1368HOH     H2 4310   3.074   0.839   0.876
 1369HOH      O 4311   1.688   1.225   2.521
 1369HOH     H1 4312   1.783   1.234   2.521
 1369HOH     H2 4313   1.670   1.158   2.456
 1370HOH      O 4314   0.099   0.684   0.855
 1370HOH     H1 4315   0.169   0.749   0.863
 1370HOH     H2 4316   0.142   0.607   0.819
 1371HOH      O 4317   3.217   3.543   2.339
 1371HOH     H1 4318   3.256   3.627   2.362
 1371HOH     H2 4319   3.218   3.492   2.420
 1372HOH      O 4320   2.994   2.277   3.034
 1372HOH     H1 4321   3.034   2.198   2.997
 1372HOH     H2 4322   3.055   2.307   3.101
 1373HOH      O 4323   2.278   1.356   1.228
 1373HOH     H1 4324   2.189   1.319   1.234
 1373HOH     H2 4325   2.308   1.360   1.319
 1374HOH      O 4326   3.880   1.858   3.166
 1374HOH     H1 4327   3.943   1.921   3.201
 1374HOH     H2 4328   3.881   1.872   3.072
 1375HOH      O 4329   2.642   0.754   1.469
 1375HOH     H1 4330   2.547   0.761   1.481
 1375HOH     H2 4331   2.677   0.826   1.522
 1376HOH      O 4332   3.884   3.484   3.047
 1376HOH     H1 4333   3.975   3.466   3.025
 1376HOH     H2 4334   3.874   3.578   3.033
 1377HOH      O 4335   3.280   2.705   2.530
 1377HOH     H1 4336   3.374   2.698   2.544
 1377HOH     H2 4337   3.251   2.764   2.600
 1378HOH      O 4338   0.672   1.801   1.490
 1378HOH     H1 4339   0.602   1.792   1.554
 1378HOH     H2 4340   0.629   1.790   1.406
 1379HOH      O 4341   2.937   3.890   3.482
 1379HOH     H1 4342   3.007   3.904   3.418
 1379HOH     H2 4343   2.958   3.806   3.523
 1380HOH      O 4344   3.280   3.422   3.177
 1380HOH     H1 4345   3.312   3.332   3.178
 1380HOH     H2 4346   3.249   3.435   3.087
 1381HOH      O 4347   1.966   1.426   0.861
 1381HOH     H1 4348   2.039   1.365   0.872
 1381HOH     H2 4349   1.922   1.425   0.946
 1382HOH      O 4350   3.855   0.014   2.999
 1382HOH     H1 4351   3.875   0.086   3.060
 1382HOH     H2 4352   3.790   0.051   2.940
 1383HOH      O 4353   0.392   3.291   2.241
 1383HOH     H1 4354   0.354   3.373   2.270
 1383HOH     H2 4355   0.486   3.308   2.237
 1384HOH      O 4356   2.094   0.183   1.801
 1384HOH     H1 4357   2.042   0.149   1.728
 1384HOH     H2 4358   2.153   0.111   1.823
 1385HOH      O 4359   0.551   3.626   1.528
 1385HOH     H1 4360   0.488   3.557   1.510
 1385HOH     H2 4361   0.497   3.699   1.560
 1386HOH      O 4362   0.856   0.804   1.025
 1386HOH     H1 4363   0.914   0.758   0.965
 1386HOH     H2 4364   0.829   0.882   0.978
 1387HOH      O 4365   2.458   0.421   0.271
 1387HOH     H1 4366   2.407   0.439   0.350
 1387HOH     H2 4367   2.478   0.328   0.276
 1388HOH      O 4368   1.969   2.324   0.430
 1388HOH     H1 4369   1.977   2.327   0.525
 1388HOH     H2 4370   1.906   2.253   0.414
 1389HOH      O 4371   3.648   3.870   2.744
 1389HOH     H1 4372   3.727   3.874   2.690
 1389HOH     H2 4373   3.651   3.949   2.797
 1390HOH      O 4374   2.042   1.703   2.196
 1390HOH     H1 4375   2.005   1.717   2.109
 1390HOH     H2 4376   2.078   1.788   2.221
 1391HOH      O 4377   2.488   1.642   3.108
 1391HOH     H1 4378   2.516   1.550   3.111
 1391HOH     H2 4379   2.418   1.648   3.174
 1392HOH      O 4380   2.669   0.934   2.776
 1392HOH     H1 4381   2.587   0.899   2.741
 1392HOH     H2 4382   2.662   1.029   2.762
 1393HOH      O 4383   4.004   0.895   1.534
 1393HOH     H1 4384   4.003   0.932   1.622
 1393HOH     H2 4385   4.094   0.866   1.521
 1394HOH      O 4386   0.843   0.917   0.148
 1394HOH     H1 4387   0.891   0.981   0.096
 1394HOH     H2 4388   0.783   0.969   0.201
 1395HOH      O 4389   1.222   3.709   1.153
 1395HOH     H1 4390   1.287   3.654   1.196
 1395HOH     H2 4391   1.216   3.787   1.209
 1396HOH      O 4392   3.491   0.077   4.013
 1396HOH     H1 4393   3.428   0.104   4.080
 1396HOH     H2 4394   3.575   0.076   4.058
 1397HOH      O 4395   0.028   3.875   1.128
 1397HOH     H1 4396  -0.011   3.960   1.150
 1397HOH     H2 4397  -0.025   3.811   1.177
 1398HOH      O 4398   1.824   0.591   0.502
 1398HOH     H1 4399   1.809   0.518   0.562
 1398HOH     H2 4400   1.839   0.549   0.417
 1399HOH      O 4401   0.501   1.067   2.133
 1399HOH     H1 4402   0.406   1.063   2.126
 1399HOH     H2 4403   0.523   1.000   2.198
 1400HOH      O 4404   0.485   2.058   1.317
 1400HOH     H1 4405   0.394   2.052   1.288
 1400HOH     H2 4406   0.521   1.971   1.303
 1401HOH      O 4407   2.979   1.903   2.554
 1401HOH     H1 4408   3.028   1.821   2.552
 1401HOH     H2 4409   2.895   1.882   2.513
 1402HOH      O 4410   3.288   1.098   1.439
 1402HOH     H1 4411   3.335   1.066   1.516
 1402HOH     H2 4412   3.276   1.021   1.385
 1403HOH      O 4413   3.414   2.013   3.793
 1403HOH     H1 4414   3.358   1.996   3.717
 1403HOH     H2 4415   3.502   2.021   3.758
 1404HOH      O 4416   2.913   2.094   2.742
 1404HOH     H1 4417   2.984   2.080   2.805
 1404HOH     H2 4418   2.922   2.021   2.681
 1405HOH      O 4419   1.523   1.870   0.262
 1405HOH     H1 4420   1.432   1.889   0.241
 1405HOH     H2 4421   1.574   1.922   0.200
 1406HOH      O 4422   3.407   0.493   0.100
 1406HOH     H1 4423   3.469   0.520   0.168
 1406HOH     H2 4424   3.350   0.429   0.143
 1407HOH      O 4425   0.324   0.822   1.972
 1407HOH     H1 4426   0.384   0.861   1.909
 1407HOH     H2 4427   0.273   0.895   2.006
 1408HOH      O 4428   2.250   0.718   1.536
 1408HOH     H1 4429   2.214   0.696   1.622
 1408HOH     H2 4430   2.278   0.635   1.499
 1409HOH      O 4431   1.276   1.300   0.610
 1409HOH     H1 4432   1.195   1.317   0.658
 1409HOH     H2 4433   1.256   1.225   0.555
 1410HOH      O 4434   2.415   2.761   2.580
 1410HOH     H1 4435   2.440   2.819   2.653
 1410HOH     H2 4436   2.411   2.819   2.504
 1411HOH      O 4437   1.404   0.292   0.139
 1411HOH     H1 4438   1.428   0.239   0.064
 1411HOH     H2 4439   1.308   0.290   0.141
 1412HOH      O 4440   2.756   3.050   2.694
 1412HOH     H1 4441   2.792   2.962   2.694
 1412HOH     H2 4442   2.796   3.092   2.770
 1413HOH      O 4443   3.209   3.781   0.785
 1413HOH     H1 4444   3.268   3.745   0.852
 1413HOH     H2 4445   3.245   3.750   0.702
 1414HOH      O 4446   2.784   4.024   1.300
 1414HOH     H1 4447   2.815   3.972   1.226
 1414HOH     H2 4448   2.764   3.959   1.368
 1415HOH      O 4449   2.300   1.041   2.402
 1415HOH     H1 4450   2.311   1.072   2.492
 1415HOH     H2 4451   2.312   0.946   2.408
 1416HOH      O 4452   3.552   3.199   2.467
 1416HOH     H1 4453   3.601   3.242   2.538
 1416HOH     H2 4454   3.614   3.193   2.395
 1417HOH      O 4455   3.953   2.834   3.173
 1417HOH     H1 4456   3.881   2.811   3.114
 1417HOH     H2 4457   3.910   2.872   3.250
 1418HOH      O 4458   3.394   0.732   2.697
 1418HOH     H1 4459   3.481   0.716   2.660
 1418HOH     H2 4460   3.398   0.695   2.785
 1419HOH      O 4461   1.553   1.456   2.499
 1419HOH     H1 4462   1.470   1.445   2.546
 1419HOH     H2 4463   1.596   1.371   2.507
 1420HOH      O 4464   2.289   0.921   3.288
 1420HOH     H1 4465   2.384   0.929   3.278
 1420HOH     H2 4466   2.262   0.867   3.213
 1421HOH      O 4467   0.099   0.481   1.302
 1421HOH     H1 4468   0.194   0.485   1.310
 1421HOH     H2 4469   0.077   0.549   1.238
 1422HOH      O 4470   1.383   1.097   2.585
 1422HOH     H1 4471   1.455   1.077   2.526
 1422HOH     H2 4472   1.358   1.187   2.563
 1423HOH      O 4473   3.079   3.757   1.892
 1423HOH     H1 4474   3.131   3.827   1.932
 1423HOH     H2 4475   3.111   3.677   1.934
 1424HOH      O 4476   1.857   3.039   1.325
 1424HOH     H1 4477   1.839   3.099   1.253
 1424HOH     H2 4478   1.782   2.979   1.325
 1425HOH      O 4479   2.351   1.315   3.106
 1425HOH     H1 4480   2.345   1.237   3.051
 1425HOH     H2 4481   2.445   1.329   3.118
 1426HOH      O 4482   3.141   0.578   2.390
 1426HOH     H1 4483   3.171   0.618   2.309
 1426HOH     H2 4484   3.126   0.652   2.450
 1427HOH      O 4485   1.383   0.833   0.969
 1427HOH     H1 4486   1.417   0.902   0.912
 1427HOH     H2 4487   1.342   0.771   0.908
 1428HOH      O 4488   0.985   1.826   3.528
 1428HOH     H1 4489   1.071   1.788   3.550
 1428HOH     H2 4490   1.006   1.902   3.473
 1429HOH      O 4491   2.796   1.666   2.678
 1429HOH     H1 4492   2.813   1.576   2.650
 1429HOH     H2 4493   2.882   1.702   2.697
 1430HOH      O 4494   1.828   1.351   2.181
 1430HOH     H1 4495   1.828   1.256   2.198
 1430HOH     H2 4496   1.880   1.387   2.253
 1431HOH      O 4497   3.184   1.964   2.398
 1431HOH     H1 4498   3.150   2.034   2.343
 1431HOH     H2 4499   3.122   1.959   2.472
 1432HOH      O 4500   0.313   3.654   2.772
 1432HOH     H1 4501   0.368   3.704   2.712
 1432HOH     H2 4502   0.275   3.719   2.830
 1433HOH      O 4503   1.547   1.303   0.701
 1433HOH     H1 4504   1.567   1.397   0.704
 1433HOH     H2 4505   1.457   1.299   0.667
 1434HOH      O 4506   3.412   0.653   0.949
 1434HOH     H1 4507   3.443   0.580   1.003
 1434HOH     H2 4508   3.484   0.716   0.950
 1435HOH      O 4509   1.228   3.616   1.726
 1435HOH     H1 4510   1.203   3.565   1.649
 1435HOH     H2 4511   1.224   3.707   1.697
 1436HOH      O 4512   1.284   1.371   2.568
 1436HOH     H1 4513   1.244   1.361   2.654
 1436HOH     H2 4514   1.211   1.393   2.510
 1437HOH      O 4515   1.280   0.091   1.692
 1437HOH     H1 4516   1.302   0.134   1.609
 1437HOH     H2 4517   1.281   0.162   1.756
 1438HOH      O 4518   0.835   0.476   1.890
 1438HOH     H1 4519   0.819   0.429   1.972
 1438HOH     H2 4520   0.891   0.418   1.839
 1439HOH      O 4521   3.879   2.321   1.792
 1439HOH     H1 4522   3.960   2.275   1.815
 1439HOH     H2 4523   3.810   2.270   1.834
 1440HOH      O 4524   0.540   3.976   0.766
 1440HOH     H1 4525   0.454   3.949   0.800
 1440HOH     H2 4526   0.561   3.910   0.701
 1441HOH      O 4527   3.239   3.954   1.979
 1441HOH     H1 4528   3.270   3.998   2.058
 1441HOH     H2 4529   3.318   3.915   1.941
 1442HOH      O 4530   0.758   0.203   4.006
 1442HOH     H1 4531   0.832   0.195   3.946
 1442HOH     H2 4532   0.741   0.114   4.036
 1443HOH      O 4533   3.609   3.215   3.677
 1443HOH     H1 4534   3.671   3.263   3.623
 1443HOH     H2 4535   3.524   3.231   3.635
 1444HOH      O 4536   1.038   0.241   2.111
 1444HOH     H1 4537   1.122   0.193   2.114
 1444HOH     H2 4538   1.046   0.298   2.035
 1445HOH      O 4539   3.972   2.488   3.042
 1445HOH     H1 4540   3.956   2.553   2.973
 1445HOH     H2 4541   3.918   2.519   3.115
 1446HOH      O 4542   0.066   2.290   3.174
 1446HOH     H1 4543   0.004   2.361   3.154
 1446HOH     H2 4544   0.134   2.298   3.107
 1447HOH      O 4545   0.622   3.941   2.736
 1447HOH     H1 4546   0.652   4.005   2.800
 1447HOH     H2 4547   0.698   3.885   2.720
 1448HOH      O 4548   2.737   0.114   2.555
 1448HOH     H1 4549   2.795   0.100   2.630
 1448HOH     H2 4550   2.772   0.058   2.486
 1449HOH      O 4551   1.202   0.929   0.705
 1449HOH     H1 4552   1.279   0.976   0.737
 1449HOH     H2 4553   1.232   0.889   0.623
 1450HOH      O 4554   3.501   3.293   1.845
 1450HOH     H1 4555   3.573   3.355   1.834
 1450HOH     H2 4556   3.453   3.296   1.762
 1451HOH      O 4557   0.842   3.759   1.150
 1451HOH     H1 4558   0.852   3.828   1.216
 1451HOH     H2 4559   0.793   3.690   1.195
 1452HOH      O 4560   1.651   1.561   0.795
 1452HOH     H1 4561   1.647   1.629   0.728
 1452HOH     H2 4562   1.705   1.598   0.864
 1453HOH      O 4563   3.823   3.499   3.329
 1453HOH     H1 4564   3.784   3.467   3.247
 1453HOH     H2 4565   3.911   3.525   3.305
 1454HOH      O 4566   2.934   1.942   1.236
 1454HOH     H1 4567   2.933   2.019   1.293
 1454HOH     H2 4568   2.843   1.930   1.210
 1455HOH      O 4569   1.155   2.157   0.223
 1455HOH     H1 4570   1.174   2.132   0.313
 1455HOH     H2 4571   1.173   2.078   0.171
 1456HOH      O 4572   3.318   2.421   1.247
 1456HOH     H1 4573   3.322   2.515   1.226
 1456HOH     H2 4574   3.360   2.378   1.172
 1457HOH      O 4575   3.944   1.457   3.715
 1457HOH     H1 4576   3.900   1.383   3.674
 1457HOH     H2 4577   3.876   1.524   3.725
 1458HOH      O 4578   0.359   1.590   2.250
 1458HOH     H1 4579   0.308   1.613   2.328
 1458HOH     H2 4580   0.430   1.535   2.283
 1459HOH      O 4581   1.981   0.564   1.507
 1459HOH     H1 4582   2.022   0.536   1.589
 1459HOH     H2 4583   2.053   0.565   1.444
 1460HOH      O 4584   2.168   1.396   0.584
 1460HOH     H1 4585   2.178   1.370   0.676
 1460HOH     H2 4586   2.153   1.313   0.538
 1461HOH      O 4587   3.242   0.599   3.150
 1461HOH     H1 4588   3.167   0.587   3.207
 1461HOH     H2 4589   3.265   0.692   3.159
 1462HOH      O 4590   1.494   3.890   2.927
 1462HOH     H1 4591   1.404   3.878   2.957
 1462HOH     H2 4592   1.532   3.802   2.930
 1463HOH      O 4593   1.987   0.339   2.014
 1463HOH     H1 4594   2.056   0.319   2.077
 1463HOH     H2 4595   2.017   0.301   1.932
 1464HOH      O 4596   3.196   3.663   3.518
 1464HOH     H1 4597   3.286   3.645   3.493
 1464HOH     H2 4598   3.200   3.742   3.571
 1465HOH      O 4599   2.151   2.696   1.318
 1465HOH     H1 4600   2.071   2.651   1.345
 1465HOH     H2 4601   2.185   2.735   1.398
 1466HOH      O 4602   2.971   3.653   0.892
 1466HOH     H1 4603   3.007   3.569   0.920
 1466HOH     H2 4604   3.041   3.692   0.840
 1467HOH      O 4605   1.880   2.359   3.262
 1467HOH     H1 4606   1.954   2.313   3.223
 1467HOH     H2 4607   1.900   2.452   3.248
 1468HOH      O 4608   1.396   1.873   1.223
 1468HOH     H1 4609   1.315   1.871   1.172
 1468HOH     H2 4610   1.369   1.906   1.309
 1469HOH      O 4611   0.640   3.577   1.274
 1469HOH     H1 4612   0.560   3.529   1.253
 1469HOH     H2 4613   0.616   3.630   1.351
 1470HOH      O 4614   3.959   1.816   1.086
 1470HOH     H1 4615   3.892   1.880   1.062
 1470HOH     H2 4616   3.910   1.738   1.109
 1471HOH      O 4617   0.873   1.525   2.861
 1471HOH     H1 4618   0.939   1.504   2.795
 1471HOH     H2 4619   0.922   1.525   2.944
 1472HOH      O 4620   2.494   2.298   3.447
 1472HOH     H1 4621   2.523   2.386   3.470
 1472HOH     H2 4622   2.575   2.248   3.434
 1473HOH      O 4623   0.547   3.797   2.970
 1473HOH     H1 4624   0.572   3.825   2.882
 1473HOH     H2 4625   0.511   3.876   3.011
 1474HOH      O 4626   0.981   3.233   0.593
 1474HOH     H1 4627   0.965   3.139   0.583
 1474HOH     H2 4628   1.067   3.247   0.553
 1475HOH      O 4629   3.785   3.161   0.554
 1475HOH     H1 4630   3.840   3.092   0.591
 1475HOH     H2 4631   3.701   3.151   0.599
 1476HOH      O 4632   2.696   0.837   1.914
 1476HOH     H1 4633   2.603   0.841   1.892
 1476HOH     H2 4634   2.731   0.767   1.858
 1477HOH      O 4635   1.219   4.033   2.052
 1477HOH     H1 4636   1.253   3.948   2.023
 1477HOH     H2 4637   1.283   4.097   2.018
 1478HOH      O 4638   0.502   4.002   1.605
 1478HOH     H1 4639   0.593   4.000   1.633
 1478HOH     H2 4640   0.503   3.963   1.518
 1479HOH      O 4641   2.593   2.153   3.106
 1479HOH     H1 4642   2.584   2.062   3.135
 1479HOH     H2 4643   2.670   2.152   3.049
 1480HOH      O 4644   1.055   0.872   0.307
 1480HOH     H1 4645   1.084   0.789   0.269
 1480HOH     H2 4646   0.986   0.903   0.249
 1481HOH      O 4647   2.860   0.865   1.649
 1481HOH     H1 4648   2.904   0.950   1.649
 1481HOH     H2 4649   2.931   0.801   1.655
 1482HOH      O 4650   1.570   0.541   1.625
 1482HOH     H1 4651   1.560   0.636   1.622
 1482HOH     H2 4652   1.486   0.507   1.592
 1483HOH      O 4653   1.659   2.465   2.363
 1483HOH     H1 4654   1.710   2.492   2.439
 1483HOH     H2 4655   1.719   2.411   2.312
 1484HOH      O 4656   0.787   2.331   1.509
 1484HOH     H1 4657   0.857   2.395   1.510
 1484HOH     H2 4658   0.760   2.325   1.417
 1485HOH      O 4659   0.532   1.171   1.555
 1485HOH     H1 4660   0.497   1.151   1.642
 1485HOH     H2 4661   0.550   1.085   1.516
 1486HOH      O 4662   3.272   2.870   1.143
 1486HOH     H1 4663   3.266   2.947   1.086
 1486HOH     H2 4664   3.361   2.837   1.129
 1487HOH      O 4665   0.875   3.604   0.399
 1487HOH     H1 4666   0.843   3.633   0.313
 1487HOH     H2 4667   0.828   3.522   0.415
 1488HOH      O 4668   0.783   1.380   3.967
 1488HOH     H1 4669   0.825   1.335   3.894
 1488HOH     H2 4670   0.692   1.392   3.939
 1489HOH      O 4671   1.487   1.330   3.946
 1489HOH     H1 4672   1.490   1.305   4.039
 1489HOH     H2 4673   1.445   1.257   3.903
 1490HOH      O 4674   3.671   1.090   3.820
 1490HOH     H1 4675   3.726   1.039   3.879
 1490HOH     H2 4676   3.731   1.153   3.780
 1491HOH      O 4677   0.849   0.275   0.583
 1491HOH     H1 4678   0.793   0.221   0.639
 1491HOH     H2 4679   0.914   0.214   0.548
 1492HOH      O 4680   1.338   3.005   0.095
 1492HOH     H1 4681   1.401   2.935   0.074
 1492HOH     H2 4682   1.346   3.066   0.022
 1493HOH      O 4683   2.866   1.841   0.848
 1493HOH     H1 4684   2.813   1.802   0.779
 1493HOH     H2 4685   2.873   1.773   0.915
 1494HOH      O 4686   2.738   4.032   3.341
 1494HOH     H1 4687   2.696   3.950   3.316
 1494HOH     H2 4688   2.788   4.009   3.420
 1495HOH      O 4689   2.583   0.353   2.125
 1495HOH     H1 4690   2.549   0.300   2.197
 1495HOH     H2 4691   2.569   0.299   2.047
 1496HOH      O 4692   3.854   2.377   0.880
 1496HOH     H1 4693   3.902   2.436   0.822
 1496HOH     H2 4694   3.922   2.332   0.930
 1497HOH      O 4695   0.510   2.821   2.667
 1497HOH     H1 4696   0.467   2.880   2.605
 1497HOH     H2 4697   0.477   2.848   2.753
 1498HOH      O 4698   1.468   1.200   3.253
 1498HOH     H1 4699   1.427   1.150   3.183
 1498HOH     H2 4700   1.489   1.285   3.213
 1499HOH      O 4701   2.451   3.230   2.837
 1499HOH     H1 4702   2.479   3.318   2.859
 1499HOH     H2 4703   2.533   3.182   2.823
 1500HOH      O 4704   2.353   1.715   3.987
 1500HOH     H1 4705   2.324   1.795   4.030
 1500HOH     H2 4706   2.402   1.745   3.910
 1501HOH      O 4707   0.712   2.716   1.307
 1501HOH     H1 4708   0.796   2.669   1.304
 1501HOH     H2 4709   0.663   2.672   1.377
 1502HOH      O 4710   3.831   2.750   1.513
 1502HOH     H1 4711   3.899   2.815   1.530
 1502HOH     H2 4712   3.772   2.756   1.588
 1503HOH      O 4713   0.899   3.684   3.840
 1503HOH     H1 4714   0.960   3.640   3.781
 1503HOH     H2 4715   0.813   3.665   3.803
 1504HOH      O 4716   2.124   1.978   2.174
 1504HOH     H1 4717   2.185   2.044   2.141
 1504HOH     H2 4718   2.037   2.015   2.156
 1505HOH      O 4719   3.935   2.785   1.802
 1505HOH     H1 4720   4.013   2.836   1.779
 1505HOH     H2 4721   3.964   2.728   1.873
 1506HOH      O 4722   0.870   2.225   1.028
 1506HOH     H1 4723   0.903   2.194   1.112
 1506HOH     H2 4724   0.820   2.152   0.992
 1507HOH      O 4725   3.716   2.253   2.012
 1507HOH     H1 4726   3.652   2.186   2.036
 1507HOH     H2 4727   3.778   2.254   2.086
 1508HOH      O 4728   3.326   0.922   0.251
 1508HOH     H1 4729   3.414   0.917   0.213
 1508HOH     H2 4730   3.339   0.964   0.336
 1509HOH      O 4731   2.264   3.775   2.303
 1509HOH     H1 4732   2.286   3.828   2.226
 1509HOH     H2 4733   2.180   3.809   2.333
 1510HOH      O 4734   2.338   0.467   3.767
 1510HOH     H1 4735   2.303   0.548   3.804
 1510HOH     H2 4736   2.387   0.427   3.839
 1511HOH      O 4737   0.780   1.778   1.131
 1511HOH     H1 4738   0.849   1.714   1.112
 1511HOH     H2 4739   0.799   1.852   1.073
 1512HOH      O 4740   1.186   2.044   0.559
 1512HOH     H1 4741   1.174   2.138   0.573
 1512HOH     H2 4742   1.275   2.036   0.526
 1513HOH      O 4743   1.672   1.991   0.077
 1513HOH     H1 4744   1.711   2.015  -0.007
 1513HOH     H2 4745   1.740   1.942   0.122
 1514HOH      O 4746   3.922   0.343   3.787
 1514HOH     H1 4747   3.842   0.396   3.782
 1514HOH     H2 4748   3.950   0.333   3.696
 1515HOH      O 4749   2.975   2.589   1.269
 1515HOH     H1 4750   3.036   2.626   1.333
 1515HOH     H2 4751   3.012   2.613   1.184
 1516HOH      O 4752   4.040   2.463   2.276
 1516HOH     H1 4753   4.107   2.416   2.325
 1516HOH     H2 4754   3.968   2.400   2.267
 1517HOH      O 4755   3.192   1.766   1.728
 1517HOH     H1 4756   3.123   1.709   1.693
 1517HOH     H2 4757   3.144   1.838   1.769
 1518HOH      O 4758   3.126   2.035   1.621
 1518HOH     H1 4759   3.048   2.072   1.581
 1518HOH     H2 4760   3.107   2.035   1.715
 1519HOH      O 4761   2.432   0.306   1.277
 1519HOH     H1 4762   2.396   0.218   1.264
 1519HOH     H2 4763   2.526   0.295   1.268
 1520HOH      O 4764   3.900   3.766   1.317
 1520HOH     H1 4765   3.896   3.721   1.401
 1520HOH     H2 4766   3.819   3.817   1.313
 1521HOH      O 4767   2.903   2.330   0.163
 1521HOH     H1 4768   2.858   2.315   0.080
 1521HOH     H2 4769   2.977   2.270   0.162
 1522HOH      O 4770   3.638   2.514   1.003
 1522HOH     H1 4771   3.647   2.602   0.967
 1522HOH     H2 4772   3.716   2.468   0.973
 1523HOH      O 4773   3.617   0.900   2.582
 1523HOH     H1 4774   3.641   0.977   2.531
 1523HOH     H2 4775   3.700   0.856   2.600
 1524HOH      O 4776   0.352   3.463   3.827
 1524HOH     H1 4777   0.392   3.451   3.913
 1524HOH     H2 4778   0.265   3.498   3.846
 1525HOH      O 4779   2.248   0.192   0.037
 1525HOH     H1 4780   2.225   0.285   0.048
 1525HOH     H2 4781   2.164   0.147   0.034
 1526HOH      O 4782   0.559   3.394   2.634
 1526HOH     H1 4783   0.566   3.411   2.728
 1526HOH     H2 4784   0.466   3.402   2.615
 1527HOH      O 4785   1.761   1.087   0.672
 1527HOH     H1 4786   1.692   1.037   0.628
 1527HOH     H2 4787   1.716   1.163   0.710
 1528HOH      O 4788   2.204   3.078   3.027
 1528HOH     H1 4789   2.280   3.127   2.995
 1528HOH     H2 4790   2.230   2.986   3.022
 1529HOH      O 4791   1.631   2.706   3.230
 1529HOH     H1 4792   1.565   2.638   3.236
 1529HOH     H2 4793   1.636   2.743   3.319
 1530HOH      O 4794   2.934   2.969   1.950
 1530HOH     H1 4795   2.854   2.985   2.000
 1530HOH     H2 4796   2.910   2.901   1.887
 1531HOH      O 4797   0.369   2.573   2.527
 1531HOH     H1 4798   0.454   2.578   2.570
 1531HOH     H2 4799   0.315   2.638   2.573
 1532HOH      O 4800   3.119   1.000   1.191
 1532HOH     H1 4801   3.070   0.960   1.263
 1532HOH     H2 4802   3.090   0.953   1.113
 1533HOH      O 4803   2.208   0.245   2.690
 1533HOH     H1 4804   2.225   0.314   2.627
 1533HOH     H2 4805   2.295   0.219   2.721
 1534HOH      O 4806   1.242   2.452   3.369
 1534HOH     H1 4807   1.209   2.538   3.344
 1534HOH     H2 4808   1.191   2.428   3.447
 1535HOH      O 4809   0.219   0.517   0.274
 1535HOH     H1 4810   0.310   0.533   0.249
 1535HOH     H2 4811   0.225   0.465   0.354
 1536HOH      O 4812   0.986   2.035   2.455
 1536HOH     H1 4813   1.057   1.984   2.416
 1536HOH     H2 4814   0.910   2.015   2.401
 1537HOH      O 4815   3.306   0.307   0.712
 1537HOH     H1 4816   3.268   0.251   0.645
 1537HOH     H2 4817   3.359   0.370   0.664
 1538HOH      O 4818   0.093   4.012   2.083
 1538HOH     H1 4819   0.172   3.963   2.106
 1538HOH     H2 4820   0.071   3.984   1.995
 1539HOH      O 4821   1.581   1.602   3.867
 1539HOH     H1 4822   1.578   1.623   3.960
 1539HOH     H2 4823   1.540   1.516   3.860
 1540HOH      O 4824   0.275   3.378   2.653
 1540HOH     H1 4825   0.287   3.462   2.697
 1540HOH     H2 4826   0.200   3.392   2.594
 1541HOH      O 4827   3.076   0.310   2.432
 1541HOH     H1 4828   3.081   0.293   2.526
 1541HOH     H2 4829   3.118   0.396   2.421
 1542HOH      O 4830   1.794   1.237   0.346
 1542HOH     H1 4831   1.881   1.241   0.307
 1542HOH     H2 4832   1.765   1.147   0.331
 1543HOH      O 4833   3.877   3.869   2.593
 1543HOH     H1 4834   3.906   3.954   2.561
 1543HOH     H2 4835   3.855   3.820   2.514
 1544HOH      O 4836   3.155   2.705   1.452
 1544HOH     H1 4837   3.248   2.683   1.449
 1544HOH     H2 4838   3.148   2.775   1.516
 1545HOH      O 4839   3.757   3.927   0.729
 1545HOH     H1 4840   3.804   3.957   0.652
 1545HOH     H2 4841   3.665   3.925   0.702
 1546HOH      O 4842   3.425   3.622   1.917
 1546HOH     H1 4843   3.430   3.573   1.999
 1546HOH     H2 4844   3.358   3.577   1.865
 1547HOH      O 4845   3.072   1.119   2.386
 1547HOH     H1 4846   3.075   1.136   2.292
 1547HOH     H2 4847   3.156   1.078   2.405
 1548HOH      O 4848   1.843   3.521   0.378
 1548HOH     H1 4849   1.914   3.468   0.414
 1548HOH     H2 4850   1.780   3.457   0.344
 1549HOH      O 4851   0.623   3.491   0.736
 1549HOH     H1 4852   0.547   3.520   0.686
 1549HOH     H2 4853   0.642   3.564   0.794
 1550HOH      O 4854   3.452   3.908   3.074
 1550HOH     H1 4855   3.521   3.937   3.133
 1550HOH     H2 4856   3.413   3.832   3.118
 1551HOH      O 4857   2.706   1.175   0.539
 1551HOH     H1 4858   2.750   1.151   0.457
 1551HOH     H2 4859   2.670   1.093   0.572
 1552HOH      O 4860   1.326   2.455   2.880
 1552HOH     H1 4861   1.347   2.547   2.895
 1552HOH     H2 4862   1.281   2.427   2.960
 1553HOH      O 4863   3.381   2.745   0.295
 1553HOH     H1 4864   3.411   2.779   0.379
 1553HOH     H2 4865   3.341   2.661   0.316
 1554HOH      O 4866   2.582   1.886   0.152
 1554HOH     H1 4867   2.579   1.885   0.057
 1554HOH     H2 4868   2.565   1.977   0.176
 1555HOH      O 4869   2.194   3.873   2.700
 1555HOH     H1 4870   2.286   3.897   2.686
 1555HOH     H2 4871   2.146   3.955   2.689
 1556HOH      O 4872   2.840   1.301   1.619
 1556HOH     H1 4873   2.789   1.314   1.539
 1556HOH     H2 4874   2.794   1.232   1.667
 1557HOH      O 4875   2.398   2.484   0.738
 1557HOH     H1 4876   2.364   2.406   0.782
 1557HOH     H2 4877   2.339   2.554   0.765
 1558HOH      O 4878   3.428   2.331   1.471
 1558HOH     H1 4879   3.501   2.385   1.501
 1558HOH     H2 4880   3.399   2.374   1.390
 1559HOH      O 4881   2.045   3.416   1.011
 1559HOH     H1 4882   1.988   3.440   0.938
 1559HOH     H2 4883   1.990   3.427   1.088
 1560HOH      O 4884   0.300   0.680   0.629
 1560HOH     H1 4885   0.305   0.749   0.694
 1560HOH     H2 4886   0.261   0.722   0.552
 1561HOH      O 4887   3.488   1.473   2.768
 1561HOH     H1 4888   3.582   1.474   2.748
 1561HOH     H2 4889   3.446   1.454   2.684
 1562HOH      O 4890   1.451   0.547   0.468
 1562HOH     H1 4891   1.427   0.457   0.445
 1562HOH     H2 4892   1.524   0.568   0.410
 1563HOH      O 4893   3.348   1.562   0.826
 1563HOH     H1 4894   3.373   1.610   0.904
 1563HOH     H2 4895   3.390   1.610   0.754
 1564HOH      O 4896   2.754   2.311   2.137
 1564HOH     H1 4897   2.745   2.281   2.046
 1564HOH     H2 4898   2.833   2.366   2.136
 1565HOH      O 4899   3.048   3.672   1.307
 1565HOH     H1 4900   3.127   3.618   1.314
 1565HOH     H2 4901   3.070   3.740   1.243
 1566HOH      O 4902   1.555   2.209   3.484
 1566HOH     H1 4903   1.631   2.267   3.492
 1566HOH     H2 4904   1.592   2.121   3.485
 1567HOH      O 4905   0.227   1.345   0.447
 1567HOH     H1 4906   0.139   1.382   0.449
 1567HOH     H2 4907   0.268   1.384   0.370
 1568HOH      O 4908   3.037   3.158   3.133
 1568HOH     H1 4909   2.983   3.174   3.211
 1568HOH     H2 4910   2.975   3.151   3.061
 1569HOH      O 4911   0.979   2.531   1.191
 1569HOH     H1 4912   1.009   2.622   1.196
 1569HOH     H2 4913   0.907   2.533   1.128
 1570HOH      O 4914   1.949   0.925   2.472
 1570HOH     H1 4915   2.008   0.881   2.533
 1570HOH     H2 4916   1.955   1.017   2.496
 1571HOH      O 4917   1.778   1.377   3.636
 1571HOH     H1 4918   1.859   1.376   3.583
 1571HOH     H2 4919   1.808   1.394   3.725
 1572HOH      O 4920   0.288   2.670   0.523
 1572HOH     H1 4921   0.273   2.680   0.617
 1572HOH     H2 4922   0.237   2.593   0.499
 1573HOH      O 4923   1.051   3.132   3.566
 1573HOH     H1 4924   1.067   3.149   3.658
 1573HOH     H2 4925   1.100   3.200   3.520
 1574HOH      O 4926   2.144   3.213   2.626
 1574HOH     H1 4927   2.206   3.233   2.556
 1574HOH     H2 4928   2.164   3.276   2.695
 1575HOH      O 4929   3.409   2.360   3.688
 1575HOH     H1 4930   3.505   2.352   3.685
 1575HOH     H2 4931   3.385   2.338   3.778
 1576HOH      O 4932   3.122   3.710   0.112
 1576HOH     H1 4933   3.150   3.801   0.125
 1576HOH     H2 4934   3.201   3.666   0.081
 1577HOH      O 4935   3.158   1.033   2.693
 1577HOH     H1 4936   3.168   0.971   2.621
 1577HOH     H2 4937   3.118   0.982   2.764
 1578HOH      O 4938   1.708   1.511   1.450
 1578HOH     H1 4939   1.651   1.560   1.390
 1578HOH     H2 4940   1.647   1.461   1.504
 1579HOH      O 4941   0.789   2.824   2.992
 1579HOH     H1 4942   0.705   2.857   3.026
 1579HOH     H2 4943   0.855   2.879   3.033
 1580HOH      O 4944   2.260   3.698   3.593
 1580HOH     H1 4945   2.230   3.692   3.683
 1580HOH     H2 4946   2.339   3.752   3.597
 1581HOH      O 4947   1.984   3.814   1.024
 1581HOH     H1 4948   2.002   3.765   1.105
 1581HOH     H2 4949   2.030   3.765   0.956
 1582HOH      O 4950   3.265   0.750   2.214
 1582HOH     H1 4951   3.301   0.778   2.130
 1582HOH     H2 4952   3.342   0.739   2.270
 1583HOH      O 4953   1.595   1.681   1.259
 1583HOH     H1 4954   1.590   1.621   1.184
 1583HOH     H2 4955   1.525   1.744   1.243
 1584HOH      O 4956   0.369   0.036   0.539
 1584HOH     H1 4957   0.425  -0.042   0.548
 1584HOH     H2 4958   0.400   0.079   0.460
 1585HOH      O 4959   1.608   2.289   0.639
 1585HOH     H1 4960   1.665   2.281   0.715
 1585HOH     H2 4961   1.593   2.383   0.630
 1586HOH      O 4962   2.809   3.085   3.925
 1586HOH     H1 4963   2.855   3.050   3.849
 1586HOH     H2 4964   2.792   3.009   3.980
 1587HOH      O 4965   0.348   3.860   1.766
 1587HOH     H1 4966   0.400   3.918   1.711
 1587HOH     H2 4967   0.405   3.839   1.840
 1588HOH      O 4968   3.856   0.667   3.856
 1588HOH     H1 4969   3.821   0.594   3.804
 1588HOH     H2 4970   3.796   0.674   3.930
 1589HOH      O 4971   2.761   2.941   0.318
 1589HOH     H1 4972   2.851   2.927   0.290
 1589HOH     H2 4973   2.768   2.979   0.406
 1590HOH      O 4974   0.010   3.644   0.301
 1590HOH     H1 4975  -0.031   3.669   0.384
 1590HOH     H2 4976  -0.060   3.601   0.252
 1591HOH      O 4977   2.083   1.744   1.187
 1591HOH     H1 4978   2.003   1.698   1.212
 1591HOH     H2 4979   2.113   1.698   1.108
 1592HOH      O 4980   1.120   3.337   2.083
 1592HOH     H1 4981   1.160   3.269   2.137
 1592HOH     H2 4982   1.114   3.298   1.996
 1593HOH      O 4983   1.495   3.787   0.476
 1593HOH     H1 4984   1.451   3.705   0.498
 1593HOH     H2 4985   1.539   3.813   0.557
 1594HOH      O 4986   1.830   3.119   2.158
 1594HOH     H1 4987   1.843   3.214   2.156
 1594HOH     H2 4988   1.857   3.094   2.246
 1595HOH      O 4989   2.295   2.923   3.603
 1595HOH     H1 4990   2.364   2.972   3.647
 1595HOH     H2 4991   2.311   2.938   3.509
 1596HOH      O 4992   3.187   0.427   3.768
 1596HOH     H1 4993   3.171   0.437   3.862
 1596HOH     H2 4994   3.262   0.368   3.763
 1597HOH      O 4995   2.368   0.282   0.511
 1597HOH     H1 4996   2.428   0.209   0.492
 1597HOH     H2 4997   2.316   0.252   0.585
 1598HOH      O 4998   2.173   0.331   2.235
 1598HOH     H1 4999   2.213   0.364   2.154
 1598HOH     H2 5000   2.221   0.250   2.253
 1599HOH      O 5001   3.402   2.643   1.516
 1599HOH     H1 5002   3.439   2.730   1.502
 1599HOH     H2 5003   3.471   2.594   1.561
 1600HOH      O 5004   1.390   3.478   3.127
 1600HOH     H1 5005   1.394   3.518   3.040
 1600HOH     H2 5006   1.360   3.549   3.184
 1601HOH      O 5007   1.576   3.239   4.010
 1601HOH     H1 5008   1.487   3.270   3.990
 1601HOH     H2 5009   1.596   3.179   3.938
 1602HOH      O 5010   3.080   3.254   1.484
 1602HOH     H1 5011   3.172   3.248   1.457
 1602HOH     H2 5012   3.084   3.294   1.571
 1603HOH      O 5013   3.351   1.006   2.397
 1603HOH     H1 5014   3.426   1.059   2.372
 1603HOH     H2 5015   3.377   0.916   2.376
 1604HOH      O 5016   0.266   0.014   0.130
 1604HOH     H1 5017   0.196   0.009   0.196
 1604HOH     H2 5018   0.336   0.063   0.173
 1605HOH      O 5019   4.009   2.673   3.660
 1605HOH     H1 5020   4.032   2.710   3.575
 1605HOH     H2 5021   3.929   2.719   3.684
 1606HOH      O 5022   3.654   1.793   2.720
 1606HOH     H1 5023   3.609   1.870   2.686
 1606HOH     H2 5024   3.743   1.800   2.686
 1607HOH      O 5025   2.651   2.590   2.698
 1607HOH     H1 5026   2.587   2.620   2.634
 1607HOH     H2 5027   2.736   2.601   2.654
 1608HOH      O 5028   3.992   2.426   0.013
 1608HOH     H1 5029   4.060   2.445  -0.051
 1608HOH     H2 5030   3.910   2.433  -0.036
 1609HOH      O 5031   1.069   0.090   0.550
 1609HOH     H1 5032   1.106   0.085   0.638
 1609HOH     H2 5033   1.112   0.020   0.502
 1610HOH      O 5034   0.959   3.806   0.591
 1610HOH     H1 5035   0.926   3.739   0.532
 1610HOH     H2 5036   0.885   3.865   0.606
 1611HOH      O 5037   3.010   3.456   3.445
 1611HOH     H1 5038   2.944   3.495   3.387
 1611HOH     H2 5039   3.093   3.492   3.413
 1612HOH      O 5040   0.914   3.027   1.709
 1612HOH     H1 5041   0.833   3.060   1.747
 1612HOH     H2 5042   0.886   2.978   1.631
 1613HOH      O 5043   2.991   4.023   0.943
 1613HOH     H1 5044   2.897   4.022   0.928
 1613HOH     H2 5045   3.023   4.094   0.888
 1614HOH      O 5046   2.663   3.409   0.550
 1614HOH     H1 5047   2.670   3.346   0.478
 1614HOH     H2 5048   2.744   3.398   0.599
 1615HOH      O 5049   0.184   1.016   3.688
 1615HOH     H1 5050   0.257   0.989   3.632
 1615HOH     H2 5051   0.130   1.071   3.631
 1616HOH      O 5052   3.215   2.589   3.749
 1616HOH     H1 5053   3.286   2.582   3.812
 1616HOH     H2 5054   3.148   2.528   3.780
 1617HOH      O 5055   0.982   3.024   3.073
 1617HOH     H1 5056   0.993   3.116   3.049
 1617HOH     H2 5057   1.056   2.980   3.030
 1618HOH      O 5058   1.408   0.283   1.221
 1618HOH     H1 5059   1.449   0.364   1.189
 1618HOH     H2 5060   1.347   0.312   1.289
 1619HOH      O 5061   3.470   0.205   3.560
 1619HOH     H1 5062   3.432   0.224   3.646
 1619HOH     H2 5063   3.455   0.285   3.509
 1620HOH      O 5064   0.623   3.238   0.063
 1620HOH     H1 5065   0.621   3.216  -0.031
 1620HOH     H2 5066   0.715   3.257   0.082
 1621HOH      O 5067   1.071   2.713   0.180
 1621HOH     H1 5068   0.990   2.751   0.215
 1621HOH     H2 5069   1.063   2.619   0.198
 1622HOH      O 5070   1.896   3.071   4.010
 1622HOH     H1 5071   1.986   3.077   3.977
 1622HOH     H2 5072   1.841   3.080   3.932
 1623HOH      O 5073   0.855   1.911   0.886
 1623HOH     H1 5074   0.820   1.946   0.804
 1623HOH     H2 5075   0.940   1.875   0.862
 1624HOH      O 5076   2.768   0.761   2.971
 1624HOH     H1 5077   2.754   0.843   2.924
 1624HOH     H2 5078   2.761   0.694   2.903
 1625HOH      O 5079   2.683   0.958   2.356
 1625HOH     H1 5080   2.746   0.912   2.300
 1625HOH     H2 5081   2.664   1.039   2.308
 1626HOH      O 5082   4.034   3.720   2.091
 1626HOH     H1 5083   4.066   3.757   2.173
 1626HOH     H2 5084   4.114   3.694   2.044
 1627HOH      O 5085   2.559   1.083   2.572
 1627HOH     H1 5086   2.601   1.029   2.505
 1627HOH     H2 5087   2.615   1.160   2.579
 1628HOH      O 5088   2.651   3.640   1.319
 1628HOH     H1 5089   2.667   3.555   1.360
 1628HOH     H2 5090   2.711   3.700   1.363
 1629HOH      O 5091   3.982   2.148   0.594
 1629HOH     H1 5092   3.969   2.205   0.518
 1629HOH     H2 5093   4.066   2.175   0.631
 1630HOH      O 5094   1.606   3.394   0.991
 1630HOH     H1 5095   1.516   3.408   0.962
 1630HOH     H2 5096   1.635   3.481   1.020
 1631HOH      O 5097   3.840   2.677   2.682
 1631HOH     H1 5098   3.915   2.705   2.734
 1631HOH     H2 5099   3.868   2.689   2.591
 1632HOH      O 5100   1.313   1.600   1.132
 1632HOH     H1 5101   1.262   1.573   1.208
 1632HOH     H2 5102   1.247   1.627   1.067
 1633HOH      O 5103   1.590   0.733   0.132
 1633HOH     H1 5104   1.519   0.789   0.164
 1633HOH     H2 5105   1.591   0.659   0.192
 1634HOH      O 5106   1.755   0.528   3.078
 1634HOH     H1 5107   1.782   0.513   2.987
 1634HOH     H2 5108   1.716   0.615   3.077
 1635HOH      O 5109   0.462   1.409   1.477
 1635HOH     H1 5110   0.504   1.337   1.525
 1635HOH     H2 5111   0.526   1.434   1.410
 1636HOH      O 5112   1.301   3.275   0.467
 1636HOH     H1 5113   1.251   3.343   0.512
 1636HOH     H2 5114   1.379   3.320   0.434
 1637HOH      O 5115   0.100   2.308   1.289
 1637HOH     H1 5116   0.044   2.231   1.278
 1637HOH     H2 5117   0.042   2.382   1.275
 1638HOH      O 5118   0.780   2.065   1.997
 1638HOH     H1 5119   0.759   2.053   1.904
 1638HOH     H2 5120   0.725   2.139   2.024
 1639HOH      O 5121   2.452   3.995   1.644
 1639HOH     H1 5122   2.546   4.009   1.660
 1639HOH     H2 5123   2.449   3.912   1.595
 1640HOH      O 5124   1.410   0.277   0.449
 1640HOH     H1 5125   1.485   0.229   0.483
 1640HOH     H2 5126   1.398   0.244   0.360
 1641HOH      O 5127   0.919   2.739   3.442
 1641HOH     H1 5128   0.911   2.826   3.403
 1641HOH     H2 5129   0.916   2.755   3.536
 1642HOH      O 5130   2.647   1.327   2.669
 1642HOH     H1 5131   2.611   1.413   2.692
 1642HOH     H2 5132   2.742   1.340   2.668
 1643HOH      O 5133   2.770   1.097   0.252
 1643HOH     H1 5134   2.700   1.077   0.190
 1643HOH     H2 5135   2.849   1.101   0.199
 1644HOH      O 5136   2.489   0.235   3.882
 1644HOH     H1 5137   2.510   0.293   3.955
 1644HOH     H2 5138   2.489   0.147   3.920
 1645HOH      O 5139   2.433   2.260   2.805
 1645HOH     H1 5140   2.499   2.268   2.736
 1645HOH     H2 5141   2.403   2.169   2.798
 1646HOH      O 5142   1.687   0.297   2.351
 1646HOH     H1 5143   1.649   0.384   2.360
 1646HOH     H2 5144   1.690   0.282   2.256
 1647HOH      O 5145   1.306   3.625   3.433
 1647HOH     H1 5146   1.279   3.698   3.489
 1647HOH     H2 5147   1.333   3.666   3.351
 1648HOH      O 5148   0.526   3.236   3.172
 1648HOH     H1 5149   0.468   3.188   3.231
 1648HOH     H2 5150   0.469   3.268   3.103
 1649HOH      O 5151   2.473   2.820   1.408
 1649HOH     H1 5152   2.442   2.759   1.476
 1649HOH     H2 5153   2.563   2.793   1.391
 1650HOH      O 5154   3.776   1.555   2.813
 1650HOH     H1 5155   3.840   1.584   2.878
 1650HOH     H2 5156   3.724   1.632   2.794
 1651HOH      O 5157   0.828   3.929   0.804
 1651HOH     H1 5158   0.919   3.912   0.778
 1651HOH     H2 5159   0.836   3.981   0.884
 1652HOH      O 5160   3.556   3.560   2.496
 1652HOH     H1 5161   3.484   3.501   2.517
 1652HOH     H2 5162   3.613   3.558   2.573
 1653HOH      O 5163   3.967   1.144   2.674
 1653HOH     H1 5164   3.881   1.179   2.697
 1653HOH     H2 5165   3.956   1.049   2.678
 1654HOH      O 5166   0.113   1.621   0.591
 1654HOH     H1 5167   0.051   1.610   0.519
 1654HOH     H2 5168   0.063   1.596   0.669
 1655HOH      O 5169   0.203   1.023   3.951
 1655HOH     H1 5170   0.177   1.115   3.953
 1655HOH     H2 5171   0.199   0.999   3.859
 1656HOH      O 5172   3.936   3.051   1.915
 1656HOH     H1 5173   3.891   3.069   1.832
 1656HOH     H2 5174   3.880   2.986   1.959
 1657HOH      O 5175   1.313   1.949   2.563
 1657HOH     H1 5176   1.320   1.854   2.576
 1657HOH     H2 5177   1.235   1.974   2.613
 1658HOH      O 5178   3.574   3.773   0.131
 1658HOH     H1 5179   3.664   3.741   0.130
 1658HOH     H2 5180   3.521   3.694   0.122
 1659HOH      O 5181   1.886   2.483   0.198
 1659HOH     H1 5182   1.942   2.535   0.140
 1659HOH     H2 5183   1.945   2.451   0.266
 1660HOH      O 5184   0.352   2.338   1.382
 1660HOH     H1 5185   0.367   2.263   1.439
 1660HOH     H2 5186   0.260   2.330   1.356
 1661HOH      O 5187   2.404   3.866   0.704
 1661HOH     H1 5188   2.409   3.790   0.646
 1661HOH     H2 5189   2.464   3.845   0.775
 1662HOH      O 5190   2.840   2.306   0.865
 1662HOH     H1 5191   2.883   2.243   0.924
 1662HOH     H2 5192   2.782   2.356   0.923
 1663HOH      O 5193   2.948   0.968   1.947
 1663HOH     H1 5194   2.857   0.939   1.946
 1663HOH     H2 5195   2.994   0.900   1.998
 1664HOH      O 5196   3.302   1.403   3.607
 1664HOH     H1 5197   3.255   1.368   3.683
 1664HOH     H2 5198   3.234   1.428   3.545
 1665HOH      O 5199   1.464   1.882   3.301
 1665HOH     H1 5200   1.532   1.907   3.363
 1665HOH     H2 5201   1.400   1.953   3.305
 1666HOH      O 5202   1.667   2.574   0.613
 1666HOH     H1 5203   1.638   2.665   0.615
 1666HOH     H2 5204   1.762   2.580   0.600
 1667HOH      O 5205   2.320   3.254   2.407
 1667HOH     H1 5206   2.346   3.329   2.354
 1667HOH     H2 5207   2.384   3.186   2.386
 1668HOH      O 5208   1.069   2.417   1.448
 1668HOH     H1 5209   1.029   2.478   1.386
 1668HOH     H2 5210   1.158   2.404   1.414
 1669HOH      O 5211   1.889   3.767   2.217
 1669HOH     H1 5212   1.888   3.687   2.164
 1669HOH     H2 5213   1.887   3.838   2.154
 1670HOH      O 5214   2.031   2.299   3.707
 1670HOH     H1 5215   2.022   2.302   3.802
 1670HOH     H2 5216   2.124   2.316   3.691
 1671HOH      O 5217   3.782   2.721   3.984
 1671HOH     H1 5218   3.818   2.749   3.901
 1671HOH     H2 5219   3.742   2.635   3.966
 1672HOH      O 5220   0.580   3.857   0.494
 1672HOH     H1 5221   0.652   3.794   0.501
 1672HOH     H2 5222   0.544   3.844   0.406
 1673HOH      O 5223   0.467   0.437   0.557
 1673HOH     H1 5224   0.401   0.503   0.577
 1673HOH     H2 5225   0.455   0.370   0.625
 1674HOH      O 5226   1.658   0.380   1.812
 1674HOH     H1 5227   1.607   0.431   1.749
 1674HOH     H2 5228   1.748   0.414   1.803
 1675HOH      O 5229   3.396   0.216   2.265
 1675HOH     H1 5230   3.437   0.256   2.342
 1675HOH     H2 5231   3.398   0.285   2.199
 1676HOH      O 5232   3.981   3.488   1.100
 1676HOH     H1 5233   3.899   3.512   1.144
 1676HOH     H2 5234   3.983   3.544   1.022
 1677HOH      O 5235   0.255   1.178   1.453
 1677HOH     H1 5236   0.314   1.253   1.445
 1677HOH     H2 5237   0.169   1.218   1.467
 1678HOH      O 5238   1.706   0.788   0.892
 1678HOH     H1 5239   1.642   0.832   0.947
 1678HOH     H2 5240   1.656   0.756   0.817
 1679HOH      O 5241   0.708   1.522   1.389
 1679HOH     H1 5242   0.759   1.463   1.445
 1679HOH     H2 5243   0.708   1.606   1.436
 1680HOH      O 5244   2.061   0.442   0.665
 1680HOH     H1 5245   2.093   0.353   0.673
 1680HOH     H2 5246   1.986   0.435   0.605
 1681HOH      O 5247   1.426   2.145   1.139
 1681HOH     H1 5248   1.406   2.054   1.163
 1681HOH     H2 5249   1.346   2.193   1.162
 1682HOH      O 5250   0.927   2.607   0.757
 1682HOH     H1 5251   0.900   2.656   0.679
 1682HOH     H2 5252   1.022   2.617   0.759
 1683HOH      O 5253   1.623   2.187   0.330
 1683HOH     H1 5254   1.620   2.281   0.346
 1683HOH     H2 5255   1.598   2.177   0.238
 1684HOH      O 5256   1.447   3.179   2.434
 1684HOH     H1 5257   1.425   3.091   2.467
 1684HOH     H2 5258   1.395   3.238   2.488
 1685HOH      O 5259   0.095   3.007   0.873
 1685HOH     H1 5260   0.171   2.957   0.902
 1685HOH     H2 5261   0.073   3.063   0.947
 1686HOH      O 5262   0.369   1.293   3.654
 1686HOH     H1 5263   0.379   1.209   3.608
 1686HOH     H2 5264   0.281   1.322   3.630
 1687HOH      O 5265   3.063   0.481   0.714
 1687HOH     H1 5266   2.971   0.457   0.723
 1687HOH     H2 5267   3.111   0.399   0.729
 1688HOH      O 5268   1.468   3.315   3.661
 1688HOH     H1 5269   1.458   3.345   3.570
 1688HOH     H2 5270   1.540   3.253   3.657
 1689HOH      O 5271   0.901   0.747   1.296
 1689HOH     H1 5272   0.817   0.734   1.339
 1689HOH     H2 5273   0.880   0.783   1.210
 1690HOH      O 5274   3.928   2.227   3.765
 1690HOH     H1 5275   3.974   2.143   3.761
 1690HOH     H2 5276   3.998   2.291   3.777
 1691HOH      O 5277   1.688   0.597   3.717
 1691HOH     H1 5278   1.659   0.522   3.666
 1691HOH     H2 5279   1.697   0.564   3.806
 1692HOH      O 5280   2.865   1.779   0.041
 1692HOH     H1 5281   2.771   1.764   0.028
 1692HOH     H2 5282   2.907   1.697   0.014
 1693HOH      O 5283   0.994   0.488   3.694
 1693HOH     H1 5284   0.997   0.420   3.627
 1693HOH     H2 5285   1.062   0.463   3.757
 1694HOH      O 5286   2.177   2.263   2.075
 1694HOH     H1 5287   2.237   2.312   2.131
 1694HOH     H2 5288   2.228   2.245   1.995
 1695HOH      O 5289   3.168   3.296   0.419
 1695HOH     H1 5290   3.114   3.285   0.341
 1695HOH     H2 5291   3.257   3.276   0.390
 1696HOH      O 5292   0.527   0.111   0.328
 1696HOH     H1 5293   0.597   0.064   0.374
 1696HOH     H2 5294   0.571   0.181   0.281
 1697HOH      O 5295   2.897   0.357   3.722
 1697HOH     H1 5296   2.988   0.379   3.704
 1697HOH     H2 5297   2.852   0.441   3.727
 1698HOH      O 5298   2.664   1.328   1.409
 1698HOH     H1 5299   2.674   1.282   1.326
 1698HOH     H2 5300   2.569   1.332   1.423
 1699HOH      O 5301   2.457   0.129   0.267
 1699HOH     H1 5302   2.426   0.052   0.313
 1699HOH     H2 5303   2.392   0.143   0.198
 1700HOH      O 5304   2.351   3.439   3.540
 1700HOH     H1 5305   2.402   3.439   3.458
 1700HOH     H2 5306   2.323   3.530   3.550
 1701HOH      O 5307   2.377   2.271   2.297
 1701HOH     H1 5308   2.458   2.282   2.345
 1701HOH     H2 5309   2.332   2.199   2.341
 1702HOH      O 5310   1.236   1.149   1.653
 1702HOH     H1 5311   1.207   1.058   1.645
 1702HOH     H2 5312   1.175   1.189   1.715
 1703HOH      O 5313   0.174   2.622   3.118
 1703HOH     H1 5314   0.133   2.546   3.076
 1703HOH     H2 5315   0.101   2.669   3.158
 1704HOH      O 5316   0.275   3.146   3.844
 1704HOH     H1 5317   0.248   3.226   3.801
 1704HOH     H2 5318   0.203   3.084   3.828
 1705HOH      O 5319   1.655   0.275   2.765
 1705HOH     H1 5320   1.639   0.239   2.852
 1705HOH     H2 5321   1.617   0.363   2.768
 1706HOH      O 5322   4.038   2.644   2.075
 1706HOH     H1 5323   4.044   2.580   2.145
 1706HOH     H2 5324   4.129   2.657   2.047
 1707HOH      O 5325   1.894   0.132   0.809
 1707HOH     H1 5326   1.927   0.144   0.898
 1707HOH     H2 5327   1.869   0.040   0.805
 1708HOH      O 5328   3.834   0.747   3.231
 1708HOH     H1 5329   3.864   0.696   3.307
 1708HOH     H2 5330   3.820   0.835   3.265
 1709HOH      O 5331   0.312   0.273   1.450
 1709HOH     H1 5332   0.319   0.368   1.443
 1709HOH     H2 5333   0.310   0.242   1.360
 1710HOH      O 5334   2.396   2.957   2.777
 1710HOH     H1 5335   2.426   2.954   2.868
 1710HOH     H2 5336   2.395   3.050   2.755
 1711HOH      O 5337   3.933   1.026   2.166
 1711HOH     H1 5338   3.896   1.032   2.254
 1711HOH     H2 5339   3.923   1.114   2.129
 1712HOH      O 5340   3.668   2.096   1.551
 1712HOH     H1 5341   3.635   2.143   1.627
 1712HOH     H2 5342   3.596   2.096   1.489
 1713HOH      O 5343   2.256   3.586   0.698
 1713HOH     H1 5344   2.310   3.508   0.688
 1713HOH     H2 5345   2.271   3.614   0.788
 1714HOH      O 5346   1.508   3.992   0.305
 1714HOH     H1 5347   1.470   3.970   0.220
 1714HOH     H2 5348   1.485   3.917   0.360
 1715HOH      O 5349   1.279   3.364   2.697
 1715HOH     H1 5350   1.335   3.357   2.619
 1715HOH     H2 5351   1.209   3.424   2.671
 1716HOH      O 5352   2.276   1.032   1.990
 1716HOH     H1 5353   2.247   1.087   1.917
 1716HOH     H2 5354   2.277   1.091   2.065
 1717HOH      O 5355   3.268   0.967   3.890
 1717HOH     H1 5356   3.319   0.982   3.810
 1717HOH     H2 5357   3.316   1.014   3.958
 1718HOH      O 5358   2.887   1.089   2.569
 1718HOH     H1 5359   2.959   1.098   2.507
 1718HOH     H2 5360   2.864   1.179   2.592
 1719HOH      O 5361   0.525   1.533   0.952
 1719HOH     H1 5362   0.499   1.442   0.937
 1719HOH     H2 5363   0.479   1.557   1.032
 1720HOH      O 5364   3.676   0.484   3.752
 1720HOH     H1 5365   3.610   0.505   3.818
 1720HOH     H2 5366   3.646   0.528   3.672
 1721HOH      O 5367   2.124   2.301   0.175
 1721HOH     H1 5368   2.104   2.315   0.267
 1721HOH     H2 5369   2.218   2.283   0.173
 1722HOH      O 5370   0.705   1.703   0.803
 1722HOH     H1 5371   0.665   1.639   0.862
 1722HOH     H2 5372   0.747   1.767   0.862
 1723HOH      O 5373   3.236   2.441   2.417
 1723HOH     H1 5374   3.261   2.456   2.326
 1723HOH     H2 5375   3.234   2.529   2.456
 1724HOH      O 5376   3.884   0.611   3.480
 1724HOH     H1 5377   3.959   0.669   3.492
 1724HOH     H2 5378   3.921   0.523   3.488
 1725HOH      O 5379   0.353   0.193   1.694
 1725HOH     H1 5380   0.391   0.109   1.668
 1725HOH     H2 5381   0.345   0.243   1.613
 1726HOH      O 5382   3.323   1.260   2.590
 1726HOH     H1 5383   3.277   1.184   2.626
 1726HOH     H2 5384   3.370   1.225   2.514
 1727HOH      O 5385   2.448   0.455   3.022
 1727HOH     H1 5386   2.384   0.400   3.067
 1727HOH     H2 5387   2.450   0.535   3.074
 1728HOH      O 5388   3.177   1.785   3.507
 1728HOH     H1 5389   3.174   1.703   3.556
 1728HOH     H2 5390   3.215   1.761   3.423
 1729HOH      O 5391   3.020   3.050   2.407
 1729HOH     H1 5392   3.107   3.080   2.435
 1729HOH     H2 5393   2.967   3.129   2.406
 1730HOH      O 5394   2.917   0.272   0.003
 1730HOH     H1 5395   2.851   0.292  -0.063
 1730HOH     H2 5396   2.868   0.239   0.078
 1731HOH      O 5397   1.152   3.060   2.663
 1731HOH     H1 5398   1.140   3.126   2.594
 1731HOH     H2 5399   1.238   3.079   2.700
 1732HOH      O 5400   3.552   2.222   1.769
 1732HOH     H1 5401   3.593   2.214   1.855
 1732HOH     H2 5402   3.464   2.188   1.781
 1733HOH      O 5403   1.639   0.856   1.854
 1733HOH     H1 5404   1.568   0.855   1.790
 1733HOH     H2 5405   1.706   0.801   1.816
 1734HOH      O 5406   2.087   1.065   3.909
 1734HOH     H1 5407   2.022   1.002   3.941
 1734HOH     H2 5408   2.044   1.150   3.919
 1735HOH      O 5409   0.681   3.284   1.653
 1735HOH     H1 5410   0.653   3.220   1.718
 1735HOH     H2 5411   0.652   3.369   1.688
 1736HOH      O 5412   2.167   3.702   3.336
 1736HOH     H1 5413   2.086   3.651   3.332
 1736HOH     H2 5414   2.193   3.698   3.428
 1737HOH      O 5415   3.934   1.894   2.914
 1737HOH     H1 5416   3.933   1.989   2.925
 1737HOH     H2 5417   3.933   1.881   2.819
 1738HOH      O 5418   0.867   3.284   0.182
 1738HOH     H1 5419   0.832   3.327   0.260
 1738HOH     H2 5420   0.962   3.281   0.197
 1739HOH      O 5421   1.293   0.510   1.596
 1739HOH     H1 5422   1.247   0.592   1.614
 1739HOH     H2 5423   1.283   0.459   1.676
 1740HOH      O 5424   0.976   0.041   0.265
 1740HOH     H1 5425   0.967   0.111   0.201
 1740HOH     H2 5426   1.019   0.082   0.340
 1741HOH      O 5427   0.850   2.845   0.867
 1741HOH     H1 5428   0.851   2.753   0.839
 1741HOH     H2 5429   0.942   2.872   0.866
 1742HOH      O 5430   0.768   1.837   3.263
 1742HOH     H1 5431   0.803   1.881   3.341
 1742HOH     H2 5432   0.831   1.766   3.245
 1743HOH      O 5433   0.890   3.494   2.923
 1743HOH     H1 5434   0.966   3.439   2.905
 1743HOH     H2 5435   0.918   3.550   2.996
 1744HOH      O 5436   3.836   2.811   0.187
 1744HOH     H1 5437   3.880   2.896   0.173
 1744HOH     H2 5438   3.802   2.787   0.101
 1745HOH      O 5439   3.267   2.286   0.432
 1745HOH     H1 5440   3.347   2.234   0.436
 1745HOH     H2 5441   3.217   2.259   0.509
 1746HOH      O 5442   3.831   0.038   3.357
 1746HOH     H1 5443   3.805   0.126   3.330
 1746HOH     H2 5444   3.892   0.009   3.289
 1747HOH      O 5445   3.142   3.521   1.054
 1747HOH     H1 5446   3.224   3.548   1.096
 1747HOH     H2 5447   3.137   3.427   1.072
 1748HOH      O 5448   3.837   2.588   0.598
 1748HOH     H1 5449   3.931   2.586   0.612
 1748HOH     H2 5450   3.824   2.653   0.529
 1749HOH      O 5451   2.116   0.416   0.112
 1749HOH     H1 5452   2.041   0.410   0.053
 1749HOH     H2 5453   2.149   0.505   0.101
 1750HOH      O 5454   2.530   3.038   3.680
 1750HOH     H1 5455   2.552   3.084   3.599
 1750HOH     H2 5456   2.514   3.108   3.744
 1751HOH      O 5457   3.311   2.206   0.987
 1751HOH     H1 5458   3.355   2.179   1.068
 1751HOH     H2 5459   3.267   2.126   0.958
 1752HOH      O 5460   3.093   3.830   1.103
 1752HOH     H1 5461   3.073   3.749   1.057
 1752HOH     H2 5462   3.046   3.898   1.056
 1753HOH      O 5463   2.557   1.139   2.162
 1753HOH     H1 5464   2.500   1.198   2.113
 1753HOH     H2 5465   2.642   1.146   2.119
 1754HOH      O 5466   1.938   2.086   3.529
 1754HOH     H1 5467   1.956   2.175   3.559
 1754HOH     H2 5468   2.001   2.071   3.458
 1755HOH      O 5469   0.303   2.513   1.070
 1755HOH     H1 5470   0.307   2.609   1.071
 1755HOH     H2 5471   0.234   2.491   1.132
 1756HOH      O 5472   0.156   3.711   1.640
 1756HOH     H1 5473   0.119   3.781   1.587
 1756HOH     H2 5474   0.231   3.750   1.685
 1757HOH      O 5475   1.389   3.767   3.210
 1757HOH     H1 5476   1.321   3.802   3.153
 1757HOH     H2 5477   1.469   3.811   3.182
 1758HOH      O 5478   1.386   1.444   2.042
 1758HOH     H1 5479   1.411   1.355   2.068
 1758HOH     H2 5480   1.469   1.492   2.038
 1759HOH      O 5481   2.577   2.614   0.537
 1759HOH     H1 5482   2.631   2.546   0.495
 1759HOH     H2 5483   2.542   2.570   0.615
 1760HOH      O 5484   3.987   2.773   0.927
 1760HOH     H1 5485   3.981   2.790   1.021
 1760HOH     H2 5486   4.027   2.852   0.891
 1761HOH      O 5487   1.397   0.050   0.723
 1761HOH     H1 5488   1.470   0.013   0.674
 1761HOH     H2 5489   1.343  -0.025   0.748
 1762HOH      O 5490   2.086   1.959   1.333
 1762HOH     H1 5491   2.158   1.930   1.389
 1762HOH     H2 5492   2.083   1.893   1.263
 1763HOH      O 5493   1.206   2.357   3.113
 1763HOH     H1 5494   1.237   2.381   3.200
 1763HOH     H2 5495   1.113   2.335   3.126
 1764HOH      O 5496   1.882   1.841   0.180
 1764HOH     H1 5497   1.867   1.809   0.269
 1764HOH     H2 5498   1.907   1.763   0.131
 1765HOH      O 5499   0.809   1.576   1.998
 1765HOH     H1 5500   0.784   1.546   2.084
 1765HOH     H2 5501   0.728   1.611   1.960
 1766HOH      O 5502   2.112   3.913   3.001
 1766HOH     H1 5503   2.023   3.948   3.002
 1766HOH     H2 5504   2.121   3.873   2.914
 1767HOH      O 5505   2.177   3.042   3.919
 1767HOH     H1 5506   2.248   3.096   3.884
 1767HOH     H2 5507   2.221   2.980   3.977
 1768HOH      O 5508   0.956   0.356   1.200
 1768HOH     H1 5509   0.965   0.451   1.209
 1768HOH     H2 5510   0.982   0.338   1.110
 1769HOH      O 5511   0.428   2.623   1.775
 1769HOH     H1 5512   0.488   2.694   1.798
 1769HOH     H2 5513   0.473   2.544   1.805
 1770HOH      O 5514   1.111   2.868   1.824
 1770HOH     H1 5515   1.062   2.935   1.776
 1770HOH     H2 5516   1.202   2.881   1.797
 1771HOH      O 5517   0.617   2.678   3.636
 1771HOH     H1 5518   0.573   2.646   3.715
 1771HOH     H2 5519   0.633   2.599   3.584
 1772HOH      O 5520   3.940   1.384   1.035
 1772HOH     H1 5521   3.940   1.442   1.111
 1772HOH     H2 5522   3.900   1.303   1.067
 1773HOH      O 5523   0.959   2.722   2.459
 1773HOH     H1 5524   1.045   2.706   2.498
 1773HOH     H2 5525   0.972   2.704   2.366
 1774HOH      O 5526   1.840   1.775   0.453
 1774HOH     H1 5527   1.859   1.727   0.533
 1774HOH     H2 5528   1.849   1.867   0.478
 1775HOH      O 5529   3.720   1.089   3.052
 1775HOH     H1 5530   3.761   1.171   3.078
 1775HOH     H2 5531   3.660   1.112   2.982
 1776HOH      O 5532   1.617   2.551   1.330
 1776HOH     H1 5533   1.577   2.534   1.415
 1776HOH     H2 5534   1.566   2.497   1.269
 1777HOH      O 5535   2.655   2.755   3.504
 1777HOH     H1 5536   2.700   2.807   3.571
 1777HOH     H2 5537   2.634   2.817   3.434
 1778HOH      O 5538   0.455   2.838   0.365
 1778HOH     H1 5539   0.413   2.772   0.420
 1778HOH     H2 5540   0.409   2.834   0.282
 1779HOH      O 5541   4.015   3.137   3.133
 1779HOH     H1 5542   4.050   3.204   3.073
 1779HOH     H2 5543   4.021   3.177   3.220
 1780HOH      O 5544   0.739   2.043   3.673
 1780HOH     H1 5545   0.704   1.958   3.700
 1780HOH     H2 5546   0.663   2.101   3.672
 1781HOH      O 5547   2.492   2.128   0.255
 1781HOH     H1 5548   2.467   2.137   0.347
 1781HOH     H2 5549   2.464   2.210   0.215
 1782HOH      O 5550   1.453   1.060   0.832
 1782HOH     H1 5551   1.434   1.109   0.912
 1782HOH     H2 5552   1.493   1.125   0.774
 1783HOH      O 5553   1.328   0.793   3.582
 1783HOH     H1 5554   1.242   0.774   3.619
 1783HOH     H2 5555   1.310   0.862   3.518
 1784HOH      O 5556   1.067   3.251   2.915
 1784HOH     H1 5557   1.152   3.277   2.948
 1784HOH     H2 5558   1.078   3.246   2.820
 1785HOH      O 5559   3.375   3.078   4.000
 1785HOH     H1 5560   3.333   3.137   3.938
 1785HOH     H2 5561   3.448   3.040   3.950
 1786HOH      O 5562   0.755   2.620   2.034
 1786HOH     H1 5563   0.741   2.526   2.038
 1786HOH     H2 5564   0.826   2.632   1.971
 1787HOH      O 5565   2.710   0.946   3.700
 1787HOH     H1 5566   2.691   0.919   3.790
 1787HOH     H2 5567   2.625   0.943   3.656
 1788HOH      O 5568   2.987   2.157   1.024
 1788HOH     H1 5569   2.963   2.075   1.067
 1788HOH     H2 5570   3.047   2.200   1.086
 1789HOH      O 5571   3.493   1.569   2.473
 1789HOH     H1 5572   3.423   1.520   2.428
 1789HOH     H2 5573   3.457   1.657   2.483
 1790HOH      O 5574   0.270   2.081   3.556
 1790HOH     H1 5575   0.312   2.121   3.480
 1790HOH     H2 5576   0.341   2.069   3.619
 1791HOH      O 5577   2.987   0.582   1.361
 1791HOH     H1 5578   2.918   0.563   1.424
 1791HOH     H2 5579   2.992   0.678   1.358
 1792HOH      O 5580   1.182   1.667   2.969
 1792HOH     H1 5581   1.228   1.690   2.889
 1792HOH     H2 5582   1.177   1.749   3.019
 1793HOH      O 5583   3.233   0.439   1.348
 1793HOH     H1 5584   3.234   0.344   1.334
 1793HOH     H2 5585   3.141   0.464   1.333
 1794HOH      O 5586   1.367   3.219   1.673
 1794HOH     H1 5587   1.379   3.129   1.643
 1794HOH     H2 5588   1.351   3.269   1.593
 1795HOH      O 5589   1.993   1.712   1.487
 1795HOH     H1 5590   2.087   1.701   1.480
 1795HOH     H2 5591   1.957   1.641   1.434
 1796HOH      O 5592   0.313   0.963   3.158
 1796HOH     H1 5593   0.299   0.982   3.065
 1796HOH     H2 5594   0.381   1.025   3.185
 1797HOH      O 5595   2.148   2.938   2.680
 1797HOH     H1 5596   2.153   3.033   2.692
 1797HOH     H2 5597   2.231   2.905   2.715
 1798HOH      O 5598   2.240   0.552   0.441
 1798HOH     H1 5599   2.188   0.494   0.496
 1798HOH     H2 5600   2.300   0.596   0.501
 1799HOH      O 5601   2.416   2.041   1.295
 1799HOH     H1 5602   2.379   2.114   1.344
 1799HOH     H2 5603   2.435   1.974   1.361
 1800HOH      O 5604   1.231   0.421   0.604
 1800HOH     H1 5605   1.230   0.505   0.557
 1800HOH     H2 5606   1.261   0.358   0.539
 1801HOH      O 5607   0.838   3.937   0.050
 1801HOH     H1 5608   0.922   3.895   0.032
 1801HOH     H2 5609   0.841   3.958   0.143
 1802HOH      O 5610   2.137   2.669   3.596
 1802HOH     H1 5611   2.182   2.751   3.615
 1802HOH     H2 5612   2.067   2.694   3.536
 1803HOH      O 5613   3.565   0.315   3.040
 1803HOH     H1 5614   3.579   0.238   2.985
 1803HOH     H2 5615   3.613   0.385   2.996
 1804HOH      O 5616   2.580   1.032   0.079
 1804HOH     H1 5617   2.632   1.036  -0.001
 1804HOH     H2 5618   2.489   1.043   0.050
 1805HOH      O 5619   3.695   0.569   2.989
 1805HOH     H1 5620   3.757   0.579   2.917
 1805HOH     H2 5621   3.736   0.617   3.062
 1806HOH      O 5622   3.286   3.999   0.641
 1806HOH     H1 5623   3.346   4.046   0.699
 1806HOH     H2 5624   3.248   3.931   0.697
 1807HOH      O 5625   2.647   3.210   2.491
 1807HOH     H1 5626   2.603   3.149   2.432
 1807HOH     H2 5627   2.690   3.154   2.555
 1808HOH      O 5628   2.723   3.902   0.548
 1808HOH     H1 5629   2.712   3.824   0.601
 1808HOH     H2 5630   2.810   3.934   0.569
 1809HOH      O 5631   0.509   1.790   0.535
 1809HOH     H1 5632   0.530   1.698   0.551
 1809HOH     H2 5633   0.447   1.813   0.604
 1810HOH      O 5634   2.546   0.839   0.839
 1810HOH     H1 5635   2.486   0.766   0.852
 1810HOH     H2 5636   2.627   0.812   0.882
 1811HOH      O 5637   0.708   0.504   1.277
 1811HOH     H1 5638   0.757   0.525   1.197
 1811HOH     H2 5639   0.716   0.409   1.286
 1812HOH      O 5640   2.461   3.882   0.289
 1812HOH     H1 5641   2.550   3.865   0.257
 1812HOH     H2 5642   2.439   3.805   0.341
 1813HOH      O 5643   2.500   1.907   2.494
 1813HOH     H1 5644   2.421   1.857   2.516
 1813HOH     H2 5645   2.468   1.982   2.444
 1814HOH      O 5646   2.710   3.248   0.329
 1814HOH     H1 5647   2.722   3.162   0.289
 1814HOH     H2 5648   2.689   3.306   0.255
 1815HOH      O 5649   1.174   3.996   1.315
 1815HOH     H1 5650   1.148   4.064   1.377
 1815HOH     H2 5651   1.139   3.915   1.352
 1816HOH      O 5652   0.193   3.293   0.239
 1816HOH     H1 5653   0.238   3.240   0.173
 1816HOH     H2 5654   0.107   3.312   0.200
 1817HOH      O 5655   2.083   2.336   0.689
 1817HOH     H1 5656   2.163   2.285   0.672
 1817HOH     H2 5657   2.086   2.354   0.783
 1818HOH      O 5658   2.501   3.823   1.938
 1818HOH     H1 5659   2.585   3.819   1.892
 1818HOH     H2 5660   2.462   3.736   1.925
 1819HOH      O 5661   0.338   1.536   1.141
 1819HOH     H1 5662   0.261   1.593   1.131
 1819HOH     H2 5663   0.303   1.447   1.136
 1820HOH      O 5664   3.477   1.024   2.766
 1820HOH     H1 5665   3.520   0.962   2.708
 1820HOH     H2 5666   3.428   0.970   2.828
 1821HOH      O 5667   1.519   2.080   2.465
 1821HOH     H1 5668   1.525   2.159   2.519
 1821HOH     H2 5669   1.440   2.036   2.497
 1822HOH      O 5670   3.069   3.198   1.869
 1822HOH     H1 5671   3.005   3.128   1.879
 1822HOH     H2 5672   3.143   3.157   1.824
 1823HOH      O 5673   2.461   3.744   1.541
 1823HOH     H1 5674   2.492   3.701   1.461
 1823HOH     H2 5675   2.432   3.672   1.597
 1824HOH      O 5676   3.769   0.906   0.657
 1824HOH     H1 5677   3.861   0.910   0.631
 1824HOH     H2 5678   3.764   0.954   0.739
 1825HOH      O 5679   3.491   0.442   2.454
 1825HOH     H1 5680   3.448   0.512   2.405
 1825HOH     H2 5681   3.514   0.482   2.538
 1826HOH      O 5682   3.889   0.291   3.070
 1826HOH     H1 5683   3.939   0.372   3.078
 1826HOH     H2 5684   3.808   0.308   3.119
 1827HOH      O 5685   0.561   0.730   0.380
 1827HOH     H1 5686   0.652   0.700   0.376
 1827HOH     H2 5687   0.527   0.692   0.461
 1828HOH      O 5688   3.955   1.697   1.728
 1828HOH     H1 5689   3.900   1.704   1.807
 1828HOH     H2 5690   4.045   1.707   1.761
 1829HOH      O 5691   2.613   3.149   3.456
 1829HOH     H1 5692   2.690   3.116   3.410
 1829HOH     H2 5693   2.557   3.184   3.386
 1830HOH      O 5694   0.388   1.806   3.173
 1830HOH     H1 5695   0.452   1.862   3.219
 1830HOH     H2 5696   0.403   1.825   3.080
 1831HOH      O 5697   0.190   2.375   2.480
 1831HOH     H1 5698   0.250   2.442   2.512
 1831HOH     H2 5699   0.242   2.295   2.477
 1832HOH      O 5700   3.472   1.709   0.612
 1832HOH     H1 5701   3.484   1.637   0.550
 1832HOH     H2 5702   3.437   1.781   0.560
 1833HOH      O 5703   3.211   1.079   0.731
 1833HOH     H1 5704   3.139   1.030   0.770
 1833HOH     H2 5705   3.217   1.159   0.784
 1834HOH      O 5706   2.184   1.259   1.807
 1834HOH     H1 5707   2.110   1.209   1.773
 1834HOH     H2 5708   2.144   1.325   1.864
 1835HOH      O 5709   3.824   1.258   3.594
 1835HOH     H1 5710   3.886   1.234   3.525
 1835HOH     H2 5711   3.738   1.239   3.556
 1836HOH      O 5712   1.839   1.688   2.484
 1836HOH     H1 5713   1.779   1.678   2.558
 1836HOH     H2 5714   1.822   1.611   2.430
 1837HOH      O 5715   1.346   2.331   1.886
 1837HOH     H1 5716   1.251   2.320   1.887
 1837HOH     H2 5717   1.359   2.426   1.883
 1838HOH      O 5718   3.305   1.244   0.274
 1838HOH     H1 5719   3.282   1.169   0.328
 1838HOH     H2 5720   3.315   1.316   0.336
 1839HOH      O 5721   0.416   3.469   1.164
 1839HOH     H1 5722   0.345   3.471   1.229
 1839HOH     H2 5723   0.412   3.381   1.126
 1840HOH      O 5724   1.481   1.443   3.088
 1840HOH     H1 5725   1.504   1.500   3.014
 1840HOH     H2 5726   1.387   1.428   3.078
 1841HOH      O 5727   2.316   3.591   3.901
 1841HOH     H1 5728   2.227   3.627   3.895
 1841HOH     H2 5729   2.371   3.658   3.860
 1842HOH      O 5730   0.195   2.816   0.117
 1842HOH     H1 5731   0.176   2.785   0.206
 1842HOH     H2 5732   0.282   2.781   0.098
 1843HOH      O 5733   1.477   2.340   2.513
 1843HOH     H1 5734   1.530   2.364   2.589
 1843HOH     H2 5735   1.519   2.385   2.440
 1844HOH      O 5736   3.290   2.032   3.538
 1844HOH     H1 5737   3.256   2.118   3.512
 1844HOH     H2 5738   3.213   1.975   3.537
 1845HOH      O 5739   0.997   2.262   0.535
 1845HOH     H1 5740   1.030   2.350   0.513
 1845HOH     H2 5741   0.922   2.279   0.592
 1846HOH      O 5742   1.509   3.412   0.318
 1846HOH     H1 5743   1.495   3.501   0.286
 1846HOH     H2 5744   1.517   3.359   0.239
 1847HOH      O 5745   1.221   1.613   1.875
 1847HOH     H1 5746   1.259   1.564   1.948
 1847HOH     H2 5747   1.162   1.552   1.833
 1848HOH      O 5748   3.088   2.013   1.895
 1848HOH     H1 5749   2.993   2.012   1.907
 1848HOH     H2 5750   3.121   1.949   1.958
 1849HOH      O 5751   2.932   1.460   0.889
 1849HOH     H1 5752   3.010   1.404   0.889
 1849HOH     H2 5753   2.870   1.415   0.945
 1850HOH      O 5754   1.787   2.342   3.508
 1850HOH     H1 5755   1.832   2.359   3.424
 1850HOH     H2 5756   1.853   2.360   3.574
 1851HOH      O 5757   4.024   2.750   2.847
 1851HOH     H1 5758   3.980   2.830   2.875
 1851HOH     H2 5759   4.117   2.766   2.867
 1852HOH      O 5760   3.690   3.979   1.564
 1852HOH     H1 5761   3.683   4.057   1.619
 1852HOH     H2 5762   3.684   3.906   1.625
 1853HOH      O 5763   1.783   3.258   3.311
 1853HOH     H1 5764   1.734   3.320   3.365
 1853HOH     H2 5765   1.717   3.218   3.254
 1854HOH      O 5766   3.322   3.268   1.325
 1854HOH     H1 5767   3.275   3.242   1.246
 1854HOH     H2 5768   3.411   3.287   1.295
 1855HOH      O 5769   2.093   3.039   1.460
 1855HOH     H1 5770   2.021   3.021   1.399
 1855HOH     H2 5771   2.063   3.002   1.543
 1856HOH      O 5772   3.220   0.902   3.253
 1856HOH     H1 5773   3.261   0.865   3.331
 1856HOH     H2 5774   3.255   0.991   3.248
 1857HOH      O 5775   0.883   4.010   2.296
 1857HOH     H1 5776   0.847   4.058   2.221
 1857HOH     H2 5777   0.908   4.079   2.358
 1858HOH      O 5778   0.603   1.841   2.849
 1858HOH     H1 5779   0.616   1.747   2.854
 1858HOH     H2 5780   0.639   1.865   2.763
 1859HOH      O 5781   2.797   3.269   3.252
 1859HOH     H1 5782   2.769   3.358   3.274
 1859HOH     H2 5783   2.778   3.260   3.159
 1860HOH      O 5784   3.612   3.966   2.268
 1860HOH     H1 5785   3.635   3.888   2.318
 1860HOH     H2 5786   3.618   3.939   2.176
 1861HOH      O 5787   2.079   3.626   2.671
 1861HOH     H1 5788   2.016   3.637   2.742
 1861HOH     H2 5789   2.114   3.714   2.656
 1862HOH      O 5790   2.263   2.047   2.433
 1862HOH     H1 5791   2.243   2.004   2.516
 1862HOH     H2 5792   2.184   2.037   2.380
 1863HOH      O 5793   3.093   1.033   3.653
 1863HOH     H1 5794   3.037   0.995   3.720
 1863HOH     H2 5795   3.161   0.967   3.639
 1864HOH      O 5796   3.488   2.887   1.911
 1864HOH     H1 5797   3.529   2.950   1.970
 1864HOH     H2 5798   3.402   2.870   1.951
 1865HOH      O 5799   0.006   2.081   2.507
 1865HOH     H1 5800   0.098   2.058   2.523
 1865HOH     H2 5801   0.005   2.112   2.417
 1866HOH      O 5802   2.524   2.953   1.026
 1866HOH     H1 5803   2.615   2.931   1.007
 1866HOH     H2 5804   2.482   2.957   0.940
 1867HOH      O 5805   1.450   1.275   0.184
 1867HOH     H1 5806   1.390   1.350   0.177
 1867HOH     H2 5807   1.480   1.277   0.275
 1868HOH      O 5808   2.897   3.447   1.299
 1868HOH     H1 5809   2.948   3.402   1.367
 1868HOH     H2 5810   2.934   3.534   1.295
 1869HOH      O 5811   2.299   2.903   0.409
 1869HOH     H1 5812   2.387   2.900   0.446
 1869HOH     H2 5813   2.271   2.811   0.406
 1870HOH      O 5814   3.041   1.456   3.512
 1870HOH     H1 5815   3.068   1.488   3.426
 1870HOH     H2 5816   2.993   1.375   3.494
 1871HOH      O 5817   2.953   3.705   2.510
 1871HOH     H1 5818   3.047   3.725   2.517
 1871HOH     H2 5819   2.921   3.708   2.600
 1872HOH      O 5820   3.630   2.652   2.313
 1872HOH     H1 5821   3.588   2.579   2.268
 1872HOH     H2 5822   3.608   2.640   2.405
 1873HOH      O 5823   3.643   3.900   3.274
 1873HOH     H1 5824   3.712   3.957   3.308
 1873HOH     H2 5825   3.573   3.904   3.339
 1874HOH      O 5826   2.921   4.038   0.362
 1874HOH     H1 5827   2.866   4.025   0.285
 1874HOH     H2 5828   3.000   3.988   0.343
 1875HOH      O 5829   1.166   1.923   2.266
 1875HOH     H1 5830   1.224   1.913   2.190
 1875HOH     H2 5831   1.106   1.848   2.260
 1876HOH      O 5832   1.861   3.846   1.929
 1876HOH     H1 5833   1.770   3.867   1.911
 1876HOH     H2 5834   1.906   3.863   1.846
 1877HOH      O 5835   0.674   0.575   2.662
 1877HOH     H1 5836   0.586   0.604   2.638
 1877HOH     H2 5837   0.664   0.482   2.682
 1878HOH      O 5838   0.398   3.576   2.340
 1878HOH     H1 5839   0.430   3.575   2.430
 1878HOH     H2 5840   0.434   3.656   2.302
 1879HOH      O 5841   3.734   0.306   2.461
 1879HOH     H1 5842   3.648   0.335   2.429
 1879HOH     H2 5843   3.718   0.217   2.493
 1880HOH      O 5844   1.071   1.139   0.980
 1880HOH     H1 5845   0.989   1.177   1.013
 1880HOH     H2 5846   1.070   1.159   0.886
 1881HOH      O 5847   1.377   1.955   2.000
 1881HOH     H1 5848   1.356   2.015   2.071
 1881HOH     H2 5849   1.304   1.963   1.939
 1882HOH      O 5850   3.173   1.357   3.031
 1882HOH     H1 5851   3.125   1.285   3.071
 1882HOH     H2 5852   3.261   1.323   3.016
 1883HOH      O 5853   3.998   3.605   1.780
 1883HOH     H1 5854   4.021   3.537   1.844
 1883HOH     H2 5855   4.083   3.640   1.751
 1884HOH      O 5856   1.250   1.672   2.697
 1884HOH     H1 5857   1.339   1.655   2.666
 1884HOH     H2 5858   1.207   1.586   2.694
 1885HOH      O 5859   4.030   1.294   1.313
 1885HOH     H1 5860   4.117   1.300   1.272
 1885HOH     H2 5861   4.027   1.366   1.375
 1886HOH      O 5862   3.393   2.310   0.721
 1886HOH     H1 5863   3.409   2.303   0.815
 1886HOH     H2 5864   3.480   2.303   0.682
 1887HOH      O 5865   2.851   2.058   0.086
 1887HOH     H1 5866   2.863   2.095   0.174
 1887HOH     H2 5867   2.811   1.972   0.102
 1888HOH      O 5868   3.988   0.524   0.016
 1888HOH     H1 5869   3.917   0.477   0.060
 1888HOH     H2 5870   3.943   0.582  -0.046
 1889HOH      O 5871   0.376   3.195   1.022
 1889HOH     H1 5872   0.463   3.167   1.051
 1889HOH     H2 5873   0.379   3.188   0.926
 1890HOH      O 5874   3.611   3.011   0.334
 1890HOH     H1 5875   3.641   2.940   0.276
 1890HOH     H2 5876   3.689   3.035   0.384
 1891HOH      O 5877   2.975   1.007   3.354
 1891HOH     H1 5878   3.016   0.947   3.293
 1891HOH     H2 5879   3.033   1.083   3.356
 1892HOH      O 5880   1.982   0.131   0.095
 1892HOH     H1 5881   1.949   0.041   0.101
 1892HOH     H2 5882   2.002   0.155   0.185
 1893HOH      O 5883   0.994   1.324   1.238
 1893HOH     H1 5884   1.017   1.260   1.305
 1893HOH     H2 5885   0.920   1.286   1.191
 1894HOH      O 5886   0.480   3.116   0.257
 1894HOH     H1 5887   0.519   3.039   0.297
 1894HOH     H2 5888   0.547   3.149   0.197
 1895HOH      O 5889   1.579   0.898   1.171
 1895HOH     H1 5890   1.514   0.847   1.122
 1895HOH     H2 5891   1.527   0.945   1.236
 1896HOH      O 5892   1.971   1.251   2.504
 1896HOH     H1 5893   2.056   1.219   2.475
 1896HOH     H2 5894   1.943   1.311   2.435
 1897HOH      O 5895   1.738   2.303   3.930
 1897HOH     H1 5896   1.774   2.225   3.888
 1897HOH     H2 5897   1.815   2.352   3.959
 1898HOH      O 5898   2.753   2.106   2.515
 1898HOH     H1 5899   2.805   2.125   2.594
 1898HOH     H2 5900   2.726   2.014   2.526
 1899HOH      O 5901   1.505   1.607   2.879
 1899HOH     H1 5902   1.483   1.676   2.941
 1899HOH     H2 5903   1.573   1.646   2.823
 1900HOH      O 5904   1.753   0.225   3.388
 1900HOH     H1 5905   1.691   0.296   3.406
 1900HOH     H2 5906   1.836   0.255   3.425
 1901HOH      O 5907   0.238   0.909   0.761
 1901HOH     H1 5908   0.227   0.976   0.694
 1901HOH     H2 5909   0.166   0.924   0.822
 1902HOH      O 5910   3.658   2.979   3.545
 1902HOH     H1 5911   3.637   3.066   3.578
 1902HOH     H2 5912   3.685   2.993   3.454
 1903HOH      O 5913   3.267   1.530   3.976
 1903HOH     H1 5914   3.313   1.614   3.975
 1903HOH     H2 5915   3.337   1.465   3.965
 1904HOH      O 5916   2.457   3.090   2.065
 1904HOH     H1 5917   2.434   3.079   1.973
 1904HOH     H2 5918   2.512   3.168   2.067
 1905HOH      O 5919   0.566   1.789   2.371
 1905HOH     H1 5920   0.558   1.694   2.368
 1905HOH     H2 5921   0.475   1.821   2.370
 1906HOH      O 5922   3.861   0.629   0.960
 1906HOH     H1 5923   3.954   0.645   0.945
 1906HOH     H2 5924   3.822   0.630   0.872
 1907HOH      O 5925   3.997   2.088   1.276
 1907HOH     H1 5926   3.995   2.060   1.367
 1907HOH     H2 5927   3.921   2.045   1.236
 1908HOH      O 5928   1.154   3.500   2.376
 1908HOH     H1 5929   1.248   3.497   2.394
 1908HOH     H2 5930   1.114   3.499   2.463
 1909HOH      O 5931   2.847   0.773   2.663
 1909HOH     H1 5932   2.888   0.836   2.604
 1909HOH     H2 5933   2.789   0.826   2.718
 1910HOH      O 5934   0.187   2.206   2.044
 1910HOH     H1 5935   0.209   2.199   2.137
 1910HOH     H2 5936   0.197   2.299   2.024
 1911HOH      O 5937   1.495   2.065   0.552
 1911HOH     H1 5938   1.514   2.063   0.458
 1911HOH     H2 5939   1.538   2.145   0.583
 1912HOH      O 5940   2.275   1.530   3.565
 1912HOH     H1 5941   2.271   1.571   3.479
 1912HOH     H2 5942   2.365   1.545   3.596
 1913HOH      O 5943   3.121   0.777   2.594
 1913HOH     H1 5944   3.205   0.736   2.614
 1913HOH     H2 5945   3.065   0.752   2.667
 1914HOH      O 5946   0.636   3.141   1.002
 1914HOH     H1 5947   0.710   3.182   0.957
 1914HOH     H2 5948   0.666   3.052   1.021
 1915HOH      O 5949   0.164   1.802   0.228
 1915HOH     H1 5950   0.130   1.889   0.249
 1915HOH     H2 5951   0.253   1.802   0.261
 1916HOH      O 5952   1.565   3.649   2.562
 1916HOH     H1 5953   1.508   3.721   2.586
 1916HOH     H2 5954   1.645   3.692   2.529
 1917HOH      O 5955   2.934   0.128   0.692
 1917HOH     H1 5956   2.847   0.150   0.724
 1917HOH     H2 5957   2.926   0.129   0.597
 1918HOH      O 5958   3.920   3.673   0.577
 1918HOH     H1 5959   3.895   3.761   0.550
 1918HOH     H2 5960   3.845   3.641   0.627
 1919HOH      O 5961   1.181   2.338   2.622
 1919HOH     H1 5962   1.269   2.311   2.595
 1919HOH     H2 5963   1.193   2.377   2.708
 1920HOH      O 5964   1.106   3.476   0.489
 1920HOH     H1 5965   1.067   3.473   0.576
 1920HOH     H2 5966   1.038   3.513   0.433
 1921HOH      O 5967   1.226   2.711   2.900
 1921HOH     H1 5968   1.148   2.668   2.935
 1921HOH     H2 5969   1.229   2.795   2.946
 1922HOH      O 5970   1.676   0.997   0.326
 1922HOH     H1 5971   1.731   0.951   0.390
 1922HOH     H2 5972   1.590   0.957   0.337
 1923HOH      O 5973   0.392   0.754   1.589
 1923HOH     H1 5974   0.453   0.814   1.631
 1923HOH     H2 5975   0.391   0.676   1.644
 1924HOH      O 5976   0.601   2.794   1.854
 1924HOH     H1 5977   0.652   2.774   1.932
 1924HOH     H2 5978   0.604   2.890   1.848
 1925HOH      O 5979   2.319   1.135   2.678
 1925HOH     H1 5980   2.404   1.097   2.657
 1925HOH     H2 5981   2.305   1.113   2.770
 1926HOH      O 5982   2.675   3.672   2.259
 1926HOH     H1 5983   2.718   3.614   2.196
 1926HOH     H2 5984   2.726   3.752   2.256
 1927HOH      O 5985   3.084   2.398   3.882
 1927HOH     H1 5986   3.155   2.337   3.901
 1927HOH     H2 5987   3.006   2.343   3.871
 1928HOH      O 5988   1.493   3.684   3.928
 1928HOH     H1 5989   1.427   3.644   3.872
 1928HOH     H2 5990   1.531   3.610   3.976
 1929HOH      O 5991   2.492   0.833   0.316
 1929HOH     H1 5992   2.505   0.910   0.261
 1929HOH     H2 5993   2.542   0.852   0.395
 1930HOH      O 5994   0.687   2.366   2.495
 1930HOH     H1 5995   0.777   2.342   2.472
 1930HOH     H2 5996   0.696   2.451   2.540
 1931HOH      O 5997   1.438   2.581   2.654
 1931HOH     H1 5998   1.507   2.630   2.699
 1931HOH     H2 5999   1.415   2.511   2.715
 1932HOH      O 6000   3.996   1.981   1.807
 1932HOH     H1 6001   4.090   2.000   1.806
 1932HOH     H2 6002   3.975   1.965   1.900
 1933HOH      O 6003   3.988   3.058   2.635
 1933HOH     H1 6004   3.913   3.078   2.692
 1933HOH     H2 6005   4.059   3.037   2.695
 1934HOH      O 6006   2.710   2.226   0.640
 1934HOH     H1 6007   2.755   2.241   0.724
 1934HOH     H2 6008   2.666   2.142   0.651
 1935HOH      O 6009   0.744   3.035   0.674
 1935HOH     H1 6010   0.702   3.115   0.707
 1935HOH     H2 6011   0.792   3.001   0.749
 1936HOH      O 6012   1.580   0.475   0.238
 1936HOH     H1 6013   1.670   0.449   0.217
 1936HOH     H2 6014   1.526   0.414   0.189
 1937HOH      O 6015   0.411   3.707   1.004
 1937HOH     H1 6016   0.495   3.687   0.962
 1937HOH     H2 6017   0.384   3.624   1.044
 1938HOH      O 6018   3.027   3.432   2.605
 1938HOH     H1 6019   3.003   3.515   2.565
 1938HOH     H2 6020   3.014   3.367   2.536
 1939HOH      O 6021   0.731   3.233   1.391
 1939HOH     H1 6022   0.693   3.151   1.360
 1939HOH     H2 6023   0.698   3.243   1.480
 1940HOH      O 6024   0.823   3.797   2.005
 1940HOH     H1 6025   0.901   3.744   1.985
 1940HOH     H2 6026   0.790   3.760   2.087
 1941HOH      O 6027   1.927   3.387   1.249
 1941HOH     H1 6028   1.886   3.445   1.313
 1941HOH     H2 6029   2.006   3.355   1.293
 1942HOH      O 6030   2.462   0.723   1.157
 1942HOH     H1 6031   2.432   0.804   1.200
 1942HOH     H2 6032   2.381   0.679   1.131
 1943HOH      O 6033   0.486   1.253   0.870
 1943HOH     H1 6034   0.493   1.189   0.941
 1943HOH     H2 6035   0.394   1.251   0.845
 1944HOH      O 6036   1.595   1.629   0.103
 1944HOH     H1 6037   1.645   1.592   0.176
 1944HOH     H2 6038   1.646   1.705   0.075
 1945HOH      O 6039   0.382   3.294   2.939
 1945HOH     H1 6040   0.434   3.226   2.897
 1945HOH     H2 6041   0.423   3.376   2.911
 1946HOH      O 6042   2.595   0.312   1.563
 1946HOH     H1 6043   2.657   0.385   1.557
 1946HOH     H2 6044   2.650   0.233   1.560
 1947HOH      O 6045   2.968   1.749   1.570
 1947HOH     H1 6046   2.931   1.816   1.513
 1947HOH     H2 6047   3.042   1.714   1.521
 1948HOH      O 6048   1.518   1.550   1.794
 1948HOH     H1 6049   1.444   1.539   1.855
 1948HOH     H2 6050   1.483   1.523   1.709
 1949HOH      O 6051   1.557   1.230   3.626
 1949HOH     H1 6052   1.533   1.179   3.704
 1949HOH     H2 6053   1.633   1.281   3.654
 1950HOH      O 6054   3.520   2.994   2.180
 1950HOH     H1 6055   3.531   3.083   2.213
 1950HOH     H2 6056   3.609   2.958   2.178
 1951HOH      O 6057   0.258   3.568   3.085
 1951HOH     H1 6058   0.313   3.553   3.008
 1951HOH     H2 6059   0.243   3.663   3.085
 1952HOH      O 6060   1.029   1.006   1.332
 1952HOH     H1 6061   1.106   1.003   1.275
 1952HOH     H2 6062   0.994   0.916   1.329
 1953HOH      O 6063   2.148   3.989   3.461
 1953HOH     H1 6064   2.169   3.899   3.438
 1953HOH     H2 6065   2.132   4.033   3.377
 1954HOH      O 6066   0.740   0.098   3.291
 1954HOH     H1 6067   0.652   0.094   3.327
 1954HOH     H2 6068   0.780   0.174   3.333
 1955HOH      O 6069   3.685   2.056   3.750
 1955HOH     H1 6070   3.690   1.991   3.820
 1955HOH     H2 6071   3.755   2.118   3.770
 1956HOH      O 6072   0.830   3.957   1.340
 1956HOH     H1 6073   0.814   4.050   1.353
 1956HOH     H2 6074   0.892   3.933   1.409
 1957HOH      O 6075   2.017   3.363   3.921
 1957HOH     H1 6076   2.034   3.457   3.916
 1957HOH     H2 6077   2.089   3.323   3.873
 1958HOH      O 6078   0.221   1.253   2.319
 1958HOH     H1 6079   0.224   1.349   2.316
 1958HOH     H2 6080   0.270   1.230   2.398
 1959HOH      O 6081   0.695   1.669   3.897
 1959HOH     H1 6082   0.759   1.615   3.945
 1959HOH     H2 6083   0.641   1.709   3.965
 1960HOH      O 6084   2.113   2.612   1.948
 1960HOH     H1 6085   2.206   2.591   1.955
 1960HOH     H2 6086   2.081   2.607   2.038
 1961HOH      O 6087   2.441   1.368   2.370
 1961HOH     H1 6088   2.446   1.281   2.331
 1961HOH     H2 6089   2.522   1.376   2.421
 1962HOH      O 6090   0.206   2.063   1.821
 1962HOH     H1 6091   0.292   2.023   1.830
 1962HOH     H2 6092   0.194   2.113   1.902
 1963HOH      O 6093   2.833   3.821   1.996
 1963HOH     H1 6094   2.867   3.904   2.030
 1963HOH     H2 6095   2.912   3.772   1.971
 1964HOH      O 6096   2.441   0.372   1.806
 1964HOH     H1 6097   2.431   0.414   1.720
 1964HOH     H2 6098   2.509   0.307   1.792
 1965HOH      O 6099   2.153   3.769   0.122
 1965HOH     H1 6100   2.201   3.812   0.051
 1965HOH     H2 6101   2.096   3.838   0.157
 1966HOH      O 6102   0.621   3.493   2.895
 1966HOH     H1 6103   0.716   3.500   2.900
 1966HOH     H2 6104   0.590   3.584   2.886
 1967HOH      O 6105   0.103   0.953   2.912
 1967HOH     H1 6106   0.149   1.034   2.891
 1967HOH     H2 6107   0.018   0.961   2.870
 1968HOH      O 6108   1.202   1.972   2.991
 1968HOH     H1 6109   1.158   2.047   3.031
 1968HOH     H2 6110   1.196   1.988   2.897
 1969HOH      O 6111   0.252   1.080   0.544
 1969HOH     H1 6112   0.245   1.165   0.502
 1969HOH     H2 6113   0.338   1.047   0.519
 1970HOH      O 6114   3.024   2.913   0.264
 1970HOH     H1 6115   3.073   2.891   0.343
 1970HOH     H2 6116   3.077   2.877   0.193
 1971HOH      O 6117   0.039   1.741   2.123
 1971HOH     H1 6118   0.075   1.731   2.034
 1971HOH     H2 6119   0.038   1.836   2.137
 1972HOH      O 6120   2.756   3.307   0.070
 1972HOH     H1 6121   2.802   3.252   0.007
 1972HOH     H2 6122   2.772   3.397   0.040
 1973HOH      O 6123   0.496   0.928   1.780
 1973HOH     H1 6124   0.488   1.019   1.808
 1973HOH     H2 6125   0.573   0.895   1.827
 1974HOH      O 6126   1.344   2.275   3.675
 1974HOH     H1 6127   1.404   2.228   3.616
 1974HOH     H2 6128   1.402   2.327   3.730
 1975HOH      O 6129   0.192   3.056   2.786
 1975HOH     H1 6130   0.202   2.997   2.860
 1975HOH     H2 6131   0.275   3.104   2.781
 1976HOH      O 6132   3.882   1.589   1.249
 1976HOH     H1 6133   3.814   1.633   1.300
 1976HOH     H2 6134   3.955   1.579   1.311
 1977HOH      O 6135   3.974   0.845   3.666
 1977HOH     H1 6136   3.944   0.785   3.735
 1977HOH     H2 6137   4.025   0.911   3.713
 1978HOH      O 6138   0.773   2.054   0.062
 1978HOH     H1 6139   0.842   2.097   0.012
 1978HOH     H2 6140   0.767   2.104   0.144
 1979HOH      O 6141   1.216   2.911   0.313
 1979HOH     H1 6142   1.257   2.959   0.241
 1979HOH     H2 6143   1.188   2.828   0.274
 1980HOH      O 6144   1.793   0.350   0.653
 1980HOH     H1 6145   1.821   0.324   0.741
 1980HOH     H2 6146   1.750   0.272   0.618
 1981HOH      O 6147   3.812   1.496   1.596
 1981HOH     H1 6148   3.881   1.555   1.627
 1981HOH     H2 6149   3.731   1.547   1.604
 1982HOH      O 6150   1.956   2.654   1.528
 1982HOH     H1 6151   1.917   2.611   1.451
 1982HOH     H2 6152   1.941   2.593   1.600
 1983HOH      O 6153   0.306   1.585   1.617
 1983HOH     H1 6154   0.356   1.521   1.567
 1983HOH     H2 6155   0.362   1.662   1.620
 1984HOH      O 6156   2.571   3.322   2.101
 1984HOH     H1 6157   2.648   3.371   2.072
 1984HOH     H2 6158   2.535   3.374   2.172
 1985HOH      O 6159   0.668   0.172   0.806
 1985HOH     H1 6160   0.649   0.079   0.798
 1985HOH     H2 6161   0.741   0.177   0.868
 1986HOH      O 6162   2.669   0.270   3.198
 1986HOH     H1 6163   2.642   0.313   3.117
 1986HOH     H2 6164   2.596   0.283   3.258
 1987HOH      O 6165   3.499   2.952   0.822
 1987HOH     H1 6166   3.547   2.892   0.879
 1987HOH     H2 6167   3.417   2.970   0.869
 1988HOH      O 6168   2.129   1.551   3.994
 1988HOH     H1 6169   2.172   1.483   4.047
 1988HOH     H2 6170   2.195   1.620   3.986
 1989HOH      O 6171   2.220   1.894   0.461
 1989HOH     H1 6172   2.158   1.919   0.529
 1989HOH     H2 6173   2.282   1.967   0.457
 1990HOH      O 6174   0.128   2.944   1.833
 1990HOH     H1 6175   0.159   2.902   1.914
 1990HOH     H2 6176   0.058   3.003   1.862
 1991HOH      O 6177   0.668   2.364   3.914
 1991HOH     H1 6178   0.735   2.401   3.970
 1991HOH     H2 6179   0.629   2.294   3.966
 1992HOH      O 6180   2.532   1.586   2.703
 1992HOH     H1 6181   2.623   1.617   2.703
 1992HOH     H2 6182   2.484   1.653   2.750
 1993HOH      O 6183   1.624   2.819   0.470
 1993HOH     H1 6184   1.674   2.848   0.546
 1993HOH     H2 6185   1.666   2.861   0.395
 1994HOH      O 6186   3.362   0.176   0.188
 1994HOH     H1 6187   3.369   0.133   0.273
 1994HOH     H2 6188   3.278   0.222   0.191
 1995HOH      O 6189   1.351   2.397   0.362
 1995HOH     H1 6190   1.348   2.364   0.272
 1995HOH     H2 6191   1.443   2.419   0.376
 1996HOH      O 6192   2.169   2.276   1.734
 1996HOH     H1 6193   2.120   2.235   1.805
 1996HOH     H2 6194   2.103   2.301   1.670
 1997HOH      O 6195   4.040   3.964   0.815
 1997HOH     H1 6196   3.949   3.949   0.792
 1997HOH     H2 6197   4.050   3.926   0.903
 1998HOH      O 6198   2.052   2.816   3.315
 1998HOH     H1 6199   2.047   2.911   3.315
 1998HOH     H2 6200   2.141   2.796   3.286
 1999HOH      O 6201   3.682   2.713   3.445
 1999HOH     H1 6202   3.670   2.793   3.495
 1999HOH     H2 6203   3.598   2.668   3.450
 2000HOH      O 6204   0.755   1.299   0.191
 2000HOH     H1 6205   0.691   1.358   0.230
 2000HOH     H2 6206   0.786   1.345   0.113
 2001HOH      O 6207   3.568   2.555   0.506
 2001HOH     H1 6208   3.655   2.559   0.545
 2001HOH     H2 6209   3.538   2.646   0.507
 2002HOH      O 6210   0.510   3.970   1.092
 2002HOH     H1 6211   0.424   4.008   1.076
 2002HOH     H2 6212   0.497   3.876   1.083
 2003HOH      O 6213   1.951   1.472   1.681
 2003HOH     H1 6214   1.960   1.448   1.773
 2003HOH     H2 6215   1.961   1.567   1.679
 2004HOH      O 6216   0.982   1.301   3.627
 2004HOH     H1 6217   0.939   1.243   3.689
 2004HOH     H2 6218   0.911   1.350   3.586
 2005HOH      O 6219   3.067   0.046   3.931
 2005HOH     H1 6220   3.030   0.129   3.963
 2005HOH     H2 6221   3.082   0.061   3.838
 2006HOH      O 6222   1.646   2.537   3.819
 2006HOH     H1 6223   1.667   2.450   3.852
 2006HOH     H2 6224   1.624   2.522   3.727
 2007HOH      O 6225   0.771   0.522   0.988
 2007HOH     H1 6226   0.830   0.481   0.926
 2007HOH     H2 6227   0.771   0.615   0.964
 2008HOH      O 6228   3.728   1.883   3.968
 2008HOH     H1 6229   3.665   1.813   3.955
 2008HOH     H2 6230   3.796   1.844   4.023
 2009HOH      O 6231   0.770   3.676   1.687
 2009HOH     H1 6232   0.814   3.607   1.736
 2009HOH     H2 6233   0.688   3.637   1.658
 2010HOH      O 6234   1.110   2.976   0.816
 2010HOH     H1 6235   1.082   2.961   0.726
 2010HOH     H2 6236   1.200   3.007   0.808
 2011HOH      O 6237   1.618   2.379   2.777
 2011HOH     H1 6238   1.619   2.421   2.863
 2011HOH     H2 6239   1.679   2.431   2.725
 2012HOH      O 6240   2.921   1.071   2.986
 2012HOH     H1 6241   3.001   1.019   2.991
 2012HOH     H2 6242   2.921   1.107   2.898
 2013HOH      O 6243   1.245   3.302   0.748
 2013HOH     H1 6244   1.301   3.353   0.806
 2013HOH     H2 6245   1.156   3.332   0.768
 2014HOH      O 6246   0.424   2.369   0.439
 2014HOH     H1 6247   0.333   2.395   0.425
 2014HOH     H2 6248   0.430   2.281   0.402
 2015HOH      O 6249   2.765   2.237   1.836
 2015HOH     H1 6250   2.718   2.304   1.786
 2015HOH     H2 6251   2.857   2.257   1.821
 2016HOH      O 6252   1.840   3.578   2.003
 2016HOH     H1 6253   1.845   3.660   1.955
 2016HOH     H2 6254   1.790   3.519   1.946
 2017HOH      O 6255   1.809   2.865   1.711
 2017HOH     H1 6256   1.856   2.823   1.639
 2017HOH     H2 6257   1.849   2.829   1.790
 2018HOH      O 6258   1.768   3.207   0.183
 2018HOH     H1 6259   1.679   3.179   0.162
 2018HOH     H2 6260   1.815   3.199   0.100
 2019HOH      O 6261   1.955   1.157   1.328
 2019HOH     H1 6262   1.963   1.063   1.345
 2019HOH     H2 6263   1.911   1.163   1.243
 2020HOH      O 6264   0.921   1.067   0.619
 2020HOH     H1 6265   1.002   1.033   0.580
 2020HOH     H2 6266   0.864   1.082   0.544
 2021HOH      O 6267   0.491   2.186   2.573
 2021HOH     H1 6268   0.551   2.119   2.606
 2021HOH     H2 6269   0.548   2.252   2.533
 2022HOH      O 6270   4.039   2.911   1.529
 2022HOH     H1 6271   4.080   2.946   1.449
 2022HOH     H2 6272   4.113   2.875   1.578
 2023HOH      O 6273   2.724   1.100   1.766
 2023HOH     H1 6274   2.707   1.158   1.841
 2023HOH     H2 6275   2.722   1.012   1.803
 2024HOH      O 6276   3.776   2.892   2.192
 2024HOH     H1 6277   3.766   2.803   2.159
 2024HOH     H2 6278   3.818   2.882   2.277
 2025HOH      O 6279   3.830   0.928   3.432
 2025HOH     H1 6280   3.869   1.010   3.403
 2025HOH     H2 6281   3.890   0.896   3.499
 2026HOH      O 6282   3.797   0.633   0.696
 2026HOH     H1 6283   3.770   0.706   0.641
 2026HOH     H2 6284   3.866   0.589   0.646
 2027HOH      O 6285   2.488   2.728   3.180
 2027HOH     H1 6286   2.412   2.673   3.195
 2027HOH     H2 6287   2.563   2.674   3.205
 2028HOH      O 6288   2.049   0.892   1.442
 2028HOH     H1 6289   2.119   0.851   1.493
 2028HOH     H2 6290   2.051   0.846   1.358
 2029HOH      O 6291   3.029   2.273   3.452
 2029HOH     H1 6292   3.058   2.309   3.368
 2029HOH     H2 6293   3.000   2.350   3.502
 2030HOH      O 6294   2.197   0.828   3.023
 2030HOH     H1 6295   2.116   0.795   3.062
 2030HOH     H2 6296   2.253   0.751   3.016
 2031HOH      O 6297   3.374   1.808   2.501
 2031HOH     H1 6298   3.442   1.862   2.542
 2031HOH     H2 6299   3.342   1.861   2.428
 2032HOH      O 6300   1.876   0.726   3.459
 2032HOH     H1 6301   1.956   0.714   3.510
 2032HOH     H2 6302   1.898   0.795   3.396
 2033HOH      O 6303   2.506   2.941   3.021
 2033HOH     H1 6304   2.475   2.873   3.081
 2033HOH     H2 6305   2.575   2.987   3.070
 2034HOH      O 6306   0.082   2.638   1.495
 2034HOH     H1 6307  -0.010   2.662   1.507
 2034HOH     H2 6308   0.093   2.630   1.400
 2035HOH      O 6309   0.083   3.314   2.965
 2035HOH     H1 6310   0.179   3.317   2.961
 2035HOH     H2 6311   0.054   3.331   2.876
 2036HOH      O 6312   1.689   1.735   3.649
 2036HOH     H1 6313   1.625   1.713   3.715
 2036HOH     H2 6314   1.749   1.660   3.647
 2037HOH      O 6315   2.352   3.546   3.058
 2037HOH     H1 6316   2.269   3.548   3.010
 2037HOH     H2 6317   2.371   3.638   3.077
 2038HOH      O 6318   0.596   0.419   4.018
 2038HOH     H1 6319   0.599   0.453   3.929
 2038HOH     H2 6320   0.641   0.335   4.014
 2039HOH      O 6321   3.525   1.653   1.551
 2039HOH     H1 6322   3.607   1.702   1.555
 2039HOH     H2 6323   3.464   1.710   1.504
 2040HOH      O 6324   1.753   0.640   1.309
 2040HOH     H1 6325   1.753   0.735   1.320
 2040HOH     H2 6326   1.827   0.611   1.363
 2041HOH      O 6327   3.265   3.645   0.563
 2041HOH     H1 6328   3.182   3.620   0.521
 2041HOH     H2 6329   3.319   3.566   0.559
 2042HOH      O 6330   3.522   2.961   2.631
 2042HOH     H1 6331   3.572   2.889   2.592
 2042HOH     H2 6332   3.494   3.014   2.556
 2043HOH      O 6333   1.564   2.255   1.700
 2043HOH     H1 6334   1.494   2.258   1.766
 2043HOH     H2 6335   1.558   2.167   1.663
 2044HOH      O 6336   2.298   0.281   3.164
 2044HOH     H1 6337   2.331   0.192   3.174
 2044HOH     H2 6338   2.219   0.271   3.110
 2045HOH      O 6339   2.351   1.624   1.130
 2045HOH     H1 6340   2.362   1.529   1.131
 2045HOH     H2 6341   2.277   1.639   1.071
 2046HOH      O 6342   3.722   4.005   1.292
 2046HOH     H1 6343   3.747   4.031   1.381
 2046HOH     H2 6344   3.782   4.055   1.235
 2047HOH      O 6345   1.583   0.468   0.941
 2047HOH     H1 6346   1.539   0.385   0.922
 2047HOH     H2 6347   1.670   0.458   0.901
 2048HOH      O 6348   1.822   2.926   0.951
 2048HOH     H1 6349   1.801   2.995   1.013
 2048HOH     H2 6350   1.894   2.878   0.991
 2049HOH      O 6351   0.452   0.400   3.370
 2049HOH     H1 6352   0.443   0.493   3.389
 2049HOH     H2 6353   0.497   0.398   3.285
 2050HOH      O 6354   0.516   0.993   0.497
 2050HOH     H1 6355   0.524   0.907   0.455
 2050HOH     H2 6356   0.591   1.043   0.465
 2051HOH      O 6357   3.601   2.035   2.108
 2051HOH     H1 6358   3.561   1.962   2.062
 2051HOH     H2 6359   3.560   2.033   2.195
 2052HOH      O 6360   0.705   2.895   1.095
 2052HOH     H1 6361   0.710   2.822   1.157
 2052HOH     H2 6362   0.776   2.878   1.032
 2053HOH      O 6363   1.158   1.907   1.085
 2053HOH     H1 6364   1.153   1.890   0.991
 2053HOH     H2 6365   1.092   1.975   1.100
 2054HOH      O 6366   3.732   0.443   1.162
 2054HOH     H1 6367   3.710   0.498   1.237
 2054HOH     H2 6368   3.766   0.504   1.096
 2055HOH      O 6369   3.039   3.964   2.824
 2055HOH     H1 6370   3.018   4.053   2.794
 2055HOH     H2 6371   3.131   3.968   2.848
 2056HOH      O 6372   2.893   0.037   2.072
 2056HOH     H1 6373   2.948   0.065   1.999
 2056HOH     H2 6374   2.951   0.038   2.148
 2057HOH      O 6375   0.296   3.093   3.276
 2057HOH     H1 6376   0.215   3.138   3.252
 2057HOH     H2 6377   0.296   3.094   3.372
 2058HOH      O 6378   3.269   3.138   2.473
 2058HOH     H1 6379   3.283   3.137   2.568
 2058HOH     H2 6380   3.355   3.161   2.437
 2059HOH      O 6381   0.260   3.866   0.862
 2059HOH     H1 6382   0.308   3.807   0.920
 2059HOH     H2 6383   0.169   3.857   0.889
 2060HOH      O 6384   1.586   3.901   0.726
 2060HOH     H1 6385   1.680   3.907   0.742
 2060HOH     H2 6386   1.546   3.927   0.809
 2061HOH      O 6387   2.390   2.021   2.717
 2061HOH     H1 6388   2.395   1.939   2.767
 2061HOH     H2 6389   2.440   2.003   2.637
 2062HOH      O 6390   2.976   0.365   1.778
 2062HOH     H1 6391   2.984   0.276   1.813
 2062HOH     H2 6392   3.041   0.368   1.708
 2063HOH      O 6393   3.180   1.346   0.812
 2063HOH     H1 6394   3.137   1.330   0.728
 2063HOH     H2 6395   3.249   1.409   0.792
 2064HOH      O 6396   2.684   2.543   3.251
 2064HOH     H1 6397   2.715   2.453   3.261
 2064HOH     H2 6398   2.748   2.595   3.301
 2065HOH      O 6399   1.260   1.895   0.175
 2065HOH     H1 6400   1.215   1.886   0.091
 2065HOH     H2 6401   1.212   1.838   0.234
 2066HOH      O 6402   0.165   1.000   3.391
 2066HOH     H1 6403   0.246   1.048   3.410
 2066HOH     H2 6404   0.166   0.990   3.296
 2067HOH      O 6405   1.727   1.527   0.353
 2067HOH     H1 6406   1.764   1.440   0.364
 2067HOH     H2 6407   1.795   1.587   0.384
 2068HOH      O 6408   2.392   2.320   0.082
 2068HOH     H1 6409   2.397   2.323  -0.014
 2068HOH     H2 6410   2.416   2.408   0.110
 2069HOH      O 6411   0.607   2.125   1.579
 2069HOH     H1 6412   0.659   2.199   1.547
 2069HOH     H2 6413   0.523   2.133   1.534
 2070HOH      O 6414   0.825   1.359   1.596
 2070HOH     H1 6415   0.859   1.275   1.563
 2070HOH     H2 6416   0.785   1.337   1.680
 2071HOH      O 6417   0.433   1.838   1.647
 2071HOH     H1 6418   0.425   1.917   1.593
 2071HOH     H2 6419   0.477   1.869   1.726
 2072HOH      O 6420   0.600   0.513   1.724
 2072HOH     H1 6421   0.513   0.530   1.759
 2072HOH     H2 6422   0.650   0.478   1.798
 2073HOH      O 6423   1.415   0.259   0.909
 2073HOH     H1 6424   1.396   0.200   0.835
 2073HOH     H2 6425   1.436   0.200   0.981
 2074HOH      O 6426   2.916   1.385   2.646
 2074HOH     H1 6427   2.975   1.380   2.721
 2074HOH     H2 6428   2.972   1.413   2.574
 2075HOH      O 6429   1.160   1.312   3.901
 2075HOH     H1 6430   1.242   1.265   3.883
 2075HOH     H2 6431   1.114   1.311   3.817
 2076HOH      O 6432   3.834   1.575   0.346
 2076HOH     H1 6433   3.803   1.665   0.340
 2076HOH     H2 6434   3.755   1.522   0.345
 2077HOH      O 6435   1.558   2.836   0.055
 2077HOH     H1 6436   1.571   2.741   0.062
 2077HOH     H2 6437   1.608   2.872   0.129
 2078HOH      O 6438   3.624   0.489   0.347
 2078HOH     H1 6439   3.678   0.428   0.397
 2078HOH     H2 6440   3.560   0.521   0.409
 2079HOH      O 6441   2.312   1.947   1.625
 2079HOH     H1 6442   2.221   1.966   1.645
 2079HOH     H2 6443   2.361   1.986   1.698
 2080HOH      O 6444   2.701   1.940   2.889
 2080HOH     H1 6445   2.759   1.886   2.943
 2080HOH     H2 6446   2.760   1.998   2.841
 2081HOH      O 6447   0.020   1.470   2.080
 2081HOH     H1 6448   0.105   1.434   2.056
 2081HOH     H2 6449   0.039   1.555   2.118
 2082HOH      O 6450   0.473   1.010   1.031
 2082HOH     H1 6451   0.524   0.932   1.056
 2082HOH     H2 6452   0.467   1.061   1.112
 2083HOH      O 6453   0.126   3.167   0.491
 2083HOH     H1 6454   0.124   3.196   0.399
 2083HOH     H2 6455   0.128   3.248   0.542
 2084HOH      O 6456   3.466   0.766   1.264
 2084HOH     H1 6457   3.474   0.860   1.255
 2084HOH     H2 6458   3.402   0.741   1.197
 2085HOH      O 6459   2.534   0.300   3.426
 2085HOH     H1 6460   2.510   0.391   3.442
 2085HOH     H2 6461   2.458   0.250   3.454
 2086HOH      O 6462   1.115   2.427   0.135
 2086HOH     H1 6463   1.208   2.426   0.110
 2086HOH     H2 6464   1.111   2.368   0.210
 2087HOH      O 6465   2.803   3.193   1.475
 2087HOH     H1 6466   2.789   3.104   1.442
 2087HOH     H2 6467   2.897   3.196   1.495
 2088HOH      O 6468   2.385   0.795   2.749
 2088HOH     H1 6469   2.290   0.806   2.749
 2088HOH     H2 6470   2.412   0.820   2.661
 2089HOH      O 6471   2.417   3.501   1.648
 2089HOH     H1 6472   2.486   3.471   1.589
 2089HOH     H2 6473   2.444   3.469   1.734
 2090HOH      O 6474   3.240   2.576   0.460
 2090HOH     H1 6475   3.147   2.572   0.438
 2090HOH     H2 6476   3.265   2.485   0.477
 2091HOH      O 6477   0.730   3.680   3.162
 2091HOH     H1 6478   0.768   3.759   3.200
 2091HOH     H2 6479   0.679   3.711   3.087
 2092HOH      O 6480   0.464   2.074   2.935
 2092HOH     H1 6481   0.512   1.993   2.917
 2092HOH     H2 6482   0.522   2.144   2.906
 2093HOH      O 6483   0.064   2.474   3.801
 2093HOH     H1 6484   0.030   2.534   3.735
 2093HOH     H2 6485   0.159   2.477   3.789
 2094HOH      O 6486   1.368   2.938   1.820
 2094HOH     H1 6487   1.404   2.936   1.908
 2094HOH     H2 6488   1.444   2.939   1.762
 2095HOH      O 6489   3.287   2.374   2.753
 2095HOH     H1 6490   3.354   2.306   2.763
 2095HOH     H2 6491   3.325   2.451   2.795
 2096HOH      O 6492   1.399   1.661   3.439
 2096HOH     H1 6493   1.420   1.736   3.383
 2096HOH     H2 6494   1.314   1.630   3.407
 2097HOH      O 6495   0.511   1.203   1.252
 2097HOH     H1 6496   0.597   1.215   1.212
 2097HOH     H2 6497   0.531   1.178   1.342
 2098HOH      O 6498   1.275   1.644   3.926
 2098HOH     H1 6499   1.358   1.661   3.882
 2098HOH     H2 6500   1.222   1.598   3.861
 2099HOH      O 6501   1.374   2.091   2.257
 2099HOH     H1 6502   1.293   2.064   2.301
 2099HOH     H2 6503   1.444   2.062   2.316
 2100HOH      O 6504   2.329   3.955   2.099
 2100HOH     H1 6505   2.409   3.922   2.058
 2100HOH     H2 6506   2.271   3.977   2.025
 2101HOH      O 6507   1.185   0.662   0.232
 2101HOH     H1 6508   1.159   0.573   0.257
 2101HOH     H2 6509   1.198   0.658   0.138
 2102HOH      O 6510   3.853   1.137   1.116
 2102HOH     H1 6511   3.855   1.042   1.105
 2102HOH     H2 6512   3.823   1.150   1.206
 2103HOH      O 6513   2.478   1.807   2.879
 2103HOH     H1 6514   2.560   1.856   2.890
 2103HOH     H2 6515   2.477   1.745   2.952
 2104HOH      O 6516   3.352   1.774   3.964
 2104HOH     H1 6517   3.282   1.794   4.025
 2104HOH     H2 6518   3.366   1.856   3.916
 2105HOH      O 6519   1.701   3.874   1.239
 2105HOH     H1 6520   1.671   3.902   1.326
 2105HOH     H2 6521   1.797   3.879   1.245
 2106HOH      O 6522   0.213   3.606   3.504
 2106HOH     H1 6523   0.236   3.690   3.546
 2106HOH     H2 6524   0.214   3.543   3.576
 2107HOH      O 6525   3.834   2.258   3.292
 2107HOH     H1 6526   3.906   2.254   3.229
 2107HOH     H2 6527   3.819   2.352   3.305
 2108HOH      O 6528   2.941   0.531   2.630
 2108HOH     H1 6529   2.988   0.522   2.547
 2108HOH     H2 6530   2.884   0.607   2.617
 2109HOH      O 6531   1.680   1.105   0.064
 2109HOH     H1 6532   1.669   1.046   0.138
 2109HOH     H2 6533   1.612   1.171   0.075
   4.04076   4.04076   4.04076   0.00000   0.00000   0.00000   0.00000   0.00000   0.00000
