Generated with MDTraj, t= 51341.0
 5889
    1TYR      N    1   1.173   1.443   1.183
    1TYR     H1    2   1.205   1.512   1.254
    1TYR     H2    3   1.218   1.456   1.090
    1TYR     H3    4   1.071   1.450   1.168
    1TYR     CA    5   1.207   1.310   1.236
    1TYR     HA    6   1.159   1.311   1.332
    1TYR     CB    7   1.149   1.193   1.149
    1TYR    HB1    8   1.054   1.213   1.094
    1TYR    HB2    9   1.218   1.152   1.072
    1TYR     CG   10   1.105   1.081   1.241
    1TYR    CD1   11   1.155   0.945   1.230
    1TYR    HD1   12   1.235   0.918   1.163
    1TYR    CE1   13   1.130   0.837   1.314
    1TYR    HE1   14   1.175   0.739   1.304
    1TYR     CZ   15   1.043   0.861   1.420
    1TYR     OH   16   1.011   0.743   1.493
    1TYR     HH   17   1.048   0.664   1.453
    1TYR    CD2   18   0.998   1.089   1.337
    1TYR    HD2   19   0.930   1.172   1.343
    1TYR    CE2   20   0.979   0.992   1.434
    1TYR    HE2   21   0.897   0.999   1.503
    1TYR      C   22   1.355   1.305   1.256
    1TYR      O   23   1.399   1.327   1.365
    2TYR      N   24   1.433   1.304   1.142
    2TYR     HN   25   1.400   1.285   1.050
    2TYR     CA   26   1.575   1.322   1.132
    2TYR     HA   27   1.634   1.280   1.212
    2TYR     CB   28   1.622   1.249   0.999
    2TYR    HB1   29   1.578   1.307   0.916
    2TYR    HB2   30   1.733   1.262   0.996
    2TYR     CG   31   1.588   1.101   0.999
    2TYR    CD1   32   1.684   1.012   1.049
    2TYR    HD1   33   1.780   1.049   1.079
    2TYR    CE1   34   1.637   0.888   1.090
    2TYR    HE1   35   1.699   0.828   1.155
    2TYR     CZ   36   1.500   0.844   1.066
    2TYR     OH   37   1.457   0.713   1.102
    2TYR     HH   38   1.513   0.672   1.169
    2TYR    CD2   39   1.470   1.056   0.944
    2TYR    HD2   40   1.404   1.125   0.894
    2TYR    CE2   41   1.426   0.923   0.979
    2TYR    HE2   42   1.327   0.898   0.943
    2TYR      C   43   1.615   1.464   1.134
    2TYR      O   44   1.532   1.550   1.115
    3ASP      N   45   1.739   1.491   1.176
    3ASP     HN   46   1.801   1.418   1.203
    3ASP     CA   47   1.779   1.636   1.187
    3ASP     HA   48   1.734   1.696   1.109
    3ASP     CB   49   1.767   1.697   1.327
    3ASP    HB1   50   1.669   1.669   1.370
    3ASP    HB2   51   1.847   1.657   1.394
    3ASP     CG   52   1.791   1.849   1.338
    3ASP    OD1   53   1.728   1.912   1.420
    3ASP    OD2   54   1.869   1.903   1.247
    3ASP      C   55   1.926   1.637   1.141
    3ASP      O   56   2.019   1.608   1.217
    4PRO      N   57   1.963   1.684   1.017
    4PRO     CD   58   1.878   1.673   0.897
    4PRO    HD1   59   1.782   1.728   0.905
    4PRO    HD2   60   1.864   1.568   0.863
    4PRO     CA   61   2.107   1.697   0.991
    4PRO     HA   62   2.153   1.605   1.023
    4PRO     CB   63   2.111   1.705   0.835
    4PRO    HB1   64   2.190   1.775   0.801
    4PRO    HB2   65   2.119   1.597   0.807
    4PRO     CG   66   1.968   1.737   0.791
    4PRO    HG1   67   1.942   1.845   0.777
    4PRO    HG2   68   1.946   1.692   0.692
    4PRO      C   69   2.184   1.811   1.058
    4PRO      O   70   2.306   1.815   1.040
    5GLU      N   71   2.114   1.910   1.126
    5GLU     HN   72   2.014   1.911   1.128
    5GLU     CA   73   2.182   2.029   1.186
    5GLU     HA   74   2.265   2.055   1.122
    5GLU     CB   75   2.085   2.153   1.168
    5GLU    HB1   76   2.081   2.176   1.060
    5GLU    HB2   77   1.981   2.151   1.209
    5GLU     CG   78   2.151   2.283   1.221
    5GLU    HG1   79   2.145   2.272   1.331
    5GLU    HG2   80   2.261   2.277   1.207
    5GLU     CD   81   2.084   2.402   1.165
    5GLU    OE1   82   2.054   2.406   1.040
    5GLU    OE2   83   2.030   2.486   1.244
    5GLU      C   84   2.227   1.999   1.328
    5GLU      O   85   2.334   2.031   1.377
    6THR      N   86   2.133   1.931   1.406
    6THR     HN   87   2.042   1.910   1.371
    6THR     CA   88   2.152   1.880   1.542
    6THR     HA   89   2.223   1.945   1.591
    6THR     CB   90   2.021   1.889   1.621
    6THR     HB   91   1.938   1.825   1.584
    6THR    OG1   92   1.982   2.025   1.624
    6THR    HG1   93   1.932   2.035   1.543
    6THR    CG2   94   2.054   1.857   1.762
    6THR   HG21   95   2.145   1.911   1.797
    6THR   HG22   96   1.970   1.875   1.833
    6THR   HG23   97   2.086   1.751   1.768
    6THR      C   98   2.213   1.738   1.545
    6THR      O   99   2.265   1.687   1.641
    7GLY      N  100   2.205   1.674   1.433
    7GLY     HN  101   2.162   1.715   1.352
    7GLY     CA  102   2.250   1.542   1.410
    7GLY    HA1  103   2.241   1.518   1.305
    7GLY    HA2  104   2.351   1.541   1.448
    7GLY      C  105   2.177   1.425   1.473
    7GLY      O  106   2.236   1.330   1.524
    8THR      N  107   2.039   1.436   1.469
    8THR     HN  108   1.998   1.502   1.407
    8THR     CA  109   1.954   1.346   1.545
    8THR     HA  110   2.013   1.287   1.613
    8THR     CB  111   1.839   1.414   1.622
    8THR     HB  112   1.792   1.493   1.560
    8THR    OG1  113   1.901   1.465   1.739
    8THR    HG1  114   1.835   1.522   1.777
    8THR    CG2  115   1.734   1.309   1.662
    8THR   HG21  116   1.768   1.221   1.720
    8THR   HG22  117   1.657   1.362   1.722
    8THR   HG23  118   1.675   1.260   1.582
    8THR      C  119   1.903   1.253   1.443
    8THR      O  120   1.858   1.294   1.332
    9TRP      N  121   1.912   1.122   1.477
    9TRP     HN  122   1.965   1.107   1.560
    9TRP     CA  123   1.865   1.014   1.397
    9TRP     HA  124   1.802   1.050   1.317
    9TRP     CB  125   1.979   0.931   1.329
    9TRP    HB1  126   2.061   0.891   1.392
    9TRP    HB2  127   1.926   0.847   1.280
    9TRP     CG  128   2.051   0.996   1.211
    9TRP    CD1  129   2.118   1.110   1.213
    9TRP    HD1  130   2.145   1.166   1.301
    9TRP    NE1  131   2.166   1.135   1.081
    9TRP    HE1  132   2.210   1.216   1.050
    9TRP    CE2  133   2.136   1.023   1.000
    9TRP    CD2  134   2.064   0.933   1.081
    9TRP    CE3  135   2.005   0.812   1.032
    9TRP    HE3  136   1.926   0.757   1.080
    9TRP    CZ3  137   2.044   0.788   0.890
    9TRP    HZ3  138   2.020   0.702   0.830
    9TRP    CZ2  139   2.161   0.999   0.870
    9TRP    HZ2  140   2.200   1.072   0.800
    9TRP    CH2  141   2.107   0.875   0.818
    9TRP    HH2  142   2.139   0.844   0.720
    9TRP      C  143   1.779   0.923   1.484
    9TRP      O  144   1.798   0.928   1.602
   10TYR      N  145   1.679   0.854   1.423
   10TYR     HN  146   1.658   0.865   1.327
   10TYR     CA  147   1.600   0.755   1.497
   10TYR     HA  148   1.634   0.753   1.599
   10TYR     CB  149   1.450   0.780   1.507
   10TYR    HB1  150   1.400   0.815   1.414
   10TYR    HB2  151   1.392   0.697   1.552
   10TYR     CG  152   1.428   0.895   1.611
   10TYR    CD1  153   1.363   1.014   1.575
   10TYR    HD1  154   1.316   1.034   1.480
   10TYR    CE1  155   1.349   1.119   1.672
   10TYR    HE1  156   1.294   1.202   1.631
   10TYR     CZ  157   1.385   1.111   1.802
   10TYR     OH  158   1.351   1.218   1.885
   10TYR     HH  159   1.425   1.234   1.944
   10TYR    CD2  160   1.457   0.881   1.748
   10TYR    HD2  161   1.498   0.793   1.797
   10TYR    CE2  162   1.446   0.987   1.843
   10TYR    HE2  163   1.477   0.975   1.946
   10TYR      C  164   1.616   0.619   1.427
   10TYR    OT1  165   1.657   0.521   1.492
   10TYR    OT2  166   1.592   0.601   1.310
   11SOL     OW  167   1.713   3.079   1.246
   11SOL    HW1  168   1.656   3.104   1.318
   11SOL    HW2  169   1.719   2.983   1.252
   12SOL     OW  170   2.977   3.314   2.700
   12SOL    HW1  171   3.033   3.344   2.771
   12SOL    HW2  172   2.905   3.269   2.744
   13SOL     OW  173   3.245   2.305   1.883
   13SOL    HW1  174   3.195   2.226   1.902
   13SOL    HW2  175   3.210   2.371   1.944
   14SOL     OW  176   3.530   3.146   0.915
   14SOL    HW1  177   3.508   3.064   0.960
   14SOL    HW2  178   3.543   3.209   0.985
   15SOL     OW  179   3.941   3.690   3.522
   15SOL    HW1  180   3.900   3.776   3.522
   15SOL    HW2  181   3.882   3.636   3.469
   16SOL     OW  182   0.188   3.920   0.269
   16SOL    HW1  183   0.107   3.937   0.222
   16SOL    HW2  184   0.194   3.990   0.333
   17SOL     OW  185   2.173   3.963   0.241
   17SOL    HW1  186   2.141   3.961   0.151
   17SOL    HW2  187   2.268   3.953   0.233
   18SOL     OW  188   3.140   3.259   2.930
   18SOL    HW1  189   3.206   3.195   2.904
   18SOL    HW2  190   3.122   3.238   3.022
   19SOL     OW  191   2.621   2.337   2.744
   19SOL    HW1  192   2.662   2.421   2.722
   19SOL    HW2  193   2.624   2.288   2.662
   20SOL     OW  194   0.708   1.454   2.621
   20SOL    HW1  195   0.707   1.427   2.530
   20SOL    HW2  196   0.740   1.544   2.619
   21SOL     OW  197   1.677   1.148   2.514
   21SOL    HW1  198   1.756   1.097   2.529
   21SOL    HW2  199   1.642   1.164   2.601
   22SOL     OW  200   3.843   2.089   1.514
   22SOL    HW1  201   3.783   2.015   1.503
   22SOL    HW2  202   3.829   2.117   1.604
   23SOL     OW  203   3.856   3.674   3.222
   23SOL    HW1  204   3.816   3.629   3.148
   23SOL    HW2  205   3.793   3.740   3.249
   24SOL     OW  206   3.244   1.714   1.019
   24SOL    HW1  207   3.181   1.783   1.038
   24SOL    HW2  208   3.238   1.655   1.094
   25SOL     OW  209   3.053   0.874   3.494
   25SOL    HW1  210   3.078   0.951   3.545
   25SOL    HW2  211   3.135   0.831   3.472
   26SOL     OW  212   1.634   2.002   1.895
   26SOL    HW1  213   1.661   1.927   1.842
   26SOL    HW2  214   1.663   1.981   1.984
   27SOL     OW  215   1.387   3.154   0.055
   27SOL    HW1  216   1.361   3.129  -0.034
   27SOL    HW2  217   1.308   3.193   0.092
   28SOL     OW  218   1.750   2.468   3.608
   28SOL    HW1  219   1.755   2.434   3.519
   28SOL    HW2  220   1.825   2.430   3.654
   29SOL     OW  221   1.746   2.664   0.452
   29SOL    HW1  222   1.681   2.627   0.392
   29SOL    HW2  223   1.771   2.747   0.412
   30SOL     OW  224   1.626   0.921   2.355
   30SOL    HW1  225   1.604   0.999   2.407
   30SOL    HW2  226   1.604   0.847   2.411
   31SOL     OW  227   0.055   1.668   0.104
   31SOL    HW1  228  -0.032   1.651   0.068
   31SOL    HW2  229   0.056   1.620   0.187
   32SOL     OW  230   2.408   3.748   2.809
   32SOL    HW1  231   2.488   3.748   2.756
   32SOL    HW2  232   2.338   3.761   2.746
   33SOL     OW  233   2.132   3.521   2.057
   33SOL    HW1  234   2.199   3.454   2.050
   33SOL    HW2  235   2.143   3.575   1.979
   34SOL     OW  236   1.319   3.845   0.381
   34SOL    HW1  237   1.384   3.815   0.444
   34SOL    HW2  238   1.269   3.766   0.359
   35SOL     OW  239   1.606   1.231   3.865
   35SOL    HW1  240   1.523   1.194   3.896
   35SOL    HW2  241   1.612   1.315   3.910
   36SOL     OW  242   1.977   0.118   2.732
   36SOL    HW1  243   1.976   0.128   2.827
   36SOL    HW2  244   1.961   0.025   2.717
   37SOL     OW  245   0.747   0.738   0.811
   37SOL    HW1  246   0.687   0.801   0.771
   37SOL    HW2  247   0.822   0.735   0.751
   38SOL     OW  248   0.562   0.092   1.285
   38SOL    HW1  249   0.648   0.128   1.306
   38SOL    HW2  250   0.552   0.018   1.345
   39SOL     OW  251   3.071   1.541   1.603
   39SOL    HW1  252   2.984   1.575   1.627
   39SOL    HW2  253   3.064   1.524   1.509
   40SOL     OW  254   2.423   0.704   0.994
   40SOL    HW1  255   2.360   0.636   1.018
   40SOL    HW2  256   2.395   0.781   1.043
   41SOL     OW  257   3.591   3.519   0.468
   41SOL    HW1  258   3.612   3.506   0.375
   41SOL    HW2  259   3.668   3.488   0.515
   42SOL     OW  260   3.384   0.270   1.887
   42SOL    HW1  261   3.290   0.285   1.891
   42SOL    HW2  262   3.423   0.356   1.900
   43SOL     OW  263   1.779   2.263   2.273
   43SOL    HW1  264   1.791   2.358   2.276
   43SOL    HW2  265   1.828   2.235   2.196
   44SOL     OW  266   0.760   0.252   2.346
   44SOL    HW1  267   0.830   0.260   2.411
   44SOL    HW2  268   0.807   0.250   2.262
   45SOL     OW  269   1.154   3.535   2.465
   45SOL    HW1  270   1.247   3.547   2.446
   45SOL    HW2  271   1.143   3.570   2.553
   46SOL     OW  272   0.218   2.569  -0.028
   46SOL    HW1  273   0.255   2.481  -0.012
   46SOL    HW2  274   0.229   2.614   0.055
   47SOL     OW  275   2.640   2.160   0.715
   47SOL    HW1  276   2.643   2.108   0.635
   47SOL    HW2  277   2.693   2.110   0.778
   48SOL     OW  278   1.295   2.993   2.900
   48SOL    HW1  279   1.310   3.019   2.809
   48SOL    HW2  280   1.355   2.921   2.915
   49SOL     OW  281   2.159   1.506   1.836
   49SOL    HW1  282   2.068   1.477   1.824
   49SOL    HW2  283   2.186   1.537   1.750
   50SOL     OW  284   1.224   3.063   3.778
   50SOL    HW1  285   1.275   3.018   3.710
   50SOL    HW2  286   1.163   3.118   3.729
   51SOL     OW  287   0.171   0.479   1.317
   51SOL    HW1  288   0.153   0.563   1.360
   51SOL    HW2  289   0.088   0.432   1.321
   52SOL     OW  290   3.577   2.831   2.097
   52SOL    HW1  291   3.510   2.776   2.057
   52SOL    HW2  292   3.625   2.869   2.023
   53SOL     OW  293   0.979   3.324   3.885
   53SOL    HW1  294   1.060   3.312   3.934
   53SOL    HW2  295   0.958   3.417   3.895
   54SOL     OW  296   1.723   3.421   0.921
   54SOL    HW1  297   1.762   3.415   1.009
   54SOL    HW2  298   1.773   3.359   0.869
   55SOL     OW  299   3.566   3.586   2.702
   55SOL    HW1  300   3.501   3.543   2.647
   55SOL    HW2  301   3.524   3.594   2.788
   56SOL     OW  302   3.815   1.064   1.565
   56SOL    HW1  303   3.822   1.004   1.491
   56SOL    HW2  304   3.871   1.138   1.541
   57SOL     OW  305   2.291   3.127   1.146
   57SOL    HW1  306   2.228   3.188   1.185
   57SOL    HW2  307   2.377   3.161   1.170
   58SOL     OW  308   2.803   1.500   2.678
   58SOL    HW1  309   2.869   1.466   2.617
   58SOL    HW2  310   2.795   1.432   2.745
   59SOL     OW  311   3.103   3.134   3.633
   59SOL    HW1  312   3.131   3.201   3.571
   59SOL    HW2  313   3.150   3.055   3.606
   60SOL     OW  314   2.511   0.853   3.818
   60SOL    HW1  315   2.518   0.856   3.723
   60SOL    HW2  316   2.461   0.931   3.841
   61SOL     OW  317   0.911   2.350   1.530
   61SOL    HW1  318   0.847   2.398   1.477
   61SOL    HW2  319   0.858   2.305   1.596
   62SOL     OW  320   3.613   3.173   3.844
   62SOL    HW1  321   3.612   3.140   3.754
   62SOL    HW2  322   3.621   3.268   3.835
   63SOL     OW  323   2.527   1.540   0.387
   63SOL    HW1  324   2.477   1.495   0.319
   63SOL    HW2  325   2.464   1.601   0.426
   64SOL     OW  326   1.625   0.807   2.096
   64SOL    HW1  327   1.662   0.881   2.047
   64SOL    HW2  328   1.626   0.835   2.187
   65SOL     OW  329   3.672   0.850   1.360
   65SOL    HW1  330   3.581   0.852   1.389
   65SOL    HW2  331   3.715   0.789   1.420
   66SOL     OW  332   3.388   2.276  -0.017
   66SOL    HW1  333   3.307   2.243   0.022
   66SOL    HW2  334   3.447   2.288   0.057
   67SOL     OW  335   0.736   2.808   3.627
   67SOL    HW1  336   0.762   2.787   3.537
   67SOL    HW2  337   0.740   2.724   3.674
   68SOL     OW  338   2.906   2.959   1.778
   68SOL    HW1  339   2.972   2.900   1.740
   68SOL    HW2  340   2.902   3.033   1.718
   69SOL     OW  341   1.525   2.589   3.602
   69SOL    HW1  342   1.525   2.591   3.506
   69SOL    HW2  343   1.616   2.570   3.625
   70SOL     OW  344   2.671   0.358   2.490
   70SOL    HW1  345   2.658   0.337   2.582
   70SOL    HW2  346   2.745   0.304   2.463
   71SOL     OW  347   1.751   2.016   2.645
   71SOL    HW1  348   1.681   2.062   2.599
   71SOL    HW2  349   1.808   1.983   2.576
   72SOL     OW  350   0.043   3.436   1.830
   72SOL    HW1  351   0.031   3.435   1.925
   72SOL    HW2  352   0.053   3.344   1.806
   73SOL     OW  353   3.210   3.184   2.561
   73SOL    HW1  354   3.129   3.163   2.607
   73SOL    HW2  355   3.206   3.133   2.480
   74SOL     OW  356   1.661   3.851   1.763
   74SOL    HW1  357   1.606   3.807   1.828
   74SOL    HW2  358   1.633   3.942   1.766
   75SOL     OW  359   1.824   2.643   3.004
   75SOL    HW1  360   1.881   2.567   2.991
   75SOL    HW2  361   1.789   2.661   2.917
   76SOL     OW  362   1.466   1.543   3.841
   76SOL    HW1  363   1.529   1.522   3.910
   76SOL    HW2  364   1.501   1.622   3.800
   77SOL     OW  365   0.581   3.236   1.496
   77SOL    HW1  366   0.489   3.262   1.508
   77SOL    HW2  367   0.624   3.315   1.462
   78SOL     OW  368   1.233   0.440   1.051
   78SOL    HW1  369   1.274   0.485   1.125
   78SOL    HW2  370   1.307   0.404   1.001
   79SOL     OW  371   3.377   0.754   0.056
   79SOL    HW1  372   3.430   0.806  -0.004
   79SOL    HW2  373   3.388   0.664   0.025
   80SOL     OW  374   2.108   0.737   1.945
   80SOL    HW1  375   2.078   0.772   1.862
   80SOL    HW2  376   2.204   0.732   1.936
   81SOL     OW  377   2.200   0.073   3.039
   81SOL    HW1  378   2.262   0.004   3.016
   81SOL    HW2  379   2.249   0.130   3.098
   82SOL     OW  380   0.962   2.021   1.638
   82SOL    HW1  381   1.049   2.052   1.613
   82SOL    HW2  382   0.915   2.010   1.556
   83SOL     OW  383   1.521   1.741   3.320
   83SOL    HW1  384   1.574   1.772   3.247
   83SOL    HW2  385   1.508   1.648   3.304
   84SOL     OW  386   1.952   3.558   2.747
   84SOL    HW1  387   1.935   3.465   2.728
   84SOL    HW2  388   2.009   3.587   2.676
   85SOL     OW  389   3.761   0.601   0.922
   85SOL    HW1  390   3.725   0.679   0.966
   85SOL    HW2  391   3.753   0.531   0.987
   86SOL     OW  392   1.719   1.573   3.662
   86SOL    HW1  393   1.778   1.616   3.600
   86SOL    HW2  394   1.745   1.481   3.661
   87SOL     OW  395   1.907   3.554   3.820
   87SOL    HW1  396   1.902   3.530   3.913
   87SOL    HW2  397   1.916   3.470   3.774
   88SOL     OW  398   1.413   3.382   0.614
   88SOL    HW1  399   1.323   3.377   0.582
   88SOL    HW2  400   1.463   3.413   0.539
   89SOL     OW  401   0.477   0.617   1.074
   89SOL    HW1  402   0.547   0.679   1.054
   89SOL    HW2  403   0.419   0.665   1.133
   90SOL     OW  404   1.919   1.047   2.256
   90SOL    HW1  405   1.926   1.013   2.345
   90SOL    HW2  406   1.875   0.977   2.207
   91SOL     OW  407   3.297   1.885   3.850
   91SOL    HW1  408   3.286   1.792   3.867
   91SOL    HW2  409   3.298   1.892   3.755
   92SOL     OW  410   1.478   3.482   3.206
   92SOL    HW1  411   1.572   3.498   3.204
   92SOL    HW2  412   1.454   3.491   3.298
   93SOL     OW  413   2.435   1.795   1.898
   93SOL    HW1  414   2.423   1.869   1.839
   93SOL    HW2  415   2.527   1.800   1.924
   94SOL     OW  416   2.647   1.921   0.500
   94SOL    HW1  417   2.590   1.990   0.465
   94SOL    HW2  418   2.680   1.875   0.423
   95SOL     OW  419   3.634   0.022   2.687
   95SOL    HW1  420   3.572   0.001   2.617
   95SOL    HW2  421   3.587   0.085   2.742
   96SOL     OW  422   2.393   2.421   3.524
   96SOL    HW1  423   2.469   2.362   3.516
   96SOL    HW2  424   2.351   2.395   3.606
   97SOL     OW  425   2.010   3.913   1.460
   97SOL    HW1  426   1.949   3.898   1.388
   97SOL    HW2  427   2.056   3.993   1.436
   98SOL     OW  428   0.016   3.054   3.153
   98SOL    HW1  429  -0.039   2.986   3.192
   98SOL    HW2  430   0.054   3.100   3.228
   99SOL     OW  431   1.180   2.202   1.876
   99SOL    HW1  432   1.161   2.214   1.783
   99SOL    HW2  433   1.242   2.272   1.897
  100SOL     OW  434   2.568   3.626   3.383
  100SOL    HW1  435   2.595   3.542   3.344
  100SOL    HW2  436   2.640   3.648   3.442
  101SOL     OW  437   3.522   1.372   2.958
  101SOL    HW1  438   3.611   1.384   2.925
  101SOL    HW2  439   3.529   1.387   3.052
  102SOL     OW  440   0.756   0.010   2.086
  102SOL    HW1  441   0.729   0.061   2.010
  102SOL    HW2  442   0.838   0.050   2.115
  103SOL     OW  443   2.948   1.944   1.763
  103SOL    HW1  444   2.993   1.958   1.847
  103SOL    HW2  445   3.019   1.923   1.702
  104SOL     OW  446   3.272   3.249   2.113
  104SOL    HW1  447   3.365   3.230   2.125
  104SOL    HW2  448   3.257   3.241   2.019
  105SOL     OW  449   2.216   0.226   3.925
  105SOL    HW1  450   2.251   0.136   3.931
  105SOL    HW2  451   2.202   0.239   3.831
  106SOL     OW  452   3.835   3.028   1.451
  106SOL    HW1  453   3.780   2.954   1.475
  106SOL    HW2  454   3.806   3.052   1.363
  107SOL     OW  455   3.402   2.536   0.689
  107SOL    HW1  456   3.350   2.488   0.754
  107SOL    HW2  457   3.345   2.608   0.662
  108SOL     OW  458   3.291   3.498   2.232
  108SOL    HW1  459   3.359   3.554   2.197
  108SOL    HW2  460   3.306   3.413   2.190
  109SOL     OW  461   2.435   2.782   0.632
  109SOL    HW1  462   2.450   2.760   0.540
  109SOL    HW2  463   2.393   2.704   0.668
  110SOL     OW  464   0.150   0.924   1.586
  110SOL    HW1  465   0.189   0.980   1.654
  110SOL    HW2  466   0.157   0.975   1.506
  111SOL     OW  467   1.296   0.245   3.050
  111SOL    HW1  468   1.271   0.234   2.958
  111SOL    HW2  469   1.392   0.240   3.050
  112SOL     OW  470   1.470   3.543   3.491
  112SOL    HW1  471   1.375   3.542   3.501
  112SOL    HW2  472   1.503   3.575   3.575
  113SOL     OW  473   2.780   1.714   3.970
  113SOL    HW1  474   2.751   1.800   3.938
  113SOL    HW2  475   2.790   1.662   3.891
  114SOL     OW  476   3.844   1.948   3.520
  114SOL    HW1  477   3.816   1.988   3.602
  114SOL    HW2  478   3.899   2.015   3.479
  115SOL     OW  479   0.341   2.985   2.160
  115SOL    HW1  480   0.415   3.043   2.174
  115SOL    HW2  481   0.374   2.916   2.102
  116SOL     OW  482   2.504   1.046   1.309
  116SOL    HW1  483   2.468   0.968   1.267
  116SOL    HW2  484   2.445   1.063   1.383
  117SOL     OW  485   2.965   2.971   2.637
  117SOL    HW1  486   2.901   2.992   2.706
  117SOL    HW2  487   2.923   3.000   2.556
  118SOL     OW  488   0.875   2.080   1.378
  118SOL    HW1  489   0.901   2.167   1.349
  118SOL    HW2  490   0.918   2.020   1.316
  119SOL     OW  491   2.762   0.334   0.114
  119SOL    HW1  492   2.692   0.374   0.167
  119SOL    HW2  493   2.833   0.398   0.118
  120SOL     OW  494   2.181   2.074   0.378
  120SOL    HW1  495   2.149   2.057   0.466
  120SOL    HW2  496   2.239   2.000   0.359
  121SOL     OW  497   0.969   1.989   0.127
  121SOL    HW1  498   1.047   1.934   0.120
  121SOL    HW2  499   0.984   2.060   0.065
  122SOL     OW  500   1.503   1.897   0.291
  122SOL    HW1  501   1.455   1.814   0.293
  122SOL    HW2  502   1.496   1.926   0.200
  123SOL     OW  503   0.439   3.734   0.337
  123SOL    HW1  504   0.425   3.690   0.421
  123SOL    HW2  505   0.351   3.756   0.307
  124SOL     OW  506   3.537   2.895   1.019
  124SOL    HW1  507   3.489   2.828   1.068
  124SOL    HW2  508   3.629   2.869   1.026
  125SOL     OW  509   3.412   0.966   1.703
  125SOL    HW1  510   3.422   0.960   1.798
  125SOL    HW2  511   3.423   1.058   1.682
  126SOL     OW  512   1.125   2.612   0.822
  126SOL    HW1  513   1.194   2.550   0.848
  126SOL    HW2  514   1.127   2.611   0.727
  127SOL     OW  515   2.467   2.583   2.066
  127SOL    HW1  516   2.411   2.637   2.010
  127SOL    HW2  517   2.441   2.493   2.046
  128SOL     OW  518   2.017   0.876   3.585
  128SOL    HW1  519   2.049   0.804   3.531
  128SOL    HW2  520   2.080   0.883   3.656
  129SOL     OW  521   1.190   2.503   1.227
  129SOL    HW1  522   1.255   2.572   1.211
  129SOL    HW2  523   1.107   2.541   1.197
  130SOL     OW  524   0.003   2.587   0.502
  130SOL    HW1  525  -0.044   2.661   0.463
  130SOL    HW2  526   0.090   2.623   0.523
  131SOL     OW  527   2.280   1.697   0.489
  131SOL    HW1  528   2.197   1.738   0.464
  131SOL    HW2  529   2.320   1.758   0.551
  132SOL     OW  530   0.834   3.205   2.231
  132SOL    HW1  531   0.893   3.156   2.174
  132SOL    HW2  532   0.888   3.273   2.270
  133SOL     OW  533   2.683   2.477   1.938
  133SOL    HW1  534   2.607   2.510   1.986
  133SOL    HW2  535   2.712   2.552   1.886
  134SOL     OW  536   2.008   1.395   0.685
  134SOL    HW1  537   1.978   1.308   0.658
  134SOL    HW2  538   1.936   1.453   0.663
  135SOL     OW  539   0.133   3.037   0.932
  135SOL    HW1  540   0.164   2.960   0.883
  135SOL    HW2  541   0.065   3.003   0.990
  136SOL     OW  542   3.783   3.781   2.057
  136SOL    HW1  543   3.785   3.876   2.047
  136SOL    HW2  544   3.872   3.753   2.034
  137SOL     OW  545   2.390   0.035   3.559
  137SOL    HW1  546   2.306   0.073   3.582
  137SOL    HW2  547   2.383   0.015   3.465
  138SOL     OW  548   0.668   1.610   3.645
  138SOL    HW1  549   0.624   1.680   3.692
  138SOL    HW2  550   0.648   1.627   3.553
  139SOL     OW  551   3.077   0.934   2.058
  139SOL    HW1  552   3.094   0.853   2.106
  139SOL    HW2  553   3.138   0.932   1.985
  140SOL     OW  554   2.335   3.118   3.905
  140SOL    HW1  555   2.267   3.157   3.850
  140SOL    HW2  556   2.394   3.190   3.926
  141SOL     OW  557   1.065   2.797   0.305
  141SOL    HW1  558   0.979   2.833   0.328
  141SOL    HW2  559   1.089   2.842   0.224
  142SOL     OW  560   0.550   1.924   2.403
  142SOL    HW1  561   0.609   1.882   2.465
  142SOL    HW2  562   0.539   2.013   2.437
  143SOL     OW  563   3.753   3.520   3.010
  143SOL    HW1  564   3.778   3.433   3.042
  143SOL    HW2  565   3.685   3.503   2.945
  144SOL     OW  566   1.916   0.339   0.197
  144SOL    HW1  567   1.983   0.387   0.148
  144SOL    HW2  568   1.875   0.282   0.132
  145SOL     OW  569   1.106   2.353   0.732
  145SOL    HW1  570   1.161   2.380   0.659
  145SOL    HW2  571   1.019   2.388   0.711
  146SOL     OW  572   3.009   3.889   2.503
  146SOL    HW1  573   3.083   3.902   2.443
  146SOL    HW2  574   3.031   3.809   2.551
  147SOL     OW  575   1.178   3.231   2.923
  147SOL    HW1  576   1.225   3.148   2.926
  147SOL    HW2  577   1.190   3.269   3.010
  148SOL     OW  578   0.898   2.170   3.279
  148SOL    HW1  579   0.929   2.126   3.358
  148SOL    HW2  580   0.898   2.102   3.212
  149SOL     OW  581   1.301   3.007   3.184
  149SOL    HW1  582   1.208   2.981   3.186
  149SOL    HW2  583   1.321   3.016   3.091
  150SOL     OW  584   0.133   0.166   2.899
  150SOL    HW1  585   0.040   0.175   2.877
  150SOL    HW2  586   0.163   0.093   2.845
  151SOL     OW  587   1.937   2.993   1.911
  151SOL    HW1  588   1.977   2.931   1.971
  151SOL    HW2  589   1.938   3.077   1.958
  152SOL     OW  590   0.050   0.371   0.883
  152SOL    HW1  591   0.061   0.397   0.792
  152SOL    HW2  592   0.067   0.452   0.933
  153SOL     OW  593   3.314   2.249   1.129
  153SOL    HW1  594   3.309   2.297   1.212
  153SOL    HW2  595   3.406   2.257   1.103
  154SOL     OW  596   0.763   0.674   0.242
  154SOL    HW1  597   0.858   0.676   0.250
  154SOL    HW2  598   0.746   0.640   0.155
  155SOL     OW  599   0.605   1.728   1.373
  155SOL    HW1  600   0.698   1.705   1.384
  155SOL    HW2  601   0.573   1.739   1.462
  156SOL     OW  602   3.568   1.667   3.024
  156SOL    HW1  603   3.573   1.732   2.955
  156SOL    HW2  604   3.659   1.641   3.039
  157SOL     OW  605   0.859   2.816   2.220
  157SOL    HW1  606   0.765   2.836   2.220
  157SOL    HW2  607   0.893   2.857   2.141
  158SOL     OW  608   3.752   1.000   1.826
  158SOL    HW1  609   3.764   1.040   1.740
  158SOL    HW2  610   3.658   0.986   1.833
  159SOL     OW  611   0.733   2.461   2.819
  159SOL    HW1  612   0.668   2.391   2.807
  159SOL    HW2  613   0.683   2.542   2.812
  160SOL     OW  614   1.051   1.802   2.187
  160SOL    HW1  615   1.012   1.722   2.221
  160SOL    HW2  616   1.051   1.791   2.092
  161SOL     OW  617   2.860   0.789   0.989
  161SOL    HW1  618   2.816   0.728   0.929
  161SOL    HW2  619   2.940   0.743   1.015
  162SOL     OW  620   0.554   1.233   0.560
  162SOL    HW1  621   0.527   1.166   0.624
  162SOL    HW2  622   0.648   1.222   0.552
  163SOL     OW  623   2.421   0.732   2.712
  163SOL    HW1  624   2.408   0.716   2.619
  163SOL    HW2  625   2.516   0.738   2.722
  164SOL     OW  626   2.372   3.564   1.220
  164SOL    HW1  627   2.459   3.579   1.258
  164SOL    HW2  628   2.389   3.542   1.128
  165SOL     OW  629   3.103   3.606   1.627
  165SOL    HW1  630   3.161   3.565   1.562
  165SOL    HW2  631   3.162   3.631   1.698
  166SOL     OW  632   2.537   0.721   1.885
  166SOL    HW1  633   2.499   0.740   1.971
  166SOL    HW2  634   2.541   0.806   1.841
  167SOL     OW  635   2.665   3.409   1.968
  167SOL    HW1  636   2.704   3.454   1.893
  167SOL    HW2  637   2.601   3.471   2.002
  168SOL     OW  638   2.623   1.275   3.288
  168SOL    HW1  639   2.631   1.233   3.202
  168SOL    HW2  640   2.587   1.362   3.269
  169SOL     OW  641   2.255   2.230   1.568
  169SOL    HW1  642   2.290   2.182   1.492
  169SOL    HW2  643   2.160   2.222   1.559
  170SOL     OW  644   0.530   0.711   2.568
  170SOL    HW1  645   0.530   0.618   2.542
  170SOL    HW2  646   0.450   0.721   2.619
  171SOL     OW  647   2.205   3.702   1.458
  171SOL    HW1  648   2.176   3.655   1.536
  171SOL    HW2  649   2.146   3.776   1.450
  172SOL     OW  650   2.989   3.071   1.343
  172SOL    HW1  651   2.975   3.139   1.276
  172SOL    HW2  652   3.084   3.058   1.344
  173SOL     OW  653   1.111   0.820   3.193
  173SOL    HW1  654   1.052   0.842   3.265
  173SOL    HW2  655   1.066   0.851   3.115
  174SOL     OW  656   1.981   0.599   3.826
  174SOL    HW1  657   2.027   0.527   3.782
  174SOL    HW2  658   1.984   0.577   3.919
  175SOL     OW  659   0.527   2.973   2.723
  175SOL    HW1  660   0.449   3.009   2.766
  175SOL    HW2  661   0.574   3.050   2.690
  176SOL     OW  662   2.847   2.985   3.581
  176SOL    HW1  663   2.942   2.995   3.591
  176SOL    HW2  664   2.810   3.057   3.632
  177SOL     OW  665   1.738   0.696   3.741
  177SOL    HW1  666   1.828   0.665   3.747
  177SOL    HW2  667   1.745   0.792   3.738
  178SOL     OW  668   1.290   3.793   0.988
  178SOL    HW1  669   1.375   3.758   0.961
  178SOL    HW2  670   1.278   3.871   0.935
  179SOL     OW  671   2.374   3.796   1.766
  179SOL    HW1  672   2.331   3.712   1.753
  179SOL    HW2  673   2.417   3.788   1.851
  180SOL     OW  674   2.583   1.928   2.832
  180SOL    HW1  675   2.642   1.997   2.861
  180SOL    HW2  676   2.497   1.970   2.828
  181SOL     OW  677   3.089   0.533   3.693
  181SOL    HW1  678   3.184   0.542   3.694
  181SOL    HW2  679   3.068   0.509   3.603
  182SOL     OW  680   1.383   2.732   1.131
  182SOL    HW1  681   1.431   2.709   1.052
  182SOL    HW2  682   1.447   2.724   1.201
  183SOL     OW  683   0.333   3.552   2.041
  183SOL    HW1  684   0.391   3.557   2.117
  183SOL    HW2  685   0.391   3.530   1.968
  184SOL     OW  686   1.984   3.745   0.626
  184SOL    HW1  687   1.955   3.821   0.676
  184SOL    HW2  688   1.906   3.688   0.622
  185SOL     OW  689   2.229   3.903   3.935
  185SOL    HW1  690   2.311   3.858   3.954
  185SOL    HW2  691   2.161   3.837   3.951
  186SOL     OW  692   2.415   1.882   0.637
  186SOL    HW1  693   2.503   1.869   0.602
  186SOL    HW2  694   2.428   1.910   0.727
  187SOL     OW  695   3.388   3.424   1.090
  187SOL    HW1  696   3.354   3.482   1.021
  187SOL    HW2  697   3.480   3.411   1.066
  188SOL     OW  698   0.247   0.083   0.520
  188SOL    HW1  699   0.286   0.156   0.567
  188SOL    HW2  700   0.277   0.005   0.566
  189SOL     OW  701   1.841   1.141   0.140
  189SOL    HW1  702   1.911   1.205   0.131
  189SOL    HW2  703   1.840   1.095   0.056
  190SOL     OW  704   2.590   1.016   3.347
  190SOL    HW1  705   2.526   0.976   3.287
  190SOL    HW2  706   2.586   1.110   3.326
  191SOL     OW  707   2.770   0.344   1.727
  191SOL    HW1  708   2.827   0.357   1.803
  191SOL    HW2  709   2.689   0.308   1.762
  192SOL     OW  710   1.130   2.887   0.060
  192SOL    HW1  711   1.096   2.801   0.035
  192SOL    HW2  712   1.142   2.933  -0.023
  193SOL     OW  713   1.186   2.120   3.379
  193SOL    HW1  714   1.275   2.098   3.408
  193SOL    HW2  715   1.198   2.159   3.293
  194SOL     OW  716   2.834   3.187   1.640
  194SOL    HW1  717   2.795   3.151   1.560
  194SOL    HW2  718   2.762   3.191   1.703
  195SOL     OW  719   1.881   2.958   0.062
  195SOL    HW1  720   1.965   2.917   0.082
  195SOL    HW2  721   1.835   2.960   0.146
  196SOL     OW  722   2.904   2.475   3.699
  196SOL    HW1  723   2.940   2.557   3.733
  196SOL    HW2  724   2.881   2.425   3.777
  197SOL     OW  725   0.828   3.244   1.818
  197SOL    HW1  726   0.779   3.162   1.809
  197SOL    HW2  727   0.781   3.292   1.886
  198SOL     OW  728   0.336   0.855   0.039
  198SOL    HW1  729   0.401   0.807   0.092
  198SOL    HW2  730   0.261   0.796   0.033
  199SOL     OW  731   1.627   3.782   1.492
  199SOL    HW1  732   1.623   3.822   1.579
  199SOL    HW2  733   1.640   3.688   1.509
  200SOL     OW  734   3.644   1.837   1.474
  200SOL    HW1  735   3.737   1.818   1.465
  200SOL    HW2  736   3.623   1.811   1.564
  201SOL     OW  737   1.804   2.935   0.455
  201SOL    HW1  738   1.820   2.891   0.539
  201SOL    HW2  739   1.721   2.981   0.468
  202SOL     OW  740   3.445   1.314   1.430
  202SOL    HW1  741   3.403   1.400   1.434
  202SOL    HW2  742   3.461   1.291   1.521
  203SOL     OW  743   3.130   1.353   3.464
  203SOL    HW1  744   3.113   1.348   3.370
  203SOL    HW2  745   3.210   1.405   3.472
  204SOL     OW  746   0.973   3.217   1.565
  204SOL    HW1  747   0.921   3.244   1.641
  204SOL    HW2  748   1.063   3.215   1.597
  205SOL     OW  749   2.292   3.675   3.373
  205SOL    HW1  750   2.387   3.670   3.362
  205SOL    HW2  751   2.261   3.719   3.294
  206SOL     OW  752   2.938   0.140   0.016
  206SOL    HW1  753   2.929   0.137   0.111
  206SOL    HW2  754   2.890   0.219  -0.010
  207SOL     OW  755   1.054   2.948   3.139
  207SOL    HW1  756   1.013   3.031   3.113
  207SOL    HW2  757   1.019   2.884   3.078
  208SOL     OW  758   1.605   2.900   3.661
  208SOL    HW1  759   1.596   2.944   3.576
  208SOL    HW2  760   1.518   2.866   3.680
  209SOL     OW  761   0.705   1.855   1.855
  209SOL    HW1  762   0.654   1.857   1.936
  209SOL    HW2  763   0.795   1.840   1.884
  210SOL     OW  764   3.943   2.326   1.954
  210SOL    HW1  765   3.933   2.339   2.048
  210SOL    HW2  766   3.892   2.396   1.914
  211SOL     OW  767   2.708   2.328   2.234
  211SOL    HW1  768   2.764   2.283   2.171
  211SOL    HW2  769   2.671   2.258   2.287
  212SOL     OW  770   0.920   0.463   0.464
  212SOL    HW1  771   0.966   0.394   0.512
  212SOL    HW2  772   0.863   0.417   0.404
  213SOL     OW  773   0.395   1.332   0.365
  213SOL    HW1  774   0.376   1.246   0.328
  213SOL    HW2  775   0.452   1.315   0.440
  214SOL     OW  776   1.925   0.019   3.006
  214SOL    HW1  777   1.955   0.016   3.097
  214SOL    HW2  778   1.995  -0.025   2.957
  215SOL     OW  779   0.398   3.774   1.149
  215SOL    HW1  780   0.437   3.844   1.202
  215SOL    HW2  781   0.395   3.809   1.060
  216SOL     OW  782   0.822   2.702   3.394
  216SOL    HW1  783   0.803   2.611   3.419
  216SOL    HW2  784   0.756   2.722   3.327
  217SOL     OW  785   2.784   1.804   0.281
  217SOL    HW1  786   2.716   1.780   0.219
  217SOL    HW2  787   2.801   1.724   0.330
  218SOL     OW  788   1.707   2.172   3.080
  218SOL    HW1  789   1.751   2.093   3.049
  218SOL    HW2  790   1.625   2.140   3.117
  219SOL     OW  791   2.949   1.739   3.224
  219SOL    HW1  792   2.910   1.697   3.147
  219SOL    HW2  793   3.023   1.683   3.247
  220SOL     OW  794   2.288   1.965   2.408
  220SOL    HW1  795   2.312   1.888   2.356
  220SOL    HW2  796   2.240   1.930   2.483
  221SOL     OW  797   2.534   1.677   1.545
  221SOL    HW1  798   2.582   1.595   1.530
  221SOL    HW2  799   2.460   1.652   1.599
  222SOL     OW  800   3.288   3.185   0.337
  222SOL    HW1  801   3.374   3.174   0.377
  222SOL    HW2  802   3.304   3.186   0.243
  223SOL     OW  803   3.936   0.634   0.122
  223SOL    HW1  804   4.022   0.591   0.120
  223SOL    HW2  805   3.908   0.634   0.030
  224SOL     OW  806   0.475   2.145   0.671
  224SOL    HW1  807   0.424   2.069   0.703
  224SOL    HW2  808   0.540   2.160   0.740
  225SOL     OW  809   3.761   3.314   2.039
  225SOL    HW1  810   3.671   3.290   2.061
  225SOL    HW2  811   3.781   3.388   2.096
  226SOL     OW  812   3.642   1.627   3.649
  226SOL    HW1  813   3.681   1.604   3.733
  226SOL    HW2  814   3.636   1.543   3.602
  227SOL     OW  815   2.100   3.185   1.683
  227SOL    HW1  816   2.056   3.221   1.760
  227SOL    HW2  817   2.133   3.100   1.712
  228SOL     OW  818   1.876   2.278   0.090
  228SOL    HW1  819   1.884   2.208   0.155
  228SOL    HW2  820   1.920   2.353   0.131
  229SOL     OW  821   1.205   2.103   0.671
  229SOL    HW1  822   1.173   2.176   0.723
  229SOL    HW2  823   1.268   2.142   0.610
  230SOL     OW  824   1.393   1.093   2.821
  230SOL    HW1  825   1.419   1.087   2.913
  230SOL    HW2  826   1.473   1.118   2.775
  231SOL     OW  827   3.066   3.860   2.873
  231SOL    HW1  828   3.096   3.784   2.822
  231SOL    HW2  829   3.137   3.923   2.867
  232SOL     OW  830   1.945   1.459   0.231
  232SOL    HW1  831   1.990   1.497   0.156
  232SOL    HW2  832   2.015   1.439   0.293
  233SOL     OW  833   1.354   2.671   2.727
  233SOL    HW1  834   1.356   2.755   2.681
  233SOL    HW2  835   1.261   2.657   2.746
  234SOL     OW  836   3.609   2.289   0.992
  234SOL    HW1  837   3.650   2.215   0.946
  234SOL    HW2  838   3.637   2.279   1.083
  235SOL     OW  839   3.561   2.551   0.911
  235SOL    HW1  840   3.592   2.462   0.929
  235SOL    HW2  841   3.509   2.542   0.831
  236SOL     OW  842   0.265   2.196   1.925
  236SOL    HW1  843   0.214   2.266   1.965
  236SOL    HW2  844   0.348   2.238   1.900
  237SOL     OW  845   2.658   0.288   1.465
  237SOL    HW1  846   2.712   0.219   1.427
  237SOL    HW2  847   2.684   0.293   1.557
  238SOL     OW  848   1.468   1.507   1.995
  238SOL    HW1  849   1.436   1.471   1.912
  238SOL    HW2  850   1.408   1.472   2.061
  239SOL     OW  851   0.505   1.393   1.933
  239SOL    HW1  852   0.556   1.312   1.940
  239SOL    HW2  853   0.536   1.434   1.853
  240SOL     OW  854   0.970   2.361   2.312
  240SOL    HW1  855   0.973   2.299   2.239
  240SOL    HW2  856   1.057   2.355   2.352
  241SOL     OW  857   3.697   1.362   1.321
  241SOL    HW1  858   3.740   1.411   1.391
  241SOL    HW2  859   3.611   1.339   1.357
  242SOL     OW  860   1.029   1.941   3.495
  242SOL    HW1  861   1.093   1.992   3.445
  242SOL    HW2  862   1.077   1.909   3.571
  243SOL     OW  863   0.441   2.944   3.103
  243SOL    HW1  864   0.360   2.962   3.056
  243SOL    HW2  865   0.436   2.999   3.181
  244SOL     OW  866   2.105   0.993   1.663
  244SOL    HW1  867   2.084   0.899   1.657
  244SOL    HW2  868   2.179   0.997   1.723
  245SOL     OW  869   2.449   3.791   3.788
  245SOL    HW1  870   2.526   3.784   3.845
  245SOL    HW2  871   2.459   3.875   3.744
  246SOL     OW  872   1.924   3.481   3.304
  246SOL    HW1  873   1.963   3.398   3.331
  246SOL    HW2  874   1.830   3.463   3.300
  247SOL     OW  875   0.606   3.601   2.854
  247SOL    HW1  876   0.552   3.579   2.778
  247SOL    HW2  877   0.663   3.671   2.823
  248SOL     OW  878   0.409   3.931   0.920
  248SOL    HW1  879   0.372   3.887   0.844
  248SOL    HW2  880   0.338   3.987   0.952
  249SOL     OW  881   3.348   2.562   0.216
  249SOL    HW1  882   3.345   2.552   0.121
  249SOL    HW2  883   3.407   2.493   0.245
  250SOL     OW  884   3.950   0.090   0.639
  250SOL    HW1  885   3.900   0.171   0.636
  250SOL    HW2  886   4.011   0.097   0.565
  251SOL     OW  887   0.251   1.412   0.030
  251SOL    HW1  888   0.180   1.417   0.093
  251SOL    HW2  889   0.244   1.495  -0.019
  252SOL     OW  890   0.085   0.670   1.506
  252SOL    HW1  891  -0.010   0.677   1.499
  252SOL    HW2  892   0.111   0.747   1.556
  253SOL     OW  893   0.279   0.054   3.652
  253SOL    HW1  894   0.371   0.079   3.662
  253SOL    HW2  895   0.281  -0.031   3.608
  254SOL     OW  896   3.159   1.223   1.264
  254SOL    HW1  897   3.251   1.202   1.276
  254SOL    HW2  898   3.158   1.318   1.247
  255SOL     OW  899   2.161   3.064   3.208
  255SOL    HW1  900   2.155   3.136   3.271
  255SOL    HW2  901   2.192   2.990   3.260
  256SOL     OW  902   0.723   3.809   0.608
  256SOL    HW1  903   0.813   3.837   0.617
  256SOL    HW2  904   0.673   3.867   0.665
  257SOL     OW  905   0.651   3.114   3.549
  257SOL    HW1  906   0.725   3.053   3.547
  257SOL    HW2  907   0.587   3.073   3.607
  258SOL     OW  908   1.566   2.257   3.739
  258SOL    HW1  909   1.634   2.214   3.687
  258SOL    HW2  910   1.574   2.350   3.718
  259SOL     OW  911   2.727   2.422   0.693
  259SOL    HW1  912   2.690   2.334   0.701
  259SOL    HW2  913   2.690   2.470   0.767
  260SOL     OW  914   0.878   2.173   2.532
  260SOL    HW1  915   0.908   2.124   2.455
  260SOL    HW2  916   0.817   2.113   2.576
  261SOL     OW  917   3.528   2.370   0.503
  261SOL    HW1  918   3.621   2.386   0.518
  261SOL    HW2  919   3.483   2.415   0.574
  262SOL     OW  920   3.147   0.165   3.670
  262SOL    HW1  921   3.065   0.213   3.657
  262SOL    HW2  922   3.119   0.077   3.695
  263SOL     OW  923   3.586   3.741   0.696
  263SOL    HW1  924   3.508   3.688   0.678
  263SOL    HW2  925   3.599   3.731   0.790
  264SOL     OW  926   2.661   0.159   0.356
  264SOL    HW1  927   2.658   0.100   0.432
  264SOL    HW2  928   2.689   0.102   0.284
  265SOL     OW  929   0.548   1.873   0.405
  265SOL    HW1  930   0.525   1.940   0.340
  265SOL    HW2  931   0.530   1.915   0.490
  266SOL     OW  932   0.992   2.356   2.700
  266SOL    HW1  933   0.964   2.284   2.643
  266SOL    HW2  934   0.911   2.385   2.742
  267SOL     OW  935   0.908   3.560   1.910
  267SOL    HW1  936   0.951   3.485   1.949
  267SOL    HW2  937   0.827   3.571   1.961
  268SOL     OW  938   2.952   0.414   1.104
  268SOL    HW1  939   2.903   0.404   1.185
  268SOL    HW2  940   3.019   0.480   1.124
  269SOL     OW  941   3.734   2.835   1.642
  269SOL    HW1  942   3.812   2.792   1.677
  269SOL    HW2  943   3.669   2.766   1.635
  270SOL     OW  944   2.602   1.299   0.524
  270SOL    HW1  945   2.514   1.266   0.543
  270SOL    HW2  946   2.589   1.364   0.456
  271SOL     OW  947   3.109   3.746   0.176
  271SOL    HW1  948   3.015   3.759   0.185
  271SOL    HW2  949   3.126   3.664   0.222
  272SOL     OW  950   3.593   0.361   2.503
  272SOL    HW1  951   3.517   0.395   2.457
  272SOL    HW2  952   3.614   0.279   2.459
  273SOL     OW  953   0.734   2.428   0.223
  273SOL    HW1  954   0.761   2.339   0.197
  273SOL    HW2  955   0.782   2.485   0.162
  274SOL     OW  956   1.882   0.437   2.051
  274SOL    HW1  957   1.870   0.401   2.139
  274SOL    HW2  958   1.794   0.454   2.020
  275SOL     OW  959   3.215   1.934   3.224
  275SOL    HW1  960   3.176   1.888   3.298
  275SOL    HW2  961   3.294   1.883   3.203
  276SOL     OW  962   1.084   2.603   2.772
  276SOL    HW1  963   1.008   2.644   2.814
  276SOL    HW2  964   1.056   2.513   2.754
  277SOL     OW  965   0.841   3.335   0.190
  277SOL    HW1  966   0.867   3.292   0.109
  277SOL    HW2  967   0.790   3.411   0.162
  278SOL     OW  968   2.141   0.781   0.358
  278SOL    HW1  969   2.127   0.705   0.414
  278SOL    HW2  970   2.189   0.843   0.413
  279SOL     OW  971   1.177   0.265   1.615
  279SOL    HW1  972   1.169   0.209   1.692
  279SOL    HW2  973   1.250   0.227   1.566
  280SOL     OW  974   1.621   0.304   0.105
  280SOL    HW1  975   1.626   0.242   0.032
  280SOL    HW2  976   1.627   0.249   0.183
  281SOL     OW  977   1.039   1.489   3.142
  281SOL    HW1  978   1.100   1.513   3.212
  281SOL    HW2  979   1.021   1.396   3.157
  282SOL     OW  980   2.148   1.796   2.617
  282SOL    HW1  981   2.064   1.823   2.580
  282SOL    HW2  982   2.175   1.721   2.563
  283SOL     OW  983   0.029   1.350   3.011
  283SOL    HW1  984   0.029   1.353   3.107
  283SOL    HW2  985   0.109   1.396   2.986
  284SOL     OW  986   1.395   1.389   3.608
  284SOL    HW1  987   1.452   1.422   3.678
  284SOL    HW2  988   1.433   1.424   3.528
  285SOL     OW  989   0.893   0.185   1.130
  285SOL    HW1  990   0.881   0.091   1.145
  285SOL    HW2  991   0.971   0.207   1.180
  286SOL     OW  992   2.978   2.712   3.387
  286SOL    HW1  993   2.983   2.768   3.465
  286SOL    HW2  994   3.062   2.722   3.344
  287SOL     OW  995   2.727   3.876   2.437
  287SOL    HW1  996   2.821   3.862   2.447
  287SOL    HW2  997   2.712   3.873   2.343
  288SOL     OW  998   2.529   0.793   0.373
  288SOL    HW1  999   2.524   0.762   0.283
  288SOL    HW2 1000   2.619   0.822   0.384
  289SOL     OW 1001   0.875   2.061   0.630
  289SOL    HW1 1002   0.828   2.104   0.559
  289SOL    HW2 1003   0.951   2.021   0.588
  290SOL     OW 1004   3.188   1.605   2.919
  290SOL    HW1 1005   3.273   1.615   2.875
  290SOL    HW2 1006   3.199   1.653   3.002
  291SOL     OW 1007   0.089   1.483   0.320
  291SOL    HW1 1008   0.066   1.440   0.403
  291SOL    HW2 1009   0.181   1.459   0.306
  292SOL     OW 1010   3.719   3.324   0.636
  292SOL    HW1 1011   3.645   3.330   0.697
  292SOL    HW2 1012   3.791   3.291   0.689
  293SOL     OW 1013   3.892   1.531   2.496
  293SOL    HW1 1014   3.940   1.533   2.578
  293SOL    HW2 1015   3.938   1.593   2.439
  294SOL     OW 1016   3.707   2.460   3.672
  294SOL    HW1 1017   3.620   2.419   3.668
  294SOL    HW2 1018   3.693   2.540   3.724
  295SOL     OW 1019   2.649   3.687   0.006
  295SOL    HW1 1020   2.734   3.672   0.048
  295SOL    HW2 1021   2.585   3.675   0.076
  296SOL     OW 1022   2.059   1.239   3.931
  296SOL    HW1 1023   2.016   1.162   3.893
  296SOL    HW2 1024   2.150   1.212   3.943
  297SOL     OW 1025   3.019   1.488   3.181
  297SOL    HW1 1026   3.110   1.460   3.183
  297SOL    HW2 1027   2.971   1.412   3.148
  298SOL     OW 1028   0.464   0.457   0.858
  298SOL    HW1 1029   0.554   0.447   0.826
  298SOL    HW2 1030   0.469   0.529   0.922
  299SOL     OW 1031   3.284   2.146   2.501
  299SOL    HW1 1032   3.300   2.082   2.431
  299SOL    HW2 1033   3.265   2.228   2.455
  300SOL     OW 1034   1.641   3.528   0.108
  300SOL    HW1 1035   1.725   3.483   0.110
  300SOL    HW2 1036   1.636   3.566   0.021
  301SOL     OW 1037   2.134   1.627   2.993
  301SOL    HW1 1038   2.059   1.592   3.041
  301SOL    HW2 1039   2.200   1.558   2.998
  302SOL     OW 1040   0.717   0.385   0.736
  302SOL    HW1 1041   0.783   0.322   0.706
  302SOL    HW2 1042   0.756   0.425   0.814
  303SOL     OW 1043   1.638   0.507   1.977
  303SOL    HW1 1044   1.611   0.597   1.999
  303SOL    HW2 1045   1.571   0.452   2.016
  304SOL     OW 1046   3.119   0.177   1.945
  304SOL    HW1 1047   3.062   0.254   1.953
  304SOL    HW2 1048   3.092   0.120   2.017
  305SOL     OW 1049   0.089   1.722   3.095
  305SOL    HW1 1050   0.095   1.684   3.183
  305SOL    HW2 1051   0.069   1.814   3.111
  306SOL     OW 1052   3.429   2.022   1.396
  306SOL    HW1 1053   3.479   1.995   1.319
  306SOL    HW2 1054   3.443   2.117   1.402
  307SOL     OW 1055   1.565   0.215   2.111
  307SOL    HW1 1056   1.502   0.248   2.047
  307SOL    HW2 1057   1.536   0.252   2.195
  308SOL     OW 1058   2.111   0.340   3.153
  308SOL    HW1 1059   2.088   0.254   3.118
  308SOL    HW2 1060   2.192   0.324   3.202
  309SOL     OW 1061   3.632   1.808   2.406
  309SOL    HW1 1062   3.666   1.766   2.327
  309SOL    HW2 1063   3.704   1.865   2.435
  310SOL     OW 1064   2.542   0.989   0.814
  310SOL    HW1 1065   2.561   0.896   0.821
  310SOL    HW2 1066   2.619   1.027   0.772
  311SOL     OW 1067   3.697   3.442   3.690
  311SOL    HW1 1068   3.765   3.476   3.631
  311SOL    HW2 1069   3.710   3.490   3.772
  312SOL     OW 1070   3.763   0.618   1.478
  312SOL    HW1 1071   3.801   0.537   1.443
  312SOL    HW2 1072   3.679   0.590   1.515
  313SOL     OW 1073   3.916   0.985   3.685
  313SOL    HW1 1074   3.941   1.073   3.655
  313SOL    HW2 1075   3.862   1.001   3.763
  314SOL     OW 1076   3.172   2.222   2.752
  314SOL    HW1 1077   3.206   2.204   2.664
  314SOL    HW2 1078   3.081   2.248   2.737
  315SOL     OW 1079   0.668   3.802   3.922
  315SOL    HW1 1080   0.594   3.807   3.982
  315SOL    HW2 1081   0.630   3.773   3.839
  316SOL     OW 1082   3.059   3.545   2.071
  316SOL    HW1 1083   3.058   3.487   1.995
  316SOL    HW2 1084   3.129   3.509   2.127
  317SOL     OW 1085   0.600   0.460   2.468
  317SOL    HW1 1086   0.539   0.490   2.400
  317SOL    HW2 1087   0.621   0.370   2.443
  318SOL     OW 1088   3.539   0.134   0.464
  318SOL    HW1 1089   3.450   0.165   0.483
  318SOL    HW2 1090   3.595   0.184   0.522
  319SOL     OW 1091   0.656   1.552   2.105
  319SOL    HW1 1092   0.675   1.640   2.074
  319SOL    HW2 1093   0.597   1.515   2.039
  320SOL     OW 1094   1.040   3.593   2.206
  320SOL    HW1 1095   1.075   3.590   2.295
  320SOL    HW2 1096   1.099   3.537   2.155
  321SOL     OW 1097   1.734   0.774   3.244
  321SOL    HW1 1098   1.658   0.829   3.226
  321SOL    HW2 1099   1.796   0.831   3.289
  322SOL     OW 1100   0.534   2.682   0.576
  322SOL    HW1 1101   0.508   2.624   0.505
  322SOL    HW2 1102   0.507   2.636   0.656
  323SOL     OW 1103   0.898   3.428   3.519
  323SOL    HW1 1104   0.911   3.516   3.483
  323SOL    HW2 1105   0.803   3.416   3.518
  324SOL     OW 1106   3.307   0.376   0.922
  324SOL    HW1 1107   3.317   0.422   1.005
  324SOL    HW2 1108   3.394   0.341   0.904
  325SOL     OW 1109   3.597   2.054   3.089
  325SOL    HW1 1110   3.682   2.096   3.102
  325SOL    HW2 1111   3.551   2.064   3.172
  326SOL     OW 1112   0.022   3.013   2.501
  326SOL    HW1 1113  -0.037   3.012   2.425
  326SOL    HW2 1114   0.107   3.037   2.465
  327SOL     OW 1115   3.448   0.829   3.159
  327SOL    HW1 1116   3.428   0.824   3.065
  327SOL    HW2 1117   3.542   0.813   3.164
  328SOL     OW 1118   2.266   3.406   1.703
  328SOL    HW1 1119   2.300   3.353   1.631
  328SOL    HW2 1120   2.277   3.350   1.780
  329SOL     OW 1121   1.929   2.246   2.054
  329SOL    HW1 1122   1.886   2.318   2.008
  329SOL    HW2 1123   2.013   2.235   2.008
  330SOL     OW 1124   0.001   1.347   3.303
  330SOL    HW1 1125   0.070   1.321   3.365
  330SOL    HW2 1126  -0.051   1.268   3.290
  331SOL     OW 1127   3.636   1.794   1.789
  331SOL    HW1 1128   3.618   1.880   1.826
  331SOL    HW2 1129   3.718   1.767   1.830
  332SOL     OW 1130   1.038   1.580   0.025
  332SOL    HW1 1131   1.066   1.665   0.059
  332SOL    HW2 1132   1.056   1.584  -0.069
  333SOL     OW 1133   1.938   2.895   1.154
  333SOL    HW1 1134   1.862   2.875   1.099
  333SOL    HW2 1135   1.978   2.809   1.171
  334SOL     OW 1136   2.151   2.616   0.371
  334SOL    HW1 1137   2.136   2.677   0.443
  334SOL    HW2 1138   2.123   2.531   0.404
  335SOL     OW 1139   2.412   2.159   0.881
  335SOL    HW1 1140   2.474   2.178   0.811
  335SOL    HW2 1141   2.467   2.143   0.958
  336SOL     OW 1142   3.248   0.089   2.850
  336SOL    HW1 1143   3.329   0.090   2.798
  336SOL    HW2 1144   3.275   0.119   2.937
  337SOL     OW 1145   2.474   3.626   0.206
  337SOL    HW1 1146   2.529   3.597   0.279
  337SOL    HW2 1147   2.385   3.612   0.236
  338SOL     OW 1148   1.672   1.596   2.359
  338SOL    HW1 1149   1.674   1.501   2.351
  338SOL    HW2 1150   1.602   1.624   2.300
  339SOL     OW 1151  -0.007   1.601   1.720
  339SOL    HW1 1152   0.011   1.512   1.750
  339SOL    HW2 1153   0.074   1.629   1.678
  340SOL     OW 1154   0.951   1.240   1.659
  340SOL    HW1 1155   0.988   1.172   1.715
  340SOL    HW2 1156   0.860   1.248   1.687
  341SOL     OW 1157   1.334   0.100   0.551
  341SOL    HW1 1158   1.294   0.045   0.483
  341SOL    HW2 1159   1.419   0.060   0.567
  342SOL     OW 1160   0.671   0.740   3.921
  342SOL    HW1 1161   0.634   0.828   3.914
  342SOL    HW2 1162   0.607   0.683   3.878
  343SOL     OW 1163   2.755   3.487   0.914
  343SOL    HW1 1164   2.697   3.562   0.899
  343SOL    HW2 1165   2.840   3.527   0.935
  344SOL     OW 1166   0.275   2.397   0.776
  344SOL    HW1 1167   0.283   2.345   0.696
  344SOL    HW2 1168   0.361   2.437   0.788
  345SOL     OW 1169   2.673   1.978   3.916
  345SOL    HW1 1170   2.724   1.967   3.835
  345SOL    HW2 1171   2.654   2.071   3.920
  346SOL     OW 1172   3.205   1.998   1.894
  346SOL    HW1 1173   3.279   2.032   1.844
  346SOL    HW2 1174   3.191   1.910   1.859
  347SOL     OW 1175   0.642   1.307   3.665
  347SOL    HW1 1176   0.558   1.295   3.710
  347SOL    HW2 1177   0.679   1.386   3.703
  348SOL     OW 1178   0.332   2.246   1.155
  348SOL    HW1 1179   0.321   2.151   1.145
  348SOL    HW2 1180   0.262   2.284   1.102
  349SOL     OW 1181   2.522   2.166   0.395
  349SOL    HW1 1182   2.530   2.259   0.418
  349SOL    HW2 1183   2.440   2.161   0.346
  350SOL     OW 1184   2.483   2.599   2.601
  350SOL    HW1 1185   2.409   2.656   2.579
  350SOL    HW2 1186   2.531   2.590   2.519
  351SOL     OW 1187   1.331   3.519   3.907
  351SOL    HW1 1188   1.305   3.462   3.980
  351SOL    HW2 1189   1.294   3.604   3.930
  352SOL     OW 1190   1.808   3.356   1.196
  352SOL    HW1 1191   1.798   3.445   1.232
  352SOL    HW2 1192   1.773   3.299   1.264
  353SOL     OW 1193   1.741   1.675   0.308
  353SOL    HW1 1194   1.785   1.592   0.328
  353SOL    HW2 1195   1.678   1.687   0.380
  354SOL     OW 1196   1.647   0.558   0.817
  354SOL    HW1 1197   1.681   0.572   0.906
  354SOL    HW2 1198   1.711   0.499   0.777
  355SOL     OW 1199   0.744   2.159   0.199
  355SOL    HW1 1200   0.785   2.073   0.210
  355SOL    HW2 1201   0.651   2.145   0.216
  356SOL     OW 1202   3.822   3.039   2.735
  356SOL    HW1 1203   3.882   3.105   2.770
  356SOL    HW2 1204   3.850   3.027   2.644
  357SOL     OW 1205   1.184   2.392   2.508
  357SOL    HW1 1206   1.254   2.413   2.569
  357SOL    HW2 1207   1.109   2.372   2.563
  358SOL     OW 1208   3.746   3.251   2.401
  358SOL    HW1 1209   3.668   3.199   2.421
  358SOL    HW2 1210   3.748   3.319   2.468
  359SOL     OW 1211   0.927   2.220   1.156
  359SOL    HW1 1212   0.947   2.167   1.079
  359SOL    HW2 1213   0.935   2.311   1.126
  360SOL     OW 1214   2.764   0.583   0.802
  360SOL    HW1 1215   2.848   0.538   0.814
  360SOL    HW2 1216   2.716   0.527   0.741
  361SOL     OW 1217   2.932   2.740   3.781
  361SOL    HW1 1218   3.023   2.768   3.781
  361SOL    HW2 1219   2.892   2.789   3.853
  362SOL     OW 1220   0.159   3.647   0.361
  362SOL    HW1 1221   0.144   3.737   0.390
  362SOL    HW2 1222   0.126   3.593   0.433
  363SOL     OW 1223   3.688   1.878   2.843
  363SOL    HW1 1224   3.775   1.915   2.861
  363SOL    HW2 1225   3.701   1.820   2.768
  364SOL     OW 1226   1.178   2.612   3.587
  364SOL    HW1 1227   1.137   2.676   3.529
  364SOL    HW2 1228   1.269   2.609   3.559
  365SOL     OW 1229   0.852   3.103   0.429
  365SOL    HW1 1230   0.792   3.049   0.482
  365SOL    HW2 1231   0.796   3.173   0.396
  366SOL     OW 1232   3.366   1.494   3.412
  366SOL    HW1 1233   3.403   1.582   3.409
  366SOL    HW2 1234   3.434   1.440   3.451
  367SOL     OW 1235   0.693   3.368   2.034
  367SOL    HW1 1236   0.649   3.440   2.079
  367SOL    HW2 1237   0.720   3.308   2.104
  368SOL     OW 1238   2.587   3.878   1.260
  368SOL    HW1 1239   2.541   3.839   1.335
  368SOL    HW2 1240   2.534   3.954   1.236
  369SOL     OW 1241   1.557   0.096   1.251
  369SOL    HW1 1242   1.543   0.125   1.161
  369SOL    HW2 1243   1.520   0.008   1.254
  370SOL     OW 1244   1.111   0.201   0.366
  370SOL    HW1 1245   1.177   0.204   0.297
  370SOL    HW2 1246   1.158   0.230   0.445
  371SOL     OW 1247   1.238   3.820   2.181
  371SOL    HW1 1248   1.186   3.769   2.120
  371SOL    HW2 1249   1.298   3.757   2.220
  372SOL     OW 1250   2.120   0.471   0.082
  372SOL    HW1 1251   2.159   0.555   0.058
  372SOL    HW2 1252   2.170   0.407   0.032
  373SOL     OW 1253   1.453   0.511   2.801
  373SOL    HW1 1254   1.405   0.586   2.836
  373SOL    HW2 1255   1.545   0.529   2.824
  374SOL     OW 1256   3.948   3.933   2.462
  374SOL    HW1 1257   3.978   3.953   2.373
  374SOL    HW2 1258   3.942   3.837   2.464
  375SOL     OW 1259   2.548   1.503   2.252
  375SOL    HW1 1260   2.560   1.420   2.297
  375SOL    HW2 1261   2.508   1.479   2.168
  376SOL     OW 1262   0.541   0.435   1.426
  376SOL    HW1 1263   0.511   0.469   1.342
  376SOL    HW2 1264   0.609   0.372   1.403
  377SOL     OW 1265   1.523   3.823   3.153
  377SOL    HW1 1266   1.518   3.778   3.069
  377SOL    HW2 1267   1.598   3.783   3.198
  378SOL     OW 1268   0.614   2.105   1.370
  378SOL    HW1 1269   0.562   2.035   1.331
  378SOL    HW2 1270   0.704   2.074   1.366
  379SOL     OW 1271   3.792   1.703   2.196
  379SOL    HW1 1272   3.812   1.725   2.105
  379SOL    HW2 1273   3.876   1.706   2.241
  380SOL     OW 1274   2.393   2.995   0.883
  380SOL    HW1 1275   2.409   3.070   0.940
  380SOL    HW2 1276   2.479   2.955   0.870
  381SOL     OW 1277   2.181   2.263   1.943
  381SOL    HW1 1278   2.230   2.280   2.023
  381SOL    HW2 1279   2.241   2.214   1.888
  382SOL     OW 1280   3.042   1.603   3.664
  382SOL    HW1 1281   2.989   1.618   3.586
  382SOL    HW2 1282   3.082   1.517   3.650
  383SOL     OW 1283   3.716   0.332   1.632
  383SOL    HW1 1284   3.635   0.342   1.581
  383SOL    HW2 1285   3.702   0.384   1.711
  384SOL     OW 1286   0.361   3.785   2.487
  384SOL    HW1 1287   0.279   3.746   2.455
  384SOL    HW2 1288   0.425   3.763   2.420
  385SOL     OW 1289   1.306   0.750   2.093
  385SOL    HW1 1290   1.229   0.716   2.139
  385SOL    HW2 1291   1.309   0.699   2.012
  386SOL     OW 1292   2.004   1.136   1.961
  386SOL    HW1 1293   2.092   1.149   1.927
  386SOL    HW2 1294   2.017   1.114   2.054
  387SOL     OW 1295   1.718   0.022   0.520
  387SOL    HW1 1296   1.801   0.005   0.477
  387SOL    HW2 1297   1.704   0.117   0.509
  388SOL     OW 1298   3.628   2.072   1.921
  388SOL    HW1 1299   3.545   2.112   1.896
  388SOL    HW2 1300   3.632   2.081   2.017
  389SOL     OW 1301   2.687   0.615   3.214
  389SOL    HW1 1302   2.739   0.673   3.269
  389SOL    HW2 1303   2.699   0.647   3.125
  390SOL     OW 1304   2.433   1.037   2.313
  390SOL    HW1 1305   2.456   1.020   2.222
  390SOL    HW2 1306   2.516   1.059   2.355
  391SOL     OW 1307   3.950   2.840   0.690
  391SOL    HW1 1308   3.889   2.909   0.713
  391SOL    HW2 1309   3.980   2.863   0.602
  392SOL     OW 1310   1.320   0.095   1.457
  392SOL    HW1 1311   1.333   0.021   1.516
  392SOL    HW2 1312   1.408   0.116   1.426
  393SOL     OW 1313   0.144   1.997   2.326
  393SOL    HW1 1314   0.235   2.022   2.313
  393SOL    HW2 1315   0.105   2.002   2.239
  394SOL     OW 1316   2.039   3.949   3.629
  394SOL    HW1 1317   1.961   3.896   3.647
  394SOL    HW2 1318   2.113   3.891   3.651
  395SOL     OW 1319   2.767   1.553   1.711
  395SOL    HW1 1320   2.755   1.528   1.619
  395SOL    HW2 1321   2.697   1.508   1.758
  396SOL     OW 1322   0.195   2.977   1.718
  396SOL    HW1 1323   0.277   2.972   1.766
  396SOL    HW2 1324   0.139   2.911   1.759
  397SOL     OW 1325   1.354   2.360   0.932
  397SOL    HW1 1326   1.259   2.358   0.929
  397SOL    HW2 1327   1.377   2.308   1.009
  398SOL     OW 1328   2.369   0.197   3.235
  398SOL    HW1 1329   2.397   0.112   3.269
  398SOL    HW2 1330   2.444   0.254   3.247
  399SOL     OW 1331   1.133   0.534   2.218
  399SOL    HW1 1332   1.107   0.442   2.218
  399SOL    HW2 1333   1.197   0.541   2.290
  400SOL     OW 1334   2.911   1.105   1.237
  400SOL    HW1 1335   3.000   1.138   1.253
  400SOL    HW2 1336   2.911   1.081   1.145
  401SOL     OW 1337   0.714   2.936   3.030
  401SOL    HW1 1338   0.624   2.969   3.033
  401SOL    HW2 1339   0.768   3.013   3.052
  402SOL     OW 1340   1.701   0.296   3.299
  402SOL    HW1 1341   1.705   0.380   3.345
  402SOL    HW2 1342   1.658   0.237   3.361
  403SOL     OW 1343   3.858   0.724   1.795
  403SOL    HW1 1344   3.807   0.698   1.718
  403SOL    HW2 1345   3.832   0.815   1.811
  404SOL     OW 1346   3.937   3.696   1.619
  404SOL    HW1 1347   3.940   3.710   1.714
  404SOL    HW2 1348   3.910   3.780   1.583
  405SOL     OW 1349   2.950   2.039   2.893
  405SOL    HW1 1350   2.890   2.113   2.900
  405SOL    HW2 1351   2.918   1.976   2.957
  406SOL     OW 1352   2.391   0.931   3.173
  406SOL    HW1 1353   2.450   0.921   3.098
  406SOL    HW2 1354   2.312   0.885   3.147
  407SOL     OW 1355   2.771   2.086   1.410
  407SOL    HW1 1356   2.726   2.013   1.452
  407SOL    HW2 1357   2.783   2.150   1.479
  408SOL     OW 1358   3.417   0.220   1.615
  408SOL    HW1 1359   3.426   0.248   1.706
  408SOL    HW2 1360   3.333   0.173   1.612
  409SOL     OW 1361   3.433   1.623   1.697
  409SOL    HW1 1362   3.522   1.639   1.730
  409SOL    HW2 1363   3.430   1.670   1.614
  410SOL     OW 1364   1.439   3.824   1.208
  410SOL    HW1 1365   1.416   3.764   1.280
  410SOL    HW2 1366   1.380   3.800   1.137
  411SOL     OW 1367   2.535   1.773   2.367
  411SOL    HW1 1368   2.569   1.694   2.325
  411SOL    HW2 1369   2.559   1.764   2.459
  412SOL     OW 1370   0.425   0.957   3.448
  412SOL    HW1 1371   0.392   0.984   3.533
  412SOL    HW2 1372   0.516   0.931   3.464
  413SOL     OW 1373   0.895   3.158   0.945
  413SOL    HW1 1374   0.826   3.098   0.972
  413SOL    HW2 1375   0.957   3.159   1.018
  414SOL     OW 1376   3.365   1.123   3.448
  414SOL    HW1 1377   3.300   1.126   3.518
  414SOL    HW2 1378   3.316   1.145   3.369
  415SOL     OW 1379   1.237   2.094   2.550
  415SOL    HW1 1380   1.238   2.188   2.529
  415SOL    HW2 1381   1.253   2.051   2.466
  416SOL     OW 1382   2.059   2.183   3.383
  416SOL    HW1 1383   2.105   2.114   3.431
  416SOL    HW2 1384   2.044   2.146   3.297
  417SOL     OW 1385   2.736   1.505   1.447
  417SOL    HW1 1386   2.713   1.420   1.408
  417SOL    HW2 1387   2.750   1.562   1.372
  418SOL     OW 1388   0.967   3.075   2.031
  418SOL    HW1 1389   0.922   3.007   1.980
  418SOL    HW2 1390   1.058   3.046   2.033
  419SOL     OW 1391   3.937   0.138   0.169
  419SOL    HW1 1392   3.868   0.195   0.134
  419SOL    HW2 1393   3.989   0.195   0.226
  420SOL     OW 1394   1.994   2.218   2.618
  420SOL    HW1 1395   1.900   2.234   2.624
  420SOL    HW2 1396   2.009   2.199   2.525
  421SOL     OW 1397   3.506   3.083   1.674
  421SOL    HW1 1398   3.512   3.100   1.580
  421SOL    HW2 1399   3.467   2.996   1.681
  422SOL     OW 1400   0.350   1.178   2.168
  422SOL    HW1 1401   0.344   1.084   2.186
  422SOL    HW2 1402   0.441   1.192   2.143
  423SOL     OW 1403   0.682   2.368   0.911
  423SOL    HW1 1404   0.685   2.276   0.939
  423SOL    HW2 1405   0.725   2.369   0.826
  424SOL     OW 1406   3.328   1.690   3.134
  424SOL    HW1 1407   3.382   1.698   3.212
  424SOL    HW2 1408   3.390   1.671   3.064
  425SOL     OW 1409   3.003   2.302   2.113
  425SOL    HW1 1410   3.013   2.229   2.175
  425SOL    HW2 1411   2.948   2.266   2.043
  426SOL     OW 1412   3.323   0.335   3.811
  426SOL    HW1 1413   3.382   0.284   3.755
  426SOL    HW2 1414   3.236   0.320   3.774
  427SOL     OW 1415   1.481   0.093   2.455
  427SOL    HW1 1416   1.463   0.033   2.527
  427SOL    HW2 1417   1.516   0.172   2.497
  428SOL     OW 1418   2.569   0.178   3.928
  428SOL    HW1 1419   2.500   0.245   3.929
  428SOL    HW2 1420   2.637   0.215   3.985
  429SOL     OW 1421   3.295   3.006   3.082
  429SOL    HW1 1422   3.271   2.960   3.002
  429SOL    HW2 1423   3.232   3.077   3.088
  430SOL     OW 1424   2.813   2.579   2.611
  430SOL    HW1 1425   2.750   2.601   2.544
  430SOL    HW2 1426   2.898   2.580   2.566
  431SOL     OW 1427   3.682   0.543   0.638
  431SOL    HW1 1428   3.733   0.528   0.558
  431SOL    HW2 1429   3.738   0.600   0.691
  432SOL     OW 1430   0.627   3.069   1.731
  432SOL    HW1 1431   0.691   3.033   1.670
  432SOL    HW2 1432   0.573   3.128   1.679
  433SOL     OW 1433   1.943   3.567   2.294
  433SOL    HW1 1434   1.922   3.653   2.259
  433SOL    HW2 1435   2.008   3.531   2.232
  434SOL     OW 1436   3.005   0.480   0.090
  434SOL    HW1 1437   3.042   0.481   0.002
  434SOL    HW2 1438   3.066   0.533   0.142
  435SOL     OW 1439   0.464   3.923   3.058
  435SOL    HW1 1440   0.442   3.933   2.965
  435SOL    HW2 1441   0.519   3.999   3.077
  436SOL     OW 1442   2.561   2.859   2.943
  436SOL    HW1 1443   2.573   2.767   2.922
  436SOL    HW2 1444   2.554   2.862   3.039
  437SOL     OW 1445   3.529   0.186   1.345
  437SOL    HW1 1446   3.561   0.098   1.328
  437SOL    HW2 1447   3.482   0.179   1.429
  438SOL     OW 1448   1.107   0.813   3.803
  438SOL    HW1 1449   1.077   0.765   3.880
  438SOL    HW2 1450   1.041   0.795   3.736
  439SOL     OW 1451   2.643   3.585   1.247
  439SOL    HW1 1452   2.712   3.535   1.290
  439SOL    HW2 1453   2.674   3.676   1.251
  440SOL     OW 1454   2.618   1.056   2.050
  440SOL    HW1 1455   2.699   1.018   2.016
  440SOL    HW2 1456   2.596   1.125   1.988
  441SOL     OW 1457   3.542   0.317   3.188
  441SOL    HW1 1458   3.523   0.351   3.101
  441SOL    HW2 1459   3.489   0.371   3.247
  442SOL     OW 1460   2.501   2.784   3.206
  442SOL    HW1 1461   2.523   2.848   3.273
  442SOL    HW2 1462   2.471   2.707   3.254
  443SOL     OW 1463   1.730   3.292   3.468
  443SOL    HW1 1464   1.745   3.223   3.403
  443SOL    HW2 1465   1.634   3.294   3.478
  444SOL     OW 1466   2.188   3.308   3.336
  444SOL    HW1 1467   2.211   3.388   3.288
  444SOL    HW2 1468   2.230   3.319   3.421
  445SOL     OW 1469   0.131   3.821   3.849
  445SOL    HW1 1470   0.037   3.805   3.852
  445SOL    HW2 1471   0.152   3.828   3.756
  446SOL     OW 1472   2.516   1.262   1.890
  446SOL    HW1 1473   2.588   1.256   1.827
  446SOL    HW2 1474   2.489   1.353   1.888
  447SOL     OW 1475   3.387   2.975   3.347
  447SOL    HW1 1476   3.393   2.977   3.252
  447SOL    HW2 1477   3.468   3.017   3.377
  448SOL     OW 1478   3.664   3.879   1.790
  448SOL    HW1 1479   3.689   3.918   1.706
  448SOL    HW2 1480   3.677   3.785   1.778
  449SOL     OW 1481   0.233   0.348   3.125
  449SOL    HW1 1482   0.158   0.340   3.183
  449SOL    HW2 1483   0.203   0.313   3.041
  450SOL     OW 1484   0.924   0.292   1.480
  450SOL    HW1 1485   0.992   0.348   1.442
  450SOL    HW2 1486   0.939   0.297   1.575
  451SOL     OW 1487   2.821   2.109   1.145
  451SOL    HW1 1488   2.797   2.101   1.237
  451SOL    HW2 1489   2.797   2.024   1.106
  452SOL     OW 1490   1.677   1.306   0.334
  452SOL    HW1 1491   1.757   1.347   0.366
  452SOL    HW2 1492   1.705   1.255   0.258
  453SOL     OW 1493   2.839   2.894   0.043
  453SOL    HW1 1494   2.758   2.935   0.074
  453SOL    HW2 1495   2.906   2.923   0.105
  454SOL     OW 1496   0.223   2.751   0.474
  454SOL    HW1 1497   0.300   2.726   0.526
  454SOL    HW2 1498   0.200   2.838   0.506
  455SOL     OW 1499   2.874   3.921   1.938
  455SOL    HW1 1500   2.943   3.929   2.003
  455SOL    HW2 1501   2.913   3.953   1.857
  456SOL     OW 1502   0.817   3.780   3.184
  456SOL    HW1 1503   0.745   3.734   3.140
  456SOL    HW2 1504   0.793   3.872   3.179
  457SOL     OW 1505   1.824   3.773   2.780
  457SOL    HW1 1506   1.877   3.694   2.789
  457SOL    HW2 1507   1.738   3.742   2.752
  458SOL     OW 1508   2.813   1.732   1.926
  458SOL    HW1 1509   2.838   1.815   1.886
  458SOL    HW2 1510   2.816   1.669   1.854
  459SOL     OW 1511   0.072   2.587   0.810
  459SOL    HW1 1512   0.045   2.653   0.746
  459SOL    HW2 1513   0.164   2.571   0.789
  460SOL     OW 1514   2.897   0.248   3.642
  460SOL    HW1 1515   2.862   0.330   3.675
  460SOL    HW2 1516   2.821   0.200   3.610
  461SOL     OW 1517   3.529   2.673   3.527
  461SOL    HW1 1518   3.549   2.617   3.452
  461SOL    HW2 1519   3.466   2.737   3.493
  462SOL     OW 1520   1.348   1.438   0.386
  462SOL    HW1 1521   1.387   1.450   0.473
  462SOL    HW2 1522   1.342   1.343   0.376
  463SOL     OW 1523   1.061   1.275   3.638
  463SOL    HW1 1524   1.019   1.345   3.587
  463SOL    HW2 1525   1.069   1.202   3.575
  464SOL     OW 1526   3.638   0.827   3.643
  464SOL    HW1 1527   3.609   0.878   3.568
  464SOL    HW2 1528   3.730   0.851   3.655
  465SOL     OW 1529   0.097   3.433   0.514
  465SOL    HW1 1530   0.120   3.374   0.443
  465SOL    HW2 1531   0.003   3.422   0.526
  466SOL     OW 1532   3.588   0.736   1.713
  466SOL    HW1 1533   3.525   0.682   1.666
  466SOL    HW2 1534   3.546   0.822   1.720
  467SOL     OW 1535   0.019   2.219   0.588
  467SOL    HW1 1536   0.101   2.258   0.620
  467SOL    HW2 1537   0.025   2.126   0.613
  468SOL     OW 1538   1.175   3.957   2.537
  468SOL    HW1 1539   1.176   3.902   2.459
  468SOL    HW2 1540   1.089   3.997   2.538
  469SOL     OW 1541   2.294   0.548   2.041
  469SOL    HW1 1542   2.210   0.530   1.999
  469SOL    HW2 1543   2.279   0.526   2.133
  470SOL     OW 1544   3.193   2.403   2.369
  470SOL    HW1 1545   3.140   2.414   2.290
  470SOL    HW2 1546   3.165   2.474   2.427
  471SOL     OW 1547   3.771   3.350   3.322
  471SOL    HW1 1548   3.783   3.308   3.237
  471SOL    HW2 1549   3.852   3.397   3.338
  472SOL     OW 1550   0.986   3.174   3.639
  472SOL    HW1 1551   0.992   3.239   3.709
  472SOL    HW2 1552   0.980   3.227   3.559
  473SOL     OW 1553   0.033   1.946   0.692
  473SOL    HW1 1554  -0.032   1.913   0.631
  473SOL    HW2 1555   0.018   1.898   0.773
  474SOL     OW 1556   2.389   2.544   3.784
  474SOL    HW1 1557   2.368   2.481   3.853
  474SOL    HW2 1558   2.478   2.574   3.804
  475SOL     OW 1559   1.806   2.320   0.960
  475SOL    HW1 1560   1.788   2.254   1.027
  475SOL    HW2 1561   1.900   2.335   0.964
  476SOL     OW 1562   1.568   3.167   3.007
  476SOL    HW1 1563   1.642   3.118   2.969
  476SOL    HW2 1564   1.543   3.228   2.939
  477SOL     OW 1565   1.156   2.258   1.592
  477SOL    HW1 1566   1.198   2.258   1.505
  477SOL    HW2 1567   1.072   2.300   1.577
  478SOL     OW 1568   0.429   1.644   2.465
  478SOL    HW1 1569   0.395   1.555   2.455
  478SOL    HW2 1570   0.523   1.635   2.454
  479SOL     OW 1571   0.872   1.056   0.105
  479SOL    HW1 1572   0.918   1.136   0.080
  479SOL    HW2 1573   0.929   1.016   0.172
  480SOL     OW 1574   0.820   2.569   2.377
  480SOL    HW1 1575   0.852   2.486   2.344
  480SOL    HW2 1576   0.852   2.634   2.315
  481SOL     OW 1577   3.958   2.846   1.875
  481SOL    HW1 1578   4.004   2.845   1.958
  481SOL    HW2 1579   3.876   2.892   1.893
  482SOL     OW 1580   0.624   0.122   1.854
  482SOL    HW1 1581   0.640   0.048   1.796
  482SOL    HW2 1582   0.540   0.102   1.895
  483SOL     OW 1583   2.286   0.348   0.545
  483SOL    HW1 1584   2.314   0.331   0.455
  483SOL    HW2 1585   2.364   0.381   0.589
  484SOL     OW 1586   0.164   2.640   2.899
  484SOL    HW1 1587   0.159   2.728   2.935
  484SOL    HW2 1588   0.201   2.652   2.811
  485SOL     OW 1589   0.376   1.804   2.231
  485SOL    HW1 1590   0.413   1.747   2.299
  485SOL    HW2 1591   0.420   1.889   2.245
  486SOL     OW 1592   1.227   1.993   1.274
  486SOL    HW1 1593   1.214   2.075   1.322
  486SOL    HW2 1594   1.301   1.951   1.317
  487SOL     OW 1595   0.391   3.536   2.711
  487SOL    HW1 1596   0.380   3.599   2.639
  487SOL    HW2 1597   0.348   3.456   2.679
  488SOL     OW 1598   3.950   3.382   2.765
  488SOL    HW1 1599   3.940   3.362   2.858
  488SOL    HW2 1600   3.866   3.358   2.726
  489SOL     OW 1601   2.114   2.570   3.695
  489SOL    HW1 1602   2.200   2.531   3.707
  489SOL    HW2 1603   2.090   2.548   3.605
  490SOL     OW 1604   2.383   3.138   1.503
  490SOL    HW1 1605   2.325   3.062   1.495
  490SOL    HW2 1606   2.343   3.204   1.446
  491SOL     OW 1607   3.041   3.639   1.025
  491SOL    HW1 1608   2.996   3.713   0.984
  491SOL    HW2 1609   3.126   3.636   0.982
  492SOL     OW 1610   1.109   2.762   1.145
  492SOL    HW1 1611   1.074   2.802   1.065
  492SOL    HW2 1612   1.203   2.755   1.129
  493SOL     OW 1613   1.962   1.690   2.069
  493SOL    HW1 1614   2.048   1.650   2.052
  493SOL    HW2 1615   1.982   1.766   2.124
  494SOL     OW 1616   1.239   3.038   2.100
  494SOL    HW1 1617   1.311   3.098   2.119
  494SOL    HW2 1618   1.280   2.952   2.092
  495SOL     OW 1619   0.610   2.670   1.953
  495SOL    HW1 1620   0.692   2.689   1.907
  495SOL    HW2 1621   0.581   2.586   1.917
  496SOL     OW 1622   3.146   0.697   1.017
  496SOL    HW1 1623   3.238   0.681   0.997
  496SOL    HW2 1624   3.138   0.793   1.022
  497SOL     OW 1625   0.635   2.592   2.573
  497SOL    HW1 1626   0.689   2.628   2.503
  497SOL    HW2 1627   0.644   2.654   2.645
  498SOL     OW 1628   3.184   0.531   3.013
  498SOL    HW1 1629   3.184   0.476   2.934
  498SOL    HW2 1630   3.102   0.508   3.058
  499SOL     OW 1631   3.405   3.380   0.614
  499SOL    HW1 1632   3.450   3.299   0.638
  499SOL    HW2 1633   3.474   3.436   0.577
  500SOL     OW 1634   1.262   1.895   2.318
  500SOL    HW1 1635   1.182   1.860   2.279
  500SOL    HW2 1636   1.321   1.820   2.320
  501SOL     OW 1637   3.477   0.979   3.870
  501SOL    HW1 1638   3.446   1.033   3.942
  501SOL    HW2 1639   3.568   0.960   3.891
  502SOL     OW 1640   0.763   1.924   3.556
  502SOL    HW1 1641   0.782   1.875   3.636
  502SOL    HW2 1642   0.844   1.920   3.505
  503SOL     OW 1643   0.430   2.838   2.442
  503SOL    HW1 1644   0.477   2.813   2.363
  503SOL    HW2 1645   0.466   2.924   2.465
  504SOL     OW 1646   0.669   2.410   1.380
  504SOL    HW1 1647   0.575   2.424   1.372
  504SOL    HW2 1648   0.694   2.365   1.299
  505SOL     OW 1649   2.512   2.418   0.477
  505SOL    HW1 1650   2.439   2.428   0.538
  505SOL    HW2 1651   2.586   2.459   0.522
  506SOL     OW 1652   3.508   3.102   0.649
  506SOL    HW1 1653   3.423   3.064   0.629
  506SOL    HW2 1654   3.506   3.117   0.743
  507SOL     OW 1655   3.344   0.422   2.362
  507SOL    HW1 1656   3.320   0.500   2.311
  507SOL    HW2 1657   3.395   0.369   2.300
  508SOL     OW 1658   2.633   2.751   2.170
  508SOL    HW1 1659   2.566   2.684   2.158
  508SOL    HW2 1660   2.683   2.750   2.088
  509SOL     OW 1661   3.313   0.671   2.655
  509SOL    HW1 1662   3.228   0.704   2.629
  509SOL    HW2 1663   3.340   0.613   2.584
  510SOL     OW 1664   3.127   1.389   3.823
  510SOL    HW1 1665   3.215   1.352   3.818
  510SOL    HW2 1666   3.072   1.317   3.854
  511SOL     OW 1667   0.097   1.408   0.578
  511SOL    HW1 1668   0.170   1.466   0.596
  511SOL    HW2 1669   0.023   1.447   0.625
  512SOL     OW 1670   1.729   1.547   3.102
  512SOL    HW1 1671   1.653   1.489   3.098
  512SOL    HW2 1672   1.692   1.635   3.106
  513SOL     OW 1673   1.661   2.322   2.870
  513SOL    HW1 1674   1.720   2.291   2.801
  513SOL    HW2 1675   1.687   2.273   2.948
  514SOL     OW 1676   1.817   0.552   3.102
  514SOL    HW1 1677   1.787   0.632   3.147
  514SOL    HW2 1678   1.779   0.481   3.153
  515SOL     OW 1679   1.768   0.995   1.941
  515SOL    HW1 1680   1.749   0.975   1.849
  515SOL    HW2 1681   1.847   1.048   1.939
  516SOL     OW 1682   0.216   3.823   2.074
  516SOL    HW1 1683   0.182   3.739   2.042
  516SOL    HW2 1684   0.205   3.819   2.169
  517SOL     OW 1685   3.381   2.872   1.349
  517SOL    HW1 1686   3.440   2.819   1.295
  517SOL    HW2 1687   3.433   2.949   1.372
  518SOL     OW 1688   3.258   0.173   3.104
  518SOL    HW1 1689   3.274   0.241   3.168
  518SOL    HW2 1690   3.162   0.169   3.096
  519SOL     OW 1691   1.011   2.471   0.339
  519SOL    HW1 1692   1.049   2.524   0.409
  519SOL    HW2 1693   1.074   2.480   0.267
  520SOL     OW 1694   0.338   2.412   2.428
  520SOL    HW1 1695   0.285   2.333   2.440
  520SOL    HW2 1696   0.423   2.379   2.398
  521SOL     OW 1697   1.282   0.591   1.878
  521SOL    HW1 1698   1.347   0.593   1.809
  521SOL    HW2 1699   1.294   0.506   1.921
  522SOL     OW 1700   0.600   2.074   3.756
  522SOL    HW1 1701   0.647   2.015   3.697
  522SOL    HW2 1702   0.508   2.057   3.738
  523SOL     OW 1703   0.485   1.493   0.811
  523SOL    HW1 1704   0.432   1.559   0.766
  523SOL    HW2 1705   0.444   1.409   0.785
  524SOL     OW 1706   0.645   2.217   3.192
  524SOL    HW1 1707   0.617   2.307   3.179
  524SOL    HW2 1708   0.728   2.224   3.238
  525SOL     OW 1709   3.464   3.868   2.509
  525SOL    HW1 1710   3.416   3.844   2.430
  525SOL    HW2 1711   3.458   3.789   2.564
  526SOL     OW 1712   1.202   0.684   0.075
  526SOL    HW1 1713   1.294   0.708   0.065
  526SOL    HW2 1714   1.186   0.689   0.170
  527SOL     OW 1715   0.319   0.622   1.999
  527SOL    HW1 1716   0.235   0.595   1.963
  527SOL    HW2 1717   0.375   0.545   1.990
  528SOL     OW 1718   1.771   3.658   1.212
  528SOL    HW1 1719   1.865   3.661   1.232
  528SOL    HW2 1720   1.741   3.748   1.221
  529SOL     OW 1721   3.127   2.763   2.705
  529SOL    HW1 1722   3.088   2.841   2.665
  529SOL    HW2 1723   3.098   2.766   2.796
  530SOL     OW 1724   2.336   2.093   2.844
  530SOL    HW1 1725   2.242   2.075   2.839
  530SOL    HW2 1726   2.358   2.123   2.756
  531SOL     OW 1727   1.208   3.637   2.710
  531SOL    HW1 1728   1.303   3.650   2.702
  531SOL    HW2 1729   1.196   3.594   2.794
  532SOL     OW 1730   3.638   2.246   1.359
  532SOL    HW1 1731   3.704   2.315   1.350
  532SOL    HW2 1732   3.688   2.169   1.385
  533SOL     OW 1733   0.444   3.151   3.292
  533SOL    HW1 1734   0.372   3.180   3.348
  533SOL    HW2 1735   0.510   3.117   3.353
  534SOL     OW 1736   3.080   0.673   2.480
  534SOL    HW1 1737   3.057   0.757   2.520
  534SOL    HW2 1738   2.995   0.634   2.455
  535SOL     OW 1739   2.968   3.873   1.644
  535SOL    HW1 1740   3.000   3.784   1.626
  535SOL    HW2 1741   2.873   3.864   1.647
  536SOL     OW 1742   3.892   0.065   2.151
  536SOL    HW1 1743   3.880   0.126   2.078
  536SOL    HW2 1744   3.858   0.112   2.227
  537SOL     OW 1745   2.347   3.002   1.775
  537SOL    HW1 1746   2.330   2.997   1.680
  537SOL    HW2 1747   2.402   3.079   1.785
  538SOL     OW 1748   3.052   2.722   2.977
  538SOL    HW1 1749   2.971   2.757   3.015
  538SOL    HW2 1750   3.114   2.721   3.050
  539SOL     OW 1751   3.368  -0.016   1.017
  539SOL    HW1 1752   3.449   0.035   1.029
  539SOL    HW2 1753   3.306   0.047   0.980
  540SOL     OW 1754   2.602   1.366   3.584
  540SOL    HW1 1755   2.511   1.389   3.563
  540SOL    HW2 1756   2.643   1.349   3.499
  541SOL     OW 1757   3.774   0.554   3.639
  541SOL    HW1 1758   3.708   0.622   3.625
  541SOL    HW2 1759   3.736   0.475   3.601
  542SOL     OW 1760   1.047   0.283   0.922
  542SOL    HW1 1761   0.981   0.244   0.979
  542SOL    HW2 1762   1.106   0.329   0.982
  543SOL     OW 1763   3.723   2.250   2.471
  543SOL    HW1 1764   3.630   2.258   2.447
  543SOL    HW2 1765   3.721   2.220   2.562
  544SOL     OW 1766   2.637   2.778   3.633
  544SOL    HW1 1767   2.714   2.833   3.620
  544SOL    HW2 1768   2.587   2.821   3.702
  545SOL     OW 1769   3.450   0.545   1.577
  545SOL    HW1 1770   3.399   0.538   1.496
  545SOL    HW2 1771   3.387   0.531   1.647
  546SOL     OW 1772   2.638   3.092   2.001
  546SOL    HW1 1773   2.558   3.040   2.003
  546SOL    HW2 1774   2.613   3.173   1.956
  547SOL     OW 1775   3.483   2.255   2.808
  547SOL    HW1 1776   3.397   2.297   2.812
  547SOL    HW2 1777   3.530   2.304   2.739
  548SOL     OW 1778   3.385   3.398   3.872
  548SOL    HW1 1779   3.354   3.432   3.788
  548SOL    HW2 1780   3.406   3.477   3.923
  549SOL     OW 1781   2.112   0.420   1.838
  549SOL    HW1 1782   2.019   0.437   1.849
  549SOL    HW2 1783   2.128   0.430   1.744
  550SOL     OW 1784   1.986   3.797   2.556
  550SOL    HW1 1785   1.918   3.773   2.619
  550SOL    HW2 1786   1.938   3.820   2.476
  551SOL     OW 1787   3.707   1.736   3.391
  551SOL    HW1 1788   3.716   1.690   3.474
  551SOL    HW2 1789   3.752   1.819   3.403
  552SOL     OW 1790   3.697   1.703   2.644
  552SOL    HW1 1791   3.763   1.669   2.583
  552SOL    HW2 1792   3.644   1.762   2.591
  553SOL     OW 1793   0.256   0.306   2.500
  553SOL    HW1 1794   0.233   0.358   2.424
  553SOL    HW2 1795   0.184   0.320   2.562
  554SOL     OW 1796   1.607   2.404   1.470
  554SOL    HW1 1797   1.668   2.398   1.396
  554SOL    HW2 1798   1.634   2.483   1.516
  555SOL     OW 1799   1.495   2.207   0.646
  555SOL    HW1 1800   1.523   2.153   0.720
  555SOL    HW2 1801   1.577   2.242   0.611
  556SOL     OW 1802   1.556   0.337   2.602
  556SOL    HW1 1803   1.619   0.284   2.651
  556SOL    HW2 1804   1.530   0.406   2.664
  557SOL     OW 1805   0.414   3.784   3.292
  557SOL    HW1 1806   0.426   3.848   3.222
  557SOL    HW2 1807   0.443   3.701   3.254
  558SOL     OW 1808   3.147   3.282   0.718
  558SOL    HW1 1809   3.216   3.343   0.691
  558SOL    HW2 1810   3.125   3.308   0.808
  559SOL     OW 1811   2.250   2.900   1.508
  559SOL    HW1 1812   2.238   2.816   1.465
  559SOL    HW2 1813   2.180   2.955   1.473
  560SOL     OW 1814   2.918   1.059   0.687
  560SOL    HW1 1815   2.989   1.119   0.710
  560SOL    HW2 1816   2.961   0.990   0.636
  561SOL     OW 1817   1.917   2.477   2.326
  561SOL    HW1 1818   1.903   2.561   2.368
  561SOL    HW2 1819   2.012   2.469   2.317
  562SOL     OW 1820   0.531   3.227   0.172
  562SOL    HW1 1821   0.547   3.314   0.208
  562SOL    HW2 1822   0.551   3.236   0.079
  563SOL     OW 1823   1.289   1.373   0.884
  563SOL    HW1 1824   1.292   1.468   0.889
  563SOL    HW2 1825   1.195   1.353   0.878
  564SOL     OW 1826   1.189   1.806   0.107
  564SOL    HW1 1827   1.251   1.740   0.139
  564SOL    HW2 1828   1.227   1.836   0.025
  565SOL     OW 1829   3.782   0.398   1.101
  565SOL    HW1 1830   3.851   0.353   1.051
  565SOL    HW2 1831   3.812   0.392   1.192
  566SOL     OW 1832   1.173   3.483   3.550
  566SOL    HW1 1833   1.161   3.574   3.578
  566SOL    HW2 1834   1.086   3.453   3.526
  567SOL     OW 1835   0.909   2.869   2.720
  567SOL    HW1 1836   0.840   2.818   2.678
  567SOL    HW2 1837   0.913   2.833   2.809
  568SOL     OW 1838   0.492   0.303   3.298
  568SOL    HW1 1839   0.509   0.393   3.269
  568SOL    HW2 1840   0.404   0.284   3.265
  569SOL     OW 1841   3.946   0.517   2.967
  569SOL    HW1 1842   4.025   0.535   3.017
  569SOL    HW2 1843   3.874   0.528   3.029
  570SOL     OW 1844   3.308   1.924   0.182
  570SOL    HW1 1845   3.388   1.969   0.208
  570SOL    HW2 1846   3.304   1.934   0.087
  571SOL     OW 1847   2.675   1.253   1.298
  571SOL    HW1 1848   2.753   1.206   1.269
  571SOL    HW2 1849   2.614   1.184   1.325
  572SOL     OW 1850   3.665   1.662   0.978
  572SOL    HW1 1851   3.594   1.699   0.925
  572SOL    HW2 1852   3.724   1.736   0.993
  573SOL     OW 1853   0.665   1.200   2.030
  573SOL    HW1 1854   0.739   1.252   2.000
  573SOL    HW2 1855   0.703   1.116   2.055
  574SOL     OW 1856   3.803   0.423   2.072
  574SOL    HW1 1857   3.816   0.342   2.023
  574SOL    HW2 1858   3.888   0.466   2.070
  575SOL     OW 1859   0.396   1.786   3.872
  575SOL    HW1 1860   0.346   1.721   3.823
  575SOL    HW2 1861   0.446   1.736   3.936
  576SOL     OW 1862   0.540   1.849   3.123
  576SOL    HW1 1863   0.497   1.764   3.122
  576SOL    HW2 1864   0.633   1.829   3.134
  577SOL     OW 1865   3.475   3.888   3.434
  577SOL    HW1 1866   3.500   3.857   3.347
  577SOL    HW2 1867   3.385   3.857   3.445
  578SOL     OW 1868   2.594   3.459   0.681
  578SOL    HW1 1869   2.559   3.372   0.662
  578SOL    HW2 1870   2.679   3.442   0.722
  579SOL     OW 1871   1.368   0.472   1.316
  579SOL    HW1 1872   1.380   0.388   1.359
  579SOL    HW2 1873   1.456   0.510   1.311
  580SOL     OW 1874   2.483   3.921   3.324
  580SOL    HW1 1875   2.556   3.922   3.262
  580SOL    HW2 1876   2.480   3.831   3.357
  581SOL     OW 1877   2.980   2.062   2.628
  581SOL    HW1 1878   2.970   2.028   2.717
  581SOL    HW2 1879   3.044   2.005   2.587
  582SOL     OW 1880   2.735   2.175   2.536
  582SOL    HW1 1881   2.799   2.166   2.607
  582SOL    HW2 1882   2.768   2.117   2.467
  583SOL     OW 1883   1.776   3.118   3.260
  583SOL    HW1 1884   1.745   3.149   3.175
  583SOL    HW2 1885   1.822   3.037   3.240
  584SOL     OW 1886   1.618   3.487   2.782
  584SOL    HW1 1887   1.662   3.519   2.703
  584SOL    HW2 1888   1.545   3.434   2.750
  585SOL     OW 1889   1.125   0.043   1.905
  585SOL    HW1 1890   1.109  -0.042   1.945
  585SOL    HW2 1891   1.046   0.060   1.852
  586SOL     OW 1892   2.252   0.430   2.319
  586SOL    HW1 1893   2.189   0.360   2.332
  586SOL    HW2 1894   2.207   0.509   2.348
  587SOL     OW 1895   0.853   3.560   3.951
  587SOL    HW1 1896   0.868   3.648   3.984
  587SOL    HW2 1897   0.778   3.569   3.892
  588SOL     OW 1898   2.367   0.691   0.723
  588SOL    HW1 1899   2.286   0.737   0.705
  588SOL    HW2 1900   2.384   0.707   0.816
  589SOL     OW 1901   2.316   2.426   0.967
  589SOL    HW1 1902   2.227   2.426   1.002
  589SOL    HW2 1903   2.347   2.336   0.981
  590SOL     OW 1904   0.433   1.575   0.225
  590SOL    HW1 1905   0.422   1.497   0.170
  590SOL    HW2 1906   0.446   1.540   0.313
  591SOL     OW 1907   0.771   0.460   1.859
  591SOL    HW1 1908   0.831   0.508   1.915
  591SOL    HW2 1909   0.731   0.528   1.804
  592SOL     OW 1910   3.263   2.357   0.812
  592SOL    HW1 1911   3.273   2.343   0.907
  592SOL    HW2 1912   3.219   2.278   0.781
  593SOL     OW 1913   2.336   1.186   0.498
  593SOL    HW1 1914   2.290   1.244   0.559
  593SOL    HW2 1915   2.310   1.098   0.524
  594SOL     OW 1916   0.225   0.167   0.984
  594SOL    HW1 1917   0.240   0.199   1.073
  594SOL    HW2 1918   0.182   0.240   0.940
  595SOL     OW 1919   2.399   1.396   0.181
  595SOL    HW1 1920   2.353   1.320   0.145
  595SOL    HW2 1921   2.486   1.393   0.141
  596SOL     OW 1922   2.873   1.699   3.472
  596SOL    HW1 1923   2.845   1.721   3.383
  596SOL    HW2 1924   2.797   1.721   3.527
  597SOL     OW 1925   0.874   0.939   2.026
  597SOL    HW1 1926   0.903   0.877   1.959
  597SOL    HW2 1927   0.937   1.011   2.020
  598SOL     OW 1928   3.006   2.573   2.074
  598SOL    HW1 1929   2.991   2.481   2.095
  598SOL    HW2 1930   3.038   2.573   1.984
  599SOL     OW 1931   0.089   1.692   2.361
  599SOL    HW1 1932   0.150   1.765   2.377
  599SOL    HW2 1933   0.134   1.638   2.296
  600SOL     OW 1934   3.476   1.023   1.967
  600SOL    HW1 1935   3.423   1.002   2.045
  600SOL    HW2 1936   3.494   1.116   1.975
  601SOL     OW 1937   0.326   2.652   1.014
  601SOL    HW1 1938   0.238   2.624   1.037
  601SOL    HW2 1939   0.365   2.678   1.097
  602SOL     OW 1940   3.582   1.967   0.162
  602SOL    HW1 1941   3.564   1.874   0.147
  602SOL    HW2 1942   3.673   1.978   0.133
  603SOL     OW 1943   1.688   2.931   1.824
  603SOL    HW1 1944   1.778   2.962   1.831
  603SOL    HW2 1945   1.678   2.869   1.896
  604SOL     OW 1946   1.467   2.980   2.401
  604SOL    HW1 1947   1.513   3.037   2.338
  604SOL    HW2 1948   1.387   2.954   2.355
  605SOL     OW 1949   2.309   0.909   0.553
  605SOL    HW1 1950   2.360   0.944   0.625
  605SOL    HW2 1951   2.370   0.854   0.504
  606SOL     OW 1952   2.792   0.472   3.773
  606SOL    HW1 1953   2.697   0.464   3.761
  606SOL    HW2 1954   2.805   0.558   3.812
  607SOL     OW 1955   0.500   2.932   1.933
  607SOL    HW1 1956   0.542   2.847   1.945
  607SOL    HW2 1957   0.548   2.971   1.859
  608SOL     OW 1958   1.901   0.718   2.109
  608SOL    HW1 1959   1.812   0.728   2.074
  608SOL    HW2 1960   1.958   0.729   2.033
  609SOL     OW 1961   2.879   3.647   1.397
  609SOL    HW1 1962   2.932   3.705   1.343
  609SOL    HW2 1963   2.816   3.705   1.440
  610SOL     OW 1964   3.057   2.635   2.482
  610SOL    HW1 1965   3.085   2.677   2.563
  610SOL    HW2 1966   3.039   2.707   2.422
  611SOL     OW 1967   0.815   0.607   3.453
  611SOL    HW1 1968   0.821   0.512   3.443
  611SOL    HW2 1969   0.729   0.630   3.418
  612SOL     OW 1970   1.314   1.299   3.192
  612SOL    HW1 1971   1.331   1.211   3.158
  612SOL    HW2 1972   1.244   1.333   3.136
  613SOL     OW 1973   0.838   1.378   1.952
  613SOL    HW1 1974   0.828   1.466   1.990
  613SOL    HW2 1975   0.932   1.360   1.958
  614SOL     OW 1976   3.235   3.441   1.325
  614SOL    HW1 1977   3.237   3.537   1.318
  614SOL    HW2 1978   3.307   3.412   1.268
  615SOL     OW 1979   2.490   2.420   1.239
  615SOL    HW1 1980   2.473   2.383   1.326
  615SOL    HW2 1981   2.577   2.387   1.216
  616SOL     OW 1982   2.089   2.755   0.595
  616SOL    HW1 1983   2.001   2.754   0.632
  616SOL    HW2 1984   2.120   2.845   0.610
  617SOL     OW 1985   3.731   1.471   0.289
  617SOL    HW1 1986   3.691   1.411   0.351
  617SOL    HW2 1987   3.823   1.445   0.287
  618SOL     OW 1988   3.869   2.847   0.421
  618SOL    HW1 1989   3.775   2.864   0.415
  618SOL    HW2 1990   3.910   2.933   0.412
  619SOL     OW 1991   0.712   1.426   2.346
  619SOL    HW1 1992   0.673   1.343   2.371
  619SOL    HW2 1993   0.661   1.455   2.270
  620SOL     OW 1994   1.782   0.389   3.619
  620SOL    HW1 1995   1.727   0.453   3.574
  620SOL    HW2 1996   1.822   0.438   3.691
  621SOL     OW 1997   3.585   2.084   0.532
  621SOL    HW1 1998   3.519   2.044   0.476
  621SOL    HW2 1999   3.559   2.176   0.539
  622SOL     OW 2000   0.761   1.461   0.876
  622SOL    HW1 2001   0.794   1.525   0.813
  622SOL    HW2 2002   0.666   1.471   0.873
  623SOL     OW 2003   1.729   3.612   0.507
  623SOL    HW1 2004   1.703   3.523   0.531
  623SOL    HW2 2005   1.775   3.601   0.423
  624SOL     OW 2006   0.444   3.594   0.574
  624SOL    HW1 2007   0.529   3.597   0.618
  624SOL    HW2 2008   0.402   3.516   0.610
  625SOL     OW 2009   1.711   2.097   1.162
  625SOL    HW1 2010   1.653   2.052   1.101
  625SOL    HW2 2011   1.765   2.028   1.200
  626SOL     OW 2012   2.414   0.351   1.331
  626SOL    HW1 2013   2.471   0.333   1.406
  626SOL    HW2 2014   2.390   0.443   1.341
  627SOL     OW 2015   2.120   0.652   2.722
  627SOL    HW1 2016   2.203   0.692   2.748
  627SOL    HW2 2017   2.095   0.598   2.797
  628SOL     OW 2018   1.018   1.802   1.891
  628SOL    HW1 2019   1.024   1.875   1.829
  628SOL    HW2 2020   1.107   1.766   1.895
  629SOL     OW 2021   0.957   2.188   2.919
  629SOL    HW1 2022   0.884   2.158   2.866
  629SOL    HW2 2023   1.013   2.236   2.858
  630SOL     OW 2024   1.808   3.472   2.002
  630SOL    HW1 2025   1.724   3.491   1.961
  630SOL    HW2 2026   1.829   3.552   2.051
  631SOL     OW 2027   3.799   3.859   3.792
  631SOL    HW1 2028   3.762   3.853   3.704
  631SOL    HW2 2029   3.783   3.773   3.831
  632SOL     OW 2030   0.745   2.591   3.790
  632SOL    HW1 2031   0.697   2.528   3.843
  632SOL    HW2 2032   0.806   2.538   3.739
  633SOL     OW 2033   0.855   3.698   3.442
  633SOL    HW1 2034   0.847   3.719   3.349
  633SOL    HW2 2035   0.767   3.708   3.477
  634SOL     OW 2036   2.833   3.085   2.413
  634SOL    HW1 2037   2.899   3.043   2.358
  634SOL    HW2 2038   2.859   3.177   2.416
  635SOL     OW 2039   1.583   3.852   3.527
  635SOL    HW1 2040   1.669   3.855   3.485
  635SOL    HW2 2041   1.568   3.760   3.547
  636SOL     OW 2042   1.774   2.738   3.251
  636SOL    HW1 2043   1.836   2.810   3.245
  636SOL    HW2 2044   1.784   2.690   3.169
  637SOL     OW 2045   3.520   3.053   2.416
  637SOL    HW1 2046   3.570   2.972   2.428
  637SOL    HW2 2047   3.428   3.025   2.417
  638SOL     OW 2048   2.972   0.859   2.889
  638SOL    HW1 2049   2.991   0.828   2.978
  638SOL    HW2 2050   2.993   0.953   2.892
  639SOL     OW 2051   0.318   0.156   1.528
  639SOL    HW1 2052   0.339   0.220   1.460
  639SOL    HW2 2053   0.252   0.199   1.582
  640SOL     OW 2054   1.932   3.033   3.713
  640SOL    HW1 2055   2.022   3.001   3.715
  640SOL    HW2 2056   1.939   3.119   3.673
  641SOL     OW 2057   1.370   3.334   2.722
  641SOL    HW1 2058   1.299   3.328   2.786
  641SOL    HW2 2059   1.358   3.258   2.665
  642SOL     OW 2060   1.273   3.559   2.974
  642SOL    HW1 2061   1.200   3.619   2.991
  642SOL    HW2 2062   1.296   3.524   3.060
  643SOL     OW 2063   1.982   1.476   3.223
  643SOL    HW1 2064   1.896   1.514   3.202
  643SOL    HW2 2065   1.966   1.423   3.301
  644SOL     OW 2066   1.522   2.031   0.857
  644SOL    HW1 2067   1.561   2.023   0.944
  644SOL    HW2 2068   1.428   2.026   0.872
  645SOL     OW 2069   0.962   1.620   2.892
  645SOL    HW1 2070   1.018   1.602   2.816
  645SOL    HW2 2071   1.005   1.576   2.965
  646SOL     OW 2072   0.552   1.631   1.092
  646SOL    HW1 2073   0.592   1.552   1.056
  646SOL    HW2 2074   0.565   1.623   1.187
  647SOL     OW 2075   0.679   2.284   3.908
  647SOL    HW1 2076   0.722   2.239   3.981
  647SOL    HW2 2077   0.665   2.215   3.843
  648SOL     OW 2078   2.426   0.741   2.407
  648SOL    HW1 2079   2.519   0.763   2.404
  648SOL    HW2 2080   2.400   0.735   2.315
  649SOL     OW 2081   0.626   3.017   2.340
  649SOL    HW1 2082   0.706   3.045   2.296
  649SOL    HW2 2083   0.630   3.060   2.426
  650SOL     OW 2084   2.672   3.890   2.169
  650SOL    HW1 2085   2.725   3.901   2.090
  650SOL    HW2 2086   2.586   3.926   2.146
  651SOL     OW 2087   2.377  -0.023   0.716
  651SOL    HW1 2088   2.423  -0.029   0.800
  651SOL    HW2 2089   2.351   0.069   0.710
  652SOL     OW 2090   2.715   2.776   1.497
  652SOL    HW1 2091   2.797   2.768   1.448
  652SOL    HW2 2092   2.686   2.866   1.480
  653SOL     OW 2093   2.071   3.598   1.184
  653SOL    HW1 2094   2.144   3.630   1.237
  653SOL    HW2 2095   2.096   3.508   1.162
  654SOL     OW 2096   1.869   3.751   3.425
  654SOL    HW1 2097   1.828   3.742   3.339
  654SOL    HW2 2098   1.907   3.665   3.442
  655SOL     OW 2099   2.887   1.891   3.710
  655SOL    HW1 2100   2.940   1.812   3.723
  655SOL    HW2 2101   2.937   1.960   3.753
  656SOL     OW 2102   1.519   3.219   1.870
  656SOL    HW1 2103   1.437   3.172   1.856
  656SOL    HW2 2104   1.580   3.153   1.901
  657SOL     OW 2105   3.890   0.366   3.243
  657SOL    HW1 2106   3.879   0.326   3.329
  657SOL    HW2 2107   3.889   0.460   3.260
  658SOL     OW 2108   3.069   2.143   0.502
  658SOL    HW1 2109   3.003   2.168   0.438
  658SOL    HW2 2110   3.024   2.143   0.586
  659SOL     OW 2111   1.187   1.552   2.106
  659SOL    HW1 2112   1.163   1.530   2.016
  659SOL    HW2 2113   1.106   1.542   2.155
  660SOL     OW 2114   2.587   0.352   3.264
  660SOL    HW1 2115   2.603   0.443   3.288
  660SOL    HW2 2116   2.562   0.355   3.171
  661SOL     OW 2117   3.659   3.389   1.052
  661SOL    HW1 2118   3.711   3.337   0.991
  661SOL    HW2 2119   3.713   3.395   1.130
  662SOL     OW 2120   1.033   1.954   3.142
  662SOL    HW1 2121   1.087   2.030   3.119
  662SOL    HW2 2122   1.096   1.884   3.158
  663SOL     OW 2123   0.764   0.571   3.055
  663SOL    HW1 2124   0.728   0.595   2.970
  663SOL    HW2 2125   0.859   0.573   3.043
  664SOL     OW 2126   0.521   0.146   3.554
  664SOL    HW1 2127   0.592   0.189   3.603
  664SOL    HW2 2128   0.516   0.194   3.472
  665SOL     OW 2129   0.462   0.198   0.321
  665SOL    HW1 2130   0.396   0.141   0.359
  665SOL    HW2 2131   0.481   0.159   0.235
  666SOL     OW 2132   3.002   2.066   2.271
  666SOL    HW1 2133   3.059   2.036   2.342
  666SOL    HW2 2134   2.914   2.045   2.302
  667SOL     OW 2135   0.408   1.622   3.219
  667SOL    HW1 2136   0.369   1.609   3.132
  667SOL    HW2 2137   0.333   1.628   3.278
  668SOL     OW 2138   1.896   3.736   2.080
  668SOL    HW1 2139   1.843   3.795   2.028
  668SOL    HW2 2140   1.986   3.751   2.051
  669SOL     OW 2141   0.101   1.319   1.504
  669SOL    HW1 2142   0.100   1.327   1.600
  669SOL    HW2 2143   0.013   1.347   1.478
  670SOL     OW 2144  -0.022   1.060   0.350
  670SOL    HW1 2145   0.034   1.117   0.403
  670SOL    HW2 2146   0.033   0.984   0.330
  671SOL     OW 2147   3.025   3.390   1.800
  671SOL    HW1 2148   3.017   3.455   1.730
  671SOL    HW2 2149   2.953   3.329   1.784
  672SOL     OW 2150   1.516   3.832   0.162
  672SOL    HW1 2151   1.474   3.843   0.077
  672SOL    HW2 2152   1.448   3.853   0.225
  673SOL     OW 2153  -0.033   1.766   1.388
  673SOL    HW1 2154   0.046   1.719   1.362
  673SOL    HW2 2155  -0.001   1.841   1.439
  674SOL     OW 2156   0.125   3.843   2.788
  674SOL    HW1 2157   0.030   3.842   2.800
  674SOL    HW2 2158   0.142   3.776   2.722
  675SOL     OW 2159   0.241   1.376   3.507
  675SOL    HW1 2160   0.290   1.315   3.453
  675SOL    HW2 2161   0.242   1.337   3.594
  676SOL     OW 2162   0.230   3.107   2.371
  676SOL    HW1 2163   0.295   3.039   2.350
  676SOL    HW2 2164   0.225   3.161   2.292
  677SOL     OW 2165   3.230   0.109   2.279
  677SOL    HW1 2166   3.306   0.052   2.291
  677SOL    HW2 2167   3.265   0.187   2.237
  678SOL     OW 2168   3.302   2.052   2.958
  678SOL    HW1 2169   3.227   2.076   2.903
  678SOL    HW2 2170   3.262   2.020   3.039
  679SOL     OW 2171   2.876   3.242   3.268
  679SOL    HW1 2172   2.792   3.284   3.250
  679SOL    HW2 2173   2.856   3.176   3.334
  680SOL     OW 2174   2.983   3.039   0.267
  680SOL    HW1 2175   3.075   3.041   0.241
  680SOL    HW2 2176   2.972   3.116   0.323
  681SOL     OW 2177   2.389   0.129   2.088
  681SOL    HW1 2178   2.303   0.159   2.057
  681SOL    HW2 2179   2.444   0.207   2.085
  682SOL     OW 2180   3.002   3.064   3.898
  682SOL    HW1 2181   3.045   3.097   3.820
  682SOL    HW2 2182   2.910   3.058   3.874
  683SOL     OW 2183   3.572   3.575   3.353
  683SOL    HW1 2184   3.522   3.534   3.283
  683SOL    HW2 2185   3.657   3.531   3.351
  684SOL     OW 2186   3.852   0.367   1.393
  684SOL    HW1 2187   3.817   0.350   1.480
  684SOL    HW2 2188   3.868   0.280   1.356
  685SOL     OW 2189   0.942   1.574   2.300
  685SOL    HW1 2190   0.990   1.542   2.377
  685SOL    HW2 2191   0.860   1.525   2.301
  686SOL     OW 2192   3.224   0.490   1.402
  686SOL    HW1 2193   3.168   0.566   1.387
  686SOL    HW2 2194   3.164   0.418   1.418
  687SOL     OW 2195   1.312   1.528   2.987
  687SOL    HW1 2196   1.296   1.600   3.048
  687SOL    HW2 2197   1.280   1.560   2.903
  688SOL     OW 2198   1.503   1.881   0.551
  688SOL    HW1 2199   1.460   1.958   0.587
  688SOL    HW2 2200   1.512   1.900   0.457
  689SOL     OW 2201   1.229   2.428   0.102
  689SOL    HW1 2202   1.302   2.486   0.122
  689SOL    HW2 2203   1.167   2.483   0.054
  690SOL     OW 2204   2.673   0.378   1.009
  690SOL    HW1 2205   2.761   0.400   1.042
  690SOL    HW2 2206   2.648   0.454   0.957
  691SOL     OW 2207   2.548   3.278   1.165
  691SOL    HW1 2208   2.585   3.356   1.124
  691SOL    HW2 2209   2.624   3.226   1.192
  692SOL     OW 2210   0.428   0.740   1.779
  692SOL    HW1 2211   0.384   0.719   1.862
  692SOL    HW2 2212   0.475   0.660   1.756
  693SOL     OW 2213   0.033   1.667   0.822
  693SOL    HW1 2214   0.076   1.623   0.895
  693SOL    HW2 2215  -0.026   1.601   0.786
  694SOL     OW 2216   1.709   3.860   1.038
  694SOL    HW1 2217   1.635   3.906   1.077
  694SOL    HW2 2218   1.671   3.778   1.005
  695SOL     OW 2219   1.698   1.489   2.619
  695SOL    HW1 2220   1.783   1.459   2.651
  695SOL    HW2 2221   1.718   1.540   2.541
  696SOL     OW 2222   1.836   0.189   2.216
  696SOL    HW1 2223   1.743   0.186   2.195
  696SOL    HW2 2224   1.853   0.107   2.261
  697SOL     OW 2225   0.664   1.339   3.364
  697SOL    HW1 2226   0.663   1.339   3.460
  697SOL    HW2 2227   0.613   1.416   3.340
  698SOL     OW 2228   3.206   1.730   1.797
  698SOL    HW1 2229   3.299   1.720   1.781
  698SOL    HW2 2230   3.164   1.691   1.720
  699SOL     OW 2231   3.773   2.625   1.231
  699SOL    HW1 2232   3.795   2.633   1.139
  699SOL    HW2 2233   3.858   2.626   1.276
  700SOL     OW 2234   1.793   1.948   2.924
  700SOL    HW1 2235   1.774   1.948   2.830
  700SOL    HW2 2236   1.887   1.930   2.929
  701SOL     OW 2237   2.938   0.117   2.741
  701SOL    HW1 2238   2.993   0.057   2.690
  701SOL    HW2 2239   2.967   0.106   2.831
  702SOL     OW 2240   0.920   0.705   0.572
  702SOL    HW1 2241   0.998   0.689   0.626
  702SOL    HW2 2242   0.915   0.629   0.514
  703SOL     OW 2243   0.906   0.614   2.037
  703SOL    HW1 2244   0.994   0.636   2.067
  703SOL    HW2 2245   0.848   0.639   2.109
  704SOL     OW 2246   0.582   2.705   2.228
  704SOL    HW1 2247   0.653   2.678   2.286
  704SOL    HW2 2248   0.615   2.688   2.140
  705SOL     OW 2249   2.030   1.791   0.374
  705SOL    HW1 2250   1.959   1.764   0.316
  705SOL    HW2 2251   1.988   1.848   0.439
  706SOL     OW 2252   1.188   1.756   3.663
  706SOL    HW1 2253   1.243   1.811   3.719
  706SOL    HW2 2254   1.193   1.669   3.702
  707SOL     OW 2255   2.209   1.168   3.581
  707SOL    HW1 2256   2.269   1.095   3.564
  707SOL    HW2 2257   2.130   1.126   3.616
  708SOL     OW 2258   3.190   2.392   0.487
  708SOL    HW1 2259   3.224   2.312   0.446
  708SOL    HW2 2260   3.222   2.388   0.577
  709SOL     OW 2261   0.200   0.475   0.177
  709SOL    HW1 2262   0.162   0.427   0.251
  709SOL    HW2 2263   0.263   0.415   0.139
  710SOL     OW 2264   0.355   3.173   1.874
  710SOL    HW1 2265   0.295   3.199   1.944
  710SOL    HW2 2266   0.433   3.142   1.920
  711SOL     OW 2267   1.534   0.291   1.457
  711SOL    HW1 2268   1.580   0.375   1.467
  711SOL    HW2 2269   1.580   0.247   1.385
  712SOL     OW 2270   3.684   2.776   3.787
  712SOL    HW1 2271   3.647   2.736   3.708
  712SOL    HW2 2272   3.755   2.831   3.755
  713SOL     OW 2273   3.838   3.674   1.061
  713SOL    HW1 2274   3.755   3.693   1.016
  713SOL    HW2 2275   3.811   3.624   1.138
  714SOL     OW 2276   1.884   3.395   0.103
  714SOL    HW1 2277   1.949   3.336   0.065
  714SOL    HW2 2278   1.860   3.355   0.186
  715SOL     OW 2279   2.331   3.000   0.188
  715SOL    HW1 2280   2.422   2.973   0.197
  715SOL    HW2 2281   2.332   3.064   0.117
  716SOL     OW 2282   0.728   1.851   2.141
  716SOL    HW1 2283   0.677   1.927   2.169
  716SOL    HW2 2284   0.802   1.848   2.202
  717SOL     OW 2285   0.381   2.096   2.200
  717SOL    HW1 2286   0.352   2.126   2.114
  717SOL    HW2 2287   0.475   2.113   2.201
  718SOL     OW 2288   0.389   0.335   0.008
  718SOL    HW1 2289   0.411   0.243   0.022
  718SOL    HW2 2290   0.471   0.382   0.024
  719SOL     OW 2291   0.653   3.178   2.574
  719SOL    HW1 2292   0.701   3.219   2.646
  719SOL    HW2 2293   0.661   3.240   2.502
  720SOL     OW 2294   0.910   0.827   3.587
  720SOL    HW1 2295   0.874   0.746   3.553
  720SOL    HW2 2296   0.834   0.878   3.613
  721SOL     OW 2297   0.091   0.887   2.745
  721SOL    HW1 2298   0.085   0.943   2.822
  721SOL    HW2 2299   0.012   0.905   2.695
  722SOL     OW 2300   3.284   2.155   3.413
  722SOL    HW1 2301   3.245   2.120   3.333
  722SOL    HW2 2302   3.216   2.212   3.450
  723SOL     OW 2303   0.218   1.225   2.657
  723SOL    HW1 2304   0.139   1.230   2.711
  723SOL    HW2 2305   0.280   1.176   2.710
  724SOL     OW 2306   1.585   2.191   2.458
  724SOL    HW1 2307   1.647   2.210   2.388
  724SOL    HW2 2308   1.499   2.193   2.415
  725SOL     OW 2309   1.290   1.779   1.988
  725SOL    HW1 2310   1.376   1.757   1.953
  725SOL    HW2 2311   1.277   1.719   2.061
  726SOL     OW 2312   3.418   3.472   1.895
  726SOL    HW1 2313   3.344   3.411   1.888
  726SOL    HW2 2314   3.486   3.434   1.839
  727SOL     OW 2315   0.430   0.008   2.794
  727SOL    HW1 2316   0.365   0.006   2.725
  727SOL    HW2 2317   0.512   0.031   2.750
  728SOL     OW 2318   3.761   3.007   0.803
  728SOL    HW1 2319   3.718   2.938   0.753
  728SOL    HW2 2320   3.692   3.072   0.819
  729SOL     OW 2321   1.842   3.796   3.763
  729SOL    HW1 2322   1.807   3.828   3.845
  729SOL    HW2 2323   1.871   3.707   3.783
  730SOL     OW 2324   2.476   3.631   0.501
  730SOL    HW1 2325   2.396   3.615   0.550
  730SOL    HW2 2326   2.541   3.574   0.542
  731SOL     OW 2327   0.755   3.870   1.043
  731SOL    HW1 2328   0.763   3.863   0.948
  731SOL    HW2 2329   0.692   3.941   1.057
  732SOL     OW 2330   1.572   0.846   2.965
  732SOL    HW1 2331   1.625   0.798   2.901
  732SOL    HW2 2332   1.635   0.873   3.032
  733SOL     OW 2333   0.146   3.501   1.500
  733SOL    HW1 2334   0.210   3.567   1.474
  733SOL    HW2 2335   0.100   3.540   1.575
  734SOL     OW 2336   1.778   2.006   3.350
  734SOL    HW1 2337   1.845   2.014   3.283
  734SOL    HW2 2338   1.732   2.090   3.349
  735SOL     OW 2339   1.506   1.407   3.349
  735SOL    HW1 2340   1.443   1.353   3.301
  735SOL    HW2 2341   1.589   1.395   3.303
  736SOL     OW 2342   0.252   1.633   0.638
  736SOL    HW1 2343   0.182   1.663   0.697
  736SOL    HW2 2344   0.262   1.703   0.574
  737SOL     OW 2345   1.760   2.141   3.605
  737SOL    HW1 2346   1.829   2.175   3.662
  737SOL    HW2 2347   1.806   2.093   3.536
  738SOL     OW 2348   3.406   1.139   0.122
  738SOL    HW1 2349   3.338   1.169   0.182
  738SOL    HW2 2350   3.487   1.143   0.174
  739SOL     OW 2351   0.953   1.236   3.223
  739SOL    HW1 2352   0.872   1.235   3.273
  739SOL    HW2 2353   0.953   1.153   3.176
  740SOL     OW 2354   2.650   2.344   0.056
  740SOL    HW1 2355   2.557   2.333   0.034
  740SOL    HW2 2356   2.652   2.423   0.111
  741SOL     OW 2357   2.060   2.455   3.441
  741SOL    HW1 2358   2.038   2.479   3.351
  741SOL    HW2 2359   2.079   2.362   3.438
  742SOL     OW 2360   0.614   3.046   0.997
  742SOL    HW1 2361   0.565   3.118   1.036
  742SOL    HW2 2362   0.634   2.988   1.071
  743SOL     OW 2363   2.358   2.216   3.083
  743SOL    HW1 2364   2.341   2.191   2.992
  743SOL    HW2 2365   2.327   2.306   3.089
  744SOL     OW 2366   1.515   3.861   2.693
  744SOL    HW1 2367   1.540   3.947   2.728
  744SOL    HW2 2368   1.486   3.812   2.771
  745SOL     OW 2369   3.263   0.126   0.128
  745SOL    HW1 2370   3.190   0.111   0.068
  745SOL    HW2 2371   3.294   0.214   0.107
  746SOL     OW 2372   1.049   0.985   2.993
  746SOL    HW1 2373   1.013   1.042   2.925
  746SOL    HW2 2374   1.021   0.897   2.968
  747SOL     OW 2375   3.221   3.023   0.677
  747SOL    HW1 2376   3.214   3.116   0.697
  747SOL    HW2 2377   3.135   3.000   0.641
  748SOL     OW 2378   3.283   2.930   2.387
  748SOL    HW1 2379   3.335   2.850   2.379
  748SOL    HW2 2380   3.192   2.901   2.378
  749SOL     OW 2381   0.692   0.745   2.858
  749SOL    HW1 2382   0.607   0.788   2.852
  749SOL    HW2 2383   0.699   0.694   2.778
  750SOL     OW 2384   2.710   3.840   3.140
  750SOL    HW1 2385   2.691   3.812   3.051
  750SOL    HW2 2386   2.684   3.766   3.195
  751SOL     OW 2387   2.720   3.802   1.579
  751SOL    HW1 2388   2.658   3.854   1.528
  751SOL    HW2 2389   2.668   3.728   1.612
  752SOL     OW 2390   0.588   3.582   1.464
  752SOL    HW1 2391   0.615   3.610   1.551
  752SOL    HW2 2392   0.626   3.646   1.405
  753SOL     OW 2393   2.045   2.169   2.359
  753SOL    HW1 2394   2.080   2.092   2.313
  753SOL    HW2 2395   1.960   2.185   2.318
  754SOL     OW 2396   0.435   0.317   2.764
  754SOL    HW1 2397   0.445   0.333   2.670
  754SOL    HW2 2398   0.344   0.289   2.775
  755SOL     OW 2399   3.242   2.679   3.628
  755SOL    HW1 2400   3.255   2.710   3.718
  755SOL    HW2 2401   3.231   2.584   3.637
  756SOL     OW 2402   3.889   0.007   1.553
  756SOL    HW1 2403   3.962   0.002   1.492
  756SOL    HW2 2404   3.903   0.090   1.600
  757SOL     OW 2405   1.832   0.400   0.713
  757SOL    HW1 2406   1.916   0.362   0.739
  757SOL    HW2 2407   1.837   0.403   0.617
  758SOL     OW 2408   3.337   1.807   1.525
  758SOL    HW1 2409   3.382   1.882   1.487
  758SOL    HW2 2410   3.244   1.829   1.519
  759SOL     OW 2411   0.698   3.397   0.593
  759SOL    HW1 2412   0.690   3.427   0.684
  759SOL    HW2 2413   0.622   3.340   0.580
  760SOL     OW 2414   2.945   2.326   1.596
  760SOL    HW1 2415   2.859   2.350   1.560
  760SOL    HW2 2416   2.952   2.375   1.677
  761SOL     OW 2417   2.944   2.787   1.342
  761SOL    HW1 2418   2.935   2.881   1.357
  761SOL    HW2 2419   2.945   2.778   1.247
  762SOL     OW 2420   0.409   0.048   2.017
  762SOL    HW1 2421   0.419   0.078   2.108
  762SOL    HW2 2422   0.344  -0.022   2.022
  763SOL     OW 2423   1.068   0.099   3.767
  763SOL    HW1 2424   0.978   0.086   3.795
  763SOL    HW2 2425   1.110   0.014   3.783
  764SOL     OW 2426   3.808   0.517   2.422
  764SOL    HW1 2427   3.849   0.561   2.497
  764SOL    HW2 2428   3.734   0.470   2.461
  765SOL     OW 2429   2.478   2.416   1.513
  765SOL    HW1 2430   2.409   2.367   1.558
  765SOL    HW2 2431   2.491   2.494   1.566
  766SOL     OW 2432   3.417   2.810   0.394
  766SOL    HW1 2433   3.384   2.721   0.382
  766SOL    HW2 2434   3.352   2.853   0.450
  767SOL     OW 2435   3.511   0.192   2.841
  767SOL    HW1 2436   3.462   0.273   2.857
  767SOL    HW2 2437   3.570   0.185   2.916
  768SOL     OW 2438   2.968   2.456   1.302
  768SOL    HW1 2439   3.044   2.399   1.313
  768SOL    HW2 2440   2.924   2.452   1.387
  769SOL     OW 2441   3.823   3.248   3.021
  769SOL    HW1 2442   3.871   3.175   3.061
  769SOL    HW2 2443   3.733   3.215   3.013
  770SOL     OW 2444   0.617   2.323   2.489
  770SOL    HW1 2445   0.695   2.287   2.531
  770SOL    HW2 2446   0.616   2.415   2.515
  771SOL     OW 2447   0.187   1.647   1.293
  771SOL    HW1 2448   0.201   1.553   1.300
  771SOL    HW2 2449   0.180   1.664   1.199
  772SOL     OW 2450   1.957   0.952   2.504
  772SOL    HW1 2451   1.919   0.995   2.581
  772SOL    HW2 2452   2.052   0.964   2.515
  773SOL     OW 2453   0.374   1.232   0.791
  773SOL    HW1 2454   0.294   1.283   0.804
  773SOL    HW2 2455   0.351   1.144   0.821
  774SOL     OW 2456   1.505   3.709   2.905
  774SOL    HW1 2457   1.434   3.649   2.926
  774SOL    HW2 2458   1.579   3.652   2.884
  775SOL     OW 2459   2.995   1.365   2.480
  775SOL    HW1 2460   3.087   1.341   2.479
  775SOL    HW2 2461   2.962   1.336   2.395
  776SOL     OW 2462   0.287   3.818   0.703
  776SOL    HW1 2463   0.196   3.789   0.706
  776SOL    HW2 2464   0.334   3.744   0.664
  777SOL     OW 2465   2.649   3.049   0.144
  777SOL    HW1 2466   2.632   3.142   0.133
  777SOL    HW2 2467   2.663   3.038   0.238
  778SOL     OW 2468   0.140   2.925   2.937
  778SOL    HW1 2469   0.186   2.989   2.882
  778SOL    HW2 2470   0.110   2.976   3.012
  779SOL     OW 2471   3.567   2.388   2.154
  779SOL    HW1 2472   3.621   2.310   2.162
  779SOL    HW2 2473   3.631   2.460   2.145
  780SOL     OW 2474   1.398   1.491   2.640
  780SOL    HW1 2475   1.490   1.518   2.640
  780SOL    HW2 2476   1.400   1.400   2.611
  781SOL     OW 2477   0.867   1.336   2.919
  781SOL    HW1 2478   0.846   1.426   2.941
  781SOL    HW2 2479   0.959   1.339   2.891
  782SOL     OW 2480   3.142   3.320   0.073
  782SOL    HW1 2481   3.152   3.229   0.045
  782SOL    HW2 2482   3.183   3.371   0.003
  783SOL     OW 2483   0.434   0.509   3.754
  783SOL    HW1 2484   0.377   0.436   3.780
  783SOL    HW2 2485   0.462   0.486   3.666
  784SOL     OW 2486   1.050   2.224   3.946
  784SOL    HW1 2487   1.109   2.291   3.981
  784SOL    HW2 2488   1.019   2.260   3.863
  785SOL     OW 2489   1.021   3.389   3.170
  785SOL    HW1 2490   1.021   3.485   3.165
  785SOL    HW2 2491   1.113   3.365   3.166
  786SOL     OW 2492   2.756   3.794   2.875
  786SOL    HW1 2493   2.692   3.785   2.804
  786SOL    HW2 2494   2.840   3.807   2.830
  787SOL     OW 2495   1.337   0.307   0.211
  787SOL    HW1 2496   1.370   0.352   0.134
  787SOL    HW2 2497   1.383   0.348   0.285
  788SOL     OW 2498   3.022   1.646   0.157
  788SOL    HW1 2499   2.973   1.583   0.210
  788SOL    HW2 2500   2.961   1.718   0.144
  789SOL     OW 2501   3.527   0.416   3.513
  789SOL    HW1 2502   3.474   0.481   3.558
  789SOL    HW2 2503   3.511   0.334   3.560
  790SOL     OW 2504   0.498   2.567   0.834
  790SOL    HW1 2505   0.440   2.589   0.907
  790SOL    HW2 2506   0.569   2.517   0.875
  791SOL     OW 2507   0.105   0.394   2.714
  791SOL    HW1 2508   0.078   0.303   2.731
  791SOL    HW2 2509   0.037   0.447   2.755
  792SOL     OW 2510   3.702   1.210   2.693
  792SOL    HW1 2511   3.721   1.301   2.715
  792SOL    HW2 2512   3.739   1.198   2.606
  793SOL     OW 2513   0.182   1.878   2.858
  793SOL    HW1 2514   0.197   1.813   2.927
  793SOL    HW2 2515   0.235   1.846   2.784
  794SOL     OW 2516   3.061   3.302   0.458
  794SOL    HW1 2517   3.138   3.249   0.437
  794SOL    HW2 2518   3.040   3.279   0.548
  795SOL     OW 2519   0.114   2.626   3.382
  795SOL    HW1 2520   0.075   2.548   3.341
  795SOL    HW2 2521   0.200   2.597   3.411
  796SOL     OW 2522   3.441   0.667   1.002
  796SOL    HW1 2523   3.511   0.723   1.035
  796SOL    HW2 2524   3.434   0.596   1.067
  797SOL     OW 2525   1.035   2.112   2.122
  797SOL    HW1 2526   0.988   2.030   2.106
  797SOL    HW2 2527   1.107   2.112   2.059
  798SOL     OW 2528   3.849   1.233   0.865
  798SOL    HW1 2529   3.789   1.254   0.937
  798SOL    HW2 2530   3.819   1.148   0.833
  799SOL     OW 2531   3.838   3.454   1.564
  799SOL    HW1 2532   3.873   3.543   1.562
  799SOL    HW2 2533   3.883   3.412   1.637
  800SOL     OW 2534   3.438   1.972   2.669
  800SOL    HW1 2535   3.412   1.917   2.595
  800SOL    HW2 2536   3.395   2.056   2.653
  801SOL     OW 2537   0.270   2.629   2.576
  801SOL    HW1 2538   0.277   2.547   2.526
  801SOL    HW2 2539   0.325   2.691   2.528
  802SOL     OW 2540   1.725   1.308   2.308
  802SOL    HW1 2541   1.777   1.249   2.254
  802SOL    HW2 2542   1.680   1.250   2.370
  803SOL     OW 2543   0.334   2.248   1.630
  803SOL    HW1 2544   0.245   2.221   1.607
  803SOL    HW2 2545   0.378   2.261   1.546
  804SOL     OW 2546   1.106   3.626   1.257
  804SOL    HW1 2547   1.072   3.710   1.227
  804SOL    HW2 2548   1.113   3.637   1.352
  805SOL     OW 2549   1.824   0.606   2.346
  805SOL    HW1 2550   1.873   0.655   2.280
  805SOL    HW2 2551   1.862   0.518   2.344
  806SOL     OW 2552   0.155   2.069   1.490
  806SOL    HW1 2553   0.181   2.062   1.398
  806SOL    HW2 2554   0.063   2.097   1.487
  807SOL     OW 2555   2.215   2.246   0.704
  807SOL    HW1 2556   2.173   2.321   0.747
  807SOL    HW2 2557   2.279   2.216   0.768
  808SOL     OW 2558   2.733   1.367   2.905
  808SOL    HW1 2559   2.665   1.434   2.907
  808SOL    HW2 2560   2.698   1.297   2.961
  809SOL     OW 2561   3.110   2.748   0.282
  809SOL    HW1 2562   3.123   2.806   0.207
  809SOL    HW2 2563   3.190   2.695   0.285
  810SOL     OW 2564   1.429   2.076   3.491
  810SOL    HW1 2565   1.483   1.997   3.481
  810SOL    HW2 2566   1.476   2.130   3.554
  811SOL     OW 2567   2.675   0.632   2.659
  811SOL    HW1 2568   2.768   0.649   2.646
  811SOL    HW2 2569   2.669   0.537   2.673
  812SOL     OW 2570   1.933   3.567   1.614
  812SOL    HW1 2571   1.921   3.480   1.577
  812SOL    HW2 2572   1.859   3.618   1.580
  813SOL     OW 2573   0.178   3.919   1.431
  813SOL    HW1 2574   0.222   3.990   1.479
  813SOL    HW2 2575   0.242   3.847   1.432
  814SOL     OW 2576   2.608   0.852   3.561
  814SOL    HW1 2577   2.694   0.816   3.582
  814SOL    HW2 2578   2.621   0.899   3.478
  815SOL     OW 2579   1.992   2.413   1.513
  815SOL    HW1 2580   2.005   2.433   1.420
  815SOL    HW2 2581   1.898   2.398   1.522
  816SOL     OW 2582   1.396   1.004   2.215
  816SOL    HW1 2583   1.365   0.919   2.183
  816SOL    HW2 2584   1.486   0.987   2.244
  817SOL     OW 2585   1.519   3.796   0.567
  817SOL    HW1 2586   1.551   3.706   0.561
  817SOL    HW2 2587   1.595   3.850   0.545
  818SOL     OW 2588   2.974   1.627   2.422
  818SOL    HW1 2589   2.909   1.627   2.352
  818SOL    HW2 2590   2.991   1.534   2.439
  819SOL     OW 2591   3.729   1.585   0.031
  819SOL    HW1 2592   3.641   1.623   0.024
  819SOL    HW2 2593   3.731   1.546   0.119
  820SOL     OW 2594   0.508   2.390   1.782
  820SOL    HW1 2595   0.576   2.328   1.756
  820SOL    HW2 2596   0.431   2.363   1.733
  821SOL     OW 2597   0.630   0.422   0.092
  821SOL    HW1 2598   0.680   0.425   0.174
  821SOL    HW2 2599   0.695   0.404   0.025
  822SOL     OW 2600   0.314   0.753   1.333
  822SOL    HW1 2601   0.263   0.784   1.409
  822SOL    HW2 2602   0.397   0.723   1.371
  823SOL     OW 2603   3.384   2.561   3.906
  823SOL    HW1 2604   3.396   2.467   3.895
  823SOL    HW2 2605   3.299   2.579   3.865
  824SOL     OW 2606   3.474   1.826   0.873
  824SOL    HW1 2607   3.392   1.806   0.917
  824SOL    HW2 2608   3.474   1.769   0.796
  825SOL     OW 2609   1.802   0.708   2.609
  825SOL    HW1 2610   1.833   0.678   2.524
  825SOL    HW2 2611   1.810   0.804   2.605
  826SOL     OW 2612   3.759   2.686   2.725
  826SOL    HW1 2613   3.825   2.698   2.657
  826SOL    HW2 2614   3.720   2.600   2.706
  827SOL     OW 2615   2.434   2.687   1.057
  827SOL    HW1 2616   2.351   2.735   1.049
  827SOL    HW2 2617   2.408   2.596   1.075
  828SOL     OW 2618   3.907   1.123   2.918
  828SOL    HW1 2619   3.939   1.209   2.948
  828SOL    HW2 2620   3.823   1.143   2.876
  829SOL     OW 2621   0.924   3.848   0.025
  829SOL    HW1 2622   0.927   3.906   0.101
  829SOL    HW2 2623   0.831   3.844   0.001
  830SOL     OW 2624   2.693   3.456   0.263
  830SOL    HW1 2625   2.705   3.409   0.345
  830SOL    HW2 2626   2.761   3.421   0.205
  831SOL     OW 2627   1.600   0.068   3.834
  831SOL    HW1 2628   1.565   0.149   3.797
  831SOL    HW2 2629   1.528   0.006   3.830
  832SOL     OW 2630   1.584   2.384   1.895
  832SOL    HW1 2631   1.662   2.338   1.864
  832SOL    HW2 2632   1.533   2.400   1.816
  833SOL     OW 2633   0.945   2.847   1.589
  833SOL    HW1 2634   0.965   2.765   1.545
  833SOL    HW2 2635   0.887   2.894   1.529
  834SOL     OW 2636   3.242   3.349   3.426
  834SOL    HW1 2637   3.206   3.433   3.455
  834SOL    HW2 2638   3.333   3.349   3.458
  835SOL     OW 2639   0.034   0.778   3.509
  835SOL    HW1 2640   0.095   0.720   3.555
  835SOL    HW2 2641   0.001   0.836   3.577
  836SOL     OW 2642   2.509   1.441   1.167
  836SOL    HW1 2643   2.542   1.364   1.213
  836SOL    HW2 2644   2.469   1.406   1.087
  837SOL     OW 2645   0.266   2.990   0.600
  837SOL    HW1 2646   0.309   2.970   0.684
  837SOL    HW2 2647   0.332   3.041   0.552
  838SOL     OW 2648   3.228   3.169   1.835
  838SOL    HW1 2649   3.260   3.081   1.858
  838SOL    HW2 2650   3.219   3.167   1.740
  839SOL     OW 2651   2.606   3.542   2.447
  839SOL    HW1 2652   2.582   3.465   2.499
  839SOL    HW2 2653   2.651   3.505   2.371
  840SOL     OW 2654   2.384   0.600   2.989
  840SOL    HW1 2655   2.417   0.514   2.962
  840SOL    HW2 2656   2.396   0.656   2.912
  841SOL     OW 2657   2.087   3.740   0.375
  841SOL    HW1 2658   2.059   3.757   0.465
  841SOL    HW2 2659   2.114   3.826   0.342
  842SOL     OW 2660   1.331   1.062   0.144
  842SOL    HW1 2661   1.247   1.021   0.125
  842SOL    HW2 2662   1.346   1.121   0.070
  843SOL     OW 2663   0.923   3.354   2.488
  843SOL    HW1 2664   0.945   3.272   2.532
  843SOL    HW2 2665   0.984   3.418   2.524
  844SOL     OW 2666   1.881   0.965   3.366
  844SOL    HW1 2667   1.955   0.994   3.312
  844SOL    HW2 2668   1.917   0.960   3.455
  845SOL     OW 2669   1.535   2.599   2.069
  845SOL    HW1 2670   1.569   2.531   2.010
  845SOL    HW2 2671   1.614   2.646   2.098
  846SOL     OW 2672   0.532   3.448   1.835
  846SOL    HW1 2673   0.493   3.379   1.781
  846SOL    HW2 2674   0.603   3.405   1.881
  847SOL     OW 2675   2.034   1.887   2.264
  847SOL    HW1 2676   2.115   1.850   2.230
  847SOL    HW2 2677   2.017   1.838   2.344
  848SOL     OW 2678   3.588   1.352   3.576
  848SOL    HW1 2679   3.666   1.303   3.604
  848SOL    HW2 2680   3.515   1.307   3.618
  849SOL     OW 2681   0.412   2.698   1.694
  849SOL    HW1 2682   0.482   2.691   1.759
  849SOL    HW2 2683   0.451   2.665   1.613
  850SOL     OW 2684   1.893   2.837   2.267
  850SOL    HW1 2685   1.943   2.915   2.242
  850SOL    HW2 2686   1.812   2.871   2.305
  851SOL     OW 2687   0.288   2.225   3.200
  851SOL    HW1 2688   0.238   2.305   3.213
  851SOL    HW2 2689   0.378   2.248   3.222
  852SOL     OW 2690   0.511   1.774   1.645
  852SOL    HW1 2691   0.456   1.844   1.679
  852SOL    HW2 2692   0.600   1.799   1.672
  853SOL     OW 2693   2.653   2.835   0.979
  853SOL    HW1 2694   2.729   2.776   0.986
  853SOL    HW2 2695   2.578   2.780   1.003
  854SOL     OW 2696   0.578   1.055   2.646
  854SOL    HW1 2697   0.600   1.108   2.722
  854SOL    HW2 2698   0.532   0.979   2.681
  855SOL     OW 2699   0.565   0.515   1.692
  855SOL    HW1 2700   0.552   0.499   1.598
  855SOL    HW2 2701   0.592   0.431   1.728
  856SOL     OW 2702   0.117   3.070   3.428
  856SOL    HW1 2703   0.069   3.022   3.496
  856SOL    HW2 2704   0.186   3.009   3.401
  857SOL     OW 2705   1.778   3.711   3.174
  857SOL    HW1 2706   1.798   3.750   3.088
  857SOL    HW2 2707   1.781   3.617   3.159
  858SOL     OW 2708   3.571   2.669   1.479
  858SOL    HW1 2709   3.481   2.643   1.459
  858SOL    HW2 2710   3.626   2.606   1.432
  859SOL     OW 2711   2.553   0.951   2.938
  859SOL    HW1 2712   2.523   0.996   2.859
  859SOL    HW2 2713   2.610   0.881   2.905
  860SOL     OW 2714   1.885   2.794   2.606
  860SOL    HW1 2715   1.957   2.805   2.544
  860SOL    HW2 2716   1.826   2.868   2.588
  861SOL     OW 2717   1.927   3.922   1.722
  861SOL    HW1 2718   1.845   3.874   1.733
  861SOL    HW2 2719   1.950   3.910   1.630
  862SOL     OW 2720   2.248   2.249   3.698
  862SOL    HW1 2721   2.269   2.156   3.702
  862SOL    HW2 2722   2.173   2.254   3.638
  863SOL     OW 2723   0.324   0.873   0.417
  863SOL    HW1 2724   0.392   0.807   0.404
  863SOL    HW2 2725   0.246   0.823   0.440
  864SOL     OW 2726   2.354   3.311   2.954
  864SOL    HW1 2727   2.366   3.249   3.025
  864SOL    HW2 2728   2.271   3.355   2.973
  865SOL     OW 2729   1.814   2.159   1.445
  865SOL    HW1 2730   1.834   2.155   1.352
  865SOL    HW2 2731   1.763   2.079   1.462
  866SOL     OW 2732   2.927   0.157   1.336
  866SOL    HW1 2733   3.010   0.111   1.333
  866SOL    HW2 2734   2.888   0.143   1.250
  867SOL     OW 2735   2.590   0.427   0.303
  867SOL    HW1 2736   2.600   0.334   0.324
  867SOL    HW2 2737   2.536   0.461   0.374
  868SOL     OW 2738   3.353   0.963   2.253
  868SOL    HW1 2739   3.342   0.942   2.346
  868SOL    HW2 2740   3.433   0.916   2.228
  869SOL     OW 2741   1.312   3.008   1.778
  869SOL    HW1 2742   1.303   2.930   1.832
  869SOL    HW2 2743   1.351   2.976   1.696
  870SOL     OW 2744   1.754   3.416   2.471
  870SOL    HW1 2745   1.706   3.494   2.499
  870SOL    HW2 2746   1.825   3.450   2.417
  871SOL     OW 2747   3.793   3.342   0.291
  871SOL    HW1 2748   3.845   3.413   0.252
  871SOL    HW2 2749   3.808   3.267   0.234
  872SOL     OW 2750   0.852   1.716   0.781
  872SOL    HW1 2751   0.814   1.709   0.693
  872SOL    HW2 2752   0.936   1.760   0.767
  873SOL     OW 2753   2.139   2.323   0.434
  873SOL    HW1 2754   2.141   2.284   0.521
  873SOL    HW2 2755   2.141   2.248   0.374
  874SOL     OW 2756   1.045   0.830   1.752
  874SOL    HW1 2757   1.041   0.808   1.659
  874SOL    HW2 2758   1.094   0.758   1.792
  875SOL     OW 2759   3.148   0.971   0.498
  875SOL    HW1 2760   3.183   1.042   0.443
  875SOL    HW2 2761   3.071   0.940   0.450
  876SOL     OW 2762   3.815   2.260   0.307
  876SOL    HW1 2763   3.784   2.309   0.383
  876SOL    HW2 2764   3.903   2.231   0.332
  877SOL     OW 2765   1.265   3.291   3.173
  877SOL    HW1 2766   1.351   3.332   3.179
  877SOL    HW2 2767   1.280   3.200   3.201
  878SOL     OW 2768   2.850   0.730   3.631
  878SOL    HW1 2769   2.913   0.768   3.570
  878SOL    HW2 2770   2.860   0.636   3.621
  879SOL     OW 2771   2.460   3.295   2.358
  879SOL    HW1 2772   2.540   3.328   2.316
  879SOL    HW2 2773   2.487   3.213   2.400
  880SOL     OW 2774   3.448   0.167   3.627
  880SOL    HW1 2775   3.353   0.159   3.635
  880SOL    HW2 2776   3.472   0.103   3.559
  881SOL     OW 2777   1.534   2.137   1.644
  881SOL    HW1 2778   1.570   2.152   1.731
  881SOL    HW2 2779   1.561   2.214   1.593
  882SOL     OW 2780   2.593   0.335   2.007
  882SOL    HW1 2781   2.540   0.387   1.947
  882SOL    HW2 2782   2.575   0.373   2.093
  883SOL     OW 2783   0.102   2.578   1.353
  883SOL    HW1 2784   0.164   2.642   1.388
  883SOL    HW2 2785   0.134   2.493   1.384
  884SOL     OW 2786   1.794   0.293   1.769
  884SOL    HW1 2787   1.707   0.259   1.790
  884SOL    HW2 2788   1.854   0.246   1.827
  885SOL     OW 2789   3.264   0.080   0.653
  885SOL    HW1 2790   3.259   0.054   0.561
  885SOL    HW2 2791   3.204   0.154   0.660
  886SOL     OW 2792   1.710   2.392   0.604
  886SOL    HW1 2793   1.679   2.459   0.665
  886SOL    HW2 2794   1.759   2.440   0.538
  887SOL     OW 2795   1.138   1.808   0.777
  887SOL    HW1 2796   1.205   1.765   0.724
  887SOL    HW2 2797   1.149   1.901   0.757
  888SOL     OW 2798   0.149   1.060   1.359
  888SOL    HW1 2799   0.136   1.130   1.424
  888SOL    HW2 2800   0.142   1.104   1.274
  889SOL     OW 2801   3.858   3.234   0.917
  889SOL    HW1 2802   3.953   3.246   0.910
  889SOL    HW2 2803   3.843   3.143   0.890
  890SOL     OW 2804   2.009   2.648   0.942
  890SOL    HW1 2805   2.039   2.568   0.985
  890SOL    HW2 2806   2.054   2.718   0.988
  891SOL     OW 2807   2.853   2.091   0.266
  891SOL    HW1 2808   2.841   1.999   0.243
  891SOL    HW2 2809   2.767   2.131   0.254
  892SOL     OW 2810   2.749   2.746   1.908
  892SOL    HW1 2811   2.738   2.819   1.847
  892SOL    HW2 2812   2.844   2.736   1.917
  893SOL     OW 2813   3.303   0.564   1.833
  893SOL    HW1 2814   3.264   0.585   1.918
  893SOL    HW2 2815   3.254   0.619   1.771
  894SOL     OW 2816  -0.023   0.933   3.117
  894SOL    HW1 2817  -0.023   1.003   3.052
  894SOL    HW2 2818   0.058   0.885   3.101
  895SOL     OW 2819   0.430   2.081   2.657
  895SOL    HW1 2820   0.480   2.138   2.598
  895SOL    HW2 2821   0.442   2.120   2.743
  896SOL     OW 2822   0.756   0.792   2.211
  896SOL    HW1 2823   0.832   0.805   2.268
  896SOL    HW2 2824   0.760   0.863   2.148
  897SOL     OW 2825   1.287   3.911   3.510
  897SOL    HW1 2826   1.380   3.901   3.527
  897SOL    HW2 2827   1.280   3.992   3.459
  898SOL     OW 2828   2.948   1.209   0.026
  898SOL    HW1 2829   2.918   1.248   0.108
  898SOL    HW2 2830   2.904   1.259  -0.043
  899SOL     OW 2831   2.738   1.202   2.655
  899SOL    HW1 2832   2.814   1.242   2.696
  899SOL    HW2 2833   2.664   1.232   2.707
  900SOL     OW 2834   1.080   1.118   1.909
  900SOL    HW1 2835   1.072   1.029   1.875
  900SOL    HW2 2836   1.116   1.107   1.997
  901SOL     OW 2837   1.439   0.373   0.868
  901SOL    HW1 2838   1.499   0.448   0.860
  901SOL    HW2 2839   1.488   0.299   0.832
  902SOL     OW 2840   2.966   0.429   1.939
  902SOL    HW1 2841   2.957   0.523   1.924
  902SOL    HW2 2842   2.914   0.412   2.017
  903SOL     OW 2843   2.392   2.303   2.149
  903SOL    HW1 2844   2.445   2.367   2.198
  903SOL    HW2 2845   2.428   2.218   2.175
  904SOL     OW 2846   2.340   0.873   1.192
  904SOL    HW1 2847   2.303   0.807   1.251
  904SOL    HW2 2848   2.264   0.926   1.166
  905SOL     OW 2849   0.111   2.015   1.200
  905SOL    HW1 2850   0.184   1.976   1.152
  905SOL    HW2 2851   0.063   2.065   1.133
  906SOL     OW 2852   2.366   1.518   2.680
  906SOL    HW1 2853   2.309   1.565   2.620
  906SOL    HW2 2854   2.451   1.561   2.670
  907SOL     OW 2855   3.564   0.589   2.232
  907SOL    HW1 2856   3.602   0.674   2.209
  907SOL    HW2 2857   3.639   0.538   2.264
  908SOL     OW 2858   3.433   3.517   3.630
  908SOL    HW1 2859   3.443   3.589   3.568
  908SOL    HW2 2860   3.522   3.486   3.646
  909SOL     OW 2861   0.643   1.237   1.697
  909SOL    HW1 2862   0.591   1.166   1.733
  909SOL    HW2 2863   0.578   1.301   1.666
  910SOL     OW 2864   2.585   1.674   2.646
  910SOL    HW1 2865   2.664   1.621   2.644
  910SOL    HW2 2866   2.603   1.743   2.711
  911SOL     OW 2867   3.577   0.169   0.209
  911SOL    HW1 2868   3.566   0.081   0.173
  911SOL    HW2 2869   3.579   0.156   0.304
  912SOL     OW 2870   0.880   2.688   0.019
  912SOL    HW1 2871   0.836   2.685  -0.065
  912SOL    HW2 2872   0.815   2.723   0.080
  913SOL     OW 2873   1.511   3.501   1.279
  913SOL    HW1 2874   1.547   3.560   1.213
  913SOL    HW2 2875   1.448   3.447   1.231
  914SOL     OW 2876   2.212   2.837   1.044
  914SOL    HW1 2877   2.194   2.903   1.110
  914SOL    HW2 2878   2.258   2.884   0.975
  915SOL     OW 2879   3.547   3.696   0.976
  915SOL    HW1 2880   3.504   3.781   0.972
  915SOL    HW2 2881   3.548   3.673   1.069
  916SOL     OW 2882   1.191   2.170   3.101
  916SOL    HW1 2883   1.279   2.199   3.076
  916SOL    HW2 2884   1.132   2.235   3.062
  917SOL     OW 2885   2.741   0.751   2.923
  917SOL    HW1 2886   2.824   0.793   2.898
  917SOL    HW2 2887   2.758   0.658   2.916
  918SOL     OW 2888   0.897   0.195   0.635
  918SOL    HW1 2889   0.899   0.106   0.600
  918SOL    HW2 2890   0.935   0.187   0.722
  919SOL     OW 2891   0.631   0.525   0.506
  919SOL    HW1 2892   0.657   0.485   0.589
  919SOL    HW2 2893   0.680   0.476   0.440
  920SOL     OW 2894   3.384   3.399   2.515
  920SOL    HW1 2895   3.356   3.314   2.549
  920SOL    HW2 2896   3.322   3.418   2.445
  921SOL     OW 2897   3.042   3.149   2.241
  921SOL    HW1 2898   2.987   3.108   2.175
  921SOL    HW2 2899   3.113   3.190   2.192
  922SOL     OW 2900   3.268   1.033   3.203
  922SOL    HW1 2901   3.271   1.045   3.108
  922SOL    HW2 2902   3.350   0.987   3.224
  923SOL     OW 2903   0.379   1.426   2.732
  923SOL    HW1 2904   0.470   1.397   2.723
  923SOL    HW2 2905   0.332   1.381   2.662
  924SOL     OW 2906   2.885   3.012   3.064
  924SOL    HW1 2907   2.867   3.075   3.133
  924SOL    HW2 2908   2.844   2.931   3.094
  925SOL     OW 2909   2.424   2.876   2.709
  925SOL    HW1 2910   2.490   2.855   2.642
  925SOL    HW2 2911   2.473   2.876   2.791
  926SOL     OW 2912   3.855   1.502   1.494
  926SOL    HW1 2913   3.850   1.498   1.589
  926SOL    HW2 2914   3.868   1.595   1.474
  927SOL     OW 2915   2.523   3.166   2.772
  927SOL    HW1 2916   2.467   3.207   2.838
  927SOL    HW2 2917   2.598   3.133   2.821
  928SOL     OW 2918   1.338   3.031   0.791
  928SOL    HW1 2919   1.425   3.070   0.779
  928SOL    HW2 2920   1.309   3.063   0.877
  929SOL     OW 2921   1.692   1.002   3.645
  929SOL    HW1 2922   1.703   1.091   3.679
  929SOL    HW2 2923   1.599   0.993   3.628
  930SOL     OW 2924   0.112   1.767   3.551
  930SOL    HW1 2925   0.018   1.785   3.542
  930SOL    HW2 2926   0.155   1.844   3.513
  931SOL     OW 2927   0.993  -0.001   3.008
  931SOL    HW1 2928   1.027  -0.018   3.096
  931SOL    HW2 2929   1.061   0.051   2.965
  932SOL     OW 2930   3.420   1.249   3.758
  932SOL    HW1 2931   3.468   1.279   3.835
  932SOL    HW2 2932   3.443   1.156   3.749
  933SOL     OW 2933   2.247   0.927   2.491
  933SOL    HW1 2934   2.308   0.975   2.435
  933SOL    HW2 2935   2.250   0.837   2.457
  934SOL     OW 2936   3.461   3.320   1.491
  934SOL    HW1 2937   3.508   3.367   1.560
  934SOL    HW2 2938   3.370   3.350   1.499
  935SOL     OW 2939   2.923   1.382   1.096
  935SOL    HW1 2940   2.858   1.451   1.078
  935SOL    HW2 2941   2.889   1.305   1.051
  936SOL     OW 2942   3.673   0.130   3.067
  936SOL    HW1 2943   3.764   0.108   3.086
  936SOL    HW2 2944   3.650   0.196   3.133
  937SOL     OW 2945   0.338   3.354   0.659
  937SOL    HW1 2946   0.310   3.313   0.740
  937SOL    HW2 2947   0.260   3.355   0.604
  938SOL     OW 2948   0.694   2.091   0.841
  938SOL    HW1 2949   0.754   2.070   0.770
  938SOL    HW2 2950   0.677   2.006   0.883
  939SOL     OW 2951   2.361   2.442   2.797
  939SOL    HW1 2952   2.436   2.475   2.846
  939SOL    HW2 2953   2.398   2.412   2.714
  940SOL     OW 2954   1.305   2.001   1.712
  940SOL    HW1 2955   1.272   2.032   1.796
  940SOL    HW2 2956   1.357   2.073   1.677
  941SOL     OW 2957   2.567   2.965   3.840
  941SOL    HW1 2958   2.586   2.883   3.886
  941SOL    HW2 2959   2.494   3.004   3.888
  942SOL     OW 2960   3.258   3.793   3.677
  942SOL    HW1 2961   3.342   3.830   3.704
  942SOL    HW2 2962   3.193   3.835   3.733
  943SOL     OW 2963   0.935   1.959   2.380
  943SOL    HW1 2964   0.955   1.946   2.473
  943SOL    HW2 2965   0.986   1.892   2.335
  944SOL     OW 2966   1.165   1.566   2.726
  944SOL    HW1 2967   1.137   1.620   2.652
  944SOL    HW2 2968   1.247   1.526   2.697
  945SOL     OW 2969   0.954   0.751   2.942
  945SOL    HW1 2970   0.862   0.778   2.930
  945SOL    HW2 2971   0.965   0.678   2.882
  946SOL     OW 2972   2.273   1.830   3.120
  946SOL    HW1 2973   2.222   1.778   3.058
  946SOL    HW2 2974   2.358   1.842   3.076
  947SOL     OW 2975   3.474   2.323   3.599
  947SOL    HW1 2976   3.485   2.249   3.659
  947SOL    HW2 2977   3.385   2.354   3.616
  948SOL     OW 2978   3.840   1.830   1.138
  948SOL    HW1 2979   3.901   1.900   1.115
  948SOL    HW2 2980   3.869   1.800   1.225
  949SOL     OW 2981   1.023   0.390   3.038
  949SOL    HW1 2982   1.116   0.370   3.030
  949SOL    HW2 2983   1.017   0.442   3.118
  950SOL     OW 2984   1.644   1.717   2.007
  950SOL    HW1 2985   1.569   1.683   2.056
  950SOL    HW2 2986   1.721   1.685   2.053
  951SOL     OW 2987   0.942   2.809   1.891
  951SOL    HW1 2988   0.962   2.718   1.915
  951SOL    HW2 2989   0.943   2.810   1.796
  952SOL     OW 2990   3.138   3.356   1.000
  952SOL    HW1 2991   3.125   3.449   1.019
  952SOL    HW2 2992   3.230   3.340   1.024
  953SOL     OW 2993   0.863   1.632   1.401
  953SOL    HW1 2994   0.908   1.592   1.475
  953SOL    HW2 2995   0.909   1.715   1.387
  954SOL     OW 2996   1.735   2.384   2.563
  954SOL    HW1 2997   1.665   2.324   2.536
  954SOL    HW2 2998   1.795   2.386   2.488
  955SOL     OW 2999   1.260   1.767   3.162
  955SOL    HW1 3000   1.339   1.811   3.192
  955SOL    HW2 3001   1.226   1.721   3.238
  956SOL     OW 3002   2.307   0.381   2.756
  956SOL    HW1 3003   2.290   0.402   2.664
  956SOL    HW2 3004   2.228   0.408   2.802
  957SOL     OW 3005   3.263   1.359   3.192
  957SOL    HW1 3006   3.330   1.373   3.258
  957SOL    HW2 3007   3.308   1.371   3.108
  958SOL     OW 3008   0.822   2.700   0.646
  958SOL    HW1 3009   0.837   2.745   0.730
  958SOL    HW2 3010   0.728   2.710   0.631
  959SOL     OW 3011   0.300   1.152   3.310
  959SOL    HW1 3012   0.358   1.094   3.360
  959SOL    HW2 3013   0.212   1.119   3.328
  960SOL     OW 3014   2.488   0.931   1.719
  960SOL    HW1 3015   2.439   0.984   1.656
  960SOL    HW2 3016   2.571   0.913   1.675
  961SOL     OW 3017   2.265   0.668   3.466
  961SOL    HW1 3018   2.315   0.649   3.387
  961SOL    HW2 3019   2.176   0.639   3.446
  962SOL     OW 3020   1.966   1.395   3.732
  962SOL    HW1 3021   2.036   1.456   3.709
  962SOL    HW2 3022   1.994   1.357   3.815
  963SOL     OW 3023   2.555   1.940   1.540
  963SOL    HW1 3024   2.553   1.844   1.543
  963SOL    HW2 3025   2.490   1.964   1.475
  964SOL     OW 3026   2.029   3.062   2.203
  964SOL    HW1 3027   2.026   3.125   2.276
  964SOL    HW2 3028   2.122   3.053   2.183
  965SOL     OW 3029   0.155   2.699   0.205
  965SOL    HW1 3030   0.066   2.666   0.190
  965SOL    HW2 3031   0.156   2.723   0.298
  966SOL     OW 3032   0.544   3.788   2.109
  966SOL    HW1 3033   0.485   3.808   2.036
  966SOL    HW2 3034   0.608   3.859   2.108
  967SOL     OW 3035   3.819   3.837   2.807
  967SOL    HW1 3036   3.744   3.880   2.766
  967SOL    HW2 3037   3.784   3.798   2.887
  968SOL     OW 3038   3.439   2.558   3.249
  968SOL    HW1 3039   3.475   2.517   3.328
  968SOL    HW2 3040   3.494   2.526   3.178
  969SOL     OW 3041   2.706   2.080   1.719
  969SOL    HW1 3042   2.780   2.027   1.750
  969SOL    HW2 3043   2.660   2.023   1.658
  970SOL     OW 3044   0.287   0.237   1.867
  970SOL    HW1 3045   0.355   0.303   1.862
  970SOL    HW2 3046   0.332   0.158   1.898
  971SOL     OW 3047   3.683   2.954   1.891
  971SOL    HW1 3048   3.664   3.047   1.905
  971SOL    HW2 3049   3.655   2.937   1.802
  972SOL     OW 3050   0.967   0.435   0.165
  972SOL    HW1 3051   1.009   0.461   0.247
  972SOL    HW2 3052   1.039   0.429   0.102
  973SOL     OW 3053   3.699   3.315   2.668
  973SOL    HW1 3054   3.634   3.344   2.732
  973SOL    HW2 3055   3.677   3.223   2.652
  974SOL     OW 3056   3.172   1.381   0.174
  974SOL    HW1 3057   3.166   1.341   0.088
  974SOL    HW2 3058   3.146   1.473   0.160
  975SOL     OW 3059   3.876   2.677   3.534
  975SOL    HW1 3060   3.952   2.662   3.478
  975SOL    HW2 3061   3.801   2.668   3.476
  976SOL     OW 3062   3.598   1.511   0.683
  976SOL    HW1 3063   3.530   1.578   0.691
  976SOL    HW2 3064   3.587   1.476   0.594
  977SOL     OW 3065   1.551   3.230   1.454
  977SOL    HW1 3066   1.508   3.145   1.461
  977SOL    HW2 3067   1.497   3.280   1.393
  978SOL     OW 3068   0.747   1.818   3.835
  978SOL    HW1 3069   0.833   1.795   3.870
  978SOL    HW2 3070   0.686   1.766   3.887
  979SOL     OW 3071   1.709   2.634   2.737
  979SOL    HW1 3072   1.761   2.680   2.670
  979SOL    HW2 3073   1.681   2.553   2.694
  980SOL     OW 3074   2.669   3.436   3.803
  980SOL    HW1 3075   2.692   3.425   3.711
  980SOL    HW2 3076   2.642   3.528   3.810
  981SOL     OW 3077   2.721   2.174   2.936
  981SOL    HW1 3078   2.773   2.238   2.986
  981SOL    HW2 3079   2.655   2.227   2.891
  982SOL     OW 3080   3.316   2.047   0.459
  982SOL    HW1 3081   3.301   1.964   0.413
  982SOL    HW2 3082   3.229   2.086   0.467
  983SOL     OW 3083   0.356   0.710   3.329
  983SOL    HW1 3084   0.286   0.673   3.383
  983SOL    HW2 3085   0.394   0.778   3.384
  984SOL     OW 3086   1.012   1.935   2.828
  984SOL    HW1 3087   1.020   2.003   2.894
  984SOL    HW2 3088   1.003   1.854   2.878
  985SOL     OW 3089   1.356   1.230   2.528
  985SOL    HW1 3090   1.333   1.231   2.435
  985SOL    HW2 3091   1.325   1.146   2.560
  986SOL     OW 3092   2.837   0.585   0.399
  986SOL    HW1 3093   2.913   0.529   0.410
  986SOL    HW2 3094   2.765   0.525   0.382
  987SOL     OW 3095   3.470   0.516   3.937
  987SOL    HW1 3096   3.408   0.451   3.905
  987SOL    HW2 3097   3.555   0.474   3.931
  988SOL     OW 3098   1.729   3.465   3.047
  988SOL    HW1 3099   1.671   3.420   2.986
  988SOL    HW2 3100   1.808   3.411   3.049
  989SOL     OW 3101   0.700   3.871   1.691
  989SOL    HW1 3102   0.725   3.880   1.598
  989SOL    HW2 3103   0.690   3.776   1.704
  990SOL     OW 3104   2.748   3.424   2.875
  990SOL    HW1 3105   2.683   3.441   2.808
  990SOL    HW2 3106   2.821   3.482   2.854
  991SOL     OW 3107   2.168   3.472   0.467
  991SOL    HW1 3108   2.115   3.458   0.388
  991SOL    HW2 3109   2.192   3.565   0.463
  992SOL     OW 3110   3.251   0.007   0.399
  992SOL    HW1 3111   3.249  -0.061   0.332
  992SOL    HW2 3112   3.232   0.088   0.352
  993SOL     OW 3113   3.706   1.091   0.245
  993SOL    HW1 3114   3.792   1.084   0.287
  993SOL    HW2 3115   3.644   1.086   0.318
  994SOL     OW 3116   1.927   2.059   0.250
  994SOL    HW1 3117   1.903   2.036   0.340
  994SOL    HW2 3118   2.022   2.066   0.252
  995SOL     OW 3119   3.421   1.581   2.769
  995SOL    HW1 3120   3.485   1.519   2.805
  995SOL    HW2 3121   3.473   1.643   2.718
  996SOL     OW 3122   0.711   0.290   0.359
  996SOL    HW1 3123   0.732   0.250   0.444
  996SOL    HW2 3124   0.619   0.270   0.346
  997SOL     OW 3125   0.897   0.046   0.243
  997SOL    HW1 3126   0.817   0.028   0.293
  997SOL    HW2 3127   0.938   0.118   0.290
  998SOL     OW 3128   3.190   0.358   2.786
  998SOL    HW1 3129   3.171   0.378   2.694
  998SOL    HW2 3130   3.171   0.265   2.795
  999SOL     OW 3131   3.004   2.797   2.276
  999SOL    HW1 3132   2.988   2.717   2.228
  999SOL    HW2 3133   2.939   2.859   2.242
 1000SOL     OW 3134   1.768   0.552   1.071
 1000SOL    HW1 3135   1.738   0.566   1.161
 1000SOL    HW2 3136   1.847   0.499   1.080
 1001SOL     OW 3137   3.286   0.365   3.307
 1001SOL    HW1 3138   3.209   0.419   3.318
 1001SOL    HW2 3139   3.322   0.355   3.395
 1002SOL     OW 3140   1.012   2.053   0.860
 1002SOL    HW1 3141   0.977   1.970   0.892
 1002SOL    HW2 3142   0.954   2.078   0.788
 1003SOL     OW 3143   1.313   1.914   3.846
 1003SOL    HW1 3144   1.407   1.898   3.840
 1003SOL    HW2 3145   1.302   2.002   3.811
 1004SOL     OW 3146   2.187   3.017   2.821
 1004SOL    HW1 3147   2.250   2.955   2.783
 1004SOL    HW2 3148   2.127   2.961   2.871
 1005SOL     OW 3149   0.805   1.038   2.522
 1005SOL    HW1 3150   0.727   1.060   2.572
 1005SOL    HW2 3151   0.848   1.122   2.506
 1006SOL     OW 3152   2.339   3.654   2.374
 1006SOL    HW1 3153   2.424   3.622   2.404
 1006SOL    HW2 3154   2.283   3.577   2.371
 1007SOL     OW 3155   2.618   2.612   0.205
 1007SOL    HW1 3156   2.547   2.642   0.262
 1007SOL    HW2 3157   2.698   2.628   0.257
 1008SOL     OW 3158   3.738   2.821   2.405
 1008SOL    HW1 3159   3.780   2.880   2.343
 1008SOL    HW2 3160   3.809   2.792   2.462
 1009SOL     OW 3161   1.675   0.544   3.390
 1009SOL    HW1 3162   1.605   0.565   3.451
 1009SOL    HW2 3163   1.696   0.628   3.348
 1010SOL     OW 3164   0.099   2.106   0.170
 1010SOL    HW1 3165   0.014   2.096   0.125
 1010SOL    HW2 3166   0.116   2.020   0.207
 1011SOL     OW 3167   1.275   0.071   0.078
 1011SOL    HW1 3168   1.194   0.036   0.117
 1011SOL    HW2 3169   1.296   0.148   0.131
 1012SOL     OW 3170   0.301   1.401   2.453
 1012SOL    HW1 3171   0.254   1.341   2.511
 1012SOL    HW2 3172   0.374   1.349   2.419
 1013SOL     OW 3173   0.590   3.109   0.713
 1013SOL    HW1 3174   0.583   3.199   0.744
 1013SOL    HW2 3175   0.634   3.063   0.784
 1014SOL     OW 3176   1.865   0.706   0.280
 1014SOL    HW1 3177   1.955   0.738   0.284
 1014SOL    HW2 3178   1.812   0.781   0.305
 1015SOL     OW 3179   2.588   2.716   3.924
 1015SOL    HW1 3180   2.680   2.728   3.899
 1015SOL    HW2 3181   2.592   2.674   4.010
 1016SOL     OW 3182   1.513   2.959   1.389
 1016SOL    HW1 3183   1.425   2.958   1.426
 1016SOL    HW2 3184   1.530   2.867   1.366
 1017SOL     OW 3185   0.019   2.732   2.573
 1017SOL    HW1 3186   0.094   2.698   2.622
 1017SOL    HW2 3187   0.023   2.826   2.586
 1018SOL     OW 3188   3.776   2.618   3.007
 1018SOL    HW1 3189   3.768   2.657   2.919
 1018SOL    HW2 3190   3.842   2.550   2.997
 1019SOL     OW 3191   0.535   2.741   3.283
 1019SOL    HW1 3192   0.513   2.769   3.195
 1019SOL    HW2 3193   0.478   2.792   3.340
 1020SOL     OW 3194   1.161   3.608   0.341
 1020SOL    HW1 3195   1.158   3.541   0.408
 1020SOL    HW2 3196   1.074   3.605   0.300
 1021SOL     OW 3197   3.336   1.037   2.902
 1021SOL    HW1 3198   3.322   0.943   2.911
 1021SOL    HW2 3199   3.361   1.049   2.811
 1022SOL     OW 3200   0.032   0.165   1.275
 1022SOL    HW1 3201  -0.007   0.104   1.212
 1022SOL    HW2 3202   0.121   0.131   1.288
 1023SOL     OW 3203   0.316   1.362   1.245
 1023SOL    HW1 3204   0.410   1.355   1.229
 1023SOL    HW2 3205   0.306   1.340   1.338
 1024SOL     OW 3206   2.465   2.962   2.198
 1024SOL    HW1 3207   2.498   3.019   2.267
 1024SOL    HW2 3208   2.518   2.882   2.206
 1025SOL     OW 3209   2.542   3.469   2.709
 1025SOL    HW1 3210   2.488   3.545   2.733
 1025SOL    HW2 3211   2.485   3.394   2.724
 1026SOL     OW 3212   0.058   1.183   2.251
 1026SOL    HW1 3213   0.122   1.254   2.262
 1026SOL    HW2 3214   0.091   1.132   2.177
 1027SOL     OW 3215   3.864   3.070   3.638
 1027SOL    HW1 3216   3.924   3.132   3.595
 1027SOL    HW2 3217   3.899   3.061   3.727
 1028SOL     OW 3218   3.203   2.665   1.393
 1028SOL    HW1 3219   3.213   2.754   1.359
 1028SOL    HW2 3220   3.119   2.636   1.358
 1029SOL     OW 3221   0.510   2.286   3.495
 1029SOL    HW1 3222   0.501   2.197   3.460
 1029SOL    HW2 3223   0.502   2.276   3.589
 1030SOL     OW 3224   1.785   3.922   1.325
 1030SOL    HW1 3225   1.726   3.997   1.320
 1030SOL    HW2 3226   1.732   3.852   1.362
 1031SOL     OW 3227   2.269   3.340   1.368
 1031SOL    HW1 3228   2.177   3.337   1.342
 1031SOL    HW2 3229   2.300   3.424   1.334
 1032SOL     OW 3230   1.939   3.324   1.517
 1032SOL    HW1 3231   1.992   3.288   1.588
 1032SOL    HW2 3232   1.954   3.265   1.444
 1033SOL     OW 3233   0.779   3.046   1.466
 1033SOL    HW1 3234   0.714   3.112   1.446
 1033SOL    HW2 3235   0.854   3.095   1.498
 1034SOL     OW 3236   0.900   3.487   0.395
 1034SOL    HW1 3237   0.843   3.447   0.460
 1034SOL    HW2 3238   0.891   3.432   0.317
 1035SOL     OW 3239   1.227   3.861   3.192
 1035SOL    HW1 3240   1.223   3.949   3.230
 1035SOL    HW2 3241   1.321   3.845   3.181
 1036SOL     OW 3242   1.118   3.703   1.782
 1036SOL    HW1 3243   1.043   3.663   1.826
 1036SOL    HW2 3244   1.090   3.714   1.691
 1037SOL     OW 3245   1.969   3.130   2.540
 1037SOL    HW1 3246   1.973   3.184   2.619
 1037SOL    HW2 3247   1.876   3.109   2.531
 1038SOL     OW 3248   3.252   2.436   2.918
 1038SOL    HW1 3249   3.188   2.427   2.989
 1038SOL    HW2 3250   3.234   2.362   2.861
 1039SOL     OW 3251   2.947   1.702   0.816
 1039SOL    HW1 3252   2.943   1.752   0.735
 1039SOL    HW2 3253   2.873   1.641   0.811
 1040SOL     OW 3254   1.851   0.433   1.343
 1040SOL    HW1 3255   1.774   0.466   1.388
 1040SOL    HW2 3256   1.818   0.367   1.282
 1041SOL     OW 3257   3.461   1.664   0.075
 1041SOL    HW1 3258   3.431   1.650   0.165
 1041SOL    HW2 3259   3.380   1.676   0.024
 1042SOL     OW 3260   2.517   2.627   1.667
 1042SOL    HW1 3261   2.479   2.640   1.754
 1042SOL    HW2 3262   2.569   2.706   1.651
 1043SOL     OW 3263   1.891   3.873   2.314
 1043SOL    HW1 3264   1.855   3.839   2.233
 1043SOL    HW2 3265   1.985   3.879   2.299
 1044SOL     OW 3266   2.899   0.846   0.382
 1044SOL    HW1 3267   2.907   0.867   0.289
 1044SOL    HW2 3268   2.882   0.752   0.384
 1045SOL     OW 3269   2.317   2.528   0.691
 1045SOL    HW1 3270   2.233   2.494   0.661
 1045SOL    HW2 3271   2.312   2.524   0.786
 1046SOL     OW 3272   1.069   1.807   2.603
 1046SOL    HW1 3273   1.071   1.858   2.684
 1046SOL    HW2 3274   1.143   1.840   2.553
 1047SOL     OW 3275   3.588   0.950   3.406
 1047SOL    HW1 3276   3.642   0.980   3.333
 1047SOL    HW2 3277   3.513   1.009   3.405
 1048SOL     OW 3278   3.216   3.805   3.309
 1048SOL    HW1 3279   3.149   3.793   3.242
 1048SOL    HW2 3280   3.205   3.896   3.338
 1049SOL     OW 3281   0.492   3.904   1.502
 1049SOL    HW1 3282   0.442   3.982   1.528
 1049SOL    HW2 3283   0.454   3.833   1.555
 1050SOL     OW 3284   1.125   2.600   1.873
 1050SOL    HW1 3285   1.149   2.611   1.781
 1050SOL    HW2 3286   1.183   2.531   1.905
 1051SOL     OW 3287   0.992   3.168   2.719
 1051SOL    HW1 3288   1.016   3.205   2.804
 1051SOL    HW2 3289   0.949   3.085   2.741
 1052SOL     OW 3290   0.251   1.597   0.999
 1052SOL    HW1 3291   0.346   1.589   0.989
 1052SOL    HW2 3292   0.217   1.515   0.966
 1053SOL     OW 3293   0.837   1.835   1.061
 1053SOL    HW1 3294   0.853   1.770   0.993
 1053SOL    HW2 3295   0.743   1.829   1.079
 1054SOL     OW 3296   2.041   0.514   2.965
 1054SOL    HW1 3297   2.088   0.464   3.031
 1054SOL    HW2 3298   1.963   0.547   3.010
 1055SOL     OW 3299   0.335   2.521   3.528
 1055SOL    HW1 3300   0.403   2.563   3.581
 1055SOL    HW2 3301   0.376   2.442   3.494
 1056SOL     OW 3302   0.832   0.232   0.011
 1056SOL    HW1 3303   0.817   0.174   0.086
 1056SOL    HW2 3304   0.884   0.304   0.047
 1057SOL     OW 3305   3.613   1.392   1.898
 1057SOL    HW1 3306   3.598   1.485   1.917
 1057SOL    HW2 3307   3.669   1.362   1.969
 1058SOL     OW 3308   3.735   0.270   0.645
 1058SOL    HW1 3309   3.682   0.193   0.666
 1058SOL    HW2 3310   3.706   0.336   0.708
 1059SOL     OW 3311   2.882   0.060   1.064
 1059SOL    HW1 3312   2.880   0.005   0.986
 1059SOL    HW2 3313   2.836   0.008   1.130
 1060SOL     OW 3314   2.438   3.809   1.501
 1060SOL    HW1 3315   2.436   3.808   1.596
 1060SOL    HW2 3316   2.354   3.772   1.474
 1061SOL     OW 3317   0.579   0.460   3.528
 1061SOL    HW1 3318   0.526   0.464   3.449
 1061SOL    HW2 3319   0.648   0.397   3.507
 1062SOL     OW 3320   0.595   0.574   3.269
 1062SOL    HW1 3321   0.523   0.624   3.231
 1062SOL    HW2 3322   0.663   0.576   3.201
 1063SOL     OW 3323   3.256   3.710   1.353
 1063SOL    HW1 3324   3.307   3.770   1.408
 1063SOL    HW2 3325   3.169   3.749   1.349
 1064SOL     OW 3326   3.008   3.771   3.118
 1064SOL    HW1 3327   2.917   3.799   3.120
 1064SOL    HW2 3328   3.038   3.792   3.030
 1065SOL     OW 3329   0.499   0.173   2.268
 1065SOL    HW1 3330   0.450   0.193   2.348
 1065SOL    HW2 3331   0.585   0.211   2.282
 1066SOL     OW 3332   2.063   1.862   2.888
 1066SOL    HW1 3333   2.116   1.868   2.809
 1066SOL    HW2 3334   2.094   1.782   2.932
 1067SOL     OW 3335   2.148   0.412   3.714
 1067SOL    HW1 3336   2.241   0.412   3.691
 1067SOL    HW2 3337   2.103   0.399   3.631
 1068SOL     OW 3338   2.049   0.238   0.695
 1068SOL    HW1 3339   2.026   0.146   0.709
 1068SOL    HW2 3340   2.098   0.238   0.612
 1069SOL     OW 3341   2.335   3.812   2.029
 1069SOL    HW1 3342   2.253   3.829   1.983
 1069SOL    HW2 3343   2.368   3.899   2.052
 1070SOL     OW 3344   3.317   3.552   3.229
 1070SOL    HW1 3345   3.290   3.642   3.246
 1070SOL    HW2 3346   3.265   3.499   3.289
 1071SOL     OW 3347   1.299   1.629   1.359
 1071SOL    HW1 3348   1.375   1.680   1.331
 1071SOL    HW2 3349   1.264   1.677   1.434
 1072SOL     OW 3350   0.509   0.411   1.972
 1072SOL    HW1 3351   0.502   0.317   1.987
 1072SOL    HW2 3352   0.602   0.426   1.954
 1073SOL     OW 3353   0.317   2.024   3.750
 1073SOL    HW1 3354   0.253   2.007   3.682
 1073SOL    HW2 3355   0.348   1.938   3.777
 1074SOL     OW 3356   1.586   2.698   1.288
 1074SOL    HW1 3357   1.642   2.642   1.234
 1074SOL    HW2 3358   1.609   2.675   1.378
 1075SOL     OW 3359   0.620   2.730   2.825
 1075SOL    HW1 3360   0.580   2.804   2.779
 1075SOL    HW2 3361   0.592   2.740   2.916
 1076SOL     OW 3362   3.549   1.102   0.907
 1076SOL    HW1 3363   3.553   1.072   0.817
 1076SOL    HW2 3364   3.520   1.026   0.957
 1077SOL     OW 3365   2.467   0.534   1.534
 1077SOL    HW1 3366   2.546   0.479   1.527
 1077SOL    HW2 3367   2.439   0.524   1.625
 1078SOL     OW 3368   0.764   1.727   2.706
 1078SOL    HW1 3369   0.801   1.705   2.791
 1078SOL    HW2 3370   0.837   1.764   2.657
 1079SOL     OW 3371   2.672   0.647   1.148
 1079SOL    HW1 3372   2.585   0.680   1.127
 1079SOL    HW2 3373   2.732   0.707   1.104
 1080SOL     OW 3374   3.502   1.595   2.133
 1080SOL    HW1 3375   3.570   1.655   2.163
 1080SOL    HW2 3376   3.513   1.517   2.187
 1081SOL     OW 3377   2.655   0.738   1.437
 1081SOL    HW1 3378   2.672   0.726   1.343
 1081SOL    HW2 3379   2.580   0.682   1.455
 1082SOL     OW 3380   3.343   3.859   1.559
 1082SOL    HW1 3381   3.351   3.787   1.621
 1082SOL    HW2 3382   3.309   3.932   1.612
 1083SOL     OW 3383   0.518   0.814   1.542
 1083SOL    HW1 3384   0.594   0.762   1.568
 1083SOL    HW2 3385   0.453   0.799   1.611
 1084SOL     OW 3386   1.665   0.556   0.117
 1084SOL    HW1 3387   1.653   0.461   0.112
 1084SOL    HW2 3388   1.718   0.569   0.195
 1085SOL     OW 3389   2.918   3.540   3.278
 1085SOL    HW1 3390   2.973   3.467   3.251
 1085SOL    HW2 3391   2.959   3.617   3.240
 1086SOL     OW 3392   2.106   3.311   1.130
 1086SOL    HW1 3393   2.127   3.276   1.043
 1086SOL    HW2 3394   2.039   3.252   1.164
 1087SOL     OW 3395   3.091   3.539   2.409
 1087SOL    HW1 3396   3.044   3.613   2.372
 1087SOL    HW2 3397   3.170   3.531   2.355
 1088SOL     OW 3398   3.327   2.463   1.698
 1088SOL    HW1 3399   3.300   2.395   1.760
 1088SOL    HW2 3400   3.407   2.428   1.658
 1089SOL     OW 3401   3.143   1.800   3.428
 1089SOL    HW1 3402   3.184   1.778   3.512
 1089SOL    HW2 3403   3.054   1.766   3.435
 1090SOL     OW 3404   3.850   0.675   2.637
 1090SOL    HW1 3405   3.824   0.767   2.634
 1090SOL    HW2 3406   3.800   0.638   2.710
 1091SOL     OW 3407   2.094   2.451   3.164
 1091SOL    HW1 3408   2.109   2.531   3.113
 1091SOL    HW2 3409   2.165   2.450   3.228
 1092SOL     OW 3410   3.472   0.274   2.157
 1092SOL    HW1 3411   3.539   0.322   2.108
 1092SOL    HW2 3412   3.483   0.183   2.129
 1093SOL     OW 3413   0.726   3.334   2.838
 1093SOL    HW1 3414   0.714   3.426   2.861
 1093SOL    HW2 3415   0.639   3.296   2.847
 1094SOL     OW 3416   1.465   1.859   1.399
 1094SOL    HW1 3417   1.554   1.896   1.398
 1094SOL    HW2 3418   1.434   1.873   1.488
 1095SOL     OW 3419   3.139   0.210   1.042
 1095SOL    HW1 3420   3.049   0.241   1.036
 1095SOL    HW2 3421   3.184   0.253   0.969
 1096SOL     OW 3422   2.164   1.574   3.676
 1096SOL    HW1 3423   2.172   1.648   3.736
 1096SOL    HW2 3424   2.138   1.614   3.593
 1097SOL     OW 3425   3.716   2.934   3.271
 1097SOL    HW1 3426   3.686   2.960   3.358
 1097SOL    HW2 3427   3.721   2.839   3.274
 1098SOL     OW 3428   3.205   2.722   3.200
 1098SOL    HW1 3429   3.271   2.658   3.225
 1098SOL    HW2 3430   3.253   2.804   3.191
 1099SOL     OW 3431   3.950   2.012   3.114
 1099SOL    HW1 3432   3.940   2.021   3.020
 1099SOL    HW2 3433   3.959   2.102   3.146
 1100SOL     OW 3434   2.378   0.086   2.481
 1100SOL    HW1 3435   2.459   0.070   2.432
 1100SOL    HW2 3436   2.360   0.003   2.524
 1101SOL     OW 3437   0.494   2.066   0.168
 1101SOL    HW1 3438   0.405   2.098   0.180
 1101SOL    HW2 3439   0.512   2.079   0.075
 1102SOL     OW 3440   2.024   0.232   3.513
 1102SOL    HW1 3441   2.034   0.148   3.558
 1102SOL    HW2 3442   1.931   0.254   3.524
 1103SOL     OW 3443   3.198   0.691   0.541
 1103SOL    HW1 3444   3.280   0.726   0.575
 1103SOL    HW2 3445   3.155   0.767   0.501
 1104SOL     OW 3446   2.718   1.020   2.425
 1104SOL    HW1 3447   2.799   1.040   2.379
 1104SOL    HW2 3448   2.732   1.051   2.515
 1105SOL     OW 3449   3.584   3.339   1.731
 1105SOL    HW1 3450   3.679   3.337   1.720
 1105SOL    HW2 3451   3.558   3.247   1.724
 1106SOL     OW 3452   1.098   1.757   0.388
 1106SOL    HW1 3453   1.069   1.840   0.351
 1106SOL    HW2 3454   1.018   1.717   0.423
 1107SOL     OW 3455   3.775   0.539   0.333
 1107SOL    HW1 3456   3.680   0.541   0.334
 1107SOL    HW2 3457   3.799   0.587   0.253
 1108SOL     OW 3458   2.665   1.430   0.055
 1108SOL    HW1 3459   2.729   1.416  -0.014
 1108SOL    HW2 3460   2.674   1.522   0.078
 1109SOL     OW 3461   0.143   2.434   3.706
 1109SOL    HW1 3462   0.175   2.477   3.785
 1109SOL    HW2 3463   0.183   2.484   3.635
 1110SOL     OW 3464   3.489   2.401   2.412
 1110SOL    HW1 3465   3.397   2.375   2.419
 1110SOL    HW2 3466   3.510   2.393   2.319
 1111SOL     OW 3467   3.867   0.645   3.216
 1111SOL    HW1 3468   3.903   0.709   3.277
 1111SOL    HW2 3469   3.800   0.693   3.168
 1112SOL     OW 3470   2.168   3.875   2.276
 1112SOL    HW1 3471   2.215   3.813   2.332
 1112SOL    HW2 3472   2.216   3.875   2.194
 1113SOL     OW 3473   2.856   2.376   3.049
 1113SOL    HW1 3474   2.926   2.375   3.113
 1113SOL    HW2 3475   2.884   2.439   2.983
 1114SOL     OW 3476   3.499   3.636   2.111
 1114SOL    HW1 3477   3.491   3.595   2.025
 1114SOL    HW2 3478   3.593   3.648   2.124
 1115SOL     OW 3479   0.155   0.328   2.248
 1115SOL    HW1 3480   0.192   0.289   2.169
 1115SOL    HW2 3481   0.084   0.268   2.272
 1116SOL     OW 3482   1.921   2.937   3.134
 1116SOL    HW1 3483   1.916   2.877   3.059
 1116SOL    HW2 3484   2.014   2.938   3.157
 1117SOL     OW 3485   0.732   2.423   3.434
 1117SOL    HW1 3486   0.807   2.363   3.438
 1117SOL    HW2 3487   0.660   2.374   3.473
 1118SOL     OW 3488   3.908   1.811   1.983
 1118SOL    HW1 3489   3.986   1.780   1.936
 1118SOL    HW2 3490   3.934   1.896   2.019
 1119SOL     OW 3491   1.505   2.257   1.215
 1119SOL    HW1 3492   1.528   2.340   1.173
 1119SOL    HW2 3493   1.586   2.207   1.215
 1120SOL     OW 3494   1.694   0.065   0.220
 1120SOL    HW1 3495   1.663  -0.023   0.199
 1120SOL    HW2 3496   1.641   0.092   0.295
 1121SOL     OW 3497   0.677   3.907   0.363
 1121SOL    HW1 3498   0.670   3.866   0.449
 1121SOL    HW2 3499   0.620   3.855   0.307
 1122SOL     OW 3500   2.571   2.971   1.230
 1122SOL    HW1 3501   2.615   2.937   1.152
 1122SOL    HW2 3502   2.479   2.946   1.218
 1123SOL     OW 3503   1.631   1.861   1.663
 1123SOL    HW1 3504   1.578   1.939   1.680
 1123SOL    HW2 3505   1.648   1.864   1.569
 1124SOL     OW 3506   1.500   3.641   3.751
 1124SOL    HW1 3507   1.487   3.720   3.804
 1124SOL    HW2 3508   1.449   3.574   3.796
 1125SOL     OW 3509   2.678   0.799   2.231
 1125SOL    HW1 3510   2.602   0.820   2.176
 1125SOL    HW2 3511   2.700   0.882   2.273
 1126SOL     OW 3512   2.888   2.991   2.084
 1126SOL    HW1 3513   2.813   3.048   2.065
 1126SOL    HW2 3514   2.918   2.962   1.997
 1127SOL     OW 3515   1.316   1.669   0.601
 1127SOL    HW1 3516   1.305   1.721   0.522
 1127SOL    HW2 3517   1.408   1.641   0.600
 1128SOL     OW 3518   2.762   0.140   3.368
 1128SOL    HW1 3519   2.695   0.185   3.316
 1128SOL    HW2 3520   2.717   0.118   3.450
 1129SOL     OW 3521   2.048   0.511   3.363
 1129SOL    HW1 3522   2.082   0.460   3.289
 1129SOL    HW2 3523   1.976   0.458   3.398
 1130SOL     OW 3524   1.723   2.986   2.874
 1130SOL    HW1 3525   1.660   2.914   2.883
 1130SOL    HW2 3526   1.806   2.943   2.855
 1131SOL     OW 3527   1.695   2.641   1.561
 1131SOL    HW1 3528   1.773   2.694   1.546
 1131SOL    HW2 3529   1.658   2.675   1.642
 1132SOL     OW 3530   0.992   1.262   3.921
 1132SOL    HW1 3531   1.064   1.291   3.977
 1132SOL    HW2 3532   1.023   1.277   3.832
 1133SOL     OW 3533   1.300   2.394   0.535
 1133SOL    HW1 3534   1.331   2.385   0.445
 1133SOL    HW2 3535   1.362   2.344   0.587
 1134SOL     OW 3536   0.143   1.589   3.318
 1134SOL    HW1 3537   0.111   1.498   3.314
 1134SOL    HW2 3538   0.115   1.620   3.404
 1135SOL     OW 3539   2.922   1.181   3.229
 1135SOL    HW1 3540   2.980   1.109   3.256
 1135SOL    HW2 3541   2.874   1.205   3.308
 1136SOL     OW 3542   1.275   2.004   0.963
 1136SOL    HW1 3543   1.193   2.007   0.913
 1136SOL    HW2 3544   1.247   2.005   1.055
 1137SOL     OW 3545   3.464   1.297   1.088
 1137SOL    HW1 3546   3.556   1.313   1.112
 1137SOL    HW2 3547   3.468   1.226   1.023
 1138SOL     OW 3548   1.313   0.494   3.843
 1138SOL    HW1 3549   1.244   0.548   3.882
 1138SOL    HW2 3550   1.393   0.547   3.854
 1139SOL     OW 3551   1.578   3.638   0.951
 1139SOL    HW1 3552   1.581   3.697   0.876
 1139SOL    HW2 3553   1.641   3.569   0.930
 1140SOL     OW 3554   0.506   0.986   0.649
 1140SOL    HW1 3555   0.533   0.905   0.605
 1140SOL    HW2 3556   0.426   0.962   0.696
 1141SOL     OW 3557   2.549   0.188   1.743
 1141SOL    HW1 3558   2.509   0.275   1.752
 1141SOL    HW2 3559   2.495   0.131   1.798
 1142SOL     OW 3560   2.997   3.979   2.183
 1142SOL    HW1 3561   2.965   3.893   2.208
 1142SOL    HW2 3562   3.059   4.003   2.252
 1143SOL     OW 3563   3.221   1.729   2.311
 1143SOL    HW1 3564   3.144   1.715   2.367
 1143SOL    HW2 3565   3.198   1.686   2.228
 1144SOL     OW 3566   1.242   1.811   1.558
 1144SOL    HW1 3567   1.160   1.835   1.515
 1144SOL    HW2 3568   1.253   1.878   1.626
 1145SOL     OW 3569   2.696   2.916   0.687
 1145SOL    HW1 3570   2.612   2.873   0.673
 1145SOL    HW2 3571   2.724   2.886   0.774
 1146SOL     OW 3572   2.875   3.305   0.139
 1146SOL    HW1 3573   2.864   3.212   0.123
 1146SOL    HW2 3574   2.969   3.320   0.127
 1147SOL     OW 3575   0.322   0.266   1.245
 1147SOL    HW1 3576   0.292   0.356   1.258
 1147SOL    HW2 3577   0.409   0.275   1.208
 1148SOL     OW 3578   2.934   1.271   2.212
 1148SOL    HW1 3579   2.907   1.262   2.121
 1148SOL    HW2 3580   3.013   1.217   2.220
 1149SOL     OW 3581   2.836   0.814   3.337
 1149SOL    HW1 3582   2.924   0.810   3.376
 1149SOL    HW2 3583   2.819   0.908   3.328
 1150SOL     OW 3584   3.379   2.673   2.731
 1150SOL    HW1 3585   3.364   2.674   2.826
 1150SOL    HW2 3586   3.293   2.686   2.693
 1151SOL     OW 3587   1.730   2.946   0.914
 1151SOL    HW1 3588   1.655   2.887   0.907
 1151SOL    HW2 3589   1.698   3.020   0.966
 1152SOL     OW 3590   2.783   3.388   3.515
 1152SOL    HW1 3591   2.876   3.367   3.515
 1152SOL    HW2 3592   2.776   3.472   3.469
 1153SOL     OW 3593   2.535   3.183   0.607
 1153SOL    HW1 3594   2.598   3.144   0.547
 1153SOL    HW2 3595   2.453   3.187   0.557
 1154SOL     OW 3596   3.269   2.127   2.186
 1154SOL    HW1 3597   3.259   2.165   2.099
 1154SOL    HW2 3598   3.188   2.079   2.201
 1155SOL     OW 3599   2.498   0.201   1.114
 1155SOL    HW1 3600   2.562   0.263   1.077
 1155SOL    HW2 3601   2.458   0.249   1.186
 1156SOL     OW 3602   3.842   1.270   3.665
 1156SOL    HW1 3603   3.922   1.247   3.712
 1156SOL    HW2 3604   3.871   1.326   3.593
 1157SOL     OW 3605   1.168   3.401   2.037
 1157SOL    HW1 3606   1.170   3.375   1.945
 1157SOL    HW2 3607   1.197   3.323   2.085
 1158SOL     OW 3608   2.168   2.774   3.126
 1158SOL    HW1 3609   2.241   2.740   3.074
 1158SOL    HW2 3610   2.203   2.782   3.214
 1159SOL     OW 3611   2.957   1.130   2.956
 1159SOL    HW1 3612   3.012   1.192   2.908
 1159SOL    HW2 3613   2.975   1.148   3.048
 1160SOL     OW 3614   1.777   1.968   0.478
 1160SOL    HW1 3615   1.758   2.013   0.561
 1160SOL    HW2 3616   1.696   1.922   0.456
 1161SOL     OW 3617   2.287   3.551   3.915
 1161SOL    HW1 3618   2.377   3.585   3.913
 1161SOL    HW2 3619   2.247   3.586   3.836
 1162SOL     OW 3620   1.050   1.461   1.527
 1162SOL    HW1 3621   1.107   1.501   1.593
 1162SOL    HW2 3622   1.010   1.387   1.572
 1163SOL     OW 3623   0.433   0.530   2.273
 1163SOL    HW1 3624   0.453   0.576   2.191
 1163SOL    HW2 3625   0.350   0.568   2.302
 1164SOL     OW 3626   2.606   3.456   3.103
 1164SOL    HW1 3627   2.652   3.444   3.020
 1164SOL    HW2 3628   2.617   3.372   3.148
 1165SOL     OW 3629   1.513   0.945   3.253
 1165SOL    HW1 3630   1.479   1.018   3.202
 1165SOL    HW2 3631   1.454   0.939   3.328
 1166SOL     OW 3632   3.518   2.085   3.782
 1166SOL    HW1 3633   3.480   1.999   3.801
 1166SOL    HW2 3634   3.479   2.143   3.848
 1167SOL     OW 3635   1.271   0.528   2.467
 1167SOL    HW1 3636   1.243   0.477   2.543
 1167SOL    HW2 3637   1.359   0.559   2.489
 1168SOL     OW 3638   0.100   3.298   3.606
 1168SOL    HW1 3639   0.140   3.256   3.683
 1168SOL    HW2 3640   0.147   3.259   3.531
 1169SOL     OW 3641   1.261   1.099   0.583
 1169SOL    HW1 3642   1.181   1.139   0.618
 1169SOL    HW2 3643   1.243   1.005   0.585
 1170SOL     OW 3644   3.827   0.217   2.351
 1170SOL    HW1 3645   3.813   0.311   2.363
 1170SOL    HW2 3646   3.832   0.181   2.439
 1171SOL     OW 3647   0.711   0.104   3.224
 1171SOL    HW1 3648   0.623   0.125   3.256
 1171SOL    HW2 3649   0.718   0.151   3.141
 1172SOL     OW 3650   2.919   2.344   0.048
 1172SOL    HW1 3651   2.826   2.327   0.029
 1172SOL    HW2 3652   2.921   2.370   0.140
 1173SOL     OW 3653   1.066   3.407   1.127
 1173SOL    HW1 3654   1.161   3.400   1.127
 1173SOL    HW2 3655   1.047   3.486   1.177
 1174SOL     OW 3656   2.942   1.992   3.213
 1174SOL    HW1 3657   3.034   2.006   3.191
 1174SOL    HW2 3658   2.932   1.897   3.221
 1175SOL     OW 3659   0.704   0.055   2.684
 1175SOL    HW1 3660   0.754  -0.001   2.743
 1175SOL    HW2 3661   0.766   0.080   2.615
 1176SOL     OW 3662   3.881   0.022   3.387
 1176SOL    HW1 3663   3.912   0.030   3.297
 1176SOL    HW2 3664   3.926   0.092   3.435
 1177SOL     OW 3665   2.932   1.690   2.884
 1177SOL    HW1 3666   3.018   1.648   2.893
 1177SOL    HW2 3667   2.893   1.649   2.807
 1178SOL     OW 3668   2.786   2.380   1.134
 1178SOL    HW1 3669   2.828   2.421   1.209
 1178SOL    HW2 3670   2.800   2.286   1.147
 1179SOL     OW 3671   2.774   1.846   1.060
 1179SOL    HW1 3672   2.740   1.766   1.100
 1179SOL    HW2 3673   2.733   1.848   0.973
 1180SOL     OW 3674   1.782   2.699   2.082
 1180SOL    HW1 3675   1.857   2.663   2.034
 1180SOL    HW2 3676   1.821   2.742   2.158
 1181SOL     OW 3677   2.931   2.395   0.902
 1181SOL    HW1 3678   2.850   2.415   0.948
 1181SOL    HW2 3679   2.980   2.339   0.964
 1182SOL     OW 3680   2.687   1.144   3.068
 1182SOL    HW1 3681   2.779   1.119   3.071
 1182SOL    HW2 3682   2.642   1.066   3.035
 1183SOL     OW 3683   3.656   2.555   3.960
 1183SOL    HW1 3684   3.561   2.555   3.950
 1183SOL    HW2 3685   3.684   2.639   3.923
 1184SOL     OW 3686   0.618   1.313   1.382
 1184SOL    HW1 3687   0.669   1.301   1.463
 1184SOL    HW2 3688   0.579   1.227   1.367
 1185SOL     OW 3689   2.247   3.111   2.495
 1185SOL    HW1 3690   2.152   3.099   2.501
 1185SOL    HW2 3691   2.280   3.080   2.579
 1186SOL     OW 3692   1.845   2.789   0.700
 1186SOL    HW1 3693   1.835   2.711   0.754
 1186SOL    HW2 3694   1.821   2.861   0.758
 1187SOL     OW 3695   0.259   1.788   0.308
 1187SOL    HW1 3696   0.347   1.756   0.288
 1187SOL    HW2 3697   0.203   1.749   0.241
 1188SOL     OW 3698   0.787   1.473   0.038
 1188SOL    HW1 3699   0.760   1.381   0.040
 1188SOL    HW2 3700   0.879   1.470   0.012
 1189SOL     OW 3701   3.191   2.423   3.682
 1189SOL    HW1 3702   3.137   2.378   3.617
 1189SOL    HW2 3703   3.159   2.391   3.766
 1190SOL     OW 3704   0.532   2.518   0.374
 1190SOL    HW1 3705   0.452   2.487   0.330
 1190SOL    HW2 3706   0.603   2.487   0.319
 1191SOL     OW 3707   0.906   2.473   1.007
 1191SOL    HW1 3708   0.954   2.523   0.941
 1191SOL    HW2 3709   0.825   2.447   0.962
 1192SOL     OW 3710   1.416   3.287   3.687
 1192SOL    HW1 3711   1.346   3.316   3.628
 1192SOL    HW2 3712   1.422   3.355   3.753
 1193SOL     OW 3713   2.822   0.589   2.398
 1193SOL    HW1 3714   2.756   0.658   2.407
 1193SOL    HW2 3715   2.772   0.507   2.408
 1194SOL     OW 3716   3.464   1.054   1.250
 1194SOL    HW1 3717   3.446   1.006   1.331
 1194SOL    HW2 3718   3.455   1.146   1.275
 1195SOL     OW 3719   3.198   0.081   1.693
 1195SOL    HW1 3720   3.112   0.041   1.681
 1195SOL    HW2 3721   3.188   0.136   1.771
 1196SOL     OW 3722   3.774   2.275   3.066
 1196SOL    HW1 3723   3.696   2.298   3.015
 1196SOL    HW2 3724   3.842   2.331   3.031
 1197SOL     OW 3725   1.638   3.241   0.247
 1197SOL    HW1 3726   1.611   3.310   0.307
 1197SOL    HW2 3727   1.587   3.257   0.167
 1198SOL     OW 3728   2.642   0.114   3.647
 1198SOL    HW1 3729   2.636   0.117   3.742
 1198SOL    HW2 3730   2.555   0.087   3.618
 1199SOL     OW 3731   2.154   0.169   2.337
 1199SOL    HW1 3732   2.146   0.080   2.303
 1199SOL    HW2 3733   2.245   0.175   2.367
 1200SOL     OW 3734   3.816   0.159   1.904
 1200SOL    HW1 3735   3.813   0.071   1.867
 1200SOL    HW2 3736   3.871   0.208   1.843
 1201SOL     OW 3737   0.856   2.946   3.848
 1201SOL    HW1 3738   0.947   2.975   3.844
 1201SOL    HW2 3739   0.836   2.917   3.759
 1202SOL     OW 3740   0.093   2.326   0.970
 1202SOL    HW1 3741   0.013   2.374   0.946
 1202SOL    HW2 3742   0.157   2.352   0.904
 1203SOL     OW 3743   2.248   3.708   0.688
 1203SOL    HW1 3744   2.152   3.712   0.690
 1203SOL    HW2 3745   2.275   3.800   0.694
 1204SOL     OW 3746   1.239   0.318   0.653
 1204SOL    HW1 3747   1.297   0.329   0.729
 1204SOL    HW2 3748   1.254   0.228   0.624
 1205SOL     OW 3749   2.880   2.646   0.862
 1205SOL    HW1 3750   2.918   2.652   0.775
 1205SOL    HW2 3751   2.856   2.554   0.872
 1206SOL     OW 3752   2.185   3.398   2.498
 1206SOL    HW1 3753   2.238   3.327   2.461
 1206SOL    HW2 3754   2.153   3.364   2.581
 1207SOL     OW 3755   1.003   3.884   0.632
 1207SOL    HW1 3756   1.000   3.798   0.674
 1207SOL    HW2 3757   1.044   3.867   0.547
 1208SOL     OW 3758   2.166   0.730   3.112
 1208SOL    HW1 3759   2.171   0.675   3.034
 1208SOL    HW2 3760   2.191   0.673   3.184
 1209SOL     OW 3761   0.656   3.151   3.894
 1209SOL    HW1 3762   0.723   3.082   3.896
 1209SOL    HW2 3763   0.696   3.221   3.842
 1210SOL     OW 3764   0.286   1.957   1.742
 1210SOL    HW1 3765   0.260   1.980   1.653
 1210SOL    HW2 3766   0.272   2.038   1.793
 1211SOL     OW 3767   1.322   1.299   2.263
 1211SOL    HW1 3768   1.228   1.281   2.251
 1211SOL    HW2 3769   1.366   1.230   2.214
 1212SOL     OW 3770   3.767   1.092   1.279
 1212SOL    HW1 3771   3.711   1.020   1.307
 1212SOL    HW2 3772   3.711   1.170   1.283
 1213SOL     OW 3773   1.693   1.457   0.041
 1213SOL    HW1 3774   1.776   1.422   0.007
 1213SOL    HW2 3775   1.718   1.498   0.124
 1214SOL     OW 3776   3.080   0.759   3.923
 1214SOL    HW1 3777   3.164   0.791   3.889
 1214SOL    HW2 3778   3.050   0.698   3.855
 1215SOL     OW 3779   0.031   0.551   2.200
 1215SOL    HW1 3780   0.101   0.495   2.232
 1215SOL    HW2 3781  -0.040   0.540   2.263
 1216SOL     OW 3782   3.404   2.697   2.336
 1216SOL    HW1 3783   3.413   2.619   2.391
 1216SOL    HW2 3784   3.494   2.731   2.329
 1217SOL     OW 3785   3.868   0.145   0.897
 1217SOL    HW1 3786   3.935   0.213   0.905
 1217SOL    HW2 3787   3.885   0.105   0.811
 1218SOL     OW 3788   3.798   1.293   2.431
 1218SOL    HW1 3789   3.828   1.378   2.462
 1218SOL    HW2 3790   3.874   1.255   2.386
 1219SOL     OW 3791   1.798   3.226   2.134
 1219SOL    HW1 3792   1.879   3.177   2.141
 1219SOL    HW2 3793   1.824   3.313   2.104
 1220SOL     OW 3794   0.638   1.634   3.370
 1220SOL    HW1 3795   0.686   1.700   3.320
 1220SOL    HW2 3796   0.550   1.634   3.332
 1221SOL     OW 3797   2.573   3.363   1.536
 1221SOL    HW1 3798   2.496   3.343   1.484
 1221SOL    HW2 3799   2.644   3.371   1.472
 1222SOL     OW 3800   2.005   3.285   1.923
 1222SOL    HW1 3801   2.055   3.342   1.982
 1222SOL    HW2 3802   1.929   3.338   1.897
 1223SOL     OW 3803   3.712   3.927   1.305
 1223SOL    HW1 3804   3.761   3.972   1.236
 1223SOL    HW2 3805   3.746   3.964   1.387
 1224SOL     OW 3806   0.932   2.744   2.989
 1224SOL    HW1 3807   0.962   2.711   3.074
 1224SOL    HW2 3808   0.849   2.787   3.008
 1225SOL     OW 3809   3.752   2.652   3.277
 1225SOL    HW1 3810   3.788   2.565   3.297
 1225SOL    HW2 3811   3.773   2.666   3.184
 1226SOL     OW 3812   1.174   3.343   0.133
 1226SOL    HW1 3813   1.127   3.401   0.193
 1226SOL    HW2 3814   1.138   3.256   0.151
 1227SOL     OW 3815   3.346   3.097   2.799
 1227SOL    HW1 3816   3.398   3.019   2.781
 1227SOL    HW2 3817   3.303   3.117   2.715
 1228SOL     OW 3818   1.406   1.661   0.181
 1228SOL    HW1 3819   1.407   1.609   0.101
 1228SOL    HW2 3820   1.401   1.597   0.252
 1229SOL     OW 3821   2.640   1.656   1.232
 1229SOL    HW1 3822   2.593   1.578   1.204
 1229SOL    HW2 3823   2.584   1.696   1.299
 1230SOL     OW 3824   2.505   0.406   2.264
 1230SOL    HW1 3825   2.560   0.426   2.340
 1230SOL    HW2 3826   2.416   0.421   2.294
 1231SOL     OW 3827   1.088   2.646   0.545
 1231SOL    HW1 3828   1.082   2.707   0.471
 1231SOL    HW2 3829   1.004   2.657   0.591
 1232SOL     OW 3830   0.670   2.755   0.216
 1232SOL    HW1 3831   0.585   2.791   0.190
 1232SOL    HW2 3832   0.649   2.688   0.281
 1233SOL     OW 3833   0.479   3.214   1.152
 1233SOL    HW1 3834   0.551   3.276   1.142
 1233SOL    HW2 3835   0.411   3.264   1.197
 1234SOL     OW 3836   2.031   3.191   0.052
 1234SOL    HW1 3837   2.101   3.126   0.040
 1234SOL    HW2 3838   1.952   3.147   0.022
 1235SOL     OW 3839   1.089   2.901   2.522
 1235SOL    HW1 3840   1.007   2.880   2.567
 1235SOL    HW2 3841   1.075   2.872   2.432
 1236SOL     OW 3842   1.019   2.014   0.393
 1236SOL    HW1 3843   1.085   2.084   0.394
 1236SOL    HW2 3844   0.971   2.028   0.311
 1237SOL     OW 3845   2.837   2.700   0.396
 1237SOL    HW1 3846   2.910   2.707   0.335
 1237SOL    HW2 3847   2.877   2.681   0.481
 1238SOL     OW 3848   0.455   1.904   1.251
 1238SOL    HW1 3849   0.377   1.874   1.204
 1238SOL    HW2 3850   0.494   1.824   1.285
 1239SOL     OW 3851   3.183   3.784   0.677
 1239SOL    HW1 3852   3.206   3.743   0.593
 1239SOL    HW2 3853   3.227   3.869   0.675
 1240SOL     OW 3854   3.386   1.677   0.648
 1240SOL    HW1 3855   3.319   1.635   0.701
 1240SOL    HW2 3856   3.349   1.678   0.559
 1241SOL     OW 3857   2.443   3.901   0.261
 1241SOL    HW1 3858   2.478   3.932   0.344
 1241SOL    HW2 3859   2.475   3.812   0.252
 1242SOL     OW 3860   0.713   3.612   1.720
 1242SOL    HW1 3861   0.797   3.600   1.766
 1242SOL    HW2 3862   0.654   3.551   1.762
 1243SOL     OW 3863   0.054   0.249   1.720
 1243SOL    HW1 3864   0.126   0.241   1.782
 1243SOL    HW2 3865   0.049   0.343   1.701
 1244SOL     OW 3866   3.659   2.027   0.828
 1244SOL    HW1 3867   3.604   1.952   0.849
 1244SOL    HW2 3868   3.640   2.046   0.736
 1245SOL     OW 3869   0.173   0.585   1.011
 1245SOL    HW1 3870   0.250   0.642   1.011
 1245SOL    HW2 3871   0.161   0.561   1.103
 1246SOL     OW 3872   0.366   0.351   0.622
 1246SOL    HW1 3873   0.370   0.403   0.703
 1246SOL    HW2 3874   0.442   0.379   0.572
 1247SOL     OW 3875   2.290   1.089   1.859
 1247SOL    HW1 3876   2.342   1.028   1.807
 1247SOL    HW2 3877   2.354   1.143   1.905
 1248SOL     OW 3878   1.328   2.905   3.574
 1248SOL    HW1 3879   1.336   2.966   3.500
 1248SOL    HW2 3880   1.248   2.856   3.556
 1249SOL     OW 3881   1.040   0.983   0.308
 1249SOL    HW1 3882   0.991   1.016   0.384
 1249SOL    HW2 3883   1.122   0.951   0.344
 1250SOL     OW 3884   0.256   1.974   0.510
 1250SOL    HW1 3885   0.172   1.958   0.553
 1250SOL    HW2 3886   0.258   1.913   0.437
 1251SOL     OW 3887   3.884   2.563   0.159
 1251SOL    HW1 3888   3.883   2.470   0.178
 1251SOL    HW2 3889   3.807   2.577   0.104
 1252SOL     OW 3890   1.419   2.073   2.114
 1252SOL    HW1 3891   1.356   2.001   2.123
 1252SOL    HW2 3892   1.451   2.067   2.024
 1253SOL     OW 3893   3.373   0.439   1.184
 1253SOL    HW1 3894   3.314   0.469   1.253
 1253SOL    HW2 3895   3.391   0.348   1.206
 1254SOL     OW 3896   2.843   1.010   1.902
 1254SOL    HW1 3897   2.843   0.953   1.825
 1254SOL    HW2 3898   2.935   1.011   1.931
 1255SOL     OW 3899   2.231   2.999   0.677
 1255SOL    HW1 3900   2.265   2.998   0.766
 1255SOL    HW2 3901   2.302   2.964   0.623
 1256SOL     OW 3902   2.123   2.874   0.109
 1256SOL    HW1 3903   2.204   2.912   0.143
 1256SOL    HW2 3904   2.149   2.832   0.027
 1257SOL     OW 3905   3.058   2.078   3.847
 1257SOL    HW1 3906   3.136   2.022   3.846
 1257SOL    HW2 3907   3.057   2.117   3.934
 1258SOL     OW 3908   0.144   0.865   1.104
 1258SOL    HW1 3909   0.163   0.958   1.116
 1258SOL    HW2 3910   0.153   0.828   1.192
 1259SOL     OW 3911   2.363   1.112   0.228
 1259SOL    HW1 3912   2.316   1.159   0.296
 1259SOL    HW2 3913   2.416   1.048   0.275
 1260SOL     OW 3914   1.995   1.263   3.019
 1260SOL    HW1 3915   1.997   1.317   3.098
 1260SOL    HW2 3916   2.080   1.220   3.017
 1261SOL     OW 3917   1.490   0.289   3.749
 1261SOL    HW1 3918   1.415   0.345   3.769
 1261SOL    HW2 3919   1.562   0.351   3.733
 1262SOL     OW 3920   2.335   2.698   1.852
 1262SOL    HW1 3921   2.285   2.639   1.796
 1262SOL    HW2 3922   2.330   2.783   1.808
 1263SOL     OW 3923   2.414   1.398   0.900
 1263SOL    HW1 3924   2.444   1.307   0.908
 1263SOL    HW2 3925   2.391   1.408   0.808
 1264SOL     OW 3926   1.188   2.827   2.279
 1264SOL    HW1 3927   1.173   2.921   2.267
 1264SOL    HW2 3928   1.237   2.801   2.201
 1265SOL     OW 3929   2.157   3.275   3.714
 1265SOL    HW1 3930   2.224   3.308   3.654
 1265SOL    HW2 3931   2.093   3.346   3.720
 1266SOL     OW 3932   1.059   3.081   1.191
 1266SOL    HW1 3933   1.063   3.153   1.255
 1266SOL    HW2 3934   1.150   3.069   1.163
 1267SOL     OW 3935   3.193   0.055   1.248
 1267SOL    HW1 3936   3.168   0.112   1.175
 1267SOL    HW2 3937   3.286   0.038   1.234
 1268SOL     OW 3938   3.852   1.981   2.462
 1268SOL    HW1 3939   3.838   2.075   2.464
 1268SOL    HW2 3940   3.939   1.970   2.423
 1269SOL     OW 3941   0.337   0.981   0.900
 1269SOL    HW1 3942   0.275   0.934   0.956
 1269SOL    HW2 3943   0.423   0.962   0.938
 1270SOL     OW 3944   0.558   1.883   1.019
 1270SOL    HW1 3945   0.548   1.920   1.106
 1270SOL    HW2 3946   0.580   1.791   1.034
 1271SOL     OW 3947   0.177   0.855   2.049
 1271SOL    HW1 3948   0.220   0.860   2.134
 1271SOL    HW2 3949   0.220   0.783   2.004
 1272SOL     OW 3950   3.668   3.591   3.912
 1272SOL    HW1 3951   3.712   3.593   3.997
 1272SOL    HW2 3952   3.576   3.607   3.931
 1273SOL     OW 3953   3.014   2.791   1.072
 1273SOL    HW1 3954   3.081   2.851   1.040
 1273SOL    HW2 3955   2.988   2.740   0.995
 1274SOL     OW 3956   3.536   1.659   0.357
 1274SOL    HW1 3957   3.602   1.721   0.388
 1274SOL    HW2 3958   3.585   1.602   0.297
 1275SOL     OW 3959   0.491   2.024   3.377
 1275SOL    HW1 3960   0.568   1.974   3.402
 1275SOL    HW2 3961   0.478   2.003   3.285
 1276SOL     OW 3962   3.284   1.373   1.971
 1276SOL    HW1 3963   3.240   1.449   2.010
 1276SOL    HW2 3964   3.273   1.385   1.877
 1277SOL     OW 3965   2.920   3.726   2.243
 1277SOL    HW1 3966   2.835   3.685   2.262
 1277SOL    HW2 3967   2.960   3.670   2.177
 1278SOL     OW 3968   2.937   0.493   3.173
 1278SOL    HW1 3969   2.857   0.532   3.211
 1278SOL    HW2 3970   2.905   0.439   3.101
 1279SOL     OW 3971   0.279   3.786   3.546
 1279SOL    HW1 3972   0.187   3.761   3.541
 1279SOL    HW2 3973   0.302   3.811   3.457
 1280SOL     OW 3974   1.579   2.962   0.232
 1280SOL    HW1 3975   1.625   3.045   0.242
 1280SOL    HW2 3976   1.488   2.981   0.256
 1281SOL     OW 3977   1.401   0.465   0.442
 1281SOL    HW1 3978   1.342   0.473   0.516
 1281SOL    HW2 3979   1.474   0.523   0.462
 1282SOL     OW 3980   3.016   3.798   1.229
 1282SOL    HW1 3981   3.090   3.858   1.221
 1282SOL    HW2 3982   3.032   3.732   1.161
 1283SOL     OW 3983   1.512   3.209   1.119
 1283SOL    HW1 3984   1.597   3.237   1.154
 1283SOL    HW2 3985   1.494   3.271   1.048
 1284SOL     OW 3986   3.028   0.098   3.312
 1284SOL    HW1 3987   2.940   0.081   3.346
 1284SOL    HW2 3988   3.056   0.178   3.356
 1285SOL     OW 3989   0.701   1.993   2.684
 1285SOL    HW1 3990   0.689   2.027   2.773
 1285SOL    HW2 3991   0.696   1.898   2.694
 1286SOL     OW 3992   0.923   1.547   0.288
 1286SOL    HW1 3993   0.993   1.598   0.247
 1286SOL    HW2 3994   0.876   1.508   0.214
 1287SOL     OW 3995   2.973   2.479   0.302
 1287SOL    HW1 3996   3.062   2.471   0.335
 1287SOL    HW2 3997   2.938   2.558   0.343
 1288SOL     OW 3998   1.323   0.868   3.426
 1288SOL    HW1 3999   1.363   0.840   3.509
 1288SOL    HW2 4000   1.304   0.786   3.380
 1289SOL     OW 4001   2.421   2.700   0.372
 1289SOL    HW1 4002   2.366   2.628   0.401
 1289SOL    HW2 4003   2.370   2.745   0.304
 1290SOL     OW 4004   1.211   0.136   2.789
 1290SOL    HW1 4005   1.145   0.200   2.764
 1290SOL    HW2 4006   1.205   0.068   2.721
 1291SOL     OW 4007   1.610   2.465   0.868
 1291SOL    HW1 4008   1.668   2.404   0.914
 1291SOL    HW2 4009   1.526   2.420   0.864
 1292SOL     OW 4010   1.632   3.869   2.088
 1292SOL    HW1 4011   1.554   3.833   2.047
 1292SOL    HW2 4012   1.613   3.963   2.097
 1293SOL     OW 4013   1.915   1.022   3.849
 1293SOL    HW1 4014   1.847   0.999   3.785
 1293SOL    HW2 4015   1.990   0.969   3.824
 1294SOL     OW 4016   2.713   2.968   3.345
 1294SOL    HW1 4017   2.745   2.894   3.295
 1294SOL    HW2 4018   2.759   2.963   3.429
 1295SOL     OW 4019   1.522   3.047   3.372
 1295SOL    HW1 4020   1.447   3.031   3.315
 1295SOL    HW2 4021   1.596   3.055   3.311
 1296SOL     OW 4022   3.055   2.569   1.815
 1296SOL    HW1 4023   3.045   2.642   1.754
 1296SOL    HW2 4024   3.145   2.540   1.804
 1297SOL     OW 4025   2.583   1.621   3.743
 1297SOL    HW1 4026   2.553   1.712   3.745
 1297SOL    HW2 4027   2.526   1.579   3.678
 1298SOL     OW 4028   3.050   1.904   1.000
 1298SOL    HW1 4029   3.021   1.871   0.915
 1298SOL    HW2 4030   2.986   1.869   1.062
 1299SOL     OW 4031   0.081   2.846   3.666
 1299SOL    HW1 4032   0.043   2.830   3.752
 1299SOL    HW2 4033   0.044   2.777   3.610
 1300SOL     OW 4034   1.002   3.731   1.505
 1300SOL    HW1 4035   0.971   3.821   1.496
 1300SOL    HW2 4036   0.923   3.681   1.526
 1301SOL     OW 4037   0.121   0.678   0.377
 1301SOL    HW1 4038   0.173   0.668   0.297
 1301SOL    HW2 4039   0.031   0.664   0.349
 1302SOL     OW 4040   3.510   2.685   1.182
 1302SOL    HW1 4041   3.603   2.677   1.203
 1302SOL    HW2 4042   3.496   2.619   1.114
 1303SOL     OW 4043   0.783   0.512   0.965
 1303SOL    HW1 4044   0.783   0.601   0.930
 1303SOL    HW2 4045   0.855   0.511   1.028
 1304SOL     OW 4046   3.440   3.917   3.124
 1304SOL    HW1 4047   3.363   3.970   3.147
 1304SOL    HW2 4048   3.505   3.981   3.097
 1305SOL     OW 4049   0.881   2.383   2.002
 1305SOL    HW1 4050   0.972   2.360   1.981
 1305SOL    HW2 4051   0.832   2.353   1.925
 1306SOL     OW 4052   1.297   0.415   3.572
 1306SOL    HW1 4053   1.295   0.453   3.660
 1306SOL    HW2 4054   1.380   0.446   3.535
 1307SOL     OW 4055   3.500   0.503   0.250
 1307SOL    HW1 4056   3.509   0.408   0.253
 1307SOL    HW2 4057   3.511   0.525   0.157
 1308SOL     OW 4058   2.433   0.466   1.807
 1308SOL    HW1 4059   2.474   0.545   1.843
 1308SOL    HW2 4060   2.362   0.446   1.867
 1309SOL     OW 4061   0.191   2.577   2.158
 1309SOL    HW1 4062   0.267   2.552   2.211
 1309SOL    HW2 4063   0.220   2.569   2.068
 1310SOL     OW 4064   1.346   0.302   1.928
 1310SOL    HW1 4065   1.296   0.220   1.933
 1310SOL    HW2 4066   1.408   0.288   1.857
 1311SOL     OW 4067   2.858   3.290   1.111
 1311SOL    HW1 4068   2.824   3.329   1.031
 1311SOL    HW2 4069   2.953   3.301   1.105
 1312SOL     OW 4070   2.100   3.786   3.226
 1312SOL    HW1 4071   2.055   3.749   3.302
 1312SOL    HW2 4072   2.073   3.878   3.224
 1313SOL     OW 4073   3.197   1.554   0.817
 1313SOL    HW1 4074   3.116   1.590   0.781
 1313SOL    HW2 4075   3.207   1.598   0.901
 1314SOL     OW 4076   0.609   2.074   2.947
 1314SOL    HW1 4077   0.615   2.141   3.015
 1314SOL    HW2 4078   0.577   1.996   2.992
 1315SOL     OW 4079   1.471   3.145   2.171
 1315SOL    HW1 4080   1.407   3.199   2.217
 1315SOL    HW2 4081   1.549   3.200   2.165
 1316SOL     OW 4082   2.422   1.519   1.911
 1316SOL    HW1 4083   2.440   1.612   1.926
 1316SOL    HW2 4084   2.326   1.514   1.907
 1317SOL     OW 4085   0.148   1.153   0.542
 1317SOL    HW1 4086   0.236   1.148   0.578
 1317SOL    HW2 4087   0.119   1.242   0.560
 1318SOL     OW 4088   2.306   0.662   1.364
 1318SOL    HW1 4089   2.354   0.629   1.440
 1318SOL    HW2 4090   2.214   0.642   1.383
 1319SOL     OW 4091   0.480   0.698   0.219
 1319SOL    HW1 4092   0.575   0.708   0.229
 1319SOL    HW2 4093   0.467   0.606   0.196
 1320SOL     OW 4094   0.579   1.350   1.124
 1320SOL    HW1 4095   0.586   1.286   1.053
 1320SOL    HW2 4096   0.643   1.320   1.189
 1321SOL     OW 4097   3.482   1.630   1.377
 1321SOL    HW1 4098   3.396   1.669   1.392
 1321SOL    HW2 4099   3.541   1.705   1.367
 1322SOL     OW 4100   2.060   1.667   3.425
 1322SOL    HW1 4101   2.063   1.597   3.361
 1322SOL    HW2 4102   1.969   1.698   3.424
 1323SOL     OW 4103   2.132   2.511   1.726
 1323SOL    HW1 4104   2.154   2.444   1.791
 1323SOL    HW2 4105   2.080   2.465   1.661
 1324SOL     OW 4106   3.360   3.117   0.062
 1324SOL    HW1 4107   3.441   3.066   0.070
 1324SOL    HW2 4108   3.372   3.167  -0.018
 1325SOL     OW 4109   0.081   3.243   1.392
 1325SOL    HW1 4110   0.029   3.165   1.411
 1325SOL    HW2 4111   0.053   3.307   1.458
 1326SOL     OW 4112   0.888   3.354   1.346
 1326SOL    HW1 4113   0.967   3.389   1.303
 1326SOL    HW2 4114   0.922   3.296   1.414
 1327SOL     OW 4115   2.655   2.238   3.514
 1327SOL    HW1 4116   2.630   2.262   3.424
 1327SOL    HW2 4117   2.713   2.163   3.504
 1328SOL     OW 4118   1.340   1.433   1.635
 1328SOL    HW1 4119   1.394   1.388   1.570
 1328SOL    HW2 4120   1.393   1.508   1.662
 1329SOL     OW 4121   0.216   2.163   2.910
 1329SOL    HW1 4122   0.200   2.076   2.874
 1329SOL    HW2 4123   0.243   2.147   3.001
 1330SOL     OW 4124   1.772   1.744   3.454
 1330SOL    HW1 4125   1.680   1.731   3.431
 1330SOL    HW2 4126   1.785   1.839   3.450
 1331SOL     OW 4127   3.554   2.914   2.771
 1331SOL    HW1 4128   3.648   2.927   2.780
 1331SOL    HW2 4129   3.546   2.830   2.725
 1332SOL     OW 4130   2.387   2.322   3.943
 1332SOL    HW1 4131   2.334   2.301   3.867
 1332SOL    HW2 4132   2.357   2.263   4.011
 1333SOL     OW 4133   1.170   0.578   0.640
 1333SOL    HW1 4134   1.184   0.484   0.652
 1333SOL    HW2 4135   1.219   0.619   0.711
 1334SOL     OW 4136   0.493   2.430   3.272
 1334SOL    HW1 4137   0.510   2.367   3.342
 1334SOL    HW2 4138   0.528   2.513   3.305
 1335SOL     OW 4139   2.618   1.824   3.253
 1335SOL    HW1 4140   2.602   1.918   3.255
 1335SOL    HW2 4141   2.656   1.808   3.167
 1336SOL     OW 4142   0.336   2.833   3.451
 1336SOL    HW1 4143   0.377   2.894   3.513
 1336SOL    HW2 4144   0.282   2.776   3.506
 1337SOL     OW 4145   0.055   1.331   1.775
 1337SOL    HW1 4146   0.129   1.343   1.835
 1337SOL    HW2 4147  -0.001   1.268   1.819
 1338SOL     OW 4148   0.896   1.390   0.530
 1338SOL    HW1 4149   0.897   1.413   0.437
 1338SOL    HW2 4150   0.971   1.435   0.567
 1339SOL     OW 4151   2.817   3.659   3.531
 1339SOL    HW1 4152   2.890   3.627   3.477
 1339SOL    HW2 4153   2.849   3.740   3.568
 1340SOL     OW 4154   1.603   1.658   0.706
 1340SOL    HW1 4155   1.596   1.747   0.671
 1340SOL    HW2 4156   1.555   1.660   0.788
 1341SOL     OW 4157   2.645   3.042   1.473
 1341SOL    HW1 4158   2.567   3.097   1.484
 1341SOL    HW2 4159   2.648   3.023   1.379
 1342SOL     OW 4160   2.226   3.010   3.672
 1342SOL    HW1 4161   2.197   3.101   3.683
 1342SOL    HW2 4162   2.295   3.015   3.607
 1343SOL     OW 4163   0.853   2.437   0.716
 1343SOL    HW1 4164   0.847   2.528   0.688
 1343SOL    HW2 4165   0.844   2.387   0.635
 1344SOL     OW 4166   0.447   2.358   3.746
 1344SOL    HW1 4167   0.499   2.305   3.806
 1344SOL    HW2 4168   0.356   2.343   3.773
 1345SOL     OW 4169   1.027   3.770   0.912
 1345SOL    HW1 4170   1.015   3.702   0.846
 1345SOL    HW2 4171   1.118   3.762   0.939
 1346SOL     OW 4172   2.300   2.251   2.606
 1346SOL    HW1 4173   2.205   2.250   2.616
 1346SOL    HW2 4174   2.316   2.311   2.533
 1347SOL     OW 4175   0.157   1.236   3.763
 1347SOL    HW1 4176   0.209   1.157   3.751
 1347SOL    HW2 4177   0.208   1.290   3.824
 1348SOL     OW 4178   2.717   3.518   1.705
 1348SOL    HW1 4179   2.655   3.485   1.640
 1348SOL    HW2 4180   2.800   3.524   1.658
 1349SOL     OW 4181   1.140   1.422   1.815
 1349SOL    HW1 4182   1.157   1.335   1.849
 1349SOL    HW2 4183   1.207   1.435   1.748
 1350SOL     OW 4184   1.263   0.270   2.363
 1350SOL    HW1 4185   1.325   0.217   2.412
 1350SOL    HW2 4186   1.247   0.346   2.418
 1351SOL     OW 4187   2.495   1.549   3.166
 1351SOL    HW1 4188   2.462   1.533   3.078
 1351SOL    HW2 4189   2.559   1.619   3.156
 1352SOL     OW 4190   0.324   3.674   1.397
 1352SOL    HW1 4191   0.358   3.688   1.309
 1352SOL    HW2 4192   0.366   3.592   1.426
 1353SOL     OW 4193   1.123   2.579   1.589
 1353SOL    HW1 4194   1.095   2.612   1.504
 1353SOL    HW2 4195   1.077   2.496   1.599
 1354SOL     OW 4196   2.733   3.179   3.752
 1354SOL    HW1 4197   2.721   3.272   3.771
 1354SOL    HW2 4198   2.659   3.136   3.796
 1355SOL     OW 4199   3.534   3.088   1.365
 1355SOL    HW1 4200   3.613   3.099   1.312
 1355SOL    HW2 4201   3.509   3.177   1.391
 1356SOL     OW 4202   2.225   2.854   3.395
 1356SOL    HW1 4203   2.201   2.889   3.481
 1356SOL    HW2 4204   2.299   2.796   3.413
 1357SOL     OW 4205   1.003   3.863   1.203
 1357SOL    HW1 4206   1.085   3.911   1.186
 1357SOL    HW2 4207   0.954   3.870   1.121
 1358SOL     OW 4208   3.405   2.018   1.682
 1358SOL    HW1 4209   3.367   2.044   1.599
 1358SOL    HW2 4210   3.440   1.931   1.666
 1359SOL     OW 4211   0.725   3.422   3.210
 1359SOL    HW1 4212   0.695   3.386   3.293
 1359SOL    HW2 4213   0.820   3.406   3.210
 1360SOL     OW 4214   1.072   3.792   3.617
 1360SOL    HW1 4215   1.136   3.848   3.573
 1360SOL    HW2 4216   0.999   3.785   3.555
 1361SOL     OW 4217   3.384   0.770   0.762
 1361SOL    HW1 4218   3.437   0.708   0.811
 1361SOL    HW2 4219   3.445   0.839   0.735
 1362SOL     OW 4220   0.632   0.178   2.941
 1362SOL    HW1 4221   0.660   0.144   2.856
 1362SOL    HW2 4222   0.557   0.234   2.920
 1363SOL     OW 4223   0.282   1.877   1.039
 1363SOL    HW1 4224   0.237   1.800   1.003
 1363SOL    HW2 4225   0.367   1.878   0.995
 1364SOL     OW 4226   0.466   2.725   1.236
 1364SOL    HW1 4227   0.561   2.719   1.232
 1364SOL    HW2 4228   0.449   2.814   1.269
 1365SOL     OW 4229   3.652   0.910   2.164
 1365SOL    HW1 4230   3.626   0.961   2.088
 1365SOL    HW2 4231   3.725   0.856   2.132
 1366SOL     OW 4232   3.223   2.720   0.569
 1366SOL    HW1 4233   3.185   2.804   0.595
 1366SOL    HW2 4234   3.148   2.660   0.567
 1367SOL     OW 4235   1.634   0.181   0.781
 1367SOL    HW1 4236   1.702   0.249   0.790
 1367SOL    HW2 4237   1.651   0.142   0.695
 1368SOL     OW 4238   2.552   3.230   3.266
 1368SOL    HW1 4239   2.607   3.190   3.333
 1368SOL    HW2 4240   2.491   3.161   3.240
 1369SOL     OW 4241   1.980   3.050   1.364
 1369SOL    HW1 4242   1.970   3.002   1.282
 1369SOL    HW2 4243   1.897   3.038   1.409
 1370SOL     OW 4244   2.078   0.329   2.559
 1370SOL    HW1 4245   2.067   0.271   2.483
 1370SOL    HW2 4246   2.072   0.271   2.634
 1371SOL     OW 4247   3.410   0.765   0.315
 1371SOL    HW1 4248   3.396   0.767   0.221
 1371SOL    HW2 4249   3.441   0.676   0.333
 1372SOL     OW 4250   2.422   0.461   3.545
 1372SOL    HW1 4251   2.379   0.540   3.510
 1372SOL    HW2 4252   2.408   0.395   3.478
 1373SOL     OW 4253   1.329   3.483   1.062
 1373SOL    HW1 4254   1.271   3.557   1.043
 1373SOL    HW2 4255   1.357   3.451   0.977
 1374SOL     OW 4256   0.592   3.782   3.640
 1374SOL    HW1 4257   0.511   3.734   3.619
 1374SOL    HW2 4258   0.583   3.865   3.593
 1375SOL     OW 4259   3.099   3.688   2.634
 1375SOL    HW1 4260   3.115   3.642   2.551
 1375SOL    HW2 4261   3.114   3.622   2.701
 1376SOL     OW 4262   0.056   3.444   3.857
 1376SOL    HW1 4263   0.099   3.372   3.903
 1376SOL    HW2 4264   0.059   3.419   3.764
 1377SOL     OW 4265   1.768   2.341   3.344
 1377SOL    HW1 4266   1.767   2.385   3.259
 1377SOL    HW2 4267   1.844   2.282   3.340
 1378SOL     OW 4268   1.839   0.484   0.430
 1378SOL    HW1 4269   1.876   0.406   0.388
 1378SOL    HW2 4270   1.868   0.556   0.375
 1379SOL     OW 4271   3.004   2.940   0.513
 1379SOL    HW1 4272   2.910   2.947   0.530
 1379SOL    HW2 4273   3.012   2.949   0.418
 1380SOL     OW 4274   0.274   3.252   0.382
 1380SOL    HW1 4275   0.345   3.298   0.338
 1380SOL    HW2 4276   0.301   3.161   0.385
 1381SOL     OW 4277   2.352   1.091   1.518
 1381SOL    HW1 4278   2.338   1.185   1.529
 1381SOL    HW2 4279   2.267   1.051   1.539
 1382SOL     OW 4280   1.568   1.806   3.827
 1382SOL    HW1 4281   1.616   1.856   3.761
 1382SOL    HW2 4282   1.620   1.815   3.907
 1383SOL     OW 4283   1.521   2.806   2.924
 1383SOL    HW1 4284   1.555   2.745   2.990
 1383SOL    HW2 4285   1.473   2.750   2.862
 1384SOL     OW 4286   0.070   0.450   3.667
 1384SOL    HW1 4287  -0.021   0.478   3.667
 1384SOL    HW2 4288   0.077   0.387   3.739
 1385SOL     OW 4289   0.536   3.559   2.261
 1385SOL    HW1 4290   0.560   3.647   2.232
 1385SOL    HW2 4291   0.613   3.528   2.309
 1386SOL     OW 4292   3.685   0.340   3.956
 1386SOL    HW1 4293   3.622   0.279   3.993
 1386SOL    HW2 4294   3.739   0.286   3.898
 1387SOL     OW 4295   0.878  -0.008   1.435
 1387SOL    HW1 4296   0.948  -0.008   1.371
 1387SOL    HW2 4297   0.850   0.084   1.439
 1388SOL     OW 4298   3.156   3.534   2.876
 1388SOL    HW1 4299   3.159   3.443   2.906
 1388SOL    HW2 4300   3.240   3.571   2.901
 1389SOL     OW 4301   2.956   0.579   2.743
 1389SOL    HW1 4302   2.996   0.662   2.717
 1389SOL    HW2 4303   3.006   0.512   2.696
 1390SOL     OW 4304   0.654   2.923   0.538
 1390SOL    HW1 4305   0.620   2.981   0.606
 1390SOL    HW2 4306   0.616   2.837   0.558
 1391SOL     OW 4307   1.083   3.122   0.251
 1391SOL    HW1 4308   1.011   3.105   0.312
 1391SOL    HW2 4309   1.081   3.048   0.191
 1392SOL     OW 4310   3.456   0.443   2.914
 1392SOL    HW1 4311   3.407   0.451   2.832
 1392SOL    HW2 4312   3.392   0.463   2.982
 1393SOL     OW 4313   2.692   2.577   2.383
 1393SOL    HW1 4314   2.690   2.622   2.298
 1393SOL    HW2 4315   2.705   2.485   2.361
 1394SOL     OW 4316   2.326   2.085   0.106
 1394SOL    HW1 4317   2.288   2.012   0.155
 1394SOL    HW2 4318   2.349   2.048   0.021
 1395SOL     OW 4319   1.425   2.327   3.063
 1395SOL    HW1 4320   1.499   2.342   3.004
 1395SOL    HW2 4321   1.426   2.403   3.121
 1396SOL     OW 4322   1.431   1.932   2.989
 1396SOL    HW1 4323   1.486   1.978   2.925
 1396SOL    HW2 4324   1.342   1.941   2.955
 1397SOL     OW 4325   2.034   3.241   2.787
 1397SOL    HW1 4326   2.010   3.259   2.878
 1397SOL    HW2 4327   2.106   3.177   2.794
 1398SOL     OW 4328   2.035   3.716   0.064
 1398SOL    HW1 4329   1.982   3.733   0.142
 1398SOL    HW2 4330   2.067   3.627   0.076
 1399SOL     OW 4331   3.460   3.883   0.178
 1399SOL    HW1 4332   3.476   3.857   0.268
 1399SOL    HW2 4333   3.375   3.928   0.181
 1400SOL     OW 4334   1.243   0.841   0.483
 1400SOL    HW1 4335   1.285   0.808   0.404
 1400SOL    HW2 4336   1.232   0.764   0.539
 1401SOL     OW 4337   1.633   0.096   2.844
 1401SOL    HW1 4338   1.592   0.150   2.912
 1401SOL    HW2 4339   1.719   0.074   2.879
 1402SOL     OW 4340   0.278   3.544   0.081
 1402SOL    HW1 4341   0.245   3.586   0.160
 1402SOL    HW2 4342   0.217   3.569   0.012
 1403SOL     OW 4343   1.122   1.036   3.524
 1403SOL    HW1 4344   1.074   0.960   3.558
 1403SOL    HW2 4345   1.193   0.998   3.472
 1404SOL     OW 4346   1.430   1.288   0.656
 1404SOL    HW1 4347   1.368   1.231   0.610
 1404SOL    HW2 4348   1.380   1.323   0.730
 1405SOL     OW 4349   2.049   2.058   0.607
 1405SOL    HW1 4350   2.106   2.108   0.665
 1405SOL    HW2 4351   1.960   2.083   0.634
 1406SOL     OW 4352   0.656   1.143   2.895
 1406SOL    HW1 4353   0.729   1.203   2.911
 1406SOL    HW2 4354   0.624   1.121   2.983
 1407SOL     OW 4355   1.131   2.619   3.876
 1407SOL    HW1 4356   1.136   2.596   3.783
 1407SOL    HW2 4357   1.038   2.633   3.892
 1408SOL     OW 4358   0.222   2.012   3.429
 1408SOL    HW1 4359   0.173   2.038   3.351
 1408SOL    HW2 4360   0.311   2.043   3.414
 1409SOL     OW 4361   2.630   2.632   2.816
 1409SOL    HW1 4362   2.712   2.639   2.768
 1409SOL    HW2 4363   2.562   2.640   2.748
 1410SOL     OW 4364   1.822   1.339   2.015
 1410SOL    HW1 4365   1.865   1.425   2.017
 1410SOL    HW2 4366   1.891   1.279   1.987
 1411SOL     OW 4367   2.779   1.692   2.199
 1411SOL    HW1 4368   2.725   1.613   2.197
 1411SOL    HW2 4369   2.815   1.699   2.110
 1412SOL     OW 4370   3.400   0.909   1.453
 1412SOL    HW1 4371   3.330   0.849   1.427
 1412SOL    HW2 4372   3.389   0.919   1.548
 1413SOL     OW 4373   3.919   2.236   2.686
 1413SOL    HW1 4374   3.996   2.256   2.633
 1413SOL    HW2 4375   3.893   2.320   2.724
 1414SOL     OW 4376   3.155   3.497   0.294
 1414SOL    HW1 4377   3.109   3.445   0.360
 1414SOL    HW2 4378   3.175   3.435   0.225
 1415SOL     OW 4379   0.460   2.966   3.644
 1415SOL    HW1 4380   0.474   2.874   3.664
 1415SOL    HW2 4381   0.412   3.000   3.719
 1416SOL     OW 4382   2.165   1.201   2.187
 1416SOL    HW1 4383   2.119   1.135   2.239
 1416SOL    HW2 4384   2.255   1.197   2.217
 1417SOL     OW 4385   1.960   2.584   0.106
 1417SOL    HW1 4386   1.876   2.608   0.144
 1417SOL    HW2 4387   2.025   2.627   0.161
 1418SOL     OW 4388   1.463   3.351   0.875
 1418SOL    HW1 4389   1.558   3.359   0.877
 1418SOL    HW2 4390   1.442   3.345   0.781
 1419SOL     OW 4391   1.553   2.358   0.063
 1419SOL    HW1 4392   1.644   2.330   0.053
 1419SOL    HW2 4393   1.510   2.326  -0.016
 1420SOL     OW 4394   2.895   0.882   0.089
 1420SOL    HW1 4395   2.906   0.973   0.062
 1420SOL    HW2 4396   2.974   0.838   0.057
 1421SOL     OW 4397   2.088   0.518   1.408
 1421SOL    HW1 4398   2.133   0.435   1.427
 1421SOL    HW2 4399   1.998   0.492   1.386
 1422SOL     OW 4400   1.980   3.287   3.056
 1422SOL    HW1 4401   2.042   3.338   3.108
 1422SOL    HW2 4402   1.983   3.199   3.094
 1423SOL     OW 4403   2.058   0.716   1.655
 1423SOL    HW1 4404   2.090   0.671   1.577
 1423SOL    HW2 4405   1.977   0.670   1.678
 1424SOL     OW 4406   0.241   1.789   1.973
 1424SOL    HW1 4407   0.271   1.793   2.064
 1424SOL    HW2 4408   0.284   1.864   1.931
 1425SOL     OW 4409   3.631   2.780   0.656
 1425SOL    HW1 4410   3.609   2.712   0.719
 1425SOL    HW2 4411   3.563   2.774   0.590
 1426SOL     OW 4412   2.062   2.010   3.174
 1426SOL    HW1 4413   2.150   1.974   3.185
 1426SOL    HW2 4414   2.048   2.014   3.080
 1427SOL     OW 4415   0.244   0.631   3.607
 1427SOL    HW1 4416   0.322   0.595   3.648
 1427SOL    HW2 4417   0.183   0.557   3.601
 1428SOL     OW 4418   0.071   3.597   2.085
 1428SOL    HW1 4419   0.152   3.549   2.067
 1428SOL    HW2 4420   0.018   3.537   2.138
 1429SOL     OW 4421   3.790   2.225   1.737
 1429SOL    HW1 4422   3.844   2.262   1.807
 1429SOL    HW2 4423   3.731   2.165   1.781
 1430SOL     OW 4424   0.927   0.434   3.712
 1430SOL    HW1 4425   0.957   0.453   3.623
 1430SOL    HW2 4426   1.007   0.419   3.762
 1431SOL     OW 4427   3.160   1.306   2.869
 1431SOL    HW1 4428   3.255   1.306   2.874
 1431SOL    HW2 4429   3.135   1.394   2.897
 1432SOL     OW 4430   1.484   3.489   0.354
 1432SOL    HW1 4431   1.392   3.508   0.336
 1432SOL    HW2 4432   1.532   3.536   0.286
 1433SOL     OW 4433   0.648   2.170   2.201
 1433SOL    HW1 4434   0.722   2.189   2.143
 1433SOL    HW2 4435   0.656   2.233   2.272
 1434SOL     OW 4436   2.673   2.307   3.259
 1434SOL    HW1 4437   2.721   2.298   3.177
 1434SOL    HW2 4438   2.717   2.377   3.306
 1435SOL     OW 4439   3.674   1.448   3.243
 1435SOL    HW1 4440   3.636   1.533   3.267
 1435SOL    HW2 4441   3.756   1.469   3.200
 1436SOL     OW 4442   2.648   1.731   2.987
 1436SOL    HW1 4443   2.737   1.724   2.950
 1436SOL    HW2 4444   2.611   1.809   2.944
 1437SOL     OW 4445   3.986   1.122   1.107
 1437SOL    HW1 4446   3.926   1.132   1.033
 1437SOL    HW2 4447   3.931   1.091   1.179
 1438SOL     OW 4448   1.444   3.623   2.003
 1438SOL    HW1 4449   1.437   3.575   2.085
 1438SOL    HW2 4450   1.494   3.566   1.946
 1439SOL     OW 4451   0.340   3.540   0.908
 1439SOL    HW1 4452   0.316   3.448   0.898
 1439SOL    HW2 4453   0.295   3.567   0.988
 1440SOL     OW 4454   0.286   1.612   3.666
 1440SOL    HW1 4455   0.236   1.689   3.636
 1440SOL    HW2 4456   0.241   1.538   3.626
 1441SOL     OW 4457   0.342   0.600   2.963
 1441SOL    HW1 4458   0.339   0.533   3.032
 1441SOL    HW2 4459   0.325   0.551   2.883
 1442SOL     OW 4460   1.899   0.008   0.816
 1442SOL    HW1 4461   1.944  -0.026   0.893
 1442SOL    HW2 4462   1.811   0.030   0.847
 1443SOL     OW 4463   3.335   3.674   1.755
 1443SOL    HW1 4464   3.380   3.594   1.783
 1443SOL    HW2 4465   3.345   3.734   1.828
 1444SOL     OW 4466   2.501   0.342   3.002
 1444SOL    HW1 4467   2.577   0.354   2.945
 1444SOL    HW2 4468   2.453   0.269   2.963
 1445SOL     OW 4469   1.309   3.029   1.105
 1445SOL    HW1 4470   1.370   3.082   1.158
 1445SOL    HW2 4471   1.354   2.946   1.093
 1446SOL     OW 4472   1.849   0.534   1.677
 1446SOL    HW1 4473   1.791   0.537   1.602
 1446SOL    HW2 4474   1.828   0.451   1.720
 1447SOL     OW 4475   3.150   2.187   0.111
 1447SOL    HW1 4476   3.066   2.234   0.110
 1447SOL    HW2 4477   3.135   2.113   0.170
 1448SOL     OW 4478   3.092   3.907   3.874
 1448SOL    HW1 4479   3.118   3.853   3.948
 1448SOL    HW2 4480   3.032   3.972   3.911
 1449SOL     OW 4481   2.637   2.528   0.928
 1449SOL    HW1 4482   2.563   2.588   0.932
 1449SOL    HW2 4483   2.643   2.492   1.016
 1450SOL     OW 4484   0.004   1.066   1.979
 1450SOL    HW1 4485  -0.066   1.034   1.923
 1450SOL    HW2 4486   0.064   0.992   1.987
 1451SOL     OW 4487   2.402   0.604   3.255
 1451SOL    HW1 4488   2.497   0.618   3.250
 1451SOL    HW2 4489   2.375   0.594   3.163
 1452SOL     OW 4490   3.320   1.506   1.213
 1452SOL    HW1 4491   3.351   1.435   1.157
 1452SOL    HW2 4492   3.398   1.537   1.258
 1453SOL     OW 4493   2.053   2.508   0.733
 1453SOL    HW1 4494   2.021   2.544   0.816
 1453SOL    HW2 4495   2.070   2.585   0.678
 1454SOL     OW 4496   3.175   1.140   2.625
 1454SOL    HW1 4497   3.149   1.178   2.709
 1454SOL    HW2 4498   3.237   1.204   2.589
 1455SOL     OW 4499   2.281   2.793   3.864
 1455SOL    HW1 4500   2.332   2.717   3.837
 1455SOL    HW2 4501   2.268   2.843   3.784
 1456SOL     OW 4502   3.499   3.369   2.919
 1456SOL    HW1 4503   3.449   3.298   2.880
 1456SOL    HW2 4504   3.531   3.334   3.002
 1457SOL     OW 4505   1.806   0.224   1.124
 1457SOL    HW1 4506   1.895   0.208   1.156
 1457SOL    HW2 4507   1.773   0.138   1.101
 1458SOL     OW 4508   1.603   3.392   2.241
 1458SOL    HW1 4509   1.675   3.372   2.182
 1458SOL    HW2 4510   1.639   3.381   2.329
 1459SOL     OW 4511   2.751   1.248   1.751
 1459SOL    HW1 4512   2.781   1.182   1.813
 1459SOL    HW2 4513   2.809   1.237   1.675
 1460SOL     OW 4514   2.206   1.782   3.840
 1460SOL    HW1 4515   2.266   1.744   3.904
 1460SOL    HW2 4516   2.123   1.791   3.887
 1461SOL     OW 4517   2.404   3.063   3.089
 1461SOL    HW1 4518   2.405   3.018   3.004
 1461SOL    HW2 4519   2.312   3.083   3.104
 1462SOL     OW 4520   3.235   1.642   2.057
 1462SOL    HW1 4521   3.233   1.686   1.972
 1462SOL    HW2 4522   3.322   1.662   2.091
 1463SOL     OW 4523   1.262   1.194   3.830
 1463SOL    HW1 4524   1.267   1.185   3.735
 1463SOL    HW2 4525   1.173   1.164   3.852
 1464SOL     OW 4526   2.504   1.636   3.448
 1464SOL    HW1 4527   2.439   1.582   3.402
 1464SOL    HW2 4528   2.550   1.682   3.378
 1465SOL     OW 4529   1.216   3.161   2.559
 1465SOL    HW1 4530   1.132   3.186   2.597
 1465SOL    HW2 4531   1.210   3.067   2.543
 1466SOL     OW 4532   3.526   2.317   0.232
 1466SOL    HW1 4533   3.506   2.346   0.321
 1466SOL    HW2 4534   3.600   2.256   0.242
 1467SOL     OW 4535   3.222   1.637   3.925
 1467SOL    HW1 4536   3.204   1.558   3.874
 1467SOL    HW2 4537   3.139   1.659   3.966
 1468SOL     OW 4538   1.422   1.098   3.559
 1468SOL    HW1 4539   1.364   1.071   3.488
 1468SOL    HW2 4540   1.393   1.186   3.582
 1469SOL     OW 4541   2.895   1.389   0.255
 1469SOL    HW1 4542   2.989   1.372   0.247
 1469SOL    HW2 4543   2.863   1.319   0.312
 1470SOL     OW 4544   0.191   3.126   3.818
 1470SOL    HW1 4545   0.115   3.082   3.855
 1470SOL    HW2 4546   0.266   3.082   3.858
 1471SOL     OW 4547   0.783   3.494   2.311
 1471SOL    HW1 4548   0.864   3.530   2.274
 1471SOL    HW2 4549   0.807   3.472   2.401
 1472SOL     OW 4550   1.228   2.180   0.319
 1472SOL    HW1 4551   1.303   2.136   0.279
 1472SOL    HW2 4552   1.200   2.244   0.254
 1473SOL     OW 4553   1.174   0.521   1.511
 1473SOL    HW1 4554   1.241   0.475   1.461
 1473SOL    HW2 4555   1.168   0.473   1.593
 1474SOL     OW 4556   2.143   0.881   3.831
 1474SOL    HW1 4557   2.127   0.815   3.899
 1474SOL    HW2 4558   2.234   0.908   3.845
 1475SOL     OW 4559   1.480   1.024   0.383
 1475SOL    HW1 4560   1.401   1.029   0.437
 1475SOL    HW2 4561   1.450   1.037   0.294
 1476SOL     OW 4562   2.716   3.410   2.245
 1476SOL    HW1 4563   2.708   3.390   2.152
 1476SOL    HW2 4564   2.805   3.383   2.268
 1477SOL     OW 4565   3.597   2.104   2.178
 1477SOL    HW1 4566   3.503   2.118   2.194
 1477SOL    HW2 4567   3.620   2.030   2.235
 1478SOL     OW 4568   3.269   1.216   0.386
 1478SOL    HW1 4569   3.262   1.295   0.331
 1478SOL    HW2 4570   3.242   1.245   0.473
 1479SOL     OW 4571   0.686   1.031   0.324
 1479SOL    HW1 4572   0.601   1.073   0.338
 1479SOL    HW2 4573   0.711   1.057   0.235
 1480SOL     OW 4574   2.044   1.278   2.577
 1480SOL    HW1 4575   2.038   1.337   2.652
 1480SOL    HW2 4576   2.045   1.190   2.616
 1481SOL     OW 4577   0.854   0.983   0.529
 1481SOL    HW1 4578   0.785   0.999   0.465
 1481SOL    HW2 4579   0.865   0.888   0.530
 1482SOL     OW 4580   3.814   3.787   0.160
 1482SOL    HW1 4581   3.752   3.783   0.232
 1482SOL    HW2 4582   3.824   3.880   0.141
 1483SOL     OW 4583   0.424   2.829   0.178
 1483SOL    HW1 4584   0.337   2.791   0.186
 1483SOL    HW2 4585   0.419   2.911   0.228
 1484SOL     OW 4586   1.444   2.466   1.699
 1484SOL    HW1 4587   1.498   2.451   1.622
 1484SOL    HW2 4588   1.355   2.449   1.670
 1485SOL     OW 4589   1.910   1.360   3.456
 1485SOL    HW1 4590   1.944   1.340   3.543
 1485SOL    HW2 4591   1.838   1.297   3.443
 1486SOL     OW 4592   1.302   1.052   3.081
 1486SOL    HW1 4593   1.219   1.062   3.034
 1486SOL    HW2 4594   1.300   0.962   3.114
 1487SOL     OW 4595   0.125   1.528   2.717
 1487SOL    HW1 4596   0.183   1.456   2.695
 1487SOL    HW2 4597   0.183   1.600   2.742
 1488SOL     OW 4598   3.201   2.237   1.536
 1488SOL    HW1 4599   3.109   2.221   1.519
 1488SOL    HW2 4600   3.201   2.289   1.617
 1489SOL     OW 4601   3.291   2.424   1.332
 1489SOL    HW1 4602   3.300   2.367   1.408
 1489SOL    HW2 4603   3.265   2.509   1.368
 1490SOL     OW 4604   0.973   3.608   0.676
 1490SOL    HW1 4605   0.928   3.598   0.592
 1490SOL    HW2 4606   0.927   3.548   0.735
 1491SOL     OW 4607   2.563   3.898   0.507
 1491SOL    HW1 4608   2.558   3.804   0.493
 1491SOL    HW2 4609   2.510   3.914   0.584
 1492SOL     OW 4610   3.386   1.899   2.416
 1492SOL    HW1 4611   3.332   1.830   2.376
 1492SOL    HW2 4612   3.471   1.857   2.431
 1493SOL     OW 4613   0.140   0.558   1.793
 1493SOL    HW1 4614   0.171   0.538   1.704
 1493SOL    HW2 4615   0.063   0.614   1.779
 1494SOL     OW 4616   3.823   2.159   0.053
 1494SOL    HW1 4617   3.798   2.204   0.134
 1494SOL    HW2 4618   3.865   2.226  -0.000
 1495SOL     OW 4619   2.675   2.982   0.441
 1495SOL    HW1 4620   2.711   2.898   0.412
 1495SOL    HW2 4621   2.674   2.976   0.537
 1496SOL     OW 4622   2.371   1.986   3.797
 1496SOL    HW1 4623   2.295   1.929   3.808
 1496SOL    HW2 4624   2.416   1.951   3.720
 1497SOL     OW 4625   1.631   1.792   3.074
 1497SOL    HW1 4626   1.543   1.828   3.057
 1497SOL    HW2 4627   1.686   1.833   3.008
 1498SOL     OW 4628   1.345   0.718   2.928
 1498SOL    HW1 4629   1.424   0.763   2.958
 1498SOL    HW2 4630   1.275   0.781   2.941
 1499SOL     OW 4631   2.768   2.526   3.410
 1499SOL    HW1 4632   2.843   2.584   3.424
 1499SOL    HW2 4633   2.727   2.518   3.496
 1500SOL     OW 4634   1.998   1.439   2.369
 1500SOL    HW1 4635   1.909   1.414   2.346
 1500SOL    HW2 4636   2.023   1.379   2.439
 1501SOL     OW 4637   0.280   3.395   1.246
 1501SOL    HW1 4638   0.221   3.366   1.315
 1501SOL    HW2 4639   0.231   3.460   1.197
 1502SOL     OW 4640   1.254   2.256   1.357
 1502SOL    HW1 4641   1.210   2.328   1.313
 1502SOL    HW2 4642   1.340   2.251   1.315
 1503SOL     OW 4643   2.495   1.156   1.037
 1503SOL    HW1 4644   2.524   1.108   1.114
 1503SOL    HW2 4645   2.515   1.099   0.963
 1504SOL     OW 4646   3.440   1.735   3.368
 1504SOL    HW1 4647   3.527   1.774   3.372
 1504SOL    HW2 4648   3.384   1.795   3.418
 1505SOL     OW 4649   3.068   0.800   3.122
 1505SOL    HW1 4650   3.152   0.813   3.166
 1505SOL    HW2 4651   3.042   0.711   3.146
 1506SOL     OW 4652   3.042   0.431   3.424
 1506SOL    HW1 4653   3.009   0.349   3.462
 1506SOL    HW2 4654   2.991   0.443   3.344
 1507SOL     OW 4655   2.880   1.023   3.658
 1507SOL    HW1 4656   2.796   1.062   3.682
 1507SOL    HW2 4657   2.872   0.931   3.683
 1508SOL     OW 4658   1.328   2.895   0.486
 1508SOL    HW1 4659   1.286   2.902   0.572
 1508SOL    HW2 4660   1.259   2.863   0.428
 1509SOL     OW 4661   1.945   2.846   2.866
 1509SOL    HW1 4662   1.969   2.819   2.777
 1509SOL    HW2 4663   1.925   2.764   2.911
 1510SOL     OW 4664   3.274   1.334   2.496
 1510SOL    HW1 4665   3.318   1.403   2.546
 1510SOL    HW2 4666   3.305   1.345   2.407
 1511SOL     OW 4667   0.841   1.184   0.702
 1511SOL    HW1 4668   0.856   1.250   0.634
 1511SOL    HW2 4669   0.853   1.100   0.656
 1512SOL     OW 4670   2.448   1.433   2.936
 1512SOL    HW1 4671   2.415   1.343   2.943
 1512SOL    HW2 4672   2.397   1.471   2.864
 1513SOL     OW 4673   1.713   3.014   2.583
 1513SOL    HW1 4674   1.619   3.021   2.562
 1513SOL    HW2 4675   1.720   3.051   2.671
 1514SOL     OW 4676   2.145   3.629   1.747
 1514SOL    HW1 4677   2.181   3.541   1.741
 1514SOL    HW2 4678   2.051   3.618   1.731
 1515SOL     OW 4679   2.346   0.928   3.544
 1515SOL    HW1 4680   2.434   0.897   3.527
 1515SOL    HW2 4681   2.297   0.850   3.569
 1516SOL     OW 4682   2.909   0.181   2.394
 1516SOL    HW1 4683   2.892   0.143   2.307
 1516SOL    HW2 4684   2.907   0.105   2.453
 1517SOL     OW 4685   2.705   0.255   2.763
 1517SOL    HW1 4686   2.789   0.209   2.762
 1517SOL    HW2 4687   2.641   0.186   2.783
 1518SOL     OW 4688   3.723   3.859   3.544
 1518SOL    HW1 4689   3.636   3.864   3.506
 1518SOL    HW2 4690   3.775   3.921   3.493
 1519SOL     OW 4691   3.362   1.939   3.579
 1519SOL    HW1 4692   3.351   2.027   3.544
 1519SOL    HW2 4693   3.457   1.924   3.577
 1520SOL     OW 4694   3.830   3.077   0.171
 1520SOL    HW1 4695   3.763   3.124   0.121
 1520SOL    HW2 4696   3.783   3.007   0.215
 1521SOL     OW 4697   3.204   0.419   0.642
 1521SOL    HW1 4698   3.213   0.420   0.738
 1521SOL    HW2 4699   3.224   0.508   0.616
 1522SOL     OW 4700   1.552   3.804   2.337
 1522SOL    HW1 4701   1.540   3.876   2.399
 1522SOL    HW2 4702   1.596   3.844   2.262
 1523SOL     OW 4703   2.649   3.765   0.810
 1523SOL    HW1 4704   2.593   3.738   0.737
 1523SOL    HW2 4705   2.614   3.849   0.838
 1524SOL     OW 4706   2.424   3.450   0.967
 1524SOL    HW1 4707   2.404   3.357   0.962
 1524SOL    HW2 4708   2.466   3.471   0.884
 1525SOL     OW 4709   1.292   0.647   3.310
 1525SOL    HW1 4710   1.222   0.695   3.267
 1525SOL    HW2 4711   1.262   0.556   3.311
 1526SOL     OW 4712   0.609   3.446   0.850
 1526SOL    HW1 4713   0.526   3.491   0.864
 1526SOL    HW2 4714   0.674   3.500   0.895
 1527SOL     OW 4715   2.789   1.566   0.425
 1527SOL    HW1 4716   2.826   1.496   0.371
 1527SOL    HW2 4717   2.695   1.550   0.422
 1528SOL     OW 4718   0.304   3.129   2.851
 1528SOL    HW1 4719   0.303   3.207   2.906
 1528SOL    HW2 4720   0.303   3.163   2.762
 1529SOL     OW 4721   0.196   2.188   2.550
 1529SOL    HW1 4722   0.222   2.106   2.509
 1529SOL    HW2 4723   0.244   2.190   2.633
 1530SOL     OW 4724   3.203   3.805   2.039
 1530SOL    HW1 4725   3.242   3.852   1.965
 1530SOL    HW2 4726   3.167   3.726   2.000
 1531SOL     OW 4727   2.517   1.964   3.543
 1531SOL    HW1 4728   2.545   1.915   3.466
 1531SOL    HW2 4729   2.562   2.048   3.536
 1532SOL     OW 4730   2.931   0.637   2.146
 1532SOL    HW1 4731   2.866   0.707   2.142
 1532SOL    HW2 4732   2.919   0.597   2.232
 1533SOL     OW 4733   3.877   0.938   2.346
 1533SOL    HW1 4734   3.916   1.004   2.289
 1533SOL    HW2 4735   3.785   0.936   2.321
 1534SOL     OW 4736   1.591   0.262   0.478
 1534SOL    HW1 4737   1.500   0.291   0.476
 1534SOL    HW2 4738   1.642   0.343   0.479
 1535SOL     OW 4739   3.886   2.080   1.001
 1535SOL    HW1 4740   3.826   2.061   0.928
 1535SOL    HW2 4741   3.941   2.151   0.968
 1536SOL     OW 4742   0.626   0.376   1.166
 1536SOL    HW1 4743   0.608   0.414   1.080
 1536SOL    HW2 4744   0.706   0.325   1.153
 1537SOL     OW 4745   2.222   0.244   1.563
 1537SOL    HW1 4746   2.314   0.238   1.537
 1537SOL    HW2 4747   2.219   0.201   1.649
 1538SOL     OW 4748   3.073   1.050   2.303
 1538SOL    HW1 4749   3.075   0.976   2.242
 1538SOL    HW2 4750   3.161   1.087   2.299
 1539SOL     OW 4751   2.089   0.114   1.142
 1539SOL    HW1 4752   2.184   0.124   1.137
 1539SOL    HW2 4753   2.071   0.035   1.091
 1540SOL     OW 4754   2.929   0.617   1.300
 1540SOL    HW1 4755   2.953   0.539   1.350
 1540SOL    HW2 4756   2.836   0.630   1.320
 1541SOL     OW 4757   1.404   3.578   2.357
 1541SOL    HW1 4758   1.456   3.523   2.299
 1541SOL    HW2 4759   1.450   3.662   2.358
 1542SOL     OW 4760   1.513   1.359   3.009
 1542SOL    HW1 4761   1.451   1.321   3.071
 1542SOL    HW2 4762   1.459   1.414   2.952
 1543SOL     OW 4763   0.547   1.031   1.306
 1543SOL    HW1 4764   0.576   1.029   1.397
 1543SOL    HW2 4765   0.483   0.961   1.299
 1544SOL     OW 4766   0.034   2.060   2.047
 1544SOL    HW1 4767   0.115   2.073   1.998
 1544SOL    HW2 4768  -0.022   2.133   2.021
 1545SOL     OW 4769   2.768   1.958   2.350
 1545SOL    HW1 4770   2.673   1.956   2.342
 1545SOL    HW2 4771   2.797   1.873   2.319
 1546SOL     OW 4772   2.211   0.718   0.091
 1546SOL    HW1 4773   2.179   0.764   0.168
 1546SOL    HW2 4774   2.305   0.705   0.107
 1547SOL     OW 4775   0.258   0.700   2.675
 1547SOL    HW1 4776   0.231   0.610   2.694
 1547SOL    HW2 4777   0.182   0.753   2.699
 1548SOL     OW 4778   1.187   0.427   2.706
 1548SOL    HW1 4779   1.254   0.434   2.774
 1548SOL    HW2 4780   1.112   0.474   2.741
 1549SOL     OW 4781   1.495   0.702   3.932
 1549SOL    HW1 4782   1.569   0.653   3.969
 1549SOL    HW2 4783   1.523   0.794   3.937
 1550SOL     OW 4784   3.604   3.638   1.633
 1550SOL    HW1 4785   3.641   3.563   1.587
 1550SOL    HW2 4786   3.541   3.676   1.572
 1551SOL     OW 4787   2.266   3.812   2.584
 1551SOL    HW1 4788   2.283   3.746   2.516
 1551SOL    HW2 4789   2.171   3.824   2.582
 1552SOL     OW 4790  -0.005   0.782   0.863
 1552SOL    HW1 4791  -0.028   0.689   0.852
 1552SOL    HW2 4792   0.045   0.784   0.945
 1553SOL     OW 4793   0.033   0.321   0.355
 1553SOL    HW1 4794  -0.044   0.377   0.366
 1553SOL    HW2 4795   0.060   0.299   0.445
 1554SOL     OW 4796   2.284   1.637   2.424
 1554SOL    HW1 4797   2.257   1.586   2.348
 1554SOL    HW2 4798   2.374   1.664   2.403
 1555SOL     OW 4799   0.433   1.654   2.927
 1555SOL    HW1 4800   0.425   1.561   2.904
 1555SOL    HW2 4801   0.498   1.688   2.866
 1556SOL     OW 4802   2.827   1.401   3.802
 1556SOL    HW1 4803   2.745   1.390   3.754
 1556SOL    HW2 4804   2.888   1.437   3.738
 1557SOL     OW 4805   3.142   3.237   3.215
 1557SOL    HW1 4806   3.177   3.257   3.302
 1557SOL    HW2 4807   3.047   3.230   3.228
 1558SOL     OW 4808   2.559   2.067   3.227
 1558SOL    HW1 4809   2.625   2.136   3.233
 1558SOL    HW2 4810   2.486   2.108   3.180
 1559SOL     OW 4811   0.448   3.038   0.358
 1559SOL    HW1 4812   0.486   3.100   0.296
 1559SOL    HW2 4813   0.524   2.992   0.395
 1560SOL     OW 4814   1.085   1.443   2.479
 1560SOL    HW1 4815   1.160   1.384   2.471
 1560SOL    HW2 4816   1.030   1.402   2.546
 1561SOL     OW 4817   3.338   2.771   1.655
 1561SOL    HW1 4818   3.354   2.680   1.680
 1561SOL    HW2 4819   3.363   2.776   1.563
 1562SOL     OW 4820   0.930   1.266   2.628
 1562SOL    HW1 4821   0.865   1.315   2.679
 1562SOL    HW2 4822   0.962   1.198   2.688
 1563SOL     OW 4823   2.217   1.333   3.249
 1563SOL    HW1 4824   2.174   1.418   3.252
 1563SOL    HW2 4825   2.306   1.352   3.219
 1564SOL     OW 4826   0.617   1.695   0.076
 1564SOL    HW1 4827   0.555   1.643   0.127
 1564SOL    HW2 4828   0.678   1.630   0.039
 1565SOL     OW 4829   3.892   2.289   2.235
 1565SOL    HW1 4830   3.853   2.209   2.270
 1565SOL    HW2 4831   3.898   2.347   2.311
 1566SOL     OW 4832   0.906   2.207   3.601
 1566SOL    HW1 4833   0.956   2.184   3.523
 1566SOL    HW2 4834   0.880   2.122   3.638
 1567SOL     OW 4835   0.547   0.896   1.068
 1567SOL    HW1 4836   0.610   0.934   1.007
 1567SOL    HW2 4837   0.557   0.948   1.148
 1568SOL     OW 4838   1.359   0.778   3.682
 1568SOL    HW1 4839   1.379   0.854   3.736
 1568SOL    HW2 4840   1.267   0.759   3.701
 1569SOL     OW 4841   1.127   0.317   3.929
 1569SOL    HW1 4842   1.217   0.344   3.909
 1569SOL    HW2 4843   1.126   0.223   3.912
 1570SOL     OW 4844   1.376   1.639   2.289
 1570SOL    HW1 4845   1.385   1.593   2.373
 1570SOL    HW2 4846   1.350   1.571   2.227
 1571SOL     OW 4847   2.137   0.754   2.256
 1571SOL    HW1 4848   2.077   0.777   2.186
 1571SOL    HW2 4849   2.085   0.703   2.318
 1572SOL     OW 4850   0.427   2.722   3.780
 1572SOL    HW1 4851   0.491   2.651   3.785
 1572SOL    HW2 4852   0.355   2.694   3.836
 1573SOL     OW 4853   0.950   1.478   3.480
 1573SOL    HW1 4854   0.882   1.434   3.429
 1573SOL    HW2 4855   0.903   1.547   3.528
 1574SOL     OW 4856   0.334   3.289   1.596
 1574SOL    HW1 4857   0.269   3.355   1.571
 1574SOL    HW2 4858   0.297   3.246   1.673
 1575SOL     OW 4859   0.482   0.932   2.283
 1575SOL    HW1 4860   0.552   0.866   2.280
 1575SOL    HW2 4861   0.414   0.892   2.336
 1576SOL     OW 4862   1.120   1.051   2.160
 1576SOL    HW1 4863   1.206   1.009   2.152
 1576SOL    HW2 4864   1.094   1.035   2.251
 1577SOL     OW 4865   0.921   0.558   2.769
 1577SOL    HW1 4866   0.883   0.592   2.689
 1577SOL    HW2 4867   0.876   0.475   2.785
 1578SOL     OW 4868   2.149   3.412   0.730
 1578SOL    HW1 4869   2.132   3.398   0.637
 1578SOL    HW2 4870   2.214   3.482   0.732
 1579SOL     OW 4871   1.866   3.316   3.717
 1579SOL    HW1 4872   1.808   3.259   3.768
 1579SOL    HW2 4873   1.814   3.341   3.640
 1580SOL     OW 4874   2.386   2.087   1.785
 1580SOL    HW1 4875   2.344   2.133   1.712
 1580SOL    HW2 4876   2.479   2.107   1.775
 1581SOL     OW 4877   0.056   3.438   3.192
 1581SOL    HW1 4878   0.127   3.425   3.129
 1581SOL    HW2 4879   0.040   3.532   3.191
 1582SOL     OW 4880   1.692   0.839   0.606
 1582SOL    HW1 4881   1.678   0.932   0.626
 1582SOL    HW2 4882   1.709   0.799   0.691
 1583SOL     OW 4883   3.863   3.464   2.258
 1583SOL    HW1 4884   3.781   3.503   2.286
 1583SOL    HW2 4885   3.865   3.378   2.300
 1584SOL     OW 4886   2.339   3.401   3.535
 1584SOL    HW1 4887   2.407   3.438   3.479
 1584SOL    HW2 4888   2.382   3.387   3.620
 1585SOL     OW 4889   3.031   2.303   3.500
 1585SOL    HW1 4890   2.993   2.379   3.543
 1585SOL    HW2 4891   2.962   2.237   3.503
 1586SOL     OW 4892   3.973   3.775   0.675
 1586SOL    HW1 4893   3.940   3.863   0.657
 1586SOL    HW2 4894   3.895   3.725   0.699
 1587SOL     OW 4895   0.061   0.235   3.475
 1587SOL    HW1 4896   0.068   0.313   3.531
 1587SOL    HW2 4897   0.138   0.182   3.498
 1588SOL     OW 4898   1.756   3.083   1.544
 1588SOL    HW1 4899   1.717   3.030   1.613
 1588SOL    HW2 4900   1.689   3.148   1.522
 1589SOL     OW 4901   3.726   1.204   3.336
 1589SOL    HW1 4902   3.686   1.266   3.276
 1589SOL    HW2 4903   3.687   1.224   3.421
 1590SOL     OW 4904   3.507   1.917   1.168
 1590SOL    HW1 4905   3.472   1.939   1.082
 1590SOL    HW2 4906   3.571   1.848   1.150
 1591SOL     OW 4907   2.282   1.426   0.672
 1591SOL    HW1 4908   2.264   1.480   0.595
 1591SOL    HW2 4909   2.196   1.406   0.708
 1592SOL     OW 4910   2.166   3.495   3.116
 1592SOL    HW1 4911   2.218   3.556   3.064
 1592SOL    HW2 4912   2.111   3.550   3.170
 1593SOL     OW 4913   3.393   3.651   2.966
 1593SOL    HW1 4914   3.425   3.586   3.029
 1593SOL    HW2 4915   3.410   3.735   3.007
 1594SOL     OW 4916   0.438   0.853   2.805
 1594SOL    HW1 4917   0.369   0.920   2.803
 1594SOL    HW2 4918   0.391   0.770   2.799
 1595SOL     OW 4919   1.944   1.754   3.923
 1595SOL    HW1 4920   1.892   1.713   3.854
 1595SOL    HW2 4921   1.879   1.798   3.978
 1596SOL     OW 4922   2.830   0.681   1.828
 1596SOL    HW1 4923   2.741   0.674   1.864
 1596SOL    HW2 4924   2.818   0.727   1.745
 1597SOL     OW 4925   1.516   0.172   3.477
 1597SOL    HW1 4926   1.551   0.083   3.479
 1597SOL    HW2 4927   1.518   0.201   3.568
 1598SOL     OW 4928   1.921   3.316   0.370
 1598SOL    HW1 4929   1.986   3.246   0.361
 1598SOL    HW2 4930   1.868   3.290   0.445
 1599SOL     OW 4931   3.408   1.324   2.197
 1599SOL    HW1 4932   3.481   1.275   2.160
 1599SOL    HW2 4933   3.355   1.350   2.122
 1600SOL     OW 4934   1.008   0.932   2.389
 1600SOL    HW1 4935   0.932   0.988   2.403
 1600SOL    HW2 4936   1.005   0.869   2.461
 1601SOL     OW 4937   3.088   0.353   0.416
 1601SOL    HW1 4938   3.122   0.377   0.502
 1601SOL    HW2 4939   3.098   0.432   0.363
 1602SOL     OW 4940   3.211   0.977   0.776
 1602SOL    HW1 4941   3.247   0.890   0.792
 1602SOL    HW2 4942   3.203   0.983   0.681
 1603SOL     OW 4943   3.146   1.129   3.604
 1603SOL    HW1 4944   3.144   1.208   3.550
 1603SOL    HW2 4945   3.054   1.108   3.619
 1604SOL     OW 4946   3.516   3.723   1.235
 1604SOL    HW1 4947   3.435   3.743   1.281
 1604SOL    HW2 4948   3.583   3.772   1.282
 1605SOL     OW 4949   0.897   0.244   1.765
 1605SOL    HW1 4950   0.892   0.330   1.806
 1605SOL    HW2 4951   0.808   0.208   1.774
 1606SOL     OW 4952   1.489   2.667   0.643
 1606SOL    HW1 4953   1.411   2.615   0.624
 1606SOL    HW2 4954   1.510   2.711   0.561
 1607SOL     OW 4955   3.088   1.915   1.508
 1607SOL    HW1 4956   3.130   1.997   1.482
 1607SOL    HW2 4957   3.018   1.903   1.445
 1608SOL     OW 4958   0.652   2.638   1.559
 1608SOL    HW1 4959   0.713   2.687   1.504
 1608SOL    HW2 4960   0.657   2.548   1.526
 1609SOL     OW 4961   2.273   3.060   2.026
 1609SOL    HW1 4962   2.338   3.002   2.065
 1609SOL    HW2 4963   2.269   3.034   1.934
 1610SOL     OW 4964   1.557   3.059   0.534
 1610SOL    HW1 4965   1.490   2.990   0.529
 1610SOL    HW2 4966   1.508   3.140   0.525
 1611SOL     OW 4967   3.843   1.582   3.002
 1611SOL    HW1 4968   3.899   1.505   2.987
 1611SOL    HW2 4969   3.904   1.652   3.024
 1612SOL     OW 4970   2.400   2.501   3.245
 1612SOL    HW1 4971   2.476   2.442   3.251
 1612SOL    HW2 4972   2.376   2.518   3.336
 1613SOL     OW 4973   0.256   2.227   3.925
 1613SOL    HW1 4974   0.263   2.149   3.870
 1613SOL    HW2 4975   0.192   2.204   3.992
 1614SOL     OW 4976   2.183   1.039   2.721
 1614SOL    HW1 4977   2.155   0.968   2.780
 1614SOL    HW2 4978   2.228   0.994   2.650
 1615SOL     OW 4979   2.471   3.017   3.573
 1615SOL    HW1 4980   2.504   2.998   3.661
 1615SOL    HW2 4981   2.534   2.975   3.514
 1616SOL     OW 4982   2.162   1.504   2.140
 1616SOL    HW1 4983   2.107   1.469   2.210
 1616SOL    HW2 4984   2.172   1.431   2.079
 1617SOL     OW 4985   1.452   0.449   2.239
 1617SOL    HW1 4986   1.485   0.512   2.303
 1617SOL    HW2 4987   1.361   0.433   2.266
 1618SOL     OW 4988   1.319   3.277   2.320
 1618SOL    HW1 4989   1.292   3.236   2.402
 1618SOL    HW2 4990   1.352   3.363   2.346
 1619SOL     OW 4991   2.918   0.126   0.298
 1619SOL    HW1 4992   2.855   0.196   0.316
 1619SOL    HW2 4993   2.987   0.138   0.363
 1620SOL     OW 4994   3.898   3.954   1.112
 1620SOL    HW1 4995   3.888   3.859   1.106
 1620SOL    HW2 4996   3.910   3.983   1.022
 1621SOL     OW 4997   0.402   2.446   1.326
 1621SOL    HW1 4998   0.395   2.531   1.283
 1621SOL    HW2 4999   0.390   2.383   1.254
 1622SOL     OW 5000   1.495   0.482   1.742
 1622SOL    HW1 5001   1.567   0.482   1.806
 1622SOL    HW2 5002   1.538   0.500   1.658
 1623SOL     OW 5003   2.753   0.899   1.636
 1623SOL    HW1 5004   2.760   0.985   1.594
 1623SOL    HW2 5005   2.735   0.839   1.563
 1624SOL     OW 5006   2.345   0.246   0.796
 1624SOL    HW1 5007   2.345   0.296   0.877
 1624SOL    HW2 5008   2.266   0.275   0.750
 1625SOL     OW 5009   1.030   1.333   0.844
 1625SOL    HW1 5010   0.982   1.256   0.813
 1625SOL    HW2 5011   0.963   1.391   0.877
 1626SOL     OW 5012   3.538   2.161   3.354
 1626SOL    HW1 5013   3.587   2.198   3.428
 1626SOL    HW2 5014   3.446   2.171   3.378
 1627SOL     OW 5015   2.223   3.740   3.642
 1627SOL    HW1 5016   2.310   3.759   3.677
 1627SOL    HW2 5017   2.239   3.715   3.550
 1628SOL     OW 5018   2.342   3.241   0.416
 1628SOL    HW1 5019   2.284   3.314   0.395
 1628SOL    HW2 5020   2.285   3.163   0.414
 1629SOL     OW 5021   0.632   1.020   3.884
 1629SOL    HW1 5022   0.661   1.016   3.793
 1629SOL    HW2 5023   0.713   1.033   3.934
 1630SOL     OW 5024   3.180   3.231   1.538
 1630SOL    HW1 5025   3.166   3.271   1.452
 1630SOL    HW2 5026   3.095   3.240   1.582
 1631SOL     OW 5027   3.104   0.373   2.521
 1631SOL    HW1 5028   3.040   0.326   2.468
 1631SOL    HW2 5029   3.186   0.367   2.471
 1632SOL     OW 5030   0.616   0.801   0.513
 1632SOL    HW1 5031   0.635   0.707   0.504
 1632SOL    HW2 5032   0.642   0.838   0.428
 1633SOL     OW 5033   0.239   0.715   2.374
 1633SOL    HW1 5034   0.228   0.739   2.466
 1633SOL    HW2 5035   0.156   0.739   2.333
 1634SOL     OW 5036   2.618   3.727   2.658
 1634SOL    HW1 5037   2.643   3.796   2.597
 1634SOL    HW2 5038   2.629   3.646   2.608
 1635SOL     OW 5039   2.083   0.950   2.980
 1635SOL    HW1 5040   2.036   1.015   3.032
 1635SOL    HW2 5041   2.078   0.870   3.032
 1636SOL     OW 5042   3.864   0.164   2.619
 1636SOL    HW1 5043   3.887   0.084   2.571
 1636SOL    HW2 5044   3.792   0.137   2.677
 1637SOL     OW 5045   0.389   2.902   0.829
 1637SOL    HW1 5046   0.372   2.825   0.883
 1637SOL    HW2 5047   0.461   2.948   0.875
 1638SOL     OW 5048   0.275   3.254   0.905
 1638SOL    HW1 5049   0.345   3.234   0.966
 1638SOL    HW2 5050   0.214   3.181   0.914
 1639SOL     OW 5051   2.401   0.148   2.844
 1639SOL    HW1 5052   2.322   0.095   2.850
 1639SOL    HW2 5053   2.376   0.224   2.792
 1640SOL     OW 5054   1.515   0.163   1.722
 1640SOL    HW1 5055   1.458   0.094   1.688
 1640SOL    HW2 5056   1.531   0.220   1.646
 1641SOL     OW 5057   0.445   2.988   1.308
 1641SOL    HW1 5058   0.412   3.021   1.392
 1641SOL    HW2 5059   0.445   3.066   1.251
 1642SOL     OW 5060   2.466   0.553   0.519
 1642SOL    HW1 5061   2.430   0.603   0.592
 1642SOL    HW2 5062   2.475   0.618   0.449
 1643SOL     OW 5063   0.545   3.602   3.110
 1643SOL    HW1 5064   0.543   3.603   3.015
 1643SOL    HW2 5065   0.611   3.537   3.132
 1644SOL     OW 5066   1.653   2.801   0.009
 1644SOL    HW1 5067   1.612   2.858   0.073
 1644SOL    HW2 5068   1.580   2.763  -0.040
 1645SOL     OW 5069   1.914   1.450   2.802
 1645SOL    HW1 5070   1.897   1.520   2.864
 1645SOL    HW2 5071   1.934   1.373   2.856
 1646SOL     OW 5072   2.074   0.590   2.459
 1646SOL    HW1 5073   2.066   0.499   2.486
 1646SOL    HW2 5074   2.086   0.639   2.541
 1647SOL     OW 5075   0.449   1.241   3.860
 1647SOL    HW1 5076   0.408   1.296   3.927
 1647SOL    HW2 5077   0.486   1.168   3.909
 1648SOL     OW 5078   2.461   0.494   3.807
 1648SOL    HW1 5079   2.443   0.587   3.812
 1648SOL    HW2 5080   2.449   0.472   3.714
 1649SOL     OW 5081   1.062   3.667   3.135
 1649SOL    HW1 5082   0.981   3.718   3.142
 1649SOL    HW2 5083   1.129   3.724   3.174
 1650SOL     OW 5084   1.718   3.319   0.567
 1650SOL    HW1 5085   1.756   3.274   0.642
 1650SOL    HW2 5086   1.682   3.250   0.512
 1651SOL     OW 5087   2.613   1.588   0.873
 1651SOL    HW1 5088   2.538   1.530   0.889
 1651SOL    HW2 5089   2.639   1.569   0.783
 1652SOL     OW 5090   2.373   1.649   0.057
 1652SOL    HW1 5091   2.447   1.704   0.082
 1652SOL    HW2 5092   2.375   1.576   0.119
 1653SOL     OW 5093   2.250   1.832   0.213
 1653SOL    HW1 5094   2.286   1.770   0.150
 1653SOL    HW2 5095   2.196   1.779   0.271
 1654SOL     OW 5096   2.582   3.051   2.485
 1654SOL    HW1 5097   2.676   3.066   2.480
 1654SOL    HW2 5098   2.562   3.047   2.578
 1655SOL     OW 5099   0.960   2.469   3.653
 1655SOL    HW1 5100   1.044   2.501   3.622
 1655SOL    HW2 5101   0.964   2.374   3.641
 1656SOL     OW 5102   3.398   3.907   1.871
 1656SOL    HW1 5103   3.491   3.906   1.850
 1656SOL    HW2 5104   3.371   3.998   1.862
 1657SOL     OW 5105   2.475   0.660   0.117
 1657SOL    HW1 5106   2.464   0.565   0.109
 1657SOL    HW2 5107   2.560   0.678   0.077
 1658SOL     OW 5108   3.795   1.444   2.764
 1658SOL    HW1 5109   3.769   1.502   2.692
 1658SOL    HW2 5110   3.851   1.497   2.819
 1659SOL     OW 5111   3.187   0.679   2.107
 1659SOL    HW1 5112   3.097   0.651   2.122
 1659SOL    HW2 5113   3.234   0.655   2.187
 1660SOL     OW 5114   1.461   1.706   0.926
 1660SOL    HW1 5115   1.480   1.790   0.967
 1660SOL    HW2 5116   1.473   1.641   0.996
 1661SOL     OW 5117   0.234   2.772   1.502
 1661SOL    HW1 5118   0.205   2.860   1.526
 1661SOL    HW2 5119   0.284   2.742   1.578
 1662SOL     OW 5120   1.127   3.219   1.810
 1662SOL    HW1 5121   1.050   3.194   1.861
 1662SOL    HW2 5122   1.195   3.158   1.837
 1663SOL     OW 5123   2.789   3.383   1.386
 1663SOL    HW1 5124   2.833   3.347   1.310
 1663SOL    HW2 5125   2.836   3.465   1.405
 1664SOL     OW 5126   1.379   2.113   2.782
 1664SOL    HW1 5127   1.404   2.203   2.762
 1664SOL    HW2 5128   1.335   2.082   2.703
 1665SOL     OW 5129   3.024   0.887   2.631
 1665SOL    HW1 5130   3.077   0.967   2.623
 1665SOL    HW2 5131   3.005   0.880   2.725
 1666SOL     OW 5132   3.841   1.463   0.735
 1666SOL    HW1 5133   3.746   1.477   0.734
 1666SOL    HW2 5134   3.853   1.387   0.791
 1667SOL     OW 5135   2.541   1.844   0.876
 1667SOL    HW1 5136   2.583   1.758   0.886
 1667SOL    HW2 5137   2.461   1.838   0.928
 1668SOL     OW 5138   1.713   0.523   2.848
 1668SOL    HW1 5139   1.767   0.506   2.925
 1668SOL    HW2 5140   1.776   0.548   2.780
 1669SOL     OW 5141   2.471   3.554   2.078
 1669SOL    HW1 5142   2.420   3.536   2.157
 1669SOL    HW2 5143   2.427   3.629   2.038
 1670SOL     OW 5144   2.421   3.676   3.105
 1670SOL    HW1 5145   2.409   3.697   3.012
 1670SOL    HW2 5146   2.496   3.617   3.107
 1671SOL     OW 5147   0.252   1.335   1.984
 1671SOL    HW1 5148   0.286   1.291   2.062
 1671SOL    HW2 5149   0.326   1.384   1.949
 1672SOL     OW 5150   2.512   3.225   1.761
 1672SOL    HW1 5151   2.540   3.261   1.676
 1672SOL    HW2 5152   2.538   3.291   1.825
 1673SOL     OW 5153   1.891   1.068   2.740
 1673SOL    HW1 5154   1.952   1.030   2.803
 1673SOL    HW2 5155   1.845   1.135   2.789
 1674SOL     OW 5156   0.981   0.194   2.589
 1674SOL    HW1 5157   0.958   0.225   2.676
 1674SOL    HW2 5158   0.992   0.273   2.537
 1675SOL     OW 5159   1.554   0.562   2.461
 1675SOL    HW1 5160   1.641   0.601   2.460
 1675SOL    HW2 5161   1.569   0.472   2.491
 1676SOL     OW 5162   3.920   3.506   0.133
 1676SOL    HW1 5163   3.949   3.489   0.043
 1676SOL    HW2 5164   3.909   3.601   0.138
 1677SOL     OW 5165   0.584   0.740   3.552
 1677SOL    HW1 5166   0.591   0.644   3.553
 1677SOL    HW2 5167   0.563   0.764   3.642
 1678SOL     OW 5168   3.307   3.637   0.474
 1678SOL    HW1 5169   3.382   3.578   0.478
 1678SOL    HW2 5170   3.253   3.602   0.403
 1679SOL     OW 5171   3.882   1.002   0.665
 1679SOL    HW1 5172   3.958   1.049   0.630
 1679SOL    HW2 5173   3.918   0.921   0.701
 1680SOL     OW 5174   3.584   3.154   3.108
 1680SOL    HW1 5175   3.639   3.086   3.149
 1680SOL    HW2 5176   3.522   3.104   3.054
 1681SOL     OW 5177   1.603   3.500   1.528
 1681SOL    HW1 5178   1.644   3.414   1.532
 1681SOL    HW2 5179   1.560   3.502   1.442
 1682SOL     OW 5180   0.248   3.304   2.636
 1682SOL    HW1 5181   0.229   3.269   2.549
 1682SOL    HW2 5182   0.163   3.335   2.668
 1683SOL     OW 5183   0.504   1.018   1.822
 1683SOL    HW1 5184   0.590   1.019   1.864
 1683SOL    HW2 5185   0.489   0.926   1.800
 1684SOL     OW 5186   1.429   2.719   3.841
 1684SOL    HW1 5187   1.439   2.661   3.765
 1684SOL    HW2 5188   1.337   2.711   3.865
 1685SOL     OW 5189   0.707   3.772   1.295
 1685SOL    HW1 5190   0.745   3.840   1.350
 1685SOL    HW2 5191   0.733   3.795   1.206
 1686SOL     OW 5192   3.821   0.953   2.624
 1686SOL    HW1 5193   3.835   0.971   2.531
 1686SOL    HW2 5194   3.754   1.017   2.651
 1687SOL     OW 5195   3.774   0.933  -0.009
 1687SOL    HW1 5196   3.789   0.851   0.039
 1687SOL    HW2 5197   3.748   0.996   0.058
 1688SOL     OW 5198   2.952   0.400   1.451
 1688SOL    HW1 5199   2.961   0.315   1.409
 1688SOL    HW2 5200   2.897   0.383   1.528
 1689SOL     OW 5201   0.388   1.373   1.599
 1689SOL    HW1 5202   0.347   1.454   1.568
 1689SOL    HW2 5203   0.315   1.313   1.612
 1690SOL     OW 5204   1.066   0.480   3.300
 1690SOL    HW1 5205   1.049   0.549   3.365
 1690SOL    HW2 5206   1.085   0.402   3.352
 1691SOL     OW 5207   3.329   2.923   1.919
 1691SOL    HW1 5208   3.259   2.903   1.981
 1691SOL    HW2 5209   3.347   2.840   1.875
 1692SOL     OW 5210   0.893   1.051   2.780
 1692SOL    HW1 5211   0.802   1.065   2.806
 1692SOL    HW2 5212   0.888   1.012   2.693
 1693SOL     OW 5213   3.119   0.706   1.690
 1693SOL    HW1 5214   3.047   0.645   1.674
 1693SOL    HW2 5215   3.122   0.761   1.612
 1694SOL     OW 5216   3.140   0.780   1.356
 1694SOL    HW1 5217   3.165   0.800   1.266
 1694SOL    HW2 5218   3.045   0.771   1.353
 1695SOL     OW 5219   1.323   2.917   2.629
 1695SOL    HW1 5220   1.379   2.940   2.555
 1695SOL    HW2 5221   1.235   2.908   2.591
 1696SOL     OW 5222   2.240   1.771   2.140
 1696SOL    HW1 5223   2.316   1.804   2.092
 1696SOL    HW2 5224   2.205   1.701   2.084
 1697SOL     OW 5225   2.829   2.759   3.170
 1697SOL    HW1 5226   2.866   2.716   3.247
 1697SOL    HW2 5227   2.753   2.704   3.147
 1698SOL     OW 5228   3.938   2.903  -0.028
 1698SOL    HW1 5229   3.980   2.835   0.024
 1698SOL    HW2 5230   3.897   2.961   0.036
 1699SOL     OW 5231   1.740   1.444   0.591
 1699SOL    HW1 5232   1.704   1.525   0.626
 1699SOL    HW2 5233   1.664   1.394   0.562
 1700SOL     OW 5234   2.173   1.954   3.497
 1700SOL    HW1 5235   2.162   1.865   3.462
 1700SOL    HW2 5236   2.266   1.972   3.489
 1701SOL     OW 5237   0.891   0.473   2.497
 1701SOL    HW1 5238   0.796   0.478   2.483
 1701SOL    HW2 5239   0.924   0.557   2.468
 1702SOL     OW 5240   2.197   2.693   1.319
 1702SOL    HW1 5241   2.143   2.615   1.330
 1702SOL    HW2 5242   2.283   2.659   1.293
 1703SOL     OW 5243   0.414   2.518   3.019
 1703SOL    HW1 5244   0.344   2.579   3.039
 1703SOL    HW2 5245   0.436   2.477   3.103
 1704SOL     OW 5246   3.708   1.823   0.529
 1704SOL    HW1 5247   3.702   1.918   0.524
 1704SOL    HW2 5248   3.646   1.799   0.598
 1705SOL     OW 5249   2.720   0.696   3.901
 1705SOL    HW1 5250   2.656   0.761   3.873
 1705SOL    HW2 5251   2.779   0.744   3.959
 1706SOL     OW 5252   3.491   3.878   3.866
 1706SOL    HW1 5253   3.522   3.963   3.833
 1706SOL    HW2 5254   3.480   3.892   3.960
 1707SOL     OW 5255   2.060   3.080   0.370
 1707SOL    HW1 5256   2.002   3.004   0.374
 1707SOL    HW2 5257   2.123   3.058   0.302
 1708SOL     OW 5258   3.563   2.368   1.605
 1708SOL    HW1 5259   3.641   2.368   1.661
 1708SOL    HW2 5260   3.586   2.314   1.530
 1709SOL     OW 5261   1.528   1.909   1.104
 1709SOL    HW1 5262   1.442   1.947   1.091
 1709SOL    HW2 5263   1.532   1.887   1.197
 1710SOL     OW 5264   1.542   0.561   3.642
 1710SOL    HW1 5265   1.472   0.626   3.638
 1710SOL    HW2 5266   1.606   0.599   3.702
 1711SOL     OW 5267   0.461   2.344   2.765
 1711SOL    HW1 5268   0.431   2.393   2.842
 1711SOL    HW2 5269   0.421   2.389   2.691
 1712SOL     OW 5270   2.250   0.127   1.813
 1712SOL    HW1 5271   2.161   0.151   1.839
 1712SOL    HW2 5272   2.243   0.036   1.786
 1713SOL     OW 5273   0.861   3.173   3.029
 1713SOL    HW1 5274   0.812   3.225   2.965
 1713SOL    HW2 5275   0.914   3.238   3.077
 1714SOL     OW 5276   0.878   1.459   1.178
 1714SOL    HW1 5277   0.859   1.495   1.264
 1714SOL    HW2 5278   0.793   1.429   1.145
 1715SOL     OW 5279   2.314   2.742   2.406
 1715SOL    HW1 5280   2.242   2.796   2.438
 1715SOL    HW2 5281   2.343   2.786   2.326
 1716SOL     OW 5282   0.857   3.829   2.815
 1716SOL    HW1 5283   0.892   3.866   2.896
 1716SOL    HW2 5284   0.896   3.742   2.810
 1717SOL     OW 5285   0.910   3.466   0.910
 1717SOL    HW1 5286   0.900   3.373   0.889
 1717SOL    HW2 5287   0.957   3.466   0.994
 1718SOL     OW 5288   3.768   2.116   3.704
 1718SOL    HW1 5289   3.674   2.106   3.716
 1718SOL    HW2 5290   3.799   2.150   3.789
 1719SOL     OW 5291   3.715   1.228   2.100
 1719SOL    HW1 5292   3.763   1.246   2.181
 1719SOL    HW2 5293   3.765   1.158   2.058
 1720SOL     OW 5294   0.335   1.825   2.650
 1720SOL    HW1 5295   0.376   1.912   2.648
 1720SOL    HW2 5296   0.387   1.773   2.588
 1721SOL     OW 5297   0.620   3.369   3.476
 1721SOL    HW1 5298   0.643   3.280   3.500
 1721SOL    HW2 5299   0.527   3.365   3.454
 1722SOL     OW 5300   3.980   3.625   2.643
 1722SOL    HW1 5301   3.905   3.664   2.688
 1722SOL    HW2 5302   3.989   3.539   2.684
 1723SOL     OW 5303   0.276   0.463   1.558
 1723SOL    HW1 5304   0.364   0.462   1.521
 1723SOL    HW2 5305   0.220   0.494   1.487
 1724SOL     OW 5306   2.302   1.138   3.923
 1724SOL    HW1 5307   2.353   1.218   3.908
 1724SOL    HW2 5308   2.316   1.117   4.015
 1725SOL     OW 5309   3.637   2.932   0.294
 1725SOL    HW1 5310   3.561   2.886   0.328
 1725SOL    HW2 5311   3.628   3.022   0.326
 1726SOL     OW 5312   1.183   3.302   0.457
 1726SOL    HW1 5313   1.130   3.245   0.513
 1726SOL    HW2 5314   1.179   3.261   0.370
 1727SOL     OW 5315   1.502   1.637   1.766
 1727SOL    HW1 5316   1.520   1.635   1.860
 1727SOL    HW2 5317   1.550   1.713   1.734
 1728SOL     OW 5318   0.744   2.670   1.195
 1728SOL    HW1 5319   0.743   2.644   1.103
 1728SOL    HW2 5320   0.773   2.762   1.193
 1729SOL     OW 5321   2.552   1.887   0.162
 1729SOL    HW1 5322   2.476   1.943   0.179
 1729SOL    HW2 5323   2.596   1.928   0.087
 1730SOL     OW 5324   3.276   1.401   1.703
 1730SOL    HW1 5325   3.338   1.472   1.719
 1730SOL    HW2 5326   3.200   1.444   1.664
 1731SOL     OW 5327   0.702   2.151   1.673
 1731SOL    HW1 5328   0.765   2.079   1.679
 1731SOL    HW2 5329   0.647   2.128   1.598
 1732SOL     OW 5330   2.088   3.193   0.870
 1732SOL    HW1 5331   2.122   3.269   0.823
 1732SOL    HW2 5332   2.101   3.120   0.810
 1733SOL     OW 5333   1.266   2.858   1.520
 1733SOL    HW1 5334   1.190   2.916   1.509
 1733SOL    HW2 5335   1.227   2.771   1.530
 1734SOL     OW 5336   1.264   0.080   0.852
 1734SOL    HW1 5337   1.266   0.061   0.759
 1734SOL    HW2 5338   1.183   0.130   0.864
 1735SOL     OW 5339   1.331   3.901   1.680
 1735SOL    HW1 5340   1.259   3.924   1.738
 1735SOL    HW2 5341   1.348   3.809   1.698
 1736SOL     OW 5342   0.291   2.269   0.526
 1736SOL    HW1 5343   0.237   2.231   0.457
 1736SOL    HW2 5344   0.356   2.202   0.547
 1737SOL     OW 5345   0.112   2.846   2.113
 1737SOL    HW1 5346   0.184   2.894   2.154
 1737SOL    HW2 5347   0.116   2.759   2.151
 1738SOL     OW 5348   0.269   3.394   3.028
 1738SOL    HW1 5349   0.246   3.477   2.985
 1738SOL    HW2 5350   0.364   3.391   3.023
 1739SOL     OW 5351   3.173   0.593   0.284
 1739SOL    HW1 5352   3.243   0.598   0.219
 1739SOL    HW2 5353   3.212   0.631   0.363
 1740SOL     OW 5354   1.393   0.706   0.298
 1740SOL    HW1 5355   1.396   0.610   0.297
 1740SOL    HW2 5356   1.484   0.732   0.289
 1741SOL     OW 5357   1.130   3.739   3.879
 1741SOL    HW1 5358   1.098   3.736   3.788
 1741SOL    HW2 5359   1.054   3.769   3.929
 1742SOL     OW 5360   3.587   2.452   2.662
 1742SOL    HW1 5361   3.524   2.524   2.659
 1742SOL    HW2 5362   3.580   2.411   2.576
 1743SOL     OW 5363   1.959   2.222   3.804
 1743SOL    HW1 5364   2.036   2.278   3.794
 1743SOL    HW2 5365   1.936   2.230   3.896
 1744SOL     OW 5366   3.185   1.312   0.642
 1744SOL    HW1 5367   3.207   1.318   0.735
 1744SOL    HW2 5368   3.144   1.396   0.621
 1745SOL     OW 5369   1.628   1.266   2.775
 1745SOL    HW1 5370   1.619   1.292   2.867
 1745SOL    HW2 5371   1.652   1.347   2.729
 1746SOL     OW 5372   1.584   1.207   2.028
 1746SOL    HW1 5373   1.644   1.133   2.021
 1746SOL    HW2 5374   1.638   1.284   2.012
 1747SOL     OW 5375   2.499  -0.003   0.955
 1747SOL    HW1 5376   2.491  -0.062   1.030
 1747SOL    HW2 5377   2.482   0.084   0.991
 1748SOL     OW 5378   2.921   3.338   2.440
 1748SOL    HW1 5379   2.989   3.400   2.412
 1748SOL    HW2 5380   2.935   3.329   2.534
 1749SOL     OW 5381   0.291   0.949   3.712
 1749SOL    HW1 5382   0.334   0.930   3.795
 1749SOL    HW2 5383   0.211   0.897   3.714
 1750SOL     OW 5384   0.323   1.117   2.875
 1750SOL    HW1 5385   0.283   1.080   2.954
 1750SOL    HW2 5386   0.416   1.124   2.897
 1751SOL     OW 5387   3.886   2.326   3.818
 1751SOL    HW1 5388   3.969   2.362   3.787
 1751SOL    HW2 5389   3.819   2.381   3.776
 1752SOL     OW 5390   0.065   1.012   3.380
 1752SOL    HW1 5391  -0.011   0.985   3.329
 1752SOL    HW2 5392   0.078   0.939   3.441
 1753SOL     OW 5393   3.535   3.158   2.097
 1753SOL    HW1 5394   3.555   3.114   2.180
 1753SOL    HW2 5395   3.505   3.089   2.039
 1754SOL     OW 5396   3.315   0.773   2.904
 1754SOL    HW1 5397   3.313   0.752   2.811
 1754SOL    HW2 5398   3.261   0.705   2.945
 1755SOL     OW 5399   1.778   2.240   1.784
 1755SOL    HW1 5400   1.784   2.166   1.845
 1755SOL    HW2 5401   1.836   2.217   1.712
 1756SOL     OW 5402   3.262   0.691   3.330
 1756SOL    HW1 5403   3.322   0.745   3.279
 1756SOL    HW2 5404   3.319   0.634   3.382
 1757SOL     OW 5405   0.522   0.121   3.975
 1757SOL    HW1 5406   0.485   0.033   3.966
 1757SOL    HW2 5407   0.592   0.124   3.910
 1758SOL     OW 5408   0.869   0.279   2.846
 1758SOL    HW1 5409   0.916   0.328   2.914
 1758SOL    HW2 5410   0.804   0.229   2.895
 1759SOL     OW 5411   2.802   0.452   2.929
 1759SOL    HW1 5412   2.793   0.357   2.916
 1759SOL    HW2 5413   2.871   0.479   2.870
 1760SOL     OW 5414   0.367   3.833   0.061
 1760SOL    HW1 5415   0.319   3.854   0.140
 1760SOL    HW2 5416   0.301   3.833  -0.008
 1761SOL     OW 5417   3.795   1.405   1.074
 1761SOL    HW1 5418   3.752   1.479   1.032
 1761SOL    HW2 5419   3.749   1.394   1.157
 1762SOL     OW 5420   0.805   2.925   1.203
 1762SOL    HW1 5421   0.887   2.969   1.181
 1762SOL    HW2 5422   0.780   2.961   1.288
 1763SOL     OW 5423   0.145   0.216   3.814
 1763SOL    HW1 5424   0.179   0.214   3.903
 1763SOL    HW2 5425   0.190   0.144   3.769
 1764SOL     OW 5426   0.971   2.842   0.887
 1764SOL    HW1 5427   1.000   2.751   0.877
 1764SOL    HW2 5428   1.019   2.890   0.821
 1765SOL     OW 5429   2.218   3.400   0.181
 1765SOL    HW1 5430   2.220   3.427   0.089
 1765SOL    HW2 5431   2.155   3.328   0.184
 1766SOL     OW 5432   2.738   2.481   1.510
 1766SOL    HW1 5433   2.644   2.464   1.512
 1766SOL    HW2 5434   2.745   2.575   1.492
 1767SOL     OW 5435   3.600   0.476   1.881
 1767SOL    HW1 5436   3.564   0.565   1.878
 1767SOL    HW2 5437   3.667   0.480   1.949
 1768SOL     OW 5438   1.064   0.244   3.516
 1768SOL    HW1 5439   1.059   0.203   3.603
 1768SOL    HW2 5440   1.153   0.278   3.511
 1769SOL     OW 5441   2.446   1.248   2.658
 1769SOL    HW1 5442   2.380   1.188   2.692
 1769SOL    HW2 5443   2.399   1.331   2.645
 1770SOL     OW 5444   0.052   3.069   0.421
 1770SOL    HW1 5445   0.133   3.073   0.471
 1770SOL    HW2 5446   0.041   3.158   0.386
 1771SOL     OW 5447   1.167   0.169   1.253
 1771SOL    HW1 5448   1.217   0.250   1.240
 1771SOL    HW2 5449   1.214   0.122   1.322
 1772SOL     OW 5450   2.857   1.071   0.968
 1772SOL    HW1 5451   2.866   1.078   0.873
 1772SOL    HW2 5452   2.874   0.979   0.987
 1773SOL     OW 5453   3.380   0.596   3.646
 1773SOL    HW1 5454   3.329   0.674   3.624
 1773SOL    HW2 5455   3.411   0.612   3.735
 1774SOL     OW 5456   1.840   0.168   3.922
 1774SOL    HW1 5457   1.911   0.118   3.882
 1774SOL    HW2 5458   1.760   0.124   3.893
 1775SOL     OW 5459   0.977   2.698   1.371
 1775SOL    HW1 5460   0.897   2.664   1.331
 1775SOL    HW2 5461   1.030   2.728   1.297
 1776SOL     OW 5462   3.829   2.595   1.889
 1776SOL    HW1 5463   3.769   2.592   1.964
 1776SOL    HW2 5464   3.888   2.668   1.909
 1777SOL     OW 5465   0.069   2.350   3.276
 1777SOL    HW1 5466  -0.014   2.350   3.229
 1777SOL    HW2 5467   0.050   2.310   3.360
 1778SOL     OW 5468   1.330   2.441   2.274
 1778SOL    HW1 5469   1.271   2.446   2.349
 1778SOL    HW2 5470   1.418   2.447   2.312
 1779SOL     OW 5471   0.238   1.103   1.757
 1779SOL    HW1 5472   0.192   1.125   1.838
 1779SOL    HW2 5473   0.325   1.074   1.786
 1780SOL     OW 5474   3.951   2.248   3.516
 1780SOL    HW1 5475   4.010   2.305   3.565
 1780SOL    HW2 5476   3.879   2.231   3.576
 1781SOL     OW 5477   2.947   2.174   0.755
 1781SOL    HW1 5478   2.902   2.256   0.775
 1781SOL    HW2 5479   2.998   2.155   0.833
 1782SOL     OW 5480   0.140   3.599   1.096
 1782SOL    HW1 5481   0.176   3.679   1.135
 1782SOL    HW2 5482   0.051   3.623   1.071
 1783SOL     OW 5483   1.509   0.100   0.998
 1783SOL    HW1 5484   1.419   0.132   0.989
 1783SOL    HW2 5485   1.550   0.121   0.914
 1784SOL     OW 5486   3.873   3.005   2.236
 1784SOL    HW1 5487   3.942   2.985   2.173
 1784SOL    HW2 5488   3.860   3.100   2.227
 1785SOL     OW 5489   3.275   0.874   3.732
 1785SOL    HW1 5490   3.354   0.913   3.769
 1785SOL    HW2 5491   3.232   0.946   3.686
 1786SOL     OW 5492   1.180   1.512   3.778
 1786SOL    HW1 5493   1.275   1.506   3.784
 1786SOL    HW2 5494   1.153   1.426   3.745
 1787SOL     OW 5495   2.874   3.894   3.641
 1787SOL    HW1 5496   2.910   3.893   3.730
 1787SOL    HW2 5497   2.801   3.956   3.645
 1788SOL     OW 5498   2.847   0.150   3.034
 1788SOL    HW1 5499   2.810   0.069   2.999
 1788SOL    HW2 5500   2.848   0.136   3.129
 1789SOL     OW 5501   3.766   3.116   1.211
 1789SOL    HW1 5502   3.808   3.043   1.166
 1789SOL    HW2 5503   3.814   3.193   1.181
 1790SOL     OW 5504   3.698   2.405   3.373
 1790SOL    HW1 5505   3.690   2.310   3.361
 1790SOL    HW2 5506   3.730   2.415   3.463
 1791SOL     OW 5507   1.624   1.132   0.603
 1791SOL    HW1 5508   1.558   1.188   0.644
 1791SOL    HW2 5509   1.589   1.114   0.515
 1792SOL     OW 5510   2.139   0.582   0.555
 1792SOL    HW1 5511   2.195   0.505   0.548
 1792SOL    HW2 5512   2.052   0.546   0.575
 1793SOL     OW 5513   1.610   0.625   0.476
 1793SOL    HW1 5514   1.629   0.713   0.509
 1793SOL    HW2 5515   1.695   0.581   0.474
 1794SOL     OW 5516   1.208   1.624   0.973
 1794SOL    HW1 5517   1.295   1.661   0.957
 1794SOL    HW2 5518   1.148   1.682   0.927
 1795SOL     OW 5519   0.272   1.635   1.683
 1795SOL    HW1 5520   0.352   1.677   1.652
 1795SOL    HW2 5521   0.272   1.652   1.777
 1796SOL     OW 5522   2.763   3.023   2.828
 1796SOL    HW1 5523   2.703   2.952   2.851
 1796SOL    HW2 5524   2.809   3.042   2.910
 1797SOL     OW 5525   3.608   1.276   0.517
 1797SOL    HW1 5526   3.615   1.186   0.486
 1797SOL    HW2 5527   3.572   1.268   0.606
 1798SOL     OW 5528   0.641   0.013   0.798
 1798SOL    HW1 5529   0.570  -0.015   0.856
 1798SOL    HW2 5530   0.625   0.107   0.785
 1799SOL     OW 5531   0.221   3.790   3.039
 1799SOL    HW1 5532   0.308   3.828   3.041
 1799SOL    HW2 5533   0.185   3.817   2.954
 1800SOL     OW 5534   2.834   2.050   3.468
 1800SOL    HW1 5535   2.866   1.987   3.533
 1800SOL    HW2 5536   2.859   2.013   3.384
 1801SOL     OW 5537   1.908   1.161   0.601
 1801SOL    HW1 5538   1.816   1.165   0.625
 1801SOL    HW2 5539   1.918   1.077   0.556
 1802SOL     OW 5540   1.139   1.648   3.372
 1802SOL    HW1 5541   1.089   1.580   3.418
 1802SOL    HW2 5542   1.150   1.717   3.437
 1803SOL     OW 5543   1.804   1.023   3.083
 1803SOL    HW1 5544   1.778   0.988   3.168
 1803SOL    HW2 5545   1.779   1.115   3.087
 1804SOL     OW 5546   1.813   2.168   0.702
 1804SOL    HW1 5547   1.788   2.248   0.656
 1804SOL    HW2 5548   1.818   2.195   0.794
 1805SOL     OW 5549   3.351   3.814   2.260
 1805SOL    HW1 5550   3.414   3.780   2.197
 1805SOL    HW2 5551   3.269   3.819   2.212
 1806SOL     OW 5552   1.726   1.885   0.078
 1806SOL    HW1 5553   1.774   1.957   0.118
 1806SOL    HW2 5554   1.709   1.824   0.150
 1807SOL     OW 5555   0.241   2.585   1.888
 1807SOL    HW1 5556   0.176   2.543   1.832
 1807SOL    HW2 5557   0.284   2.650   1.831
 1808SOL     OW 5558   2.368   0.788   2.099
 1808SOL    HW1 5559   2.319   0.706   2.087
 1808SOL    HW2 5560   2.303   0.850   2.131
 1809SOL     OW 5561   2.143   1.074   3.273
 1809SOL    HW1 5562   2.177   1.163   3.273
 1809SOL    HW2 5563   2.214   1.021   3.309
 1810SOL     OW 5564   2.591   1.289   2.410
 1810SOL    HW1 5565   2.537   1.251   2.479
 1810SOL    HW2 5566   2.678   1.251   2.424
 1811SOL     OW 5567   2.881   1.120   1.537
 1811SOL    HW1 5568   2.965   1.165   1.532
 1811SOL    HW2 5569   2.870   1.080   1.451
 1812SOL     OW 5570   3.524   2.869   0.043
 1812SOL    HW1 5571   3.574   2.867   0.124
 1812SOL    HW2 5572   3.584   2.834  -0.024
 1813SOL     OW 5573   2.430   2.688   3.466
 1813SOL    HW1 5574   2.518   2.707   3.498
 1813SOL    HW2 5575   2.406   2.605   3.507
 1814SOL     OW 5576   3.164   0.974   1.055
 1814SOL    HW1 5577   3.093   1.038   1.059
 1814SOL    HW2 5578   3.207   0.991   0.972
 1815SOL     OW 5579   0.042   3.202   2.088
 1815SOL    HW1 5580   0.070   3.136   2.025
 1815SOL    HW2 5581  -0.026   3.251   2.043
 1816SOL     OW 5582   3.598   3.811   0.421
 1816SOL    HW1 5583   3.601   3.733   0.476
 1816SOL    HW2 5584   3.612   3.884   0.483
 1817SOL     OW 5585   0.617   1.171   0.891
 1817SOL    HW1 5586   0.531   1.188   0.853
 1817SOL    HW2 5587   0.679   1.184   0.819
 1818SOL     OW 5588   2.499   2.132   2.349
 1818SOL    HW1 5589   2.543   2.142   2.434
 1818SOL    HW2 5590   2.427   2.072   2.367
 1819SOL     OW 5591   0.527   3.466   0.276
 1819SOL    HW1 5592   0.535   3.539   0.338
 1819SOL    HW2 5593   0.436   3.470   0.246
 1820SOL     OW 5594   1.991   0.186   1.986
 1820SOL    HW1 5595   2.013   0.278   1.974
 1820SOL    HW2 5596   1.933   0.185   2.062
 1821SOL     OW 5597   3.609   3.156   0.418
 1821SOL    HW1 5598   3.689   3.207   0.430
 1821SOL    HW2 5599   3.582   3.130   0.506
 1822SOL     OW 5600   1.575   3.473   1.821
 1822SOL    HW1 5601   1.549   3.382   1.832
 1822SOL    HW2 5602   1.603   3.479   1.729
 1823SOL     OW 5603   0.950   0.197   2.130
 1823SOL    HW1 5604   1.037   0.196   2.169
 1823SOL    HW2 5605   0.964   0.223   2.039
 1824SOL     OW 5606   2.964   2.530   0.588
 1824SOL    HW1 5607   2.879   2.503   0.624
 1824SOL    HW2 5608   3.000   2.450   0.549
 1825SOL     OW 5609   1.224   0.162   2.130
 1825SOL    HW1 5610   1.245   0.071   2.149
 1825SOL    HW2 5611   1.236   0.207   2.214
 1826SOL     OW 5612   1.574   0.258   3.043
 1826SOL    HW1 5613   1.575   0.352   3.023
 1826SOL    HW2 5614   1.633   0.249   3.118
 1827SOL     OW 5615   0.143   1.537   2.126
 1827SOL    HW1 5616   0.148   1.606   2.060
 1827SOL    HW2 5617   0.188   1.462   2.088
 1828SOL     OW 5618   2.550   3.321   0.070
 1828SOL    HW1 5619   2.610   3.366   0.010
 1828SOL    HW2 5620   2.543   3.380   0.145
 1829SOL     OW 5621   3.651   0.841   1.054
 1829SOL    HW1 5622   3.727   0.883   1.012
 1829SOL    HW2 5623   3.667   0.851   1.148
 1830SOL     OW 5624   3.288   3.630   0.898
 1830SOL    HW1 5625   3.261   3.679   0.821
 1830SOL    HW2 5626   3.377   3.662   0.917
 1831SOL     OW 5627   1.400   2.391   2.691
 1831SOL    HW1 5628   1.401   2.485   2.708
 1831SOL    HW2 5629   1.488   2.361   2.714
 1832SOL     OW 5630   1.751   0.931   0.303
 1832SOL    HW1 5631   1.662   0.959   0.322
 1832SOL    HW2 5632   1.787   1.001   0.248
 1833SOL     OW 5633   1.192   1.270   2.860
 1833SOL    HW1 5634   1.246   1.191   2.854
 1833SOL    HW2 5635   1.254   1.342   2.852
 1834SOL     OW 5636   0.035   3.962   3.128
 1834SOL    HW1 5637   0.104   4.004   3.076
 1834SOL    HW2 5638   0.070   3.875   3.147
 1835SOL     OW 5639   1.960   3.837   1.045
 1835SOL    HW1 5640   1.981   3.746   1.068
 1835SOL    HW2 5641   1.864   3.841   1.048
 1836SOL     OW 5642   2.954   2.488   2.833
 1836SOL    HW1 5643   2.903   2.516   2.757
 1836SOL    HW2 5644   3.018   2.558   2.847
 1837SOL     OW 5645   1.800   2.549   1.172
 1837SOL    HW1 5646   1.886   2.518   1.201
 1837SOL    HW2 5647   1.816   2.582   1.084
 1838SOL     OW 5648   3.518   1.018   0.414
 1838SOL    HW1 5649   3.533   0.935   0.370
 1838SOL    HW2 5650   3.423   1.024   0.423
 1839SOL     OW 5651   2.891   3.820   0.871
 1839SOL    HW1 5652   2.810   3.790   0.831
 1839SOL    HW2 5653   2.960   3.785   0.815
 1840SOL     OW 5654   2.179   2.419   2.299
 1840SOL    HW1 5655   2.123   2.351   2.337
 1840SOL    HW2 5656   2.237   2.371   2.240
 1841SOL     OW 5657   0.009   3.157   1.781
 1841SOL    HW1 5658   0.080   3.109   1.739
 1841SOL    HW2 5659  -0.071   3.121   1.742
 1842SOL     OW 5660   1.346   2.775   1.983
 1842SOL    HW1 5661   1.282   2.714   1.946
 1842SOL    HW2 5662   1.414   2.719   2.020
 1843SOL     OW 5663   1.169   1.386   0.152
 1843SOL    HW1 5664   1.109   1.455   0.123
 1843SOL    HW2 5665   1.191   1.408   0.242
 1844SOL     OW 5666   0.220   0.807   3.116
 1844SOL    HW1 5667   0.242   0.749   3.043
 1844SOL    HW2 5668   0.261   0.765   3.192
 1845SOL     OW 5669   3.197   2.919   3.513
 1845SOL    HW1 5670   3.261   2.927   3.443
 1845SOL    HW2 5671   3.211   2.831   3.550
 1846SOL     OW 5672   2.236   3.298   2.140
 1846SOL    HW1 5673   2.227   3.209   2.104
 1846SOL    HW2 5674   2.304   3.291   2.207
 1847SOL     OW 5675   1.530   2.635   3.309
 1847SOL    HW1 5676   1.614   2.682   3.312
 1847SOL    HW2 5677   1.473   2.690   3.257
 1848SOL     OW 5678   3.891   2.933   1.093
 1848SOL    HW1 5679   3.949   2.865   1.128
 1848SOL    HW2 5680   3.851   2.893   1.015
 1849SOL     OW 5681   2.937   1.876   0.611
 1849SOL    HW1 5682   3.001   1.924   0.557
 1849SOL    HW2 5683   2.854   1.885   0.563
 1850SOL     OW 5684   0.992   1.839   1.288
 1850SOL    HW1 5685   0.937   1.828   1.210
 1850SOL    HW2 5686   1.078   1.861   1.253
 1851SOL     OW 5687   0.792   1.732   0.495
 1851SOL    HW1 5688   0.789   1.650   0.446
 1851SOL    HW2 5689   0.725   1.787   0.455
 1852SOL     OW 5690   2.144   2.601   2.786
 1852SOL    HW1 5691   2.215   2.540   2.804
 1852SOL    HW2 5692   2.092   2.557   2.718
 1853SOL     OW 5693   1.626   3.126   3.860
 1853SOL    HW1 5694   1.574   3.162   3.932
 1853SOL    HW2 5695   1.566   3.123   3.786
 1854SOL     OW 5696   3.146   3.615   3.501
 1854SOL    HW1 5697   3.163   3.683   3.436
 1854SOL    HW2 5698   3.178   3.652   3.584
 1855SOL     OW 5699   3.053   2.413   3.223
 1855SOL    HW1 5700   3.065   2.341   3.284
 1855SOL    HW2 5701   3.117   2.479   3.251
 1856SOL     OW 5702   0.793   0.761   2.569
 1856SOL    HW1 5703   0.705   0.732   2.595
 1856SOL    HW2 5704   0.782   0.853   2.546
 1857SOL     OW 5705   0.431   3.014   3.925
 1857SOL    HW1 5706   0.443   2.935   3.977
 1857SOL    HW2 5707   0.518   3.053   3.920
 1858SOL     OW 5708   2.358   1.408   3.543
 1858SOL    HW1 5709   2.289   1.462   3.581
 1858SOL    HW2 5710   2.340   1.320   3.575
 1859SOL     OW 5711   2.325   1.165   2.961
 1859SOL    HW1 5712   2.327   1.117   3.044
 1859SOL    HW2 5713   2.284   1.104   2.899
 1860SOL     OW 5714   1.545   2.736   0.900
 1860SOL    HW1 5715   1.499   2.735   0.816
 1860SOL    HW2 5716   1.600   2.657   0.899
 1861SOL     OW 5717   3.350   2.554   2.051
 1861SOL    HW1 5718   3.411   2.482   2.063
 1861SOL    HW2 5719   3.304   2.562   2.134
 1862SOL     OW 5720   1.564   2.593   0.260
 1862SOL    HW1 5721   1.579   2.508   0.219
 1862SOL    HW2 5722   1.562   2.655   0.187
 1863SOL     OW 5723   3.828   0.721   2.066
 1863SOL    HW1 5724   3.841   0.714   1.972
 1863SOL    HW2 5725   3.894   0.663   2.104
 1864SOL     OW 5726   0.344   3.384   3.407
 1864SOL    HW1 5727   0.283   3.440   3.454
 1864SOL    HW2 5728   0.320   3.392   3.315
 1865SOL     OW 5729   3.825   0.174   3.811
 1865SOL    HW1 5730   3.913   0.196   3.781
 1865SOL    HW2 5731   3.823   0.078   3.809
 1866SOL     OW 5732   3.484   1.242   1.691
 1866SOL    HW1 5733   3.394   1.275   1.692
 1866SOL    HW2 5734   3.529   1.295   1.757
 1867SOL     OW 5735   1.954   0.125   0.397
 1867SOL    HW1 5736   2.020   0.073   0.351
 1867SOL    HW2 5737   1.933   0.196   0.336
 1868SOL     OW 5738   1.125   2.826   3.402
 1868SOL    HW1 5739   1.138   2.872   3.319
 1868SOL    HW2 5740   1.033   2.800   3.401
 1869SOL     OW 5741   0.807   0.287   3.444
 1869SOL    HW1 5742   0.889   0.264   3.487
 1869SOL    HW2 5743   0.788   0.213   3.387
 1870SOL     OW 5744   1.713   1.161   3.390
 1870SOL    HW1 5745   1.624   1.164   3.425
 1870SOL    HW2 5746   1.745   1.074   3.412
 1871SOL     OW 5747   3.492   0.172   0.762
 1871SOL    HW1 5748   3.412   0.158   0.711
 1871SOL    HW2 5749   3.469   0.146   0.851
 1872SOL     OW 5750   3.049   1.553   1.324
 1872SOL    HW1 5751   3.139   1.543   1.292
 1872SOL    HW2 5752   2.997   1.495   1.269
 1873SOL     OW 5753   2.439   1.350   3.862
 1873SOL    HW1 5754   2.510   1.402   3.900
 1873SOL    HW2 5755   2.425   1.389   3.776
 1874SOL     OW 5756   1.967   2.653   1.896
 1874SOL    HW1 5757   2.021   2.592   1.845
 1874SOL    HW2 5758   1.916   2.700   1.830
 1875SOL     OW 5759   3.289   1.725   0.363
 1875SOL    HW1 5760   3.383   1.717   0.379
 1875SOL    HW2 5761   3.283   1.793   0.296
 1876SOL     OW 5762   0.562   1.191   3.136
 1876SOL    HW1 5763   0.476   1.184   3.178
 1876SOL    HW2 5764   0.621   1.216   3.207
 1877SOL     OW 5765   3.409   3.612   0.054
 1877SOL    HW1 5766   3.444   3.697   0.027
 1877SOL    HW2 5767   3.340   3.633   0.117
 1878SOL     OW 5768   3.624   3.173   3.489
 1878SOL    HW1 5769   3.701   3.131   3.527
 1878SOL    HW2 5770   3.657   3.253   3.450
 1879SOL     OW 5771   1.279   0.183   3.336
 1879SOL    HW1 5772   1.278   0.232   3.254
 1879SOL    HW2 5773   1.371   0.181   3.362
 1880SOL     OW 5774   3.617   3.536   2.377
 1880SOL    HW1 5775   3.564   3.475   2.427
 1880SOL    HW2 5776   3.579   3.622   2.396
 1881SOL     OW 5777   0.009   2.413   2.927
 1881SOL    HW1 5778   0.060   2.492   2.913
 1881SOL    HW2 5779   0.074   2.342   2.924
 1882SOL     OW 5780   0.406   1.088   0.245
 1882SOL    HW1 5781   0.386   1.038   0.323
 1882SOL    HW2 5782   0.369   1.037   0.173
 1883SOL     OW 5783   3.020   0.444   0.853
 1883SOL    HW1 5784   3.093   0.505   0.866
 1883SOL    HW2 5785   2.963   0.460   0.929
 1884SOL     OW 5786   0.543   1.228   2.403
 1884SOL    HW1 5787   0.538   1.172   2.481
 1884SOL    HW2 5788   0.549   1.167   2.330
 1885SOL     OW 5789   3.057   2.769   1.642
 1885SOL    HW1 5790   3.028   2.747   1.553
 1885SOL    HW2 5791   3.149   2.793   1.632
 1886SOL     OW 5792   1.370   0.643   0.840
 1886SOL    HW1 5793   1.463   0.623   0.836
 1886SOL    HW2 5794   1.347   0.635   0.932
 1887SOL     OW 5795   2.816   2.238   1.922
 1887SOL    HW1 5796   2.803   2.182   1.846
 1887SOL    HW2 5797   2.754   2.310   1.910
 1888SOL     OW 5798   3.552   0.214   1.058
 1888SOL    HW1 5799   3.559   0.271   1.135
 1888SOL    HW2 5800   3.624   0.240   1.002
 1889SOL     OW 5801   0.122   0.475   0.587
 1889SOL    HW1 5802   0.210   0.443   0.567
 1889SOL    HW2 5803   0.115   0.557   0.538
 1890SOL     OW 5804   0.727   0.235   3.725
 1890SOL    HW1 5805   0.759   0.315   3.684
 1890SOL    HW2 5806   0.773   0.232   3.809
 1891SOL     OW 5807   1.889   2.820   1.632
 1891SOL    HW1 5808   1.913   2.866   1.711
 1891SOL    HW2 5809   1.944   2.858   1.563
 1892SOL     OW 5810   0.638   3.461   1.168
 1892SOL    HW1 5811   0.615   3.552   1.187
 1892SOL    HW2 5812   0.714   3.444   1.224
 1893SOL     OW 5813  -0.013   2.577   2.361
 1893SOL    HW1 5814   0.026   2.623   2.435
 1893SOL    HW2 5815   0.059   2.565   2.300
 1894SOL     OW 5816   1.654   3.663   2.564
 1894SOL    HW1 5817   1.599   3.718   2.620
 1894SOL    HW2 5818   1.662   3.713   2.483
 1895SOL     OW 5819   1.949   0.095   3.274
 1895SOL    HW1 5820   1.983   0.140   3.352
 1895SOL    HW2 5821   1.859   0.124   3.266
 1896SOL     OW 5822   1.322   2.422   1.996
 1896SOL    HW1 5823   1.314   2.437   2.090
 1896SOL    HW2 5824   1.416   2.430   1.978
 1897SOL     OW 5825   3.919   2.017   2.854
 1897SOL    HW1 5826   3.915   2.085   2.786
 1897SOL    HW2 5827   4.008   1.982   2.847
 1898SOL     OW 5828   3.720   0.803   3.074
 1898SOL    HW1 5829   3.789   0.861   3.108
 1898SOL    HW2 5830   3.707   0.832   2.983
 1899SOL     OW 5831   3.732   2.597   2.166
 1899SOL    HW1 5832   3.699   2.687   2.171
 1899SOL    HW2 5833   3.789   2.588   2.242
 1900SOL     OW 5834   3.836   2.706   0.969
 1900SOL    HW1 5835   3.753   2.682   0.927
 1900SOL    HW2 5836   3.903   2.675   0.909
 1901SOL     OW 5837   0.806   1.756   3.165
 1901SOL    HW1 5838   0.855   1.677   3.188
 1901SOL    HW2 5839   0.873   1.818   3.136
 1902SOL     OW 5840   2.814   1.154   0.423
 1902SOL    HW1 5841   2.850   1.129   0.508
 1902SOL    HW2 5842   2.728   1.189   0.442
 1903SOL     OW 5843   1.934   2.726   3.826
 1903SOL    HW1 5844   1.944   2.683   3.911
 1903SOL    HW2 5845   1.992   2.676   3.767
 1904SOL     OW 5846   1.362   3.892   3.826
 1904SOL    HW1 5847   1.326   3.973   3.862
 1904SOL    HW2 5848   1.286   3.835   3.813
 1905SOL     OW 5849   3.852   3.452   1.250
 1905SOL    HW1 5850   3.835   3.434   1.343
 1905SOL    HW2 5851   3.921   3.390   1.226
 1906SOL     OW 5852   3.102   2.172   0.989
 1906SOL    HW1 5853   3.175   2.175   1.051
 1906SOL    HW2 5854   3.068   2.083   0.997
 1907SOL     OW 5855   0.147   1.352   0.924
 1907SOL    HW1 5856   0.078   1.305   0.876
 1907SOL    HW2 5857   0.143   1.317   1.013
 1908SOL     OW 5858   3.590   0.954   0.681
 1908SOL    HW1 5859   3.679   0.967   0.714
 1908SOL    HW2 5860   3.597   0.968   0.587
 1909SOL     OW 5861   3.600   0.704   2.815
 1909SOL    HW1 5862   3.580   0.638   2.881
 1909SOL    HW2 5863   3.519   0.713   2.765
 1910SOL     OW 5864   3.204   2.833   3.871
 1910SOL    HW1 5865   3.299   2.841   3.886
 1910SOL    HW2 5866   3.170   2.921   3.888
 1911SOL     OW 5867   0.104   3.703   2.356
 1911SOL    HW1 5868   0.076   3.644   2.427
 1911SOL    HW2 5869   0.061   3.667   2.278
 1912SOL     OW 5870   0.716   1.042   3.573
 1912SOL    HW1 5871   0.732   1.049   3.478
 1912SOL    HW2 5872   0.698   1.131   3.601
 1913SOL     OW 5873   3.787   2.401   0.570
 1913SOL    HW1 5874   3.829   2.484   0.549
 1913SOL    HW2 5875   3.859   2.342   0.590
 1914SOL     OW 5876   2.092   3.901   1.946
 1914SOL    HW1 5877   2.049   3.979   1.982
 1914SOL    HW2 5878   2.066   3.900   1.854
 1915SOL     OW 5879   0.833   2.320   0.470
 1915SOL    HW1 5880   0.920   2.357   0.463
 1915SOL    HW2 5881   0.779   2.374   0.412
 1916SOL     OW 5882   1.953   1.701   2.445
 1916SOL    HW1 5883   1.861   1.673   2.443
 1916SOL    HW2 5884   2.002   1.626   2.413
 1917SOL     OW 5885   1.821   3.181   0.786
 1917SOL    HW1 5886   1.909   3.200   0.819
 1917SOL    HW2 5887   1.803   3.092   0.815
 1918NA      NA 5888   3.526   2.030   2.875
 1919NA      NA 5889   1.784   2.908   3.816
   3.96100   3.96100   3.96100   0.00000   0.00000   0.00000   0.00000   0.00000   0.00000
