Generated with MDTraj, t= 46400.0
 5889
    1TYR      N    1   4.004   2.009   1.574
    1TYR     H1    2   4.086   2.008   1.639
    1TYR     H2    3   4.022   1.931   1.508
    1TYR     H3    4   4.007   2.104   1.531
    1TYR     CA    5   3.874   1.979   1.639
    1TYR     HA    6   3.849   2.051   1.716
    1TYR     CB    7   3.768   1.998   1.525
    1TYR    HB1    8   3.783   2.098   1.480
    1TYR    HB2    9   3.771   1.917   1.449
    1TYR     CG   10   3.627   2.023   1.588
    1TYR    CD1   11   3.551   1.909   1.622
    1TYR    HD1   12   3.594   1.814   1.595
    1TYR    CE1   13   3.440   1.917   1.698
    1TYR    HE1   14   3.380   1.828   1.706
    1TYR     CZ   15   3.391   2.037   1.736
    1TYR     OH   16   3.261   2.049   1.784
    1TYR     HH   17   3.222   1.961   1.775
    1TYR    CD2   18   3.584   2.150   1.635
    1TYR    HD2   19   3.640   2.238   1.607
    1TYR    CE2   20   3.463   2.157   1.713
    1TYR    HE2   21   3.422   2.255   1.733
    1TYR      C   22   3.882   1.834   1.700
    1TYR      O   23   3.895   1.739   1.628
    2TYR      N   24   3.878   1.823   1.838
    2TYR     HN   25   3.883   1.911   1.885
    2TYR     CA   26   3.895   1.703   1.908
    2TYR     HA   27   3.876   1.625   1.837
    2TYR     CB   28   4.034   1.675   1.976
    2TYR    HB1   29   4.042   1.743   2.063
    2TYR    HB2   30   4.036   1.572   2.017
    2TYR     CG   31   4.141   1.686   1.881
    2TYR    CD1   32   4.137   1.641   1.748
    2TYR    HD1   33   4.060   1.579   1.703
    2TYR    CE1   34   4.236   1.675   1.665
    2TYR    HE1   35   4.233   1.654   1.560
    2TYR     CZ   36   4.348   1.738   1.709
    2TYR     OH   37   4.460   1.763   1.621
    2TYR     HH   38   4.441   1.737   1.531
    2TYR    CD2   39   4.256   1.745   1.935
    2TYR    HD2   40   4.255   1.766   2.041
    2TYR    CE2   41   4.361   1.767   1.844
    2TYR    HE2   42   4.450   1.815   1.880
    2TYR      C   43   3.789   1.682   2.014
    2TYR      O   44   3.750   1.777   2.082
    3ASP      N   45   3.741   1.562   2.034
    3ASP     HN   46   3.782   1.483   1.989
    3ASP     CA   47   3.622   1.537   2.126
    3ASP     HA   48   3.612   1.620   2.193
    3ASP     CB   49   3.495   1.519   2.035
    3ASP    HB1   50   3.488   1.607   1.967
    3ASP    HB2   51   3.509   1.431   1.968
    3ASP     CG   52   3.380   1.515   2.130
    3ASP    OD1   53   3.269   1.459   2.089
    3ASP    OD2   54   3.386   1.568   2.243
    3ASP      C   55   3.647   1.410   2.208
    3ASP      O   56   3.624   1.305   2.148
    4PRO      N   57   3.705   1.404   2.329
    4PRO     CD   58   3.755   1.529   2.385
    4PRO    HD1   59   3.679   1.569   2.455
    4PRO    HD2   60   3.787   1.606   2.312
    4PRO     CA   61   3.780   1.289   2.377
    4PRO     HA   62   3.839   1.246   2.296
    4PRO     CB   63   3.850   1.348   2.501
    4PRO    HB1   64   3.775   1.360   2.582
    4PRO    HB2   65   3.943   1.289   2.518
    4PRO     CG   66   3.877   1.489   2.467
    4PRO    HG1   67   3.880   1.557   2.555
    4PRO    HG2   68   3.962   1.481   2.396
    4PRO      C   69   3.689   1.178   2.425
    4PRO      O   70   3.738   1.064   2.432
    5GLU      N   71   3.565   1.208   2.470
    5GLU     HN   72   3.550   1.305   2.487
    5GLU     CA   73   3.466   1.103   2.516
    5GLU     HA   74   3.520   1.030   2.574
    5GLU     CB   75   3.350   1.166   2.604
    5GLU    HB1   76   3.295   1.242   2.544
    5GLU    HB2   77   3.280   1.084   2.628
    5GLU     CG   78   3.399   1.232   2.733
    5GLU    HG1   79   3.499   1.191   2.759
    5GLU    HG2   80   3.409   1.340   2.708
    5GLU     CD   81   3.314   1.217   2.855
    5GLU    OE1   82   3.349   1.214   2.974
    5GLU    OE2   83   3.190   1.214   2.823
    5GLU      C   84   3.415   1.026   2.398
    5GLU      O   85   3.402   0.903   2.403
    6THR      N   86   3.394   1.101   2.286
    6THR     HN   87   3.396   1.200   2.286
    6THR     CA   88   3.371   1.029   2.156
    6THR     HA   89   3.292   0.957   2.173
    6THR     CB   90   3.311   1.138   2.060
    6THR     HB   91   3.375   1.223   2.030
    6THR    OG1   92   3.195   1.184   2.125
    6THR    HG1   93   3.196   1.277   2.104
    6THR    CG2   94   3.269   1.074   1.935
    6THR   HG21   95   3.210   0.981   1.945
    6THR   HG22   96   3.202   1.134   1.869
    6THR   HG23   97   3.357   1.036   1.879
    6THR      C   98   3.504   0.960   2.106
    6THR      O   99   3.504   0.883   2.009
    7GLY      N  100   3.622   0.981   2.162
    7GLY     HN  101   3.630   1.013   2.256
    7GLY     CA  102   3.750   0.930   2.111
    7GLY    HA1  103   3.824   0.965   2.181
    7GLY    HA2  104   3.760   0.823   2.109
    7GLY      C  105   3.793   0.983   1.976
    7GLY      O  106   3.854   0.920   1.886
    8THR      N  107   3.741   1.107   1.938
    8THR     HN  108   3.682   1.155   2.004
    8THR     CA  109   3.768   1.178   1.821
    8THR     HA  110   3.779   1.104   1.743
    8THR     CB  111   3.667   1.278   1.793
    8THR     HB  112   3.651   1.332   1.889
    8THR    OG1  113   3.546   1.211   1.749
    8THR    HG1  114   3.475   1.275   1.752
    8THR    CG2  115   3.697   1.381   1.679
    8THR   HG21  116   3.797   1.428   1.692
    8THR   HG22  117   3.701   1.335   1.578
    8THR   HG23  118   3.630   1.469   1.690
    8THR      C  119   3.895   1.245   1.843
    8THR      O  120   3.906   1.352   1.899
    9TRP      N  121   3.998   1.182   1.779
    9TRP     HN  122   3.989   1.096   1.728
    9TRP     CA  123   4.133   1.234   1.769
    9TRP     HA  124   4.133   1.339   1.793
    9TRP     CB  125   4.229   1.165   1.865
    9TRP    HB1  126   4.241   1.055   1.852
    9TRP    HB2  127   4.328   1.211   1.850
    9TRP     CG  128   4.207   1.193   2.016
    9TRP    CD1  129   4.222   1.311   2.078
    9TRP    HD1  130   4.283   1.390   2.038
    9TRP    NE1  131   4.175   1.304   2.213
    9TRP    HE1  132   4.182   1.360   2.293
    9TRP    CE2  133   4.144   1.168   2.244
    9TRP    CD2  134   4.154   1.101   2.114
    9TRP    CE3  135   4.122   0.957   2.111
    9TRP    HE3  136   4.121   0.900   2.019
    9TRP    CZ3  137   4.105   0.894   2.233
    9TRP    HZ3  138   4.085   0.788   2.232
    9TRP    CZ2  139   4.111   1.101   2.359
    9TRP    HZ2  140   4.103   1.153   2.454
    9TRP    CH2  141   4.090   0.968   2.355
    9TRP    HH2  142   4.061   0.918   2.446
    9TRP      C  143   4.181   1.219   1.625
    9TRP      O  144   4.176   1.112   1.567
   10TYR      N  145   4.236   1.329   1.569
   10TYR     HN  146   4.240   1.420   1.610
   10TYR     CA  147   4.306   1.320   1.442
   10TYR     HA  148   4.299   1.218   1.408
   10TYR     CB  149   4.220   1.424   1.343
   10TYR    HB1  150   4.245   1.530   1.365
   10TYR    HB2  151   4.264   1.418   1.242
   10TYR     CG  152   4.073   1.428   1.334
   10TYR    CD1  153   4.006   1.536   1.383
   10TYR    HD1  154   4.063   1.623   1.414
   10TYR    CE1  155   3.872   1.547   1.384
   10TYR    HE1  156   3.814   1.625   1.431
   10TYR     CZ  157   3.796   1.442   1.329
   10TYR     OH  158   3.662   1.466   1.314
   10TYR     HH  159   3.634   1.403   1.247
   10TYR    CD2  160   4.004   1.328   1.267
   10TYR    HD2  161   4.059   1.245   1.224
   10TYR    CE2  162   3.866   1.334   1.267
   10TYR    HE2  163   3.813   1.250   1.226
   10TYR      C  164   4.460   1.361   1.439
   10TYR    OT1  165   4.496   1.465   1.381
   10TYR    OT2  166   4.540   1.275   1.491
   11SOL     OW  167   3.330   1.597   0.846
   11SOL    HW1  168   3.300   1.654   0.917
   11SOL    HW2  169   3.276   1.622   0.771
   12SOL     OW  170   1.167   3.209   0.017
   12SOL    HW1  171   1.168   3.289   0.069
   12SOL    HW2  172   1.188   3.140   0.080
   13SOL     OW  173   0.296   3.442   0.195
   13SOL    HW1  174   0.237   3.395   0.255
   13SOL    HW2  175   0.283   3.400   0.110
   14SOL     OW  176   0.738   0.177   0.118
   14SOL    HW1  177   0.714   0.108   0.056
   14SOL    HW2  178   0.720   0.140   0.204
   15SOL     OW  179   3.400   1.806   3.909
   15SOL    HW1  180   3.401   1.711   3.919
   15SOL    HW2  181   3.482   1.835   3.950
   16SOL     OW  182   3.779   2.443   3.736
   16SOL    HW1  183   3.689   2.411   3.728
   16SOL    HW2  184   3.813   2.441   3.646
   17SOL     OW  185   2.688   1.566   0.198
   17SOL    HW1  186   2.607   1.519   0.217
   17SOL    HW2  187   2.691   1.637   0.262
   18SOL     OW  188   1.430   2.450   0.710
   18SOL    HW1  189   1.505   2.440   0.769
   18SOL    HW2  190   1.398   2.539   0.726
   19SOL     OW  191   3.678   3.316   2.943
   19SOL    HW1  192   3.598   3.355   2.979
   19SOL    HW2  193   3.679   3.227   2.979
   20SOL     OW  194   1.544   3.125   0.296
   20SOL    HW1  195   1.575   3.046   0.342
   20SOL    HW2  196   1.459   3.099   0.260
   21SOL     OW  197   0.927   1.390   2.696
   21SOL    HW1  198   0.864   1.318   2.701
   21SOL    HW2  199   0.874   1.469   2.701
   22SOL     OW  200   2.849   3.774   1.476
   22SOL    HW1  201   2.813   3.693   1.511
   22SOL    HW2  202   2.860   3.758   1.383
   23SOL     OW  203   0.314   3.398   0.700
   23SOL    HW1  204   0.362   3.319   0.724
   23SOL    HW2  205   0.316   3.400   0.605
   24SOL     OW  206   1.748   0.740   1.662
   24SOL    HW1  207   1.667   0.718   1.708
   24SOL    HW2  208   1.724   0.739   1.569
   25SOL     OW  209   0.526  -0.009   3.439
   25SOL    HW1  210   0.549   0.052   3.369
   25SOL    HW2  211   0.430  -0.003   3.445
   26SOL     OW  212   0.059   0.807   3.069
   26SOL    HW1  213   0.090   0.892   3.098
   26SOL    HW2  214   0.047   0.817   2.974
   27SOL     OW  215   3.370   1.681   3.109
   27SOL    HW1  216   3.345   1.590   3.093
   27SOL    HW2  217   3.326   1.704   3.191
   28SOL     OW  218   1.650   2.840   2.150
   28SOL    HW1  219   1.669   2.757   2.193
   28SOL    HW2  220   1.567   2.868   2.189
   29SOL     OW  221   0.670   3.278   2.346
   29SOL    HW1  222   0.693   3.365   2.378
   29SOL    HW2  223   0.729   3.264   2.271
   30SOL     OW  224   2.846   3.941   2.342
   30SOL    HW1  225   2.887   3.860   2.371
   30SOL    HW2  226   2.880   3.955   2.254
   31SOL     OW  227   1.131   0.928   1.150
   31SOL    HW1  228   1.154   0.997   1.088
   31SOL    HW2  229   1.037   0.940   1.166
   32SOL     OW  230   0.802   0.469   2.476
   32SOL    HW1  231   0.880   0.523   2.479
   32SOL    HW2  232   0.747   0.510   2.410
   33SOL     OW  233   3.193   2.568   1.275
   33SOL    HW1  234   3.230   2.502   1.333
   33SOL    HW2  235   3.103   2.578   1.305
   34SOL     OW  236   2.592   3.862   1.537
   34SOL    HW1  237   2.554   3.931   1.482
   34SOL    HW2  238   2.677   3.843   1.497
   35SOL     OW  239   2.738   2.050   1.118
   35SOL    HW1  240   2.691   1.972   1.088
   35SOL    HW2  241   2.680   2.122   1.095
   36SOL     OW  242   0.742   2.447   3.391
   36SOL    HW1  243   0.783   2.380   3.446
   36SOL    HW2  244   0.732   2.523   3.449
   37SOL     OW  245   2.501   0.448   3.635
   37SOL    HW1  246   2.467   0.532   3.667
   37SOL    HW2  247   2.596   0.455   3.646
   38SOL     OW  248   2.257   3.331   3.034
   38SOL    HW1  249   2.170   3.296   3.051
   38SOL    HW2  250   2.284   3.289   2.952
   39SOL     OW  251   0.056   2.597   1.966
   39SOL    HW1  252   0.096   2.676   2.003
   39SOL    HW2  253   0.001   2.629   1.894
   40SOL     OW  254   3.535   1.583   3.618
   40SOL    HW1  255   3.450   1.578   3.662
   40SOL    HW2  256   3.565   1.493   3.612
   41SOL     OW  257   2.341   0.366   3.407
   41SOL    HW1  258   2.362   0.453   3.374
   41SOL    HW2  259   2.378   0.364   3.495
   42SOL     OW  260   2.110   2.950   0.381
   42SOL    HW1  261   2.203   2.972   0.380
   42SOL    HW2  262   2.073   2.999   0.307
   43SOL     OW  263   2.405   1.135   0.199
   43SOL    HW1  264   2.446   1.208   0.246
   43SOL    HW2  265   2.317   1.131   0.235
   44SOL     OW  266   3.867   1.847   2.526
   44SOL    HW1  267   3.798   1.889   2.476
   44SOL    HW2  268   3.846   1.867   2.618
   45SOL     OW  269   3.116   3.004   1.461
   45SOL    HW1  270   3.066   3.070   1.412
   45SOL    HW2  271   3.174   2.965   1.395
   46SOL     OW  272   1.283   3.227   1.731
   46SOL    HW1  273   1.326   3.255   1.812
   46SOL    HW2  274   1.294   3.132   1.729
   47SOL     OW  275   0.788   1.770   2.223
   47SOL    HW1  276   0.837   1.767   2.305
   47SOL    HW2  277   0.853   1.796   2.157
   48SOL     OW  278   0.855   1.316   1.798
   48SOL    HW1  279   0.852   1.296   1.704
   48SOL    HW2  280   0.891   1.405   1.802
   49SOL     OW  281   2.481   1.235   3.584
   49SOL    HW1  282   2.527   1.311   3.620
   49SOL    HW2  283   2.520   1.160   3.630
   50SOL     OW  284   3.704   1.244   2.987
   50SOL    HW1  285   3.636   1.278   3.044
   50SOL    HW2  286   3.665   1.166   2.948
   51SOL     OW  287   3.459   3.119   2.037
   51SOL    HW1  288   3.375   3.164   2.040
   51SOL    HW2  289   3.446   3.046   1.977
   52SOL     OW  290   0.677   0.825   2.278
   52SOL    HW1  291   0.744   0.828   2.210
   52SOL    HW2  292   0.611   0.888   2.249
   53SOL     OW  293   0.981   0.948   2.315
   53SOL    HW1  294   0.937   1.030   2.335
   53SOL    HW2  295   0.930   0.908   2.245
   54SOL     OW  296   0.752   2.311   1.131
   54SOL    HW1  297   0.752   2.279   1.041
   54SOL    HW2  298   0.678   2.371   1.135
   55SOL     OW  299   3.443   0.456   3.785
   55SOL    HW1  300   3.365   0.470   3.840
   55SOL    HW2  301   3.412   0.397   3.716
   56SOL     OW  302   3.359   3.217   3.966
   56SOL    HW1  303   3.267   3.202   3.991
   56SOL    HW2  304   3.379   3.146   3.906
   57SOL     OW  305   3.858   0.564   3.390
   57SOL    HW1  306   3.901   0.481   3.370
   57SOL    HW2  307   3.855   0.610   3.306
   58SOL     OW  308   1.348   1.297   1.261
   58SOL    HW1  309   1.428   1.316   1.311
   58SOL    HW2  310   1.367   1.327   1.173
   59SOL     OW  311   3.088   1.643   2.190
   59SOL    HW1  312   3.140   1.566   2.171
   59SOL    HW2  313   3.111   1.668   2.279
   60SOL     OW  314   2.136   1.437   0.395
   60SOL    HW1  315   2.147   1.480   0.480
   60SOL    HW2  316   2.204   1.475   0.340
   61SOL     OW  317   2.613   3.468   2.228
   61SOL    HW1  318   2.565   3.549   2.210
   61SOL    HW2  319   2.557   3.420   2.289
   62SOL     OW  320   2.314   0.767   3.427
   62SOL    HW1  321   2.248   0.831   3.401
   62SOL    HW2  322   2.295   0.748   3.519
   63SOL     OW  323   2.966   2.284   3.147
   63SOL    HW1  324   3.017   2.292   3.067
   63SOL    HW2  325   3.030   2.266   3.216
   64SOL     OW  326   1.343   2.796   3.228
   64SOL    HW1  327   1.414   2.795   3.164
   64SOL    HW2  328   1.322   2.889   3.240
   65SOL     OW  329   2.520   0.383   1.992
   65SOL    HW1  330   2.515   0.292   1.965
   65SOL    HW2  331   2.593   0.419   1.942
   66SOL     OW  332   2.256   1.266   2.202
   66SOL    HW1  333   2.329   1.296   2.255
   66SOL    HW2  334   2.277   1.175   2.180
   67SOL     OW  335   2.950   1.874   3.156
   67SOL    HW1  336   2.927   1.781   3.154
   67SOL    HW2  337   2.934   1.900   3.247
   68SOL     OW  338   2.165   2.091   1.925
   68SOL    HW1  339   2.137   2.041   1.849
   68SOL    HW2  340   2.221   2.031   1.974
   69SOL     OW  341   3.440   2.312   3.717
   69SOL    HW1  342   3.405   2.323   3.629
   69SOL    HW2  343   3.366   2.331   3.775
   70SOL     OW  344   0.843   1.927   1.360
   70SOL    HW1  345   0.802   2.011   1.341
   70SOL    HW2  346   0.923   1.949   1.407
   71SOL     OW  347   2.735   3.083   3.790
   71SOL    HW1  348   2.718   3.127   3.707
   71SOL    HW2  349   2.677   3.126   3.853
   72SOL     OW  350   0.995   1.259   2.018
   72SOL    HW1  351   0.978   1.323   2.087
   72SOL    HW2  352   0.940   1.289   1.945
   73SOL     OW  353   0.542   1.041   2.156
   73SOL    HW1  354   0.465   1.095   2.140
   73SOL    HW2  355   0.605   1.067   2.089
   74SOL     OW  356   1.543   2.663   2.589
   74SOL    HW1  357   1.594   2.743   2.580
   74SOL    HW2  358   1.575   2.623   2.670
   75SOL     OW  359   1.874   3.777   3.610
   75SOL    HW1  360   1.904   3.822   3.531
   75SOL    HW2  361   1.779   3.784   3.607
   76SOL     OW  362   1.885   2.300   3.839
   76SOL    HW1  363   1.795   2.323   3.861
   76SOL    HW2  364   1.936   2.378   3.863
   77SOL     OW  365   1.701   1.666   0.619
   77SOL    HW1  366   1.753   1.718   0.557
   77SOL    HW2  367   1.645   1.612   0.564
   78SOL     OW  368   2.389   3.792   2.879
   78SOL    HW1  369   2.421   3.737   2.951
   78SOL    HW2  370   2.325   3.850   2.920
   79SOL     OW  371   1.306   3.162   3.622
   79SOL    HW1  372   1.333   3.073   3.645
   79SOL    HW2  373   1.366   3.219   3.670
   80SOL     OW  374   0.885   0.443   1.632
   80SOL    HW1  375   0.854   0.432   1.722
   80SOL    HW2  376   0.929   0.528   1.633
   81SOL     OW  377   3.126   1.082   3.744
   81SOL    HW1  378   3.094   1.109   3.658
   81SOL    HW2  379   3.222   1.079   3.734
   82SOL     OW  380   3.462   2.095   2.288
   82SOL    HW1  381   3.452   2.164   2.353
   82SOL    HW2  382   3.557   2.083   2.281
   83SOL     OW  383   0.138   1.655   2.735
   83SOL    HW1  384   0.136   1.746   2.765
   83SOL    HW2  385   0.190   1.657   2.654
   84SOL     OW  386   1.757   0.434   1.521
   84SOL    HW1  387   1.723   0.420   1.609
   84SOL    HW2  388   1.684   0.472   1.472
   85SOL     OW  389   0.456   3.441   3.688
   85SOL    HW1  390   0.432   3.531   3.711
   85SOL    HW2  391   0.526   3.419   3.750
   86SOL     OW  392   2.575   1.112   0.861
   86SOL    HW1  393   2.506   1.170   0.828
   86SOL    HW2  394   2.528   1.036   0.895
   87SOL     OW  395   1.639   0.153   0.707
   87SOL    HW1  396   1.692   0.230   0.685
   87SOL    HW2  397   1.586   0.181   0.781
   88SOL     OW  398   1.849   1.820   0.462
   88SOL    HW1  399   1.915   1.778   0.406
   88SOL    HW2  400   1.881   1.909   0.475
   89SOL     OW  401   0.627   2.557   1.056
   89SOL    HW1  402   0.583   2.526   0.977
   89SOL    HW2  403   0.656   2.646   1.034
   90SOL     OW  404   2.272   0.769   1.822
   90SOL    HW1  405   2.269   0.759   1.917
   90SOL    HW2  406   2.255   0.681   1.788
   91SOL     OW  407   0.414   2.841   0.207
   91SOL    HW1  408   0.444   2.751   0.215
   91SOL    HW2  409   0.385   2.850   0.116
   92SOL     OW  410   3.812   3.585   2.318
   92SOL    HW1  411   3.772   3.671   2.331
   92SOL    HW2  412   3.802   3.568   2.224
   93SOL     OW  413   3.052   2.356   1.633
   93SOL    HW1  414   2.964   2.387   1.654
   93SOL    HW2  415   3.041   2.311   1.549
   94SOL     OW  416   3.196   3.005   0.100
   94SOL    HW1  417   3.175   2.913   0.084
   94SOL    HW2  418   3.128   3.053   0.053
   95SOL     OW  419   2.568   1.438   2.206
   95SOL    HW1  420   2.521   1.468   2.128
   95SOL    HW2  421   2.547   1.503   2.273
   96SOL     OW  422   2.630   3.950   3.201
   96SOL    HW1  423   2.563   3.975   3.266
   96SOL    HW2  424   2.582   3.899   3.136
   97SOL     OW  425   3.175   3.076   2.891
   97SOL    HW1  426   3.176   2.981   2.905
   97SOL    HW2  427   3.259   3.095   2.849
   98SOL     OW  428   2.650   0.830   0.016
   98SOL    HW1  429   2.745   0.818   0.014
   98SOL    HW2  430   2.631   0.853   0.107
   99SOL     OW  431   2.159   3.472   2.508
   99SOL    HW1  432   2.192   3.517   2.431
   99SOL    HW2  433   2.216   3.501   2.579
  100SOL     OW  434   3.242   1.703   0.589
  100SOL    HW1  435   3.277   1.767   0.527
  100SOL    HW2  436   3.283   1.620   0.564
  101SOL     OW  437   1.466   3.052   0.817
  101SOL    HW1  438   1.491   2.995   0.890
  101SOL    HW2  439   1.537   3.044   0.754
  102SOL     OW  440   0.215   2.401   2.411
  102SOL    HW1  441   0.231   2.493   2.433
  102SOL    HW2  442   0.302   2.365   2.393
  103SOL     OW  443   0.885   3.189   0.449
  103SOL    HW1  444   0.888   3.132   0.372
  103SOL    HW2  445   0.957   3.251   0.436
  104SOL     OW  446   2.745   2.952   0.670
  104SOL    HW1  447   2.707   2.975   0.585
  104SOL    HW2  448   2.670   2.939   0.727
  105SOL     OW  449   2.715   2.603   1.904
  105SOL    HW1  450   2.807   2.624   1.891
  105SOL    HW2  451   2.695   2.635   1.992
  106SOL     OW  452   0.734   0.002   2.364
  106SOL    HW1  453   0.715   0.090   2.397
  106SOL    HW2  454   0.728  -0.055   2.441
  107SOL     OW  455   1.725   2.872   2.606
  107SOL    HW1  456   1.760   2.932   2.672
  107SOL    HW2  457   1.747   2.913   2.522
  108SOL     OW  458   1.875   1.192   3.898
  108SOL    HW1  459   1.819   1.154   3.830
  108SOL    HW2  460   1.962   1.155   3.881
  109SOL     OW  461   0.772   1.757   1.668
  109SOL    HW1  462   0.682   1.733   1.688
  109SOL    HW2  463   0.792   1.709   1.588
  110SOL     OW  464   1.316   2.688   1.099
  110SOL    HW1  465   1.259   2.635   1.154
  110SOL    HW2  466   1.397   2.638   1.094
  111SOL     OW  467   0.162   1.729   0.089
  111SOL    HW1  468   0.104   1.656   0.113
  111SOL    HW2  469   0.215   1.744   0.167
  112SOL     OW  470   0.612   3.298   0.363
  112SOL    HW1  471   0.693   3.265   0.403
  112SOL    HW2  472   0.587   3.230   0.300
  113SOL     OW  473   1.013   2.638   2.403
  113SOL    HW1  474   1.083   2.598   2.454
  113SOL    HW2  475   0.950   2.568   2.389
  114SOL     OW  476   1.136   0.768   2.521
  114SOL    HW1  477   1.109   0.694   2.466
  114SOL    HW2  478   1.099   0.844   2.477
  115SOL     OW  479   3.301   2.630   3.811
  115SOL    HW1  480   3.379   2.616   3.865
  115SOL    HW2  481   3.334   2.632   3.721
  116SOL     OW  482   1.699   3.632   1.305
  116SOL    HW1  483   1.679   3.673   1.221
  116SOL    HW2  484   1.636   3.672   1.366
  117SOL     OW  485   0.989   2.222   2.476
  117SOL    HW1  486   0.957   2.134   2.493
  117SOL    HW2  487   1.019   2.220   2.385
  118SOL     OW  488   3.059   0.960   2.655
  118SOL    HW1  489   3.061   1.051   2.625
  118SOL    HW2  490   3.000   0.916   2.595
  119SOL     OW  491   2.056   0.822   2.225
  119SOL    HW1  492   2.127   0.866   2.272
  119SOL    HW2  493   2.060   0.731   2.254
  120SOL     OW  494   1.380   3.470   2.658
  120SOL    HW1  495   1.350   3.382   2.680
  120SOL    HW2  496   1.341   3.489   2.573
  121SOL     OW  497   1.327   3.885   1.851
  121SOL    HW1  498   1.357   3.847   1.933
  121SOL    HW2  499   1.383   3.846   1.784
  122SOL     OW  500   2.853   0.612   1.722
  122SOL    HW1  501   2.890   0.694   1.754
  122SOL    HW2  502   2.880   0.546   1.786
  123SOL     OW  503   1.790   2.464   0.812
  123SOL    HW1  504   1.736   2.540   0.788
  123SOL    HW2  505   1.812   2.479   0.904
  124SOL     OW  506   0.261   3.859   1.974
  124SOL    HW1  507   0.308   3.896   1.900
  124SOL    HW2  508   0.197   3.926   1.998
  125SOL     OW  509   0.005   1.997   0.941
  125SOL    HW1  510   0.054   2.033   0.867
  125SOL    HW2  511  -0.053   2.068   0.968
  126SOL     OW  512   2.091   1.143   3.386
  126SOL    HW1  513   2.124   1.227   3.354
  126SOL    HW2  514   2.105   1.145   3.480
  127SOL     OW  515   0.724   2.563   1.337
  127SOL    HW1  516   0.660   2.521   1.394
  127SOL    HW2  517   0.685   2.559   1.250
  128SOL     OW  518   3.377   0.050   1.400
  128SOL    HW1  519   3.300   0.005   1.368
  128SOL    HW2  520   3.401   0.003   1.480
  129SOL     OW  521   3.105   2.001   3.567
  129SOL    HW1  522   3.170   1.956   3.620
  129SOL    HW2  523   3.062   2.061   3.628
  130SOL     OW  524   2.859   1.764   1.936
  130SOL    HW1  525   2.828   1.692   1.990
  130SOL    HW2  526   2.809   1.840   1.966
  131SOL     OW  527   0.760   2.948   3.751
  131SOL    HW1  528   0.787   2.925   3.662
  131SOL    HW2  529   0.841   2.957   3.800
  132SOL     OW  530   0.075   0.873   1.704
  132SOL    HW1  531  -0.006   0.879   1.755
  132SOL    HW2  532   0.046   0.864   1.613
  133SOL     OW  533   2.876   3.240   0.533
  133SOL    HW1  534   2.932   3.220   0.458
  133SOL    HW2  535   2.801   3.285   0.494
  134SOL     OW  536   3.126   3.688   0.770
  134SOL    HW1  537   3.182   3.687   0.848
  134SOL    HW2  538   3.122   3.780   0.744
  135SOL     OW  539   1.417   2.447   2.145
  135SOL    HW1  540   1.330   2.484   2.157
  135SOL    HW2  541   1.460   2.460   2.230
  136SOL     OW  542   0.019   1.052   3.838
  136SOL    HW1  543   0.056   0.968   3.814
  136SOL    HW2  544   0.081   1.117   3.805
  137SOL     OW  545   3.782   0.094   1.003
  137SOL    HW1  546   3.751   0.089   1.094
  137SOL    HW2  547   3.715   0.048   0.952
  138SOL     OW  548   2.901   1.629   2.735
  138SOL    HW1  549   2.829   1.591   2.785
  138SOL    HW2  550   2.973   1.567   2.745
  139SOL     OW  551   0.092   0.105   2.079
  139SOL    HW1  552   0.114   0.155   2.157
  139SOL    HW2  553   0.081   0.171   2.010
  140SOL     OW  554   2.045   1.667   1.483
  140SOL    HW1  555   2.057   1.594   1.423
  140SOL    HW2  556   1.952   1.666   1.503
  141SOL     OW  557   3.335   2.265   2.897
  141SOL    HW1  558   3.275   2.257   2.823
  141SOL    HW2  559   3.368   2.176   2.911
  142SOL     OW  560   3.590   1.853   2.891
  142SOL    HW1  561   3.557   1.931   2.935
  142SOL    HW2  562   3.621   1.797   2.962
  143SOL     OW  563   0.592   1.441   3.301
  143SOL    HW1  564   0.624   1.352   3.287
  143SOL    HW2  565   0.497   1.433   3.296
  144SOL     OW  566   1.670   1.457   0.838
  144SOL    HW1  567   1.700   1.399   0.768
  144SOL    HW2  568   1.691   1.545   0.807
  145SOL     OW  569   1.211   1.373   3.072
  145SOL    HW1  570   1.288   1.332   3.032
  145SOL    HW2  571   1.222   1.358   3.166
  146SOL     OW  572   3.854   2.506   2.750
  146SOL    HW1  573   3.864   2.437   2.685
  146SOL    HW2  574   3.943   2.533   2.772
  147SOL     OW  575   0.796   2.272   3.131
  147SOL    HW1  576   0.713   2.230   3.108
  147SOL    HW2  577   0.842   2.208   3.185
  148SOL     OW  578   3.945   2.755   0.132
  148SOL    HW1  579   3.904   2.682   0.086
  148SOL    HW2  580   3.904   2.833   0.094
  149SOL     OW  581   1.304   2.422   2.923
  149SOL    HW1  582   1.281   2.513   2.906
  149SOL    HW2  583   1.368   2.400   2.855
  150SOL     OW  584   0.897   2.817   2.149
  150SOL    HW1  585   0.806   2.789   2.141
  150SOL    HW2  586   0.918   2.856   2.064
  151SOL     OW  587   2.652   2.146   1.707
  151SOL    HW1  588   2.645   2.150   1.612
  151SOL    HW2  589   2.585   2.082   1.733
  152SOL     OW  590   3.848   0.488   3.661
  152SOL    HW1  591   3.823   0.530   3.578
  152SOL    HW2  592   3.789   0.526   3.726
  153SOL     OW  593   3.808   0.947   0.081
  153SOL    HW1  594   3.735   0.902   0.037
  153SOL    HW2  595   3.848   1.000   0.012
  154SOL     OW  596   0.634   1.928   0.416
  154SOL    HW1  597   0.606   1.837   0.417
  154SOL    HW2  598   0.625   1.956   0.325
  155SOL     OW  599   1.927   3.756   0.137
  155SOL    HW1  600   2.006   3.782   0.184
  155SOL    HW2  601   1.863   3.738   0.206
  156SOL     OW  602   0.297   2.070   1.169
  156SOL    HW1  603   0.318   2.139   1.232
  156SOL    HW2  604   0.245   2.114   1.101
  157SOL     OW  605   2.517   2.090   2.203
  157SOL    HW1  606   2.458   2.131   2.266
  157SOL    HW2  607   2.551   2.013   2.248
  158SOL     OW  608   0.236   3.333   3.935
  158SOL    HW1  609   0.148   3.297   3.944
  158SOL    HW2  610   0.269   3.295   3.853
  159SOL     OW  611   0.295   2.634   1.747
  159SOL    HW1  612   0.384   2.630   1.780
  159SOL    HW2  613   0.248   2.687   1.812
  160SOL     OW  614   0.394   2.220   1.371
  160SOL    HW1  615   0.453   2.148   1.393
  160SOL    HW2  616   0.447   2.299   1.385
  161SOL     OW  617   1.704   2.712   3.226
  161SOL    HW1  618   1.650   2.649   3.274
  161SOL    HW2  619   1.651   2.737   3.151
  162SOL     OW  620   0.816   3.476   2.020
  162SOL    HW1  621   0.857   3.493   2.105
  162SOL    HW2  622   0.764   3.397   2.034
  163SOL     OW  623   3.458   1.313   1.169
  163SOL    HW1  624   3.422   1.327   1.082
  163SOL    HW2  625   3.425   1.228   1.196
  164SOL     OW  626   0.852   3.060   1.106
  164SOL    HW1  627   0.833   3.023   1.020
  164SOL    HW2  628   0.828   2.992   1.168
  165SOL     OW  629   2.095   1.033   3.126
  165SOL    HW1  630   2.140   0.958   3.165
  165SOL    HW2  631   2.089   1.097   3.198
  166SOL     OW  632   3.018   2.937   1.861
  166SOL    HW1  633   2.934   2.953   1.904
  166SOL    HW2  634   3.047   2.853   1.895
  167SOL     OW  635   2.310   3.835   3.904
  167SOL    HW1  636   2.333   3.871   3.989
  167SOL    HW2  637   2.214   3.840   3.901
  168SOL     OW  638   3.327   2.655   0.831
  168SOL    HW1  639   3.372   2.589   0.779
  168SOL    HW2  640   3.330   2.735   0.778
  169SOL     OW  641   1.273   3.745   0.797
  169SOL    HW1  642   1.290   3.686   0.723
  169SOL    HW2  643   1.307   3.829   0.769
  170SOL     OW  644   2.294   1.731   1.141
  170SOL    HW1  645   2.354   1.671   1.186
  170SOL    HW2  646   2.324   1.818   1.167
  171SOL     OW  647   2.371   1.253   3.287
  171SOL    HW1  648   2.399   1.184   3.226
  171SOL    HW2  649   2.412   1.229   3.370
  172SOL     OW  650   1.052   3.147   1.921
  172SOL    HW1  651   0.992   3.205   1.874
  172SOL    HW2  652   1.139   3.181   1.900
  173SOL     OW  653   1.523   3.397   2.199
  173SOL    HW1  654   1.558   3.486   2.200
  173SOL    HW2  655   1.586   3.346   2.249
  174SOL     OW  656   0.911   1.489   2.191
  174SOL    HW1  657   0.864   1.545   2.130
  174SOL    HW2  658   0.880   1.515   2.278
  175SOL     OW  659   3.015   2.212   2.297
  175SOL    HW1  660   3.005   2.195   2.391
  175SOL    HW2  661   3.049   2.130   2.261
  176SOL     OW  662   2.510   0.368   2.537
  176SOL    HW1  663   2.586   0.311   2.544
  176SOL    HW2  664   2.493   0.374   2.443
  177SOL     OW  665   0.558   1.067   0.843
  177SOL    HW1  666   0.548   1.161   0.829
  177SOL    HW2  667   0.571   1.059   0.938
  178SOL     OW  668   3.884   0.471   1.653
  178SOL    HW1  669   3.912   0.478   1.745
  178SOL    HW2  670   3.802   0.521   1.650
  179SOL     OW  671   2.042   2.130   3.656
  179SOL    HW1  672   2.024   2.198   3.721
  179SOL    HW2  673   1.957   2.088   3.641
  180SOL     OW  674   3.132   3.487   2.944
  180SOL    HW1  675   3.102   3.452   2.860
  180SOL    HW2  676   3.051   3.503   2.993
  181SOL     OW  677   2.766   1.249   0.721
  181SOL    HW1  678   2.759   1.214   0.632
  181SOL    HW2  679   2.716   1.188   0.775
  182SOL     OW  680   2.707   3.699   3.807
  182SOL    HW1  681   2.678   3.656   3.726
  182SOL    HW2  682   2.713   3.629   3.871
  183SOL     OW  683   1.153   1.237   2.741
  183SOL    HW1  684   1.112   1.315   2.777
  183SOL    HW2  685   1.080   1.188   2.701
  184SOL     OW  686   1.872   0.652   0.412
  184SOL    HW1  687   1.929   0.575   0.402
  184SOL    HW2  688   1.927   0.726   0.389
  185SOL     OW  689   1.577   3.550   2.827
  185SOL    HW1  690   1.507   3.509   2.777
  185SOL    HW2  691   1.572   3.643   2.805
  186SOL     OW  692   0.849   3.461   1.258
  186SOL    HW1  693   0.907   3.521   1.212
  186SOL    HW2  694   0.761   3.485   1.229
  187SOL     OW  695   2.712   2.636   2.157
  187SOL    HW1  696   2.763   2.674   2.228
  187SOL    HW2  697   2.717   2.541   2.171
  188SOL     OW  698   0.354   2.376   3.899
  188SOL    HW1  699   0.300   2.454   3.890
  188SOL    HW2  700   0.442   2.410   3.915
  189SOL     OW  701   2.985   1.050   2.261
  189SOL    HW1  702   2.971   1.120   2.324
  189SOL    HW2  703   3.039   1.090   2.192
  190SOL     OW  704   1.578   2.295   0.472
  190SOL    HW1  705   1.617   2.265   0.555
  190SOL    HW2  706   1.593   2.389   0.471
  191SOL     OW  707   2.511   3.072   2.026
  191SOL    HW1  708   2.491   2.994   2.077
  191SOL    HW2  709   2.427   3.115   2.013
  192SOL     OW  710   3.588   1.444   0.849
  192SOL    HW1  711   3.636   1.422   0.770
  192SOL    HW2  712   3.501   1.469   0.819
  193SOL     OW  713   1.470   2.723   3.946
  193SOL    HW1  714   1.412   2.698   3.874
  193SOL    HW2  715   1.418   2.704   4.025
  194SOL     OW  716   0.904   2.491   3.746
  194SOL    HW1  717   0.933   2.438   3.821
  194SOL    HW2  718   0.900   2.429   3.673
  195SOL     OW  719   1.301   1.797   3.642
  195SOL    HW1  720   1.357   1.754   3.707
  195SOL    HW2  721   1.299   1.889   3.670
  196SOL     OW  722   1.803   3.704   0.398
  196SOL    HW1  723   1.778   3.646   0.471
  196SOL    HW2  724   1.879   3.752   0.431
  197SOL     OW  725   0.588   1.092   1.676
  197SOL    HW1  726   0.506   1.043   1.667
  197SOL    HW2  727   0.582   1.160   1.609
  198SOL     OW  728   3.498   1.557   1.510
  198SOL    HW1  729   3.532   1.489   1.452
  198SOL    HW2  730   3.450   1.616   1.453
  199SOL     OW  731   1.084   2.446   3.110
  199SOL    HW1  732   1.127   2.520   3.068
  199SOL    HW2  733   0.991   2.460   3.094
  200SOL     OW  734   1.369   3.281   2.964
  200SOL    HW1  735   1.357   3.262   2.870
  200SOL    HW2  736   1.459   3.254   2.982
  201SOL     OW  737   1.004   0.040   0.416
  201SOL    HW1  738   0.961   0.022   0.499
  201SOL    HW2  739   0.957  -0.014   0.352
  202SOL     OW  740   2.013   2.226   0.957
  202SOL    HW1  741   2.021   2.269   0.872
  202SOL    HW2  742   1.941   2.164   0.946
  203SOL     OW  743   2.576   1.055   2.911
  203SOL    HW1  744   2.549   0.975   2.865
  203SOL    HW2  745   2.672   1.053   2.908
  204SOL     OW  746   2.419   3.571   3.898
  204SOL    HW1  747   2.460   3.525   3.825
  204SOL    HW2  748   2.387   3.653   3.861
  205SOL     OW  749   2.049   0.451   3.452
  205SOL    HW1  750   1.983   0.458   3.383
  205SOL    HW2  751   2.133   0.454   3.405
  206SOL     OW  752   1.962   0.900   1.283
  206SOL    HW1  753   2.019   0.847   1.339
  206SOL    HW2  754   1.904   0.838   1.240
  207SOL     OW  755   1.480   1.469   1.033
  207SOL    HW1  756   1.557   1.474   0.976
  207SOL    HW2  757   1.456   1.561   1.047
  208SOL     OW  758   3.689   0.124   2.197
  208SOL    HW1  759   3.669   0.166   2.114
  208SOL    HW2  760   3.664   0.032   2.185
  209SOL     OW  761   2.095   3.065   3.282
  209SOL    HW1  762   2.146   3.147   3.282
  209SOL    HW2  763   2.037   3.073   3.207
  210SOL     OW  764   2.074   0.133   3.734
  210SOL    HW1  765   2.052   0.050   3.778
  210SOL    HW2  766   2.165   0.122   3.706
  211SOL     OW  767   1.683   3.353   0.834
  211SOL    HW1  768   1.676   3.260   0.813
  211SOL    HW2  769   1.763   3.359   0.886
  212SOL     OW  770   1.279   3.926   3.062
  212SOL    HW1  771   1.280   3.848   3.117
  212SOL    HW2  772   1.290   3.999   3.123
  213SOL     OW  773   0.350   2.766   1.993
  213SOL    HW1  774   0.268   2.800   2.029
  213SOL    HW2  775   0.377   2.697   2.053
  214SOL     OW  776   2.020   1.486   0.783
  214SOL    HW1  777   2.040   1.396   0.757
  214SOL    HW2  778   1.952   1.514   0.721
  215SOL     OW  779   3.393   0.507   0.219
  215SOL    HW1  780   3.419   0.599   0.217
  215SOL    HW2  781   3.378   0.488   0.311
  216SOL     OW  782   2.011   3.841   3.819
  216SOL    HW1  783   1.958   3.798   3.887
  216SOL    HW2  784   1.980   3.805   3.737
  217SOL     OW  785   1.986   3.280   3.122
  217SOL    HW1  786   1.912   3.311   3.071
  217SOL    HW2  787   1.966   3.305   3.212
  218SOL     OW  788   0.565   1.398   2.348
  218SOL    HW1  789   0.566   1.494   2.348
  218SOL    HW2  790   0.585   1.374   2.257
  219SOL     OW  791   0.430   2.149   3.617
  219SOL    HW1  792   0.507   2.099   3.587
  219SOL    HW2  793   0.442   2.236   3.580
  220SOL     OW  794   0.357   2.694   0.700
  220SOL    HW1  795   0.451   2.711   0.701
  220SOL    HW2  796   0.328   2.722   0.613
  221SOL     OW  797   3.781   1.702   3.823
  221SOL    HW1  798   3.692   1.685   3.791
  221SOL    HW2  799   3.830   1.725   3.744
  222SOL     OW  800   0.360   1.462   2.916
  222SOL    HW1  801   0.308   1.425   2.844
  222SOL    HW2  802   0.297   1.514   2.966
  223SOL     OW  803   1.259   3.376   1.503
  223SOL    HW1  804   1.235   3.344   1.590
  223SOL    HW2  805   1.300   3.301   1.461
  224SOL     OW  806   2.520   0.568   0.967
  224SOL    HW1  807   2.577   0.527   0.903
  224SOL    HW2  808   2.443   0.512   0.971
  225SOL     OW  809   0.236   0.073   3.374
  225SOL    HW1  810   0.204   0.097   3.461
  225SOL    HW2  811   0.262   0.156   3.335
  226SOL     OW  812   0.344   0.140   1.729
  226SOL    HW1  813   0.387   0.216   1.690
  226SOL    HW2  814   0.404   0.067   1.713
  227SOL     OW  815   2.710   0.494   0.732
  227SOL    HW1  816   2.730   0.402   0.746
  227SOL    HW2  817   2.738   0.512   0.642
  228SOL     OW  818   3.891   2.309   1.772
  228SOL    HW1  819   3.850   2.361   1.703
  228SOL    HW2  820   3.952   2.369   1.815
  229SOL     OW  821   2.671   0.373   2.860
  229SOL    HW1  822   2.747   0.344   2.811
  229SOL    HW2  823   2.659   0.307   2.928
  230SOL     OW  824   3.767   3.910   2.404
  230SOL    HW1  825   3.762   3.969   2.480
  230SOL    HW2  826   3.752   3.967   2.329
  231SOL     OW  827   3.385   0.854   3.484
  231SOL    HW1  828   3.358   0.823   3.398
  231SOL    HW2  829   3.478   0.832   3.489
  232SOL     OW  830   2.291   0.448   0.443
  232SOL    HW1  831   2.246   0.443   0.359
  232SOL    HW2  832   2.309   0.356   0.465
  233SOL     OW  833   1.396   1.966   2.173
  233SOL    HW1  834   1.398   1.913   2.252
  233SOL    HW2  835   1.349   1.914   2.110
  234SOL     OW  836   2.306   0.045   2.284
  234SOL    HW1  837   2.292   0.137   2.261
  234SOL    HW2  838   2.398   0.040   2.306
  235SOL     OW  839   3.517   0.454   1.320
  235SOL    HW1  840   3.546   0.481   1.407
  235SOL    HW2  841   3.592   0.407   1.283
  236SOL     OW  842   3.410   3.722   1.992
  236SOL    HW1  843   3.415   3.757   1.903
  236SOL    HW2  844   3.410   3.627   1.981
  237SOL     OW  845   1.953   1.961   3.932
  237SOL    HW1  846   1.997   1.888   3.889
  237SOL    HW2  847   1.939   2.025   3.863
  238SOL     OW  848   3.105   2.001   0.842
  238SOL    HW1  849   3.067   1.949   0.913
  238SOL    HW2  850   3.190   1.960   0.826
  239SOL     OW  851   2.232   2.093   2.599
  239SOL    HW1  852   2.219   1.999   2.605
  239SOL    HW2  853   2.258   2.119   2.687
  240SOL     OW  854   2.222   2.366   2.051
  240SOL    HW1  855   2.171   2.392   1.974
  240SOL    HW2  856   2.242   2.273   2.035
  241SOL     OW  857   0.394   0.905   1.629
  241SOL    HW1  858   0.308   0.947   1.632
  241SOL    HW2  859   0.393   0.854   1.547
  242SOL     OW  860   2.225   2.467   0.291
  242SOL    HW1  861   2.177   2.395   0.332
  242SOL    HW2  862   2.309   2.429   0.267
  243SOL     OW  863   2.305   0.730   2.597
  243SOL    HW1  864   2.344   0.752   2.681
  243SOL    HW2  865   2.268   0.642   2.609
  244SOL     OW  866   1.137   2.533   2.114
  244SOL    HW1  867   1.100   2.618   2.089
  244SOL    HW2  868   1.087   2.507   2.191
  245SOL     OW  869   3.612   3.659   1.088
  245SOL    HW1  870   3.626   3.564   1.092
  245SOL    HW2  871   3.693   3.694   1.052
  246SOL     OW  872   3.605   3.535   0.644
  246SOL    HW1  873   3.656   3.550   0.564
  246SOL    HW2  874   3.539   3.604   0.644
  247SOL     OW  875   1.338   2.772   1.987
  247SOL    HW1  876   1.244   2.777   2.008
  247SOL    HW2  877   1.381   2.762   2.072
  248SOL     OW  878   1.338   3.759   2.495
  248SOL    HW1  879   1.351   3.747   2.588
  248SOL    HW2  880   1.263   3.704   2.473
  249SOL     OW  881   0.602   0.769   0.318
  249SOL    HW1  882   0.513   0.780   0.349
  249SOL    HW2  883   0.628   0.682   0.351
  250SOL     OW  884   3.467   2.939   3.486
  250SOL    HW1  885   3.491   2.959   3.576
  250SOL    HW2  886   3.404   3.006   3.462
  251SOL     OW  887   2.136   2.963   2.939
  251SOL    HW1  888   2.080   2.987   2.865
  251SOL    HW2  889   2.084   2.899   2.989
  252SOL     OW  890   2.893   1.789   1.552
  252SOL    HW1  891   2.860   1.702   1.569
  252SOL    HW2  892   2.988   1.777   1.541
  253SOL     OW  893   2.798   0.772   2.689
  253SOL    HW1  894   2.740   0.699   2.668
  253SOL    HW2  895   2.845   0.790   2.607
  254SOL     OW  896   0.135   0.015   0.378
  254SOL    HW1  897   0.161  -0.022   0.462
  254SOL    HW2  898   0.216   0.044   0.337
  255SOL     OW  899   1.517   2.545   1.544
  255SOL    HW1  900   1.538   2.633   1.515
  255SOL    HW2  901   1.422   2.546   1.558
  256SOL     OW  902   1.602   3.847   2.393
  256SOL    HW1  903   1.522   3.801   2.419
  256SOL    HW2  904   1.656   3.848   2.472
  257SOL     OW  905   0.200   0.160   1.410
  257SOL    HW1  906   0.105   0.149   1.421
  257SOL    HW2  907   0.228   0.209   1.487
  258SOL     OW  908   0.692   0.609   3.955
  258SOL    HW1  909   0.745   0.531   3.941
  258SOL    HW2  910   0.698   0.658   3.873
  259SOL     OW  911   1.684   2.978   3.794
  259SOL    HW1  912   1.754   3.038   3.768
  259SOL    HW2  913   1.681   2.985   3.890
  260SOL     OW  914   0.292   2.911   2.773
  260SOL    HW1  915   0.238   2.975   2.819
  260SOL    HW2  916   0.322   2.851   2.842
  261SOL     OW  917   2.313   0.267   3.039
  261SOL    HW1  918   2.224   0.298   3.053
  261SOL    HW2  919   2.324   0.196   3.103
  262SOL     OW  920   0.912   3.057   1.659
  262SOL    HW1  921   0.993   3.017   1.627
  262SOL    HW2  922   0.941   3.119   1.725
  263SOL     OW  923   0.943   2.749   1.391
  263SOL    HW1  924   0.903   2.663   1.404
  263SOL    HW2  925   0.868   2.808   1.382
  264SOL     OW  926   2.667   2.183   2.001
  264SOL    HW1  927   2.632   2.153   2.085
  264SOL    HW2  928   2.628   2.124   1.936
  265SOL     OW  929   1.814   3.174   2.790
  265SOL    HW1  930   1.820   3.206   2.700
  265SOL    HW2  931   1.800   3.252   2.842
  266SOL     OW  932   1.003   2.009   2.730
  266SOL    HW1  933   0.947   2.014   2.807
  266SOL    HW2  934   1.014   2.100   2.703
  267SOL     OW  935   2.376   1.199   1.894
  267SOL    HW1  936   2.342   1.136   1.957
  267SOL    HW2  937   2.471   1.185   1.895
  268SOL     OW  938   0.491   0.273   2.809
  268SOL    HW1  939   0.451   0.328   2.742
  268SOL    HW2  940   0.537   0.335   2.867
  269SOL     OW  941   2.469   1.753   0.231
  269SOL    HW1  942   2.396   1.815   0.243
  269SOL    HW2  943   2.500   1.770   0.142
  270SOL     OW  944   2.782   0.462   1.946
  270SOL    HW1  945   2.860   0.478   1.998
  270SOL    HW2  946   2.788   0.371   1.920
  271SOL     OW  947   2.241   0.317   1.539
  271SOL    HW1  948   2.146   0.320   1.530
  271SOL    HW2  949   2.269   0.408   1.540
  272SOL     OW  950   2.797   0.654   1.120
  272SOL    HW1  951   2.710   0.615   1.130
  272SOL    HW2  952   2.853   0.601   1.176
  273SOL     OW  953   2.512   0.296   0.945
  273SOL    HW1  954   2.569   0.360   0.988
  273SOL    HW2  955   2.427   0.339   0.941
  274SOL     OW  956   0.765   0.635   2.807
  274SOL    HW1  957   0.858   0.615   2.797
  274SOL    HW2  958   0.759   0.729   2.793
  275SOL     OW  959   1.584   1.634   1.301
  275SOL    HW1  960   1.516   1.631   1.234
  275SOL    HW2  961   1.663   1.662   1.254
  276SOL     OW  962   3.411   2.060   2.616
  276SOL    HW1  963   3.350   1.986   2.623
  276SOL    HW2  964   3.497   2.018   2.609
  277SOL     OW  965   1.339   0.258   1.483
  277SOL    HW1  966   1.272   0.273   1.550
  277SOL    HW2  967   1.421   0.281   1.526
  278SOL     OW  968   3.567   1.130   0.458
  278SOL    HW1  969   3.661   1.148   0.468
  278SOL    HW2  970   3.559   1.098   0.369
  279SOL     OW  971   0.054   2.099   2.488
  279SOL    HW1  972   0.086   2.095   2.398
  279SOL    HW2  973   0.032   2.009   2.510
  280SOL     OW  974   0.240   0.509   3.825
  280SOL    HW1  975   0.304   0.548   3.885
  280SOL    HW2  976   0.162   0.495   3.879
  281SOL     OW  977   0.467   0.411   0.388
  281SOL    HW1  978   0.491   0.394   0.479
  281SOL    HW2  979   0.545   0.450   0.350
  282SOL     OW  980   1.234   1.493   2.268
  282SOL    HW1  981   1.165   1.453   2.320
  282SOL    HW2  982   1.199   1.492   2.178
  283SOL     OW  983   1.680   2.416   1.990
  283SOL    HW1  984   1.606   2.412   2.050
  283SOL    HW2  985   1.699   2.510   1.982
  284SOL     OW  986   0.621   0.830   1.134
  284SOL    HW1  987   0.639   0.736   1.133
  284SOL    HW2  988   0.530   0.837   1.164
  285SOL     OW  989   1.253   2.445   1.604
  285SOL    HW1  990   1.171   2.399   1.623
  285SOL    HW2  991   1.267   2.432   1.510
  286SOL     OW  992   1.887   2.641   0.407
  286SOL    HW1  993   1.906   2.550   0.384
  286SOL    HW2  994   1.965   2.689   0.379
  287SOL     OW  995   2.369   2.567   1.455
  287SOL    HW1  996   2.411   2.640   1.499
  287SOL    HW2  997   2.287   2.554   1.502
  288SOL     OW  998   1.208   1.156   1.757
  288SOL    HW1  999   1.252   1.094   1.699
  288SOL    HW2 1000   1.261   1.156   1.837
  289SOL     OW 1001   0.543   3.588   0.122
  289SOL    HW1 1002   0.529   3.665   0.177
  289SOL    HW2 1003   0.466   3.533   0.138
  290SOL     OW 1004   0.086   3.372   3.275
  290SOL    HW1 1005   0.176   3.340   3.279
  290SOL    HW2 1006   0.092   3.456   3.229
  291SOL     OW 1007   2.265   3.263   3.322
  291SOL    HW1 1008   2.333   3.284   3.386
  291SOL    HW2 1009   2.298   3.298   3.239
  292SOL     OW 1010   3.407   1.056   3.639
  292SOL    HW1 1011   3.390   0.970   3.601
  292SOL    HW2 1012   3.492   1.082   3.603
  293SOL     OW 1013   1.260   0.629   1.707
  293SOL    HW1 1014   1.169   0.649   1.687
  293SOL    HW2 1015   1.266   0.534   1.698
  294SOL     OW 1016   1.522   2.063   1.652
  294SOL    HW1 1017   1.537   2.150   1.614
  294SOL    HW2 1018   1.543   2.074   1.745
  295SOL     OW 1019   0.288   0.791   1.361
  295SOL    HW1 1020   0.267   0.751   1.277
  295SOL    HW2 1021   0.249   0.878   1.357
  296SOL     OW 1022   1.465   1.886   1.292
  296SOL    HW1 1023   1.536   1.827   1.267
  296SOL    HW2 1024   1.488   1.970   1.253
  297SOL     OW 1025   1.302   0.584   0.331
  297SOL    HW1 1026   1.335   0.556   0.246
  297SOL    HW2 1027   1.209   0.564   0.328
  298SOL     OW 1028   2.748   0.211   2.488
  298SOL    HW1 1029   2.842   0.209   2.468
  298SOL    HW2 1030   2.715   0.129   2.452
  299SOL     OW 1031   2.492   0.316   2.255
  299SOL    HW1 1032   2.535   0.231   2.262
  299SOL    HW2 1033   2.522   0.351   2.171
  300SOL     OW 1034   1.386   2.701   0.828
  300SOL    HW1 1035   1.463   2.727   0.878
  300SOL    HW2 1036   1.319   2.684   0.894
  301SOL     OW 1037   3.377   1.901   0.781
  301SOL    HW1 1038   3.447   1.865   0.727
  301SOL    HW2 1039   3.397   1.872   0.870
  302SOL     OW 1040   2.940   0.032   2.074
  302SOL    HW1 1041   2.878   0.064   2.009
  302SOL    HW2 1042   3.025   0.035   2.030
  303SOL     OW 1043   2.724   2.025   1.450
  303SOL    HW1 1044   2.777   1.949   1.473
  303SOL    HW2 1045   2.777   2.073   1.387
  304SOL     OW 1046   1.815   1.187   1.389
  304SOL    HW1 1047   1.880   1.203   1.457
  304SOL    HW2 1048   1.840   1.103   1.351
  305SOL     OW 1049   0.570   0.812   0.695
  305SOL    HW1 1050   0.594   0.894   0.739
  305SOL    HW2 1051   0.626   0.746   0.736
  306SOL     OW 1052   2.972   3.684   0.108
  306SOL    HW1 1053   3.025   3.679   0.187
  306SOL    HW2 1054   3.033   3.712   0.040
  307SOL     OW 1055   3.883   3.902   0.187
  307SOL    HW1 1056   3.927   3.919   0.270
  307SOL    HW2 1057   3.935   3.833   0.146
  308SOL     OW 1058   1.333   0.216   1.164
  308SOL    HW1 1059   1.356   0.289   1.222
  308SOL    HW2 1060   1.253   0.180   1.201
  309SOL     OW 1061   2.683   1.620   3.406
  309SOL    HW1 1062   2.761   1.566   3.417
  309SOL    HW2 1063   2.676   1.670   3.488
  310SOL     OW 1064   0.603   0.788   3.649
  310SOL    HW1 1065   0.523   0.818   3.692
  310SOL    HW2 1066   0.629   0.861   3.592
  311SOL     OW 1067   2.149   0.699   3.653
  311SOL    HW1 1068   2.105   0.708   3.737
  311SOL    HW2 1069   2.082   0.716   3.587
  312SOL     OW 1070   1.922   1.294   3.132
  312SOL    HW1 1071   1.854   1.336   3.079
  312SOL    HW2 1072   1.998   1.351   3.124
  313SOL     OW 1073   1.993   2.655   2.826
  313SOL    HW1 1074   2.008   2.705   2.906
  313SOL    HW2 1075   1.900   2.631   2.830
  314SOL     OW 1076   3.140   0.029   1.879
  314SOL    HW1 1077   3.119   0.072   1.795
  314SOL    HW2 1078   3.228   0.060   1.901
  315SOL     OW 1079   0.801   2.305   2.834
  315SOL    HW1 1080   0.880   2.356   2.815
  315SOL    HW2 1081   0.785   2.320   2.927
  316SOL     OW 1082   0.916   1.843   2.483
  316SOL    HW1 1083   0.998   1.876   2.446
  316SOL    HW2 1084   0.928   1.850   2.578
  317SOL     OW 1085   0.853   2.880   2.437
  317SOL    HW1 1086   0.823   2.830   2.513
  317SOL    HW2 1087   0.885   2.813   2.376
  318SOL     OW 1088   0.283   0.369   2.587
  318SOL    HW1 1089   0.338   0.447   2.590
  318SOL    HW2 1090   0.341   0.300   2.555
  319SOL     OW 1091   3.602   3.671   3.753
  319SOL    HW1 1092   3.598   3.686   3.659
  319SOL    HW2 1093   3.619   3.577   3.762
  320SOL     OW 1094   2.486   1.508   1.958
  320SOL    HW1 1095   2.454   1.458   1.883
  320SOL    HW2 1096   2.543   1.575   1.919
  321SOL     OW 1097   1.740   1.886   0.142
  321SOL    HW1 1098   1.711   1.943   0.213
  321SOL    HW2 1099   1.825   1.920   0.117
  322SOL     OW 1100   1.795   1.332   2.191
  322SOL    HW1 1101   1.844   1.311   2.271
  322SOL    HW2 1102   1.718   1.276   2.195
  323SOL     OW 1103   3.278   2.792   2.007
  323SOL    HW1 1104   3.230   2.803   2.089
  323SOL    HW2 1105   3.370   2.796   2.032
  324SOL     OW 1106   0.942   2.092   0.442
  324SOL    HW1 1107   1.007   2.023   0.426
  324SOL    HW2 1108   0.858   2.052   0.419
  325SOL     OW 1109   2.266   1.948   0.288
  325SOL    HW1 1110   2.235   2.032   0.254
  325SOL    HW2 1111   2.198   1.885   0.264
  326SOL     OW 1112   3.471   3.459   1.973
  326SOL    HW1 1113   3.497   3.422   1.889
  326SOL    HW2 1114   3.390   3.414   1.995
  327SOL     OW 1115   2.383   3.865   1.248
  327SOL    HW1 1116   2.444   3.939   1.245
  327SOL    HW2 1117   2.436   3.791   1.275
  328SOL     OW 1118   2.800   1.642   3.174
  328SOL    HW1 1119   2.756   1.621   3.091
  328SOL    HW2 1120   2.731   1.635   3.240
  329SOL     OW 1121   1.294   3.221   2.707
  329SOL    HW1 1122   1.211   3.257   2.675
  329SOL    HW2 1123   1.283   3.126   2.702
  330SOL     OW 1124   0.232   3.770   3.439
  330SOL    HW1 1125   0.245   3.863   3.422
  330SOL    HW2 1126   0.169   3.767   3.511
  331SOL     OW 1127   3.629   0.385   3.055
  331SOL    HW1 1128   3.674   0.374   3.139
  331SOL    HW2 1129   3.576   0.306   3.045
  332SOL     OW 1130   2.060   0.306   2.685
  332SOL    HW1 1131   2.060   0.380   2.623
  332SOL    HW2 1132   2.149   0.307   2.722
  333SOL     OW 1133   1.417   3.417   0.823
  333SOL    HW1 1134   1.508   3.391   0.836
  333SOL    HW2 1135   1.387   3.443   0.910
  334SOL     OW 1136   3.430   0.463   0.993
  334SOL    HW1 1137   3.391   0.511   1.066
  334SOL    HW2 1138   3.524   0.475   1.003
  335SOL     OW 1139   3.120   0.733   3.586
  335SOL    HW1 1140   3.191   0.793   3.563
  335SOL    HW2 1141   3.151   0.647   3.558
  336SOL     OW 1142   1.989   3.182   1.642
  336SOL    HW1 1143   2.034   3.098   1.642
  336SOL    HW2 1144   1.957   3.192   1.552
  337SOL     OW 1145   1.730   2.593   2.903
  337SOL    HW1 1146   1.649   2.626   2.944
  337SOL    HW2 1147   1.714   2.499   2.893
  338SOL     OW 1148   3.124   2.410   1.903
  338SOL    HW1 1149   3.050   2.353   1.923
  338SOL    HW2 1150   3.129   2.410   1.808
  339SOL     OW 1151   0.393   0.869   3.809
  339SOL    HW1 1152   0.396   0.796   3.870
  339SOL    HW2 1153   0.306   0.865   3.770
  340SOL     OW 1154   3.228   1.688   1.091
  340SOL    HW1 1155   3.267   1.736   1.163
  340SOL    HW2 1156   3.175   1.620   1.132
  341SOL     OW 1157   0.181   2.077   3.628
  341SOL    HW1 1158   0.273   2.088   3.648
  341SOL    HW2 1159   0.140   2.058   3.712
  342SOL     OW 1160   0.121   1.154   2.796
  342SOL    HW1 1161   0.067   1.232   2.808
  342SOL    HW2 1162   0.202   1.188   2.757
  343SOL     OW 1163   2.554   1.034   3.199
  343SOL    HW1 1164   2.580   0.944   3.182
  343SOL    HW2 1165   2.532   1.069   3.112
  344SOL     OW 1166   0.155   2.623   2.836
  344SOL    HW1 1167   0.235   2.583   2.803
  344SOL    HW2 1168   0.185   2.684   2.904
  345SOL     OW 1169   3.402   3.265   3.517
  345SOL    HW1 1170   3.366   3.307   3.595
  345SOL    HW2 1171   3.493   3.295   3.513
  346SOL     OW 1172   0.840   1.294   0.089
  346SOL    HW1 1173   0.793   1.263   0.011
  346SOL    HW2 1174   0.932   1.297   0.061
  347SOL     OW 1175   0.519   3.633   0.702
  347SOL    HW1 1176   0.573   3.570   0.751
  347SOL    HW2 1177   0.433   3.591   0.695
  348SOL     OW 1178   3.027   3.173   3.891
  348SOL    HW1 1179   2.951   3.115   3.884
  348SOL    HW2 1180   3.020   3.230   3.814
  349SOL     OW 1181   2.062   1.821   0.690
  349SOL    HW1 1182   2.102   1.881   0.752
  349SOL    HW2 1183   2.021   1.878   0.624
  350SOL     OW 1184   0.869   2.426   2.319
  350SOL    HW1 1185   0.811   2.450   2.392
  350SOL    HW2 1186   0.919   2.352   2.353
  351SOL     OW 1187   1.282   1.064   2.989
  351SOL    HW1 1188   1.343   1.051   3.062
  351SOL    HW2 1189   1.322   1.133   2.936
  352SOL     OW 1190   3.540   1.744   2.644
  352SOL    HW1 1191   3.488   1.789   2.710
  352SOL    HW2 1192   3.486   1.669   2.618
  353SOL     OW 1193   2.201   0.874   1.565
  353SOL    HW1 1194   2.253   0.835   1.635
  353SOL    HW2 1195   2.115   0.888   1.603
  354SOL     OW 1196   3.148   1.803   1.817
  354SOL    HW1 1197   3.060   1.805   1.854
  354SOL    HW2 1198   3.148   1.729   1.757
  355SOL     OW 1199   3.644   2.629   1.149
  355SOL    HW1 1200   3.623   2.691   1.079
  355SOL    HW2 1201   3.738   2.613   1.140
  356SOL     OW 1202   1.454   1.669   1.811
  356SOL    HW1 1203   1.513   1.638   1.879
  356SOL    HW2 1204   1.482   1.622   1.732
  357SOL     OW 1205   1.201   1.018   2.032
  357SOL    HW1 1206   1.140   1.091   2.040
  357SOL    HW2 1207   1.256   1.023   2.110
  358SOL     OW 1208   0.744   1.165   3.257
  358SOL    HW1 1209   0.770   1.073   3.249
  358SOL    HW2 1210   0.819   1.213   3.221
  359SOL     OW 1211   3.401   0.116   1.849
  359SOL    HW1 1212   3.465   0.051   1.820
  359SOL    HW2 1213   3.451   0.173   1.907
  360SOL     OW 1214   1.307   0.375   0.734
  360SOL    HW1 1215   1.271   0.462   0.754
  360SOL    HW2 1216   1.376   0.391   0.670
  361SOL     OW 1217   2.392   3.950   0.167
  361SOL    HW1 1218   2.386   3.958   0.262
  361SOL    HW2 1219   2.479   3.913   0.151
  362SOL     OW 1220   1.466   0.202   0.915
  362SOL    HW1 1221   1.434   0.203   1.006
  362SOL    HW2 1222   1.401   0.253   0.867
  363SOL     OW 1223   1.731   2.319   2.869
  363SOL    HW1 1224   1.733   2.257   2.941
  363SOL    HW2 1225   1.790   2.281   2.803
  364SOL     OW 1226   0.389   1.205   3.020
  364SOL    HW1 1227   0.454   1.153   2.973
  364SOL    HW2 1228   0.391   1.291   2.977
  365SOL     OW 1229   3.047   3.610   2.138
  365SOL    HW1 1230   3.137   3.584   2.160
  365SOL    HW2 1231   2.993   3.562   2.201
  366SOL     OW 1232   2.364   1.407   1.754
  366SOL    HW1 1233   2.353   1.327   1.805
  366SOL    HW2 1234   2.382   1.377   1.665
  367SOL     OW 1235   3.950   3.215   0.035
  367SOL    HW1 1236   3.916   3.129   0.009
  367SOL    HW2 1237   3.980   3.202   0.125
  368SOL     OW 1238   3.099   3.811   1.298
  368SOL    HW1 1239   3.079   3.895   1.254
  368SOL    HW2 1240   3.095   3.832   1.391
  369SOL     OW 1241   1.118   0.528   1.375
  369SOL    HW1 1242   1.043   0.489   1.331
  369SOL    HW2 1243   1.181   0.457   1.382
  370SOL     OW 1244   1.188   0.376   1.824
  370SOL    HW1 1245   1.178   0.280   1.820
  370SOL    HW2 1246   1.262   0.390   1.883
  371SOL     OW 1247   0.930   1.579   1.862
  371SOL    HW1 1248   0.969   1.636   1.796
  371SOL    HW2 1249   0.951   1.621   1.945
  372SOL     OW 1250   3.480   0.813   0.624
  372SOL    HW1 1251   3.461   0.906   0.612
  372SOL    HW2 1252   3.530   0.789   0.547
  373SOL     OW 1253   3.626   2.593   1.685
  373SOL    HW1 1254   3.557   2.658   1.669
  373SOL    HW2 1255   3.623   2.577   1.779
  374SOL     OW 1256   1.956   2.693   1.671
  374SOL    HW1 1257   1.881   2.750   1.692
  374SOL    HW2 1258   1.918   2.623   1.617
  375SOL     OW 1259   1.091   1.877   3.829
  375SOL    HW1 1260   1.087   1.782   3.820
  375SOL    HW2 1261   1.026   1.897   3.897
  376SOL     OW 1262   2.540   1.547   1.075
  376SOL    HW1 1263   2.559   1.497   0.996
  376SOL    HW2 1264   2.531   1.481   1.144
  377SOL     OW 1265   1.973   0.513   0.841
  377SOL    HW1 1266   2.023   0.594   0.852
  377SOL    HW2 1267   1.992   0.485   0.752
  378SOL     OW 1268   2.878   2.262   2.521
  378SOL    HW1 1269   2.786   2.254   2.496
  378SOL    HW2 1270   2.885   2.350   2.559
  379SOL     OW 1271   0.661   3.890   0.084
  379SOL    HW1 1272   0.680   3.833   0.158
  379SOL    HW2 1273   0.736   3.878   0.025
  380SOL     OW 1274   2.811   0.570   0.505
  380SOL    HW1 1275   2.821   0.657   0.543
  380SOL    HW2 1276   2.830   0.582   0.412
  381SOL     OW 1277   0.796   1.579   1.394
  381SOL    HW1 1278   0.778   1.657   1.341
  381SOL    HW2 1279   0.710   1.541   1.410
  382SOL     OW 1280   2.989   3.451   1.906
  382SOL    HW1 1281   3.021   3.528   1.860
  382SOL    HW2 1282   2.973   3.481   1.996
  383SOL     OW 1283   1.762   0.709   0.778
  383SOL    HW1 1284   1.745   0.774   0.846
  383SOL    HW2 1285   1.803   0.636   0.824
  384SOL     OW 1286   3.519   0.130   3.007
  384SOL    HW1 1287   3.424   0.119   3.002
  384SOL    HW2 1288   3.549   0.125   2.916
  385SOL     OW 1289   3.689   0.679   1.628
  385SOL    HW1 1290   3.676   0.756   1.683
  385SOL    HW2 1291   3.754   0.705   1.563
  386SOL     OW 1292   3.432   3.152   2.808
  386SOL    HW1 1293   3.471   3.238   2.823
  386SOL    HW2 1294   3.495   3.107   2.751
  387SOL     OW 1295   3.834   1.201   0.521
  387SOL    HW1 1296   3.878   1.178   0.602
  387SOL    HW2 1297   3.897   1.181   0.452
  388SOL     OW 1298   2.419  -0.001   3.664
  388SOL    HW1 1299   2.512   0.023   3.665
  388SOL    HW2 1300   2.397  -0.013   3.757
  389SOL     OW 1301   1.046   2.722   2.909
  389SOL    HW1 1302   1.027   2.766   2.992
  389SOL    HW2 1303   0.968   2.737   2.856
  390SOL     OW 1304   2.199   1.596   0.601
  390SOL    HW1 1305   2.144   1.674   0.606
  390SOL    HW2 1306   2.204   1.565   0.692
  391SOL     OW 1307   2.327   0.347   3.877
  391SOL    HW1 1308   2.333   0.438   3.849
  391SOL    HW2 1309   2.276   0.304   3.808
  392SOL     OW 1310   0.174   3.608   2.304
  392SOL    HW1 1311   0.208   3.673   2.365
  392SOL    HW2 1312   0.086   3.639   2.282
  393SOL     OW 1313   0.571   0.631   1.815
  393SOL    HW1 1314   0.601   0.547   1.781
  393SOL    HW2 1315   0.623   0.696   1.767
  394SOL     OW 1316   0.529   1.233   0.195
  394SOL    HW1 1317   0.481   1.226   0.113
  394SOL    HW2 1318   0.601   1.170   0.187
  395SOL     OW 1319   2.379   1.893   3.372
  395SOL    HW1 1320   2.402   1.806   3.404
  395SOL    HW2 1321   2.390   1.888   3.277
  396SOL     OW 1322   3.624   3.900   1.816
  396SOL    HW1 1323   3.686   3.969   1.794
  396SOL    HW2 1324   3.676   3.836   1.865
  397SOL     OW 1325   0.865   3.872   3.825
  397SOL    HW1 1326   0.801   3.887   3.754
  397SOL    HW2 1327   0.872   3.777   3.831
  398SOL     OW 1328   0.689   0.056   3.654
  398SOL    HW1 1329   0.620   0.101   3.701
  398SOL    HW2 1330   0.650   0.034   3.569
  399SOL     OW 1331   2.056   0.942   2.685
  399SOL    HW1 1332   1.968   0.963   2.717
  399SOL    HW2 1333   2.055   0.847   2.672
  400SOL     OW 1334   1.416   3.642   1.429
  400SOL    HW1 1335   1.367   3.674   1.353
  400SOL    HW2 1336   1.366   3.567   1.460
  401SOL     OW 1337   3.780   3.562   1.584
  401SOL    HW1 1338   3.717   3.494   1.562
  401SOL    HW2 1339   3.852   3.516   1.626
  402SOL     OW 1340   0.492   1.116   2.433
  402SOL    HW1 1341   0.422   1.180   2.434
  402SOL    HW2 1342   0.512   1.103   2.340
  403SOL     OW 1343   0.068   0.897   2.807
  403SOL    HW1 1344  -0.024   0.912   2.784
  403SOL    HW2 1345   0.108   0.984   2.807
  404SOL     OW 1346   2.293   2.027   1.080
  404SOL    HW1 1347   2.289   2.014   0.986
  404SOL    HW2 1348   2.357   2.097   1.091
  405SOL     OW 1349   3.653   2.859   0.936
  405SOL    HW1 1350   3.716   2.801   0.893
  405SOL    HW2 1351   3.623   2.918   0.867
  406SOL     OW 1352   2.277   3.387   2.083
  406SOL    HW1 1353   2.353   3.425   2.038
  406SOL    HW2 1354   2.255   3.450   2.151
  407SOL     OW 1355   3.229   1.826   2.064
  407SOL    HW1 1356   3.229   1.816   1.969
  407SOL    HW2 1357   3.162   1.764   2.095
  408SOL     OW 1358   3.230   2.895   3.167
  408SOL    HW1 1359   3.211   2.858   3.081
  408SOL    HW2 1360   3.323   2.916   3.164
  409SOL     OW 1361   1.613   2.048   2.465
  409SOL    HW1 1362   1.657   2.034   2.382
  409SOL    HW2 1363   1.644   2.134   2.495
  410SOL     OW 1364   3.726   3.212   1.761
  410SOL    HW1 1365   3.651   3.266   1.785
  410SOL    HW2 1366   3.687   3.131   1.727
  411SOL     OW 1367   0.594   1.609   2.141
  411SOL    HW1 1368   0.667   1.653   2.187
  411SOL    HW2 1369   0.544   1.681   2.102
  412SOL     OW 1370   1.779   3.406   2.968
  412SOL    HW1 1371   1.822   3.472   3.022
  412SOL    HW2 1372   1.744   3.455   2.894
  413SOL     OW 1373   0.775   0.915   2.922
  413SOL    HW1 1374   0.861   0.953   2.937
  413SOL    HW2 1375   0.760   0.858   2.998
  414SOL     OW 1376   2.665   0.674   2.267
  414SOL    HW1 1377   2.721   0.600   2.289
  414SOL    HW2 1378   2.673   0.734   2.341
  415SOL     OW 1379   1.645   1.459   3.383
  415SOL    HW1 1380   1.657   1.489   3.473
  415SOL    HW2 1381   1.657   1.538   3.330
  416SOL     OW 1382   2.651   1.296   2.493
  416SOL    HW1 1383   2.650   1.390   2.509
  416SOL    HW2 1384   2.628   1.257   2.577
  417SOL     OW 1385   3.368   3.214   3.215
  417SOL    HW1 1386   3.364   3.303   3.181
  417SOL    HW2 1387   3.354   3.224   3.310
  418SOL     OW 1388   3.251   0.669   1.451
  418SOL    HW1 1389   3.160   0.690   1.428
  418SOL    HW2 1390   3.243   0.599   1.516
  419SOL     OW 1391   0.326   3.029   3.810
  419SOL    HW1 1392   0.342   3.098   3.746
  419SOL    HW2 1393   0.413   3.010   3.846
  420SOL     OW 1394   3.211   1.315   0.412
  420SOL    HW1 1395   3.215   1.360   0.496
  420SOL    HW2 1396   3.248   1.378   0.350
  421SOL     OW 1397   1.056   0.106   3.931
  421SOL    HW1 1398   0.992   0.051   3.885
  421SOL    HW2 1399   1.129   0.046   3.950
  422SOL     OW 1400   2.622   2.111   3.736
  422SOL    HW1 1401   2.571   2.097   3.657
  422SOL    HW2 1402   2.609   2.203   3.757
  423SOL     OW 1403   2.042   0.078   0.766
  423SOL    HW1 1404   2.059   0.169   0.742
  423SOL    HW2 1405   2.040   0.078   0.862
  424SOL     OW 1406   1.676   0.465   0.038
  424SOL    HW1 1407   1.638   0.438  -0.046
  424SOL    HW2 1408   1.628   0.543   0.063
  425SOL     OW 1409   2.604   1.958   0.047
  425SOL    HW1 1410   2.518   1.991   0.019
  425SOL    HW2 1411   2.665   2.028   0.023
  426SOL     OW 1412   2.024   3.412   1.444
  426SOL    HW1 1413   2.061   3.499   1.435
  426SOL    HW2 1414   1.942   3.424   1.492
  427SOL     OW 1415   2.096   0.275   1.891
  427SOL    HW1 1416   2.033   0.276   1.964
  427SOL    HW2 1417   2.142   0.192   1.900
  428SOL     OW 1418   3.074   1.092   1.522
  428SOL    HW1 1419   3.147   1.031   1.528
  428SOL    HW2 1420   3.050   1.110   1.613
  429SOL     OW 1421   3.661   2.188   2.718
  429SOL    HW1 1422   3.743   2.208   2.764
  429SOL    HW2 1423   3.611   2.270   2.723
  430SOL     OW 1424   3.867   3.070   1.531
  430SOL    HW1 1425   3.860   3.085   1.436
  430SOL    HW2 1426   3.778   3.084   1.563
  431SOL     OW 1427   1.847   1.905   2.613
  431SOL    HW1 1428   1.905   1.912   2.537
  431SOL    HW2 1429   1.761   1.927   2.579
  432SOL     OW 1430   1.124   1.121   0.447
  432SOL    HW1 1431   1.114   1.026   0.447
  432SOL    HW2 1432   1.037   1.155   0.425
  433SOL     OW 1433   1.491   1.181   1.934
  433SOL    HW1 1434   1.446   1.254   1.977
  433SOL    HW2 1435   1.533   1.134   2.006
  434SOL     OW 1436   2.357   2.216   2.394
  434SOL    HW1 1437   2.278   2.232   2.342
  434SOL    HW2 1438   2.326   2.168   2.471
  435SOL     OW 1439   1.287   0.973   3.616
  435SOL    HW1 1440   1.202   1.017   3.616
  435SOL    HW2 1441   1.350   1.042   3.640
  436SOL     OW 1442   1.119   0.096   1.779
  436SOL    HW1 1443   1.192   0.039   1.806
  436SOL    HW2 1444   1.058   0.038   1.734
  437SOL     OW 1445   0.862   0.543   3.101
  437SOL    HW1 1446   0.807   0.525   3.025
  437SOL    HW2 1447   0.848   0.467   3.158
  438SOL     OW 1448   3.906   2.221   2.951
  438SOL    HW1 1449   3.960   2.294   2.983
  438SOL    HW2 1450   3.958   2.143   2.970
  439SOL     OW 1451   0.436  -0.017   3.908
  439SOL    HW1 1452   0.380   0.061   3.915
  439SOL    HW2 1453   0.495  -0.011   3.982
  440SOL     OW 1454   0.675   0.338   1.429
  440SOL    HW1 1455   0.716   0.388   1.499
  440SOL    HW2 1456   0.610   0.397   1.392
  441SOL     OW 1457   1.852   2.515   1.500
  441SOL    HW1 1458   1.849   2.423   1.473
  441SOL    HW2 1459   1.818   2.563   1.424
  442SOL     OW 1460   3.382   3.275   1.041
  442SOL    HW1 1461   3.376   3.186   1.006
  442SOL    HW2 1462   3.303   3.319   1.008
  443SOL     OW 1463   2.931   0.889   1.871
  443SOL    HW1 1464   2.933   0.984   1.886
  443SOL    HW2 1465   2.858   0.876   1.810
  444SOL     OW 1466   3.555   1.776   0.635
  444SOL    HW1 1467   3.495   1.709   0.604
  444SOL    HW2 1468   3.640   1.752   0.598
  445SOL     OW 1469   0.770   2.162   1.610
  445SOL    HW1 1470   0.684   2.133   1.581
  445SOL    HW2 1471   0.821   2.168   1.529
  446SOL     OW 1472   1.937   3.847   3.328
  446SOL    HW1 1473   1.964   3.939   3.324
  446SOL    HW2 1474   1.889   3.832   3.246
  447SOL     OW 1475   1.679   0.158   3.067
  447SOL    HW1 1476   1.675   0.166   3.162
  447SOL    HW2 1477   1.633   0.235   3.034
  448SOL     OW 1478   2.613   3.795   0.864
  448SOL    HW1 1479   2.693   3.817   0.817
  448SOL    HW2 1480   2.642   3.732   0.931
  449SOL     OW 1481   1.676   1.343   0.478
  449SOL    HW1 1482   1.661   1.266   0.423
  449SOL    HW2 1483   1.714   1.308   0.558
  450SOL     OW 1484   2.869   3.834   0.749
  450SOL    HW1 1485   2.922   3.755   0.733
  450SOL    HW2 1486   2.849   3.867   0.662
  451SOL     OW 1487   0.478   3.344   1.351
  451SOL    HW1 1488   0.434   3.423   1.383
  451SOL    HW2 1489   0.563   3.344   1.395
  452SOL     OW 1490   1.424   2.808   0.551
  452SOL    HW1 1491   1.363   2.881   0.537
  452SOL    HW2 1492   1.421   2.792   0.645
  453SOL     OW 1493   1.793   1.626   2.700
  453SOL    HW1 1494   1.744   1.698   2.661
  453SOL    HW2 1495   1.876   1.625   2.654
  454SOL     OW 1496   1.090   2.535   0.332
  454SOL    HW1 1497   1.118   2.471   0.267
  454SOL    HW2 1498   1.121   2.500   0.416
  455SOL     OW 1499   3.111   2.282   0.475
  455SOL    HW1 1500   3.137   2.261   0.565
  455SOL    HW2 1501   3.048   2.353   0.486
  456SOL     OW 1502   0.588   2.392   3.637
  456SOL    HW1 1503   0.601   2.481   3.603
  456SOL    HW2 1504   0.590   2.403   3.732
  457SOL     OW 1505   2.039   0.324   2.947
  457SOL    HW1 1506   2.056   0.271   2.868
  457SOL    HW2 1507   1.950   0.356   2.936
  458SOL     OW 1508   2.496   1.597   2.749
  458SOL    HW1 1509   2.463   1.513   2.717
  458SOL    HW2 1510   2.535   1.639   2.672
  459SOL     OW 1511   2.174   2.167   0.175
  459SOL    HW1 1512   2.080   2.172   0.156
  459SOL    HW2 1513   2.216   2.207   0.099
  460SOL     OW 1514   2.866   0.230   1.387
  460SOL    HW1 1515   2.905   0.311   1.420
  460SOL    HW2 1516   2.872   0.238   1.292
  461SOL     OW 1517   3.556   2.854   1.462
  461SOL    HW1 1518   3.536   2.895   1.378
  461SOL    HW2 1519   3.600   2.772   1.439
  462SOL     OW 1520   2.922   2.019  -0.008
  462SOL    HW1 1521   2.933   1.929  -0.040
  462SOL    HW2 1522   2.966   2.019   0.077
  463SOL     OW 1523   2.734   2.420   1.473
  463SOL    HW1 1524   2.739   2.433   1.567
  463SOL    HW2 1525   2.655   2.367   1.460
  464SOL     OW 1526   3.287   1.217   0.953
  464SOL    HW1 1527   3.208   1.196   1.003
  464SOL    HW2 1528   3.301   1.142   0.896
  465SOL     OW 1529   1.454   2.795   1.447
  465SOL    HW1 1530   1.366   2.819   1.472
  465SOL    HW2 1531   1.501   2.878   1.437
  466SOL     OW 1532   0.179   2.560   0.851
  466SOL    HW1 1533   0.177   2.492   0.783
  466SOL    HW2 1534   0.232   2.630   0.814
  467SOL     OW 1535   2.694   0.173   3.007
  467SOL    HW1 1536   2.749   0.114   2.955
  467SOL    HW2 1537   2.687   0.130   3.093
  468SOL     OW 1538   3.522   2.138   0.716
  468SOL    HW1 1539   3.485   2.050   0.711
  468SOL    HW2 1540   3.496   2.171   0.802
  469SOL     OW 1541   0.941   2.476   1.890
  469SOL    HW1 1542   0.984   2.558   1.865
  469SOL    HW2 1543   1.013   2.415   1.906
  470SOL     OW 1544   3.842   1.471   3.538
  470SOL    HW1 1545   3.901   1.471   3.614
  470SOL    HW2 1546   3.897   1.442   3.465
  471SOL     OW 1547   0.091   3.271   0.295
  471SOL    HW1 1548   0.090   3.177   0.311
  471SOL    HW2 1549   0.019   3.306   0.348
  472SOL     OW 1550   2.341   3.203   0.085
  472SOL    HW1 1551   2.246   3.214   0.091
  472SOL    HW2 1552   2.354   3.154   0.004
  473SOL     OW 1553   3.794   3.365   3.866
  473SOL    HW1 1554   3.711   3.341   3.908
  473SOL    HW2 1555   3.859   3.311   3.911
  474SOL     OW 1556   0.861   3.254   0.700
  474SOL    HW1 1557   0.916   3.332   0.705
  474SOL    HW2 1558   0.862   3.229   0.608
  475SOL     OW 1559   3.437   1.530   0.486
  475SOL    HW1 1560   3.427   1.502   0.396
  475SOL    HW2 1561   3.520   1.492   0.514
  476SOL     OW 1562   1.985   3.917   1.489
  476SOL    HW1 1563   1.919   3.881   1.549
  476SOL    HW2 1564   2.002   4.005   1.524
  477SOL     OW 1565   3.363   2.712   1.666
  477SOL    HW1 1566   3.379   2.795   1.622
  477SOL    HW2 1567   3.267   2.707   1.674
  478SOL     OW 1568   1.650   0.611   3.509
  478SOL    HW1 1569   1.681   0.524   3.484
  478SOL    HW2 1570   1.600   0.596   3.589
  479SOL     OW 1571   0.110   2.420   3.015
  479SOL    HW1 1572   0.131   2.505   2.975
  479SOL    HW2 1573   0.185   2.402   3.072
  480SOL     OW 1574   0.622   3.384   0.775
  480SOL    HW1 1575   0.574   3.322   0.830
  480SOL    HW2 1576   0.694   3.334   0.738
  481SOL     OW 1577   3.712   2.107   1.149
  481SOL    HW1 1578   3.787   2.166   1.146
  481SOL    HW2 1579   3.636   2.166   1.148
  482SOL     OW 1580   2.935   2.207   1.938
  482SOL    HW1 1581   2.939   2.172   1.849
  482SOL    HW2 1582   2.845   2.191   1.966
  483SOL     OW 1583   0.378   0.152   0.238
  483SOL    HW1 1584   0.328   0.170   0.158
  483SOL    HW2 1585   0.381   0.236   0.284
  484SOL     OW 1586   2.817   3.553   2.795
  484SOL    HW1 1587   2.851   3.635   2.832
  484SOL    HW2 1588   2.864   3.484   2.842
  485SOL     OW 1589   1.323   2.304   0.342
  485SOL    HW1 1590   1.402   2.300   0.396
  485SOL    HW2 1591   1.252   2.321   0.405
  486SOL     OW 1592   1.945   1.306   1.861
  486SOL    HW1 1593   1.930   1.224   1.907
  486SOL    HW2 1594   1.858   1.347   1.855
  487SOL     OW 1595   2.656   2.645   0.390
  487SOL    HW1 1596   2.683   2.653   0.481
  487SOL    HW2 1597   2.680   2.729   0.351
  488SOL     OW 1598   1.493   0.663   3.745
  488SOL    HW1 1599   1.412   0.708   3.769
  488SOL    HW2 1600   1.493   0.584   3.799
  489SOL     OW 1601   1.733   1.412   3.934
  489SOL    HW1 1602   1.778   1.474   3.992
  489SOL    HW2 1603   1.790   1.335   3.932
  490SOL     OW 1604   1.771   2.656   1.276
  490SOL    HW1 1605   1.695   2.704   1.245
  490SOL    HW2 1606   1.846   2.704   1.241
  491SOL     OW 1607   2.111   1.242   0.657
  491SOL    HW1 1608   2.055   1.218   0.584
  491SOL    HW2 1609   2.152   1.160   0.684
  492SOL     OW 1610   2.362   0.566   1.586
  492SOL    HW1 1611   2.352   0.556   1.681
  492SOL    HW2 1612   2.437   0.625   1.576
  493SOL     OW 1613   2.778   0.820   0.893
  493SOL    HW1 1614   2.797   0.896   0.947
  493SOL    HW2 1615   2.807   0.745   0.946
  494SOL     OW 1616   3.829   2.174   0.500
  494SOL    HW1 1617   3.819   2.209   0.411
  494SOL    HW2 1618   3.739   2.157   0.528
  495SOL     OW 1619   3.105   0.919   0.813
  495SOL    HW1 1620   3.090   0.843   0.868
  495SOL    HW2 1621   3.086   0.994   0.869
  496SOL     OW 1622   1.734   2.308   2.529
  496SOL    HW1 1623   1.764   2.379   2.472
  496SOL    HW2 1624   1.813   2.280   2.575
  497SOL     OW 1625   3.466   2.495   3.258
  497SOL    HW1 1626   3.499   2.428   3.197
  497SOL    HW2 1627   3.534   2.561   3.261
  498SOL     OW 1628   2.038   3.879   0.510
  498SOL    HW1 1629   2.062   3.902   0.421
  498SOL    HW2 1630   2.107   3.918   0.564
  499SOL     OW 1631   1.300   2.075   2.828
  499SOL    HW1 1632   1.254   2.114   2.903
  499SOL    HW2 1633   1.300   2.143   2.762
  500SOL     OW 1634   0.107   1.945   2.776
  500SOL    HW1 1635   0.125   1.941   2.870
  500SOL    HW2 1636   0.023   1.989   2.769
  501SOL     OW 1637   1.321   0.813   0.628
  501SOL    HW1 1638   1.402   0.802   0.577
  501SOL    HW2 1639   1.308   0.728   0.670
  502SOL     OW 1640   1.543   0.054   1.258
  502SOL    HW1 1641   1.498   0.020   1.335
  502SOL    HW2 1642   1.482   0.115   1.218
  503SOL     OW 1643   2.848   3.862   0.449
  503SOL    HW1 1644   2.763   3.832   0.480
  503SOL    HW2 1645   2.832   3.952   0.421
  504SOL     OW 1646   1.236   2.170   3.270
  504SOL    HW1 1647   1.201   2.097   3.320
  504SOL    HW2 1648   1.174   2.181   3.197
  505SOL     OW 1649   1.821   0.966   0.665
  505SOL    HW1 1650   1.774   0.883   0.676
  505SOL    HW2 1651   1.901   0.955   0.716
  506SOL     OW 1652   3.796   1.696   0.438
  506SOL    HW1 1653   3.890   1.700   0.456
  506SOL    HW2 1654   3.773   1.604   0.452
  507SOL     OW 1655   3.917   0.746   1.427
  507SOL    HW1 1656   3.933   0.676   1.364
  507SOL    HW2 1657   3.902   0.823   1.373
  508SOL     OW 1658   1.475   0.155   1.712
  508SOL    HW1 1659   1.428   0.149   1.796
  508SOL    HW2 1660   1.541   0.222   1.727
  509SOL     OW 1661   2.465   1.701   2.323
  509SOL    HW1 1662   2.490   1.788   2.355
  509SOL    HW2 1663   2.378   1.686   2.359
  510SOL     OW 1664   1.253   3.943   3.549
  510SOL    HW1 1665   1.315   3.929   3.478
  510SOL    HW2 1666   1.263   3.866   3.605
  511SOL     OW 1667   2.552   3.284   2.973
  511SOL    HW1 1668   2.543   3.232   3.053
  511SOL    HW2 1669   2.565   3.219   2.904
  512SOL     OW 1670   3.813   1.863   1.157
  512SOL    HW1 1671   3.763   1.943   1.174
  512SOL    HW2 1672   3.900   1.894   1.133
  513SOL     OW 1673   0.931   3.586   3.891
  513SOL    HW1 1674   0.914   3.544   3.975
  513SOL    HW2 1675   0.983   3.523   3.842
  514SOL     OW 1676   1.231   0.501   2.765
  514SOL    HW1 1677   1.265   0.549   2.841
  514SOL    HW2 1678   1.213   0.569   2.701
  515SOL     OW 1679   0.386   2.922   3.567
  515SOL    HW1 1680   0.464   2.895   3.615
  515SOL    HW2 1681   0.371   2.852   3.503
  516SOL     OW 1682   2.932   2.161   3.725
  516SOL    HW1 1683   2.923   2.125   3.814
  516SOL    HW2 1684   2.844   2.191   3.703
  517SOL     OW 1685   3.508   1.891   2.062
  517SOL    HW1 1686   3.591   1.844   2.065
  517SOL    HW2 1687   3.443   1.825   2.039
  518SOL     OW 1688   2.453   0.062   0.709
  518SOL    HW1 1689   2.496  -0.012   0.751
  518SOL    HW2 1690   2.461   0.134   0.772
  519SOL     OW 1691   1.766   2.663   2.336
  519SOL    HW1 1692   1.843   2.607   2.341
  519SOL    HW2 1693   1.796   2.748   2.370
  520SOL     OW 1694   0.354   3.737   1.203
  520SOL    HW1 1695   0.343   3.805   1.270
  520SOL    HW2 1696   0.345   3.655   1.250
  521SOL     OW 1697   0.102   0.192   2.702
  521SOL    HW1 1698   0.159   0.161   2.773
  521SOL    HW2 1699   0.141   0.275   2.674
  522SOL     OW 1700   1.000   3.303   2.786
  522SOL    HW1 1701   1.049   3.384   2.772
  522SOL    HW2 1702   0.912   3.332   2.812
  523SOL     OW 1703   1.323   0.590   3.009
  523SOL    HW1 1704   1.387   0.654   3.042
  523SOL    HW2 1705   1.245   0.604   3.062
  524SOL     OW 1706   1.118   1.948   2.331
  524SOL    HW1 1707   1.082   1.929   2.245
  524SOL    HW2 1708   1.206   1.912   2.329
  525SOL     OW 1709   2.176   2.498   0.595
  525SOL    HW1 1710   2.154   2.481   0.504
  525SOL    HW2 1711   2.195   2.592   0.598
  526SOL     OW 1712   0.109   2.431   0.169
  526SOL    HW1 1713   0.045   2.377   0.123
  526SOL    HW2 1714   0.120   2.508   0.113
  527SOL     OW 1715   0.691   3.782   2.017
  527SOL    HW1 1716   0.659   3.693   2.028
  527SOL    HW2 1717   0.681   3.822   2.103
  528SOL     OW 1718   2.993   0.022   3.878
  528SOL    HW1 1719   3.070   0.051   3.928
  528SOL    HW2 1720   3.030  -0.028   3.805
  529SOL     OW 1721   1.141   1.822   0.859
  529SOL    HW1 1722   1.209   1.777   0.809
  529SOL    HW2 1723   1.187   1.892   0.906
  530SOL     OW 1724   3.241   2.187   2.072
  530SOL    HW1 1725   3.231   2.279   2.093
  530SOL    HW2 1726   3.228   2.183   1.977
  531SOL     OW 1727   2.792   1.575   2.099
  531SOL    HW1 1728   2.725   1.514   2.129
  531SOL    HW2 1729   2.872   1.522   2.094
  532SOL     OW 1730   1.620   0.412   1.012
  532SOL    HW1 1731   1.568   0.334   0.990
  532SOL    HW2 1732   1.612   0.468   0.935
  533SOL     OW 1733   2.671   3.797   2.058
  533SOL    HW1 1734   2.678   3.818   1.965
  533SOL    HW2 1735   2.762   3.781   2.086
  534SOL     OW 1736   1.039   3.029   3.774
  534SOL    HW1 1737   1.076   3.074   3.698
  534SOL    HW2 1738   1.095   3.056   3.847
  535SOL     OW 1739   2.475   0.794   2.832
  535SOL    HW1 1740   2.534   0.760   2.764
  535SOL    HW2 1741   2.455   0.718   2.887
  536SOL     OW 1742   3.286   0.853   2.772
  536SOL    HW1 1743   3.298   0.890   2.860
  536SOL    HW2 1744   3.205   0.894   2.740
  537SOL     OW 1745   0.123   3.628   0.537
  537SOL    HW1 1746   0.201   3.683   0.529
  537SOL    HW2 1747   0.109   3.618   0.631
  538SOL     OW 1748   3.880   3.238   3.437
  538SOL    HW1 1749   3.917   3.294   3.368
  538SOL    HW2 1750   3.940   3.164   3.443
  539SOL     OW 1751   2.217   2.776   1.644
  539SOL    HW1 1752   2.134   2.732   1.628
  539SOL    HW2 1753   2.220   2.787   1.739
  540SOL     OW 1754   3.061   3.217   3.100
  540SOL    HW1 1755   3.140   3.195   3.148
  540SOL    HW2 1756   3.088   3.219   3.008
  541SOL     OW 1757   3.247   0.073   2.832
  541SOL    HW1 1758   3.234  -0.022   2.826
  541SOL    HW2 1759   3.195   0.100   2.908
  542SOL     OW 1760   1.060   2.372   2.800
  542SOL    HW1 1761   1.101   2.361   2.886
  542SOL    HW2 1762   1.132   2.361   2.738
  543SOL     OW 1763   3.916   0.245   1.501
  543SOL    HW1 1764   3.828   0.230   1.534
  543SOL    HW2 1765   3.942   0.330   1.538
  544SOL     OW 1766   3.270   0.406   1.922
  544SOL    HW1 1767   3.306   0.323   1.952
  544SOL    HW2 1768   3.337   0.443   1.865
  545SOL     OW 1769   2.390   2.964   3.054
  545SOL    HW1 1770   2.312   2.963   2.999
  545SOL    HW2 1771   2.383   2.884   3.107
  546SOL     OW 1772   0.771   2.578   3.152
  546SOL    HW1 1773   0.818   2.614   3.228
  546SOL    HW2 1774   0.764   2.484   3.171
  547SOL     OW 1775   0.168   2.032   2.265
  547SOL    HW1 1776   0.251   2.038   2.218
  547SOL    HW2 1777   0.101   2.041   2.198
  548SOL     OW 1778   2.111   2.431   1.315
  548SOL    HW1 1779   2.128   2.453   1.406
  548SOL    HW2 1780   2.110   2.335   1.314
  549SOL     OW 1781   2.629   0.100   1.312
  549SOL    HW1 1782   2.652   0.111   1.219
  549SOL    HW2 1783   2.713   0.104   1.357
  550SOL     OW 1784   1.905   3.393   3.649
  550SOL    HW1 1785   1.874   3.483   3.658
  550SOL    HW2 1786   1.971   3.397   3.580
  551SOL     OW 1787   2.035   3.576   1.114
  551SOL    HW1 1788   2.063   3.659   1.075
  551SOL    HW2 1789   2.051   3.588   1.208
  552SOL     OW 1790   1.504   3.711   1.685
  552SOL    HW1 1791   1.479   3.676   1.599
  552SOL    HW2 1792   1.465   3.649   1.748
  553SOL     OW 1793   2.980   2.017   2.572
  553SOL    HW1 1794   2.949   2.108   2.572
  553SOL    HW2 1795   2.974   1.990   2.663
  554SOL     OW 1796   2.556   2.522   2.716
  554SOL    HW1 1797   2.483   2.470   2.683
  554SOL    HW2 1798   2.585   2.476   2.795
  555SOL     OW 1799   1.763   2.092   3.675
  555SOL    HW1 1800   1.675   2.093   3.714
  555SOL    HW2 1801   1.792   2.183   3.679
  556SOL     OW 1802   0.176   3.294   1.064
  556SOL    HW1 1803   0.176   3.210   1.110
  556SOL    HW2 1804   0.127   3.353   1.122
  557SOL     OW 1805   2.223   2.312   3.841
  557SOL    HW1 1806   2.175   2.390   3.867
  557SOL    HW2 1807   2.272   2.340   3.763
  558SOL     OW 1808   2.733   3.483   0.039
  558SOL    HW1 1809   2.744   3.401   0.087
  558SOL    HW2 1810   2.818   3.527   0.046
  559SOL     OW 1811   0.039   0.547   0.983
  559SOL    HW1 1812   0.071   0.464   0.948
  559SOL    HW2 1813   0.016   0.599   0.906
  560SOL     OW 1814   3.910   1.502   0.742
  560SOL    HW1 1815   3.915   1.489   0.836
  560SOL    HW2 1816   3.989   1.459   0.708
  561SOL     OW 1817   1.647   3.296   1.658
  561SOL    HW1 1818   1.702   3.356   1.607
  561SOL    HW2 1819   1.575   3.274   1.598
  562SOL     OW 1820   2.006   0.354   2.312
  562SOL    HW1 1821   1.991   0.277   2.367
  562SOL    HW2 1822   2.098   0.346   2.285
  563SOL     OW 1823   1.821   1.052   3.303
  563SOL    HW1 1824   1.810   1.006   3.220
  563SOL    HW2 1825   1.867   1.133   3.280
  564SOL     OW 1826   2.057   0.776   0.671
  564SOL    HW1 1827   2.046   0.793   0.578
  564SOL    HW2 1828   2.112   0.697   0.674
  565SOL     OW 1829   0.393   0.684   0.061
  565SOL    HW1 1830   0.480   0.700   0.097
  565SOL    HW2 1831   0.351   0.626   0.125
  566SOL     OW 1832   1.264   1.719   0.615
  566SOL    HW1 1833   1.246   1.761   0.531
  566SOL    HW2 1834   1.320   1.645   0.594
  567SOL     OW 1835   2.307   3.230   2.791
  567SOL    HW1 1836   2.280   3.160   2.732
  567SOL    HW2 1837   2.362   3.287   2.737
  568SOL     OW 1838   2.846   2.677   1.392
  568SOL    HW1 1839   2.877   2.621   1.321
  568SOL    HW2 1840   2.783   2.624   1.439
  569SOL     OW 1841   0.877   2.322   0.011
  569SOL    HW1 1842   0.826   2.349   0.087
  569SOL    HW2 1843   0.964   2.305   0.045
  570SOL     OW 1844   1.420   2.889   3.676
  570SOL    HW1 1845   1.478   2.937   3.734
  570SOL    HW2 1846   1.477   2.830   3.628
  571SOL     OW 1847   1.835   0.746   1.923
  571SOL    HW1 1848   1.763   0.745   1.859
  571SOL    HW2 1849   1.862   0.654   1.928
  572SOL     OW 1850   2.682   1.203   2.082
  572SOL    HW1 1851   2.627   1.263   2.131
  572SOL    HW2 1852   2.699   1.130   2.142
  573SOL     OW 1853   2.488   3.315   2.547
  573SOL    HW1 1854   2.529   3.379   2.605
  573SOL    HW2 1855   2.549   3.241   2.547
  574SOL     OW 1856   3.091   2.490   2.260
  574SOL    HW1 1857   3.050   2.404   2.267
  574SOL    HW2 1858   3.179   2.473   2.225
  575SOL     OW 1859   1.092   3.070   3.486
  575SOL    HW1 1860   1.174   3.118   3.499
  575SOL    HW2 1861   1.043   3.123   3.423
  576SOL     OW 1862   3.095   3.729   1.867
  576SOL    HW1 1863   3.130   3.818   1.859
  576SOL    HW2 1864   3.078   3.718   1.961
  577SOL     OW 1865   2.287   1.668   1.599
  577SOL    HW1 1866   2.206   1.656   1.550
  577SOL    HW2 1867   2.299   1.586   1.647
  578SOL     OW 1868   2.289   2.329   1.128
  578SOL    HW1 1869   2.228   2.280   1.073
  578SOL    HW2 1870   2.236   2.395   1.171
  579SOL     OW 1871   3.125   2.796   3.420
  579SOL    HW1 1872   3.166   2.861   3.364
  579SOL    HW2 1873   3.159   2.712   3.390
  580SOL     OW 1874   2.226   1.522   2.079
  580SOL    HW1 1875   2.307   1.521   2.028
  580SOL    HW2 1876   2.209   1.429   2.098
  581SOL     OW 1877   2.996   1.720   3.683
  581SOL    HW1 1878   2.924   1.736   3.743
  581SOL    HW2 1879   3.075   1.738   3.734
  582SOL     OW 1880   3.842   3.930   3.246
  582SOL    HW1 1881   3.910   3.963   3.305
  582SOL    HW2 1882   3.890   3.885   3.177
  583SOL     OW 1883   0.985   2.474   1.538
  583SOL    HW1 1884   0.933   2.439   1.611
  583SOL    HW2 1885   0.946   2.436   1.460
  584SOL     OW 1886   0.347   2.470   2.717
  584SOL    HW1 1887   0.408   2.441   2.650
  584SOL    HW2 1888   0.305   2.390   2.749
  585SOL     OW 1889   1.605   2.070   0.290
  585SOL    HW1 1890   1.511   2.063   0.271
  585SOL    HW2 1891   1.612   2.139   0.355
  586SOL     OW 1892   0.872   3.972   0.748
  586SOL    HW1 1893   0.890   3.881   0.725
  586SOL    HW2 1894   0.958   4.012   0.760
  587SOL     OW 1895   1.436   1.696   3.398
  587SOL    HW1 1896   1.521   1.738   3.407
  587SOL    HW2 1897   1.402   1.690   3.487
  588SOL     OW 1898   1.558   0.227   0.392
  588SOL    HW1 1899   1.601   0.145   0.416
  588SOL    HW2 1900   1.475   0.225   0.439
  589SOL     OW 1901   3.590   3.018   1.646
  589SOL    HW1 1902   3.506   3.016   1.692
  589SOL    HW2 1903   3.582   2.951   1.579
  590SOL     OW 1904   1.758   1.655   1.509
  590SOL    HW1 1905   1.718   1.609   1.435
  590SOL    HW2 1906   1.695   1.724   1.531
  591SOL     OW 1907   2.038   1.742   3.832
  591SOL    HW1 1908   1.989   1.673   3.877
  591SOL    HW2 1909   2.100   1.695   3.777
  592SOL     OW 1910   0.998   3.469   1.556
  592SOL    HW1 1911   0.982   3.557   1.522
  592SOL    HW2 1912   1.076   3.438   1.510
  593SOL     OW 1913   0.551   0.006   2.944
  593SOL    HW1 1914   0.520   0.022   3.033
  593SOL    HW2 1915   0.527   0.084   2.895
  594SOL     OW 1916   3.688   1.104   3.788
  594SOL    HW1 1917   3.779   1.074   3.797
  594SOL    HW2 1918   3.693   1.199   3.799
  595SOL     OW 1919   2.298   0.512   1.856
  595SOL    HW1 1920   2.222   0.457   1.837
  595SOL    HW2 1921   2.355   0.458   1.910
  596SOL     OW 1922   1.622   3.075   1.101
  596SOL    HW1 1923   1.600   3.162   1.134
  596SOL    HW2 1924   1.713   3.082   1.072
  597SOL     OW 1925   0.263   0.322   3.084
  597SOL    HW1 1926   0.240   0.355   3.171
  597SOL    HW2 1927   0.282   0.401   3.033
  598SOL     OW 1928   0.058   1.132   0.344
  598SOL    HW1 1929   0.073   1.053   0.293
  598SOL    HW2 1930   0.143   1.174   0.350
  599SOL     OW 1931   1.192   0.815   2.796
  599SOL    HW1 1932   1.120   0.868   2.830
  599SOL    HW2 1933   1.175   0.810   2.702
  600SOL     OW 1934   0.043   2.903   1.691
  600SOL    HW1 1935  -0.022   2.943   1.633
  600SOL    HW2 1936   0.038   2.809   1.674
  601SOL     OW 1937   2.447   2.547   0.007
  601SOL    HW1 1938   2.484   2.505   0.085
  601SOL    HW2 1939   2.378   2.604   0.041
  602SOL     OW 1940   3.539   0.936   1.720
  602SOL    HW1 1941   3.548   1.029   1.742
  602SOL    HW2 1942   3.507   0.895   1.800
  603SOL     OW 1943   3.488   3.434   2.365
  603SOL    HW1 1944   3.485   3.339   2.353
  603SOL    HW2 1945   3.580   3.456   2.353
  604SOL     OW 1946   2.028   2.583   1.892
  604SOL    HW1 1947   2.021   2.635   1.812
  604SOL    HW2 1948   2.040   2.493   1.861
  605SOL     OW 1949   2.585   3.677   0.248
  605SOL    HW1 1950   2.633   3.595   0.257
  605SOL    HW2 1951   2.516   3.658   0.184
  606SOL     OW 1952   3.482   3.700   2.957
  606SOL    HW1 1953   3.537   3.735   2.888
  606SOL    HW2 1954   3.531   3.717   3.038
  607SOL     OW 1955   3.468   3.357   1.729
  607SOL    HW1 1956   3.482   3.394   1.642
  607SOL    HW2 1957   3.399   3.292   1.717
  608SOL     OW 1958   2.182   1.752   2.228
  608SOL    HW1 1959   2.189   1.665   2.188
  608SOL    HW2 1960   2.185   1.735   2.322
  609SOL     OW 1961   1.016   0.058   2.951
  609SOL    HW1 1962   1.043   0.150   2.961
  609SOL    HW2 1963   1.085   0.008   2.994
  610SOL     OW 1964   2.541   3.830   2.671
  610SOL    HW1 1965   2.491   3.816   2.751
  610SOL    HW2 1966   2.632   3.823   2.699
  611SOL     OW 1967   3.158   3.872   2.588
  611SOL    HW1 1968   3.190   3.810   2.654
  611SOL    HW2 1969   3.089   3.824   2.542
  612SOL     OW 1970   3.189   2.056   1.138
  612SOL    HW1 1971   3.281   2.076   1.158
  612SOL    HW2 1972   3.153   2.027   1.222
  613SOL     OW 1973   0.490   2.797   3.852
  613SOL    HW1 1974   0.571   2.835   3.886
  613SOL    HW2 1975   0.519   2.719   3.804
  614SOL     OW 1976   3.217   3.506   3.306
  614SOL    HW1 1977   3.175   3.515   3.220
  614SOL    HW2 1978   3.145   3.510   3.369
  615SOL     OW 1979   0.142   2.830   3.798
  615SOL    HW1 1980   0.204   2.903   3.796
  615SOL    HW2 1981   0.059   2.869   3.824
  616SOL     OW 1982   1.180   2.805   2.227
  616SOL    HW1 1983   1.188   2.738   2.295
  616SOL    HW2 1984   1.085   2.817   2.216
  617SOL     OW 1985   2.082   0.991   1.963
  617SOL    HW1 1986   2.022   0.935   2.012
  617SOL    HW2 1987   2.131   1.039   2.030
  618SOL     OW 1988   2.391   1.302   0.775
  618SOL    HW1 1989   2.344   1.329   0.854
  618SOL    HW2 1990   2.329   1.315   0.704
  619SOL     OW 1991   3.528   2.374   1.194
  619SOL    HW1 1992   3.550   2.463   1.218
  619SOL    HW2 1993   3.509   2.378   1.100
  620SOL     OW 1994   0.406   3.166   2.395
  620SOL    HW1 1995   0.396   3.216   2.314
  620SOL    HW2 1996   0.492   3.192   2.429
  621SOL     OW 1997   0.545   1.434   1.750
  621SOL    HW1 1998   0.625   1.381   1.750
  621SOL    HW2 1999   0.537   1.464   1.659
  622SOL     OW 2000   0.617   0.955   0.116
  622SOL    HW1 2001   0.706   0.955   0.082
  622SOL    HW2 2002   0.622   0.902   0.196
  623SOL     OW 2003   2.310   0.583   3.231
  623SOL    HW1 2004   2.398   0.559   3.203
  623SOL    HW2 2005   2.323   0.655   3.294
  624SOL     OW 2006   3.759   2.901   2.134
  624SOL    HW1 2007   3.740   2.899   2.040
  624SOL    HW2 2008   3.794   2.988   2.150
  625SOL     OW 2009   1.269   2.083   0.943
  625SOL    HW1 2010   1.199   2.145   0.924
  625SOL    HW2 2011   1.348   2.138   0.950
  626SOL     OW 2012   2.521   2.727   0.705
  626SOL    HW1 2013   2.497   2.650   0.758
  626SOL    HW2 2014   2.612   2.711   0.680
  627SOL     OW 2015   2.385   0.859   0.898
  627SOL    HW1 2016   2.424   0.785   0.852
  627SOL    HW2 2017   2.395   0.838   0.991
  628SOL     OW 2018   3.383   0.210   0.461
  628SOL    HW1 2019   3.298   0.185   0.425
  628SOL    HW2 2020   3.364   0.241   0.549
  629SOL     OW 2021   0.366   3.416   2.628
  629SOL    HW1 2022   0.319   3.367   2.696
  629SOL    HW2 2023   0.297   3.447   2.569
  630SOL     OW 2024   0.131   2.725   2.441
  630SOL    HW1 2025   0.212   2.775   2.454
  630SOL    HW2 2026   0.062   2.784   2.470
  631SOL     OW 2027   3.851   2.888   2.768
  631SOL    HW1 2028   3.861   2.880   2.673
  631SOL    HW2 2029   3.923   2.835   2.803
  632SOL     OW 2030   3.262   2.540   0.508
  632SOL    HW1 2031   3.169   2.526   0.524
  632SOL    HW2 2032   3.270   2.633   0.486
  633SOL     OW 2033   1.331   3.777   2.797
  633SOL    HW1 2034   1.280   3.849   2.834
  633SOL    HW2 2035   1.420   3.791   2.829
  634SOL     OW 2036   2.311   1.999   3.929
  634SOL    HW1 2037   2.245   1.931   3.920
  634SOL    HW2 2038   2.273   2.074   3.883
  635SOL     OW 2039   3.070   0.288   2.304
  635SOL    HW1 2040   3.164   0.284   2.290
  635SOL    HW2 2041   3.032   0.286   2.216
  636SOL     OW 2042   2.909   2.692   2.318
  636SOL    HW1 2043   2.974   2.624   2.300
  636SOL    HW2 2044   2.854   2.655   2.387
  637SOL     OW 2045   1.920   1.899   3.384
  637SOL    HW1 2046   1.910   1.806   3.404
  637SOL    HW2 2047   2.006   1.922   3.420
  638SOL     OW 2048   3.256   0.758   3.256
  638SOL    HW1 2049   3.187   0.785   3.196
  638SOL    HW2 2050   3.220   0.681   3.301
  639SOL     OW 2051   2.146   0.348   1.154
  639SOL    HW1 2052   2.055   0.362   1.127
  639SOL    HW2 2053   2.153   0.393   1.238
  640SOL     OW 2054   2.656   1.601   2.529
  640SOL    HW1 2055   2.751   1.614   2.532
  640SOL    HW2 2056   2.628   1.649   2.451
  641SOL     OW 2057   2.639   2.651   3.474
  641SOL    HW1 2058   2.566   2.590   3.459
  641SOL    HW2 2059   2.705   2.599   3.519
  642SOL     OW 2060   2.231   0.941   2.422
  642SOL    HW1 2061   2.185   1.012   2.467
  642SOL    HW2 2062   2.245   0.875   2.489
  643SOL     OW 2063   1.985   2.051   0.552
  643SOL    HW1 2064   1.955   2.131   0.596
  643SOL    HW2 2065   2.077   2.067   0.534
  644SOL     OW 2066   0.822   1.581   3.262
  644SOL    HW1 2067   0.740   1.589   3.310
  644SOL    HW2 2068   0.795   1.553   3.174
  645SOL     OW 2069   1.090   2.537   0.865
  645SOL    HW1 2070   1.106   2.591   0.942
  645SOL    HW2 2071   1.117   2.449   0.892
  646SOL     OW 2072   3.707   0.185   3.226
  646SOL    HW1 2073   3.747   0.101   3.249
  646SOL    HW2 2074   3.672   0.172   3.138
  647SOL     OW 2075   3.324   0.148   3.249
  647SOL    HW1 2076   3.261   0.174   3.316
  647SOL    HW2 2077   3.328   0.052   3.256
  648SOL     OW 2078   3.387   2.548   2.663
  648SOL    HW1 2079   3.481   2.538   2.653
  648SOL    HW2 2080   3.358   2.466   2.703
  649SOL     OW 2081   3.015   2.557   0.468
  649SOL    HW1 2082   3.040   2.621   0.401
  649SOL    HW2 2083   2.920   2.563   0.472
  650SOL     OW 2084   1.303   1.805   0.298
  650SOL    HW1 2085   1.266   1.744   0.234
  650SOL    HW2 2086   1.326   1.882   0.247
  651SOL     OW 2087   2.702   1.075   0.508
  651SOL    HW1 2088   2.631   1.016   0.532
  651SOL    HW2 2089   2.782   1.023   0.518
  652SOL     OW 2090   3.744   3.035   2.982
  652SOL    HW1 2091   3.787   2.981   2.915
  652SOL    HW2 2092   3.774   2.999   3.065
  653SOL     OW 2093   2.105   2.781   2.605
  653SOL    HW1 2094   2.111   2.731   2.686
  653SOL    HW2 2095   2.072   2.867   2.633
  654SOL     OW 2096   2.047   0.200   3.338
  654SOL    HW1 2097   2.113   0.267   3.319
  654SOL    HW2 2098   1.990   0.241   3.403
  655SOL     OW 2099   1.752   3.276   3.421
  655SOL    HW1 2100   1.786   3.282   3.510
  655SOL    HW2 2101   1.755   3.182   3.400
  656SOL     OW 2102   2.303   1.208   3.919
  656SOL    HW1 2103   2.358   1.207   3.997
  656SOL    HW2 2104   2.361   1.183   3.847
  657SOL     OW 2105   1.494   2.266   0.990
  657SOL    HW1 2106   1.562   2.242   0.927
  657SOL    HW2 2107   1.528   2.344   1.034
  658SOL     OW 2108   1.959   1.188   1.622
  658SOL    HW1 2109   1.954   1.099   1.656
  658SOL    HW2 2110   1.951   1.244   1.699
  659SOL     OW 2111   2.978   1.432   0.765
  659SOL    HW1 2112   3.065   1.401   0.738
  659SOL    HW2 2113   2.922   1.355   0.760
  660SOL     OW 2114   1.599   3.395   3.220
  660SOL    HW1 2115   1.654   3.339   3.275
  660SOL    HW2 2116   1.631   3.380   3.131
  661SOL     OW 2117   2.833   0.978   1.166
  661SOL    HW1 2118   2.890   0.902   1.176
  661SOL    HW2 2119   2.782   0.980   1.247
  662SOL     OW 2120   3.524   1.870   3.316
  662SOL    HW1 2121   3.429   1.881   3.309
  662SOL    HW2 2122   3.547   1.809   3.246
  663SOL     OW 2123   1.132   1.160   0.025
  663SOL    HW1 2124   1.189   1.158   0.101
  663SOL    HW2 2125   1.133   1.252  -0.004
  664SOL     OW 2126   1.364   2.113   0.639
  664SOL    HW1 2127   1.448   2.152   0.615
  664SOL    HW2 2128   1.334   2.165   0.715
  665SOL     OW 2129   1.085   1.412   0.912
  665SOL    HW1 2130   1.026   1.394   0.839
  665SOL    HW2 2131   1.170   1.427   0.870
  666SOL     OW 2132   1.686   2.030   0.925
  666SOL    HW1 2133   1.691   2.032   1.020
  666SOL    HW2 2134   1.675   1.938   0.903
  667SOL     OW 2135   1.543   0.942   2.602
  667SOL    HW1 2136   1.520   1.034   2.618
  667SOL    HW2 2137   1.633   0.945   2.570
  668SOL     OW 2138   2.311   0.111   1.707
  668SOL    HW1 2139   2.318   0.190   1.654
  668SOL    HW2 2140   2.229   0.121   1.754
  669SOL     OW 2141   3.760   0.134   3.710
  669SOL    HW1 2142   3.780   0.128   3.804
  669SOL    HW2 2143   3.844   0.158   3.669
  670SOL     OW 2144   2.803   2.984   0.142
  670SOL    HW1 2145   2.846   2.902   0.116
  670SOL    HW2 2146   2.711   2.971   0.121
  671SOL     OW 2147   1.425   2.271   3.093
  671SOL    HW1 2148   1.370   2.223   3.155
  671SOL    HW2 2149   1.364   2.330   3.048
  672SOL     OW 2150   2.588   0.353   0.477
  672SOL    HW1 2151   2.646   0.358   0.553
  672SOL    HW2 2152   2.513   0.408   0.499
  673SOL     OW 2153   3.025   3.338   2.757
  673SOL    HW1 2154   2.943   3.298   2.728
  673SOL    HW2 2155   3.090   3.309   2.693
  674SOL     OW 2156   2.734   1.190   3.299
  674SOL    HW1 2157   2.705   1.195   3.391
  674SOL    HW2 2158   2.691   1.111   3.266
  675SOL     OW 2159   0.079   1.460   3.757
  675SOL    HW1 2160   0.104   1.370   3.739
  675SOL    HW2 2161   0.023   1.454   3.835
  676SOL     OW 2162   2.208   3.190   1.888
  676SOL    HW1 2163   2.212   3.230   1.975
  676SOL    HW2 2164   2.181   3.100   1.904
  677SOL     OW 2165   0.687   0.479   0.266
  677SOL    HW1 2166   0.711   0.523   0.185
  677SOL    HW2 2167   0.763   0.427   0.289
  678SOL     OW 2168   2.049   1.805   0.213
  678SOL    HW1 2169   2.019   1.826   0.125
  678SOL    HW2 2170   2.025   1.713   0.225
  679SOL     OW 2171   3.721   1.451   0.552
  679SOL    HW1 2172   3.757   1.363   0.541
  679SOL    HW2 2173   3.764   1.485   0.631
  680SOL     OW 2174   3.865   1.025   1.045
  680SOL    HW1 2175   3.942   1.003   1.095
  680SOL    HW2 2176   3.793   0.980   1.089
  681SOL     OW 2177   3.436   3.156   2.334
  681SOL    HW1 2178   3.457   3.145   2.242
  681SOL    HW2 2179   3.406   3.070   2.364
  682SOL     OW 2180   0.619   1.308   2.096
  682SOL    HW1 2181   0.683   1.275   2.033
  682SOL    HW2 2182   0.629   1.403   2.092
  683SOL     OW 2183   1.330   1.911   1.554
  683SOL    HW1 2184   1.410   1.953   1.585
  683SOL    HW2 2185   1.349   1.884   1.464
  684SOL     OW 2186   0.742   0.791   2.531
  684SOL    HW1 2187   0.670   0.840   2.569
  684SOL    HW2 2188   0.742   0.814   2.439
  685SOL     OW 2189   1.829   3.254   1.852
  685SOL    HW1 2190   1.902   3.209   1.809
  685SOL    HW2 2191   1.766   3.270   1.781
  686SOL     OW 2192   3.422   3.726   0.537
  686SOL    HW1 2193   3.370   3.766   0.607
  686SOL    HW2 2194   3.357   3.684   0.481
  687SOL     OW 2195   1.322   3.339   3.329
  687SOL    HW1 2196   1.414   3.357   3.314
  687SOL    HW2 2197   1.311   3.346   3.424
  688SOL     OW 2198   0.569   1.067   1.332
  688SOL    HW1 2199   0.595   1.101   1.246
  688SOL    HW2 2200   0.576   1.141   1.391
  689SOL     OW 2201   3.832   1.863   3.290
  689SOL    HW1 2202   3.831   1.822   3.203
  689SOL    HW2 2203   3.745   1.902   3.299
  690SOL     OW 2204   1.308   3.015   0.247
  690SOL    HW1 2205   1.279   2.929   0.218
  690SOL    HW2 2206   1.288   3.017   0.340
  691SOL     OW 2207   1.485   1.072   0.685
  691SOL    HW1 2208   1.543   1.064   0.609
  691SOL    HW2 2209   1.423   0.999   0.676
  692SOL     OW 2210   0.088   3.683   0.172
  692SOL    HW1 2211   0.077   3.610   0.233
  692SOL    HW2 2212   0.146   3.648   0.104
  693SOL     OW 2213   1.512   1.920   2.967
  693SOL    HW1 2214   1.458   1.887   3.039
  693SOL    HW2 2215   1.451   1.965   2.909
  694SOL     OW 2216   1.461   0.322   2.334
  694SOL    HW1 2217   1.366   0.334   2.339
  694SOL    HW2 2218   1.472   0.229   2.311
  695SOL     OW 2219   2.072   3.177   0.900
  695SOL    HW1 2220   1.988   3.209   0.932
  695SOL    HW2 2221   2.135   3.243   0.928
  696SOL     OW 2222   1.475   3.856   3.345
  696SOL    HW1 2223   1.403   3.809   3.301
  696SOL    HW2 2224   1.546   3.792   3.348
  697SOL     OW 2225   3.559   0.505   2.225
  697SOL    HW1 2226   3.619   0.494   2.298
  697SOL    HW2 2227   3.482   0.546   2.263
  698SOL     OW 2228   3.636   3.090   2.630
  698SOL    HW1 2229   3.696   3.024   2.664
  698SOL    HW2 2230   3.667   3.107   2.541
  699SOL     OW 2231   1.044   1.309   1.169
  699SOL    HW1 2232   1.060   1.338   1.079
  699SOL    HW2 2233   1.129   1.274   1.198
  700SOL     OW 2234   3.257   0.378   1.285
  700SOL    HW1 2235   3.345   0.415   1.283
  700SOL    HW2 2236   3.271   0.285   1.302
  701SOL     OW 2237   2.624   0.605   1.559
  701SOL    HW1 2238   2.668   0.625   1.642
  701SOL    HW2 2239   2.659   0.520   1.533
  702SOL     OW 2240   1.708   0.931   0.928
  702SOL    HW1 2241   1.632   0.939   0.986
  702SOL    HW2 2242   1.745   1.020   0.925
  703SOL     OW 2243   1.631   0.147   3.330
  703SOL    HW1 2244   1.576   0.070   3.318
  703SOL    HW2 2245   1.655   0.146   3.423
  704SOL     OW 2246   1.641   2.479   1.092
  704SOL    HW1 2247   1.629   2.548   1.157
  704SOL    HW2 2248   1.736   2.470   1.085
  705SOL     OW 2249   2.709   3.992   1.071
  705SOL    HW1 2250   2.668   3.970   0.987
  705SOL    HW2 2251   2.717   3.908   1.116
  706SOL     OW 2252   2.468   1.827   0.759
  706SOL    HW1 2253   2.402   1.762   0.780
  706SOL    HW2 2254   2.518   1.838   0.840
  707SOL     OW 2255   0.744   2.527   2.096
  707SOL    HW1 2256   0.825   2.502   2.051
  707SOL    HW2 2257   0.759   2.501   2.187
  708SOL     OW 2258   3.433   3.723   1.591
  708SOL    HW1 2259   3.516   3.771   1.583
  708SOL    HW2 2260   3.449   3.640   1.546
  709SOL     OW 2261   3.899   2.265   0.012
  709SOL    HW1 2262   3.821   2.279   0.065
  709SOL    HW2 2263   3.873   2.294  -0.076
  710SOL     OW 2264   3.104   3.737   0.363
  710SOL    HW1 2265   3.029   3.790   0.390
  710SOL    HW2 2266   3.104   3.663   0.423
  711SOL     OW 2267   3.538   2.080   3.039
  711SOL    HW1 2268   3.488   2.066   3.119
  711SOL    HW2 2269   3.582   2.164   3.053
  712SOL     OW 2270   3.280   0.092   3.929
  712SOL    HW1 2271   3.267   0.187   3.931
  712SOL    HW2 2272   3.336   0.077   3.853
  713SOL     OW 2273   3.360   0.281   3.600
  713SOL    HW1 2274   3.430   0.310   3.541
  713SOL    HW2 2275   3.385   0.192   3.624
  714SOL     OW 2276   2.102   3.472   3.483
  714SOL    HW1 2277   2.155   3.551   3.478
  714SOL    HW2 2278   2.155   3.405   3.439
  715SOL     OW 2279   0.528   2.481   0.795
  715SOL    HW1 2280   0.484   2.415   0.741
  715SOL    HW2 2281   0.468   2.556   0.795
  716SOL     OW 2282   2.144   3.656   1.365
  716SOL    HW1 2283   2.127   3.733   1.418
  716SOL    HW2 2284   2.236   3.663   1.340
  717SOL     OW 2285   3.295   0.962   1.544
  717SOL    HW1 2286   3.362   0.982   1.609
  717SOL    HW2 2287   3.272   0.871   1.561
  718SOL     OW 2288   1.267   2.548   2.538
  718SOL    HW1 2289   1.266   2.454   2.556
  718SOL    HW2 2290   1.345   2.580   2.584
  719SOL     OW 2291   2.175   1.422   3.147
  719SOL    HW1 2292   2.242   1.361   3.178
  719SOL    HW2 2293   2.195   1.505   3.191
  720SOL     OW 2294   2.275   1.507   0.007
  720SOL    HW1 2295   2.259   1.420  -0.029
  720SOL    HW2 2296   2.306   1.492   0.096
  721SOL     OW 2297   2.984   1.290   3.900
  721SOL    HW1 2298   2.898   1.317   3.867
  721SOL    HW2 2299   3.017   1.228   3.835
  722SOL     OW 2300   3.723   0.222   0.031
  722SOL    HW1 2301   3.636   0.253   0.053
  722SOL    HW2 2302   3.740   0.150   0.091
  723SOL     OW 2303   1.580   0.413   2.631
  723SOL    HW1 2304   1.498   0.440   2.590
  723SOL    HW2 2305   1.648   0.461   2.585
  724SOL     OW 2306   3.818   0.084   2.658
  724SOL    HW1 2307   3.905   0.121   2.662
  724SOL    HW2 2308   3.759   0.159   2.666
  725SOL     OW 2309   2.941   1.594   2.485
  725SOL    HW1 2310   3.017   1.536   2.489
  725SOL    HW2 2311   2.926   1.621   2.576
  726SOL     OW 2312   2.915   2.870   3.629
  726SOL    HW1 2313   2.963   2.827   3.558
  726SOL    HW2 2314   2.968   2.947   3.651
  727SOL     OW 2315   1.016   0.987   3.007
  727SOL    HW1 2316   1.030   0.940   3.089
  727SOL    HW2 2317   1.103   1.014   2.980
  728SOL     OW 2318   3.809   0.578   2.665
  728SOL    HW1 2319   3.833   0.636   2.592
  728SOL    HW2 2320   3.885   0.581   2.724
  729SOL     OW 2321   3.628   1.858   3.587
  729SOL    HW1 2322   3.618   1.860   3.491
  729SOL    HW2 2323   3.589   1.775   3.613
  730SOL     OW 2324   3.506   0.710   3.115
  730SOL    HW1 2325   3.435   0.772   3.133
  730SOL    HW2 2326   3.483   0.631   3.163
  731SOL     OW 2327   3.030   0.468   1.165
  731SOL    HW1 2328   3.055   0.425   1.083
  731SOL    HW2 2329   3.099   0.445   1.227
  732SOL     OW 2330   0.495   2.629   2.401
  732SOL    HW1 2331   0.473   2.618   2.309
  732SOL    HW2 2332   0.458   2.714   2.424
  733SOL     OW 2333   2.204   3.519   0.113
  733SOL    HW1 2334   2.267   3.523   0.041
  733SOL    HW2 2335   2.155   3.439   0.097
  734SOL     OW 2336   2.502   2.426   0.281
  734SOL    HW1 2337   2.502   2.344   0.330
  734SOL    HW2 2338   2.545   2.489   0.339
  735SOL     OW 2339   3.804   1.509   3.010
  735SOL    HW1 2340   3.771   1.420   2.994
  735SOL    HW2 2341   3.797   1.552   2.925
  736SOL     OW 2342   2.524   2.937   0.876
  736SOL    HW1 2343   2.550   2.928   0.967
  736SOL    HW2 2344   2.506   2.848   0.846
  737SOL     OW 2345   1.644   1.567   1.953
  737SOL    HW1 2346   1.709   1.532   1.891
  737SOL    HW2 2347   1.691   1.570   2.037
  738SOL     OW 2348   1.645   3.004   1.511
  738SOL    HW1 2349   1.645   2.958   1.595
  738SOL    HW2 2350   1.736   3.029   1.498
  739SOL     OW 2351   0.066   1.987   0.111
  739SOL    HW1 2352   0.086   1.893   0.104
  739SOL    HW2 2353   0.025   2.009   0.028
  740SOL     OW 2354   0.916   3.908   1.658
  740SOL    HW1 2355   0.950   3.891   1.570
  740SOL    HW2 2356   0.879   3.825   1.686
  741SOL     OW 2357   3.371   3.679   0.162
  741SOL    HW1 2358   3.402   3.611   0.222
  741SOL    HW2 2359   3.371   3.759   0.215
  742SOL     OW 2360   2.168   2.978   1.492
  742SOL    HW1 2361   2.227   3.026   1.551
  742SOL    HW2 2362   2.161   2.891   1.531
  743SOL     OW 2363   1.156   3.596   1.277
  743SOL    HW1 2364   1.219   3.625   1.211
  743SOL    HW2 2365   1.133   3.507   1.251
  744SOL     OW 2366   2.928   2.989   1.102
  744SOL    HW1 2367   2.938   2.915   1.042
  744SOL    HW2 2368   2.834   2.993   1.120
  745SOL     OW 2369   2.688   3.539   1.539
  745SOL    HW1 2370   2.717   3.544   1.630
  745SOL    HW2 2371   2.764   3.505   1.491
  746SOL     OW 2372   1.683   2.241   0.726
  746SOL    HW1 2373   1.671   2.155   0.767
  746SOL    HW2 2374   1.756   2.280   0.775
  747SOL     OW 2375   2.551   2.105   2.697
  747SOL    HW1 2376   2.566   2.176   2.634
  747SOL    HW2 2377   2.597   2.133   2.776
  748SOL     OW 2378   3.128   3.097   0.983
  748SOL    HW1 2379   3.052   3.072   1.036
  748SOL    HW2 2380   3.122   3.043   0.904
  749SOL     OW 2381   2.558   3.301   1.511
  749SOL    HW1 2382   2.585   3.390   1.533
  749SOL    HW2 2383   2.590   3.247   1.584
  750SOL     OW 2384   1.285   1.245   0.229
  750SOL    HW1 2385   1.265   1.189   0.304
  750SOL    HW2 2386   1.362   1.295   0.256
  751SOL     OW 2387   3.094   0.132   3.043
  751SOL    HW1 2388   3.082   0.118   3.137
  751SOL    HW2 2389   3.079   0.226   3.031
  752SOL     OW 2390   3.797   0.174   1.758
  752SOL    HW1 2391   3.774   0.201   1.669
  752SOL    HW2 2392   3.890   0.195   1.767
  753SOL     OW 2393   2.971   0.062   0.950
  753SOL    HW1 2394   2.958  -0.008   0.886
  753SOL    HW2 2395   2.889   0.064   1.000
  754SOL     OW 2396   3.814   3.333   0.447
  754SOL    HW1 2397   3.790   3.425   0.439
  754SOL    HW2 2398   3.730   3.287   0.452
  755SOL     OW 2399   0.274   2.678   1.423
  755SOL    HW1 2400   0.208   2.611   1.443
  755SOL    HW2 2401   0.252   2.752   1.479
  756SOL     OW 2402   1.533   3.363   3.590
  756SOL    HW1 2403   1.589   3.368   3.513
  756SOL    HW2 2404   1.593   3.373   3.664
  757SOL     OW 2405   3.636   2.495   2.569
  757SOL    HW1 2406   3.657   2.540   2.487
  757SOL    HW2 2407   3.709   2.517   2.627
  758SOL     OW 2408   3.299   2.895   0.700
  758SOL    HW1 2409   3.375   2.946   0.671
  758SOL    HW2 2410   3.224   2.954   0.687
  759SOL     OW 2411   2.052   0.858   0.372
  759SOL    HW1 2412   2.119   0.852   0.305
  759SOL    HW2 2413   2.060   0.948   0.406
  760SOL     OW 2414   3.346   0.759   0.891
  760SOL    HW1 2415   3.331   0.793   0.803
  760SOL    HW2 2416   3.440   0.768   0.905
  761SOL     OW 2417   3.370   2.729   1.130
  761SOL    HW1 2418   3.319   2.667   1.181
  761SOL    HW2 2419   3.365   2.695   1.040
  762SOL     OW 2420   3.165   2.716   2.685
  762SOL    HW1 2421   3.243   2.662   2.676
  762SOL    HW2 2422   3.193   2.803   2.655
  763SOL     OW 2423   3.905   2.093   1.963
  763SOL    HW1 2424   3.868   2.109   2.050
  763SOL    HW2 2425   3.909   2.179   1.922
  764SOL     OW 2426   1.438   2.936   2.345
  764SOL    HW1 2427   1.383   3.009   2.317
  764SOL    HW2 2428   1.377   2.876   2.389
  765SOL     OW 2429   0.841   0.212   0.957
  765SOL    HW1 2430   0.861   0.130   1.003
  765SOL    HW2 2431   0.822   0.184   0.867
  766SOL     OW 2432   2.439   0.742   3.776
  766SOL    HW1 2433   2.383   0.695   3.838
  766SOL    HW2 2434   2.519   0.760   3.824
  767SOL     OW 2435   1.959   3.093   0.560
  767SOL    HW1 2436   2.017   3.023   0.530
  767SOL    HW2 2437   2.016   3.169   0.571
  768SOL     OW 2438   2.059   1.884   1.236
  768SOL    HW1 2439   2.082   1.854   1.324
  768SOL    HW2 2440   2.135   1.862   1.183
  769SOL     OW 2441   3.087   3.347   1.679
  769SOL    HW1 2442   3.044   3.264   1.656
  769SOL    HW2 2443   3.054   3.368   1.766
  770SOL     OW 2444   3.403   1.126   0.697
  770SOL    HW1 2445   3.432   1.161   0.612
  770SOL    HW2 2446   3.481   1.130   0.752
  771SOL     OW 2447   1.475   0.840   0.192
  771SOL    HW1 2448   1.450   0.772   0.255
  771SOL    HW2 2449   1.410   0.833   0.122
  772SOL     OW 2450   1.946   1.822   2.867
  772SOL    HW1 2451   1.881   1.857   2.806
  772SOL    HW2 2452   1.914   1.735   2.889
  773SOL     OW 2453   1.535   2.534   2.356
  773SOL    HW1 2454   1.515   2.585   2.434
  773SOL    HW2 2455   1.626   2.554   2.337
  774SOL     OW 2456   3.095   3.757   1.587
  774SOL    HW1 2457   3.186   3.731   1.575
  774SOL    HW2 2458   3.073   3.731   1.676
  775SOL     OW 2459   0.355   3.559   2.903
  775SOL    HW1 2460   0.361   3.654   2.890
  775SOL    HW2 2461   0.360   3.522   2.815
  776SOL     OW 2462   1.208   1.462   3.568
  776SOL    HW1 2463   1.123   1.432   3.535
  776SOL    HW2 2464   1.270   1.439   3.498
  777SOL     OW 2465   0.329   2.021   0.770
  777SOL    HW1 2466   0.369   1.955   0.827
  777SOL    HW2 2467   0.329   2.101   0.823
  778SOL     OW 2468   0.048   3.870   2.297
  778SOL    HW1 2469   0.077   3.960   2.283
  778SOL    HW2 2470  -0.035   3.878   2.343
  779SOL     OW 2471   0.941   2.015   0.769
  779SOL    HW1 2472   0.975   1.997   0.681
  779SOL    HW2 2473   0.979   1.946   0.824
  780SOL     OW 2474   3.603   1.737   1.261
  780SOL    HW1 2475   3.675   1.769   1.205
  780SOL    HW2 2476   3.639   1.659   1.303
  781SOL     OW 2477   1.049   2.852   1.911
  781SOL    HW1 2478   1.085   2.812   1.832
  781SOL    HW2 2479   1.078   2.943   1.908
  782SOL     OW 2480   0.285   0.696   3.547
  782SOL    HW1 2481   0.326   0.735   3.469
  782SOL    HW2 2482   0.332   0.614   3.560
  783SOL     OW 2483   0.115   0.948   0.137
  783SOL    HW1 2484   0.022   0.930   0.125
  783SOL    HW2 2485   0.150   0.950   0.048
  784SOL     OW 2486   3.182   0.573   1.703
  784SOL    HW1 2487   3.161   0.574   1.796
  784SOL    HW2 2488   3.159   0.484   1.674
  785SOL     OW 2489   3.629   2.358   3.118
  785SOL    HW1 2490   3.677   2.336   3.197
  785SOL    HW2 2491   3.680   2.429   3.078
  786SOL     OW 2492   0.154   3.039   3.013
  786SOL    HW1 2493   0.165   3.114   2.953
  786SOL    HW2 2494   0.211   3.060   3.087
  787SOL     OW 2495   1.058   1.421   3.327
  787SOL    HW1 2496   1.093   1.503   3.361
  787SOL    HW2 2497   1.000   1.447   3.255
  788SOL     OW 2498   2.201   1.021   0.738
  788SOL    HW1 2499   2.131   0.956   0.738
  788SOL    HW2 2500   2.278   0.974   0.768
  789SOL     OW 2501   3.024   2.762   0.957
  789SOL    HW1 2502   3.118   2.750   0.964
  789SOL    HW2 2503   2.988   2.673   0.949
  790SOL     OW 2504   0.522   2.119   3.871
  790SOL    HW1 2505   0.502   2.178   3.799
  790SOL    HW2 2506   0.444   2.121   3.926
  791SOL     OW 2507   2.896   1.256   3.086
  791SOL    HW1 2508   2.834   1.216   3.147
  791SOL    HW2 2509   2.956   1.306   3.141
  792SOL     OW 2510   3.048   2.111   1.438
  792SOL    HW1 2511   3.026   2.079   1.526
  792SOL    HW2 2512   3.041   2.035   1.381
  793SOL     OW 2513   0.361   2.858   2.506
  793SOL    HW1 2514   0.382   2.944   2.470
  793SOL    HW2 2515   0.326   2.875   2.593
  794SOL     OW 2516   2.549   2.212   0.441
  794SOL    HW1 2517   2.489   2.138   0.453
  794SOL    HW2 2518   2.624   2.191   0.496
  795SOL     OW 2519   2.496   2.325   1.481
  795SOL    HW1 2520   2.433   2.256   1.461
  795SOL    HW2 2521   2.445   2.405   1.480
  796SOL     OW 2522   0.735   3.568   0.495
  796SOL    HW1 2523   0.681   3.600   0.567
  796SOL    HW2 2524   0.672   3.531   0.433
  797SOL     OW 2525   2.927   1.672   0.446
  797SOL    HW1 2526   2.870   1.734   0.400
  797SOL    HW2 2527   2.952   1.717   0.527
  798SOL     OW 2528   3.482   0.073   2.693
  798SOL    HW1 2529   3.443   0.082   2.606
  798SOL    HW2 2530   3.408   0.063   2.753
  799SOL     OW 2531   2.521   3.286   3.420
  799SOL    HW1 2532   2.546   3.239   3.341
  799SOL    HW2 2533   2.603   3.307   3.464
  800SOL     OW 2534   1.950   1.282   2.648
  800SOL    HW1 2535   1.988   1.350   2.704
  800SOL    HW2 2536   2.020   1.218   2.637
  801SOL     OW 2537   2.257   2.757   0.151
  801SOL    HW1 2538   2.221   2.685   0.201
  801SOL    HW2 2539   2.185   2.819   0.142
  802SOL     OW 2540   2.138   1.149   0.358
  802SOL    HW1 2541   2.138   1.244   0.363
  802SOL    HW2 2542   2.071   1.129   0.292
  803SOL     OW 2543   2.382   3.272   1.310
  803SOL    HW1 2544   2.430   3.327   1.247
  803SOL    HW2 2545   2.443   3.259   1.382
  804SOL     OW 2546   1.254   3.433   0.183
  804SOL    HW1 2547   1.293   3.496   0.123
  804SOL    HW2 2548   1.328   3.397   0.232
  805SOL     OW 2549   2.684   3.720   1.133
  805SOL    HW1 2550   2.598   3.679   1.143
  805SOL    HW2 2551   2.734   3.658   1.080
  806SOL     OW 2552   0.799   1.472   3.016
  806SOL    HW1 2553   0.721   1.463   2.961
  806SOL    HW2 2554   0.828   1.381   3.032
  807SOL     OW 2555   3.835   2.038   2.225
  807SOL    HW1 2556   3.802   2.108   2.282
  807SOL    HW2 2557   3.787   1.960   2.253
  808SOL     OW 2558   1.226   0.626   0.805
  808SOL    HW1 2559   1.134   0.650   0.812
  808SOL    HW2 2560   1.260   0.633   0.894
  809SOL     OW 2561   2.669   1.835   3.674
  809SOL    HW1 2562   2.653   1.929   3.668
  809SOL    HW2 2563   2.665   1.816   3.768
  810SOL     OW 2564   3.833   3.581   0.890
  810SOL    HW1 2565   3.911   3.582   0.836
  810SOL    HW2 2566   3.816   3.488   0.906
  811SOL     OW 2567   0.890   1.211   0.788
  811SOL    HW1 2568   0.932   1.267   0.723
  811SOL    HW2 2569   0.939   1.129   0.785
  812SOL     OW 2570   1.246   3.875   0.103
  812SOL    HW1 2571   1.248   3.868   0.198
  812SOL    HW2 2572   1.309   3.944   0.082
  813SOL     OW 2573   2.322   2.621   1.163
  813SOL    HW1 2574   2.404   2.658   1.195
  813SOL    HW2 2575   2.269   2.605   1.241
  814SOL     OW 2576   3.099   1.485   2.802
  814SOL    HW1 2577   3.130   1.395   2.792
  814SOL    HW2 2578   3.146   1.518   2.879
  815SOL     OW 2579   2.845   3.857   3.384
  815SOL    HW1 2580   2.828   3.894   3.470
  815SOL    HW2 2581   2.773   3.889   3.329
  816SOL     OW 2582   0.055   1.744   1.013
  816SOL    HW1 2583   0.048   1.836   0.987
  816SOL    HW2 2584  -0.034   1.720   1.040
  817SOL     OW 2585   2.276   0.608   0.699
  817SOL    HW1 2586   2.356   0.658   0.718
  817SOL    HW2 2587   2.291   0.572   0.611
  818SOL     OW 2588   1.047   3.436   0.696
  818SOL    HW1 2589   1.139   3.410   0.698
  818SOL    HW2 2590   1.019   3.437   0.788
  819SOL     OW 2591   3.737   2.727   3.520
  819SOL    HW1 2592   3.788   2.807   3.534
  819SOL    HW2 2593   3.698   2.738   3.433
  820SOL     OW 2594   1.067   0.776   0.128
  820SOL    HW1 2595   1.070   0.682   0.111
  820SOL    HW2 2596   1.105   0.786   0.216
  821SOL     OW 2597   0.536   0.457   2.041
  821SOL    HW1 2598   0.563   0.412   1.961
  821SOL    HW2 2599   0.523   0.548   2.014
  822SOL     OW 2600   2.601   1.538   1.443
  822SOL    HW1 2601   2.515   1.496   1.439
  822SOL    HW2 2602   2.581   1.632   1.443
  823SOL     OW 2603   3.039   0.430   0.590
  823SOL    HW1 2604   3.113   0.460   0.538
  823SOL    HW2 2605   2.963   0.473   0.549
  824SOL     OW 2606   2.506   2.463   3.183
  824SOL    HW1 2607   2.465   2.451   3.268
  824SOL    HW2 2608   2.600   2.458   3.201
  825SOL     OW 2609   2.006   1.734   0.986
  825SOL    HW1 2610   2.045   1.737   0.898
  825SOL    HW2 2611   2.077   1.708   1.043
  826SOL     OW 2612   1.952   0.249   1.649
  826SOL    HW1 2613   1.864   0.280   1.671
  826SOL    HW2 2614   2.002   0.257   1.731
  827SOL     OW 2615   0.139   1.059   3.061
  827SOL    HW1 2616   0.218   1.112   3.077
  827SOL    HW2 2617   0.113   1.082   2.972
  828SOL     OW 2618   2.992   0.930   0.348
  828SOL    HW1 2619   2.902   0.924   0.313
  828SOL    HW2 2620   3.004   0.849   0.397
  829SOL     OW 2621   0.571   1.835   0.890
  829SOL    HW1 2622   0.631   1.775   0.845
  829SOL    HW2 2623   0.603   1.838   0.980
  830SOL     OW 2624   2.714   1.563   2.938
  830SOL    HW1 2625   2.666   1.504   2.996
  830SOL    HW2 2626   2.647   1.604   2.883
  831SOL     OW 2627   2.455   3.641   2.096
  831SOL    HW1 2628   2.461   3.601   2.009
  831SOL    HW2 2629   2.503   3.723   2.088
  832SOL     OW 2630   2.943   3.172   2.173
  832SOL    HW1 2631   2.946   3.142   2.082
  832SOL    HW2 2632   2.976   3.098   2.224
  833SOL     OW 2633   2.055   0.413   3.733
  833SOL    HW1 2634   2.076   0.450   3.647
  833SOL    HW2 2635   2.058   0.318   3.720
  834SOL     OW 2636   2.960   3.574   3.425
  834SOL    HW1 2637   2.874   3.545   3.456
  834SOL    HW2 2638   2.950   3.667   3.408
  835SOL     OW 2639   1.107   2.216   2.215
  835SOL    HW1 2640   1.157   2.219   2.134
  835SOL    HW2 2641   1.148   2.147   2.267
  836SOL     OW 2642   3.451   0.515   2.616
  836SOL    HW1 2643   3.488   0.440   2.663
  836SOL    HW2 2644   3.490   0.591   2.660
  837SOL     OW 2645   3.218   3.705   3.888
  837SOL    HW1 2646   3.270   3.674   3.962
  837SOL    HW2 2647   3.254   3.792   3.869
  838SOL     OW 2648   1.299   2.396   1.332
  838SOL    HW1 2649   1.268   2.328   1.272
  838SOL    HW2 2650   1.390   2.371   1.351
  839SOL     OW 2651   2.736   0.678   3.471
  839SOL    HW1 2652   2.786   0.660   3.550
  839SOL    HW2 2653   2.647   0.697   3.502
  840SOL     OW 2654   2.857   1.274   3.622
  840SOL    HW1 2655   2.806   1.193   3.626
  840SOL    HW2 2656   2.916   1.262   3.548
  841SOL     OW 2657   1.435   3.626   0.581
  841SOL    HW1 2658   1.414   3.539   0.546
  841SOL    HW2 2659   1.499   3.609   0.650
  842SOL     OW 2660   3.234   1.339   0.712
  842SOL    HW1 2661   3.238   1.358   0.806
  842SOL    HW2 2662   3.302   1.274   0.698
  843SOL     OW 2663   0.175   2.092   1.804
  843SOL    HW1 2664   0.228   2.172   1.796
  843SOL    HW2 2665   0.120   2.108   1.881
  844SOL     OW 2666   1.205   0.101   2.478
  844SOL    HW1 2667   1.123   0.079   2.521
  844SOL    HW2 2668   1.247   0.017   2.461
  845SOL     OW 2669   3.882   0.375   2.173
  845SOL    HW1 2670   3.813   0.412   2.119
  845SOL    HW2 2671   3.838   0.308   2.225
  846SOL     OW 2672   2.646   3.260   0.384
  846SOL    HW1 2673   2.566   3.276   0.334
  846SOL    HW2 2674   2.712   3.315   0.342
  847SOL     OW 2675   1.745   3.252   2.359
  847SOL    HW1 2676   1.800   3.198   2.416
  847SOL    HW2 2677   1.800   3.271   2.283
  848SOL     OW 2678   0.828   1.580   2.447
  848SOL    HW1 2679   0.862   1.664   2.477
  848SOL    HW2 2680   0.775   1.548   2.520
  849SOL     OW 2681   1.846   1.483   2.947
  849SOL    HW1 2682   1.921   1.433   2.914
  849SOL    HW2 2683   1.803   1.515   2.868
  850SOL     OW 2684   2.985   0.928   3.455
  850SOL    HW1 2685   3.000   0.892   3.368
  850SOL    HW2 2686   3.030   0.868   3.514
  851SOL     OW 2687   3.003   0.731   0.010
  851SOL    HW1 2688   3.065   0.793   0.050
  851SOL    HW2 2689   2.949   0.785  -0.047
  852SOL     OW 2690   1.180   3.789   3.809
  852SOL    HW1 2691   1.186   3.834   3.893
  852SOL    HW2 2692   1.106   3.830   3.765
  853SOL     OW 2693   0.701   2.640   3.583
  853SOL    HW1 2694   0.758   2.704   3.539
  853SOL    HW2 2695   0.758   2.596   3.645
  854SOL     OW 2696   3.213   3.481   1.456
  854SOL    HW1 2697   3.148   3.550   1.439
  854SOL    HW2 2698   3.164   3.413   1.502
  855SOL     OW 2699   1.755   3.532   0.614
  855SOL    HW1 2700   1.842   3.535   0.653
  855SOL    HW2 2701   1.706   3.471   0.671
  856SOL     OW 2702   0.626   2.795   1.974
  856SOL    HW1 2703   0.534   2.813   1.994
  856SOL    HW2 2704   0.644   2.712   2.018
  857SOL     OW 2705   0.308   1.815   0.536
  857SOL    HW1 2706   0.351   1.891   0.574
  857SOL    HW2 2707   0.222   1.813   0.578
  858SOL     OW 2708   2.636   3.468   3.145
  858SOL    HW1 2709   2.606   3.406   3.079
  858SOL    HW2 2710   2.615   3.427   3.228
  859SOL     OW 2711   2.277   2.113   1.527
  859SOL    HW1 2712   2.184   2.092   1.523
  859SOL    HW2 2713   2.304   2.090   1.615
  860SOL     OW 2714   0.838   1.990   2.969
  860SOL    HW1 2715   0.779   2.061   2.995
  860SOL    HW2 2716   0.875   1.958   3.051
  861SOL     OW 2717   3.019   0.342   0.181
  861SOL    HW1 2718   2.953   0.281   0.150
  861SOL    HW2 2719   2.970   0.420   0.206
  862SOL     OW 2720   2.638   2.894   3.602
  862SOL    HW1 2721   2.620   2.814   3.554
  862SOL    HW2 2722   2.733   2.891   3.618
  863SOL     OW 2723   1.091   3.055   2.614
  863SOL    HW1 2724   1.100   2.966   2.648
  863SOL    HW2 2725   1.001   3.079   2.637
  864SOL     OW 2726   0.361   0.038   0.822
  864SOL    HW1 2727   0.307   0.007   0.894
  864SOL    HW2 2728   0.449   0.007   0.843
  865SOL     OW 2729   2.456   0.766   1.348
  865SOL    HW1 2730   2.480   0.685   1.393
  865SOL    HW2 2731   2.360   0.761   1.340
  866SOL     OW 2732   0.036   1.433   2.811
  866SOL    HW1 2733  -0.053   1.454   2.782
  866SOL    HW2 2734   0.081   1.517   2.809
  867SOL     OW 2735   3.914   0.849   3.473
  867SOL    HW1 2736   3.879   0.777   3.420
  867SOL    HW2 2737   3.955   0.805   3.548
  868SOL     OW 2738   2.627   1.945   2.387
  868SOL    HW1 2739   2.719   1.923   2.369
  868SOL    HW2 2740   2.629   1.991   2.470
  869SOL     OW 2741   1.665   3.362   1.214
  869SOL    HW1 2742   1.658   3.457   1.222
  869SOL    HW2 2743   1.631   3.328   1.297
  870SOL     OW 2744   2.038   2.130   3.266
  870SOL    HW1 2745   2.007   2.127   3.175
  870SOL    HW2 2746   2.006   2.048   3.305
  871SOL     OW 2747   0.214   2.117   3.352
  871SOL    HW1 2748   0.188   2.109   3.444
  871SOL    HW2 2749   0.283   2.183   3.353
  872SOL     OW 2750   0.971   3.731   1.025
  872SOL    HW1 2751   1.009   3.644   1.031
  872SOL    HW2 2752   0.914   3.726   0.947
  873SOL     OW 2753   0.778   0.223   0.590
  873SOL    HW1 2754   0.850   0.246   0.531
  873SOL    HW2 2755   0.806   0.141   0.631
  874SOL     OW 2756   1.103   0.392   3.911
  874SOL    HW1 2757   1.098   0.296   3.918
  874SOL    HW2 2758   1.125   0.407   3.819
  875SOL     OW 2759   0.964   0.740   0.904
  875SOL    HW1 2760   0.988   0.815   0.851
  875SOL    HW2 2761   0.925   0.778   0.983
  876SOL     OW 2762   0.237   2.195   0.488
  876SOL    HW1 2763   0.275   2.236   0.410
  876SOL    HW2 2764   0.202   2.111   0.456
  877SOL     OW 2765   0.695   2.929   1.727
  877SOL    HW1 2766   0.775   2.980   1.717
  877SOL    HW2 2767   0.711   2.874   1.804
  878SOL     OW 2768   3.508   2.963   3.875
  878SOL    HW1 2769   3.549   2.883   3.842
  878SOL    HW2 2770   3.533   2.966   3.967
  879SOL     OW 2771   3.699   2.522   0.838
  879SOL    HW1 2772   3.609   2.548   0.817
  879SOL    HW2 2773   3.702   2.429   0.817
  880SOL     OW 2774   2.799   2.923   2.052
  880SOL    HW1 2775   2.801   2.829   2.067
  880SOL    HW2 2776   2.706   2.946   2.055
  881SOL     OW 2777   0.792   3.678   1.778
  881SOL    HW1 2778   0.835   3.594   1.793
  881SOL    HW2 2779   0.758   3.703   1.864
  882SOL     OW 2780   3.730   2.209   2.396
  882SOL    HW1 2781   3.752   2.290   2.441
  882SOL    HW2 2782   3.712   2.147   2.467
  883SOL     OW 2783   1.242   2.079   3.925
  883SOL    HW1 2784   1.254   2.137   3.850
  883SOL    HW2 2785   1.219   1.994   3.887
  884SOL     OW 2786   1.439   1.183   2.670
  884SOL    HW1 2787   1.361   1.127   2.663
  884SOL    HW2 2788   1.406   1.266   2.704
  885SOL     OW 2789   1.179   1.447   1.743
  885SOL    HW1 2790   1.254   1.460   1.686
  885SOL    HW2 2791   1.169   1.352   1.748
  886SOL     OW 2792   1.467   0.076   2.250
  886SOL    HW1 2793   1.406   0.023   2.198
  886SOL    HW2 2794   1.513   0.012   2.305
  887SOL     OW 2795   1.103   0.637   3.145
  887SOL    HW1 2796   1.022   0.586   3.142
  887SOL    HW2 2797   1.074   0.727   3.160
  888SOL     OW 2798   1.717   0.983   3.028
  888SOL    HW1 2799   1.793   1.022   2.986
  888SOL    HW2 2800   1.653   0.973   2.958
  889SOL     OW 2801   2.962   1.914   2.847
  889SOL    HW1 2802   2.942   1.822   2.829
  889SOL    HW2 2803   2.939   1.927   2.939
  890SOL     OW 2804   2.400   0.063   2.559
  890SOL    HW1 2805   2.443  -0.011   2.602
  890SOL    HW2 2806   2.466   0.133   2.560
  891SOL     OW 2807   1.498   1.133   3.638
  891SOL    HW1 2808   1.556   1.098   3.705
  891SOL    HW2 2809   1.547   1.126   3.556
  892SOL     OW 2810   1.791   1.005   3.727
  892SOL    HW1 2811   1.797   0.964   3.813
  892SOL    HW2 2812   1.742   0.943   3.674
  893SOL     OW 2813   1.344   0.574   0.039
  893SOL    HW1 2814   1.305   0.634  -0.025
  893SOL    HW2 2815   1.330   0.487   0.001
  894SOL     OW 2816   3.432   3.608   3.448
  894SOL    HW1 2817   3.443   3.547   3.521
  894SOL    HW2 2818   3.383   3.558   3.382
  895SOL     OW 2819   0.644   1.343   0.867
  895SOL    HW1 2820   0.726   1.293   0.865
  895SOL    HW2 2821   0.647   1.389   0.951
  896SOL     OW 2822   0.258   0.364   1.196
  896SOL    HW1 2823   0.348   0.340   1.179
  896SOL    HW2 2824   0.228   0.301   1.262
  897SOL     OW 2825   0.241   0.226   3.931
  897SOL    HW1 2826   0.301   0.299   3.931
  897SOL    HW2 2827   0.157   0.264   3.906
  898SOL     OW 2828   0.209   0.664   3.247
  898SOL    HW1 2829   0.143   0.716   3.202
  898SOL    HW2 2830   0.259   0.727   3.298
  899SOL     OW 2831   1.777   3.482   1.531
  899SOL    HW1 2832   1.758   3.517   1.444
  899SOL    HW2 2833   1.761   3.555   1.590
  900SOL     OW 2834   2.895   3.329   3.267
  900SOL    HW1 2835   2.915   3.423   3.265
  900SOL    HW2 2836   2.959   3.290   3.208
  901SOL     OW 2837   2.937   2.449   1.269
  901SOL    HW1 2838   2.874   2.404   1.325
  901SOL    HW2 2839   2.950   2.391   1.194
  902SOL     OW 2840   0.734   2.358   0.239
  902SOL    HW1 2841   0.654   2.361   0.291
  902SOL    HW2 2842   0.788   2.429   0.274
  903SOL     OW 2843   0.960   3.421   0.344
  903SOL    HW1 2844   0.909   3.467   0.410
  903SOL    HW2 2845   1.051   3.449   0.360
  904SOL     OW 2846   3.027   2.990   0.765
  904SOL    HW1 2847   3.013   2.901   0.797
  904SOL    HW2 2848   2.949   3.009   0.713
  905SOL     OW 2849   1.833   1.729   1.193
  905SOL    HW1 2850   1.904   1.777   1.236
  905SOL    HW2 2851   1.864   1.716   1.103
  906SOL     OW 2852   3.235   2.288   2.648
  906SOL    HW1 2853   3.288   2.208   2.641
  906SOL    HW2 2854   3.235   2.324   2.560
  907SOL     OW 2855   2.400   3.008   0.477
  907SOL    HW1 2856   2.478   2.959   0.452
  907SOL    HW2 2857   2.423   3.053   0.557
  908SOL     OW 2858   2.997   1.235   2.650
  908SOL    HW1 2859   2.926   1.275   2.700
  908SOL    HW2 2860   3.065   1.216   2.716
  909SOL     OW 2861   1.627   3.750   3.708
  909SOL    HW1 2862   1.661   3.740   3.797
  909SOL    HW2 2863   1.546   3.700   3.707
  910SOL     OW 2864   1.505   0.741   1.822
  910SOL    HW1 2865   1.525   0.737   1.916
  910SOL    HW2 2866   1.450   0.665   1.806
  911SOL     OW 2867   1.606   3.125   3.100
  911SOL    HW1 2868   1.538   3.090   3.157
  911SOL    HW2 2869   1.678   3.062   3.107
  912SOL     OW 2870   1.292   0.927   1.633
  912SOL    HW1 2871   1.223   0.888   1.580
  912SOL    HW2 2872   1.304   0.866   1.706
  913SOL     OW 2873   0.339   0.669   2.174
  913SOL    HW1 2874   0.349   0.705   2.086
  913SOL    HW2 2875   0.289   0.588   2.162
  914SOL     OW 2876   0.471   0.406   0.005
  914SOL    HW1 2877   0.539   0.470  -0.013
  914SOL    HW2 2878   0.509   0.348   0.071
  915SOL     OW 2879   3.790   3.669   1.887
  915SOL    HW1 2880   3.881   3.662   1.917
  915SOL    HW2 2881   3.789   3.622   1.804
  916SOL     OW 2882   3.127   2.234   3.371
  916SOL    HW1 2883   3.107   2.151   3.414
  916SOL    HW2 2884   3.185   2.280   3.432
  917SOL     OW 2885   1.329   1.277   3.393
  917SOL    HW1 2886   1.420   1.301   3.409
  917SOL    HW2 2887   1.331   1.183   3.378
  918SOL     OW 2888   3.105   0.384   2.950
  918SOL    HW1 2889   3.130   0.427   2.868
  918SOL    HW2 2890   3.021   0.423   2.973
  919SOL     OW 2891   3.059   1.060   2.998
  919SOL    HW1 2892   3.126   1.095   2.939
  919SOL    HW2 2893   3.018   1.137   3.037
  920SOL     OW 2894   1.665   2.728   0.878
  920SOL    HW1 2895   1.658   2.731   0.973
  920SOL    HW2 2896   1.742   2.781   0.857
  921SOL     OW 2897   3.496   2.495   0.635
  921SOL    HW1 2898   3.551   2.420   0.610
  921SOL    HW2 2899   3.414   2.480   0.589
  922SOL     OW 2900   1.175   1.778   3.363
  922SOL    HW1 2901   1.259   1.733   3.354
  922SOL    HW2 2902   1.174   1.809   3.454
  923SOL     OW 2903   1.380   3.627   3.696
  923SOL    HW1 2904   1.303   3.669   3.735
  923SOL    HW2 2905   1.357   3.534   3.692
  924SOL     OW 2906   0.586   2.729   1.572
  924SOL    HW1 2907   0.620   2.750   1.485
  924SOL    HW2 2908   0.614   2.801   1.627
  925SOL     OW 2909   0.306   2.762   1.131
  925SOL    HW1 2910   0.316   2.857   1.123
  925SOL    HW2 2911   0.369   2.737   1.199
  926SOL     OW 2912   2.331   2.387   2.628
  926SOL    HW1 2913   2.334   2.295   2.602
  926SOL    HW2 2914   2.275   2.389   2.706
  927SOL     OW 2915   1.180   0.489   3.584
  927SOL    HW1 2916   1.215   0.400   3.580
  927SOL    HW2 2917   1.126   0.497   3.505
  928SOL     OW 2918   1.467   1.557   0.510
  928SOL    HW1 2919   1.489   1.466   0.527
  928SOL    HW2 2920   1.494   1.572   0.419
  929SOL     OW 2921   0.307   0.645   1.128
  929SOL    HW1 2922   0.258   0.565   1.107
  929SOL    HW2 2923   0.275   0.709   1.065
  930SOL     OW 2924   0.757   2.060   3.667
  930SOL    HW1 2925   0.697   2.084   3.738
  930SOL    HW2 2926   0.720   1.979   3.631
  931SOL     OW 2927   1.723   2.165   1.871
  931SOL    HW1 2928   1.759   2.249   1.900
  931SOL    HW2 2929   1.648   2.149   1.929
  932SOL     OW 2930   1.676   2.174   3.137
  932SOL    HW1 2931   1.587   2.211   3.141
  932SOL    HW2 2932   1.665   2.083   3.164
  933SOL     OW 2933  -0.031   2.342   2.524
  933SOL    HW1 2934   0.056   2.382   2.520
  933SOL    HW2 2935  -0.015   2.249   2.512
  934SOL     OW 2936   1.895   3.367   1.019
  934SOL    HW1 2937   1.821   3.353   1.077
  934SOL    HW2 2938   1.949   3.433   1.063
  935SOL     OW 2939   3.472   1.870   1.051
  935SOL    HW1 2940   3.512   1.798   1.101
  935SOL    HW2 2941   3.443   1.932   1.118
  936SOL     OW 2942   3.023   3.592   3.753
  936SOL    HW1 2943   2.955   3.655   3.773
  936SOL    HW2 2944   3.100   3.622   3.802
  937SOL     OW 2945   0.913   2.946   0.337
  937SOL    HW1 2946   0.900   2.960   0.431
  937SOL    HW2 2947   0.825   2.951   0.299
  938SOL     OW 2948   3.068   1.394   1.914
  938SOL    HW1 2949   3.088   1.441   1.833
  938SOL    HW2 2950   3.122   1.436   1.981
  939SOL     OW 2951   3.180   0.303   1.582
  939SOL    HW1 2952   3.128   0.224   1.567
  939SOL    HW2 2953   3.271   0.273   1.573
  940SOL     OW 2954   1.689   1.237   2.799
  940SOL    HW1 2955   1.763   1.220   2.741
  940SOL    HW2 2956   1.613   1.235   2.742
  941SOL     OW 2957   1.402   0.727   2.508
  941SOL    HW1 2958   1.452   0.798   2.548
  941SOL    HW2 2959   1.311   0.748   2.527
  942SOL     OW 2960   2.657   1.417   3.904
  942SOL    HW1 2961   2.564   1.407   3.886
  942SOL    HW2 2962   2.662   1.429   3.998
  943SOL     OW 2963   3.718   0.429   2.440
  943SOL    HW1 2964   3.656   0.404   2.509
  943SOL    HW2 2965   3.804   0.411   2.478
  944SOL     OW 2966   2.000   2.308   0.687
  944SOL    HW1 2967   1.942   2.369   0.731
  944SOL    HW2 2968   2.073   2.362   0.655
  945SOL     OW 2969   3.432   2.562   0.105
  945SOL    HW1 2970   3.504   2.504   0.130
  945SOL    HW2 2971   3.368   2.552   0.176
  946SOL     OW 2972   0.401   0.127   2.507
  946SOL    HW1 2973   0.417   0.083   2.424
  946SOL    HW2 2974   0.481   0.178   2.523
  947SOL     OW 2975   1.798   0.035   2.312
  947SOL    HW1 2976   1.796   0.097   2.386
  947SOL    HW2 2977   1.708   0.003   2.306
  948SOL     OW 2978   3.226   1.974   3.048
  948SOL    HW1 2979   3.251   1.887   3.079
  948SOL    HW2 2980   3.130   1.973   3.049
  949SOL     OW 2981   2.442   1.878   1.596
  949SOL    HW1 2982   2.375   1.813   1.616
  949SOL    HW2 2983   2.465   1.862   1.505
  950SOL     OW 2984   1.982   2.147   1.222
  950SOL    HW1 2985   2.000   2.054   1.209
  950SOL    HW2 2986   2.008   2.189   1.140
  951SOL     OW 2987   0.358   1.775   0.259
  951SOL    HW1 2988   0.442   1.730   0.272
  951SOL    HW2 2989   0.326   1.792   0.348
  952SOL     OW 2990   1.635   3.654   2.187
  952SOL    HW1 2991   1.644   3.709   2.265
  952SOL    HW2 2992   1.725   3.635   2.160
  953SOL     OW 2993   3.227   3.439   2.265
  953SOL    HW1 2994   3.209   3.349   2.291
  953SOL    HW2 2995   3.315   3.457   2.298
  954SOL     OW 2996   2.920   3.200   1.375
  954SOL    HW1 2997   2.890   3.147   1.449
  954SOL    HW2 2998   2.919   3.139   1.301
  955SOL     OW 2999   1.195   3.635   2.221
  955SOL    HW1 3000   1.232   3.603   2.304
  955SOL    HW2 3001   1.119   3.686   2.247
  956SOL     OW 3002   3.297   0.570   0.549
  956SOL    HW1 3003   3.300   0.495   0.608
  956SOL    HW2 3004   3.360   0.632   0.585
  957SOL     OW 3005   3.610   1.917   2.456
  957SOL    HW1 3006   3.543   1.917   2.387
  957SOL    HW2 3007   3.578   1.854   2.520
  958SOL     OW 3008   1.204   2.436   3.382
  958SOL    HW1 3009   1.128   2.452   3.326
  958SOL    HW2 3010   1.250   2.364   3.341
  959SOL     OW 3011   1.653   2.439   0.162
  959SOL    HW1 3012   1.567   2.423   0.124
  959SOL    HW2 3013   1.636   2.462   0.253
  960SOL     OW 3014   3.138   1.423   0.116
  960SOL    HW1 3015   3.073   1.493   0.123
  960SOL    HW2 3016   3.096   1.358   0.059
  961SOL     OW 3017   2.975   2.951   0.414
  961SOL    HW1 3018   2.883   2.957   0.387
  961SOL    HW2 3019   2.987   3.022   0.477
  962SOL     OW 3020   0.140   2.390   0.656
  962SOL    HW1 3021   0.057   2.410   0.613
  962SOL    HW2 3022   0.186   2.332   0.595
  963SOL     OW 3023   2.980   2.478   3.424
  963SOL    HW1 3024   3.009   2.524   3.345
  963SOL    HW2 3025   3.028   2.395   3.423
  964SOL     OW 3026   3.837   0.215   0.502
  964SOL    HW1 3027   3.846   0.301   0.543
  964SOL    HW2 3028   3.926   0.190   0.478
  965SOL     OW 3029   2.155   1.855   2.705
  965SOL    HW1 3030   2.229   1.823   2.756
  965SOL    HW2 3031   2.079   1.846   2.763
  966SOL     OW 3032   1.831   3.168   0.130
  966SOL    HW1 3033   1.810   3.113   0.205
  966SOL    HW2 3034   1.746   3.194   0.095
  967SOL     OW 3035   3.027   0.354   2.043
  967SOL    HW1 3036   3.110   0.381   2.004
  967SOL    HW2 3037   2.987   0.297   1.977
  968SOL     OW 3038   3.626   0.848   3.876
  968SOL    HW1 3039   3.624   0.769   3.821
  968SOL    HW2 3040   3.630   0.920   3.813
  969SOL     OW 3041   1.566   1.667   0.291
  969SOL    HW1 3042   1.630   1.721   0.245
  969SOL    HW2 3043   1.490   1.725   0.302
  970SOL     OW 3044   2.440   2.636   1.847
  970SOL    HW1 3045   2.534   2.648   1.838
  970SOL    HW2 3046   2.424   2.645   1.941
  971SOL     OW 3047   2.173   0.687   1.358
  971SOL    HW1 3048   2.206   0.713   1.443
  971SOL    HW2 3049   2.109   0.618   1.377
  972SOL     OW 3050   3.285   1.833   0.329
  972SOL    HW1 3051   3.232   1.906   0.296
  972SOL    HW2 3052   3.369   1.842   0.283
  973SOL     OW 3053   0.356   1.196   0.411
  973SOL    HW1 3054   0.417   1.202   0.338
  973SOL    HW2 3055   0.366   1.107   0.444
  974SOL     OW 3056   2.213   0.607   2.338
  974SOL    HW1 3057   2.172   0.546   2.400
  974SOL    HW2 3058   2.286   0.645   2.387
  975SOL     OW 3059   0.529   1.836   3.824
  975SOL    HW1 3060   0.509   1.929   3.822
  975SOL    HW2 3061   0.447   1.793   3.849
  976SOL     OW 3062   1.914   0.254   0.055
  976SOL    HW1 3063   2.000   0.295   0.064
  976SOL    HW2 3064   1.852   0.320   0.086
  977SOL     OW 3065   2.398   3.352   0.292
  977SOL    HW1 3066   2.411   3.296   0.215
  977SOL    HW2 3067   2.303   3.352   0.306
  978SOL     OW 3068   3.624   0.562   1.972
  978SOL    HW1 3069   3.602   0.547   2.064
  978SOL    HW2 3070   3.609   0.655   1.958
  979SOL     OW 3071   1.437   0.912   2.296
  979SOL    HW1 3072   1.420   0.829   2.341
  979SOL    HW2 3073   1.376   0.973   2.337
  980SOL     OW 3074   3.747   2.869   2.460
  980SOL    HW1 3075   3.666   2.868   2.410
  980SOL    HW2 3076   3.781   2.958   2.449
  981SOL     OW 3077   2.213   3.063   1.244
  981SOL    HW1 3078   2.215   3.028   1.334
  981SOL    HW2 3079   2.248   3.152   1.252
  982SOL     OW 3080   1.736   1.757   0.873
  982SOL    HW1 3081   1.726   1.757   0.777
  982SOL    HW2 3082   1.830   1.748   0.886
  983SOL     OW 3083   0.751   1.784   1.120
  983SOL    HW1 3084   0.816   1.719   1.092
  983SOL    HW2 3085   0.792   1.830   1.192
  984SOL     OW 3086   2.219   2.761   0.574
  984SOL    HW1 3087   2.300   2.777   0.623
  984SOL    HW2 3088   2.206   2.841   0.522
  985SOL     OW 3089   2.757   0.620   3.772
  985SOL    HW1 3090   2.718   0.640   3.857
  985SOL    HW2 3091   2.808   0.540   3.787
  986SOL     OW 3092   2.501   3.476   0.599
  986SOL    HW1 3093   2.417   3.510   0.568
  986SOL    HW2 3094   2.513   3.395   0.551
  987SOL     OW 3095   0.348   2.321   0.260
  987SOL    HW1 3096   0.366   2.254   0.194
  987SOL    HW2 3097   0.265   2.361   0.232
  988SOL     OW 3098   1.250   2.665   3.702
  988SOL    HW1 3099   1.261   2.759   3.716
  988SOL    HW2 3100   1.278   2.651   3.612
  989SOL     OW 3101   1.834   2.256   1.428
  989SOL    HW1 3102   1.866   2.206   1.353
  989SOL    HW2 3103   1.891   2.229   1.500
  990SOL     OW 3104   0.907   2.643   0.678
  990SOL    HW1 3105   0.966   2.604   0.742
  990SOL    HW2 3106   0.863   2.569   0.637
  991SOL     OW 3107   3.425   2.117   3.972
  991SOL    HW1 3108   3.476   2.122   3.891
  991SOL    HW2 3109   3.336   2.142   3.946
  992SOL     OW 3110   0.161   3.386   1.978
  992SOL    HW1 3111   0.176   3.378   2.072
  992SOL    HW2 3112   0.224   3.326   1.939
  993SOL     OW 3113   3.649   0.954   3.246
  993SOL    HW1 3114   3.659   0.963   3.151
  993SOL    HW2 3115   3.657   0.860   3.262
  994SOL     OW 3116   0.011   1.480   0.214
  994SOL    HW1 3117   0.026   1.515   0.302
  994SOL    HW2 3118   0.077   1.411   0.204
  995SOL     OW 3119   1.721   0.690   2.910
  995SOL    HW1 3120   1.766   0.695   2.994
  995SOL    HW2 3121   1.634   0.727   2.927
  996SOL     OW 3122   0.849   3.352   3.469
  996SOL    HW1 3123   0.874   3.382   3.556
  996SOL    HW2 3124   0.782   3.415   3.441
  997SOL     OW 3125   0.153   2.929   0.849
  997SOL    HW1 3126   0.169   2.837   0.868
  997SOL    HW2 3127   0.068   2.948   0.890
  998SOL     OW 3128   1.853   3.006   1.988
  998SOL    HW1 3129   1.827   3.095   1.963
  998SOL    HW2 3130   1.786   2.979   2.051
  999SOL     OW 3131   2.503   1.541   3.717
  999SOL    HW1 3132   2.475   1.618   3.766
  999SOL    HW2 3133   2.598   1.538   3.728
 1000SOL     OW 3134   3.206   3.752   2.819
 1000SOL    HW1 3135   3.130   3.699   2.841
 1000SOL    HW2 3136   3.278   3.710   2.866
 1001SOL     OW 3137   3.080   0.118   1.193
 1001SOL    HW1 3138   3.156   0.171   1.171
 1001SOL    HW2 3139   3.047   0.086   1.109
 1002SOL     OW 3140   0.446   3.167   0.696
 1002SOL    HW1 3141   0.521   3.133   0.647
 1002SOL    HW2 3142   0.374   3.108   0.675
 1003SOL     OW 3143   0.115   1.414   3.078
 1003SOL    HW1 3144   0.062   1.390   3.002
 1003SOL    HW2 3145   0.063   1.385   3.154
 1004SOL     OW 3146   2.078   0.430   0.280
 1004SOL    HW1 3147   2.006   0.367   0.281
 1004SOL    HW2 3148   2.072   0.472   0.194
 1005SOL     OW 3149   0.625   1.996   3.380
 1005SOL    HW1 3150   0.710   2.004   3.338
 1005SOL    HW2 3151   0.627   1.911   3.424
 1006SOL     OW 3152   3.235   0.364  -0.002
 1006SOL    HW1 3153   3.300   0.390   0.062
 1006SOL    HW2 3154   3.151   0.393   0.035
 1007SOL     OW 3155   1.914   2.127   1.677
 1007SOL    HW1 3156   1.859   2.118   1.755
 1007SOL    HW2 3157   1.973   2.052   1.681
 1008SOL     OW 3158   0.765   0.624   1.281
 1008SOL    HW1 3159   0.834   0.564   1.309
 1008SOL    HW2 3160   0.749   0.680   1.358
 1009SOL     OW 3161   0.315   0.560   0.636
 1009SOL    HW1 3162   0.367   0.539   0.713
 1009SOL    HW2 3163   0.332   0.488   0.575
 1010SOL     OW 3164   1.800   1.224   0.689
 1010SOL    HW1 3165   1.795   1.129   0.679
 1010SOL    HW2 3166   1.833   1.237   0.778
 1011SOL     OW 3167   1.178   1.857   1.220
 1011SOL    HW1 3168   1.162   1.789   1.286
 1011SOL    HW2 3169   1.271   1.875   1.226
 1012SOL     OW 3170   3.906   0.661   0.738
 1012SOL    HW1 3171   3.904   0.745   0.692
 1012SOL    HW2 3172   3.839   0.608   0.696
 1013SOL     OW 3173   3.061   1.951   2.304
 1013SOL    HW1 3174   3.039   1.991   2.388
 1013SOL    HW2 3175   2.997   1.880   2.294
 1014SOL     OW 3176   2.366   2.275   0.788
 1014SOL    HW1 3177   2.376   2.305   0.697
 1014SOL    HW2 3178   2.370   2.356   0.840
 1015SOL     OW 3179   3.821   1.523   1.014
 1015SOL    HW1 3180   3.801   1.489   1.101
 1015SOL    HW2 3181   3.739   1.517   0.966
 1016SOL     OW 3182   0.736   2.913   1.368
 1016SOL    HW1 3183   0.652   2.903   1.323
 1016SOL    HW2 3184   0.730   2.999   1.411
 1017SOL     OW 3185   0.769   1.605   2.732
 1017SOL    HW1 3186   0.742   1.683   2.782
 1017SOL    HW2 3187   0.706   1.538   2.759
 1018SOL     OW 3188   2.131   2.770   3.733
 1018SOL    HW1 3189   2.079   2.726   3.666
 1018SOL    HW2 3190   2.154   2.854   3.694
 1019SOL     OW 3191   1.244   3.176   2.301
 1019SOL    HW1 3192   1.157   3.143   2.323
 1019SOL    HW2 3193   1.249   3.172   2.206
 1020SOL     OW 3194   3.094   2.037   0.354
 1020SOL    HW1 3195   3.072   1.974   0.423
 1020SOL    HW2 3196   3.102   2.120   0.400
 1021SOL     OW 3197   0.427   3.724   3.735
 1021SOL    HW1 3198   0.338   3.718   3.771
 1021SOL    HW2 3199   0.473   3.782   3.795
 1022SOL     OW 3200   2.075   1.924   1.712
 1022SOL    HW1 3201   2.014   1.874   1.767
 1022SOL    HW2 3202   2.121   1.858   1.661
 1023SOL     OW 3203   2.910   0.927   3.798
 1023SOL    HW1 3204   2.902   0.870   3.721
 1023SOL    HW2 3205   3.000   0.960   3.794
 1024SOL     OW 3206   0.417   0.800   3.345
 1024SOL    HW1 3207   0.442   0.879   3.297
 1024SOL    HW2 3208   0.500   0.754   3.358
 1025SOL     OW 3209   0.911   1.898   0.091
 1025SOL    HW1 3210   0.891   1.827   0.030
 1025SOL    HW2 3211   0.826   1.939   0.108
 1026SOL     OW 3212   2.917   2.045   1.716
 1026SOL    HW1 3213   2.831   2.088   1.718
 1026SOL    HW2 3214   2.897   1.952   1.712
 1027SOL     OW 3215   0.676   2.051   0.156
 1027SOL    HW1 3216   0.615   2.059   0.083
 1027SOL    HW2 3217   0.709   2.140   0.170
 1028SOL     OW 3218   1.981   2.269   2.645
 1028SOL    HW1 3219   2.057   2.232   2.600
 1028SOL    HW2 3220   2.009   2.357   2.670
 1029SOL     OW 3221   2.840   0.025   3.602
 1029SOL    HW1 3222   2.773   0.023   3.671
 1029SOL    HW2 3223   2.903   0.090   3.634
 1030SOL     OW 3224   0.724   2.828   0.662
 1030SOL    HW1 3225   0.786   2.763   0.694
 1030SOL    HW2 3226   0.731   2.901   0.723
 1031SOL     OW 3227   3.449  -0.026   0.247
 1031SOL    HW1 3228   3.450   0.001   0.155
 1031SOL    HW2 3229   3.469   0.055   0.295
 1032SOL     OW 3230   0.318   3.844   0.601
 1032SOL    HW1 3231   0.333   3.921   0.656
 1032SOL    HW2 3232   0.374   3.777   0.638
 1033SOL     OW 3233   0.652   3.229   2.015
 1033SOL    HW1 3234   0.591   3.178   2.068
 1033SOL    HW2 3235   0.647   3.189   1.928
 1034SOL     OW 3236   0.217   2.249   0.965
 1034SOL    HW1 3237   0.222   2.342   0.986
 1034SOL    HW2 3238   0.150   2.244   0.896
 1035SOL     OW 3239   3.017   3.333   3.642
 1035SOL    HW1 3240   3.043   3.414   3.685
 1035SOL    HW2 3241   3.094   3.309   3.589
 1036SOL     OW 3242   0.515   3.577   3.265
 1036SOL    HW1 3243   0.559   3.607   3.344
 1036SOL    HW2 3244   0.449   3.644   3.247
 1037SOL     OW 3245   2.728   1.821   0.336
 1037SOL    HW1 3246   2.656   1.858   0.387
 1037SOL    HW2 3247   2.704   1.839   0.245
 1038SOL     OW 3248   1.237   3.691   3.258
 1038SOL    HW1 3249   1.239   3.617   3.196
 1038SOL    HW2 3250   1.192   3.656   3.335
 1039SOL     OW 3251   0.685   0.817   1.656
 1039SOL    HW1 3252   0.706   0.812   1.563
 1039SOL    HW2 3253   0.628   0.894   1.663
 1040SOL     OW 3254   0.386   2.559   3.446
 1040SOL    HW1 3255   0.389   2.472   3.406
 1040SOL    HW2 3256   0.370   2.618   3.372
 1041SOL     OW 3257   2.716   1.083   1.390
 1041SOL    HW1 3258   2.631   1.106   1.354
 1041SOL    HW2 3259   2.736   1.152   1.452
 1042SOL     OW 3260   2.271   3.465   1.560
 1042SOL    HW1 3261   2.298   3.557   1.556
 1042SOL    HW2 3262   2.265   3.438   1.468
 1043SOL     OW 3263   2.822   0.200   0.019
 1043SOL    HW1 3264   2.891   0.147  -0.022
 1043SOL    HW2 3265   2.764   0.136   0.060
 1044SOL     OW 3266   0.531   1.991   1.465
 1044SOL    HW1 3267   0.496   1.953   1.545
 1044SOL    HW2 3268   0.603   1.933   1.439
 1045SOL     OW 3269   2.612   1.474   0.840
 1045SOL    HW1 3270   2.684   1.413   0.824
 1045SOL    HW2 3271   2.533   1.427   0.813
 1046SOL     OW 3272   3.625   0.293   3.460
 1046SOL    HW1 3273   3.655   0.244   3.383
 1046SOL    HW2 3274   3.670   0.251   3.534
 1047SOL     OW 3275   1.074   1.666   0.140
 1047SOL    HW1 3276   1.028   1.642   0.220
 1047SOL    HW2 3277   1.041   1.753   0.117
 1048SOL     OW 3278   0.601   2.459  -0.032
 1048SOL    HW1 3279   0.566   2.505   0.044
 1048SOL    HW2 3280   0.691   2.438  -0.008
 1049SOL     OW 3281   3.309   2.486   2.084
 1049SOL    HW1 3282   3.356   2.558   2.042
 1049SOL    HW2 3283   3.246   2.457   2.019
 1050SOL     OW 3284   3.363   1.885   1.389
 1050SOL    HW1 3285   3.441   1.855   1.343
 1050SOL    HW2 3286   3.377   1.979   1.401
 1051SOL     OW 3287   0.577   0.562   2.354
 1051SOL    HW1 3288   0.506   0.553   2.290
 1051SOL    HW2 3289   0.621   0.643   2.329
 1052SOL     OW 3290   2.244   1.671   2.510
 1052SOL    HW1 3291   2.216   1.738   2.572
 1052SOL    HW2 3292   2.164   1.642   2.468
 1053SOL     OW 3293   0.650   1.038   3.533
 1053SOL    HW1 3294   0.587   1.059   3.464
 1053SOL    HW2 3295   0.734   1.038   3.489
 1054SOL     OW 3296   3.520   3.176   1.257
 1054SOL    HW1 3297   3.464   3.237   1.210
 1054SOL    HW2 3298   3.483   3.090   1.240
 1055SOL     OW 3299   2.804   3.466   0.328
 1055SOL    HW1 3300   2.831   3.534   0.390
 1055SOL    HW2 3301   2.883   3.414   0.314
 1056SOL     OW 3302   2.520   0.918   1.130
 1056SOL    HW1 3303   2.613   0.935   1.119
 1056SOL    HW2 3304   2.513   0.876   1.216
 1057SOL     OW 3305   3.350   2.139   3.212
 1057SOL    HW1 3306   3.277   2.196   3.236
 1057SOL    HW2 3307   3.317   2.089   3.137
 1058SOL     OW 3308   0.120   0.796   3.705
 1058SOL    HW1 3309   0.194   0.764   3.653
 1058SOL    HW2 3310   0.093   0.721   3.757
 1059SOL     OW 3311   3.028   2.487   2.724
 1059SOL    HW1 3312   3.090   2.419   2.697
 1059SOL    HW2 3313   3.073   2.569   2.706
 1060SOL     OW 3314   1.044   0.514   0.350
 1060SOL    HW1 3315   0.960   0.544   0.387
 1060SOL    HW2 3316   1.033   0.420   0.340
 1061SOL     OW 3317   2.309   1.184   3.009
 1061SOL    HW1 3318   2.227   1.152   3.046
 1061SOL    HW2 3319   2.323   1.132   2.930
 1062SOL     OW 3320   1.096   2.172   3.024
 1062SOL    HW1 3321   1.068   2.263   3.033
 1062SOL    HW2 3322   1.029   2.131   2.969
 1063SOL     OW 3323   2.855   1.774   2.312
 1063SOL    HW1 3324   2.854   1.735   2.224
 1063SOL    HW2 3325   2.906   1.712   2.365
 1064SOL     OW 3326   3.023   0.172   2.560
 1064SOL    HW1 3327   3.093   0.107   2.553
 1064SOL    HW2 3328   3.043   0.236   2.492
 1065SOL     OW 3329   3.639   1.005   3.507
 1065SOL    HW1 3330   3.716   0.952   3.530
 1065SOL    HW2 3331   3.640   1.007   3.411
 1066SOL     OW 3332   1.150   2.999   0.933
 1066SOL    HW1 3333   1.179   2.929   0.875
 1066SOL    HW2 3334   1.132   2.955   1.016
 1067SOL     OW 3335   3.546   2.904   1.184
 1067SOL    HW1 3336   3.470   2.849   1.163
 1067SOL    HW2 3337   3.598   2.905   1.104
 1068SOL     OW 3338   0.251   1.464   2.475
 1068SOL    HW1 3339   0.186   1.528   2.446
 1068SOL    HW2 3340   0.335   1.510   2.469
 1069SOL     OW 3341   0.991   1.033   1.657
 1069SOL    HW1 3342   1.060   1.099   1.667
 1069SOL    HW2 3343   0.920   1.079   1.612
 1070SOL     OW 3344   0.113   3.560   0.791
 1070SOL    HW1 3345   0.158   3.576   0.875
 1070SOL    HW2 3346   0.164   3.491   0.749
 1071SOL     OW 3347   2.195   3.592   3.115
 1071SOL    HW1 3348   2.155   3.650   3.051
 1071SOL    HW2 3349   2.215   3.512   3.066
 1072SOL     OW 3350   2.075   3.245   0.029
 1072SOL    HW1 3351   1.987   3.219   0.053
 1072SOL    HW2 3352   2.069   3.269  -0.063
 1073SOL     OW 3353   0.635   2.238   2.633
 1073SOL    HW1 3354   0.698   2.274   2.696
 1073SOL    HW2 3355   0.679   2.160   2.598
 1074SOL     OW 3356   2.043   3.859   2.202
 1074SOL    HW1 3357   1.949   3.869   2.218
 1074SOL    HW2 3358   2.085   3.914   2.269
 1075SOL     OW 3359   0.841   2.325   0.633
 1075SOL    HW1 3360   0.863   2.235   0.611
 1075SOL    HW2 3361   0.754   2.320   0.672
 1076SOL     OW 3362   2.527   3.373   0.840
 1076SOL    HW1 3363   2.522   3.411   0.753
 1076SOL    HW2 3364   2.479   3.290   0.833
 1077SOL     OW 3365   1.289   0.889   3.960
 1077SOL    HW1 3366   1.286   0.896   3.865
 1077SOL    HW2 3367   1.199   0.902   3.989
 1078SOL     OW 3368   1.361   1.903   1.895
 1078SOL    HW1 3369   1.311   1.944   1.824
 1078SOL    HW2 3370   1.409   1.832   1.853
 1079SOL     OW 3371   1.781   3.013   3.325
 1079SOL    HW1 3372   1.741   2.936   3.365
 1079SOL    HW2 3373   1.874   3.007   3.348
 1080SOL     OW 3374   1.095   0.923   0.751
 1080SOL    HW1 3375   1.134   0.997   0.797
 1080SOL    HW2 3376   1.165   0.889   0.696
 1081SOL     OW 3377   1.383   0.232   3.646
 1081SOL    HW1 3378   1.455   0.203   3.590
 1081SOL    HW2 3379   1.310   0.174   3.624
 1082SOL     OW 3380   2.128   0.049   3.058
 1082SOL    HW1 3381   2.063   0.116   3.081
 1082SOL    HW2 3382   2.187   0.047   3.133
 1083SOL     OW 3383   0.761   0.879   3.252
 1083SOL    HW1 3384   0.707   0.802   3.235
 1083SOL    HW2 3385   0.831   0.847   3.310
 1084SOL     OW 3386   0.923   0.285   0.295
 1084SOL    HW1 3387   0.883   0.259   0.211
 1084SOL    HW2 3388   0.969   0.207   0.324
 1085SOL     OW 3389   1.316   1.764   2.336
 1085SOL    HW1 3390   1.295   1.759   2.429
 1085SOL    HW2 3391   1.305   1.675   2.304
 1086SOL     OW 3392   2.807   2.352   2.204
 1086SOL    HW1 3393   2.882   2.303   2.239
 1086SOL    HW2 3394   2.805   2.328   2.111
 1087SOL     OW 3395   3.295   3.033   1.719
 1087SOL    HW1 3396   3.241   3.028   1.640
 1087SOL    HW2 3397   3.239   3.000   1.789
 1088SOL     OW 3398   1.698   3.456   3.861
 1088SOL    HW1 3399   1.620   3.418   3.902
 1088SOL    HW2 3400   1.750   3.490   3.933
 1089SOL     OW 3401   2.594   0.024   2.271
 1089SOL    HW1 3402   2.688   0.013   2.284
 1089SOL    HW2 3403   2.579  -0.006   2.181
 1090SOL     OW 3404   2.831   3.875   2.691
 1090SOL    HW1 3405   2.831   3.961   2.649
 1090SOL    HW2 3406   2.856   3.815   2.621
 1091SOL     OW 3407   1.610   0.066   3.580
 1091SOL    HW1 3408   1.615  -0.030   3.587
 1091SOL    HW2 3409   1.624   0.097   3.669
 1092SOL     OW 3410   1.518   2.196   2.068
 1092SOL    HW1 3411   1.485   2.276   2.108
 1092SOL    HW2 3412   1.458   2.127   2.098
 1093SOL     OW 3413   3.419   1.325   3.725
 1093SOL    HW1 3414   3.334   1.290   3.697
 1093SOL    HW2 3415   3.477   1.309   3.651
 1094SOL     OW 3416   1.082   0.903   3.260
 1094SOL    HW1 3417   1.039   0.930   3.341
 1094SOL    HW2 3418   1.173   0.933   3.270
 1095SOL     OW 3419   3.149   0.164   0.353
 1095SOL    HW1 3420   3.173   0.100   0.287
 1095SOL    HW2 3421   3.106   0.234   0.304
 1096SOL     OW 3422   1.391   1.666   2.878
 1096SOL    HW1 3423   1.308   1.652   2.923
 1096SOL    HW2 3424   1.456   1.669   2.948
 1097SOL     OW 3425   1.909   0.503   2.059
 1097SOL    HW1 3426   1.965   0.581   2.060
 1097SOL    HW2 3427   1.932   0.455   2.138
 1098SOL     OW 3428   3.144   1.106   0.154
 1098SOL    HW1 3429   3.086   1.150   0.091
 1098SOL    HW2 3430   3.154   1.018   0.118
 1099SOL     OW 3431   2.520   3.129   3.222
 1099SOL    HW1 3432   2.574   3.051   3.233
 1099SOL    HW2 3433   2.436   3.096   3.191
 1100SOL     OW 3434   1.742   2.932   2.916
 1100SOL    HW1 3435   1.815   2.871   2.903
 1100SOL    HW2 3436   1.780   3.018   2.903
 1101SOL     OW 3437   2.406   2.426   3.451
 1101SOL    HW1 3438   2.321   2.384   3.444
 1101SOL    HW2 3439   2.435   2.410   3.540
 1102SOL     OW 3440   2.237   3.698   0.813
 1102SOL    HW1 3441   2.205   3.730   0.898
 1102SOL    HW2 3442   2.332   3.702   0.820
 1103SOL     OW 3443   1.382   0.214   2.014
 1103SOL    HW1 3444   1.298   0.177   2.042
 1103SOL    HW2 3445   1.441   0.197   2.087
 1104SOL     OW 3446   2.553   3.478   2.761
 1104SOL    HW1 3447   2.645   3.501   2.772
 1104SOL    HW2 3448   2.530   3.434   2.842
 1105SOL     OW 3449   0.561   0.365   0.625
 1105SOL    HW1 3450   0.635   0.304   0.618
 1105SOL    HW2 3451   0.528   0.351   0.713
 1106SOL     OW 3452   2.480   0.253   0.126
 1106SOL    HW1 3453   2.453   0.163   0.143
 1106SOL    HW2 3454   2.417   0.285   0.062
 1107SOL     OW 3455   3.255   2.454   3.081
 1107SOL    HW1 3456   3.328   2.475   3.139
 1107SOL    HW2 3457   3.292   2.396   3.015
 1108SOL     OW 3458   3.569   2.381   2.122
 1108SOL    HW1 3459   3.584   2.296   2.081
 1108SOL    HW2 3460   3.476   2.381   2.145
 1109SOL     OW 3461   3.774   0.969   1.351
 1109SOL    HW1 3462   3.726   0.941   1.274
 1109SOL    HW2 3463   3.707   1.000   1.412
 1110SOL     OW 3464   1.274   1.276   0.617
 1110SOL    HW1 3465   1.360   1.237   0.634
 1110SOL    HW2 3466   1.231   1.214   0.558
 1111SOL     OW 3467   0.907   0.800   3.518
 1111SOL    HW1 3468   0.896   0.852   3.597
 1111SOL    HW2 3469   0.958   0.724   3.546
 1112SOL     OW 3470   0.586   3.165   3.223
 1112SOL    HW1 3471   0.556   3.194   3.309
 1112SOL    HW2 3472   0.618   3.245   3.180
 1113SOL     OW 3473   1.640   1.855   3.483
 1113SOL    HW1 3474   1.717   1.881   3.431
 1113SOL    HW2 3475   1.671   1.856   3.573
 1114SOL     OW 3476   2.778   0.182   1.861
 1114SOL    HW1 3477   2.723   0.219   1.792
 1114SOL    HW2 3478   2.767   0.088   1.853
 1115SOL     OW 3479   1.359   0.694   1.070
 1115SOL    HW1 3480   1.275   0.734   1.093
 1115SOL    HW2 3481   1.419   0.768   1.060
 1116SOL     OW 3482   2.749   3.583   1.800
 1116SOL    HW1 3483   2.658   3.554   1.810
 1116SOL    HW2 3484   2.793   3.551   1.879
 1117SOL     OW 3485   0.555   2.814   0.909
 1117SOL    HW1 3486   0.462   2.836   0.910
 1117SOL    HW2 3487   0.599   2.896   0.932
 1118SOL     OW 3488   1.789   0.674   3.200
 1118SOL    HW1 3489   1.761   0.676   3.291
 1118SOL    HW2 3490   1.884   0.670   3.204
 1119SOL     OW 3491   1.857   3.832   0.783
 1119SOL    HW1 3492   1.911   3.754   0.771
 1119SOL    HW2 3493   1.916   3.905   0.766
 1120SOL     OW 3494   1.482   1.647   3.813
 1120SOL    HW1 3495   1.452   1.558   3.793
 1120SOL    HW2 3496   1.524   1.640   3.899
 1121SOL     OW 3497   1.891   3.615   3.089
 1121SOL    HW1 3498   1.844   3.693   3.061
 1121SOL    HW2 3499   1.979   3.626   3.052
 1122SOL     OW 3500   2.258   2.114   2.872
 1122SOL    HW1 3501   2.213   2.032   2.895
 1122SOL    HW2 3502   2.346   2.086   2.844
 1123SOL     OW 3503   0.132   1.759   2.395
 1123SOL    HW1 3504   0.051   1.795   2.429
 1123SOL    HW2 3505   0.158   1.820   2.326
 1124SOL     OW 3506   0.395   1.836   2.994
 1124SOL    HW1 3507   0.451   1.816   3.068
 1124SOL    HW2 3508   0.307   1.842   3.031
 1125SOL     OW 3509   2.640   3.113   1.777
 1125SOL    HW1 3510   2.589   3.036   1.751
 1125SOL    HW2 3511   2.622   3.123   1.870
 1126SOL     OW 3512   3.819   1.018   2.690
 1126SOL    HW1 3513   3.806   1.031   2.596
 1126SOL    HW2 3514   3.889   1.079   2.713
 1127SOL     OW 3515   3.741   3.146   2.394
 1127SOL    HW1 3516   3.744   3.147   2.298
 1127SOL    HW2 3517   3.798   3.218   2.420
 1128SOL     OW 3518   3.632   0.959   2.918
 1128SOL    HW1 3519   3.536   0.959   2.915
 1128SOL    HW2 3520   3.658   0.919   2.835
 1129SOL     OW 3521   2.974   2.640   1.953
 1129SOL    HW1 3522   2.934   2.590   2.024
 1129SOL    HW2 3523   3.049   2.586   1.926
 1130SOL     OW 3524   2.781   3.262   3.541
 1130SOL    HW1 3525   2.843   3.302   3.601
 1130SOL    HW2 3526   2.832   3.242   3.463
 1131SOL     OW 3527   3.076   1.767  -0.016
 1131SOL    HW1 3528   3.165   1.782  -0.046
 1131SOL    HW2 3529   3.085   1.740   0.075
 1132SOL     OW 3530   2.743   2.620   2.520
 1132SOL    HW1 3531   2.792   2.692   2.560
 1132SOL    HW2 3532   2.684   2.590   2.589
 1133SOL     OW 3533   0.159   0.466   2.232
 1133SOL    HW1 3534   0.141   0.509   2.315
 1133SOL    HW2 3535   0.073   0.437   2.201
 1134SOL     OW 3536   0.265   0.118   2.896
 1134SOL    HW1 3537   0.257   0.174   2.972
 1134SOL    HW2 3538   0.343   0.149   2.851
 1135SOL     OW 3539   1.908   3.608   2.115
 1135SOL    HW1 3540   1.941   3.667   2.048
 1135SOL    HW2 3541   1.983   3.589   2.170
 1136SOL     OW 3542   1.577   3.306   0.099
 1136SOL    HW1 3543   1.599   3.364   0.172
 1136SOL    HW2 3544   1.560   3.221   0.140
 1137SOL     OW 3545   1.954   2.375   0.388
 1137SOL    HW1 3546   1.976   2.341   0.301
 1137SOL    HW2 3547   1.894   2.309   0.424
 1138SOL     OW 3548   0.773   0.345   3.299
 1138SOL    HW1 3549   0.777   0.336   3.394
 1138SOL    HW2 3550   0.806   0.261   3.266
 1139SOL     OW 3551   2.799   2.803   3.863
 1139SOL    HW1 3552   2.843   2.780   3.781
 1139SOL    HW2 3553   2.758   2.888   3.844
 1140SOL     OW 3554   0.071   3.622   3.152
 1140SOL    HW1 3555   0.131   3.672   3.097
 1140SOL    HW2 3556   0.018   3.571   3.090
 1141SOL     OW 3557   2.474   2.425   3.716
 1141SOL    HW1 3558   2.559   2.462   3.691
 1141SOL    HW2 3559   2.458   2.461   3.803
 1142SOL     OW 3560   1.335   0.197   2.735
 1142SOL    HW1 3561   1.347   0.145   2.655
 1142SOL    HW2 3562   1.288   0.275   2.706
 1143SOL     OW 3563   2.431   3.091   3.596
 1143SOL    HW1 3564   2.459   3.015   3.647
 1143SOL    HW2 3565   2.507   3.113   3.542
 1144SOL     OW 3566   1.136   3.574   2.795
 1144SOL    HW1 3567   1.150   3.578   2.890
 1144SOL    HW2 3568   1.209   3.625   2.758
 1145SOL     OW 3569   3.223   0.837   0.145
 1145SOL    HW1 3570   3.312   0.855   0.176
 1145SOL    HW2 3571   3.233   0.762   0.086
 1146SOL     OW 3572   2.284   0.428   0.935
 1146SOL    HW1 3573   2.226   0.496   0.900
 1146SOL    HW2 3574   2.235   0.391   1.009
 1147SOL     OW 3575   0.992   3.081   2.334
 1147SOL    HW1 3576   0.986   3.023   2.258
 1147SOL    HW2 3577   0.944   3.035   2.403
 1148SOL     OW 3578   3.636   2.305   0.131
 1148SOL    HW1 3579   3.651   2.257   0.213
 1148SOL    HW2 3580   3.565   2.257   0.088
 1149SOL     OW 3581   1.997   0.797   3.875
 1149SOL    HW1 3582   2.029   0.886   3.885
 1149SOL    HW2 3583   1.907   0.807   3.844
 1150SOL     OW 3584   0.730   1.201   3.838
 1150SOL    HW1 3585   0.793   1.201   3.766
 1150SOL    HW2 3586   0.647   1.176   3.798
 1151SOL     OW 3587   0.203   2.783   3.273
 1151SOL    HW1 3588   0.231   2.872   3.292
 1151SOL    HW2 3589   0.137   2.763   3.339
 1152SOL     OW 3590   1.606   2.567   0.419
 1152SOL    HW1 3591   1.548   2.609   0.483
 1152SOL    HW2 3592   1.693   2.600   0.441
 1153SOL     OW 3593   1.234   3.031   0.512
 1153SOL    HW1 3594   1.248   3.101   0.576
 1153SOL    HW2 3595   1.157   2.985   0.543
 1154SOL     OW 3596   1.490   0.445   1.954
 1154SOL    HW1 3597   1.444   0.366   1.981
 1154SOL    HW2 3598   1.488   0.502   2.031
 1155SOL     OW 3599   1.823   0.726   1.081
 1155SOL    HW1 3600   1.907   0.700   1.043
 1155SOL    HW2 3601   1.807   0.814   1.047
 1156SOL     OW 3602   2.568   2.194   0.986
 1156SOL    HW1 3603   2.583   2.284   1.014
 1156SOL    HW2 3604   2.504   2.201   0.915
 1157SOL     OW 3605   1.902   3.105   3.712
 1157SOL    HW1 3606   1.984   3.066   3.683
 1157SOL    HW2 3607   1.908   3.197   3.688
 1158SOL     OW 3608   2.295   1.211   2.534
 1158SOL    HW1 3609   2.351   1.162   2.474
 1158SOL    HW2 3610   2.312   1.174   2.620
 1159SOL     OW 3611   0.957   1.259   3.092
 1159SOL    HW1 3612   1.034   1.299   3.052
 1159SOL    HW2 3613   0.970   1.165   3.079
 1160SOL     OW 3614   1.038   1.471   1.368
 1160SOL    HW1 3615   1.026   1.422   1.286
 1160SOL    HW2 3616   0.957   1.521   1.377
 1161SOL     OW 3617   1.362   1.760   3.134
 1161SOL    HW1 3618   1.415   1.739   3.211
 1161SOL    HW2 3619   1.272   1.757   3.167
 1162SOL     OW 3620   2.694   3.121   2.430
 1162SOL    HW1 3621   2.634   3.048   2.419
 1162SOL    HW2 3622   2.769   3.099   2.375
 1163SOL     OW 3623   2.867   0.375   3.786
 1163SOL    HW1 3624   2.914   0.318   3.726
 1163SOL    HW2 3625   2.858   0.324   3.867
 1164SOL     OW 3626   0.973   2.630   1.140
 1164SOL    HW1 3627   0.890   2.663   1.109
 1164SOL    HW2 3628   0.953   2.591   1.226
 1165SOL     OW 3629   1.069   3.224   1.070
 1165SOL    HW1 3630   1.009   3.156   1.101
 1165SOL    HW2 3631   1.119   3.183   1.000
 1166SOL     OW 3632   2.924   0.214   2.806
 1166SOL    HW1 3633   3.005   0.249   2.842
 1166SOL    HW2 3634   2.946   0.189   2.717
 1167SOL     OW 3635   0.647   3.394  -0.018
 1167SOL    HW1 3636   0.598   3.467   0.022
 1167SOL    HW2 3637   0.723   3.383   0.039
 1168SOL     OW 3638   3.075   0.744   0.558
 1168SOL    HW1 3639   3.154   0.696   0.537
 1168SOL    HW2 3640   3.106   0.824   0.601
 1169SOL     OW 3641   1.183   1.993   0.473
 1169SOL    HW1 3642   1.222   1.932   0.411
 1169SOL    HW2 3643   1.258   2.035   0.516
 1170SOL     OW 3644   1.152   0.318   2.972
 1170SOL    HW1 3645   1.180   0.410   2.969
 1170SOL    HW2 3646   1.179   0.282   2.888
 1171SOL     OW 3647   0.555   1.779   2.783
 1171SOL    HW1 3648   0.597   1.864   2.769
 1171SOL    HW2 3649   0.515   1.786   2.869
 1172SOL     OW 3650   2.064   1.099   1.121
 1172SOL    HW1 3651   2.014   1.029   1.162
 1172SOL    HW2 3652   2.154   1.084   1.149
 1173SOL     OW 3653   1.587   3.797   1.104
 1173SOL    HW1 3654   1.583   3.811   1.009
 1173SOL    HW2 3655   1.578   3.885   1.141
 1174SOL     OW 3656   3.485   2.973   3.122
 1174SOL    HW1 3657   3.551   2.993   3.055
 1174SOL    HW2 3658   3.464   3.057   3.161
 1175SOL     OW 3659   1.844   1.418   2.451
 1175SOL    HW1 3660   1.754   1.386   2.440
 1175SOL    HW2 3661   1.875   1.372   2.529
 1176SOL     OW 3662   1.798   2.744   3.496
 1176SOL    HW1 3663   1.790   2.722   3.403
 1176SOL    HW2 3664   1.885   2.714   3.521
 1177SOL     OW 3665   0.945   0.706   1.620
 1177SOL    HW1 3666   0.987   0.785   1.586
 1177SOL    HW2 3667   0.869   0.739   1.669
 1178SOL     OW 3668   3.210   2.404   1.043
 1178SOL    HW1 3669   3.200   2.466   1.115
 1178SOL    HW2 3670   3.122   2.370   1.029
 1179SOL     OW 3671   3.341   1.541   3.908
 1179SOL    HW1 3672   3.273   1.515   3.970
 1179SOL    HW2 3673   3.356   1.462   3.855
 1180SOL     OW 3674   2.315   1.081   1.216
 1180SOL    HW1 3675   2.359   1.091   1.300
 1180SOL    HW2 3676   2.379   1.036   1.160
 1181SOL     OW 3677   3.858   3.863   2.953
 1181SOL    HW1 3678   3.771   3.843   2.918
 1181SOL    HW2 3679   3.873   3.954   2.928
 1182SOL     OW 3680   1.591   1.734   2.410
 1182SOL    HW1 3681   1.610   1.756   2.501
 1182SOL    HW2 3682   1.505   1.774   2.394
 1183SOL     OW 3683   3.874   3.725   2.614
 1183SOL    HW1 3684   3.806   3.745   2.679
 1183SOL    HW2 3685   3.861   3.791   2.546
 1184SOL     OW 3686   3.308   3.836   3.286
 1184SOL    HW1 3687   3.331   3.772   3.219
 1184SOL    HW2 3688   3.352   3.804   3.365
 1185SOL     OW 3689   3.642   0.518   0.720
 1185SOL    HW1 3690   3.665   0.537   0.629
 1185SOL    HW2 3691   3.693   0.440   0.742
 1186SOL     OW 3692   3.186   2.326   3.827
 1186SOL    HW1 3693   3.155   2.416   3.816
 1186SOL    HW2 3694   3.119   2.272   3.784
 1187SOL     OW 3695   0.455   3.779   2.721
 1187SOL    HW1 3696   0.413   3.842   2.662
 1187SOL    HW2 3697   0.496   3.833   2.788
 1188SOL     OW 3698   0.495   0.251   3.736
 1188SOL    HW1 3699   0.409   0.211   3.730
 1188SOL    HW2 3700   0.492   0.304   3.816
 1189SOL     OW 3701   3.971   3.055   1.923
 1189SOL    HW1 3702   4.017   3.019   1.848
 1189SOL    HW2 3703   3.895   3.100   1.886
 1190SOL     OW 3704   1.108   2.575   3.925
 1190SOL    HW1 3705   1.037   2.618   3.878
 1190SOL    HW2 3706   1.186   2.588   3.870
 1191SOL     OW 3707   1.883   0.994   2.327
 1191SOL    HW1 3708   1.953   1.056   2.347
 1191SOL    HW2 3709   1.922   0.933   2.264
 1192SOL     OW 3710   3.541   2.221   0.432
 1192SOL    HW1 3711   3.537   2.165   0.509
 1192SOL    HW2 3712   3.451   2.225   0.400
 1193SOL     OW 3713   0.024   0.550   1.254
 1193SOL    HW1 3714   0.042   0.574   1.163
 1193SOL    HW2 3715   0.089   0.482   1.274
 1194SOL     OW 3716   1.051   0.871   1.882
 1194SOL    HW1 3717   1.105   0.917   1.946
 1194SOL    HW2 3718   1.037   0.934   1.812
 1195SOL     OW 3719   0.462   0.561   0.860
 1195SOL    HW1 3720   0.407   0.612   0.920
 1195SOL    HW2 3721   0.548   0.560   0.900
 1196SOL     OW 3722   0.295   3.087   1.380
 1196SOL    HW1 3723   0.346   3.168   1.377
 1196SOL    HW2 3724   0.259   3.084   1.468
 1197SOL     OW 3725   0.025   2.073   0.688
 1197SOL    HW1 3726   0.108   2.069   0.641
 1197SOL    HW2 3727  -0.040   2.090   0.619
 1198SOL     OW 3728   0.836   0.871   2.070
 1198SOL    HW1 3729   0.909   0.849   2.012
 1198SOL    HW2 3730   0.790   0.942   2.024
 1199SOL     OW 3731   3.227   1.824   3.312
 1199SOL    HW1 3732   3.194   1.905   3.351
 1199SOL    HW2 3733   3.192   1.755   3.368
 1200SOL     OW 3734   0.779   3.195   2.632
 1200SOL    HW1 3735   0.764   3.276   2.681
 1200SOL    HW2 3736   0.709   3.194   2.566
 1201SOL     OW 3737   2.301   3.181   1.648
 1201SOL    HW1 3738   2.296   3.268   1.608
 1201SOL    HW2 3739   2.256   3.191   1.732
 1202SOL     OW 3740   3.276   2.377   1.483
 1202SOL    HW1 3741   3.214   2.334   1.543
 1202SOL    HW2 3742   3.311   2.450   1.534
 1203SOL     OW 3743   1.741   0.720   3.789
 1203SOL    HW1 3744   1.765   0.652   3.852
 1203SOL    HW2 3745   1.651   0.699   3.765
 1204SOL     OW 3746   2.896   0.539   2.928
 1204SOL    HW1 3747   2.808   0.503   2.917
 1204SOL    HW2 3748   2.917   0.578   2.843
 1205SOL     OW 3749   0.977   2.039   1.078
 1205SOL    HW1 3750   1.003   1.948   1.063
 1205SOL    HW2 3751   0.890   2.046   1.038
 1206SOL     OW 3752   0.488   2.952   1.246
 1206SOL    HW1 3753   0.410   2.989   1.285
 1206SOL    HW2 3754   0.503   3.005   1.168
 1207SOL     OW 3755   1.351   0.426   3.237
 1207SOL    HW1 3756   1.414   0.495   3.217
 1207SOL    HW2 3757   1.270   0.454   3.194
 1208SOL     OW 3758   1.623   1.065   0.377
 1208SOL    HW1 3759   1.696   1.016   0.414
 1208SOL    HW2 3760   1.601   1.019   0.296
 1209SOL     OW 3761   0.462   1.725   1.351
 1209SOL    HW1 3762   0.459   1.757   1.261
 1209SOL    HW2 3763   0.487   1.633   1.343
 1210SOL     OW 3764   0.177   3.787   2.942
 1210SOL    HW1 3765   0.215   3.862   2.895
 1210SOL    HW2 3766   0.084   3.792   2.922
 1211SOL     OW 3767   1.872   1.509   0.344
 1211SOL    HW1 3768   1.808   1.459   0.396
 1211SOL    HW2 3769   1.957   1.474   0.371
 1212SOL     OW 3770   0.574   0.506   2.981
 1212SOL    HW1 3771   0.486   0.541   2.968
 1212SOL    HW2 3772   0.629   0.556   2.920
 1213SOL     OW 3773   0.350   3.616   0.966
 1213SOL    HW1 3774   0.398   3.536   0.990
 1213SOL    HW2 3775   0.359   3.673   1.042
 1214SOL     OW 3776   3.627   0.702   0.918
 1214SOL    HW1 3777   3.604   0.669   0.831
 1214SOL    HW2 3778   3.670   0.629   0.961
 1215SOL     OW 3779   3.566   3.948   1.168
 1215SOL    HW1 3780   3.519   3.982   1.244
 1215SOL    HW2 3781   3.525   3.864   1.149
 1216SOL     OW 3782   1.888   0.361   1.044
 1216SOL    HW1 3783   1.916   0.421   0.974
 1216SOL    HW2 3784   1.792   0.366   1.043
 1217SOL     OW 3785   0.317   0.730   1.897
 1217SOL    HW1 3786   0.270   0.790   1.838
 1217SOL    HW2 3787   0.399   0.712   1.852
 1218SOL     OW 3788   3.644   1.720   3.126
 1218SOL    HW1 3789   3.554   1.691   3.116
 1218SOL    HW2 3790   3.695   1.639   3.136
 1219SOL     OW 3791   0.882   2.234   1.343
 1219SOL    HW1 3792   0.833   2.263   1.266
 1219SOL    HW2 3793   0.965   2.201   1.307
 1220SOL     OW 3794   0.374   1.808   1.091
 1220SOL    HW1 3795   0.329   1.891   1.108
 1220SOL    HW2 3796   0.320   1.765   1.025
 1221SOL     OW 3797   2.138   2.495   1.573
 1221SOL    HW1 3798   2.178   2.433   1.634
 1221SOL    HW2 3799   2.050   2.509   1.607
 1222SOL     OW 3800   3.416   3.435   3.021
 1222SOL    HW1 3801   3.447   3.520   2.991
 1222SOL    HW2 3802   3.323   3.434   2.997
 1223SOL     OW 3803   0.259   0.598   0.321
 1223SOL    HW1 3804   0.320   0.535   0.360
 1223SOL    HW2 3805   0.276   0.680   0.368
 1224SOL     OW 3806   1.083   0.822   0.413
 1224SOL    HW1 3807   1.170   0.783   0.418
 1224SOL    HW2 3808   1.022   0.751   0.435
 1225SOL     OW 3809   3.625   2.740   3.798
 1225SOL    HW1 3810   3.680   2.722   3.722
 1225SOL    HW2 3811   3.628   2.658   3.849
 1226SOL     OW 3812   0.749   2.099   0.943
 1226SOL    HW1 3813   0.663   2.068   0.916
 1226SOL    HW2 3814   0.809   2.061   0.878
 1227SOL     OW 3815   1.054   0.594   2.315
 1227SOL    HW1 3816   1.092   0.506   2.311
 1227SOL    HW2 3817   1.033   0.615   2.225
 1228SOL     OW 3818   0.729   0.049   1.859
 1228SOL    HW1 3819   0.678  -0.023   1.896
 1228SOL    HW2 3820   0.797   0.006   1.807
 1229SOL     OW 3821   2.128   3.373   0.352
 1229SOL    HW1 3822   2.186   3.444   0.380
 1229SOL    HW2 3823   2.041   3.413   0.348
 1230SOL     OW 3824   1.945   1.098   0.166
 1230SOL    HW1 3825   1.870   1.039   0.174
 1230SOL    HW2 3826   1.926   1.151   0.089
 1231SOL     OW 3827   0.843   3.610   3.583
 1231SOL    HW1 3828   0.845   3.601   3.678
 1231SOL    HW2 3829   0.755   3.643   3.564
 1232SOL     OW 3830   3.259   0.242   0.980
 1232SOL    HW1 3831   3.185   0.271   0.926
 1232SOL    HW2 3832   3.321   0.315   0.975
 1233SOL     OW 3833   1.575   2.304   1.451
 1233SOL    HW1 3834   1.670   2.295   1.444
 1233SOL    HW2 3835   1.563   2.388   1.496
 1234SOL     OW 3836   0.464   3.375   1.037
 1234SOL    HW1 3837   0.375   3.350   1.013
 1234SOL    HW2 3838   0.465   3.369   1.133
 1235SOL     OW 3839   2.161   3.990   1.990
 1235SOL    HW1 3840   2.180   3.945   2.072
 1235SOL    HW2 3841   2.109   3.927   1.940
 1236SOL     OW 3842   1.528   2.754   3.024
 1236SOL    HW1 3843   1.458   2.734   2.962
 1236SOL    HW2 3844   1.572   2.830   2.985
 1237SOL     OW 3845   0.639   2.994   0.246
 1237SOL    HW1 3846   0.637   3.042   0.163
 1237SOL    HW2 3847   0.555   2.948   0.249
 1238SOL     OW 3848   3.396   2.164   1.335
 1238SOL    HW1 3849   3.430   2.217   1.263
 1238SOL    HW2 3850   3.356   2.227   1.395
 1239SOL     OW 3851   2.079   2.840   2.325
 1239SOL    HW1 3852   2.110   2.793   2.403
 1239SOL    HW2 3853   2.108   2.786   2.251
 1240SOL     OW 3854   0.386   1.928   2.471
 1240SOL    HW1 3855   0.400   2.017   2.438
 1240SOL    HW2 3856   0.298   1.931   2.508
 1241SOL     OW 3857   1.141   1.756   1.722
 1241SOL    HW1 3858   1.227   1.787   1.695
 1241SOL    HW2 3859   1.150   1.660   1.726
 1242SOL     OW 3860   3.604   0.253   1.953
 1242SOL    HW1 3861   3.662   0.233   1.880
 1242SOL    HW2 3862   3.609   0.348   1.963
 1243SOL     OW 3863   0.614   3.579   2.618
 1243SOL    HW1 3864   0.562   3.632   2.678
 1243SOL    HW2 3865   0.549   3.525   2.572
 1244SOL     OW 3866   2.379   3.740   3.527
 1244SOL    HW1 3867   2.305   3.757   3.468
 1244SOL    HW2 3868   2.391   3.822   3.575
 1245SOL     OW 3869   3.356   1.403   1.698
 1245SOL    HW1 3870   3.279   1.458   1.685
 1245SOL    HW2 3871   3.430   1.459   1.674
 1246SOL     OW 3872   2.572   2.880   1.396
 1246SOL    HW1 3873   2.653   2.836   1.419
 1246SOL    HW2 3874   2.546   2.926   1.476
 1247SOL     OW 3875   1.220   3.449   3.116
 1247SOL    HW1 3876   1.247   3.429   3.205
 1247SOL    HW2 3877   1.272   3.390   3.061
 1248SOL     OW 3878   2.613   2.282   2.444
 1248SOL    HW1 3879   2.532   2.248   2.405
 1248SOL    HW2 3880   2.640   2.352   2.385
 1249SOL     OW 3881   1.682   3.639   3.324
 1249SOL    HW1 3882   1.772   3.629   3.355
 1249SOL    HW2 3883   1.656   3.551   3.298
 1250SOL     OW 3884   0.658   0.230   2.510
 1250SOL    HW1 3885   0.720   0.293   2.474
 1250SOL    HW2 3886   0.698   0.202   2.593
 1251SOL     OW 3887   1.440   0.933   1.368
 1251SOL    HW1 3888   1.512   0.971   1.417
 1251SOL    HW2 3889   1.366   0.934   1.430
 1252SOL     OW 3890   2.064   2.646   3.498
 1252SOL    HW1 3891   2.096   2.564   3.461
 1252SOL    HW2 3892   2.097   2.713   3.439
 1253SOL     OW 3893   2.643   2.462   1.156
 1253SOL    HW1 3894   2.685   2.436   1.238
 1253SOL    HW2 3895   2.549   2.457   1.175
 1254SOL     OW 3896   2.273   2.588   2.403
 1254SOL    HW1 3897   2.304   2.646   2.472
 1254SOL    HW2 3898   2.295   2.500   2.433
 1255SOL     OW 3899   1.054   1.399   2.449
 1255SOL    HW1 3900   0.994   1.474   2.440
 1255SOL    HW2 3901   1.054   1.381   2.543
 1256SOL     OW 3902   3.544   3.505   0.285
 1256SOL    HW1 3903   3.573   3.464   0.203
 1256SOL    HW2 3904   3.594   3.586   0.289
 1257SOL     OW 3905   3.102   1.511   1.661
 1257SOL    HW1 3906   3.136   1.584   1.609
 1257SOL    HW2 3907   3.039   1.468   1.604
 1258SOL     OW 3908   2.730   0.222   0.689
 1258SOL    HW1 3909   2.677   0.143   0.702
 1258SOL    HW2 3910   2.818   0.189   0.669
 1259SOL     OW 3911   2.769   3.588   2.530
 1259SOL    HW1 3912   2.798   3.558   2.616
 1259SOL    HW2 3913   2.680   3.553   2.521
 1260SOL     OW 3914   0.375   2.125   2.108
 1260SOL    HW1 3915   0.469   2.110   2.111
 1260SOL    HW2 3916   0.366   2.214   2.074
 1261SOL     OW 3917   0.648   2.116   2.147
 1261SOL    HW1 3918   0.726   2.091   2.195
 1261SOL    HW2 3919   0.680   2.163   2.070
 1262SOL     OW 3920   1.938   3.321   2.591
 1262SOL    HW1 3921   1.872   3.390   2.580
 1262SOL    HW2 3922   2.019   3.361   2.561
 1263SOL     OW 3923   2.087   2.229   2.305
 1263SOL    HW1 3924   2.093   2.252   2.212
 1263SOL    HW2 3925   2.065   2.136   2.305
 1264SOL     OW 3926   1.560   1.778   2.696
 1264SOL    HW1 3927   1.474   1.789   2.657
 1264SOL    HW2 3928   1.543   1.780   2.791
 1265SOL     OW 3929   2.297   3.567   2.709
 1265SOL    HW1 3930   2.380   3.528   2.736
 1265SOL    HW2 3931   2.301   3.656   2.744
 1266SOL     OW 3932   1.016   2.034   3.566
 1266SOL    HW1 3933   0.925   2.023   3.593
 1266SOL    HW2 3934   1.067   1.993   3.636
 1267SOL     OW 3935   0.186   1.849   1.385
 1267SOL    HW1 3936   0.197   1.908   1.310
 1267SOL    HW2 3937   0.271   1.805   1.392
 1268SOL     OW 3938   2.724   2.862   3.259
 1268SOL    HW1 3939   2.702   2.836   3.349
 1268SOL    HW2 3940   2.803   2.914   3.268
 1269SOL     OW 3941   0.096   0.242   1.810
 1269SOL    HW1 3942   0.140   0.324   1.832
 1269SOL    HW2 3943   0.166   0.186   1.775
 1270SOL     OW 3944   0.649   0.321   1.825
 1270SOL    HW1 3945   0.602   0.305   1.743
 1270SOL    HW2 3946   0.672   0.234   1.857
 1271SOL     OW 3947   0.553   2.614   0.268
 1271SOL    HW1 3948   0.530   2.524   0.293
 1271SOL    HW2 3949   0.644   2.624   0.295
 1272SOL     OW 3950   0.681   0.475   1.060
 1272SOL    HW1 3951   0.736   0.399   1.044
 1272SOL    HW2 3952   0.707   0.506   1.147
 1273SOL     OW 3953   3.405   2.198   0.980
 1273SOL    HW1 3954   3.356   2.117   0.970
 1273SOL    HW2 3955   3.337   2.266   0.987
 1274SOL     OW 3956   2.370   2.771   2.587
 1274SOL    HW1 3957   2.419   2.756   2.669
 1274SOL    HW2 3958   2.279   2.780   2.615
 1275SOL     OW 3959   3.886   1.291   3.241
 1275SOL    HW1 3960   3.885   1.224   3.309
 1275SOL    HW2 3961   3.804   1.279   3.193
 1276SOL     OW 3962   0.755   2.212   1.891
 1276SOL    HW1 3963   0.763   2.194   1.798
 1276SOL    HW2 3964   0.837   2.257   1.914
 1277SOL     OW 3965   0.224   0.825   0.947
 1277SOL    HW1 3966   0.300   0.878   0.923
 1277SOL    HW2 3967   0.158   0.847   0.882
 1278SOL     OW 3968   2.508   0.915   3.544
 1278SOL    HW1 3969   2.474   0.878   3.625
 1278SOL    HW2 3970   2.446   0.886   3.477
 1279SOL     OW 3971   2.445   2.762   3.213
 1279SOL    HW1 3972   2.508   2.767   3.285
 1279SOL    HW2 3973   2.473   2.686   3.162
 1280SOL     OW 3974   2.719   2.063   3.089
 1280SOL    HW1 3975   2.781   2.035   3.155
 1280SOL    HW2 3976   2.719   2.159   3.095
 1281SOL     OW 3977   2.052   0.102   1.048
 1281SOL    HW1 3978   1.967   0.098   1.091
 1281SOL    HW2 3979   2.095   0.180   1.085
 1282SOL     OW 3980   0.017   3.242   0.654
 1282SOL    HW1 3981   0.077   3.215   0.583
 1282SOL    HW2 3982  -0.065   3.263   0.609
 1283SOL     OW 3983   1.116   3.649   0.231
 1283SOL    HW1 3984   1.143   3.563   0.200
 1283SOL    HW2 3985   1.136   3.708   0.159
 1284SOL     OW 3986   1.349   2.391   0.082
 1284SOL    HW1 3987   1.279   2.351   0.032
 1284SOL    HW2 3988   1.330   2.368   0.173
 1285SOL     OW 3989   3.938   2.489   0.459
 1285SOL    HW1 3990   3.920   2.582   0.446
 1285SOL    HW2 3991   3.979   2.461   0.377
 1286SOL     OW 3992   1.147   0.120   2.088
 1286SOL    HW1 3993   1.094   0.185   2.136
 1286SOL    HW2 3994   1.086   0.084   2.023
 1287SOL     OW 3995   2.567   1.291   0.395
 1287SOL    HW1 3996   2.654   1.316   0.428
 1287SOL    HW2 3997   2.553   1.203   0.431
 1288SOL     OW 3998   3.063   1.224   3.474
 1288SOL    HW1 3999   3.079   1.260   3.387
 1288SOL    HW2 4000   3.034   1.134   3.458
 1289SOL     OW 4001   1.314   3.234   2.044
 1289SOL    HW1 4002   1.267   3.314   2.021
 1289SOL    HW2 4003   1.395   3.264   2.085
 1290SOL     OW 4004   3.950   0.441   0.011
 1290SOL    HW1 4005   3.871   0.394  -0.016
 1290SOL    HW2 4006   3.931   0.471   0.100
 1291SOL     OW 4007   3.785   0.681   3.137
 1291SOL    HW1 4008   3.692   0.693   3.119
 1291SOL    HW2 4009   3.826   0.761   3.103
 1292SOL     OW 4010   2.080   0.536   0.038
 1292SOL    HW1 4011   2.088   0.490  -0.045
 1292SOL    HW2 4012   2.040   0.620   0.016
 1293SOL     OW 4013   1.721   2.648   3.754
 1293SOL    HW1 4014   1.660   2.716   3.782
 1293SOL    HW2 4015   1.741   2.670   3.663
 1294SOL     OW 4016   1.001   0.579   1.919
 1294SOL    HW1 4017   1.052   0.657   1.898
 1294SOL    HW2 4018   1.051   0.507   1.882
 1295SOL     OW 4019   2.634   1.808   1.010
 1295SOL    HW1 4020   2.610   1.721   1.042
 1295SOL    HW2 4021   2.717   1.794   0.964
 1296SOL     OW 4022   2.966   1.376   1.456
 1296SOL    HW1 4023   2.871   1.365   1.461
 1296SOL    HW2 4024   3.002   1.293   1.488
 1297SOL     OW 4025   2.511   0.896   1.697
 1297SOL    HW1 4026   2.424   0.896   1.737
 1297SOL    HW2 4027   2.555   0.820   1.734
 1298SOL     OW 4028   1.586   2.802   1.153
 1298SOL    HW1 4029   1.539   2.784   1.235
 1298SOL    HW2 4030   1.594   2.897   1.150
 1299SOL     OW 4031   2.364   0.619   0.082
 1299SOL    HW1 4032   2.412   0.561   0.141
 1299SOL    HW2 4033   2.273   0.592   0.089
 1300SOL     OW 4034   3.101   2.808   2.935
 1300SOL    HW1 4035   3.127   2.771   2.851
 1300SOL    HW2 4036   3.008   2.826   2.926
 1301SOL     OW 4037   0.266   0.412   3.325
 1301SOL    HW1 4038   0.286   0.441   3.414
 1301SOL    HW2 4039   0.238   0.491   3.280
 1302SOL     OW 4040   0.482   2.320   1.737
 1302SOL    HW1 4041   0.569   2.299   1.771
 1302SOL    HW2 4042   0.498   2.384   1.668
 1303SOL     OW 4043   3.789   3.928   0.667
 1303SOL    HW1 4044   3.861   3.879   0.627
 1303SOL    HW2 4045   3.800   4.017   0.634
 1304SOL     OW 4046   0.248   1.383   0.563
 1304SOL    HW1 4047   0.283   1.369   0.651
 1304SOL    HW2 4048   0.296   1.322   0.508
 1305SOL     OW 4049   0.877   1.205   2.401
 1305SOL    HW1 4050   0.953   1.259   2.422
 1305SOL    HW2 4051   0.818   1.264   2.353
 1306SOL     OW 4052   2.507   1.123   2.341
 1306SOL    HW1 4053   2.532   1.209   2.374
 1306SOL    HW2 4054   2.587   1.087   2.303
 1307SOL     OW 4055   0.733   0.641   0.842
 1307SOL    HW1 4056   0.718   0.576   0.911
 1307SOL    HW2 4057   0.828   0.654   0.843
 1308SOL     OW 4058   1.531   0.564   1.449
 1308SOL    HW1 4059   1.508   0.537   1.361
 1308SOL    HW2 4060   1.447   0.588   1.490
 1309SOL     OW 4061   0.449   2.579   2.141
 1309SOL    HW1 4062   0.378   2.533   2.096
 1309SOL    HW2 4063   0.529   2.550   2.096
 1310SOL     OW 4064   0.079   2.733   3.517
 1310SOL    HW1 4065   0.105   2.748   3.608
 1310SOL    HW2 4066   0.019   2.658   3.522
 1311SOL     OW 4067   0.496   3.210   1.643
 1311SOL    HW1 4068   0.519   3.192   1.734
 1311SOL    HW2 4069   0.576   3.194   1.593
 1312SOL     OW 4070   3.656   2.573   2.291
 1312SOL    HW1 4071   3.738   2.600   2.250
 1312SOL    HW2 4072   3.623   2.503   2.235
 1313SOL     OW 4073   2.897   1.887   3.446
 1313SOL    HW1 4074   2.977   1.915   3.490
 1313SOL    HW2 4075   2.844   1.849   3.516
 1314SOL     OW 4076   1.060   3.804   1.440
 1314SOL    HW1 4077   1.129   3.869   1.427
 1314SOL    HW2 4078   1.071   3.742   1.367
 1315SOL     OW 4079   3.936   2.716   1.339
 1315SOL    HW1 4080   3.994   2.688   1.268
 1315SOL    HW2 4081   3.941   2.812   1.337
 1316SOL     OW 4082   3.458   3.040   0.463
 1316SOL    HW1 4083   3.453   3.013   0.371
 1316SOL    HW2 4084   3.452   3.136   0.460
 1317SOL     OW 4085   0.474   2.492   1.495
 1317SOL    HW1 4086   0.400   2.539   1.457
 1317SOL    HW2 4087   0.536   2.561   1.519
 1318SOL     OW 4088   1.047   2.765   3.211
 1318SOL    HW1 4089   1.039   2.796   3.302
 1318SOL    HW2 4090   1.141   2.746   3.201
 1319SOL     OW 4091   1.658   1.525   3.644
 1319SOL    HW1 4092   1.590   1.588   3.667
 1319SOL    HW2 4093   1.685   1.487   3.727
 1320SOL     OW 4094   2.942   2.984   3.134
 1320SOL    HW1 4095   2.952   3.075   3.106
 1320SOL    HW2 4096   3.031   2.957   3.159
 1321SOL     OW 4097   2.456   0.123   1.973
 1321SOL    HW1 4098   2.489   0.074   1.897
 1321SOL    HW2 4099   2.367   0.092   1.984
 1322SOL     OW 4100   0.264   0.047   3.662
 1322SOL    HW1 4101   0.301  -0.022   3.717
 1322SOL    HW2 4102   0.208   0.097   3.721
 1323SOL     OW 4103   3.581   3.784   0.809
 1323SOL    HW1 4104   3.640   3.848   0.770
 1323SOL    HW2 4105   3.638   3.710   0.832
 1324SOL     OW 4106   3.521   3.830   3.940
 1324SOL    HW1 4107   3.565   3.776   3.873
 1324SOL    HW2 4108   3.485   3.767   4.002
 1325SOL     OW 4109   3.701   1.814   0.213
 1325SOL    HW1 4110   3.747   1.753   0.155
 1325SOL    HW2 4111   3.704   1.771   0.299
 1326SOL     OW 4112   1.733   3.835   2.639
 1326SOL    HW1 4113   1.675   3.883   2.697
 1326SOL    HW2 4114   1.818   3.879   2.647
 1327SOL     OW 4115   3.898   2.627   1.727
 1327SOL    HW1 4116   3.806   2.637   1.701
 1327SOL    HW2 4117   3.942   2.597   1.648
 1328SOL     OW 4118   1.588   3.889   0.849
 1328SOL    HW1 4119   1.672   3.874   0.805
 1328SOL    HW2 4120   1.564   3.978   0.825
 1329SOL     OW 4121   1.281   0.183   0.470
 1329SOL    HW1 4122   1.240   0.145   0.548
 1329SOL    HW2 4123   1.232   0.147   0.396
 1330SOL     OW 4124   2.893   3.432   2.239
 1330SOL    HW1 4125   2.900   3.337   2.231
 1330SOL    HW2 4126   2.800   3.450   2.226
 1331SOL     OW 4127   1.424   3.770   2.079
 1331SOL    HW1 4128   1.512   3.745   2.106
 1331SOL    HW2 4129   1.366   3.711   2.127
 1332SOL     OW 4130   0.870   3.009   0.838
 1332SOL    HW1 4131   0.961   3.016   0.812
 1332SOL    HW2 4132   0.835   3.098   0.829
 1333SOL     OW 4133   0.757   1.223   1.204
 1333SOL    HW1 4134   0.842   1.253   1.170
 1333SOL    HW2 4135   0.711   1.303   1.228
 1334SOL     OW 4136  -0.000   3.413   1.728
 1334SOL    HW1 4137   0.052   3.453   1.798
 1334SOL    HW2 4138  -0.031   3.330   1.764
 1335SOL     OW 4139   1.419   2.949   2.719
 1335SOL    HW1 4140   1.414   2.905   2.634
 1335SOL    HW2 4141   1.507   2.986   2.722
 1336SOL     OW 4142   2.647   3.961   3.811
 1336SOL    HW1 4143   2.677   3.870   3.810
 1336SOL    HW2 4144   2.616   3.975   3.901
 1337SOL     OW 4145   2.778   2.677   0.686
 1337SOL    HW1 4146   2.791   2.769   0.665
 1337SOL    HW2 4147   2.851   2.654   0.743
 1338SOL     OW 4148   3.732   3.203   2.141
 1338SOL    HW1 4149   3.640   3.204   2.116
 1338SOL    HW2 4150   3.769   3.281   2.100
 1339SOL     OW 4151   1.841   1.191   0.939
 1339SOL    HW1 4152   1.933   1.193   0.965
 1339SOL    HW2 4153   1.795   1.240   1.008
 1340SOL     OW 4154   1.511   1.728   1.034
 1340SOL    HW1 4155   1.441   1.762   0.978
 1340SOL    HW2 4156   1.592   1.749   0.987
 1341SOL     OW 4157   0.743   3.415   2.808
 1341SOL    HW1 4158   0.713   3.447   2.893
 1341SOL    HW2 4159   0.690   3.464   2.745
 1342SOL     OW 4160   2.627   0.476   0.213
 1342SOL    HW1 4161   2.595   0.422   0.140
 1342SOL    HW2 4162   2.639   0.414   0.285
 1343SOL     OW 4163   1.877   1.821   1.862
 1343SOL    HW1 4164   1.910   1.753   1.920
 1343SOL    HW2 4165   1.793   1.846   1.899
 1344SOL     OW 4166   0.637   1.570   0.695
 1344SOL    HW1 4167   0.569   1.503   0.697
 1344SOL    HW2 4168   0.719   1.521   0.706
 1345SOL     OW 4169   1.861   3.317   2.126
 1345SOL    HW1 4170   1.820   3.299   2.042
 1345SOL    HW2 4171   1.893   3.407   2.119
 1346SOL     OW 4172   3.664   3.370   3.517
 1346SOL    HW1 4173   3.702   3.421   3.446
 1346SOL    HW2 4174   3.721   3.293   3.524
 1347SOL     OW 4175   3.120   2.753   0.057
 1347SOL    HW1 4176   3.045   2.695   0.068
 1347SOL    HW2 4177   3.173   2.711  -0.011
 1348SOL     OW 4178   0.608   1.374   2.844
 1348SOL    HW1 4179   0.585   1.340   2.758
 1348SOL    HW2 4180   0.528   1.418   2.875
 1349SOL     OW 4181   3.087   0.620   2.263
 1349SOL    HW1 4182   3.161   0.635   2.321
 1349SOL    HW2 4183   3.083   0.525   2.252
 1350SOL     OW 4184   3.500   1.979   0.226
 1350SOL    HW1 4185   3.485   2.025   0.144
 1350SOL    HW2 4186   3.584   1.935   0.214
 1351SOL     OW 4187   1.676   3.748   0.027
 1351SOL    HW1 4188   1.664   3.840   0.053
 1351SOL    HW2 4189   1.770   3.734   0.033
 1352SOL     OW 4190   3.583   1.431   3.258
 1352SOL    HW1 4191   3.623   1.429   3.345
 1352SOL    HW2 4192   3.552   1.341   3.244
 1353SOL     OW 4193   2.620   3.740   0.535
 1353SOL    HW1 4194   2.594   3.657   0.576
 1353SOL    HW2 4195   2.569   3.742   0.454
 1354SOL     OW 4196   0.897   0.140   3.199
 1354SOL    HW1 4197   0.935   0.080   3.263
 1354SOL    HW2 4198   0.935   0.113   3.115
 1355SOL     OW 4199   3.592   2.145   2.003
 1355SOL    HW1 4200   3.568   2.064   2.048
 1355SOL    HW2 4201   3.649   2.117   1.932
 1356SOL     OW 4202   3.099   3.536   1.197
 1356SOL    HW1 4203   3.170   3.480   1.227
 1356SOL    HW2 4204   3.122   3.623   1.229
 1357SOL     OW 4205   1.537   0.016   2.828
 1357SOL    HW1 4206   1.565   0.028   2.919
 1357SOL    HW2 4207   1.498   0.100   2.803
 1358SOL     OW 4208   0.362   1.807   3.436
 1358SOL    HW1 4209   0.362   1.865   3.513
 1358SOL    HW2 4210   0.278   1.762   3.442
 1359SOL     OW 4211   3.443   2.687   3.565
 1359SOL    HW1 4212   3.532   2.669   3.596
 1359SOL    HW2 4213   3.451   2.768   3.513
 1360SOL     OW 4214   3.453   0.732   1.291
 1360SOL    HW1 4215   3.499   0.649   1.305
 1360SOL    HW2 4216   3.383   0.732   1.357
 1361SOL     OW 4217   0.572   3.023   0.504
 1361SOL    HW1 4218   0.609   2.949   0.552
 1361SOL    HW2 4219   0.588   3.003   0.412
 1362SOL     OW 4220   2.929   0.821   2.446
 1362SOL    HW1 4221   2.933   0.754   2.377
 1362SOL    HW2 4222   2.930   0.904   2.399
 1363SOL     OW 4223   3.005   3.710   2.440
 1363SOL    HW1 4224   2.930   3.654   2.458
 1363SOL    HW2 4225   3.050   3.667   2.367
 1364SOL     OW 4226   2.911   2.517   0.919
 1364SOL    HW1 4227   2.899   2.465   0.998
 1364SOL    HW2 4228   2.837   2.494   0.863
 1365SOL     OW 4229   2.203   3.845   2.626
 1365SOL    HW1 4230   2.234   3.765   2.582
 1365SOL    HW2 4231   2.256   3.915   2.587
 1366SOL     OW 4232   0.951   3.450   0.961
 1366SOL    HW1 4233   0.857   3.456   0.983
 1366SOL    HW2 4234   0.979   3.366   0.998
 1367SOL     OW 4235   2.099   0.623   2.912
 1367SOL    HW1 4236   2.046   0.662   2.842
 1367SOL    HW2 4237   2.073   0.531   2.915
 1368SOL     OW 4238   2.635   1.895   2.876
 1368SOL    HW1 4239   2.656   1.936   2.960
 1368SOL    HW2 4240   2.664   1.958   2.810
 1369SOL     OW 4241   2.410   2.525   0.881
 1369SOL    HW1 4242   2.408   2.564   0.968
 1369SOL    HW2 4243   2.323   2.545   0.844
 1370SOL     OW 4244   2.841   2.672   0.132
 1370SOL    HW1 4245   2.836   2.579   0.152
 1370SOL    HW2 4246   2.791   2.682   0.051
 1371SOL     OW 4247   1.075   1.986   1.579
 1371SOL    HW1 4248   1.162   1.946   1.581
 1371SOL    HW2 4249   1.018   1.921   1.621
 1372SOL     OW 4250   3.836   2.464   1.499
 1372SOL    HW1 4251   3.747   2.428   1.495
 1372SOL    HW2 4252   3.835   2.540   1.441
 1373SOL     OW 4253   2.437   3.533   1.840
 1373SOL    HW1 4254   2.412   3.453   1.794
 1373SOL    HW2 4255   2.370   3.597   1.815
 1374SOL     OW 4256   3.613   3.251   0.123
 1374SOL    HW1 4257   3.518   3.239   0.119
 1374SOL    HW2 4258   3.638   3.209   0.205
 1375SOL     OW 4259   1.923   3.074   1.393
 1375SOL    HW1 4260   1.936   3.134   1.320
 1375SOL    HW2 4261   2.011   3.046   1.417
 1376SOL     OW 4262   3.815   3.373   2.481
 1376SOL    HW1 4263   3.750   3.369   2.552
 1376SOL    HW2 4264   3.826   3.466   2.464
 1377SOL     OW 4265   2.544   2.874   0.169
 1377SOL    HW1 4266   2.503   2.895   0.085
 1377SOL    HW2 4267   2.475   2.831   0.219
 1378SOL     OW 4268   3.149   0.513   3.397
 1378SOL    HW1 4269   3.173   0.452   3.327
 1378SOL    HW2 4270   3.054   0.505   3.404
 1379SOL     OW 4271   2.878   0.596   0.211
 1379SOL    HW1 4272   2.906   0.646   0.134
 1379SOL    HW2 4273   2.783   0.590   0.201
 1380SOL     OW 4274   1.139   0.816   1.425
 1380SOL    HW1 4275   1.158   0.832   1.332
 1380SOL    HW2 4276   1.139   0.721   1.432
 1381SOL     OW 4277   1.932   1.092   2.881
 1381SOL    HW1 4278   2.004   1.067   2.939
 1381SOL    HW2 4279   1.923   1.186   2.894
 1382SOL     OW 4280   2.400   3.137   0.731
 1382SOL    HW1 4281   2.453   3.071   0.776
 1382SOL    HW2 4282   2.313   3.128   0.770
 1383SOL     OW 4283   2.194   1.441   2.638
 1383SOL    HW1 4284   2.229   1.517   2.592
 1383SOL    HW2 4285   2.245   1.367   2.606
 1384SOL     OW 4286   0.613   0.613   3.270
 1384SOL    HW1 4287   0.650   0.547   3.329
 1384SOL    HW2 4288   0.600   0.566   3.187
 1385SOL     OW 4289   3.508   0.796   0.180
 1385SOL    HW1 4290   3.515   0.791   0.085
 1385SOL    HW2 4291   3.512   0.890   0.200
 1386SOL     OW 4292   0.537   2.732   2.780
 1386SOL    HW1 4293   0.528   2.666   2.849
 1386SOL    HW2 4294   0.455   2.727   2.731
 1387SOL     OW 4295   2.105   1.040   3.835
 1387SOL    HW1 4296   2.182   1.086   3.869
 1387SOL    HW2 4297   2.093   1.075   3.747
 1388SOL     OW 4298   2.283   1.366   1.020
 1388SOL    HW1 4299   2.188   1.372   1.026
 1388SOL    HW2 4300   2.307   1.294   1.077
 1389SOL     OW 4301   0.559   3.164   3.504
 1389SOL    HW1 4302   0.495   3.100   3.536
 1389SOL    HW2 4303   0.638   3.112   3.487
 1390SOL     OW 4304   1.965   2.794   3.093
 1390SOL    HW1 4305   1.875   2.773   3.116
 1390SOL    HW2 4306   2.011   2.799   3.178
 1391SOL     OW 4307   0.046   3.965   3.889
 1391SOL    HW1 4308   0.122   3.906   3.894
 1391SOL    HW2 4309   0.014   3.971   3.979
 1392SOL     OW 4310   0.470   2.165   2.819
 1392SOL    HW1 4311   0.537   2.187   2.754
 1392SOL    HW2 4312   0.392   2.144   2.767
 1393SOL     OW 4313   1.499   0.346   2.959
 1393SOL    HW1 4314   1.457   0.350   2.873
 1393SOL    HW2 4315   1.442   0.400   3.015
 1394SOL     OW 4316   2.921   3.542   3.085
 1394SOL    HW1 4317   2.844   3.488   3.101
 1394SOL    HW2 4318   2.889   3.632   3.090
 1395SOL     OW 4319   3.063   1.479   1.062
 1395SOL    HW1 4320   3.111   1.418   1.007
 1395SOL    HW2 4321   3.000   1.521   1.003
 1396SOL     OW 4322   2.062   0.679   3.186
 1396SOL    HW1 4323   2.069   0.683   3.091
 1396SOL    HW2 4324   2.151   0.659   3.216
 1397SOL     OW 4325   3.764   2.583   0.050
 1397SOL    HW1 4326   3.709   2.548   0.120
 1397SOL    HW2 4327   3.747   2.526  -0.025
 1398SOL     OW 4328   1.069   2.223   0.849
 1398SOL    HW1 4329   1.024   2.218   0.933
 1398SOL    HW2 4330   1.022   2.162   0.793
 1399SOL     OW 4331   2.489   2.099   3.502
 1399SOL    HW1 4332   2.441   2.173   3.466
 1399SOL    HW2 4333   2.466   2.025   3.446
 1400SOL     OW 4334   2.061   2.539   3.848
 1400SOL    HW1 4335   2.103   2.615   3.807
 1400SOL    HW2 4336   1.993   2.577   3.904
 1401SOL     OW 4337   0.451   1.654   2.523
 1401SOL    HW1 4338   0.473   1.679   2.613
 1401SOL    HW2 4339   0.437   1.737   2.478
 1402SOL     OW 4340   2.420   1.736   3.873
 1402SOL    HW1 4341   2.414   1.831   3.866
 1402SOL    HW2 4342   2.340   1.709   3.916
 1403SOL     OW 4343   1.320   3.434   2.386
 1403SOL    HW1 4344   1.398   3.428   2.330
 1403SOL    HW2 4345   1.274   3.352   2.372
 1404SOL     OW 4346   3.641   3.380   2.673
 1404SOL    HW1 4347   3.635   3.288   2.649
 1404SOL    HW2 4348   3.659   3.380   2.767
 1405SOL     OW 4349   0.775   0.872   1.412
 1405SOL    HW1 4350   0.866   0.900   1.427
 1405SOL    HW2 4351   0.741   0.935   1.349
 1406SOL     OW 4352   3.474   0.483   3.297
 1406SOL    HW1 4353   3.395   0.460   3.248
 1406SOL    HW2 4354   3.496   0.405   3.347
 1407SOL     OW 4355   3.635   1.328   3.574
 1407SOL    HW1 4356   3.712   1.382   3.563
 1407SOL    HW2 4357   3.665   1.239   3.555
 1408SOL     OW 4358   2.250   0.172   0.533
 1408SOL    HW1 4359   2.182   0.230   0.568
 1408SOL    HW2 4360   2.302   0.147   0.609
 1409SOL     OW 4361   2.315   0.059   3.267
 1409SOL    HW1 4362   2.281  -0.019   3.311
 1409SOL    HW2 4363   2.345   0.116   3.338
 1410SOL     OW 4364   0.891   2.068   3.278
 1410SOL    HW1 4365   0.929   2.083   3.364
 1410SOL    HW2 4366   0.919   1.979   3.255
 1411SOL     OW 4367   2.450   2.764   2.845
 1411SOL    HW1 4368   2.516   2.698   2.825
 1411SOL    HW2 4369   2.478   2.802   2.927
 1412SOL     OW 4370   1.152   0.330   2.341
 1412SOL    HW1 4371   1.087   0.303   2.276
 1412SOL    HW2 4372   1.169   0.252   2.393
 1413SOL     OW 4373   3.616   0.886   1.102
 1413SOL    HW1 4374   3.651   0.832   1.032
 1413SOL    HW2 4375   3.540   0.837   1.135
 1414SOL     OW 4376   3.882   3.264   0.926
 1414SOL    HW1 4377   3.974   3.279   0.947
 1414SOL    HW2 4378   3.880   3.255   0.831
 1415SOL     OW 4379   0.431   0.375   1.620
 1415SOL    HW1 4380   0.382   0.426   1.685
 1415SOL    HW2 4381   0.425   0.427   1.539
 1416SOL     OW 4382   0.649   3.771   1.252
 1416SOL    HW1 4383   0.555   3.781   1.239
 1416SOL    HW2 4384   0.657   3.734   1.340
 1417SOL     OW 4385   1.025   2.870   0.585
 1417SOL    HW1 4386   1.014   2.845   0.493
 1417SOL    HW2 4387   1.000   2.792   0.634
 1418SOL     OW 4388   2.731   0.978   2.205
 1418SOL    HW1 4389   2.740   0.889   2.240
 1418SOL    HW2 4390   2.821   1.009   2.196
 1419SOL     OW 4391   1.596   1.194   3.346
 1419SOL    HW1 4392   1.679   1.150   3.333
 1419SOL    HW2 4393   1.614   1.286   3.326
 1420SOL     OW 4394   3.484   2.799   2.385
 1420SOL    HW1 4395   3.523   2.715   2.410
 1420SOL    HW2 4396   3.476   2.795   2.290
 1421SOL     OW 4397   2.442   2.825   2.168
 1421SOL    HW1 4398   2.444   2.838   2.262
 1421SOL    HW2 4399   2.465   2.733   2.155
 1422SOL     OW 4400   1.747   1.601   2.201
 1422SOL    HW1 4401   1.684   1.620   2.269
 1422SOL    HW2 4402   1.765   1.507   2.210
 1423SOL     OW 4403   0.159   3.265   2.850
 1423SOL    HW1 4404   0.127   3.318   2.777
 1423SOL    HW2 4405   0.157   3.324   2.925
 1424SOL     OW 4406   0.237   1.179   3.403
 1424SOL    HW1 4407   0.305   1.129   3.359
 1424SOL    HW2 4408   0.237   1.264   3.358
 1425SOL     OW 4409   1.104   3.596   3.493
 1425SOL    HW1 4410   1.120   3.536   3.566
 1425SOL    HW2 4411   1.010   3.615   3.498
 1426SOL     OW 4412   0.136   2.248   1.456
 1426SOL    HW1 4413   0.228   2.232   1.436
 1426SOL    HW2 4414   0.138   2.316   1.524
 1427SOL     OW 4415   1.567   1.410   2.492
 1427SOL    HW1 4416   1.495   1.349   2.507
 1427SOL    HW2 4417   1.584   1.449   2.578
 1428SOL     OW 4418   2.949   2.971   2.357
 1428SOL    HW1 4419   2.947   2.962   2.453
 1428SOL    HW2 4420   2.903   2.893   2.326
 1429SOL     OW 4421   2.278   0.862   0.193
 1429SOL    HW1 4422   2.268   0.946   0.147
 1429SOL    HW2 4423   2.315   0.803   0.127
 1430SOL     OW 4424   0.913   3.712   0.699
 1430SOL    HW1 4425   0.873   3.635   0.658
 1430SOL    HW2 4426   1.003   3.684   0.719
 1431SOL     OW 4427   2.091   2.943   1.030
 1431SOL    HW1 4428   2.080   3.024   0.980
 1431SOL    HW2 4429   2.124   2.973   1.115
 1432SOL     OW 4430   0.866   2.961   2.794
 1432SOL    HW1 4431   0.832   3.044   2.760
 1432SOL    HW2 4432   0.888   2.981   2.885
 1433SOL     OW 4433   1.120   0.027   0.958
 1433SOL    HW1 4434   1.131   0.072   1.042
 1433SOL    HW2 4435   1.125  -0.066   0.981
 1434SOL     OW 4436   1.140   2.870   1.258
 1434SOL    HW1 4437   1.060   2.852   1.307
 1434SOL    HW2 4438   1.154   2.791   1.205
 1435SOL     OW 4439   1.359   0.145   3.232
 1435SOL    HW1 4440   1.340   0.238   3.237
 1435SOL    HW2 4441   1.454   0.139   3.226
 1436SOL     OW 4442   0.343   2.024   0.125
 1436SOL    HW1 4443   0.260   2.068   0.108
 1436SOL    HW2 4444   0.319   1.940   0.164
 1437SOL     OW 4445   1.267   2.255   3.703
 1437SOL    HW1 4446   1.325   2.316   3.657
 1437SOL    HW2 4447   1.180   2.291   3.691
 1438SOL     OW 4448   3.873   2.988   1.013
 1438SOL    HW1 4449   3.869   3.078   0.981
 1438SOL    HW2 4450   3.785   2.953   0.998
 1439SOL     OW 4451   3.806   1.408   3.915
 1439SOL    HW1 4452   3.869   1.411   3.986
 1439SOL    HW2 4453   3.805   1.497   3.880
 1440SOL     OW 4454   0.383   0.753   2.473
 1440SOL    HW1 4455   0.450   0.687   2.458
 1440SOL    HW2 4456   0.377   0.800   2.390
 1441SOL     OW 4457   1.400   0.133   3.933
 1441SOL    HW1 4458   1.488   0.145   3.969
 1441SOL    HW2 4459   1.406   0.163   3.843
 1442SOL     OW 4460   2.987   3.307   1.087
 1442SOL    HW1 4461   3.001   3.401   1.101
 1442SOL    HW2 4462   3.069   3.276   1.049
 1443SOL     OW 4463   3.667   2.886   0.146
 1443SOL    HW1 4464   3.720   2.814   0.178
 1443SOL    HW2 4465   3.588   2.884   0.201
 1444SOL     OW 4466   3.345   0.186   2.206
 1444SOL    HW1 4467   3.429   0.227   2.185
 1444SOL    HW2 4468   3.362   0.134   2.284
 1445SOL     OW 4469   3.835   2.988   3.617
 1445SOL    HW1 4470   3.792   3.053   3.561
 1445SOL    HW2 4471   3.928   2.993   3.592
 1446SOL     OW 4472   1.642   0.881   3.486
 1446SOL    HW1 4473   1.656   0.788   3.505
 1446SOL    HW2 4474   1.720   0.908   3.438
 1447SOL     OW 4475   3.792   1.976   2.750
 1447SOL    HW1 4476   3.746   1.926   2.817
 1447SOL    HW2 4477   3.733   2.048   2.728
 1448SOL     OW 4478   2.407   1.994   0.542
 1448SOL    HW1 4479   2.422   1.925   0.606
 1448SOL    HW2 4480   2.372   1.948   0.466
 1449SOL     OW 4481   3.182   0.579   2.691
 1449SOL    HW1 4482   3.224   0.658   2.726
 1449SOL    HW2 4483   3.251   0.534   2.643
 1450SOL     OW 4484   3.628   2.735   0.445
 1450SOL    HW1 4485   3.602   2.643   0.449
 1450SOL    HW2 4486   3.609   2.769   0.532
 1451SOL     OW 4487   1.209   1.769   2.652
 1451SOL    HW1 4488   1.187   1.718   2.730
 1451SOL    HW2 4489   1.199   1.860   2.680
 1452SOL     OW 4490   0.314   3.046   3.243
 1452SOL    HW1 4491   0.398   3.060   3.198
 1452SOL    HW2 4492   0.307   3.120   3.303
 1453SOL     OW 4493   0.579   1.626   0.403
 1453SOL    HW1 4494   0.583   1.611   0.497
 1453SOL    HW2 4495   0.606   1.542   0.365
 1454SOL     OW 4496   2.664   3.945   0.145
 1454SOL    HW1 4497   2.692   3.854   0.139
 1454SOL    HW2 4498   2.702   3.977   0.226
 1455SOL     OW 4499   1.000   3.956   3.384
 1455SOL    HW1 4500   1.011   3.861   3.383
 1455SOL    HW2 4501   1.057   3.986   3.456
 1456SOL     OW 4502   3.382   1.807   2.357
 1456SOL    HW1 4503   3.392   1.723   2.312
 1456SOL    HW2 4504   3.372   1.785   2.449
 1457SOL     OW 4505   2.840   1.417   0.486
 1457SOL    HW1 4506   2.870   1.431   0.576
 1457SOL    HW2 4507   2.854   1.501   0.443
 1458SOL     OW 4508   3.892   2.054   3.498
 1458SOL    HW1 4509   3.870   1.976   3.447
 1458SOL    HW2 4510   3.987   2.049   3.509
 1459SOL     OW 4511   1.772   1.459   1.700
 1459SOL    HW1 4512   1.775   1.548   1.665
 1459SOL    HW2 4513   1.782   1.403   1.623
 1460SOL     OW 4514   0.340   1.341   0.804
 1460SOL    HW1 4515   0.292   1.407   0.854
 1460SOL    HW2 4516   0.429   1.346   0.838
 1461SOL     OW 4517   3.163   1.760   1.516
 1461SOL    HW1 4518   3.221   1.836   1.512
 1461SOL    HW2 4519   3.170   1.720   1.429
 1462SOL     OW 4520   1.464   0.438   0.524
 1462SOL    HW1 4521   1.393   0.486   0.482
 1462SOL    HW2 4522   1.506   0.389   0.454
 1463SOL     OW 4523   3.841   2.988   3.897
 1463SOL    HW1 4524   3.757   2.962   3.934
 1463SOL    HW2 4525   3.826   2.990   3.802
 1464SOL     OW 4526   3.246   1.454   3.055
 1464SOL    HW1 4527   3.278   1.368   3.028
 1464SOL    HW2 4528   3.181   1.435   3.122
 1465SOL     OW 4529   0.439   3.763   0.306
 1465SOL    HW1 4530   0.419   3.854   0.284
 1465SOL    HW2 4531   0.393   3.748   0.389
 1466SOL     OW 4532   0.075   3.653   1.963
 1466SOL    HW1 4533   0.157   3.702   1.962
 1466SOL    HW2 4534   0.102   3.563   1.981
 1467SOL     OW 4535   0.470   2.310   2.427
 1467SOL    HW1 4536   0.519   2.366   2.366
 1467SOL    HW2 4537   0.532   2.291   2.497
 1468SOL     OW 4538   0.083   0.993   1.364
 1468SOL    HW1 4539  -0.012   1.003   1.370
 1468SOL    HW2 4540   0.118   1.065   1.417
 1469SOL     OW 4541   0.571   3.707   3.499
 1469SOL    HW1 4542   0.502   3.702   3.565
 1469SOL    HW2 4543   0.560   3.793   3.459
 1470SOL     OW 4544   2.185   3.836   1.058
 1470SOL    HW1 4545   2.246   3.830   1.132
 1470SOL    HW2 4546   2.161   3.929   1.055
 1471SOL     OW 4547   1.215   2.304   1.941
 1471SOL    HW1 4548   1.304   2.319   1.910
 1471SOL    HW2 4549   1.198   2.378   2.000
 1472SOL     OW 4550   0.699   1.415   0.306
 1472SOL    HW1 4551   0.643   1.351   0.262
 1472SOL    HW2 4552   0.772   1.429   0.246
 1473SOL     OW 4553   2.760   0.144   0.354
 1473SOL    HW1 4554   2.840   0.177   0.396
 1473SOL    HW2 4555   2.691   0.204   0.382
 1474SOL     OW 4556   0.594   1.301   2.607
 1474SOL    HW1 4557   0.607   1.207   2.596
 1474SOL    HW2 4558   0.609   1.338   2.520
 1475SOL     OW 4559   1.947   2.748   0.680
 1475SOL    HW1 4560   1.919   2.723   0.592
 1475SOL    HW2 4561   2.033   2.707   0.690
 1476SOL     OW 4562   3.375   0.381   0.720
 1476SOL    HW1 4563   3.470   0.394   0.721
 1476SOL    HW2 4564   3.347   0.403   0.809
 1477SOL     OW 4565   3.047   1.440   3.232
 1477SOL    HW1 4566   3.000   1.438   3.316
 1477SOL    HW2 4567   3.007   1.512   3.184
 1478SOL     OW 4568   1.769   0.418   2.915
 1478SOL    HW1 4569   1.779   0.513   2.915
 1478SOL    HW2 4570   1.675   0.404   2.922
 1479SOL     OW 4571   0.248   3.301   3.608
 1479SOL    HW1 4572   0.334   3.331   3.638
 1479SOL    HW2 4573   0.189   3.372   3.632
 1480SOL     OW 4574   0.086   1.550   0.442
 1480SOL    HW1 4575   0.142   1.482   0.480
 1480SOL    HW2 4576   0.096   1.625   0.501
 1481SOL     OW 4577   0.827   2.591   0.353
 1481SOL    HW1 4578   0.864   2.528   0.415
 1481SOL    HW2 4579   0.902   2.637   0.317
 1482SOL     OW 4580   2.858   3.079   1.643
 1482SOL    HW1 4581   2.784   3.086   1.703
 1482SOL    HW2 4582   2.897   2.994   1.663
 1483SOL     OW 4583   0.930   0.374   1.264
 1483SOL    HW1 4584   0.947   0.312   1.193
 1483SOL    HW2 4585   0.863   0.331   1.318
 1484SOL     OW 4586   1.398   3.564   1.898
 1484SOL    HW1 4587   1.416   3.604   1.983
 1484SOL    HW2 4588   1.331   3.498   1.916
 1485SOL     OW 4589   1.765   3.866   1.647
 1485SOL    HW1 4590   1.688   3.813   1.626
 1485SOL    HW2 4591   1.760   3.882   1.741
 1486SOL     OW 4592   0.962   3.782   2.339
 1486SOL    HW1 4593   0.886   3.834   2.312
 1486SOL    HW2 4594   0.954   3.775   2.434
 1487SOL     OW 4595   0.099   3.029   2.521
 1487SOL    HW1 4596   0.155   3.037   2.598
 1487SOL    HW2 4597   0.030   3.094   2.535
 1488SOL     OW 4598   1.281   3.117   1.297
 1488SOL    HW1 4599   1.250   3.036   1.258
 1488SOL    HW2 4600   1.229   3.185   1.254
 1489SOL     OW 4601   0.813   0.464   2.090
 1489SOL    HW1 4602   0.718   0.474   2.078
 1489SOL    HW2 4603   0.852   0.514   2.018
 1490SOL     OW 4604   0.285   1.073   0.754
 1490SOL    HW1 4605   0.375   1.047   0.734
 1490SOL    HW2 4606   0.291   1.165   0.778
 1491SOL     OW 4607   1.014   1.413   0.641
 1491SOL    HW1 4608   1.098   1.390   0.603
 1491SOL    HW2 4609   0.995   1.501   0.609
 1492SOL     OW 4610   3.130   2.761   0.329
 1492SOL    HW1 4611   3.085   2.838   0.363
 1492SOL    HW2 4612   3.136   2.777   0.235
 1493SOL     OW 4613   2.120   2.640   2.143
 1493SOL    HW1 4614   2.157   2.553   2.160
 1493SOL    HW2 4615   2.088   2.634   2.053
 1494SOL     OW 4616   0.910   1.614   0.348
 1494SOL    HW1 4617   0.816   1.599   0.343
 1494SOL    HW2 4618   0.926   1.632   0.441
 1495SOL     OW 4619   2.407   2.528   2.160
 1495SOL    HW1 4620   2.344   2.530   2.233
 1495SOL    HW2 4621   2.374   2.459   2.102
 1496SOL     OW 4622   2.810   2.882   2.880
 1496SOL    HW1 4623   2.785   2.943   2.949
 1496SOL    HW2 4624   2.778   2.797   2.910
 1497SOL     OW 4625   1.036   1.066   3.741
 1497SOL    HW1 4626   1.060   1.061   3.833
 1497SOL    HW2 4627   0.968   0.999   3.730
 1498SOL     OW 4628   1.721   0.910   0.119
 1498SOL    HW1 4629   1.692   0.967   0.047
 1498SOL    HW2 4630   1.640   0.875   0.156
 1499SOL     OW 4631   0.428   3.488   0.436
 1499SOL    HW1 4632   0.403   3.519   0.349
 1499SOL    HW2 4633   0.479   3.409   0.420
 1500SOL     OW 4634   3.795   3.588   0.457
 1500SOL    HW1 4635   3.775   3.657   0.393
 1500SOL    HW2 4636   3.874   3.618   0.501
 1501SOL     OW 4637   2.781   3.531   0.944
 1501SOL    HW1 4638   2.717   3.467   0.913
 1501SOL    HW2 4639   2.859   3.515   0.890
 1502SOL     OW 4640   3.844   2.748   0.771
 1502SOL    HW1 4641   3.826   2.655   0.782
 1502SOL    HW2 4642   3.916   2.752   0.708
 1503SOL     OW 4643   0.539   2.381   0.441
 1503SOL    HW1 4644   0.464   2.350   0.389
 1503SOL    HW2 4645   0.551   2.313   0.508
 1504SOL     OW 4646   2.569   3.071   2.799
 1504SOL    HW1 4647   2.610   2.991   2.766
 1504SOL    HW2 4648   2.485   3.043   2.833
 1505SOL     OW 4649   3.043   2.611   3.179
 1505SOL    HW1 4650   3.124   2.572   3.146
 1505SOL    HW2 4651   3.026   2.685   3.121
 1506SOL     OW 4652   1.986   2.845   0.143
 1506SOL    HW1 4653   1.928   2.779   0.105
 1506SOL    HW2 4654   1.946   2.929   0.118
 1507SOL     OW 4655   3.805   3.086   1.262
 1507SOL    HW1 4656   3.809   2.996   1.230
 1507SOL    HW2 4657   3.712   3.108   1.259
 1508SOL     OW 4658   3.782   1.656   2.760
 1508SOL    HW1 4659   3.698   1.674   2.718
 1508SOL    HW2 4660   3.847   1.703   2.708
 1509SOL     OW 4661   3.337   0.946   3.028
 1509SOL    HW1 4662   3.251   0.924   3.065
 1509SOL    HW2 4663   3.330   1.039   3.006
 1510SOL     OW 4664   0.717   1.065   1.919
 1510SOL    HW1 4665   0.802   1.089   1.883
 1510SOL    HW2 4666   0.658   1.066   1.845
 1511SOL     OW 4667   1.792   3.879   3.093
 1511SOL    HW1 4668   1.708   3.856   3.132
 1511SOL    HW2 4669   1.784   3.972   3.072
 1512SOL     OW 4670   2.427   1.620   3.315
 1512SOL    HW1 4671   2.425   1.605   3.221
 1512SOL    HW2 4672   2.515   1.594   3.342
 1513SOL     OW 4673   0.604   0.091   1.369
 1513SOL    HW1 4674   0.675   0.045   1.415
 1513SOL    HW2 4675   0.612   0.182   1.397
 1514SOL     OW 4676   1.086   2.230   0.158
 1514SOL    HW1 4677   1.116   2.160   0.099
 1514SOL    HW2 4678   1.041   2.184   0.229
 1515SOL     OW 4679   0.476   3.046   1.877
 1515SOL    HW1 4680   0.555   2.999   1.847
 1515SOL    HW2 4681   0.410   2.977   1.887
 1516SOL     OW 4682   2.156   2.445   2.840
 1516SOL    HW1 4683   2.117   2.420   2.924
 1516SOL    HW2 4684   2.108   2.524   2.813
 1517SOL     OW 4685   3.096   2.733   1.569
 1517SOL    HW1 4686   3.013   2.702   1.532
 1517SOL    HW2 4687   3.103   2.824   1.540
 1518SOL     OW 4688   0.253   2.610   3.873
 1518SOL    HW1 4689   0.321   2.669   3.904
 1518SOL    HW2 4690   0.185   2.668   3.837
 1519SOL     OW 4691   3.656   0.211   1.512
 1519SOL    HW1 4692   3.629   0.121   1.493
 1519SOL    HW2 4693   3.575   0.262   1.506
 1520SOL     OW 4694   0.516   0.167   3.196
 1520SOL    HW1 4695   0.588   0.230   3.200
 1520SOL    HW2 4696   0.440   0.220   3.170
 1521SOL     OW 4697   1.136   2.675   1.706
 1521SOL    HW1 4698   1.077   2.677   1.630
 1521SOL    HW2 4699   1.201   2.608   1.684
 1522SOL     OW 4700   1.499   0.959   1.098
 1522SOL    HW1 4701   1.451   0.959   1.181
 1522SOL    HW2 4702   1.463   1.033   1.049
 1523SOL     OW 4703   0.080   3.954   0.992
 1523SOL    HW1 4704   0.045   3.865   0.987
 1523SOL    HW2 4705   0.003   4.011   0.992
 1524SOL     OW 4706   2.110   1.426   1.346
 1524SOL    HW1 4707   2.052   1.362   1.388
 1524SOL    HW2 4708   2.076   1.435   1.257
 1525SOL     OW 4709   2.898   1.286   2.385
 1525SOL    HW1 4710   2.929   1.273   2.475
 1525SOL    HW2 4711   2.803   1.284   2.392
 1526SOL     OW 4712   3.797   2.084   0.251
 1526SOL    HW1 4713   3.751   2.000   0.241
 1526SOL    HW2 4714   3.873   2.077   0.194
 1527SOL     OW 4715   2.043   0.874   3.402
 1527SOL    HW1 4716   2.026   0.969   3.397
 1527SOL    HW2 4717   2.010   0.839   3.320
 1528SOL     OW 4718   3.612   0.637   3.717
 1528SOL    HW1 4719   3.579   0.553   3.749
 1528SOL    HW2 4720   3.568   0.650   3.633
 1529SOL     OW 4721   2.014   2.837   1.260
 1529SOL    HW1 4722   1.951   2.903   1.233
 1529SOL    HW2 4723   2.060   2.877   1.334
 1530SOL     OW 4724   2.062   3.816   1.799
 1530SOL    HW1 4725   2.050   3.722   1.786
 1530SOL    HW2 4726   2.005   3.857   1.733
 1531SOL     OW 4727   2.311   1.496   3.523
 1531SOL    HW1 4728   2.355   1.531   3.445
 1531SOL    HW2 4729   2.381   1.489   3.588
 1532SOL     OW 4730   0.222   2.381   1.707
 1532SOL    HW1 4731   0.309   2.352   1.735
 1532SOL    HW2 4732   0.221   2.475   1.727
 1533SOL     OW 4733   1.578   0.737   0.508
 1533SOL    HW1 4734   1.554   0.652   0.545
 1533SOL    HW2 4735   1.673   0.736   0.503
 1534SOL     OW 4736   1.964  -0.004   2.719
 1534SOL    HW1 4737   2.019   0.030   2.789
 1534SOL    HW2 4738   2.022  -0.009   2.643
 1535SOL     OW 4739   1.815   3.919   1.910
 1535SOL    HW1 4740   1.874   3.987   1.943
 1535SOL    HW2 4741   1.779   3.878   1.989
 1536SOL     OW 4742   3.580   1.125   1.481
 1536SOL    HW1 4743   3.506   1.144   1.423
 1536SOL    HW2 4744   3.553   1.159   1.567
 1537SOL     OW 4745   0.418   3.897   1.462
 1537SOL    HW1 4746   0.489   3.947   1.420
 1537SOL    HW2 4747   0.338   3.944   1.439
 1538SOL     OW 4748   1.163   2.975   1.585
 1538SOL    HW1 4749   1.232   2.958   1.649
 1538SOL    HW2 4750   1.207   2.971   1.500
 1539SOL     OW 4751   3.923   2.481   3.497
 1539SOL    HW1 4752   4.015   2.469   3.520
 1539SOL    HW2 4753   3.903   2.408   3.438
 1540SOL     OW 4754   3.516   2.744   2.104
 1540SOL    HW1 4755   3.589   2.805   2.114
 1540SOL    HW2 4756   3.557   2.658   2.111
 1541SOL     OW 4757   0.329   3.349   3.310
 1541SOL    HW1 4758   0.419   3.379   3.301
 1541SOL    HW2 4759   0.300   3.384   3.394
 1542SOL     OW 4760   0.496   3.106   1.006
 1542SOL    HW1 4761   0.518   3.198   1.021
 1542SOL    HW2 4762   0.449   3.107   0.922
 1543SOL     OW 4763   0.161   2.007   3.092
 1543SOL    HW1 4764   0.182   2.070   3.160
 1543SOL    HW2 4765   0.109   1.940   3.137
 1544SOL     OW 4766   3.957   2.374   2.102
 1544SOL    HW1 4767   3.959   2.464   2.069
 1544SOL    HW2 4768   3.927   2.382   2.193
 1545SOL     OW 4769   3.372   3.667   0.949
 1545SOL    HW1 4770   3.398   3.734   0.886
 1545SOL    HW2 4771   3.444   3.664   1.012
 1546SOL     OW 4772   3.553   1.047   0.182
 1546SOL    HW1 4773   3.644   1.044   0.151
 1546SOL    HW2 4774   3.520   1.132   0.151
 1547SOL     OW 4775   2.536   1.431   3.084
 1547SOL    HW1 4776   2.597   1.376   3.134
 1547SOL    HW2 4777   2.465   1.373   3.058
 1548SOL     OW 4778   0.304   1.409   3.278
 1548SOL    HW1 4779   0.288   1.498   3.310
 1548SOL    HW2 4780   0.250   1.402   3.200
 1549SOL     OW 4781   0.269   2.771   0.461
 1549SOL    HW1 4782   0.323   2.765   0.382
 1549SOL    HW2 4783   0.179   2.775   0.428
 1550SOL     OW 4784   1.713   2.054   2.222
 1550SOL    HW1 4785   1.660   2.130   2.196
 1550SOL    HW2 4786   1.705   1.994   2.148
 1551SOL     OW 4787   2.590   0.673   1.845
 1551SOL    HW1 4788   2.543   0.693   1.926
 1551SOL    HW2 4789   2.681   0.662   1.873
 1552SOL     OW 4790   2.960   0.175   0.550
 1552SOL    HW1 4791   3.043   0.153   0.508
 1552SOL    HW2 4792   2.972   0.266   0.579
 1553SOL     OW 4793   2.044   3.043   2.677
 1553SOL    HW1 4794   2.103   3.070   2.607
 1553SOL    HW2 4795   1.988   3.120   2.692
 1554SOL     OW 4796   1.357   3.088   3.208
 1554SOL    HW1 4797   1.340   3.149   3.280
 1554SOL    HW2 4798   1.319   3.131   3.131
 1555SOL     OW 4799   3.650   0.393   2.763
 1555SOL    HW1 4800   3.699   0.472   2.741
 1555SOL    HW2 4801   3.626   0.404   2.855
 1556SOL     OW 4802   2.242   3.617   0.559
 1556SOL    HW1 4803   2.250   3.640   0.652
 1556SOL    HW2 4804   2.189   3.686   0.521
 1557SOL     OW 4805   3.021   1.878   1.279
 1557SOL    HW1 4806   3.013   1.783   1.286
 1557SOL    HW2 4807   2.941   1.905   1.233
 1558SOL     OW 4808   0.272   3.545   1.377
 1558SOL    HW1 4809   0.224   3.604   1.433
 1558SOL    HW2 4810   0.215   3.469   1.367
 1559SOL     OW 4811   3.589   0.672   3.441
 1559SOL    HW1 4812   3.549   0.598   3.393
 1559SOL    HW2 4813   3.681   0.648   3.449
 1560SOL     OW 4814   2.070   0.132   2.456
 1560SOL    HW1 4815   2.093   0.186   2.532
 1560SOL    HW2 4816   2.153   0.118   2.411
 1561SOL     OW 4817   0.512   0.557   1.383
 1561SOL    HW1 4818   0.487   0.600   1.301
 1561SOL    HW2 4819   0.495   0.623   1.451
 1562SOL     OW 4820   0.988   3.059   3.033
 1562SOL    HW1 4821   0.985   3.108   3.115
 1562SOL    HW2 4822   1.027   3.119   2.970
 1563SOL     OW 4823   3.223   0.835   1.166
 1563SOL    HW1 4824   3.312   0.801   1.171
 1563SOL    HW2 4825   3.175   0.788   1.235
 1564SOL     OW 4826   2.759   1.031   3.540
 1564SOL    HW1 4827   2.834   0.976   3.518
 1564SOL    HW2 4828   2.684   0.971   3.537
 1565SOL     OW 4829   2.153   2.676   0.927
 1565SOL    HW1 4830   2.141   2.770   0.941
 1565SOL    HW2 4831   2.188   2.644   1.010
 1566SOL     OW 4832   2.461   2.979   2.394
 1566SOL    HW1 4833   2.401   3.053   2.383
 1566SOL    HW2 4834   2.416   2.919   2.454
 1567SOL     OW 4835   3.241   3.303   2.029
 1567SOL    HW1 4836   3.168   3.326   1.971
 1567SOL    HW2 4837   3.223   3.350   2.110
 1568SOL     OW 4838   1.970   1.933   2.355
 1568SOL    HW1 4839   1.884   1.962   2.327
 1568SOL    HW2 4840   2.010   1.896   2.277
 1569SOL     OW 4841   2.767   2.472   3.211
 1569SOL    HW1 4842   2.830   2.540   3.236
 1569SOL    HW2 4843   2.821   2.399   3.183
 1570SOL     OW 4844   0.611   2.083   3.051
 1570SOL    HW1 4845   0.549   2.099   2.980
 1570SOL    HW2 4846   0.572   2.013   3.102
 1571SOL     OW 4847   1.380   1.451   2.717
 1571SOL    HW1 4848   1.414   1.529   2.761
 1571SOL    HW2 4849   1.288   1.446   2.741
 1572SOL     OW 4850   0.776   3.810   2.573
 1572SOL    HW1 4851   0.796   3.852   2.657
 1572SOL    HW2 4852   0.736   3.726   2.596
 1573SOL     OW 4853   1.828   0.507   2.495
 1573SOL    HW1 4854   1.871   0.440   2.443
 1573SOL    HW2 4855   1.765   0.547   2.436
 1574SOL     OW 4856   2.775   0.801   1.438
 1574SOL    HW1 4857   2.688   0.763   1.447
 1574SOL    HW2 4858   2.786   0.856   1.515
 1575SOL     OW 4859   1.586   0.502   0.759
 1575SOL    HW1 4860   1.639   0.580   0.747
 1575SOL    HW2 4861   1.559   0.476   0.671
 1576SOL     OW 4862   3.728   3.493   2.061
 1576SOL    HW1 4863   3.636   3.484   2.039
 1576SOL    HW2 4864   3.759   3.565   2.007
 1577SOL     OW 4865   2.564   1.814   1.295
 1577SOL    HW1 4866   2.637   1.795   1.236
 1577SOL    HW2 4867   2.590   1.893   1.342
 1578SOL     OW 4868   1.651   0.071   0.086
 1578SOL    HW1 4869   1.629   0.024   0.167
 1578SOL    HW2 4870   1.735   0.113   0.104
 1579SOL     OW 4871   1.410   3.612   0.025
 1579SOL    HW1 4872   1.492   3.653   0.053
 1579SOL    HW2 4873   1.404   3.634  -0.068
 1580SOL     OW 4874   0.937   0.246   2.197
 1580SOL    HW1 4875   0.898   0.329   2.169
 1580SOL    HW2 4876   0.863   0.195   2.230
 1581SOL     OW 4877   1.433   0.490   1.218
 1581SOL    HW1 4878   1.395   0.554   1.157
 1581SOL    HW2 4879   1.474   0.425   1.161
 1582SOL     OW 4880   2.451   2.953   1.646
 1582SOL    HW1 4881   2.375   2.896   1.655
 1582SOL    HW2 4882   2.415   3.042   1.647
 1583SOL     OW 4883   1.931   0.691   2.685
 1583SOL    HW1 4884   1.857   0.738   2.723
 1583SOL    HW2 4885   1.892   0.628   2.625
 1584SOL     OW 4886   1.090   0.123   1.225
 1584SOL    HW1 4887   1.084   0.176   1.305
 1584SOL    HW2 4888   1.006   0.077   1.221
 1585SOL     OW 4889   1.511   2.357   2.693
 1585SOL    HW1 4890   1.572   2.360   2.619
 1585SOL    HW2 4891   1.565   2.330   2.767
 1586SOL     OW 4892   2.961   3.366   0.771
 1586SOL    HW1 4893   2.920   3.317   0.700
 1586SOL    HW2 4894   2.985   3.300   0.835
 1587SOL     OW 4895   0.375   0.773   0.496
 1587SOL    HW1 4896   0.450   0.804   0.546
 1587SOL    HW2 4897   0.330   0.712   0.555
 1588SOL     OW 4898   0.414   3.599   2.096
 1588SOL    HW1 4899   0.366   3.645   2.165
 1588SOL    HW2 4900   0.392   3.647   2.016
 1589SOL     OW 4901   1.036   1.790   2.075
 1589SOL    HW1 4902   1.019   1.842   1.996
 1589SOL    HW2 4903   1.094   1.720   2.046
 1590SOL     OW 4904   1.964   0.505   1.346
 1590SOL    HW1 4905   1.894   0.486   1.408
 1590SOL    HW2 4906   1.928   0.478   1.261
 1591SOL     OW 4907   3.208   2.843   2.269
 1591SOL    HW1 4908   3.117   2.869   2.285
 1591SOL    HW2 4909   3.204   2.747   2.263
 1592SOL     OW 4910   3.930   3.887   3.554
 1592SOL    HW1 4911   3.904   3.927   3.637
 1592SOL    HW2 4912   3.851   3.847   3.520
 1593SOL     OW 4913   0.290   1.702   3.799
 1593SOL    HW1 4914   0.246   1.750   3.869
 1593SOL    HW2 4915   0.234   1.626   3.784
 1594SOL     OW 4916   1.846   0.273   0.428
 1594SOL    HW1 4917   1.767   0.307   0.386
 1594SOL    HW2 4918   1.833   0.179   0.431
 1595SOL     OW 4919   1.572   3.859   0.290
 1595SOL    HW1 4920   1.633   3.837   0.360
 1595SOL    HW2 4921   1.520   3.779   0.278
 1596SOL     OW 4922   0.993   3.314   2.492
 1596SOL    HW1 4923   1.008   3.244   2.429
 1596SOL    HW2 4924   0.970   3.269   2.574
 1597SOL     OW 4925   2.476   0.924   0.536
 1597SOL    HW1 4926   2.490   0.849   0.592
 1597SOL    HW2 4927   2.409   0.976   0.581
 1598SOL     OW 4928   2.163   2.313   3.435
 1598SOL    HW1 4929   2.136   2.256   3.506
 1598SOL    HW2 4930   2.137   2.267   3.355
 1599SOL     OW 4931   1.854   2.949   2.382
 1599SOL    HW1 4932   1.832   2.992   2.299
 1599SOL    HW2 4933   1.935   2.902   2.363
 1600SOL     OW 4934   1.415   1.909   0.815
 1600SOL    HW1 4935   1.366   1.983   0.853
 1600SOL    HW2 4936   1.429   1.935   0.724
 1601SOL     OW 4937   3.063   0.674   1.947
 1601SOL    HW1 4938   3.033   0.764   1.932
 1601SOL    HW2 4939   3.110   0.678   2.030
 1602SOL     OW 4940   1.625   2.332   3.802
 1602SOL    HW1 4941   1.630   2.427   3.788
 1602SOL    HW2 4942   1.563   2.301   3.737
 1603SOL     OW 4943   2.929   2.248   1.055
 1603SOL    HW1 4944   2.864   2.180   1.072
 1603SOL    HW2 4945   3.007   2.200   1.027
 1604SOL     OW 4946   3.070   1.672   0.236
 1604SOL    HW1 4947   3.154   1.699   0.274
 1604SOL    HW2 4948   3.012   1.662   0.312
 1605SOL     OW 4949   1.853   2.592   0.054
 1605SOL    HW1 4950   1.803   2.608  -0.027
 1605SOL    HW2 4951   1.787   2.562   0.117
 1606SOL     OW 4952   1.766   0.012   0.501
 1606SOL    HW1 4953   1.839  -0.043   0.530
 1606SOL    HW2 4954   1.730   0.048   0.581
 1607SOL     OW 4955   2.503   3.637   1.347
 1607SOL    HW1 4956   2.556   3.610   1.421
 1607SOL    HW2 4957   2.514   3.568   1.282
 1608SOL     OW 4958   2.388   1.506   0.292
 1608SOL    HW1 4959   2.436   1.478   0.370
 1608SOL    HW2 4960   2.419   1.595   0.275
 1609SOL     OW 4961   0.823   0.386   3.919
 1609SOL    HW1 4962   0.915   0.373   3.943
 1609SOL    HW2 4963   0.778   0.307   3.951
 1610SOL     OW 4964   0.479   1.039   3.253
 1610SOL    HW1 4965   0.416   1.085   3.197
 1610SOL    HW2 4966   0.564   1.069   3.222
 1611SOL     OW 4967   3.503   1.170   3.198
 1611SOL    HW1 4968   3.421   1.171   3.149
 1611SOL    HW2 4969   3.530   1.078   3.199
 1612SOL     OW 4970   0.235   3.216   1.731
 1612SOL    HW1 4971   0.315   3.244   1.687
 1612SOL    HW2 4972   0.258   3.135   1.775
 1613SOL     OW 4973   2.359   2.351   1.745
 1613SOL    HW1 4974   2.389   2.427   1.794
 1613SOL    HW2 4975   2.430   2.333   1.683
 1614SOL     OW 4976   0.033   1.718   3.067
 1614SOL    HW1 4977  -0.029   1.648   3.087
 1614SOL    HW2 4978   0.099   1.676   3.011
 1615SOL     OW 4979   1.500   0.866   2.874
 1615SOL    HW1 4980   1.513   0.881   2.781
 1615SOL    HW2 4981   1.406   0.854   2.884
 1616SOL     OW 4982   1.770   0.197   3.775
 1616SOL    HW1 4983   1.797   0.211   3.866
 1616SOL    HW2 4984   1.851   0.173   3.730
 1617SOL     OW 4985   3.518   3.627   2.622
 1617SOL    HW1 4986   3.564   3.546   2.643
 1617SOL    HW2 4987   3.473   3.607   2.539
 1618SOL     OW 4988   1.320   2.060   0.229
 1618SOL    HW1 4989   1.303   2.143   0.275
 1618SOL    HW2 4990   1.297   2.079   0.138
 1619SOL     OW 4991   1.818   1.654   3.264
 1619SOL    HW1 4992   1.898   1.618   3.226
 1619SOL    HW2 4993   1.788   1.718   3.200
 1620SOL     OW 4994   1.772   1.326   1.169
 1620SOL    HW1 4995   1.687   1.365   1.186
 1620SOL    HW2 4996   1.794   1.280   1.250
 1621SOL     OW 4997   2.511   2.319   2.964
 1621SOL    HW1 4998   2.492   2.371   3.042
 1621SOL    HW2 4999   2.433   2.328   2.909
 1622SOL     OW 5000   0.673   1.823   3.598
 1622SOL    HW1 5001   0.725   1.743   3.588
 1622SOL    HW2 5002   0.607   1.802   3.664
 1623SOL     OW 5003   2.025   1.461   1.090
 1623SOL    HW1 5004   1.947   1.407   1.105
 1623SOL    HW2 5005   2.001   1.520   1.019
 1624SOL     OW 5006   1.174   2.170   1.255
 1624SOL    HW1 5007   1.206   2.116   1.328
 1624SOL    HW2 5008   1.154   2.106   1.186
 1625SOL     OW 5009   2.228   3.618   2.243
 1625SOL    HW1 5010   2.306   3.642   2.193
 1625SOL    HW2 5011   2.179   3.699   2.254
 1626SOL     OW 5012   0.853   0.974   1.147
 1626SOL    HW1 5013   0.817   1.039   1.206
 1626SOL    HW2 5014   0.782   0.912   1.132
 1627SOL     OW 5015   3.181   1.393   2.376
 1627SOL    HW1 5016   3.213   1.442   2.300
 1627SOL    HW2 5017   3.098   1.356   2.347
 1628SOL     OW 5018   0.119   2.860   2.083
 1628SOL    HW1 5019   0.057   2.917   2.037
 1628SOL    HW2 5020   0.161   2.917   2.147
 1629SOL     OW 5021   0.264   2.159   2.681
 1629SOL    HW1 5022   0.223   2.095   2.739
 1629SOL    HW2 5023   0.206   2.164   2.606
 1630SOL     OW 5024   2.367   3.810   1.706
 1630SOL    HW1 5025   2.317   3.887   1.677
 1630SOL    HW2 5026   2.444   3.810   1.649
 1631SOL     OW 5027   0.853   3.759   0.281
 1631SOL    HW1 5028   0.793   3.704   0.330
 1631SOL    HW2 5029   0.935   3.709   0.280
 1632SOL     OW 5030   3.648   3.743   3.476
 1632SOL    HW1 5031   3.562   3.706   3.459
 1632SOL    HW2 5032   3.709   3.675   3.448
 1633SOL     OW 5033   3.678   3.756   0.274
 1633SOL    HW1 5034   3.727   3.813   0.216
 1633SOL    HW2 5035   3.603   3.808   0.301
 1634SOL     OW 5036   1.466   3.405   0.359
 1634SOL    HW1 5037   1.532   3.466   0.393
 1634SOL    HW2 5038   1.490   3.320   0.397
 1635SOL     OW 5039   1.227   1.595   1.987
 1635SOL    HW1 5040   1.210   1.527   1.922
 1635SOL    HW2 5041   1.298   1.648   1.950
 1636SOL     OW 5042   2.689   2.963   0.402
 1636SOL    HW1 5043   2.695   2.929   0.313
 1636SOL    HW2 5044   2.689   3.058   0.392
 1637SOL     OW 5045   0.884   1.197   0.420
 1637SOL    HW1 5046   0.843   1.281   0.403
 1637SOL    HW2 5047   0.825   1.152   0.480
 1638SOL     OW 5048   3.455   0.460   1.718
 1638SOL    HW1 5049   3.417   0.547   1.710
 1638SOL    HW2 5050   3.543   0.475   1.751
 1639SOL     OW 5051   3.455   3.333   0.739
 1639SOL    HW1 5052   3.394   3.355   0.809
 1639SOL    HW2 5053   3.493   3.416   0.713
 1640SOL     OW 5054   1.563   0.402   3.755
 1640SOL    HW1 5055   1.640   0.347   3.737
 1640SOL    HW2 5056   1.493   0.362   3.704
 1641SOL     OW 5057   0.056   0.953   0.748
 1641SOL    HW1 5058   0.137   1.003   0.754
 1641SOL    HW2 5059  -0.011   1.011   0.782
 1642SOL     OW 5060   2.309   1.012   2.716
 1642SOL    HW1 5061   2.218   0.983   2.726
 1642SOL    HW2 5062   2.359   0.952   2.770
 1643SOL     OW 5063   0.785   2.707   2.705
 1643SOL    HW1 5064   0.697   2.710   2.742
 1643SOL    HW2 5065   0.819   2.796   2.717
 1644SOL     OW 5066   1.504   1.396   0.240
 1644SOL    HW1 5067   1.559   1.348   0.178
 1644SOL    HW2 5068   1.545   1.482   0.246
 1645SOL     OW 5069   1.347  -0.024   1.458
 1645SOL    HW1 5070   1.386  -0.043   1.543
 1645SOL    HW2 5071   1.323   0.068   1.462
 1646SOL     OW 5072   0.130   3.715   3.829
 1646SOL    HW1 5073   0.121   3.625   3.797
 1646SOL    HW2 5074   0.044   3.754   3.815
 1647SOL     OW 5075   0.831   0.909   3.747
 1647SOL    HW1 5076   0.833   0.899   3.842
 1647SOL    HW2 5077   0.739   0.900   3.724
 1648SOL     OW 5078   2.151   1.926   3.507
 1648SOL    HW1 5079   2.142   2.015   3.542
 1648SOL    HW2 5080   2.232   1.929   3.456
 1649SOL     OW 5081   3.057   1.158   1.136
 1649SOL    HW1 5082   3.087   1.142   1.225
 1649SOL    HW2 5083   2.971   1.115   1.132
 1650SOL     OW 5084   0.980   3.239   3.262
 1650SOL    HW1 5085   1.022   3.311   3.215
 1650SOL    HW2 5086   0.909   3.280   3.312
 1651SOL     OW 5087   0.086   3.516   2.637
 1651SOL    HW1 5088   0.031   3.499   2.560
 1651SOL    HW2 5089   0.050   3.596   2.674
 1652SOL     OW 5090   3.470   0.055   3.709
 1652SOL    HW1 5091   3.479  -0.027   3.758
 1652SOL    HW2 5092   3.559   0.088   3.700
 1653SOL     OW 5093   0.876   3.502   2.305
 1653SOL    HW1 5094   0.937   3.454   2.362
 1653SOL    HW2 5095   0.897   3.594   2.322
 1654SOL     OW 5096   1.415   2.613   3.394
 1654SOL    HW1 5097   1.393   2.673   3.323
 1654SOL    HW2 5098   1.356   2.539   3.382
 1655SOL     OW 5099   3.235   2.992   1.213
 1655SOL    HW1 5100   3.204   3.020   1.127
 1655SOL    HW2 5101   3.259   2.900   1.201
 1656SOL     OW 5102   3.770   1.162   0.832
 1656SOL    HW1 5103   3.756   1.091   0.895
 1656SOL    HW2 5104   3.742   1.241   0.877
 1657SOL     OW 5105   3.938   0.862   0.518
 1657SOL    HW1 5106   3.973   0.900   0.599
 1657SOL    HW2 5107   3.947   0.932   0.454
 1658SOL     OW 5108   2.899   3.485   1.373
 1658SOL    HW1 5109   2.937   3.397   1.383
 1658SOL    HW2 5110   2.935   3.517   1.290
 1659SOL     OW 5111   1.184   1.118   0.945
 1659SOL    HW1 5112   1.275   1.142   0.964
 1659SOL    HW2 5113   1.145   1.198   0.911
 1660SOL     OW 5114   0.870   0.959   0.064
 1660SOL    HW1 5115   0.926   0.894   0.106
 1660SOL    HW2 5116   0.910   1.044   0.085
 1661SOL     OW 5117   2.171   2.808   3.299
 1661SOL    HW1 5118   2.169   2.904   3.301
 1661SOL    HW2 5119   2.259   2.786   3.269
 1662SOL     OW 5120   0.127   0.169   2.363
 1662SOL    HW1 5121   0.111   0.230   2.436
 1662SOL    HW2 5122   0.211   0.129   2.385
 1663SOL     OW 5123   2.631   0.569   3.232
 1663SOL    HW1 5124   2.698   0.501   3.226
 1663SOL    HW2 5125   2.655   0.619   3.310
 1664SOL     OW 5126   2.813   0.459   2.348
 1664SOL    HW1 5127   2.904   0.437   2.328
 1664SOL    HW2 5128   2.784   0.388   2.405
 1665SOL     OW 5129   1.652   2.923   0.090
 1665SOL    HW1 5130   1.589   2.867   0.044
 1665SOL    HW2 5131   1.661   2.883   0.176
 1666SOL     OW 5132   2.481   1.984   1.844
 1666SOL    HW1 5133   2.472   1.923   1.770
 1666SOL    HW2 5134   2.402   1.969   1.896
 1667SOL     OW 5135   0.121   0.316   0.896
 1667SOL    HW1 5136   0.196   0.322   0.837
 1667SOL    HW2 5137   0.139   0.239   0.950
 1668SOL     OW 5138   2.919   3.831   2.931
 1668SOL    HW1 5139   2.978   3.898   2.965
 1668SOL    HW2 5140   2.890   3.865   2.846
 1669SOL     OW 5141   1.966   1.556   1.966
 1669SOL    HW1 5142   1.968   1.474   1.917
 1669SOL    HW2 5143   2.047   1.554   2.018
 1670SOL     OW 5144   3.014   2.595   3.704
 1670SOL    HW1 5145   3.013   2.597   3.608
 1670SOL    HW2 5146   3.095   2.641   3.728
 1671SOL     OW 5147   0.955   1.828   3.189
 1671SOL    HW1 5148   1.034   1.813   3.241
 1671SOL    HW2 5149   0.907   1.745   3.194
 1672SOL     OW 5150   0.946   1.702   0.594
 1672SOL    HW1 5151   1.013   1.742   0.649
 1672SOL    HW2 5152   0.863   1.733   0.631
 1673SOL     OW 5153   1.214   2.753   0.181
 1673SOL    HW1 5154   1.179   2.722   0.097
 1673SOL    HW2 5155   1.170   2.699   0.246
 1674SOL     OW 5156   0.822   1.561   3.612
 1674SOL    HW1 5157   0.825   1.469   3.638
 1674SOL    HW2 5158   0.869   1.565   3.529
 1675SOL     OW 5159   2.034   1.218   2.359
 1675SOL    HW1 5160   2.119   1.245   2.324
 1675SOL    HW2 5161   1.999   1.297   2.401
 1676SOL     OW 5162   0.076   3.330   1.460
 1676SOL    HW1 5163   0.087   3.355   1.552
 1676SOL    HW2 5164   0.081   3.234   1.461
 1677SOL     OW 5165   2.819   1.326   2.849
 1677SOL    HW1 5166   2.853   1.295   2.932
 1677SOL    HW2 5167   2.778   1.410   2.870
 1678SOL     OW 5168   2.723   2.401   0.117
 1678SOL    HW1 5169   2.720   2.306   0.113
 1678SOL    HW2 5170   2.680   2.423   0.199
 1679SOL     OW 5171   1.232   2.270   2.619
 1679SOL    HW1 5172   1.304   2.246   2.562
 1679SOL    HW2 5173   1.153   2.260   2.565
 1680SOL     OW 5174   3.419   2.905   0.237
 1680SOL    HW1 5175   3.373   2.949   0.166
 1680SOL    HW2 5176   3.373   2.821   0.247
 1681SOL     OW 5177   2.255   2.021   0.797
 1681SOL    HW1 5178   2.341   1.988   0.771
 1681SOL    HW2 5179   2.258   2.114   0.777
 1682SOL     OW 5180   1.534   1.089   3.931
 1682SOL    HW1 5181   1.492   1.174   3.944
 1682SOL    HW2 5182   1.479   1.028   3.981
 1683SOL     OW 5183   1.364   2.965   1.770
 1683SOL    HW1 5184   1.440   3.007   1.809
 1683SOL    HW2 5185   1.332   2.906   1.838
 1684SOL     OW 5186   1.894   2.546   1.048
 1684SOL    HW1 5187   1.886   2.523   1.141
 1684SOL    HW2 5188   1.974   2.598   1.042
 1685SOL     OW 5189   2.148   3.037   3.587
 1685SOL    HW1 5190   2.233   3.049   3.630
 1685SOL    HW2 5191   2.164   3.053   3.495
 1686SOL     OW 5192   2.715   3.887   1.790
 1686SOL    HW1 5193   2.775   3.815   1.772
 1686SOL    HW2 5194   2.648   3.880   1.723
 1687SOL     OW 5195   2.189   3.766   3.329
 1687SOL    HW1 5196   2.094   3.772   3.338
 1687SOL    HW2 5197   2.202   3.688   3.275
 1688SOL     OW 5198   2.055   3.537   1.764
 1688SOL    HW1 5199   2.105   3.476   1.709
 1688SOL    HW2 5200   1.986   3.484   1.802
 1689SOL     OW 5201   0.617   3.896   0.833
 1689SOL    HW1 5202   0.685   3.900   0.765
 1689SOL    HW2 5203   0.579   3.809   0.824
 1690SOL     OW 5204   0.507   0.275   1.163
 1690SOL    HW1 5205   0.518   0.186   1.197
 1690SOL    HW2 5206   0.578   0.284   1.099
 1691SOL     OW 5207   1.971   2.094   2.979
 1691SOL    HW1 5208   1.994   2.024   2.917
 1691SOL    HW2 5209   1.959   2.171   2.924
 1692SOL     OW 5210   1.669   0.784   1.378
 1692SOL    HW1 5211   1.618   0.837   1.318
 1692SOL    HW2 5212   1.633   0.695   1.368
 1693SOL     OW 5213   1.794   3.550   2.619
 1693SOL    HW1 5214   1.716   3.537   2.672
 1693SOL    HW2 5215   1.831   3.633   2.651
 1694SOL     OW 5216   1.336   3.700   1.097
 1694SOL    HW1 5217   1.314   3.722   1.007
 1694SOL    HW2 5218   1.415   3.750   1.116
 1695SOL     OW 5219   2.828   0.986   2.863
 1695SOL    HW1 5220   2.821   0.913   2.802
 1695SOL    HW2 5221   2.921   1.012   2.858
 1696SOL     OW 5222   3.037   0.686   0.962
 1696SOL    HW1 5223   3.114   0.695   1.017
 1696SOL    HW2 5224   2.998   0.603   0.987
 1697SOL     OW 5225   1.636   2.862   0.358
 1697SOL    HW1 5226   1.722   2.820   0.370
 1697SOL    HW2 5227   1.586   2.837   0.436
 1698SOL     OW 5228   3.518   3.303   0.468
 1698SOL    HW1 5229   3.518   3.389   0.426
 1698SOL    HW2 5230   3.525   3.322   0.562
 1699SOL     OW 5231   3.123   2.259   0.748
 1699SOL    HW1 5232   3.143   2.327   0.812
 1699SOL    HW2 5233   3.127   2.178   0.797
 1700SOL     OW 5234   0.431   1.123   3.918
 1700SOL    HW1 5235   0.400   1.052   3.861
 1700SOL    HW2 5236   0.500   1.083   3.971
 1701SOL     OW 5237   2.940   1.496   3.478
 1701SOL    HW1 5238   2.938   1.584   3.517
 1701SOL    HW2 5239   2.955   1.437   3.552
 1702SOL     OW 5240   1.277   3.204   0.710
 1702SOL    HW1 5241   1.319   3.285   0.739
 1702SOL    HW2 5242   1.332   3.134   0.745
 1703SOL     OW 5243   2.726   2.668   3.029
 1703SOL    HW1 5244   2.700   2.695   3.116
 1703SOL    HW2 5245   2.768   2.583   3.041
 1704SOL     OW 5246   2.599   1.072   3.810
 1704SOL    HW1 5247   2.694   1.069   3.811
 1704SOL    HW2 5248   2.572   0.992   3.855
 1705SOL     OW 5249   0.516   0.957   2.639
 1705SOL    HW1 5250   0.511   1.014   2.563
 1705SOL    HW2 5251   0.459   0.883   2.618
 1706SOL     OW 5252   0.310   0.406   3.582
 1706SOL    HW1 5253   0.275   0.446   3.662
 1706SOL    HW2 5254   0.375   0.343   3.614
 1707SOL     OW 5255   2.285   1.636   0.874
 1707SOL    HW1 5256   2.281   1.547   0.907
 1707SOL    HW2 5257   2.288   1.691   0.953
 1708SOL     OW 5258   2.606   0.930   0.248
 1708SOL    HW1 5259   2.573   0.915   0.336
 1708SOL    HW2 5260   2.549   0.999   0.213
 1709SOL     OW 5261   3.551   1.313   0.060
 1709SOL    HW1 5262   3.536   1.308  -0.035
 1709SOL    HW2 5263   3.645   1.333   0.067
 1710SOL     OW 5264   3.266   1.530   1.338
 1710SOL    HW1 5265   3.183   1.484   1.327
 1710SOL    HW2 5266   3.326   1.486   1.277
 1711SOL     OW 5267   0.953   0.960   2.666
 1711SOL    HW1 5268   0.893   0.975   2.740
 1711SOL    HW2 5269   0.908   0.895   2.612
 1712SOL     OW 5270   1.571   1.298   1.427
 1712SOL    HW1 5271   1.657   1.262   1.445
 1712SOL    HW2 5272   1.512   1.249   1.484
 1713SOL     OW 5273   1.946   2.453   2.373
 1713SOL    HW1 5274   2.001   2.532   2.372
 1713SOL    HW2 5275   1.995   2.389   2.321
 1714SOL     OW 5276   3.528   0.687   2.797
 1714SOL    HW1 5277   3.549   0.727   2.881
 1714SOL    HW2 5278   3.460   0.743   2.760
 1715SOL     OW 5279   1.478   1.138   1.626
 1715SOL    HW1 5280   1.423   1.061   1.637
 1715SOL    HW2 5281   1.508   1.159   1.714
 1716SOL     OW 5282   2.009   1.607   2.399
 1716SOL    HW1 5283   1.940   1.547   2.427
 1716SOL    HW2 5284   1.964   1.673   2.347
 1717SOL     OW 5285   2.579   3.278   3.908
 1717SOL    HW1 5286   2.515   3.297   3.977
 1717SOL    HW2 5287   2.618   3.363   3.887
 1718SOL     OW 5288   3.647   3.812   2.129
 1718SOL    HW1 5289   3.568   3.792   2.080
 1718SOL    HW2 5290   3.713   3.752   2.095
 1719SOL     OW 5291   2.095   1.349   2.883
 1719SOL    HW1 5292   2.150   1.402   2.825
 1719SOL    HW2 5293   2.137   1.357   2.969
 1720SOL     OW 5294   2.647   1.199   1.810
 1720SOL    HW1 5295   2.615   1.109   1.801
 1720SOL    HW2 5296   2.668   1.208   1.903
 1721SOL     OW 5297   1.648   1.052   2.151
 1721SOL    HW1 5298   1.594   1.030   2.227
 1721SOL    HW2 5299   1.738   1.041   2.181
 1722SOL     OW 5300   3.336   1.896   3.655
 1722SOL    HW1 5301   3.355   1.873   3.746
 1722SOL    HW2 5302   3.423   1.904   3.614
 1723SOL     OW 5303   0.064   2.603   1.100
 1723SOL    HW1 5304   0.044   2.581   1.009
 1723SOL    HW2 5305   0.157   2.625   1.100
 1724SOL     OW 5306   3.057   0.212   3.636
 1724SOL    HW1 5307   3.050   0.162   3.555
 1724SOL    HW2 5308   3.146   0.246   3.636
 1725SOL     OW 5309   2.688   0.816   3.095
 1725SOL    HW1 5310   2.732   0.795   3.013
 1725SOL    HW2 5311   2.682   0.732   3.141
 1726SOL     OW 5312   0.331   2.732   3.018
 1726SOL    HW1 5313   0.416   2.728   3.063
 1726SOL    HW2 5314   0.270   2.760   3.086
 1727SOL     OW 5315   3.344   0.620   2.375
 1727SOL    HW1 5316   3.358   0.715   2.381
 1727SOL    HW2 5317   3.367   0.588   2.463
 1728SOL     OW 5318   2.367   1.425   1.460
 1728SOL    HW1 5319   2.289   1.456   1.413
 1728SOL    HW2 5320   2.364   1.330   1.453
 1729SOL     OW 5321   0.001   3.701   1.182
 1729SOL    HW1 5322  -0.016   3.607   1.192
 1729SOL    HW2 5323   0.076   3.719   1.239
 1730SOL     OW 5324   1.517   0.677   3.167
 1730SOL    HW1 5325   1.610   0.666   3.185
 1730SOL    HW2 5326   1.494   0.759   3.211
 1731SOL     OW 5327   2.203   1.192   3.620
 1731SOL    HW1 5328   2.295   1.191   3.596
 1731SOL    HW2 5329   2.180   1.284   3.627
 1732SOL     OW 5330   2.936   1.154   1.914
 1732SOL    HW1 5331   2.992   1.228   1.939
 1732SOL    HW2 5332   2.850   1.175   1.952
 1733SOL     OW 5333   0.623   1.476   1.124
 1733SOL    HW1 5334   0.619   1.569   1.103
 1733SOL    HW2 5335   0.590   1.470   1.214
 1734SOL     OW 5336   3.778   0.388   1.292
 1734SOL    HW1 5337   3.814   0.328   1.358
 1734SOL    HW2 5338   3.845   0.457   1.284
 1735SOL     OW 5339   1.756   2.870   1.749
 1735SOL    HW1 5340   1.681   2.818   1.778
 1735SOL    HW2 5341   1.797   2.900   1.830
 1736SOL     OW 5342   2.127   1.642   3.350
 1736SOL    HW1 5343   2.081   1.576   3.403
 1736SOL    HW2 5344   2.199   1.672   3.405
 1737SOL     OW 5345   2.093   0.715   1.070
 1737SOL    HW1 5346   2.137   0.799   1.075
 1737SOL    HW2 5347   2.100   0.679   1.159
 1738SOL     OW 5348   2.787   2.488   3.617
 1738SOL    HW1 5349   2.853   2.536   3.668
 1738SOL    HW2 5350   2.837   2.446   3.548
 1739SOL     OW 5351   1.046   0.259   1.560
 1739SOL    HW1 5352   1.052   0.208   1.640
 1739SOL    HW2 5353   0.981   0.327   1.579
 1740SOL     OW 5354   2.433   2.890   3.860
 1740SOL    HW1 5355   2.518   2.855   3.834
 1740SOL    HW2 5356   2.379   2.813   3.878
 1741SOL     OW 5357   2.579   3.561   3.594
 1741SOL    HW1 5358   2.508   3.621   3.572
 1741SOL    HW2 5359   2.571   3.490   3.529
 1742SOL     OW 5360   3.935   0.518   2.959
 1742SOL    HW1 5361   3.867   0.457   2.929
 1742SOL    HW2 5362   3.898   0.558   3.038
 1743SOL     OW 5363   0.867   3.926   1.157
 1743SOL    HW1 5364   0.908   3.857   1.104
 1743SOL    HW2 5365   0.788   3.885   1.192
 1744SOL     OW 5366   0.035   1.776   0.635
 1744SOL    HW1 5367   0.038   1.711   0.704
 1744SOL    HW2 5368   0.008   1.857   0.679
 1745SOL     OW 5369   3.391   1.571   2.532
 1745SOL    HW1 5370   3.313   1.520   2.551
 1745SOL    HW2 5371   3.405   1.559   2.438
 1746SOL     OW 5372   0.576   3.098   3.914
 1746SOL    HW1 5373   0.647   3.079   3.852
 1746SOL    HW2 5374   0.587   3.191   3.935
 1747SOL     OW 5375   2.457   0.545   2.969
 1747SOL    HW1 5376   2.385   0.495   3.009
 1747SOL    HW2 5377   2.528   0.482   2.959
 1748SOL     OW 5378   0.710   2.528   2.509
 1748SOL    HW1 5379   0.622   2.558   2.489
 1748SOL    HW2 5380   0.737   2.580   2.585
 1749SOL     OW 5381   2.068   3.754   2.904
 1749SOL    HW1 5382   2.095   3.836   2.945
 1749SOL    HW2 5383   2.062   3.774   2.811
 1750SOL     OW 5384   1.574   0.765   2.078
 1750SOL    HW1 5385   1.535   0.820   2.146
 1750SOL    HW2 5386   1.667   0.786   2.080
 1751SOL     OW 5387   0.215   0.620   1.565
 1751SOL    HW1 5388   0.130   0.660   1.586
 1751SOL    HW2 5389   0.252   0.677   1.497
 1752SOL     OW 5390   2.390   3.878   0.445
 1752SOL    HW1 5391   2.456   3.867   0.513
 1752SOL    HW2 5392   2.348   3.962   0.467
 1753SOL     OW 5393   1.372   1.491   1.544
 1753SOL    HW1 5394   1.458   1.457   1.522
 1753SOL    HW2 5395   1.313   1.455   1.478
 1754SOL     OW 5396   2.980   0.853   3.159
 1754SOL    HW1 5397   2.887   0.869   3.172
 1754SOL    HW2 5398   3.003   0.906   3.083
 1755SOL     OW 5399   3.205   3.442   0.923
 1755SOL    HW1 5400   3.135   3.485   0.875
 1755SOL    HW2 5401   3.264   3.513   0.949
 1756SOL     OW 5402   3.017   0.729   1.339
 1756SOL    HW1 5403   2.948   0.783   1.376
 1756SOL    HW2 5404   2.971   0.653   1.304
 1757SOL     OW 5405   3.909   2.047   3.831
 1757SOL    HW1 5406   3.851   2.039   3.755
 1757SOL    HW2 5407   3.889   2.133   3.867
 1758SOL     OW 5408   2.117   3.056   2.114
 1758SOL    HW1 5409   2.119   3.006   2.196
 1758SOL    HW2 5410   2.029   3.094   2.111
 1759SOL     OW 5411   0.266   2.430   2.030
 1759SOL    HW1 5412   0.216   2.391   2.101
 1759SOL    HW2 5413   0.201   2.451   1.963
 1760SOL     OW 5414   3.017   1.863   0.607
 1760SOL    HW1 5415   3.091   1.802   0.613
 1760SOL    HW2 5416   3.035   1.929   0.674
 1761SOL     OW 5417   0.546   2.165   0.595
 1761SOL    HW1 5418   0.568   2.089   0.542
 1761SOL    HW2 5419   0.488   2.131   0.663
 1762SOL     OW 5420   3.658   3.387   1.085
 1762SOL    HW1 5421   3.714   3.327   1.037
 1762SOL    HW2 5422   3.569   3.368   1.054
 1763SOL     OW 5423   1.048   3.344   3.686
 1763SOL    HW1 5424   1.022   3.258   3.717
 1763SOL    HW2 5425   1.131   3.330   3.641
 1764SOL     OW 5426   0.585   3.442   3.021
 1764SOL    HW1 5427   0.567   3.502   3.095
 1764SOL    HW2 5428   0.516   3.462   2.958
 1765SOL     OW 5429   1.683   0.352   1.789
 1765SOL    HW1 5430   1.752   0.368   1.853
 1765SOL    HW2 5431   1.607   0.397   1.824
 1766SOL     OW 5432   2.372   1.790   2.886
 1766SOL    HW1 5433   2.389   1.697   2.867
 1766SOL    HW2 5434   2.458   1.827   2.904
 1767SOL     OW 5435   2.869   1.213   0.280
 1767SOL    HW1 5436   2.858   1.278   0.349
 1767SOL    HW2 5437   2.790   1.222   0.226
 1768SOL     OW 5438   1.765   0.391   3.326
 1768SOL    HW1 5439   1.806   0.393   3.239
 1768SOL    HW2 5440   1.704   0.318   3.322
 1769SOL     OW 5441   2.265   3.189   2.475
 1769SOL    HW1 5442   2.217   3.238   2.408
 1769SOL    HW2 5443   2.337   3.246   2.500
 1770SOL     OW 5444   0.879   3.305   1.775
 1770SOL    HW1 5445   0.874   3.385   1.828
 1770SOL    HW2 5446   0.855   3.333   1.687
 1771SOL     OW 5447   0.020   2.669   3.109
 1771SOL    HW1 5448   0.060   2.732   3.168
 1771SOL    HW2 5449   0.059   2.585   3.134
 1772SOL     OW 5450   0.280   0.571   2.974
 1772SOL    HW1 5451   0.190   0.553   2.946
 1772SOL    HW2 5452   0.271   0.641   3.039
 1773SOL     OW 5453   2.579   0.578   2.696
 1773SOL    HW1 5454   2.591   0.510   2.762
 1773SOL    HW2 5455   2.549   0.532   2.618
 1774SOL     OW 5456   1.496   2.391   3.544
 1774SOL    HW1 5457   1.478   2.485   3.540
 1774SOL    HW2 5458   1.475   2.358   3.457
 1775SOL     OW 5459   3.730   0.493   1.036
 1775SOL    HW1 5460   3.737   0.433   1.111
 1775SOL    HW2 5461   3.818   0.495   0.998
 1776SOL     OW 5462   3.701   0.497   0.464
 1776SOL    HW1 5463   3.787   0.494   0.421
 1776SOL    HW2 5464   3.650   0.429   0.421
 1777SOL     OW 5465   3.408   2.380   2.438
 1777SOL    HW1 5466   3.484   2.391   2.496
 1777SOL    HW2 5467   3.362   2.464   2.442
 1778SOL     OW 5468   3.984   3.477   3.705
 1778SOL    HW1 5469   3.932   3.423   3.765
 1778SOL    HW2 5470   3.923   3.500   3.634
 1779SOL     OW 5471   2.461   3.710   3.112
 1779SOL    HW1 5472   2.400   3.644   3.143
 1779SOL    HW2 5473   2.543   3.663   3.098
 1780SOL     OW 5474   3.170   1.051   0.582
 1780SOL    HW1 5475   3.129   1.009   0.658
 1780SOL    HW2 5476   3.254   1.083   0.615
 1781SOL     OW 5477   3.304   2.921   2.566
 1781SOL    HW1 5478   3.384   2.882   2.530
 1781SOL    HW2 5479   3.238   2.908   2.498
 1782SOL     OW 5480   1.375   1.389   3.799
 1782SOL    HW1 5481   1.441   1.326   3.771
 1782SOL    HW2 5482   1.315   1.396   3.725
 1783SOL     OW 5483   0.342   0.018   2.269
 1783SOL    HW1 5484   0.274  -0.024   2.216
 1783SOL    HW2 5485   0.336   0.111   2.247
 1784SOL     OW 5486   3.262   0.403   3.170
 1784SOL    HW1 5487   3.282   0.310   3.164
 1784SOL    HW2 5488   3.211   0.422   3.091
 1785SOL     OW 5489   3.382   1.446   0.237
 1785SOL    HW1 5490   3.450   1.399   0.190
 1785SOL    HW2 5491   3.300   1.415   0.198
 1786SOL     OW 5492   0.693   3.603   1.504
 1786SOL    HW1 5493   0.703   3.613   1.598
 1786SOL    HW2 5494   0.760   3.539   1.479
 1787SOL     OW 5495   1.375   0.985   3.286
 1787SOL    HW1 5496   1.452   1.018   3.239
 1787SOL    HW2 5497   1.407   0.967   3.375
 1788SOL     OW 5498   0.205   1.320   0.085
 1788SOL    HW1 5499   0.222   1.232   0.051
 1788SOL    HW2 5500   0.290   1.363   0.088
 1789SOL     OW 5501   3.239   0.006   0.773
 1789SOL    HW1 5502   3.316   0.061   0.780
 1789SOL    HW2 5503   3.173   0.050   0.827
 1790SOL     OW 5504   3.673   3.847   1.443
 1790SOL    HW1 5505   3.724   3.768   1.464
 1790SOL    HW2 5506   3.686   3.859   1.349
 1791SOL     OW 5507   2.764   2.353   2.830
 1791SOL    HW1 5508   2.740   2.439   2.796
 1791SOL    HW2 5509   2.857   2.345   2.813
 1792SOL     OW 5510   0.887   3.352   0.081
 1792SOL    HW1 5511   0.904   3.366   0.174
 1792SOL    HW2 5512   0.972   3.326   0.045
 1793SOL     OW 5513   0.876   1.941   1.834
 1793SOL    HW1 5514   0.837   1.883   1.769
 1793SOL    HW2 5515   0.907   2.017   1.784
 1794SOL     OW 5516   0.767   3.276   1.480
 1794SOL    HW1 5517   0.812   3.278   1.396
 1794SOL    HW2 5518   0.819   3.216   1.533
 1795SOL     OW 5519   0.076   3.743   1.542
 1795SOL    HW1 5520   0.020   3.690   1.598
 1795SOL    HW2 5521   0.024   3.821   1.521
 1796SOL     OW 5522   3.230   3.226   2.587
 1796SOL    HW1 5523   3.275   3.215   2.504
 1796SOL    HW2 5524   3.276   3.169   2.649
 1797SOL     OW 5525   2.055   2.438   3.110
 1797SOL    HW1 5526   2.098   2.366   3.155
 1797SOL    HW2 5527   1.971   2.449   3.156
 1798SOL     OW 5528   1.094   1.448   3.911
 1798SOL    HW1 5529   1.189   1.459   3.904
 1798SOL    HW2 5530   1.068   1.512   3.978
 1799SOL     OW 5531   1.125   3.576   2.513
 1799SOL    HW1 5532   1.124   3.480   2.516
 1799SOL    HW2 5533   1.091   3.603   2.598
 1800SOL     OW 5534   0.513   3.894   1.706
 1800SOL    HW1 5535   0.509   3.889   1.610
 1800SOL    HW2 5536   0.607   3.903   1.725
 1801SOL     OW 5537   2.423   1.029   1.458
 1801SOL    HW1 5538   2.340   0.996   1.494
 1801SOL    HW2 5539   2.488   0.965   1.486
 1802SOL     OW 5540   1.375   3.338   3.835
 1802SOL    HW1 5541   1.307   3.276   3.862
 1802SOL    HW2 5542   1.429   3.350   3.913
 1803SOL     OW 5543  -0.027   0.555   0.331
 1803SOL    HW1 5544   0.058   0.554   0.375
 1803SOL    HW2 5545  -0.023   0.630   0.273
 1804SOL     OW 5546   0.786   0.567   0.539
 1804SOL    HW1 5547   0.714   0.505   0.551
 1804SOL    HW2 5548   0.766   0.639   0.599
 1805SOL     OW 5549   1.860   2.904   0.882
 1805SOL    HW1 5550   1.903   2.864   0.806
 1805SOL    HW2 5551   1.930   2.911   0.947
 1806SOL     OW 5552   1.515   3.227   1.409
 1806SOL    HW1 5553   1.441   3.197   1.357
 1806SOL    HW2 5554   1.559   3.147   1.436
 1807SOL     OW 5555   3.741   2.631   2.984
 1807SOL    HW1 5556   3.746   2.589   2.897
 1807SOL    HW2 5557   3.832   2.653   3.005
 1808SOL     OW 5558   0.681   3.557   1.048
 1808SOL    HW1 5559   0.652   3.646   1.068
 1808SOL    HW2 5560   0.600   3.510   1.025
 1809SOL     OW 5561   0.194   2.425   3.619
 1809SOL    HW1 5562   0.221   2.366   3.689
 1809SOL    HW2 5563   0.276   2.460   3.584
 1810SOL     OW 5564   3.045   0.074   1.531
 1810SOL    HW1 5565   3.023  -0.020   1.532
 1810SOL    HW2 5566   2.965   0.116   1.499
 1811SOL     OW 5567   3.294   2.376   0.279
 1811SOL    HW1 5568   3.274   2.393   0.372
 1811SOL    HW2 5569   3.210   2.349   0.242
 1812SOL     OW 5570   3.892   2.672   2.209
 1812SOL    HW1 5571   3.875   2.746   2.150
 1812SOL    HW2 5572   3.943   2.709   2.281
 1813SOL     OW 5573   1.377   2.205   2.399
 1813SOL    HW1 5574   1.411   2.117   2.379
 1813SOL    HW2 5575   1.455   2.258   2.415
 1814SOL     OW 5576   0.977   1.339   3.662
 1814SOL    HW1 5577   1.012   1.251   3.681
 1814SOL    HW2 5578   1.037   1.398   3.707
 1815SOL     OW 5579   1.310   2.699   2.845
 1815SOL    HW1 5580   1.215   2.696   2.854
 1815SOL    HW2 5581   1.327   2.780   2.796
 1816SOL     OW 5582   0.525   0.531   2.629
 1816SOL    HW1 5583   0.595   0.585   2.666
 1816SOL    HW2 5584   0.554   0.513   2.539
 1817SOL     OW 5585   1.974   3.545   0.767
 1817SOL    HW1 5586   1.971   3.540   0.863
 1817SOL    HW2 5587   2.052   3.496   0.743
 1818SOL     OW 5588   2.543   1.298   2.772
 1818SOL    HW1 5589   2.629   1.330   2.798
 1818SOL    HW2 5590   2.525   1.225   2.831
 1819SOL     OW 5591   0.113   1.684   3.348
 1819SOL    HW1 5592   0.099   1.665   3.256
 1819SOL    HW2 5593   0.029   1.715   3.380
 1820SOL     OW 5594   0.680   1.980   2.556
 1820SOL    HW1 5595   0.601   1.933   2.528
 1820SOL    HW2 5596   0.752   1.934   2.514
 1821SOL     OW 5597   2.531   0.731   0.720
 1821SOL    HW1 5598   2.581   0.653   0.698
 1821SOL    HW2 5599   2.582   0.774   0.788
 1822SOL     OW 5600   2.890   2.809   2.619
 1822SOL    HW1 5601   2.847   2.828   2.702
 1822SOL    HW2 5602   2.975   2.773   2.643
 1823SOL     OW 5603   3.940   3.428   1.220
 1823SOL    HW1 5604   3.941   3.398   1.310
 1823SOL    HW2 5605   3.850   3.417   1.191
 1824SOL     OW 5606   3.247   1.846   2.606
 1824SOL    HW1 5607   3.173   1.826   2.550
 1824SOL    HW2 5608   3.212   1.844   2.695
 1825SOL     OW 5609   1.143   3.436   2.052
 1825SOL    HW1 5610   1.167   3.524   2.082
 1825SOL    HW2 5611   1.049   3.431   2.069
 1826SOL     OW 5612   2.324   1.866   2.020
 1826SOL    HW1 5613   2.260   1.848   2.090
 1826SOL    HW2 5614   2.392   1.801   2.033
 1827SOL     OW 5615   0.167   1.214   3.644
 1827SOL    HW1 5616   0.115   1.193   3.566
 1827SOL    HW2 5617   0.254   1.233   3.611
 1828SOL     OW 5618   0.062   0.292   3.591
 1828SOL    HW1 5619   0.145   0.335   3.568
 1828SOL    HW2 5620   0.005   0.364   3.620
 1829SOL     OW 5621   3.875   3.619   3.413
 1829SOL    HW1 5622   3.902   3.590   3.326
 1829SOL    HW2 5623   3.953   3.660   3.450
 1830SOL     OW 5624   1.714   3.068   0.701
 1830SOL    HW1 5625   1.779   3.091   0.634
 1830SOL    HW2 5626   1.754   2.995   0.748
 1831SOL     OW 5627   1.216   0.723   3.745
 1831SOL    HW1 5628   1.198   0.652   3.683
 1831SOL    HW2 5629   1.234   0.799   3.689
 1832SOL     OW 5630   3.307   2.448   3.508
 1832SOL    HW1 5631   3.324   2.532   3.550
 1832SOL    HW2 5632   3.365   2.446   3.432
 1833SOL     OW 5633   1.883   0.194   2.094
 1833SOL    HW1 5634   1.822   0.258   2.131
 1833SOL    HW2 5635   1.863   0.112   2.140
 1834SOL     OW 5636   3.129   3.532   0.530
 1834SOL    HW1 5637   3.094   3.445   0.546
 1834SOL    HW2 5638   3.127   3.575   0.616
 1835SOL     OW 5639   0.500   1.702   3.213
 1835SOL    HW1 5640   0.533   1.613   3.202
 1835SOL    HW2 5641   0.478   1.708   3.306
 1836SOL     OW 5642   2.032   0.376   0.595
 1836SOL    HW1 5643   2.092   0.416   0.532
 1836SOL    HW2 5644   1.956   0.351   0.542
 1837SOL     OW 5645   2.663   0.263   1.608
 1837SOL    HW1 5646   2.599   0.229   1.545
 1837SOL    HW2 5647   2.740   0.283   1.556
 1838SOL     OW 5648   0.303   1.308   2.677
 1838SOL    HW1 5649   0.273   1.354   2.598
 1838SOL    HW2 5650   0.393   1.283   2.658
 1839SOL     OW 5651   2.649   2.990   1.135
 1839SOL    HW1 5652   2.605   2.963   1.216
 1839SOL    HW2 5653   2.638   3.085   1.132
 1840SOL     OW 5654   0.358   0.274   2.181
 1840SOL    HW1 5655   0.297   0.347   2.172
 1840SOL    HW2 5656   0.443   0.310   2.159
 1841SOL     OW 5657   3.617   2.737   3.257
 1841SOL    HW1 5658   3.576   2.820   3.236
 1841SOL    HW2 5659   3.654   2.706   3.175
 1842SOL     OW 5660   0.845   2.879   3.486
 1842SOL    HW1 5661   0.919   2.938   3.502
 1842SOL    HW2 5662   0.820   2.897   3.395
 1843SOL     OW 5663   3.513   3.449   1.459
 1843SOL    HW1 5664   3.579   3.396   1.414
 1843SOL    HW2 5665   3.432   3.430   1.412
 1844SOL     OW 5666   0.071   2.019   0.374
 1844SOL    HW1 5667   0.064   2.017   0.279
 1844SOL    HW2 5668  -0.008   2.064   0.403
 1845SOL     OW 5669   0.246   0.463   1.800
 1845SOL    HW1 5670   0.248   0.535   1.864
 1845SOL    HW2 5671   0.203   0.501   1.723
 1846SOL     OW 5672   2.322   0.333   2.762
 1846SOL    HW1 5673   2.390   0.293   2.708
 1846SOL    HW2 5674   2.337   0.298   2.850
 1847SOL     OW 5675   0.300   3.361   2.204
 1847SOL    HW1 5676   0.368   3.397   2.147
 1847SOL    HW2 5677   0.267   3.436   2.253
 1848SOL     OW 5678   3.760   2.256   0.793
 1848SOL    HW1 5679   3.810   2.262   0.712
 1848SOL    HW2 5680   3.682   2.206   0.769
 1849SOL     OW 5681   1.479   1.269   2.998
 1849SOL    HW1 5682   1.562   1.305   3.027
 1849SOL    HW2 5683   1.486   1.266   2.902
 1850SOL     OW 5684   2.698   1.295   1.572
 1850SOL    HW1 5685   2.662   1.383   1.559
 1850SOL    HW2 5686   2.661   1.266   1.655
 1851SOL     OW 5687   2.998   1.609   1.282
 1851SOL    HW1 5688   2.962   1.546   1.345
 1851SOL    HW2 5689   3.009   1.558   1.201
 1852SOL     OW 5690   1.424   1.389   2.115
 1852SOL    HW1 5691   1.487   1.453   2.082
 1852SOL    HW2 5692   1.387   1.429   2.193
 1853SOL     OW 5693   3.929   1.114   3.427
 1853SOL    HW1 5694   4.021   1.119   3.402
 1853SOL    HW2 5695   3.916   1.022   3.449
 1854SOL     OW 5696   0.504   2.247   3.331
 1854SOL    HW1 5697   0.585   2.298   3.333
 1854SOL    HW2 5698   0.533   2.156   3.340
 1855SOL     OW 5699   1.131   1.514   2.838
 1855SOL    HW1 5700   1.037   1.495   2.841
 1855SOL    HW2 5701   1.164   1.481   2.922
 1856SOL     OW 5702   0.978   1.643   1.044
 1856SOL    HW1 5703   1.037   1.688   0.983
 1856SOL    HW2 5704   1.019   1.558   1.058
 1857SOL     OW 5705   2.827   1.673   3.880
 1857SOL    HW1 5706   2.775   1.632   3.949
 1857SOL    HW2 5707   2.916   1.677   3.916
 1858SOL     OW 5708   1.849   1.615   0.098
 1858SOL    HW1 5709   1.858   1.580   0.187
 1858SOL    HW2 5710   1.810   1.702   0.110
 1859SOL     OW 5711   2.942   0.440   1.540
 1859SOL    HW1 5712   2.941   0.527   1.579
 1859SOL    HW2 5713   3.027   0.404   1.562
 1860SOL     OW 5714   0.175   3.082   2.267
 1860SOL    HW1 5715   0.134   3.076   2.353
 1860SOL    HW2 5716   0.229   3.161   2.271
 1861SOL     OW 5717   2.433   0.677   2.114
 1861SOL    HW1 5718   2.508   0.684   2.173
 1861SOL    HW2 5719   2.407   0.585   2.119
 1862SOL     OW 5720   1.749   1.860   3.101
 1862SOL    HW1 5721   1.679   1.900   3.049
 1862SOL    HW2 5722   1.818   1.927   3.104
 1863SOL     OW 5723   3.644   3.821   2.762
 1863SOL    HW1 5724   3.615   3.909   2.737
 1863SOL    HW2 5725   3.600   3.763   2.699
 1864SOL     OW 5726   1.221   1.088   2.368
 1864SOL    HW1 5727   1.203   1.182   2.361
 1864SOL    HW2 5728   1.135   1.047   2.376
 1865SOL     OW 5729   3.934   2.764   0.409
 1865SOL    HW1 5730   3.844   2.793   0.425
 1865SOL    HW2 5731   3.944   2.769   0.314
 1866SOL     OW 5732   3.918   2.304   1.173
 1866SOL    HW1 5733   3.924   2.378   1.113
 1866SOL    HW2 5734   3.954   2.336   1.256
 1867SOL     OW 5735   0.352   2.375   3.158
 1867SOL    HW1 5736   0.409   2.368   3.081
 1867SOL    HW2 5737   0.403   2.337   3.229
 1868SOL     OW 5738   1.433   1.195   0.958
 1868SOL    HW1 5739   1.479   1.276   0.982
 1868SOL    HW2 5740   1.474   1.168   0.876
 1869SOL     OW 5741   3.262   3.788   2.200
 1869SOL    HW1 5742   3.321   3.772   2.126
 1869SOL    HW2 5743   3.214   3.867   2.176
 1870SOL     OW 5744   2.780   3.206   2.672
 1870SOL    HW1 5745   2.718   3.153   2.721
 1870SOL    HW2 5746   2.756   3.192   2.580
 1871SOL     OW 5747   1.835   0.043   1.257
 1871SOL    HW1 5748   1.750   0.076   1.285
 1871SOL    HW2 5749   1.867  -0.009   1.331
 1872SOL     OW 5750   2.825   1.653   0.928
 1872SOL    HW1 5751   2.880   1.639   0.852
 1872SOL    HW2 5752   2.753   1.591   0.918
 1873SOL     OW 5753   3.395   3.420   3.759
 1873SOL    HW1 5754   3.404   3.360   3.834
 1873SOL    HW2 5755   3.370   3.503   3.798
 1874SOL     OW 5756   3.704   2.543   1.944
 1874SOL    HW1 5757   3.795   2.514   1.951
 1874SOL    HW2 5758   3.656   2.489   2.007
 1875SOL     OW 5759   0.134   3.047   3.550
 1875SOL    HW1 5760   0.164   3.138   3.549
 1875SOL    HW2 5761   0.214   2.996   3.564
 1876SOL     OW 5762   1.571   2.688   1.801
 1876SOL    HW1 5763   1.484   2.679   1.841
 1876SOL    HW2 5764   1.574   2.620   1.734
 1877SOL     OW 5765   2.828   0.816   0.596
 1877SOL    HW1 5766   2.804   0.827   0.688
 1877SOL    HW2 5767   2.919   0.788   0.598
 1878SOL     OW 5768   1.117   0.123   0.726
 1878SOL    HW1 5769   1.139   0.074   0.805
 1878SOL    HW2 5770   1.142   0.213   0.745
 1879SOL     OW 5771   2.721   3.273   1.156
 1879SOL    HW1 5772   2.804   3.291   1.111
 1879SOL    HW2 5773   2.736   3.303   1.246
 1880SOL     OW 5774   3.084   0.410   0.866
 1880SOL    HW1 5775   3.062   0.396   0.774
 1880SOL    HW2 5776   3.105   0.503   0.872
 1881SOL     OW 5777   0.813   1.738   3.858
 1881SOL    HW1 5778   0.724   1.719   3.887
 1881SOL    HW2 5779   0.826   1.681   3.782
 1882SOL     OW 5780   1.612   0.560   2.364
 1882SOL    HW1 5781   1.546   0.628   2.381
 1882SOL    HW2 5782   1.560   0.482   2.345
 1883SOL     OW 5783   0.229   3.020   0.563
 1883SOL    HW1 5784   0.214   3.003   0.656
 1883SOL    HW2 5785   0.235   2.932   0.524
 1884SOL     OW 5786   3.096   0.047   3.395
 1884SOL    HW1 5787   3.029  -0.019   3.413
 1884SOL    HW2 5788   3.164  -0.000   3.346
 1885SOL     OW 5789   2.305   1.013   2.091
 1885SOL    HW1 5790   2.297   0.925   2.054
 1885SOL    HW2 5791   2.339   0.999   2.179
 1886SOL     OW 5792   2.108   2.895   1.877
 1886SOL    HW1 5793   2.145   2.846   1.951
 1886SOL    HW2 5794   2.037   2.947   1.916
 1887SOL     OW 5795   2.767   0.951   1.683
 1887SOL    HW1 5796   2.673   0.944   1.670
 1887SOL    HW2 5797   2.784   1.046   1.680
 1888SOL     OW 5798   0.173   1.512   0.920
 1888SOL    HW1 5799   0.108   1.482   0.983
 1888SOL    HW2 5800   0.164   1.607   0.919
 1889SOL     OW 5801   1.639   1.877   2.025
 1889SOL    HW1 5802   1.561   1.927   2.003
 1889SOL    HW2 5803   1.607   1.795   2.061
 1890SOL     OW 5804   3.339   1.092   1.288
 1890SOL    HW1 5805   3.304   1.012   1.248
 1890SOL    HW2 5806   3.323   1.082   1.381
 1891SOL     OW 5807   1.994   0.551   1.738
 1891SOL    HW1 5808   1.971   0.634   1.696
 1891SOL    HW2 5809   1.963   0.484   1.677
 1892SOL     OW 5810   3.862   3.519   2.944
 1892SOL    HW1 5811   3.808   3.441   2.957
 1892SOL    HW2 5812   3.841   3.549   2.855
 1893SOL     OW 5813   2.794   2.401   1.737
 1893SOL    HW1 5814   2.748   2.320   1.759
 1893SOL    HW2 5815   2.753   2.468   1.792
 1894SOL     OW 5816   1.600   2.115   1.200
 1894SOL    HW1 5817   1.612   2.168   1.278
 1894SOL    HW2 5818   1.540   2.166   1.145
 1895SOL     OW 5819   3.583   3.065   0.704
 1895SOL    HW1 5820   3.555   3.042   0.616
 1895SOL    HW2 5821   3.551   3.154   0.717
 1896SOL     OW 5822   1.776   0.201   2.516
 1896SOL    HW1 5823   1.739   0.279   2.556
 1896SOL    HW2 5824   1.861   0.191   2.558
 1897SOL     OW 5825   0.867   2.284   3.567
 1897SOL    HW1 5826   0.805   2.231   3.618
 1897SOL    HW2 5827   0.943   2.227   3.556
 1898SOL     OW 5828   0.581   1.072   2.893
 1898SOL    HW1 5829   0.656   1.012   2.894
 1898SOL    HW2 5830   0.522   1.035   2.828
 1899SOL     OW 5831   0.755   2.948   3.237
 1899SOL    HW1 5832   0.706   3.030   3.238
 1899SOL    HW2 5833   0.819   2.959   3.166
 1900SOL     OW 5834   3.502   0.250   0.228
 1900SOL    HW1 5835   3.459   0.240   0.313
 1900SOL    HW2 5836   3.480   0.339   0.200
 1901SOL     OW 5837   2.155   3.719   0.277
 1901SOL    HW1 5838   2.174   3.639   0.227
 1901SOL    HW2 5839   2.241   3.746   0.311
 1902SOL     OW 5840   1.095   0.325   3.362
 1902SOL    HW1 5841   1.051   0.268   3.299
 1902SOL    HW2 5842   1.186   0.329   3.331
 1903SOL     OW 5843   1.118   2.360   0.552
 1903SOL    HW1 5844   1.111   2.379   0.646
 1903SOL    HW2 5845   1.057   2.288   0.538
 1904SOL     OW 5846   3.669   3.711   3.153
 1904SOL    HW1 5847   3.736   3.712   3.084
 1904SOL    HW2 5848   3.712   3.752   3.228
 1905SOL     OW 5849   1.975   0.911   1.696
 1905SOL    HW1 5850   2.005   0.935   1.783
 1905SOL    HW2 5851   1.903   0.849   1.712
 1906SOL     OW 5852   3.617   2.121   3.765
 1906SOL    HW1 5853   3.553   2.178   3.723
 1906SOL    HW2 5854   3.646   2.062   3.696
 1907SOL     OW 5855   0.557   2.762   3.178
 1907SOL    HW1 5856   0.629   2.825   3.169
 1907SOL    HW2 5857   0.601   2.676   3.179
 1908SOL     OW 5858   3.820   0.309   0.806
 1908SOL    HW1 5859   3.912   0.322   0.828
 1908SOL    HW2 5860   3.792   0.237   0.862
 1909SOL     OW 5861   2.919   3.238   0.231
 1909SOL    HW1 5862   3.002   3.238   0.182
 1909SOL    HW2 5863   2.873   3.160   0.201
 1910SOL     OW 5864   0.794   0.015   2.788
 1910SOL    HW1 5865   0.719   0.023   2.846
 1910SOL    HW2 5866   0.868   0.043   2.841
 1911SOL     OW 5867   2.541   3.458   1.133
 1911SOL    HW1 5868   2.550   3.462   1.038
 1911SOL    HW2 5869   2.602   3.389   1.160
 1912SOL     OW 5870   1.903   2.190   0.184
 1912SOL    HW1 5871   1.897   2.110   0.132
 1912SOL    HW2 5872   1.826   2.241   0.157
 1913SOL     OW 5873   1.785   1.060   2.581
 1913SOL    HW1 5874   1.811   1.045   2.490
 1913SOL    HW2 5875   1.864   1.095   2.623
 1914SOL     OW 5876   3.366   3.972   2.434
 1914SOL    HW1 5877   3.380   3.898   2.375
 1914SOL    HW2 5878   3.287   3.950   2.483
 1915SOL     OW 5879   3.890   2.311   3.269
 1915SOL    HW1 5880   3.874   2.217   3.262
 1915SOL    HW2 5881   3.948   2.331   3.196
 1916SOL     OW 5882   2.051   2.308   1.810
 1916SOL    HW1 5883   2.118   2.255   1.852
 1916SOL    HW2 5884   2.011   2.250   1.745
 1917SOL     OW 5885   0.831   1.248   1.522
 1917SOL    HW1 5886   0.866   1.310   1.458
 1917SOL    HW2 5887   0.737   1.245   1.504
 1918NA      NA 5888   3.077   1.140   0.362
 1919NA      NA 5889   3.289   1.997   2.194
   3.96100   3.96100   3.96100   0.00000   0.00000   0.00000   0.00000   0.00000   0.00000
