Generated with MDTraj, t= 55337.0
 5889
    1TYR      N    1   3.672   0.949   1.523
    1TYR     H1    2   3.680   0.857   1.571
    1TYR     H2    3   3.599   0.923   1.454
    1TYR     H3    4   3.760   0.971   1.472
    1TYR     CA    5   3.630   1.057   1.617
    1TYR     HA    6   3.671   1.020   1.710
    1TYR     CB    7   3.699   1.192   1.592
    1TYR    HB1    8   3.808   1.173   1.597
    1TYR    HB2    9   3.677   1.233   1.491
    1TYR     CG   10   3.664   1.294   1.698
    1TYR    CD1   11   3.585   1.404   1.655
    1TYR    HD1   12   3.560   1.429   1.553
    1TYR    CE1   13   3.537   1.497   1.750
    1TYR    HE1   14   3.492   1.585   1.708
    1TYR     CZ   15   3.564   1.478   1.884
    1TYR     OH   16   3.523   1.574   1.975
    1TYR     HH   17   3.451   1.624   1.936
    1TYR    CD2   18   3.697   1.277   1.835
    1TYR    HD2   19   3.743   1.189   1.877
    1TYR    CE2   20   3.653   1.371   1.924
    1TYR    HE2   21   3.672   1.369   2.031
    1TYR      C   22   3.475   1.051   1.634
    1TYR      O   23   3.407   0.964   1.581
    2TYR      N   24   3.411   1.145   1.706
    2TYR     HN   25   3.474   1.215   1.738
    2TYR     CA   26   3.265   1.156   1.724
    2TYR     HA   27   3.213   1.065   1.700
    2TYR     CB   28   3.228   1.192   1.867
    2TYR    HB1   29   3.251   1.297   1.894
    2TYR    HB2   30   3.120   1.170   1.881
    2TYR     CG   31   3.311   1.116   1.964
    2TYR    CD1   32   3.394   1.191   2.046
    2TYR    HD1   33   3.402   1.297   2.031
    2TYR    CE1   34   3.466   1.121   2.147
    2TYR    HE1   35   3.527   1.178   2.215
    2TYR     CZ   36   3.444   0.987   2.168
    2TYR     OH   37   3.522   0.921   2.265
    2TYR     HH   38   3.507   0.826   2.261
    2TYR    CD2   39   3.295   0.981   1.975
    2TYR    HD2   40   3.221   0.924   1.921
    2TYR    CE2   41   3.361   0.917   2.077
    2TYR    HE2   42   3.337   0.812   2.086
    2TYR      C   43   3.211   1.274   1.635
    2TYR      O   44   3.274   1.385   1.643
    3ASP      N   45   3.107   1.246   1.556
    3ASP     HN   46   3.066   1.156   1.541
    3ASP     CA   47   3.047   1.354   1.477
    3ASP     HA   48   3.121   1.425   1.446
    3ASP     CB   49   2.991   1.297   1.346
    3ASP    HB1   50   3.074   1.262   1.281
    3ASP    HB2   51   2.927   1.208   1.362
    3ASP     CG   52   2.932   1.405   1.258
    3ASP    OD1   53   3.003   1.500   1.217
    3ASP    OD2   54   2.813   1.385   1.217
    3ASP      C   55   2.926   1.415   1.559
    3ASP      O   56   2.850   1.331   1.605
    4PRO      N   57   2.908   1.550   1.594
    4PRO     CD   58   3.013   1.648   1.560
    4PRO    HD1   59   3.022   1.656   1.450
    4PRO    HD2   60   3.113   1.620   1.599
    4PRO     CA   61   2.794   1.592   1.682
    4PRO     HA   62   2.782   1.530   1.770
    4PRO     CB   63   2.839   1.741   1.721
    4PRO    HB1   64   2.764   1.822   1.726
    4PRO    HB2   65   2.896   1.727   1.816
    4PRO     CG   66   2.958   1.774   1.624
    4PRO    HG1   67   2.912   1.830   1.540
    4PRO    HG2   68   3.042   1.835   1.667
    4PRO      C   69   2.669   1.586   1.612
    4PRO      O   70   2.569   1.558   1.675
    5GLU      N   71   2.688   1.597   1.476
    5GLU     HN   72   2.783   1.600   1.445
    5GLU     CA   73   2.576   1.609   1.386
    5GLU     HA   74   2.505   1.675   1.434
    5GLU     CB   75   2.616   1.668   1.242
    5GLU    HB1   76   2.672   1.594   1.182
    5GLU    HB2   77   2.522   1.693   1.188
    5GLU     CG   78   2.705   1.794   1.261
    5GLU    HG1   79   2.646   1.871   1.316
    5GLU    HG2   80   2.800   1.773   1.314
    5GLU     CD   81   2.732   1.850   1.121
    5GLU    OE1   82   2.641   1.876   1.041
    5GLU    OE2   83   2.855   1.868   1.093
    5GLU      C   84   2.499   1.481   1.374
    5GLU      O   85   2.379   1.473   1.394
    6THR      N   86   2.568   1.373   1.343
    6THR     HN   87   2.666   1.380   1.325
    6THR     CA   88   2.506   1.241   1.326
    6THR     HA   89   2.405   1.259   1.291
    6THR     CB   90   2.595   1.150   1.242
    6THR     HB   91   2.692   1.150   1.296
    6THR    OG1   92   2.613   1.207   1.113
    6THR    HG1   93   2.677   1.273   1.140
    6THR    CG2   94   2.544   1.012   1.218
    6THR   HG21   95   2.590   0.947   1.295
    6THR   HG22   96   2.434   0.998   1.215
    6THR   HG23   97   2.575   0.974   1.118
    6THR      C   98   2.494   1.165   1.453
    6THR      O   99   2.398   1.094   1.477
    7GLY      N  100   2.588   1.187   1.539
    7GLY     HN  101   2.667   1.245   1.518
    7GLY     CA  102   2.585   1.147   1.677
    7GLY    HA1  103   2.644   1.219   1.731
    7GLY    HA2  104   2.482   1.135   1.709
    7GLY      C  105   2.646   1.009   1.694
    7GLY      O  106   2.588   0.910   1.745
    8THR      N  107   2.770   1.004   1.650
    8THR     HN  108   2.805   1.089   1.611
    8THR     CA  109   2.846   0.881   1.642
    8THR     HA  110   2.775   0.801   1.629
    8THR     CB  111   2.939   0.867   1.524
    8THR     HB  112   2.985   0.765   1.520
    8THR    OG1  113   3.041   0.968   1.513
    8THR    HG1  114   3.105   0.933   1.450
    8THR    CG2  115   2.855   0.887   1.402
    8THR   HG21  116   2.821   0.992   1.389
    8THR   HG22  117   2.908   0.869   1.306
    8THR   HG23  118   2.768   0.819   1.409
    8THR      C  119   2.918   0.849   1.766
    8THR      O  120   3.027   0.796   1.763
    9TRP      N  121   2.854   0.867   1.881
    9TRP     HN  122   2.765   0.911   1.888
    9TRP     CA  123   2.920   0.854   2.010
    9TRP     HA  124   3.019   0.893   1.994
    9TRP     CB  125   2.862   0.931   2.125
    9TRP    HB1  126   2.765   0.885   2.155
    9TRP    HB2  127   2.936   0.924   2.208
    9TRP     CG  128   2.839   1.080   2.102
    9TRP    CD1  129   2.929   1.183   2.138
    9TRP    HD1  130   3.025   1.166   2.184
    9TRP    NE1  131   2.873   1.307   2.122
    9TRP    HE1  132   2.922   1.380   2.165
    9TRP    CE2  133   2.750   1.285   2.070
    9TRP    CD2  134   2.718   1.146   2.071
    9TRP    CE3  135   2.587   1.100   2.047
    9TRP    HE3  136   2.560   0.995   2.051
    9TRP    CZ3  137   2.486   1.192   2.014
    9TRP    HZ3  138   2.383   1.160   2.009
    9TRP    CZ2  139   2.650   1.375   2.036
    9TRP    HZ2  140   2.681   1.478   2.026
    9TRP    CH2  141   2.518   1.333   2.004
    9TRP    HH2  142   2.442   1.406   1.980
    9TRP      C  143   2.938   0.714   2.058
    9TRP      O  144   3.037   0.684   2.120
   10TYR      N  145   2.848   0.622   2.013
   10TYR     HN  146   2.761   0.655   1.976
   10TYR     CA  147   2.840   0.486   2.073
   10TYR     HA  148   2.877   0.492   2.174
   10TYR     CB  149   2.696   0.430   2.077
   10TYR    HB1  150   2.665   0.399   1.975
   10TYR    HB2  151   2.699   0.343   2.147
   10TYR     CG  152   2.595   0.527   2.141
   10TYR    CD1  153   2.531   0.627   2.058
   10TYR    HD1  154   2.551   0.626   1.952
   10TYR    CE1  155   2.450   0.720   2.125
   10TYR    HE1  156   2.392   0.789   2.064
   10TYR     CZ  157   2.444   0.736   2.257
   10TYR     OH  158   2.374   0.846   2.311
   10TYR     HH  159   2.333   0.893   2.238
   10TYR    CD2  160   2.574   0.525   2.280
   10TYR    HD2  161   2.622   0.447   2.337
   10TYR    CE2  162   2.506   0.634   2.331
   10TYR    HE2  163   2.501   0.643   2.439
   10TYR      C  164   2.918   0.373   2.006
   10TYR    OT1  165   3.001   0.306   2.078
   10TYR    OT2  166   2.901   0.362   1.881
   11SOL     OW  167   1.921   0.511   0.151
   11SOL    HW1  168   1.994   0.573   0.142
   11SOL    HW2  169   1.895   0.519   0.243
   12SOL     OW  170   3.780   3.022   3.763
   12SOL    HW1  171   3.732   3.041   3.843
   12SOL    HW2  172   3.736   2.945   3.726
   13SOL     OW  173   0.291   3.281   3.528
   13SOL    HW1  174   0.363   3.221   3.547
   13SOL    HW2  175   0.294   3.292   3.433
   14SOL     OW  176   3.801   1.610   3.341
   14SOL    HW1  177   3.756   1.538   3.385
   14SOL    HW2  178   3.865   1.640   3.405
   15SOL     OW  179   3.817   3.503   2.462
   15SOL    HW1  180   3.873   3.500   2.385
   15SOL    HW2  181   3.728   3.512   2.427
   16SOL     OW  182   3.933   2.435   0.284
   16SOL    HW1  183   3.875   2.359   0.276
   16SOL    HW2  184   3.915   2.470   0.372
   17SOL     OW  185   3.675   3.920   0.030
   17SOL    HW1  186   3.600   3.895   0.083
   17SOL    HW2  187   3.639   3.938  -0.057
   18SOL     OW  188   3.183   0.680   0.306
   18SOL    HW1  189   3.197   0.753   0.367
   18SOL    HW2  190   3.202   0.602   0.357
   19SOL     OW  191   2.217   2.337   1.503
   19SOL    HW1  192   2.142   2.397   1.500
   19SOL    HW2  193   2.189   2.261   1.452
   20SOL     OW  194   2.130   0.533   1.302
   20SOL    HW1  195   2.107   0.441   1.308
   20SOL    HW2  196   2.198   0.545   1.368
   21SOL     OW  197   1.476   0.412   0.058
   21SOL    HW1  198   1.476   0.394  -0.036
   21SOL    HW2  199   1.496   0.506   0.064
   22SOL     OW  200   1.784   3.808   2.537
   22SOL    HW1  201   1.830   3.723   2.535
   22SOL    HW2  202   1.692   3.785   2.527
   23SOL     OW  203   2.648   3.913   1.593
   23SOL    HW1  204   2.661   3.843   1.529
   23SOL    HW2  205   2.688   3.990   1.553
   24SOL     OW  206   1.103   2.330   0.661
   24SOL    HW1  207   1.111   2.306   0.569
   24SOL    HW2  208   1.180   2.384   0.678
   25SOL     OW  209   1.038   2.069   0.817
   25SOL    HW1  210   0.976   2.070   0.744
   25SOL    HW2  211   1.038   2.158   0.851
   26SOL     OW  212   3.905   0.676   1.034
   26SOL    HW1  213   3.839   0.675   0.965
   26SOL    HW2  214   3.866   0.625   1.105
   27SOL     OW  215   1.721   1.531   1.177
   27SOL    HW1  216   1.647   1.509   1.121
   27SOL    HW2  217   1.706   1.622   1.203
   28SOL     OW  218   1.402   1.195   2.690
   28SOL    HW1  219   1.379   1.231   2.604
   28SOL    HW2  220   1.363   1.107   2.689
   29SOL     OW  221   0.037   0.097   0.792
   29SOL    HW1  222   0.035   0.034   0.719
   29SOL    HW2  223   0.128   0.126   0.796
   30SOL     OW  224   2.884   1.835   2.889
   30SOL    HW1  225   2.933   1.843   2.971
   30SOL    HW2  226   2.831   1.915   2.885
   31SOL     OW  227   0.768   1.797   1.359
   31SOL    HW1  228   0.747   1.778   1.268
   31SOL    HW2  229   0.686   1.779   1.407
   32SOL     OW  230   2.388   0.832   3.257
   32SOL    HW1  231   2.379   0.757   3.198
   32SOL    HW2  232   2.482   0.834   3.278
   33SOL     OW  233   1.056   0.581   2.892
   33SOL    HW1  234   1.126   0.647   2.893
   33SOL    HW2  235   1.089   0.511   2.948
   34SOL     OW  236   3.525   1.407   1.142
   34SOL    HW1  237   3.523   1.402   1.046
   34SOL    HW2  238   3.438   1.439   1.166
   35SOL     OW  239   0.502   2.341   0.144
   35SOL    HW1  240   0.465   2.311   0.061
   35SOL    HW2  241   0.554   2.417   0.121
   36SOL     OW  242   0.173   3.582   1.104
   36SOL    HW1  243   0.126   3.665   1.109
   36SOL    HW2  244   0.245   3.590   1.166
   37SOL     OW  245   0.775   2.465   1.251
   37SOL    HW1  246   0.825   2.426   1.323
   37SOL    HW2  247   0.835   2.529   1.212
   38SOL     OW  248   1.810   1.364   2.705
   38SOL    HW1  249   1.847   1.445   2.739
   38SOL    HW2  250   1.773   1.320   2.781
   39SOL     OW  251   3.658   2.353   3.300
   39SOL    HW1  252   3.586   2.391   3.250
   39SOL    HW2  253   3.733   2.409   3.281
   40SOL     OW  254   0.977   3.146   2.254
   40SOL    HW1  255   0.932   3.210   2.310
   40SOL    HW2  256   0.908   3.085   2.227
   41SOL     OW  257   0.942   1.174   1.960
   41SOL    HW1  258   0.848   1.155   1.970
   41SOL    HW2  259   0.957   1.171   1.866
   42SOL     OW  260   3.458   0.527   2.565
   42SOL    HW1  261   3.371   0.565   2.567
   42SOL    HW2  262   3.447   0.444   2.517
   43SOL     OW  263   0.252   3.931   3.112
   43SOL    HW1  264   0.335   3.931   3.159
   43SOL    HW2  265   0.188   3.964   3.175
   44SOL     OW  266   3.735   1.700   0.500
   44SOL    HW1  267   3.667   1.767   0.492
   44SOL    HW2  268   3.732   1.654   0.417
   45SOL     OW  269   0.474   0.398   1.963
   45SOL    HW1  270   0.434   0.455   1.898
   45SOL    HW2  271   0.559   0.374   1.925
   46SOL     OW  272   3.835   0.115   1.637
   46SOL    HW1  273   3.892   0.054   1.684
   46SOL    HW2  274   3.794   0.063   1.569
   47SOL     OW  275   2.247   2.494   1.215
   47SOL    HW1  276   2.340   2.472   1.208
   47SOL    HW2  277   2.208   2.460   1.135
   48SOL     OW  278   2.512   2.741   0.673
   48SOL    HW1  279   2.421   2.714   0.684
   48SOL    HW2  280   2.545   2.753   0.763
   49SOL     OW  281   3.721   3.906   1.442
   49SOL    HW1  282   3.631   3.877   1.425
   49SOL    HW2  283   3.772   3.825   1.441
   50SOL     OW  284   0.272   3.144   0.914
   50SOL    HW1  285   0.351   3.149   0.861
   50SOL    HW2  286   0.294   3.194   0.993
   51SOL     OW  287   0.042   1.208   0.639
   51SOL    HW1  288   0.127   1.245   0.659
   51SOL    HW2  289  -0.021   1.272   0.671
   52SOL     OW  290   1.804   1.145   2.195
   52SOL    HW1  291   1.812   1.228   2.149
   52SOL    HW2  292   1.759   1.167   2.276
   53SOL     OW  293   3.622   2.363   3.578
   53SOL    HW1  294   3.629   2.387   3.486
   53SOL    HW2  295   3.654   2.273   3.582
   54SOL     OW  296   0.295   2.121   2.307
   54SOL    HW1  297   0.307   2.205   2.351
   54SOL    HW2  298   0.243   2.142   2.229
   55SOL     OW  299   0.798   1.425   2.673
   55SOL    HW1  300   0.739   1.467   2.735
   55SOL    HW2  301   0.825   1.343   2.715
   56SOL     OW  302   0.461   0.075   2.395
   56SOL    HW1  303   0.543   0.075   2.446
   56SOL    HW2  304   0.488   0.100   2.307
   57SOL     OW  305   0.754   2.914   2.264
   57SOL    HW1  306   0.766   2.952   2.351
   57SOL    HW2  307   0.715   2.828   2.280
   58SOL     OW  308   0.843   0.636   1.968
   58SOL    HW1  309   0.768   0.597   1.923
   58SOL    HW2  310   0.808   0.717   2.005
   59SOL     OW  311   0.230   0.921   3.142
   59SOL    HW1  312   0.246   0.988   3.209
   59SOL    HW2  313   0.296   0.938   3.075
   60SOL     OW  314   3.271   0.699   2.836
   60SOL    HW1  315   3.218   0.641   2.780
   60SOL    HW2  316   3.207   0.747   2.887
   61SOL     OW  317   1.987   2.536   0.587
   61SOL    HW1  318   1.997   2.451   0.545
   61SOL    HW2  319   1.897   2.562   0.569
   62SOL     OW  320   0.921   2.874   0.035
   62SOL    HW1  321   0.882   2.939   0.093
   62SOL    HW2  322   0.856   2.805   0.028
   63SOL     OW  323   1.326   0.289   1.035
   63SOL    HW1  324   1.400   0.330   0.992
   63SOL    HW2  325   1.270   0.362   1.061
   64SOL     OW  326   1.682   3.116   0.046
   64SOL    HW1  327   1.719   3.058   0.113
   64SOL    HW2  328   1.705   3.204   0.075
   65SOL     OW  329   3.894   3.430   1.171
   65SOL    HW1  330   3.925   3.362   1.232
   65SOL    HW2  331   3.974   3.464   1.131
   66SOL     OW  332   3.804   0.646   2.661
   66SOL    HW1  333   3.718   0.689   2.661
   66SOL    HW2  334   3.820   0.626   2.569
   67SOL     OW  335   1.461   0.848   1.833
   67SOL    HW1  336   1.534   0.856   1.894
   67SOL    HW2  337   1.477   0.916   1.768
   68SOL     OW  338   1.916   0.731   3.710
   68SOL    HW1  339   1.987   0.785   3.744
   68SOL    HW2  340   1.956   0.676   3.644
   69SOL     OW  341   0.667   1.695   1.653
   69SOL    HW1  342   0.683   1.607   1.621
   69SOL    HW2  343   0.584   1.721   1.612
   70SOL     OW  344   3.413   2.727   1.076
   70SOL    HW1  345   3.495   2.776   1.084
   70SOL    HW2  346   3.438   2.647   1.029
   71SOL     OW  347   0.533   1.313   3.441
   71SOL    HW1  348   0.597   1.338   3.374
   71SOL    HW2  349   0.577   1.333   3.524
   72SOL     OW  350   3.534   1.843   0.766
   72SOL    HW1  351   3.480   1.803   0.835
   72SOL    HW2  352   3.512   1.936   0.770
   73SOL     OW  353   0.940   3.633   1.617
   73SOL    HW1  354   0.953   3.543   1.646
   73SOL    HW2  355   0.986   3.637   1.533
   74SOL     OW  356   1.845   1.253   0.985
   74SOL    HW1  357   1.751   1.258   1.006
   74SOL    HW2  358   1.876   1.343   0.991
   75SOL     OW  359   2.840   3.921   2.876
   75SOL    HW1  360   2.781   3.853   2.909
   75SOL    HW2  361   2.838   3.911   2.781
   76SOL     OW  362   3.639   3.367   0.534
   76SOL    HW1  363   3.609   3.407   0.453
   76SOL    HW2  364   3.602   3.279   0.532
   77SOL     OW  365   3.012   3.464   0.891
   77SOL    HW1  366   3.015   3.396   0.959
   77SOL    HW2  367   3.100   3.463   0.853
   78SOL     OW  368   2.857   1.552   0.605
   78SOL    HW1  369   2.811   1.480   0.650
   78SOL    HW2  370   2.925   1.508   0.553
   79SOL     OW  371   3.346   3.083   0.964
   79SOL    HW1  372   3.254   3.067   0.981
   79SOL    HW2  373   3.376   3.003   0.920
   80SOL     OW  374   1.422   0.266   1.759
   80SOL    HW1  375   1.484   0.235   1.693
   80SOL    HW2  376   1.459   0.237   1.842
   81SOL     OW  377   0.804   0.547   1.196
   81SOL    HW1  378   0.859   0.608   1.147
   81SOL    HW2  379   0.752   0.603   1.254
   82SOL     OW  380   0.968   1.081   0.661
   82SOL    HW1  381   0.889   1.041   0.625
   82SOL    HW2  382   1.019   1.106   0.584
   83SOL     OW  383   0.311   3.450   2.826
   83SOL    HW1  384   0.242   3.510   2.798
   83SOL    HW2  385   0.363   3.435   2.747
   84SOL     OW  386   1.613   0.199   3.528
   84SOL    HW1  387   1.605   0.187   3.623
   84SOL    HW2  388   1.659   0.282   3.518
   85SOL     OW  389   3.427   0.718   0.986
   85SOL    HW1  390   3.495   0.777   0.954
   85SOL    HW2  391   3.410   0.659   0.912
   86SOL     OW  392   0.149   1.925   0.721
   86SOL    HW1  393   0.198   2.007   0.713
   86SOL    HW2  394   0.206   1.859   0.682
   87SOL     OW  395   0.046   2.574   1.284
   87SOL    HW1  396   0.093   2.609   1.208
   87SOL    HW2  397  -0.046   2.572   1.256
   88SOL     OW  398   2.563  -0.008   0.346
   88SOL    HW1  399   2.505   0.058   0.307
   88SOL    HW2  400   2.634  -0.018   0.283
   89SOL     OW  401   1.322   1.660   2.172
   89SOL    HW1  402   1.313   1.755   2.166
   89SOL    HW2  403   1.334   1.631   2.082
   90SOL     OW  404   1.118   1.262   2.835
   90SOL    HW1  405   1.070   1.202   2.777
   90SOL    HW2  406   1.168   1.204   2.892
   91SOL     OW  407   0.620   1.503   2.861
   91SOL    HW1  408   0.529   1.512   2.889
   91SOL    HW2  409   0.664   1.578   2.901
   92SOL     OW  410   1.515   0.681   0.536
   92SOL    HW1  411   1.485   0.755   0.589
   92SOL    HW2  412   1.441   0.621   0.534
   93SOL     OW  413   1.962   1.777   0.213
   93SOL    HW1  414   2.055   1.762   0.196
   93SOL    HW2  415   1.932   1.696   0.254
   94SOL     OW  416   2.485   3.729   3.913
   94SOL    HW1  417   2.549   3.659   3.903
   94SOL    HW2  418   2.400   3.685   3.904
   95SOL     OW  419   3.656   0.672   3.560
   95SOL    HW1  420   3.626   0.604   3.619
   95SOL    HW2  421   3.715   0.628   3.499
   96SOL     OW  422   2.139   2.111   0.048
   96SOL    HW1  423   2.179   2.025   0.038
   96SOL    HW2  424   2.163   2.158  -0.032
   97SOL     OW  425   0.508   0.038   3.254
   97SOL    HW1  426   0.444   0.000   3.314
   97SOL    HW2  427   0.586  -0.017   3.263
   98SOL     OW  428   2.308   0.073   3.657
   98SOL    HW1  429   2.290   0.137   3.726
   98SOL    HW2  430   2.276   0.114   3.577
   99SOL     OW  431   3.458   3.040   2.697
   99SOL    HW1  432   3.447   3.134   2.708
   99SOL    HW2  433   3.374   3.009   2.664
  100SOL     OW  434   3.883   3.678   1.397
  100SOL    HW1  435   3.884   3.654   1.305
  100SOL    HW2  436   3.975   3.685   1.422
  101SOL     OW  437   0.372   1.395   1.366
  101SOL    HW1  438   0.424   1.432   1.438
  101SOL    HW2  439   0.429   1.403   1.289
  102SOL     OW  440   1.724   2.344   0.270
  102SOL    HW1  441   1.643   2.356   0.319
  102SOL    HW2  442   1.725   2.416   0.206
  103SOL     OW  443   1.745   3.422   0.638
  103SOL    HW1  444   1.741   3.492   0.573
  103SOL    HW2  445   1.837   3.419   0.664
  104SOL     OW  446   0.880   2.031   3.361
  104SOL    HW1  447   0.881   2.024   3.266
  104SOL    HW2  448   0.946   2.097   3.381
  105SOL     OW  449   1.533   2.919   0.589
  105SOL    HW1  450   1.556   3.011   0.602
  105SOL    HW2  451   1.517   2.886   0.678
  106SOL     OW  452   1.404   2.402   2.112
  106SOL    HW1  453   1.451   2.484   2.094
  106SOL    HW2  454   1.313   2.428   2.121
  107SOL     OW  455   2.086   0.365   1.696
  107SOL    HW1  456   2.075   0.390   1.787
  107SOL    HW2  457   2.160   0.417   1.665
  108SOL     OW  458   3.554   2.516   2.340
  108SOL    HW1  459   3.475   2.464   2.327
  108SOL    HW2  460   3.578   2.546   2.252
  109SOL     OW  461   3.491   2.725   3.518
  109SOL    HW1  462   3.489   2.652   3.580
  109SOL    HW2  463   3.403   2.762   3.522
  110SOL     OW  464   1.321   1.689   1.556
  110SOL    HW1  465   1.261   1.639   1.501
  110SOL    HW2  466   1.407   1.650   1.539
  111SOL     OW  467   0.158   1.104   2.741
  111SOL    HW1  468   0.202   1.109   2.826
  111SOL    HW2  469   0.123   1.015   2.737
  112SOL     OW  470   1.652   1.915   3.909
  112SOL    HW1  471   1.649   1.953   3.997
  112SOL    HW2  472   1.739   1.937   3.876
  113SOL     OW  473   1.524   0.016   3.245
  113SOL    HW1  474   1.552   0.107   3.254
  113SOL    HW2  475   1.439   0.012   3.289
  114SOL     OW  476   1.401   1.344   3.634
  114SOL    HW1  477   1.375   1.324   3.544
  114SOL    HW2  478   1.408   1.440   3.636
  115SOL     OW  479   1.635   0.941   3.798
  115SOL    HW1  480   1.647   0.868   3.737
  115SOL    HW2  481   1.631   1.019   3.743
  116SOL     OW  482   2.462   3.852   0.863
  116SOL    HW1  483   2.425   3.806   0.939
  116SOL    HW2  484   2.391   3.851   0.798
  117SOL     OW  485   2.353   3.364   3.847
  117SOL    HW1  486   2.326   3.405   3.929
  117SOL    HW2  487   2.286   3.390   3.784
  118SOL     OW  488   3.179   0.220   2.619
  118SOL    HW1  489   3.149   0.177   2.698
  118SOL    HW2  490   3.099   0.245   2.572
  119SOL     OW  491   0.965   2.546   2.552
  119SOL    HW1  492   0.910   2.513   2.623
  119SOL    HW2  493   1.043   2.490   2.554
  120SOL     OW  494   0.192   3.315   2.306
  120SOL    HW1  495   0.196   3.396   2.357
  120SOL    HW2  496   0.106   3.318   2.264
  121SOL     OW  497   1.201   0.638   0.101
  121SOL    HW1  498   1.138   0.698   0.142
  121SOL    HW2  499   1.282   0.651   0.150
  122SOL     OW  500   3.589   0.440   3.723
  122SOL    HW1  501   3.636   0.364   3.691
  122SOL    HW2  502   3.497   0.414   3.721
  123SOL     OW  503   1.313   2.702   2.191
  123SOL    HW1  504   1.265   2.775   2.228
  123SOL    HW2  505   1.254   2.627   2.198
  124SOL     OW  506   3.830   3.093   3.460
  124SOL    HW1  507   3.841   3.023   3.396
  124SOL    HW2  508   3.857   3.053   3.543
  125SOL     OW  509   0.023   0.227   2.076
  125SOL    HW1  510   0.070   0.148   2.049
  125SOL    HW2  511  -0.067   0.213   2.046
  126SOL     OW  512   0.697   1.584   3.467
  126SOL    HW1  513   0.701   1.674   3.500
  126SOL    HW2  514   0.783   1.547   3.484
  127SOL     OW  515   1.389   0.207   2.699
  127SOL    HW1  516   1.429   0.278   2.748
  127SOL    HW2  517   1.305   0.243   2.668
  128SOL     OW  518   2.773   3.592   2.578
  128SOL    HW1  519   2.828   3.559   2.649
  128SOL    HW2  520   2.695   3.537   2.580
  129SOL     OW  521   0.703   2.162   3.041
  129SOL    HW1  522   0.720   2.252   3.015
  129SOL    HW2  523   0.620   2.140   2.997
  130SOL     OW  524   0.536   0.306   0.701
  130SOL    HW1  525   0.595   0.348   0.763
  130SOL    HW2  526   0.594   0.265   0.637
  131SOL     OW  527   3.049   3.566   0.554
  131SOL    HW1  528   3.066   3.600   0.641
  131SOL    HW2  529   3.002   3.636   0.509
  132SOL     OW  530   1.115   2.012   1.867
  132SOL    HW1  531   1.051   2.081   1.886
  132SOL    HW2  532   1.175   2.051   1.804
  133SOL     OW  533   0.911   0.409   3.641
  133SOL    HW1  534   0.987   0.448   3.683
  133SOL    HW2  535   0.880   0.476   3.580
  134SOL     OW  536   3.649   0.848   2.563
  134SOL    HW1  537   3.634   0.935   2.598
  134SOL    HW2  538   3.728   0.856   2.509
  135SOL     OW  539   0.027   3.881   2.892
  135SOL    HW1  540   0.104   3.838   2.931
  135SOL    HW2  541   0.054   3.901   2.802
  136SOL     OW  542   3.079   1.197   3.041
  136SOL    HW1  543   3.147   1.262   3.025
  136SOL    HW2  544   2.997   1.241   3.018
  137SOL     OW  545   0.550   2.987   3.917
  137SOL    HW1  546   0.567   3.062   3.859
  137SOL    HW2  547   0.467   2.950   3.885
  138SOL     OW  548   0.227   3.094   2.114
  138SOL    HW1  549   0.149   3.064   2.161
  138SOL    HW2  550   0.238   3.185   2.142
  139SOL     OW  551   2.364   1.511   0.988
  139SOL    HW1  552   2.337   1.456   0.915
  139SOL    HW2  553   2.448   1.548   0.961
  140SOL     OW  554   1.067   1.286   0.926
  140SOL    HW1  555   1.065   1.295   1.021
  140SOL    HW2  556   1.156   1.312   0.901
  141SOL     OW  557   2.105   0.623   0.646
  141SOL    HW1  558   2.138   0.704   0.609
  141SOL    HW2  559   2.161   0.606   0.721
  142SOL     OW  560   1.426   0.294   3.089
  142SOL    HW1  561   1.473   0.282   3.172
  142SOL    HW2  562   1.494   0.317   3.026
  143SOL     OW  563   2.454   0.684   0.713
  143SOL    HW1  564   2.422   0.599   0.684
  143SOL    HW2  565   2.378   0.742   0.709
  144SOL     OW  566   1.081   2.050   2.654
  144SOL    HW1  567   1.144   2.007   2.712
  144SOL    HW2  568   0.996   2.013   2.679
  145SOL     OW  569   1.597   0.059   1.656
  145SOL    HW1  570   1.691   0.044   1.666
  145SOL    HW2  571   1.560  -0.028   1.640
  146SOL     OW  572   3.875   1.745   3.624
  146SOL    HW1  573   3.941   1.684   3.591
  146SOL    HW2  574   3.849   1.710   3.709
  147SOL     OW  575   3.801   2.490   1.491
  147SOL    HW1  576   3.820   2.427   1.561
  147SOL    HW2  577   3.880   2.491   1.437
  148SOL     OW  578   0.313   1.862   2.195
  148SOL    HW1  579   0.406   1.839   2.197
  148SOL    HW2  580   0.311   1.953   2.226
  149SOL     OW  581   1.721   2.547   0.095
  149SOL    HW1  582   1.650   2.566   0.033
  149SOL    HW2  583   1.754   2.633   0.120
  150SOL     OW  584   0.227   0.749   0.962
  150SOL    HW1  585   0.284   0.674   0.981
  150SOL    HW2  586   0.155   0.741   1.025
  151SOL     OW  587   1.208   0.204   2.344
  151SOL    HW1  588   1.238   0.249   2.265
  151SOL    HW2  589   1.162   0.272   2.394
  152SOL     OW  590   0.697   2.359   1.521
  152SOL    HW1  591   0.724   2.285   1.576
  152SOL    HW2  592   0.602   2.363   1.530
  153SOL     OW  593   0.952   3.025   3.666
  153SOL    HW1  594   0.911   2.977   3.594
  153SOL    HW2  595   0.952   2.964   3.740
  154SOL     OW  596   0.219   0.902   1.898
  154SOL    HW1  597   0.266   0.935   1.974
  154SOL    HW2  598   0.148   0.849   1.935
  155SOL     OW  599   2.337   3.665   2.401
  155SOL    HW1  600   2.432   3.674   2.390
  155SOL    HW2  601   2.325   3.574   2.429
  156SOL     OW  602   0.033   0.309   0.250
  156SOL    HW1  603  -0.062   0.315   0.260
  156SOL    HW2  604   0.055   0.381   0.192
  157SOL     OW  605   1.622   2.805   0.172
  157SOL    HW1  606   1.545   2.817   0.228
  157SOL    HW2  607   1.594   2.836   0.086
  158SOL     OW  608   3.169   2.247   3.157
  158SOL    HW1  609   3.206   2.172   3.110
  158SOL    HW2  610   3.099   2.210   3.210
  159SOL     OW  611   2.837   0.124   3.087
  159SOL    HW1  612   2.754   0.172   3.085
  159SOL    HW2  613   2.841   0.079   3.003
  160SOL     OW  614   0.459   2.886   2.844
  160SOL    HW1  615   0.379   2.878   2.895
  160SOL    HW2  616   0.452   2.818   2.777
  161SOL     OW  617   3.911   2.228   2.732
  161SOL    HW1  618   3.828   2.181   2.727
  161SOL    HW2  619   3.937   2.242   2.641
  162SOL     OW  620   2.117   0.899   3.280
  162SOL    HW1  621   2.133   0.960   3.208
  162SOL    HW2  622   2.204   0.884   3.318
  163SOL     OW  623   0.394   3.760   3.395
  163SOL    HW1  624   0.454   3.688   3.414
  163SOL    HW2  625   0.307   3.719   3.389
  164SOL     OW  626   0.882   1.161   3.113
  164SOL    HW1  627   0.855   1.126   3.028
  164SOL    HW2  628   0.939   1.093   3.149
  165SOL     OW  629   3.232   1.532   3.602
  165SOL    HW1  630   3.230   1.586   3.523
  165SOL    HW2  631   3.320   1.546   3.638
  166SOL     OW  632   1.358   3.715   3.583
  166SOL    HW1  633   1.408   3.670   3.514
  166SOL    HW2  634   1.276   3.667   3.588
  167SOL     OW  635   3.223   1.395   2.943
  167SOL    HW1  636   3.318   1.404   2.947
  167SOL    HW2  637   3.196   1.454   2.873
  168SOL     OW  638   1.835   0.483   2.235
  168SOL    HW1  639   1.915   0.501   2.285
  168SOL    HW2  640   1.791   0.414   2.284
  169SOL     OW  641   1.158   0.921   2.452
  169SOL    HW1  642   1.174   0.993   2.391
  169SOL    HW2  643   1.087   0.872   2.412
  170SOL     OW  644   0.725   1.110   2.690
  170SOL    HW1  645   0.653   1.154   2.736
  170SOL    HW2  646   0.722   1.144   2.601
  171SOL     OW  647   1.761   0.353   1.243
  171SOL    HW1  648   1.716   0.282   1.290
  171SOL    HW2  649   1.824   0.387   1.307
  172SOL     OW  650   1.252   1.073   3.585
  172SOL    HW1  651   1.161   1.064   3.557
  172SOL    HW2  652   1.265   1.167   3.595
  173SOL     OW  653   2.822   2.338   2.343
  173SOL    HW1  654   2.869   2.268   2.387
  173SOL    HW2  655   2.873   2.356   2.264
  174SOL     OW  656   1.276   1.932   3.433
  174SOL    HW1  657   1.234   1.865   3.487
  174SOL    HW2  658   1.232   1.926   3.349
  175SOL     OW  659   3.787   2.153   0.029
  175SOL    HW1  660   3.703   2.111   0.045
  175SOL    HW2  661   3.802   2.207   0.107
  176SOL     OW  662   2.629   2.773   3.479
  176SOL    HW1  663   2.710   2.744   3.522
  176SOL    HW2  664   2.642   2.752   3.386
  177SOL     OW  665   3.940   3.885   0.103
  177SOL    HW1  666   3.851   3.879   0.068
  177SOL    HW2  667   3.981   3.802   0.080
  178SOL     OW  668   3.178   1.539   2.675
  178SOL    HW1  669   3.179   1.630   2.646
  178SOL    HW2  670   3.089   1.509   2.657
  179SOL     OW  671   2.937   2.100   0.490
  179SOL    HW1  672   2.854   2.071   0.528
  179SOL    HW2  673   2.951   2.187   0.526
  180SOL     OW  674   1.623   3.513   0.894
  180SOL    HW1  675   1.665   3.475   0.817
  180SOL    HW2  676   1.681   3.491   0.966
  181SOL     OW  677   0.058   2.705   2.397
  181SOL    HW1  678  -0.026   2.726   2.438
  181SOL    HW2  679   0.118   2.773   2.428
  182SOL     OW  680   0.922   0.471   3.321
  182SOL    HW1  681   0.907   0.559   3.357
  182SOL    HW2  682   1.016   0.457   3.333
  183SOL     OW  683   2.321   1.005   0.927
  183SOL    HW1  684   2.406   1.048   0.942
  183SOL    HW2  685   2.298   1.030   0.837
  184SOL     OW  686   2.394   0.060   1.122
  184SOL    HW1  687   2.350  -0.017   1.087
  184SOL    HW2  688   2.372   0.061   1.215
  185SOL     OW  689   3.627   2.248   2.933
  185SOL    HW1  690   3.548   2.279   2.977
  185SOL    HW2  691   3.648   2.318   2.871
  186SOL     OW  692   0.918   0.769   3.168
  186SOL    HW1  693   0.955   0.827   3.235
  186SOL    HW2  694   0.994   0.736   3.120
  187SOL     OW  695   0.195   1.062   2.392
  187SOL    HW1  696   0.262   1.096   2.450
  187SOL    HW2  697   0.116   1.111   2.415
  188SOL     OW  698   3.261   3.679   1.349
  188SOL    HW1  699   3.187   3.716   1.302
  188SOL    HW2  700   3.243   3.696   1.441
  189SOL     OW  701   1.930   0.438   1.043
  189SOL    HW1  702   1.861   0.399   1.097
  189SOL    HW2  703   1.888   0.456   0.959
  190SOL     OW  704   1.546   2.953   2.390
  190SOL    HW1  705   1.520   2.882   2.449
  190SOL    HW2  706   1.563   2.909   2.306
  191SOL     OW  707   3.549   1.711   0.055
  191SOL    HW1  708   3.566   1.617   0.046
  191SOL    HW2  709   3.617   1.741   0.116
  192SOL     OW  710   2.030   0.843   1.397
  192SOL    HW1  711   2.116   0.822   1.433
  192SOL    HW2  712   2.037   0.935   1.370
  193SOL     OW  713   3.327   2.329   2.444
  193SOL    HW1  714   3.325   2.250   2.391
  193SOL    HW2  715   3.365   2.301   2.528
  194SOL     OW  716   2.720   0.357   0.602
  194SOL    HW1  717   2.784   0.343   0.672
  194SOL    HW2  718   2.635   0.344   0.645
  195SOL     OW  719   1.149   0.521   3.790
  195SOL    HW1  720   1.241   0.540   3.771
  195SOL    HW2  721   1.137   0.551   3.880
  196SOL     OW  722   2.341   3.101   1.903
  196SOL    HW1  723   2.421   3.050   1.917
  196SOL    HW2  724   2.301   3.063   1.825
  197SOL     OW  725   1.794   0.265   0.376
  197SOL    HW1  726   1.798   0.277   0.281
  197SOL    HW2  727   1.849   0.336   0.411
  198SOL     OW  728   1.593   0.764   1.160
  198SOL    HW1  729   1.685   0.737   1.167
  198SOL    HW2  730   1.597   0.849   1.116
  199SOL     OW  731   0.731   3.936   2.921
  199SOL    HW1  732   0.751   3.843   2.934
  199SOL    HW2  733   0.806   3.982   2.958
  200SOL     OW  734   2.350   3.497   2.991
  200SOL    HW1  735   2.324   3.573   3.042
  200SOL    HW2  736   2.410   3.449   3.048
  201SOL     OW  737   1.176   1.070   0.107
  201SOL    HW1  738   1.199   1.032   0.023
  201SOL    HW2  739   1.081   1.086   0.101
  202SOL     OW  740   2.195   0.267   1.300
  202SOL    HW1  741   2.289   0.275   1.314
  202SOL    HW2  742   2.186   0.230   1.212
  203SOL     OW  743   0.704   0.067   2.549
  203SOL    HW1  744   0.769   0.069   2.479
  203SOL    HW2  745   0.732   0.137   2.609
  204SOL     OW  746   0.361   3.794   0.776
  204SOL    HW1  747   0.349   3.703   0.749
  204SOL    HW2  748   0.451   3.815   0.751
  205SOL     OW  749   1.067   3.288   3.686
  205SOL    HW1  750   1.052   3.198   3.657
  205SOL    HW2  751   1.110   3.280   3.770
  206SOL     OW  752   1.602   2.121   0.184
  206SOL    HW1  753   1.644   2.200   0.218
  206SOL    HW2  754   1.575   2.073   0.262
  207SOL     OW  755   0.677   1.140   3.913
  207SOL    HW1  756   0.617   1.166   3.843
  207SOL    HW2  757   0.621   1.101   3.980
  208SOL     OW  758   0.158   1.869   1.975
  208SOL    HW1  759   0.211   1.842   2.050
  208SOL    HW2  760   0.076   1.899   2.014
  209SOL     OW  761   0.661   1.665   0.711
  209SOL    HW1  762   0.744   1.707   0.691
  209SOL    HW2  763   0.678   1.571   0.699
  210SOL     OW  764   0.037   2.246   3.813
  210SOL    HW1  765   0.009   2.179   3.751
  210SOL    HW2  766  -0.019   2.233   3.890
  211SOL     OW  767   1.287   2.940   3.174
  211SOL    HW1  768   1.344   3.014   3.155
  211SOL    HW2  769   1.328   2.898   3.250
  212SOL     OW  770   0.375   0.699   0.639
  212SOL    HW1  771   0.389   0.656   0.723
  212SOL    HW2  772   0.407   0.636   0.574
  213SOL     OW  773   0.064   3.641   0.039
  213SOL    HW1  774   0.145   3.593   0.023
  213SOL    HW2  775   0.037   3.614   0.127
  214SOL     OW  776   1.353   3.816   0.606
  214SOL    HW1  777   1.394   3.730   0.604
  214SOL    HW2  778   1.354   3.845   0.515
  215SOL     OW  779   0.571   0.069   1.921
  215SOL    HW1  780   0.511   0.044   1.850
  215SOL    HW2  781   0.590  -0.014   1.966
  216SOL     OW  782   0.177   0.108   2.342
  216SOL    HW1  783   0.272   0.121   2.347
  216SOL    HW2  784   0.146   0.178   2.283
  217SOL     OW  785   3.326   2.790   2.172
  217SOL    HW1  786   3.260   2.721   2.168
  217SOL    HW2  787   3.296   2.856   2.110
  218SOL     OW  788   0.004   0.216   3.249
  218SOL    HW1  789  -0.016   0.232   3.156
  218SOL    HW2  790   0.050   0.295   3.277
  219SOL     OW  791   1.633   3.762   1.536
  219SOL    HW1  792   1.710   3.794   1.489
  219SOL    HW2  793   1.661   3.679   1.575
  220SOL     OW  794   2.314   1.548   1.783
  220SOL    HW1  795   2.319   1.614   1.851
  220SOL    HW2  796   2.403   1.542   1.748
  221SOL     OW  797   0.564   2.374   2.213
  221SOL    HW1  798   0.653   2.395   2.242
  221SOL    HW2  799   0.563   2.278   2.205
  222SOL     OW  800   1.371   0.613   2.184
  222SOL    HW1  801   1.465   0.622   2.201
  222SOL    HW2  802   1.329   0.640   2.266
  223SOL     OW  803   1.947   0.956   2.056
  223SOL    HW1  804   1.882   0.918   1.997
  223SOL    HW2  805   1.934   1.050   2.048
  224SOL     OW  806   0.963   3.340   0.127
  224SOL    HW1  807   0.994   3.430   0.126
  224SOL    HW2  808   1.043   3.286   0.124
  225SOL     OW  809   0.766   3.792   2.022
  225SOL    HW1  810   0.848   3.746   2.041
  225SOL    HW2  811   0.712   3.727   1.978
  226SOL     OW  812   2.826   3.119   0.308
  226SOL    HW1  813   2.787   3.151   0.389
  226SOL    HW2  814   2.838   3.197   0.253
  227SOL     OW  815   3.651   2.698   2.997
  227SOL    HW1  816   3.660   2.771   2.935
  227SOL    HW2  817   3.557   2.692   3.014
  228SOL     OW  818   1.164   2.753   1.876
  228SOL    HW1  819   1.189   2.829   1.929
  228SOL    HW2  820   1.182   2.678   1.932
  229SOL     OW  821   3.743   2.845   2.072
  229SOL    HW1  822   3.687   2.826   2.148
  229SOL    HW2  823   3.688   2.827   1.996
  230SOL     OW  824   1.414   1.298   1.646
  230SOL    HW1  825   1.440   1.231   1.583
  230SOL    HW2  826   1.496   1.340   1.672
  231SOL     OW  827   0.306   1.338   2.528
  231SOL    HW1  828   0.213   1.359   2.533
  231SOL    HW2  829   0.338   1.388   2.453
  232SOL     OW  830   2.800   0.352   0.221
  232SOL    HW1  831   2.835   0.411   0.288
  232SOL    HW2  832   2.848   0.270   0.233
  233SOL     OW  833   2.249   2.220   2.219
  233SOL    HW1  834   2.196   2.188   2.292
  233SOL    HW2  835   2.220   2.169   2.144
  234SOL     OW  836   2.979   2.135   1.921
  234SOL    HW1  837   3.056   2.182   1.951
  234SOL    HW2  838   2.994   2.044   1.947
  235SOL     OW  839   3.834   1.032   3.608
  235SOL    HW1  840   3.746   1.005   3.581
  235SOL    HW2  841   3.893   0.978   3.554
  236SOL     OW  842   0.386   0.605   1.330
  236SOL    HW1  843   0.384   0.594   1.235
  236SOL    HW2  844   0.339   0.529   1.363
  237SOL     OW  845   2.877   2.036   3.260
  237SOL    HW1  846   2.887   2.105   3.326
  237SOL    HW2  847   2.896   2.079   3.177
  238SOL     OW  848   2.358   1.315   2.576
  238SOL    HW1  849   2.306   1.258   2.633
  238SOL    HW2  850   2.417   1.361   2.636
  239SOL     OW  851   3.925   1.924   2.421
  239SOL    HW1  852   3.913   1.986   2.493
  239SOL    HW2  853   3.860   1.855   2.438
  240SOL     OW  854   3.748   1.315   0.472
  240SOL    HW1  855   3.688   1.241   0.457
  240SOL    HW2  856   3.773   1.306   0.564
  241SOL     OW  857   0.222   1.108   1.395
  241SOL    HW1  858   0.297   1.167   1.398
  241SOL    HW2  859   0.240   1.042   1.462
  242SOL     OW  860   3.247   1.271   3.369
  242SOL    HW1  861   3.300   1.274   3.289
  242SOL    HW2  862   3.180   1.337   3.354
  243SOL     OW  863   2.431   2.196   3.082
  243SOL    HW1  864   2.349   2.177   3.128
  243SOL    HW2  865   2.407   2.196   2.990
  244SOL     OW  866   3.214   2.222   2.007
  244SOL    HW1  867   3.190   2.225   2.100
  244SOL    HW2  868   3.263   2.303   1.993
  245SOL     OW  869   0.270   1.225   0.258
  245SOL    HW1  870   0.313   1.290   0.314
  245SOL    HW2  871   0.180   1.223   0.289
  246SOL     OW  872   2.277   2.854   1.503
  246SOL    HW1  873   2.264   2.838   1.409
  246SOL    HW2  874   2.260   2.770   1.545
  247SOL     OW  875   1.216   3.194  -0.005
  247SOL    HW1  876   1.262   3.112  -0.018
  247SOL    HW2  877   1.276   3.248   0.047
  248SOL     OW  878   2.665   2.812   3.203
  248SOL    HW1  879   2.760   2.824   3.200
  248SOL    HW2  880   2.629   2.899   3.185
  249SOL     OW  881   1.240   0.120   3.697
  249SOL    HW1  882   1.286   0.043   3.729
  249SOL    HW2  883   1.155   0.088   3.668
  250SOL     OW  884   0.169   3.799   2.337
  250SOL    HW1  885   0.166   3.893   2.354
  250SOL    HW2  886   0.247   3.786   2.284
  251SOL     OW  887   0.102   0.617   1.668
  251SOL    HW1  888   0.073   0.562   1.596
  251SOL    HW2  889   0.196   0.602   1.674
  252SOL     OW  890   3.786   1.838   1.838
  252SOL    HW1  891   3.846   1.782   1.888
  252SOL    HW2  892   3.726   1.873   1.904
  253SOL     OW  893   2.154   1.328   0.066
  253SOL    HW1  894   2.236   1.355   0.106
  253SOL    HW2  895   2.095   1.312   0.140
  254SOL     OW  896   3.797   3.479   3.025
  254SOL    HW1  897   3.848   3.492   2.945
  254SOL    HW2  898   3.850   3.419   3.077
  255SOL     OW  899   3.197   0.127   0.111
  255SOL    HW1  900   3.252   0.083   0.046
  255SOL    HW2  901   3.259   0.155   0.179
  256SOL     OW  902   1.279   3.745   2.850
  256SOL    HW1  903   1.301   3.837   2.835
  256SOL    HW2  904   1.201   3.747   2.905
  257SOL     OW  905   2.333   1.829   2.606
  257SOL    HW1  906   2.306   1.760   2.667
  257SOL    HW2  907   2.408   1.871   2.649
  258SOL     OW  908   0.988   0.850   2.238
  258SOL    HW1  909   0.901   0.882   2.214
  258SOL    HW2  910   1.048   0.895   2.178
  259SOL     OW  911   2.236   3.119   1.008
  259SOL    HW1  912   2.265   3.078   0.926
  259SOL    HW2  913   2.283   3.072   1.077
  260SOL     OW  914   0.656   3.546   1.976
  260SOL    HW1  915   0.673   3.469   2.031
  260SOL    HW2  916   0.573   3.527   1.934
  261SOL     OW  917   3.664   0.676   2.090
  261SOL    HW1  918   3.611   0.638   2.020
  261SOL    HW2  919   3.718   0.604   2.122
  262SOL     OW  920   1.133   3.665   1.401
  262SOL    HW1  921   1.150   3.616   1.320
  262SOL    HW2  922   1.093   3.747   1.370
  263SOL     OW  923   1.046   2.727   2.312
  263SOL    HW1  924   1.104   2.803   2.317
  263SOL    HW2  925   1.031   2.701   2.403
  264SOL     OW  926   1.418   0.848   0.738
  264SOL    HW1  927   1.340   0.802   0.770
  264SOL    HW2  928   1.392   0.940   0.735
  265SOL     OW  929   2.707   0.369   3.495
  265SOL    HW1  930   2.628   0.314   3.489
  265SOL    HW2  931   2.774   0.320   3.448
  266SOL     OW  932   2.896   3.365   1.910
  266SOL    HW1  933   2.817   3.328   1.949
  266SOL    HW2  934   2.902   3.453   1.946
  267SOL     OW  935   0.308   0.939   3.851
  267SOL    HW1  936   0.355   0.857   3.834
  267SOL    HW2  937   0.370   0.992   3.901
  268SOL     OW  938   1.462   0.585   3.431
  268SOL    HW1  939   1.461   0.670   3.475
  268SOL    HW2  940   1.542   0.543   3.463
  269SOL     OW  941   2.964   3.332   0.179
  269SOL    HW1  942   2.933   3.345   0.089
  269SOL    HW2  943   2.944   3.414   0.223
  270SOL     OW  944   3.568   0.011   3.740
  270SOL    HW1  945   3.489   0.053   3.707
  270SOL    HW2  946   3.586  -0.061   3.679
  271SOL     OW  947   1.074   3.094   2.544
  271SOL    HW1  948   1.132   3.029   2.582
  271SOL    HW2  949   1.057   3.156   2.615
  272SOL     OW  950   0.644   0.173   1.203
  272SOL    HW1  951   0.660   0.233   1.130
  272SOL    HW2  952   0.553   0.189   1.228
  273SOL     OW  953   2.759   0.481   3.771
  273SOL    HW1  954   2.779   0.445   3.685
  273SOL    HW2  955   2.727   0.407   3.822
  274SOL     OW  956   1.750   0.900   3.078
  274SOL    HW1  957   1.738   0.844   3.155
  274SOL    HW2  958   1.807   0.971   3.108
  275SOL     OW  959   0.715   0.660   0.567
  275SOL    HW1  960   0.644   0.637   0.507
  275SOL    HW2  961   0.674   0.660   0.654
  276SOL     OW  962   0.811   2.028   0.620
  276SOL    HW1  963   0.776   2.110   0.655
  276SOL    HW2  964   0.741   1.994   0.564
  277SOL     OW  965   3.638   2.254   2.113
  277SOL    HW1  966   3.720   2.234   2.157
  277SOL    HW2  967   3.662   2.317   2.044
  278SOL     OW  968   1.898   1.534   2.424
  278SOL    HW1  969   1.992   1.526   2.440
  278SOL    HW2  970   1.858   1.528   2.511
  279SOL     OW  971   1.752   1.581   3.696
  279SOL    HW1  972   1.734   1.494   3.733
  279SOL    HW2  973   1.841   1.601   3.725
  280SOL     OW  974   2.877   0.169   1.073
  280SOL    HW1  975   2.785   0.172   1.045
  280SOL    HW2  976   2.886   0.243   1.133
  281SOL     OW  977   3.747   1.034   1.239
  281SOL    HW1  978   3.810   0.999   1.175
  281SOL    HW2  979   3.761   1.129   1.236
  282SOL     OW  980   2.558   0.466   0.271
  282SOL    HW1  981   2.555   0.433   0.361
  282SOL    HW2  982   2.650   0.461   0.246
  283SOL     OW  983   3.918   1.175   3.347
  283SOL    HW1  984   3.989   1.202   3.288
  283SOL    HW2  985   3.932   1.081   3.359
  284SOL     OW  986   0.439   2.875   2.480
  284SOL    HW1  987   0.377   2.888   2.408
  284SOL    HW2  988   0.409   2.795   2.523
  285SOL     OW  989   3.743   2.765   2.407
  285SOL    HW1  990   3.684   2.693   2.427
  285SOL    HW2  991   3.686   2.834   2.373
  286SOL     OW  992   0.562   3.000   1.228
  286SOL    HW1  993   0.503   2.930   1.203
  286SOL    HW2  994   0.632   2.957   1.277
  287SOL     OW  995   1.567   2.534   2.966
  287SOL    HW1  996   1.650   2.486   2.961
  287SOL    HW2  997   1.549   2.557   2.875
  288SOL     OW  998   2.700   1.612   2.873
  288SOL    HW1  999   2.783   1.575   2.842
  288SOL    HW2 1000   2.722   1.647   2.960
  289SOL     OW 1001   2.310   2.132   3.782
  289SOL    HW1 1002   2.267   2.118   3.698
  289SOL    HW2 1003   2.301   2.049   3.828
  290SOL     OW 1004   0.079   1.448   1.646
  290SOL    HW1 1005   0.060   1.364   1.689
  290SOL    HW2 1006   0.047   1.436   1.557
  291SOL     OW 1007   0.854   1.605   2.098
  291SOL    HW1 1008   0.885   1.518   2.125
  291SOL    HW2 1009   0.934   1.657   2.088
  292SOL     OW 1010   3.405   2.107   2.613
  292SOL    HW1 1011   3.399   2.022   2.568
  292SOL    HW2 1012   3.431   2.085   2.702
  293SOL     OW 1013   2.384   2.771   3.565
  293SOL    HW1 1014   2.472   2.756   3.531
  293SOL    HW2 1015   2.352   2.683   3.587
  294SOL     OW 1016   2.709   3.126   1.731
  294SOL    HW1 1017   2.718   3.075   1.812
  294SOL    HW2 1018   2.654   3.200   1.755
  295SOL     OW 1019   2.703   1.420   3.932
  295SOL    HW1 1020   2.632   1.357   3.940
  295SOL    HW2 1021   2.750   1.393   3.852
  296SOL     OW 1022   0.130   1.274   3.142
  296SOL    HW1 1023   0.121   1.364   3.110
  296SOL    HW2 1024   0.219   1.269   3.176
  297SOL     OW 1025   1.858   3.061   3.808
  297SOL    HW1 1026   1.795   3.084   3.876
  297SOL    HW2 1027   1.805   3.031   3.735
  298SOL     OW 1028   1.495   3.592   3.380
  298SOL    HW1 1029   1.525   3.628   3.296
  298SOL    HW2 1030   1.474   3.501   3.360
  299SOL     OW 1031   3.133   0.551   2.637
  299SOL    HW1 1032   3.136   0.455   2.628
  299SOL    HW2 1033   3.084   0.581   2.560
  300SOL     OW 1034   3.611   0.564   3.114
  300SOL    HW1 1035   3.572   0.554   3.027
  300SOL    HW2 1036   3.540   0.595   3.170
  301SOL     OW 1037   0.677   2.792   0.961
  301SOL    HW1 1038   0.619   2.760   1.030
  301SOL    HW2 1039   0.746   2.840   1.007
  302SOL     OW 1040   0.208   0.434   2.073
  302SOL    HW1 1041   0.146   0.361   2.068
  302SOL    HW2 1042   0.183   0.491   2.000
  303SOL     OW 1043   3.246   0.956   3.243
  303SOL    HW1 1044   3.241   1.051   3.233
  303SOL    HW2 1045   3.291   0.926   3.164
  304SOL     OW 1046   1.622   2.763   3.114
  304SOL    HW1 1047   1.589   2.844   3.074
  304SOL    HW2 1048   1.584   2.693   3.061
  305SOL     OW 1049   0.603   0.811   1.269
  305SOL    HW1 1050   0.576   0.881   1.210
  305SOL    HW2 1051   0.523   0.758   1.281
  306SOL     OW 1052   2.783   3.726   1.142
  306SOL    HW1 1053   2.744   3.791   1.083
  306SOL    HW2 1054   2.731   3.647   1.129
  307SOL     OW 1055   0.480   2.706   1.588
  307SOL    HW1 1056   0.390   2.713   1.555
  307SOL    HW2 1057   0.532   2.683   1.512
  308SOL     OW 1058   0.011   1.273   0.980
  308SOL    HW1 1059   0.058   1.190   0.982
  308SOL    HW2 1060   0.060   1.331   1.038
  309SOL     OW 1061   1.528   2.375   3.639
  309SOL    HW1 1062   1.525   2.331   3.724
  309SOL    HW2 1063   1.481   2.457   3.653
  310SOL     OW 1064   3.057   2.278   0.665
  310SOL    HW1 1065   3.140   2.317   0.693
  310SOL    HW2 1066   3.001   2.281   0.742
  311SOL     OW 1067   0.641   1.111   0.290
  311SOL    HW1 1068   0.655   1.051   0.363
  311SOL    HW2 1069   0.702   1.082   0.223
  312SOL     OW 1070   3.100   0.253   2.318
  312SOL    HW1 1071   3.100   0.273   2.225
  312SOL    HW2 1072   3.008   0.252   2.343
  313SOL     OW 1073   2.676   0.537   1.477
  313SOL    HW1 1074   2.590   0.564   1.508
  313SOL    HW2 1075   2.733   0.544   1.553
  314SOL     OW 1076   2.177   1.441   3.234
  314SOL    HW1 1077   2.198   1.408   3.321
  314SOL    HW2 1078   2.262   1.457   3.193
  315SOL     OW 1079   3.060   3.141   1.658
  315SOL    HW1 1080   2.995   3.196   1.702
  315SOL    HW2 1081   3.144   3.176   1.688
  316SOL     OW 1082   0.691   2.361   3.885
  316SOL    HW1 1083   0.775   2.398   3.914
  316SOL    HW2 1084   0.702   2.267   3.896
  317SOL     OW 1085   1.770   0.675   2.897
  317SOL    HW1 1086   1.747   0.747   2.956
  317SOL    HW2 1087   1.783   0.600   2.955
  318SOL     OW 1088   1.163   1.041   2.094
  318SOL    HW1 1089   1.089   1.087   2.054
  318SOL    HW2 1090   1.183   0.971   2.033
  319SOL     OW 1091   0.931   2.271   3.746
  319SOL    HW1 1092   0.915   2.339   3.812
  319SOL    HW2 1093   0.854   2.215   3.750
  320SOL     OW 1094   2.938   2.782   2.115
  320SOL    HW1 1095   3.003   2.728   2.071
  320SOL    HW2 1096   2.868   2.722   2.138
  321SOL     OW 1097   3.555   2.889   2.265
  321SOL    HW1 1098   3.480   2.833   2.248
  321SOL    HW2 1099   3.544   2.963   2.204
  322SOL     OW 1100   3.641   1.998   2.029
  322SOL    HW1 1101   3.613   2.086   2.055
  322SOL    HW2 1102   3.606   1.941   2.097
  323SOL     OW 1103   2.720   1.176   0.236
  323SOL    HW1 1104   2.721   1.094   0.285
  323SOL    HW2 1105   2.712   1.244   0.302
  324SOL     OW 1106   2.428   0.720   1.604
  324SOL    HW1 1107   2.454   0.787   1.668
  324SOL    HW2 1108   2.401   0.770   1.527
  325SOL     OW 1109   1.570   1.184   1.324
  325SOL    HW1 1110   1.632   1.255   1.340
  325SOL    HW2 1111   1.557   1.184   1.230
  326SOL     OW 1112   3.921   1.984   0.161
  326SOL    HW1 1113   4.007   1.967   0.123
  326SOL    HW2 1114   3.871   2.026   0.091
  327SOL     OW 1115   0.318   2.144   3.645
  327SOL    HW1 1116   0.255   2.112   3.580
  327SOL    HW2 1117   0.340   2.232   3.616
  328SOL     OW 1118   2.712   3.778   0.861
  328SOL    HW1 1119   2.694   3.692   0.822
  328SOL    HW2 1120   2.630   3.826   0.852
  329SOL     OW 1121   2.542   1.363   3.201
  329SOL    HW1 1122   2.489   1.364   3.121
  329SOL    HW2 1123   2.545   1.271   3.227
  330SOL     OW 1124   3.538   1.107   0.321
  330SOL    HW1 1125   3.465   1.162   0.349
  330SOL    HW2 1126   3.509   1.068   0.239
  331SOL     OW 1127   0.700   1.372   3.233
  331SOL    HW1 1128   0.738   1.290   3.263
  331SOL    HW2 1129   0.769   1.412   3.180
  332SOL     OW 1130   2.416   2.387   3.838
  332SOL    HW1 1131   2.475   2.369   3.911
  332SOL    HW2 1132   2.369   2.305   3.823
  333SOL     OW 1133   3.407   2.580   1.814
  333SOL    HW1 1134   3.459   2.525   1.756
  333SOL    HW2 1135   3.341   2.620   1.756
  334SOL     OW 1136   3.649   0.123   2.814
  334SOL    HW1 1137   3.599   0.186   2.865
  334SOL    HW2 1138   3.734   0.164   2.801
  335SOL     OW 1139   1.299   3.204   1.738
  335SOL    HW1 1140   1.334   3.290   1.714
  335SOL    HW2 1141   1.272   3.214   1.830
  336SOL     OW 1142   3.929   0.952   1.059
  336SOL    HW1 1143   3.928   0.856   1.052
  336SOL    HW2 1144   3.872   0.981   0.988
  337SOL     OW 1145   0.147   1.755   0.979
  337SOL    HW1 1146   0.225   1.750   1.033
  337SOL    HW2 1147   0.165   1.825   0.916
  338SOL     OW 1148   1.822   3.346   1.822
  338SOL    HW1 1149   1.883   3.387   1.883
  338SOL    HW2 1150   1.754   3.308   1.877
  339SOL     OW 1151   3.947   0.208   2.972
  339SOL    HW1 1152   3.951   0.233   2.880
  339SOL    HW2 1153   3.957   0.113   2.972
  340SOL     OW 1154   0.260   2.948   1.135
  340SOL    HW1 1155   0.272   2.999   1.055
  340SOL    HW2 1156   0.299   2.863   1.115
  341SOL     OW 1157   0.176   1.548   1.862
  341SOL    HW1 1158   0.130   1.528   1.780
  341SOL    HW2 1159   0.162   1.471   1.917
  342SOL     OW 1160   1.804   1.883   2.505
  342SOL    HW1 1161   1.738   1.834   2.555
  342SOL    HW2 1162   1.813   1.834   2.424
  343SOL     OW 1163   2.446   1.018   0.055
  343SOL    HW1 1164   2.419   0.972   0.134
  343SOL    HW2 1165   2.527   0.974   0.028
  344SOL     OW 1166   0.039   1.239   3.720
  344SOL    HW1 1167  -0.024   1.168   3.708
  344SOL    HW2 1168  -0.007   1.302   3.776
  345SOL     OW 1169   3.191   3.601   0.201
  345SOL    HW1 1170   3.133   3.606   0.124
  345SOL    HW2 1171   3.244   3.523   0.186
  346SOL     OW 1172   3.134   2.764   1.189
  346SOL    HW1 1173   3.209   2.812   1.154
  346SOL    HW2 1174   3.165   2.731   1.274
  347SOL     OW 1175   2.017   1.269   0.763
  347SOL    HW1 1176   2.014   1.174   0.750
  347SOL    HW2 1177   1.989   1.282   0.853
  348SOL     OW 1178   0.581   1.785   3.883
  348SOL    HW1 1179   0.666   1.769   3.841
  348SOL    HW2 1180   0.596   1.767   3.975
  349SOL     OW 1181   0.600   1.659   2.039
  349SOL    HW1 1182   0.599   1.736   2.095
  349SOL    HW2 1183   0.692   1.634   2.034
  350SOL     OW 1184   3.745   3.490   0.770
  350SOL    HW1 1185   3.712   3.453   0.689
  350SOL    HW2 1186   3.696   3.446   0.839
  351SOL     OW 1187   2.851   3.018   3.897
  351SOL    HW1 1188   2.900   2.970   3.964
  351SOL    HW2 1189   2.789   2.955   3.863
  352SOL     OW 1190   0.852   0.319   0.807
  352SOL    HW1 1191   0.888   0.235   0.780
  352SOL    HW2 1192   0.890   0.382   0.746
  353SOL     OW 1193   0.157   2.990   1.382
  353SOL    HW1 1194   0.183   2.963   1.294
  353SOL    HW2 1195   0.238   2.990   1.433
  354SOL     OW 1196   1.937   3.590   2.599
  354SOL    HW1 1197   1.961   3.609   2.689
  354SOL    HW2 1198   1.902   3.501   2.602
  355SOL     OW 1199   2.546   2.080   3.591
  355SOL    HW1 1200   2.455   2.051   3.582
  355SOL    HW2 1201   2.598   2.001   3.580
  356SOL     OW 1202   2.642   1.350   0.645
  356SOL    HW1 1203   2.608   1.439   0.647
  356SOL    HW2 1204   2.579   1.299   0.697
  357SOL     OW 1205   1.269   1.927   2.821
  357SOL    HW1 1206   1.274   1.837   2.853
  357SOL    HW2 1207   1.244   1.979   2.898
  358SOL     OW 1208   0.466   3.028   3.588
  358SOL    HW1 1209   0.530   3.050   3.520
  358SOL    HW2 1210   0.477   2.934   3.602
  359SOL     OW 1211   3.437   3.862   0.208
  359SOL    HW1 1212   3.348   3.826   0.208
  359SOL    HW2 1213   3.438   3.923   0.282
  360SOL     OW 1214   1.523   0.674   0.033
  360SOL    HW1 1215   1.615   0.699   0.030
  360SOL    HW2 1216   1.493   0.702   0.120
  361SOL     OW 1217   3.392   0.574   3.446
  361SOL    HW1 1218   3.470   0.628   3.459
  361SOL    HW2 1219   3.346   0.577   3.530
  362SOL     OW 1220   3.117   2.676   0.207
  362SOL    HW1 1221   3.109   2.700   0.299
  362SOL    HW2 1222   3.076   2.749   0.160
  363SOL     OW 1223   2.505   3.502   0.260
  363SOL    HW1 1224   2.569   3.491   0.330
  363SOL    HW2 1225   2.505   3.418   0.214
  364SOL     OW 1226   3.174   3.234   1.206
  364SOL    HW1 1227   3.149   3.324   1.227
  364SOL    HW2 1228   3.269   3.234   1.209
  365SOL     OW 1229   3.741   2.088   3.468
  365SOL    HW1 1230   3.719   2.015   3.409
  365SOL    HW2 1231   3.722   2.166   3.416
  366SOL     OW 1232   0.862   1.562   3.888
  366SOL    HW1 1233   0.775   1.531   3.862
  366SOL    HW2 1234   0.908   1.576   3.805
  367SOL     OW 1235   2.948   3.921   0.897
  367SOL    HW1 1236   2.866   3.871   0.900
  367SOL    HW2 1237   2.941   3.984   0.969
  368SOL     OW 1238   3.863   2.507   2.197
  368SOL    HW1 1239   3.870   2.563   2.275
  368SOL    HW2 1240   3.816   2.561   2.133
  369SOL     OW 1241   2.959   2.513   3.177
  369SOL    HW1 1242   2.888   2.500   3.114
  369SOL    HW2 1243   2.999   2.426   3.186
  370SOL     OW 1244   3.845   0.071   2.549
  370SOL    HW1 1245   3.837  -0.008   2.602
  370SOL    HW2 1246   3.881   0.040   2.466
  371SOL     OW 1247   2.025   2.810   0.970
  371SOL    HW1 1248   1.952   2.779   1.024
  371SOL    HW2 1249   1.989   2.810   0.881
  372SOL     OW 1250   0.191   3.508   3.629
  372SOL    HW1 1251   0.147   3.517   3.545
  372SOL    HW2 1252   0.229   3.420   3.627
  373SOL     OW 1253   1.838   1.172   3.146
  373SOL    HW1 1254   1.868   1.170   3.237
  373SOL    HW2 1255   1.800   1.260   3.136
  374SOL     OW 1256   2.070   0.330   3.918
  374SOL    HW1 1257   2.047   0.410   3.965
  374SOL    HW2 1258   1.989   0.304   3.874
  375SOL     OW 1259   0.212   2.443   2.366
  375SOL    HW1 1260   0.151   2.516   2.381
  375SOL    HW2 1261   0.293   2.486   2.339
  376SOL     OW 1262   2.079   2.686   1.759
  376SOL    HW1 1263   2.174   2.690   1.743
  376SOL    HW2 1264   2.071   2.663   1.851
  377SOL     OW 1265   1.160   3.326   0.695
  377SOL    HW1 1266   1.093   3.314   0.762
  377SOL    HW2 1267   1.230   3.266   0.719
  378SOL     OW 1268   1.505  -0.010   0.411
  378SOL    HW1 1269   1.458   0.029   0.337
  378SOL    HW2 1270   1.582   0.047   0.422
  379SOL     OW 1271   2.743   0.160   1.836
  379SOL    HW1 1272   2.781   0.246   1.855
  379SOL    HW2 1273   2.743   0.155   1.740
  380SOL     OW 1274   0.746   2.910   1.747
  380SOL    HW1 1275   0.796   2.919   1.828
  380SOL    HW2 1276   0.723   2.817   1.743
  381SOL     OW 1277   0.249   2.739   0.797
  381SOL    HW1 1278   0.210   2.687   0.868
  381SOL    HW2 1279   0.315   2.681   0.758
  382SOL     OW 1280   0.444   3.781   2.919
  382SOL    HW1 1281   0.486   3.865   2.902
  382SOL    HW2 1282   0.385   3.798   2.992
  383SOL     OW 1283   0.913   3.906   3.142
  383SOL    HW1 1284   0.907   3.810   3.149
  383SOL    HW2 1285   0.867   3.939   3.219
  384SOL     OW 1286   2.566   0.310   3.082
  384SOL    HW1 1287   2.575   0.342   2.992
  384SOL    HW2 1288   2.543   0.388   3.133
  385SOL     OW 1289   2.879   0.675   0.951
  385SOL    HW1 1290   2.939   0.744   0.978
  385SOL    HW2 1291   2.794   0.702   0.986
  386SOL     OW 1292   2.553   0.113   0.693
  386SOL    HW1 1293   2.518   0.134   0.606
  386SOL    HW2 1294   2.486   0.057   0.732
  387SOL     OW 1295   0.413   0.651   2.581
  387SOL    HW1 1296   0.417   0.584   2.512
  387SOL    HW2 1297   0.486   0.709   2.562
  388SOL     OW 1298   2.250   1.659   0.557
  388SOL    HW1 1299   2.216   1.727   0.500
  388SOL    HW2 1300   2.187   1.653   0.628
  389SOL     OW 1301   2.502   1.234   3.850
  389SOL    HW1 1302   2.524   1.198   3.764
  389SOL    HW2 1303   2.481   1.158   3.904
  390SOL     OW 1304   2.168   3.281   0.292
  390SOL    HW1 1305   2.160   3.252   0.201
  390SOL    HW2 1306   2.244   3.233   0.325
  391SOL     OW 1307   0.172   3.715   1.473
  391SOL    HW1 1308   0.232   3.668   1.532
  391SOL    HW2 1309   0.227   3.783   1.433
  392SOL     OW 1310   3.902   3.185   0.371
  392SOL    HW1 1311   3.937   3.151   0.289
  392SOL    HW2 1312   3.852   3.112   0.408
  393SOL     OW 1313   2.169   2.701   3.247
  393SOL    HW1 1314   2.137   2.791   3.250
  393SOL    HW2 1315   2.090   2.647   3.251
  394SOL     OW 1316   3.545   1.886   2.406
  394SOL    HW1 1317   3.452   1.864   2.410
  394SOL    HW2 1318   3.588   1.808   2.373
  395SOL     OW 1319   2.631   2.860   3.804
  395SOL    HW1 1320   2.575   2.926   3.766
  395SOL    HW2 1321   2.573   2.786   3.821
  396SOL     OW 1322   2.651   3.693   1.417
  396SOL    HW1 1323   2.682   3.609   1.451
  396SOL    HW2 1324   2.706   3.710   1.340
  397SOL     OW 1325   2.591   1.134   2.886
  397SOL    HW1 1326   2.524   1.067   2.900
  397SOL    HW2 1327   2.643   1.101   2.812
  398SOL     OW 1328   1.038   1.979   3.779
  398SOL    HW1 1329   1.120   1.972   3.829
  398SOL    HW2 1330   1.026   2.073   3.765
  399SOL     OW 1331   1.153   1.892   3.188
  399SOL    HW1 1332   1.090   1.961   3.168
  399SOL    HW2 1333   1.100   1.821   3.225
  400SOL     OW 1334   3.384   3.408   0.198
  400SOL    HW1 1335   3.459   3.379   0.146
  400SOL    HW2 1336   3.419   3.477   0.254
  401SOL     OW 1337   2.649   2.450   1.509
  401SOL    HW1 1338   2.715   2.517   1.492
  401SOL    HW2 1339   2.683   2.372   1.464
  402SOL     OW 1340   3.118   3.379   3.814
  402SOL    HW1 1341   3.075   3.445   3.869
  402SOL    HW2 1342   3.133   3.305   3.872
  403SOL     OW 1343   2.371   2.574   1.466
  403SOL    HW1 1344   2.460   2.548   1.489
  403SOL    HW2 1345   2.338   2.502   1.412
  404SOL     OW 1346   2.190   0.015   3.300
  404SOL    HW1 1347   2.188   0.065   3.382
  404SOL    HW2 1348   2.244   0.068   3.241
  405SOL     OW 1349   0.233   1.749   3.180
  405SOL    HW1 1350   0.175   1.825   3.185
  405SOL    HW2 1351   0.291   1.759   3.256
  406SOL     OW 1352   3.675   0.222   2.195
  406SOL    HW1 1353   3.711   0.281   2.261
  406SOL    HW2 1354   3.644   0.280   2.125
  407SOL     OW 1355   1.872   2.628   3.223
  407SOL    HW1 1356   1.793   2.675   3.196
  407SOL    HW2 1357   1.866   2.543   3.180
  408SOL     OW 1358   0.261   3.021   3.804
  408SOL    HW1 1359   0.288   3.036   3.713
  408SOL    HW2 1360   0.292   3.098   3.851
  409SOL     OW 1361   1.933   3.445   1.228
  409SOL    HW1 1362   1.963   3.481   1.145
  409SOL    HW2 1363   1.921   3.352   1.211
  410SOL     OW 1364   0.362   3.274   3.232
  410SOL    HW1 1365   0.376   3.216   3.157
  410SOL    HW2 1366   0.319   3.351   3.196
  411SOL     OW 1367   0.028   3.855   1.675
  411SOL    HW1 1368  -0.009   3.781   1.722
  411SOL    HW2 1369   0.100   3.818   1.624
  412SOL     OW 1370   0.946   3.317   1.390
  412SOL    HW1 1371   1.019   3.351   1.337
  412SOL    HW2 1372   0.981   3.240   1.434
  413SOL     OW 1373   0.881   2.740   1.277
  413SOL    HW1 1374   0.918   2.745   1.365
  413SOL    HW2 1375   0.957   2.727   1.220
  414SOL     OW 1376   2.603   3.413   2.441
  414SOL    HW1 1377   2.687   3.411   2.395
  414SOL    HW2 1378   2.623   3.380   2.528
  415SOL     OW 1379   3.117   1.120   3.533
  415SOL    HW1 1380   3.150   1.145   3.619
  415SOL    HW2 1381   3.163   1.178   3.472
  416SOL     OW 1382   1.668   2.367   3.372
  416SOL    HW1 1383   1.619   2.389   3.293
  416SOL    HW2 1384   1.601   2.363   3.441
  417SOL     OW 1385   2.306   0.828   3.576
  417SOL    HW1 1386   2.387   0.815   3.625
  417SOL    HW2 1387   2.295   0.747   3.526
  418SOL     OW 1388   2.223   2.517   3.679
  418SOL    HW1 1389   2.247   2.465   3.602
  418SOL    HW2 1390   2.282   2.486   3.748
  419SOL     OW 1391   0.468   3.516   0.754
  419SOL    HW1 1392   0.490   3.543   0.843
  419SOL    HW2 1393   0.385   3.470   0.762
  420SOL     OW 1394   2.892   1.251   0.986
  420SOL    HW1 1395   2.924   1.319   0.927
  420SOL    HW2 1396   2.861   1.299   1.063
  421SOL     OW 1397   2.762   2.233   3.640
  421SOL    HW1 1398   2.792   2.242   3.549
  421SOL    HW2 1399   2.673   2.199   3.633
  422SOL     OW 1400   1.151   3.359   2.903
  422SOL    HW1 1401   1.211   3.419   2.948
  422SOL    HW2 1402   1.205   3.282   2.883
  423SOL     OW 1403   3.604   2.078   1.637
  423SOL    HW1 1404   3.645   2.008   1.688
  423SOL    HW2 1405   3.641   2.068   1.549
  424SOL     OW 1406   0.818   2.172   1.721
  424SOL    HW1 1407   0.841   2.105   1.657
  424SOL    HW2 1408   0.777   2.123   1.793
  425SOL     OW 1409   0.335   1.527   2.321
  425SOL    HW1 1410   0.248   1.563   2.301
  425SOL    HW2 1411   0.393   1.568   2.258
  426SOL     OW 1412   0.137   3.970   1.933
  426SOL    HW1 1413   0.101   3.937   1.850
  426SOL    HW2 1414   0.193   3.900   1.964
  427SOL     OW 1415   1.297   3.659   2.260
  427SOL    HW1 1416   1.352   3.603   2.316
  427SOL    HW2 1417   1.226   3.688   2.317
  428SOL     OW 1418   3.819   1.995   1.034
  428SOL    HW1 1419   3.777   1.991   1.121
  428SOL    HW2 1420   3.826   1.903   1.008
  429SOL     OW 1421   1.055   0.268   2.976
  429SOL    HW1 1422   1.078   0.334   3.042
  429SOL    HW2 1423   1.106   0.191   3.001
  430SOL     OW 1424   1.108   0.971   2.996
  430SOL    HW1 1425   1.080   1.017   3.075
  430SOL    HW2 1426   1.203   0.963   3.005
  431SOL     OW 1427   1.266   0.311   3.455
  431SOL    HW1 1428   1.221   0.289   3.537
  431SOL    HW2 1429   1.351   0.346   3.482
  432SOL     OW 1430   0.891   1.754   0.640
  432SOL    HW1 1431   0.867   1.842   0.611
  432SOL    HW2 1432   0.986   1.749   0.627
  433SOL     OW 1433   1.539   0.989   3.468
  433SOL    HW1 1434   1.603   1.048   3.508
  433SOL    HW2 1435   1.460   0.998   3.522
  434SOL     OW 1436   1.697   1.217   2.915
  434SOL    HW1 1437   1.765   1.160   2.951
  434SOL    HW2 1438   1.632   1.224   2.985
  435SOL     OW 1439   2.840   0.630   0.023
  435SOL    HW1 1440   2.805   0.574  -0.048
  435SOL    HW2 1441   2.932   0.605   0.030
  436SOL     OW 1442   3.792   0.513   3.844
  436SOL    HW1 1443   3.842   0.438   3.811
  436SOL    HW2 1444   3.704   0.499   3.807
  437SOL     OW 1445   0.872   1.336   0.758
  437SOL    HW1 1446   0.806   1.278   0.797
  437SOL    HW2 1447   0.954   1.310   0.799
  438SOL     OW 1448   3.737   1.534   0.307
  438SOL    HW1 1449   3.710   1.480   0.233
  438SOL    HW2 1450   3.737   1.475   0.382
  439SOL     OW 1451   3.308   1.821  -0.009
  439SOL    HW1 1452   3.393   1.778  -0.012
  439SOL    HW2 1453   3.322   1.900   0.043
  440SOL     OW 1454   0.330   1.299   0.985
  440SOL    HW1 1455   0.294   1.356   1.053
  440SOL    HW2 1456   0.292   1.213   1.002
  441SOL     OW 1457   0.944   2.011   3.067
  441SOL    HW1 1458   0.890   2.089   3.063
  441SOL    HW2 1459   0.913   1.956   2.996
  442SOL     OW 1460   1.362   3.256   0.452
  442SOL    HW1 1461   1.339   3.279   0.542
  442SOL    HW2 1462   1.323   3.170   0.439
  443SOL     OW 1463   3.730   1.930   2.612
  443SOL    HW1 1464   3.676   1.923   2.691
  443SOL    HW2 1465   3.668   1.952   2.542
  444SOL     OW 1466   0.650   0.768   3.962
  444SOL    HW1 1467   0.715   0.831   3.994
  444SOL    HW2 1468   0.701   0.696   3.926
  445SOL     OW 1469   1.052   1.354   3.285
  445SOL    HW1 1470   1.050   1.415   3.211
  445SOL    HW2 1471   1.010   1.274   3.252
  446SOL     OW 1472   3.718   2.810   3.590
  446SOL    HW1 1473   3.773   2.763   3.527
  446SOL    HW2 1474   3.631   2.772   3.579
  447SOL     OW 1475   0.053   2.638   0.977
  447SOL    HW1 1476   0.063   2.543   0.988
  447SOL    HW2 1477  -0.026   2.648   0.924
  448SOL     OW 1478   0.499   2.082   2.624
  448SOL    HW1 1479   0.501   2.172   2.657
  448SOL    HW2 1480   0.430   2.083   2.557
  449SOL     OW 1481   0.127   1.616   3.467
  449SOL    HW1 1482   0.198   1.678   3.453
  449SOL    HW2 1483   0.164   1.531   3.443
  450SOL     OW 1484   2.075   1.778   2.003
  450SOL    HW1 1485   2.164   1.747   1.987
  450SOL    HW2 1486   2.070   1.789   2.098
  451SOL     OW 1487   2.702   1.461   2.572
  451SOL    HW1 1488   2.685   1.397   2.503
  451SOL    HW2 1489   2.629   1.452   2.632
  452SOL     OW 1490   0.237   0.063   3.639
  452SOL    HW1 1491   0.302  -0.003   3.617
  452SOL    HW2 1492   0.206   0.096   3.554
  453SOL     OW 1493   3.638   3.917   2.168
  453SOL    HW1 1494   3.627   4.009   2.194
  453SOL    HW2 1495   3.633   3.919   2.072
  454SOL     OW 1496   0.700   1.987   0.163
  454SOL    HW1 1497   0.695   1.908   0.217
  454SOL    HW2 1498   0.621   2.036   0.185
  455SOL     OW 1499   0.247   3.512   2.483
  455SOL    HW1 1500   0.325   3.519   2.537
  455SOL    HW2 1501   0.218   3.602   2.470
  456SOL     OW 1502   1.294   0.607   1.909
  456SOL    HW1 1503   1.359   0.670   1.878
  456SOL    HW2 1504   1.282   0.628   2.001
  457SOL     OW 1505   0.898   2.107   2.027
  457SOL    HW1 1506   0.848   2.048   1.970
  457SOL    HW2 1507   0.916   2.054   2.105
  458SOL     OW 1508   0.419   0.549   1.076
  458SOL    HW1 1509   0.401   0.459   1.050
  458SOL    HW2 1510   0.505   0.568   1.040
  459SOL     OW 1511   2.155   1.130   1.643
  459SOL    HW1 1512   2.197   1.214   1.626
  459SOL    HW2 1513   2.096   1.117   1.569
  460SOL     OW 1514   3.444   0.881   2.996
  460SOL    HW1 1515   3.446   0.957   2.937
  460SOL    HW2 1516   3.409   0.810   2.941
  461SOL     OW 1517   1.665   3.249   1.463
  461SOL    HW1 1518   1.750   3.215   1.435
  461SOL    HW2 1519   1.625   3.177   1.512
  462SOL     OW 1520   0.196   3.445   0.346
  462SOL    HW1 1521   0.131   3.399   0.293
  462SOL    HW2 1522   0.264   3.379   0.365
  463SOL     OW 1523   2.284   3.184   3.530
  463SOL    HW1 1524   2.294   3.125   3.605
  463SOL    HW2 1525   2.364   3.171   3.478
  464SOL     OW 1526   2.229   3.463   0.990
  464SOL    HW1 1527   2.216   3.369   0.976
  464SOL    HW2 1528   2.283   3.468   1.069
  465SOL     OW 1529   3.577   2.375   3.831
  465SOL    HW1 1530   3.598   2.376   3.738
  465SOL    HW2 1531   3.662   2.381   3.875
  466SOL     OW 1532   1.489   3.505   2.388
  466SOL    HW1 1533   1.529   3.561   2.455
  466SOL    HW2 1534   1.516   3.416   2.413
  467SOL     OW 1535   1.100   3.466   1.147
  467SOL    HW1 1536   1.173   3.478   1.086
  467SOL    HW2 1537   1.118   3.383   1.190
  468SOL     OW 1538   1.899   3.615   2.879
  468SOL    HW1 1539   1.879   3.702   2.914
  468SOL    HW2 1540   1.960   3.577   2.942
  469SOL     OW 1541   3.746   3.267   1.972
  469SOL    HW1 1542   3.748   3.260   1.877
  469SOL    HW2 1543   3.654   3.284   1.993
  470SOL     OW 1544   2.312   0.836   1.400
  470SOL    HW1 1545   2.328   0.820   1.307
  470SOL    HW2 1546   2.340   0.926   1.415
  471SOL     OW 1547   2.886   1.338   3.277
  471SOL    HW1 1548   2.870   1.249   3.245
  471SOL    HW2 1549   2.857   1.337   3.368
  472SOL     OW 1550   3.524   1.498   3.330
  472SOL    HW1 1551   3.577   1.462   3.401
  472SOL    HW2 1552   3.501   1.422   3.276
  473SOL     OW 1553   3.099   2.508   1.404
  473SOL    HW1 1554   3.029   2.565   1.435
  473SOL    HW2 1555   3.114   2.446   1.476
  474SOL     OW 1556   3.237   3.008   3.520
  474SOL    HW1 1557   3.184   2.938   3.557
  474SOL    HW2 1558   3.242   2.988   3.426
  475SOL     OW 1559   3.008   0.679   2.422
  475SOL    HW1 1560   3.079   0.742   2.434
  475SOL    HW2 1561   3.018   0.648   2.332
  476SOL     OW 1562   3.419   3.786   3.215
  476SOL    HW1 1563   3.478   3.821   3.148
  476SOL    HW2 1564   3.456   3.701   3.237
  477SOL     OW 1565   3.091   0.764   3.060
  477SOL    HW1 1566   3.058   0.674   3.055
  477SOL    HW2 1567   3.022   0.817   3.020
  478SOL     OW 1568   3.183   1.182   2.400
  478SOL    HW1 1569   3.265   1.169   2.446
  478SOL    HW2 1570   3.198   1.143   2.314
  479SOL     OW 1571   3.518   3.365   2.106
  479SOL    HW1 1572   3.445   3.408   2.151
  479SOL    HW2 1573   3.579   3.343   2.177
  480SOL     OW 1574   1.079   0.989   3.279
  480SOL    HW1 1575   1.048   1.038   3.355
  480SOL    HW2 1576   1.175   0.989   3.287
  481SOL     OW 1577   2.041   2.874   0.130
  481SOL    HW1 1578   2.099   2.934   0.083
  481SOL    HW2 1579   2.036   2.796   0.075
  482SOL     OW 1580   0.947   0.960   3.837
  482SOL    HW1 1581   0.925   1.044   3.796
  482SOL    HW2 1582   1.008   0.919   3.777
  483SOL     OW 1583   3.361   1.950   2.034
  483SOL    HW1 1584   3.320   2.027   1.995
  483SOL    HW2 1585   3.391   1.980   2.120
  484SOL     OW 1586   1.001   1.054   2.661
  484SOL    HW1 1587   0.907   1.044   2.677
  484SOL    HW2 1588   1.018   0.997   2.585
  485SOL     OW 1589   1.655   0.266   3.823
  485SOL    HW1 1590   1.682   0.347   3.866
  485SOL    HW2 1591   1.736   0.223   3.799
  486SOL     OW 1592   0.883   3.015   0.447
  486SOL    HW1 1593   0.808   2.957   0.458
  486SOL    HW2 1594   0.856   3.077   0.379
  487SOL     OW 1595   3.054   1.421   0.855
  487SOL    HW1 1596   2.993   1.494   0.857
  487SOL    HW2 1597   3.141   1.461   0.852
  488SOL     OW 1598   1.861   3.415   3.731
  488SOL    HW1 1599   1.871   3.321   3.742
  488SOL    HW2 1600   1.771   3.433   3.761
  489SOL     OW 1601   0.371   3.903   1.370
  489SOL    HW1 1602   0.389   3.862   1.285
  489SOL    HW2 1603   0.353   3.994   1.349
  490SOL     OW 1604   3.658   2.885   2.800
  490SOL    HW1 1605   3.699   2.855   2.719
  490SOL    HW2 1606   3.583   2.937   2.771
  491SOL     OW 1607   1.327   1.284   3.380
  491SOL    HW1 1608   1.253   1.326   3.336
  491SOL    HW2 1609   1.369   1.231   3.312
  492SOL     OW 1610   1.109   2.287   1.204
  492SOL    HW1 1611   1.082   2.334   1.283
  492SOL    HW2 1612   1.042   2.220   1.191
  493SOL     OW 1613   3.326   0.991   2.667
  493SOL    HW1 1614   3.376   0.911   2.653
  493SOL    HW2 1615   3.247   0.963   2.713
  494SOL     OW 1616   3.295   1.361   0.092
  494SOL    HW1 1617   3.235   1.335   0.022
  494SOL    HW2 1618   3.267   1.449   0.116
  495SOL     OW 1619   0.521   2.381   3.624
  495SOL    HW1 1620   0.519   2.363   3.718
  495SOL    HW2 1621   0.594   2.329   3.591
  496SOL     OW 1622   1.545   2.461   0.726
  496SOL    HW1 1623   1.504   2.377   0.745
  496SOL    HW2 1624   1.571   2.495   0.812
  497SOL     OW 1625   0.191   1.076   1.096
  497SOL    HW1 1626   0.183   1.116   1.183
  497SOL    HW2 1627   0.110   1.026   1.086
  498SOL     OW 1628   0.430   3.699   0.264
  498SOL    HW1 1629   0.360   3.664   0.209
  498SOL    HW2 1630   0.506   3.646   0.242
  499SOL     OW 1631   3.240   0.708   3.690
  499SOL    HW1 1632   3.200   0.751   3.615
  499SOL    HW2 1633   3.303   0.772   3.724
  500SOL     OW 1634   3.514   3.478   2.466
  500SOL    HW1 1635   3.443   3.532   2.502
  500SOL    HW2 1636   3.470   3.419   2.405
  501SOL     OW 1637   0.195   0.780   2.388
  501SOL    HW1 1638   0.182   0.874   2.388
  501SOL    HW2 1639   0.268   0.766   2.449
  502SOL     OW 1640   1.808   1.380   0.627
  502SOL    HW1 1641   1.897   1.362   0.655
  502SOL    HW2 1642   1.761   1.298   0.640
  503SOL     OW 1643   2.288   0.716   2.974
  503SOL    HW1 1644   2.295   0.628   3.013
  503SOL    HW2 1645   2.195   0.724   2.951
  504SOL     OW 1646   1.631   3.337   0.339
  504SOL    HW1 1647   1.601   3.311   0.427
  504SOL    HW2 1648   1.724   3.356   0.349
  505SOL     OW 1649   1.643   0.263   3.269
  505SOL    HW1 1650   1.654   0.230   3.358
  505SOL    HW2 1651   1.696   0.203   3.215
  506SOL     OW 1652   1.267   0.306   0.614
  506SOL    HW1 1653   1.324   0.331   0.541
  506SOL    HW2 1654   1.293   0.362   0.686
  507SOL     OW 1655   0.798   3.147   0.727
  507SOL    HW1 1656   0.821   3.146   0.634
  507SOL    HW2 1657   0.814   3.058   0.756
  508SOL     OW 1658   2.258   3.726   3.143
  508SOL    HW1 1659   2.251   3.815   3.177
  508SOL    HW2 1660   2.247   3.670   3.219
  509SOL     OW 1661   2.039   0.519   3.217
  509SOL    HW1 1662   2.117   0.506   3.162
  509SOL    HW2 1663   1.971   0.466   3.176
  510SOL     OW 1664   0.835   2.711   3.571
  510SOL    HW1 1665   0.908   2.662   3.609
  510SOL    HW2 1666   0.875   2.763   3.501
  511SOL     OW 1667   3.506   0.647   0.141
  511SOL    HW1 1668   3.593   0.688   0.144
  511SOL    HW2 1669   3.445   0.721   0.139
  512SOL     OW 1670   1.435   2.765   3.335
  512SOL    HW1 1671   1.454   2.708   3.409
  512SOL    HW2 1672   1.519   2.775   3.290
  513SOL     OW 1673   0.202   2.285   2.067
  513SOL    HW1 1674   0.244   2.247   1.990
  513SOL    HW2 1675   0.233   2.375   2.070
  514SOL     OW 1676   3.310   3.516   1.087
  514SOL    HW1 1677   3.275   3.506   0.998
  514SOL    HW2 1678   3.253   3.581   1.128
  515SOL     OW 1679   3.618   0.395   0.545
  515SOL    HW1 1680   3.700   0.442   0.558
  515SOL    HW2 1681   3.615   0.379   0.451
  516SOL     OW 1682   2.366   0.656   0.142
  516SOL    HW1 1683   2.448   0.606   0.150
  516SOL    HW2 1684   2.358   0.703   0.225
  517SOL     OW 1685   0.475   2.508   2.431
  517SOL    HW1 1686   0.524   2.448   2.487
  517SOL    HW2 1687   0.477   2.467   2.344
  518SOL     OW 1688   0.147   3.137   1.767
  518SOL    HW1 1689   0.189   3.087   1.697
  518SOL    HW2 1690   0.205   3.126   1.842
  519SOL     OW 1691   2.849   3.779   0.593
  519SOL    HW1 1692   2.794   3.713   0.637
  519SOL    HW2 1693   2.844   3.856   0.650
  520SOL     OW 1694   3.467   2.407   3.095
  520SOL    HW1 1695   3.419   2.486   3.070
  520SOL    HW2 1696   3.409   2.362   3.157
  521SOL     OW 1697   0.602   3.057   2.996
  521SOL    HW1 1698   0.590   3.143   2.957
  521SOL    HW2 1699   0.571   2.996   2.928
  522SOL     OW 1700   1.437   0.470   0.791
  522SOL    HW1 1701   1.483   0.409   0.733
  522SOL    HW2 1702   1.503   0.495   0.856
  523SOL     OW 1703   2.602   3.695   3.405
  523SOL    HW1 1704   2.662   3.739   3.465
  523SOL    HW2 1705   2.653   3.682   3.324
  524SOL     OW 1706   0.569   0.871   0.850
  524SOL    HW1 1707   0.551   0.878   0.944
  524SOL    HW2 1708   0.484   0.882   0.808
  525SOL     OW 1709   3.121   0.260   1.655
  525SOL    HW1 1710   3.042   0.233   1.609
  525SOL    HW2 1711   3.104   0.236   1.746
  526SOL     OW 1712   3.669   3.858   2.939
  526SOL    HW1 1713   3.660   3.948   2.908
  526SOL    HW2 1714   3.725   3.865   3.017
  527SOL     OW 1715   3.769   0.434   3.380
  527SOL    HW1 1716   3.687   0.386   3.371
  527SOL    HW2 1717   3.813   0.423   3.296
  528SOL     OW 1718   1.515   3.780   2.470
  528SOL    HW1 1719   1.426   3.757   2.497
  528SOL    HW2 1720   1.511   3.874   2.450
  529SOL     OW 1721   0.308   2.815   0.434
  529SOL    HW1 1722   0.320   2.821   0.339
  529SOL    HW2 1723   0.289   2.722   0.449
  530SOL     OW 1724   2.709   3.434   0.454
  530SOL    HW1 1725   2.702   3.491   0.531
  530SOL    HW2 1726   2.729   3.348   0.489
  531SOL     OW 1727   2.937   2.666   1.542
  531SOL    HW1 1728   2.915   2.752   1.578
  531SOL    HW2 1729   2.952   2.611   1.619
  532SOL     OW 1730   2.022   0.785   2.862
  532SOL    HW1 1731   2.032   0.802   2.768
  532SOL    HW2 1732   1.927   0.782   2.876
  533SOL     OW 1733   0.460   2.096   0.265
  533SOL    HW1 1734   0.385   2.054   0.225
  533SOL    HW2 1735   0.459   2.186   0.231
  534SOL     OW 1736   3.207   0.819   1.313
  534SOL    HW1 1737   3.220   0.724   1.309
  534SOL    HW2 1738   3.293   0.855   1.331
  535SOL     OW 1739   1.085   1.272   1.192
  535SOL    HW1 1740   1.028   1.316   1.254
  535SOL    HW2 1741   1.080   1.180   1.214
  536SOL     OW 1742   2.653   3.100   3.156
  536SOL    HW1 1743   2.682   3.092   3.246
  536SOL    HW2 1744   2.575   3.157   3.160
  537SOL     OW 1745   1.766   0.306   2.661
  537SOL    HW1 1746   1.821   0.380   2.687
  537SOL    HW2 1747   1.793   0.287   2.571
  538SOL     OW 1748   3.519   3.166   1.458
  538SOL    HW1 1749   3.470   3.233   1.410
  538SOL    HW2 1750   3.599   3.153   1.407
  539SOL     OW 1751   1.646   0.132   1.338
  539SOL    HW1 1752   1.566   0.115   1.288
  539SOL    HW2 1753   1.627   0.099   1.426
  540SOL     OW 1754   3.698   3.288   3.720
  540SOL    HW1 1755   3.751   3.209   3.708
  540SOL    HW2 1756   3.761   3.357   3.737
  541SOL     OW 1757   1.475   3.025   1.623
  541SOL    HW1 1758   1.429   3.092   1.674
  541SOL    HW2 1759   1.503   2.961   1.689
  542SOL     OW 1760   2.138   2.504   0.940
  542SOL    HW1 1761   2.062   2.535   0.990
  542SOL    HW2 1762   2.128   2.409   0.939
  543SOL     OW 1763   0.438   1.208   2.238
  543SOL    HW1 1764   0.378   1.243   2.304
  543SOL    HW2 1765   0.504   1.161   2.288
  544SOL     OW 1766   1.943   0.496   2.723
  544SOL    HW1 1767   1.896   0.565   2.770
  544SOL    HW2 1768   2.028   0.534   2.701
  545SOL     OW 1769   2.235   2.046   2.440
  545SOL    HW1 1770   2.323   2.013   2.422
  545SOL    HW2 1771   2.186   1.968   2.468
  546SOL     OW 1772   2.346   0.318   3.314
  546SOL    HW1 1773   2.256   0.298   3.336
  546SOL    HW2 1774   2.388   0.232   3.303
  547SOL     OW 1775   3.641   0.873   0.934
  547SOL    HW1 1776   3.650   0.938   1.004
  547SOL    HW2 1777   3.680   0.915   0.857
  548SOL     OW 1778   0.499   1.171   3.712
  548SOL    HW1 1779   0.485   1.123   3.631
  548SOL    HW2 1780   0.411   1.186   3.746
  549SOL     OW 1781   2.052   0.132   1.530
  549SOL    HW1 1782   2.137   0.168   1.557
  549SOL    HW2 1783   2.063   0.113   1.437
  550SOL     OW 1784   2.654   1.398   0.387
  550SOL    HW1 1785   2.655   1.373   0.479
  550SOL    HW2 1786   2.648   1.494   0.388
  551SOL     OW 1787   3.214   3.190   2.187
  551SOL    HW1 1788   3.120   3.170   2.196
  551SOL    HW2 1789   3.256   3.135   2.254
  552SOL     OW 1790   0.107   1.571   0.761
  552SOL    HW1 1791   0.075   1.653   0.723
  552SOL    HW2 1792   0.193   1.594   0.798
  553SOL     OW 1793   1.962   1.491   1.047
  553SOL    HW1 1794   1.899   1.532   1.106
  553SOL    HW2 1795   2.048   1.518   1.081
  554SOL     OW 1796   3.344   1.627   1.428
  554SOL    HW1 1797   3.349   1.541   1.470
  554SOL    HW2 1798   3.313   1.610   1.340
  555SOL     OW 1799   3.688   3.274   1.685
  555SOL    HW1 1800   3.675   3.192   1.637
  555SOL    HW2 1801   3.600   3.303   1.708
  556SOL     OW 1802   3.416   2.614   3.770
  556SOL    HW1 1803   3.446   2.527   3.796
  556SOL    HW2 1804   3.335   2.628   3.821
  557SOL     OW 1805   3.832   0.561   1.847
  557SOL    HW1 1806   3.875   0.512   1.777
  557SOL    HW2 1807   3.760   0.504   1.875
  558SOL     OW 1808   3.066   2.253   2.490
  558SOL    HW1 1809   3.158   2.275   2.507
  558SOL    HW2 1810   3.026   2.249   2.576
  559SOL     OW 1811   2.624   1.095   0.836
  559SOL    HW1 1812   2.648   1.122   0.925
  559SOL    HW2 1813   2.707   1.070   0.795
  560SOL     OW 1814   1.903   3.775   1.424
  560SOL    HW1 1815   1.909   3.686   1.388
  560SOL    HW2 1816   1.951   3.770   1.507
  561SOL     OW 1817   0.753   0.948   0.546
  561SOL    HW1 1818   0.715   0.860   0.559
  561SOL    HW2 1819   0.688   1.007   0.585
  562SOL     OW 1820   0.952   1.639   1.755
  562SOL    HW1 1821   0.866   1.641   1.714
  562SOL    HW2 1822   0.999   1.569   1.711
  563SOL     OW 1823   0.778   1.522   0.186
  563SOL    HW1 1824   0.773   1.538   0.092
  563SOL    HW2 1825   0.730   1.595   0.225
  564SOL     OW 1826   0.075   1.144   1.741
  564SOL    HW1 1827   0.044   1.109   1.824
  564SOL    HW2 1828   0.068   1.070   1.680
  565SOL     OW 1829   2.188   1.502   2.432
  565SOL    HW1 1830   2.236   1.452   2.498
  565SOL    HW2 1831   2.217   1.465   2.348
  566SOL     OW 1832   2.716   2.579   0.820
  566SOL    HW1 1833   2.679   2.623   0.896
  566SOL    HW2 1834   2.709   2.486   0.840
  567SOL     OW 1835   3.138   3.826   3.662
  567SOL    HW1 1836   3.170   3.847   3.750
  567SOL    HW2 1837   3.075   3.755   3.675
  568SOL     OW 1838   0.878   2.955   1.998
  568SOL    HW1 1839   0.851   2.954   2.089
  568SOL    HW2 1840   0.961   2.906   1.996
  569SOL     OW 1841   0.087   3.318   3.861
  569SOL    HW1 1842   0.058   3.264   3.788
  569SOL    HW2 1843   0.181   3.299   3.869
  570SOL     OW 1844   0.626   2.434   2.983
  570SOL    HW1 1845   0.534   2.461   2.989
  570SOL    HW2 1846   0.661   2.448   3.071
  571SOL     OW 1847   0.933   1.007   1.028
  571SOL    HW1 1848   0.987   1.020   0.951
  571SOL    HW2 1849   0.856   0.960   0.995
  572SOL     OW 1850   0.053   0.700   0.729
  572SOL    HW1 1851   0.065   0.732   0.639
  572SOL    HW2 1852   0.115   0.752   0.781
  573SOL     OW 1853   3.921   3.174   2.489
  573SOL    HW1 1854   3.910   3.163   2.584
  573SOL    HW2 1855   4.000   3.227   2.480
  574SOL     OW 1856   2.618   2.203   2.039
  574SOL    HW1 1857   2.546   2.266   2.027
  574SOL    HW2 1858   2.648   2.218   2.129
  575SOL     OW 1859   3.219   0.491   1.539
  575SOL    HW1 1860   3.238   0.560   1.603
  575SOL    HW2 1861   3.201   0.413   1.592
  576SOL     OW 1862   1.607   3.448   3.804
  576SOL    HW1 1863   1.590   3.534   3.764
  576SOL    HW2 1864   1.625   3.468   3.896
  577SOL     OW 1865   3.530   1.901   3.812
  577SOL    HW1 1866   3.519   1.952   3.893
  577SOL    HW2 1867   3.562   1.816   3.842
  578SOL     OW 1868   1.107   0.005   1.960
  578SOL    HW1 1869   1.194   0.013   1.921
  578SOL    HW2 1870   1.125  -0.011   2.053
  579SOL     OW 1871   2.167   1.598   1.167
  579SOL    HW1 1872   2.228   1.569   1.100
  579SOL    HW2 1873   2.193   1.550   1.246
  580SOL     OW 1874   1.175   2.588   3.230
  580SOL    HW1 1875   1.269   2.607   3.224
  580SOL    HW2 1876   1.148   2.622   3.315
  581SOL     OW 1877   0.830   0.653   3.513
  581SOL    HW1 1878   0.886   0.719   3.555
  581SOL    HW2 1879   0.744   0.665   3.555
  582SOL     OW 1880   1.110   0.889   1.880
  582SOL    HW1 1881   1.169   0.866   1.808
  582SOL    HW2 1882   1.024   0.858   1.851
  583SOL     OW 1883   0.269   2.871   2.282
  583SOL    HW1 1884   0.279   2.943   2.220
  583SOL    HW2 1885   0.211   2.810   2.238
  584SOL     OW 1886   0.232   0.289   0.436
  584SOL    HW1 1887   0.255   0.198   0.419
  584SOL    HW2 1888   0.162   0.308   0.374
  585SOL     OW 1889   3.375   3.665   0.663
  585SOL    HW1 1890   3.459   3.681   0.706
  585SOL    HW2 1891   3.311   3.708   0.719
  586SOL     OW 1892   0.982   2.651   1.520
  586SOL    HW1 1893   1.019   2.735   1.547
  586SOL    HW2 1894   0.905   2.640   1.575
  587SOL     OW 1895   3.902   1.650   2.007
  587SOL    HW1 1896   3.991   1.685   1.997
  587SOL    HW2 1897   3.915   1.556   2.014
  588SOL     OW 1898   0.941   3.498   0.489
  588SOL    HW1 1899   1.014   3.448   0.453
  588SOL    HW2 1900   0.975   3.533   0.571
  589SOL     OW 1901   1.929   3.565   0.986
  589SOL    HW1 1902   1.939   3.654   0.951
  589SOL    HW2 1903   1.920   3.511   0.908
  590SOL     OW 1904   1.642   1.420   1.795
  590SOL    HW1 1905   1.677   1.341   1.753
  590SOL    HW2 1906   1.720   1.471   1.819
  591SOL     OW 1907   2.363   3.314   2.787
  591SOL    HW1 1908   2.361   3.378   2.859
  591SOL    HW2 1909   2.277   3.272   2.791
  592SOL     OW 1910   3.981   3.660   3.162
  592SOL    HW1 1911   3.910   3.600   3.138
  592SOL    HW2 1912   3.937   3.744   3.177
  593SOL     OW 1913   1.734   1.846   2.985
  593SOL    HW1 1914   1.726   1.931   2.942
  593SOL    HW2 1915   1.786   1.864   3.064
  594SOL     OW 1916   3.527   3.731   1.560
  594SOL    HW1 1917   3.589   3.675   1.607
  594SOL    HW2 1918   3.455   3.672   1.537
  595SOL     OW 1919   1.771   1.202   1.688
  595SOL    HW1 1920   1.840   1.158   1.739
  595SOL    HW2 1921   1.809   1.215   1.602
  596SOL     OW 1922   3.279   0.728   1.695
  596SOL    HW1 1923   3.199   0.774   1.720
  596SOL    HW2 1924   3.323   0.788   1.634
  597SOL     OW 1925   2.552   1.971   2.704
  597SOL    HW1 1926   2.589   2.024   2.634
  597SOL    HW2 1927   2.594   2.003   2.784
  598SOL     OW 1928   1.898   2.512   1.604
  598SOL    HW1 1929   1.938   2.595   1.632
  598SOL    HW2 1930   1.896   2.459   1.683
  599SOL     OW 1931   0.839   0.098   1.374
  599SOL    HW1 1932   0.769   0.131   1.318
  599SOL    HW2 1933   0.797   0.035   1.431
  600SOL     OW 1934   2.138   3.648   1.682
  600SOL    HW1 1935   2.221   3.659   1.635
  600SOL    HW2 1936   2.084   3.595   1.623
  601SOL     OW 1937   3.724   1.324   3.091
  601SOL    HW1 1938   3.675   1.245   3.117
  601SOL    HW2 1939   3.784   1.339   3.164
  602SOL     OW 1940   3.404   0.493   0.750
  602SOL    HW1 1941   3.473   0.492   0.683
  602SOL    HW2 1942   3.444   0.449   0.825
  603SOL     OW 1943   1.388   3.198   3.135
  603SOL    HW1 1944   1.445   3.229   3.206
  603SOL    HW2 1945   1.329   3.272   3.118
  604SOL     OW 1946   3.809   0.481   2.179
  604SOL    HW1 1947   3.821   0.447   2.268
  604SOL    HW2 1948   3.893   0.462   2.136
  605SOL     OW 1949   2.740   1.976   2.346
  605SOL    HW1 1950   2.709   1.946   2.432
  605SOL    HW2 1951   2.835   1.969   2.352
  606SOL     OW 1952   3.884   3.425   2.771
  606SOL    HW1 1953   3.915   3.405   2.683
  606SOL    HW2 1954   3.808   3.483   2.758
  607SOL     OW 1955   3.204   2.639   3.225
  607SOL    HW1 1956   3.232   2.566   3.280
  607SOL    HW2 1957   3.115   2.616   3.198
  608SOL     OW 1958   1.957   2.781   2.985
  608SOL    HW1 1959   1.879   2.729   2.967
  608SOL    HW2 1960   1.970   2.773   3.079
  609SOL     OW 1961   3.249   2.380   0.861
  609SOL    HW1 1962   3.331   2.423   0.889
  609SOL    HW2 1963   3.229   2.320   0.933
  610SOL     OW 1964   1.617   0.999   1.010
  610SOL    HW1 1965   1.538   1.008   0.958
  610SOL    HW2 1966   1.668   1.078   0.991
  611SOL     OW 1967   2.905   3.623   1.627
  611SOL    HW1 1968   2.961   3.700   1.613
  611SOL    HW2 1969   2.965   3.555   1.657
  612SOL     OW 1970   3.586   0.931   3.521
  612SOL    HW1 1971   3.613   0.839   3.521
  612SOL    HW2 1972   3.575   0.953   3.429
  613SOL     OW 1973   3.108   1.596   1.987
  613SOL    HW1 1974   3.029   1.554   1.953
  613SOL    HW2 1975   3.079   1.684   2.011
  614SOL     OW 1976   3.845   2.947   1.293
  614SOL    HW1 1977   3.933   2.983   1.307
  614SOL    HW2 1978   3.807   3.003   1.225
  615SOL     OW 1979   2.130   0.545   2.277
  615SOL    HW1 1980   2.091   0.633   2.279
  615SOL    HW2 1981   2.181   0.544   2.197
  616SOL     OW 1982   0.525   2.566   1.834
  616SOL    HW1 1983   0.497   2.615   1.757
  616SOL    HW2 1984   0.509   2.474   1.811
  617SOL     OW 1985   3.632   1.250   3.837
  617SOL    HW1 1986   3.692   1.186   3.875
  617SOL    HW2 1987   3.550   1.202   3.826
  618SOL     OW 1988   3.686   0.798   1.817
  618SOL    HW1 1989   3.662   0.774   1.907
  618SOL    HW2 1990   3.732   0.721   1.783
  619SOL     OW 1991   1.706   1.162   0.332
  619SOL    HW1 1992   1.672   1.251   0.328
  619SOL    HW2 1993   1.698   1.128   0.243
  620SOL     OW 1994   1.712   2.597   0.540
  620SOL    HW1 1995   1.674   2.534   0.601
  620SOL    HW2 1996   1.640   2.618   0.480
  621SOL     OW 1997   3.460   0.658   2.316
  621SOL    HW1 1998   3.503   0.648   2.401
  621SOL    HW2 1999   3.481   0.577   2.270
  622SOL     OW 2000   1.408   3.420   1.386
  622SOL    HW1 2001   1.359   3.465   1.454
  622SOL    HW2 2002   1.492   3.399   1.426
  623SOL     OW 2003   0.145   0.747   0.475
  623SOL    HW1 2004   0.176   0.709   0.392
  623SOL    HW2 2005   0.209   0.718   0.540
  624SOL     OW 2006   1.713   0.453   3.564
  624SOL    HW1 2007   1.718   0.467   3.658
  624SOL    HW2 2008   1.802   0.464   3.532
  625SOL     OW 2009   0.800   1.493   1.000
  625SOL    HW1 2010   0.880   1.485   0.948
  625SOL    HW2 2011   0.741   1.428   0.964
  626SOL     OW 2012   1.867   0.056   1.711
  626SOL    HW1 2013   1.940   0.089   1.659
  626SOL    HW2 2014   1.897  -0.028   1.744
  627SOL     OW 2015   3.322   0.188   3.227
  627SOL    HW1 2016   3.320   0.100   3.190
  627SOL    HW2 2017   3.398   0.187   3.286
  628SOL     OW 2018   0.323   0.659   3.182
  628SOL    HW1 2019   0.380   0.687   3.110
  628SOL    HW2 2020   0.272   0.737   3.204
  629SOL     OW 2021   0.762   3.066   0.153
  629SOL    HW1 2022   0.710   3.022   0.086
  629SOL    HW2 2023   0.733   3.157   0.150
  630SOL     OW 2024   2.661   3.874   3.629
  630SOL    HW1 2025   2.662   3.849   3.722
  630SOL    HW2 2026   2.687   3.966   3.629
  631SOL     OW 2027   0.760   1.350   0.404
  631SOL    HW1 2028   0.702   1.274   0.407
  631SOL    HW2 2029   0.759   1.378   0.313
  632SOL     OW 2030   3.087   3.043   0.879
  632SOL    HW1 2031   3.042   3.120   0.914
  632SOL    HW2 2032   3.016   2.983   0.856
  633SOL     OW 2033   1.512   1.217   0.710
  633SOL    HW1 2034   1.477   1.178   0.790
  633SOL    HW2 2035   1.465   1.300   0.701
  634SOL     OW 2036  -0.015   1.574   2.899
  634SOL    HW1 2037   0.026   1.541   2.979
  634SOL    HW2 2038   0.055   1.622   2.854
  635SOL     OW 2039   3.802   1.042   3.922
  635SOL    HW1 2040   3.783   0.996   3.840
  635SOL    HW2 2041   3.897   1.030   3.935
  636SOL     OW 2042   0.485   0.330   3.447
  636SOL    HW1 2043   0.439   0.413   3.460
  636SOL    HW2 2044   0.426   0.278   3.392
  637SOL     OW 2045   1.709   1.589   0.142
  637SOL    HW1 2046   1.736   1.564   0.230
  637SOL    HW2 2047   1.760   1.667   0.122
  638SOL     OW 2048   3.173   2.728   3.556
  638SOL    HW1 2049   3.083   2.755   3.539
  638SOL    HW2 2050   3.166   2.639   3.588
  639SOL     OW 2051   2.398   1.504   3.799
  639SOL    HW1 2052   2.419   1.411   3.802
  639SOL    HW2 2053   2.478   1.548   3.824
  640SOL     OW 2054   1.120   0.260   2.673
  640SOL    HW1 2055   1.033   0.294   2.648
  640SOL    HW2 2056   1.114   0.248   2.768
  641SOL     OW 2057   2.335   2.575   2.431
  641SOL    HW1 2058   2.429   2.561   2.415
  641SOL    HW2 2059   2.297   2.487   2.430
  642SOL     OW 2060   1.723   3.787   3.334
  642SOL    HW1 2061   1.669   3.849   3.286
  642SOL    HW2 2062   1.661   3.720   3.364
  643SOL     OW 2063   0.610   3.248   1.137
  643SOL    HW1 2064   0.597   3.249   1.042
  643SOL    HW2 2065   0.576   3.163   1.165
  644SOL     OW 2066   3.307   2.880   0.745
  644SOL    HW1 2067   3.225   2.851   0.786
  644SOL    HW2 2068   3.283   2.901   0.655
  645SOL     OW 2069   3.669   3.580   1.081
  645SOL    HW1 2070   3.622   3.504   1.046
  645SOL    HW2 2071   3.753   3.544   1.111
  646SOL     OW 2072   2.571   2.570   3.200
  646SOL    HW1 2073   2.588   2.664   3.211
  646SOL    HW2 2074   2.507   2.549   3.267
  647SOL     OW 2075   2.701   0.711   0.275
  647SOL    HW1 2076   2.750   0.665   0.343
  647SOL    HW2 2077   2.755   0.701   0.196
  648SOL     OW 2078   0.528   2.819   3.204
  648SOL    HW1 2079   0.568   2.905   3.190
  648SOL    HW2 2080   0.472   2.806   3.127
  649SOL     OW 2081   3.601   1.750   1.409
  649SOL    HW1 2082   3.512   1.717   1.416
  649SOL    HW2 2083   3.645   1.717   1.487
  650SOL     OW 2084   3.069   2.854   2.359
  650SOL    HW1 2085   3.129   2.782   2.338
  650SOL    HW2 2086   3.007   2.856   2.286
  651SOL     OW 2087   1.963   3.189   1.142
  651SOL    HW1 2088   1.932   3.178   1.052
  651SOL    HW2 2089   2.057   3.173   1.137
  652SOL     OW 2090   1.377   3.009   1.347
  652SOL    HW1 2091   1.471   3.024   1.362
  652SOL    HW2 2092   1.335   3.038   1.428
  653SOL     OW 2093   1.989   3.908   0.081
  653SOL    HW1 2094   2.076   3.874   0.059
  653SOL    HW2 2095   2.005   3.972   0.150
  654SOL     OW 2096   1.262   0.950   2.696
  654SOL    HW1 2097   1.188   1.004   2.723
  654SOL    HW2 2098   1.250   0.937   2.602
  655SOL     OW 2099   0.851   3.902   0.862
  655SOL    HW1 2100   0.858   3.835   0.931
  655SOL    HW2 2101   0.941   3.917   0.834
  656SOL     OW 2102   2.239   1.907   3.194
  656SOL    HW1 2103   2.314   1.878   3.143
  656SOL    HW2 2104   2.181   1.831   3.198
  657SOL     OW 2105   3.472   2.117   0.736
  657SOL    HW1 2106   3.457   2.212   0.734
  657SOL    HW2 2107   3.419   2.082   0.664
  658SOL     OW 2108   1.859   2.892   1.657
  658SOL    HW1 2109   1.954   2.886   1.672
  658SOL    HW2 2110   1.847   2.865   1.566
  659SOL     OW 2111   2.055   1.761   2.960
  659SOL    HW1 2112   2.027   1.852   2.956
  659SOL    HW2 2113   2.075   1.746   3.052
  660SOL     OW 2114   0.901   2.064   0.348
  660SOL    HW1 2115   0.897   1.998   0.279
  660SOL    HW2 2116   0.906   2.014   0.429
  661SOL     OW 2117   3.116   1.956   3.553
  661SOL    HW1 2118   3.158   1.896   3.491
  661SOL    HW2 2119   3.151   2.042   3.531
  662SOL     OW 2120   0.366   0.195   1.239
  662SOL    HW1 2121   0.366   0.259   1.310
  662SOL    HW2 2122   0.302   0.229   1.176
  663SOL     OW 2123   2.042   1.697   3.212
  663SOL    HW1 2124   2.052   1.602   3.217
  663SOL    HW2 2125   2.030   1.724   3.303
  664SOL     OW 2126   0.153   0.768   1.357
  664SOL    HW1 2127   0.246   0.759   1.339
  664SOL    HW2 2128   0.126   0.682   1.388
  665SOL     OW 2129   1.257   1.457   0.545
  665SOL    HW1 2130   1.294   1.404   0.474
  665SOL    HW2 2131   1.165   1.467   0.522
  666SOL     OW 2132   3.751   3.159   1.075
  666SOL    HW1 2133   3.842   3.169   1.050
  666SOL    HW2 2134   3.745   3.201   1.161
  667SOL     OW 2135   3.741   2.685   1.241
  667SOL    HW1 2136   3.772   2.775   1.254
  667SOL    HW2 2137   3.663   2.679   1.297
  668SOL     OW 2138   2.816   2.883   0.900
  668SOL    HW1 2139   2.853   2.863   0.986
  668SOL    HW2 2140   2.723   2.862   0.908
  669SOL     OW 2141   1.984   1.042   0.073
  669SOL    HW1 2142   2.025   1.111   0.127
  669SOL    HW2 2143   1.891   1.060   0.080
  670SOL     OW 2144   0.329   2.656   2.593
  670SOL    HW1 2145   0.236   2.649   2.568
  670SOL    HW2 2146   0.373   2.589   2.540
  671SOL     OW 2147   0.553   2.581   1.371
  671SOL    HW1 2148   0.626   2.541   1.323
  671SOL    HW2 2149   0.518   2.510   1.425
  672SOL     OW 2150   1.168   1.061   1.491
  672SOL    HW1 2151   1.147   1.081   1.400
  672SOL    HW2 2152   1.251   1.015   1.487
  673SOL     OW 2153   3.866   0.384   2.707
  673SOL    HW1 2154   3.959   0.396   2.722
  673SOL    HW2 2155   3.833   0.471   2.686
  674SOL     OW 2156   2.774   2.924   1.366
  674SOL    HW1 2157   2.839   2.910   1.435
  674SOL    HW2 2158   2.690   2.909   1.409
  675SOL     OW 2159   3.490   3.129   0.474
  675SOL    HW1 2160   3.503   3.039   0.505
  675SOL    HW2 2161   3.404   3.128   0.433
  676SOL     OW 2162   3.364   1.655   3.175
  676SOL    HW1 2163   3.423   1.691   3.108
  676SOL    HW2 2164   3.421   1.607   3.235
  677SOL     OW 2165   0.261   2.703   1.407
  677SOL    HW1 2166   0.234   2.793   1.421
  677SOL    HW2 2167   0.179   2.655   1.394
  678SOL     OW 2168   2.063   1.599   3.624
  678SOL    HW1 2169   2.064   1.504   3.616
  678SOL    HW2 2170   2.149   1.627   3.593
  679SOL     OW 2171   0.563   1.132   0.607
  679SOL    HW1 2172   0.513   1.053   0.585
  679SOL    HW2 2173   0.500   1.204   0.598
  680SOL     OW 2174   3.058   1.283   3.865
  680SOL    HW1 2175   3.006   1.207   3.890
  680SOL    HW2 2176   3.006   1.359   3.891
  681SOL     OW 2177   2.659   0.791   2.674
  681SOL    HW1 2178   2.677   0.883   2.656
  681SOL    HW2 2179   2.621   0.790   2.762
  682SOL     OW 2180   2.187   0.567   2.579
  682SOL    HW1 2181   2.232   0.561   2.495
  682SOL    HW2 2182   2.162   0.659   2.586
  683SOL     OW 2183   3.285   0.560   1.297
  683SOL    HW1 2184   3.244   0.494   1.241
  683SOL    HW2 2185   3.254   0.538   1.386
  684SOL     OW 2186   1.668   0.434   1.642
  684SOL    HW1 2187   1.691   0.360   1.699
  684SOL    HW2 2188   1.739   0.437   1.577
  685SOL     OW 2189   1.425   2.461   0.016
  685SOL    HW1 2190   1.382   2.377   0.004
  685SOL    HW2 2191   1.519   2.441   0.015
  686SOL     OW 2192   2.666   3.695   2.133
  686SOL    HW1 2193   2.644   3.606   2.105
  686SOL    HW2 2194   2.685   3.742   2.052
  687SOL     OW 2195   1.992   0.520   3.551
  687SOL    HW1 2196   2.066   0.475   3.592
  687SOL    HW2 2197   2.023   0.540   3.463
  688SOL     OW 2198   2.970   0.547   2.911
  688SOL    HW1 2199   2.980   0.461   2.952
  688SOL    HW2 2200   2.994   0.533   2.819
  689SOL     OW 2201   0.502   0.169   2.999
  689SOL    HW1 2202   0.490   0.133   3.087
  689SOL    HW2 2203   0.574   0.118   2.962
  690SOL     OW 2204   2.632   3.145   0.871
  690SOL    HW1 2205   2.629   3.108   0.959
  690SOL    HW2 2206   2.631   3.069   0.813
  691SOL     OW 2207   1.456   3.464   1.746
  691SOL    HW1 2208   1.516   3.525   1.790
  691SOL    HW2 2209   1.380   3.518   1.723
  692SOL     OW 2210   2.172   0.610   1.039
  692SOL    HW1 2211   2.221   0.534   1.009
  692SOL    HW2 2212   2.109   0.575   1.103
  693SOL     OW 2213   1.059   3.925   0.446
  693SOL    HW1 2214   1.025   3.864   0.512
  693SOL    HW2 2215   1.041   4.012   0.482
  694SOL     OW 2216   1.078   0.390   0.321
  694SOL    HW1 2217   1.167   0.378   0.353
  694SOL    HW2 2218   1.080   0.473   0.274
  695SOL     OW 2219   1.385   1.353   1.163
  695SOL    HW1 2220   1.410   1.333   1.253
  695SOL    HW2 2221   1.294   1.326   1.157
  696SOL     OW 2222   3.350   2.818   0.452
  696SOL    HW1 2223   3.277   2.874   0.427
  696SOL    HW2 2224   3.317   2.728   0.441
  697SOL     OW 2225   1.210   2.260   3.785
  697SOL    HW1 2226   1.135   2.283   3.729
  697SOL    HW2 2227   1.171   2.235   3.868
  698SOL     OW 2228   3.584   2.608   2.090
  698SOL    HW1 2229   3.600   2.656   2.009
  698SOL    HW2 2230   3.509   2.552   2.070
  699SOL     OW 2231   1.221   3.480   3.551
  699SOL    HW1 2232   1.155   3.463   3.618
  699SOL    HW2 2233   1.296   3.426   3.577
  700SOL     OW 2234   3.599   3.355   0.935
  700SOL    HW1 2235   3.643   3.273   0.957
  700SOL    HW2 2236   3.507   3.340   0.954
  701SOL     OW 2237   3.634   2.450   2.742
  701SOL    HW1 2238   3.665   2.430   2.654
  701SOL    HW2 2239   3.664   2.540   2.759
  702SOL     OW 2240   2.166   3.321   3.090
  702SOL    HW1 2241   2.101   3.390   3.083
  702SOL    HW2 2242   2.244   3.358   3.047
  703SOL     OW 2243   0.650   3.360   1.742
  703SOL    HW1 2244   0.710   3.358   1.817
  703SOL    HW2 2245   0.640   3.268   1.717
  704SOL     OW 2246   1.887   2.834   1.340
  704SOL    HW1 2247   1.969   2.786   1.353
  704SOL    HW2 2248   1.860   2.810   1.251
  705SOL     OW 2249   2.573   2.556   0.240
  705SOL    HW1 2250   2.581   2.556   0.335
  705SOL    HW2 2251   2.519   2.632   0.221
  706SOL     OW 2252   3.221   2.910   3.269
  706SOL    HW1 2253   3.221   2.815   3.280
  706SOL    HW2 2254   3.301   2.928   3.219
  707SOL     OW 2255   2.324   3.762   0.646
  707SOL    HW1 2256   2.235   3.788   0.620
  707SOL    HW2 2257   2.370   3.750   0.563
  708SOL     OW 2258   1.785   0.406   3.049
  708SOL    HW1 2259   1.825   0.320   3.057
  708SOL    HW2 2260   1.711   0.392   2.990
  709SOL     OW 2261   2.871   3.587   0.257
  709SOL    HW1 2262   2.817   3.533   0.314
  709SOL    HW2 2263   2.816   3.662   0.236
  710SOL     OW 2264   1.428   2.646   3.601
  710SOL    HW1 2265   1.359   2.592   3.562
  710SOL    HW2 2266   1.381   2.716   3.646
  711SOL     OW 2267   2.352   0.257   0.230
  711SOL    HW1 2268   2.317   0.269   0.142
  711SOL    HW2 2269   2.408   0.334   0.244
  712SOL     OW 2270   1.622   1.170   3.686
  712SOL    HW1 2271   1.672   1.242   3.722
  712SOL    HW2 2272   1.533   1.205   3.678
  713SOL     OW 2273   0.363   2.281   3.893
  713SOL    HW1 2274   0.302   2.355   3.895
  713SOL    HW2 2275   0.331   2.226   3.822
  714SOL     OW 2276   1.248   0.032   3.028
  714SOL    HW1 2277   1.232  -0.012   3.112
  714SOL    HW2 2278   1.343   0.034   3.021
  715SOL     OW 2279   3.334   2.444   3.358
  715SOL    HW1 2280   3.386   2.430   3.436
  715SOL    HW2 2281   3.296   2.357   3.339
  716SOL     OW 2282   2.431   3.834   2.626
  716SOL    HW1 2283   2.484   3.805   2.552
  716SOL    HW2 2284   2.340   3.820   2.598
  717SOL     OW 2285   1.667   0.604   3.228
  717SOL    HW1 2286   1.692   0.514   3.205
  717SOL    HW2 2287   1.572   0.599   3.243
  718SOL     OW 2288   0.064   0.803   2.673
  718SOL    HW1 2289  -0.025   0.778   2.696
  718SOL    HW2 2290   0.120   0.750   2.730
  719SOL     OW 2291   0.349   1.393   0.477
  719SOL    HW1 2292   0.326   1.353   0.561
  719SOL    HW2 2293   0.266   1.428   0.444
  720SOL     OW 2294   0.104   3.816   0.678
  720SOL    HW1 2295   0.175   3.829   0.741
  720SOL    HW2 2296   0.147   3.783   0.599
  721SOL     OW 2297   1.902   2.621   2.530
  721SOL    HW1 2298   1.834   2.655   2.589
  721SOL    HW2 2299   1.976   2.681   2.541
  722SOL     OW 2300   0.568   1.867   2.216
  722SOL    HW1 2301   0.613   1.832   2.293
  722SOL    HW2 2302   0.596   1.958   2.212
  723SOL     OW 2303   2.376   1.599   3.510
  723SOL    HW1 2304   2.447   1.537   3.492
  723SOL    HW2 2305   2.398   1.636   3.596
  724SOL     OW 2306   3.358   0.323   2.387
  724SOL    HW1 2307   3.366   0.258   2.456
  724SOL    HW2 2308   3.268   0.317   2.358
  725SOL     OW 2309   2.073   3.141   0.713
  725SOL    HW1 2310   2.024   3.125   0.632
  725SOL    HW2 2311   2.136   3.069   0.717
  726SOL     OW 2312   0.312   2.617   3.254
  726SOL    HW1 2313   0.275   2.594   3.340
  726SOL    HW2 2314   0.387   2.674   3.275
  727SOL     OW 2315   2.820   3.840   0.159
  727SOL    HW1 2316   2.852   3.922   0.196
  727SOL    HW2 2317   2.824   3.854   0.064
  728SOL     OW 2318   3.030   1.859   2.415
  728SOL    HW1 2319   3.001   1.817   2.496
  728SOL    HW2 2320   3.124   1.838   2.410
  729SOL     OW 2321   0.471   3.511   3.513
  729SOL    HW1 2322   0.417   3.432   3.512
  729SOL    HW2 2323   0.557   3.480   3.541
  730SOL     OW 2324   0.852   2.069   2.326
  730SOL    HW1 2325   0.889   1.987   2.293
  730SOL    HW2 2326   0.861   2.062   2.421
  731SOL     OW 2327   3.837   3.713   0.547
  731SOL    HW1 2328   3.887   3.793   0.528
  731SOL    HW2 2329   3.780   3.702   0.471
  732SOL     OW 2330   1.330   2.114   0.371
  732SOL    HW1 2331   1.330   2.041   0.309
  732SOL    HW2 2332   1.237   2.133   0.384
  733SOL     OW 2333   3.312   3.439   0.828
  733SOL    HW1 2334   3.349   3.365   0.781
  733SOL    HW2 2335   3.329   3.515   0.771
  734SOL     OW 2336   3.380   2.610   0.672
  734SOL    HW1 2337   3.365   2.694   0.715
  734SOL    HW2 2338   3.305   2.598   0.614
  735SOL     OW 2339   2.504   3.475   1.285
  735SOL    HW1 2340   2.542   3.449   1.201
  735SOL    HW2 2341   2.557   3.430   1.351
  736SOL     OW 2342   1.125   0.285   1.905
  736SOL    HW1 2343   1.087   0.197   1.909
  736SOL    HW2 2344   1.163   0.299   1.991
  737SOL     OW 2345   2.002   3.508   1.477
  737SOL    HW1 2346   1.989   3.473   1.389
  737SOL    HW2 2347   1.913   3.515   1.513
  738SOL     OW 2348   2.581   3.286   3.735
  738SOL    HW1 2349   2.496   3.316   3.768
  738SOL    HW2 2350   2.564   3.197   3.704
  739SOL     OW 2351   3.545   1.380   0.880
  739SOL    HW1 2352   3.598   1.446   0.836
  739SOL    HW2 2353   3.566   1.299   0.833
  740SOL     OW 2354   0.651   0.678   3.167
  740SOL    HW1 2355   0.656   0.587   3.136
  740SOL    HW2 2356   0.740   0.697   3.198
  741SOL     OW 2357   1.516   3.604   2.914
  741SOL    HW1 2358   1.460   3.669   2.872
  741SOL    HW2 2359   1.539   3.543   2.844
  742SOL     OW 2360   2.860   0.887   2.932
  742SOL    HW1 2361   2.828   0.853   2.848
  742SOL    HW2 2362   2.787   0.872   2.992
  743SOL     OW 2363   2.364   3.920   1.403
  743SOL    HW1 2364   2.303   3.864   1.355
  743SOL    HW2 2365   2.410   3.861   1.462
  744SOL     OW 2366   2.488   1.491   2.734
  744SOL    HW1 2367   2.552   1.534   2.791
  744SOL    HW2 2368   2.409   1.543   2.743
  745SOL     OW 2369   3.625   2.754   3.930
  745SOL    HW1 2370   3.595   2.844   3.916
  745SOL    HW2 2371   3.551   2.699   3.906
  746SOL     OW 2372   2.310   2.290   1.780
  746SOL    HW1 2373   2.270   2.329   1.702
  746SOL    HW2 2374   2.305   2.196   1.765
  747SOL     OW 2375   0.415   2.592   0.669
  747SOL    HW1 2376   0.405   2.548   0.584
  747SOL    HW2 2377   0.509   2.599   0.681
  748SOL     OW 2378   1.839   2.119   3.920
  748SOL    HW1 2379   1.853   2.144   4.011
  748SOL    HW2 2380   1.867   2.195   3.869
  749SOL     OW 2381   3.376   0.136   0.392
  749SOL    HW1 2382   3.281   0.124   0.398
  749SOL    HW2 2383   3.409   0.109   0.477
  750SOL     OW 2384   2.397   2.809   0.232
  750SOL    HW1 2385   2.471   2.839   0.284
  750SOL    HW2 2386   2.324   2.805   0.295
  751SOL     OW 2387   1.461   0.064   3.907
  751SOL    HW1 2388   1.385   0.115   3.935
  751SOL    HW2 2389   1.523   0.130   3.874
  752SOL     OW 2390   1.940   2.107   1.489
  752SOL    HW1 2391   1.908   2.035   1.436
  752SOL    HW2 2392   1.977   2.065   1.567
  753SOL     OW 2393   0.522   2.771   3.620
  753SOL    HW1 2394   0.609   2.733   3.614
  753SOL    HW2 2395   0.469   2.721   3.558
  754SOL     OW 2396   1.373   1.205   2.206
  754SOL    HW1 2397   1.323   1.129   2.176
  754SOL    HW2 2398   1.401   1.249   2.126
  755SOL     OW 2399   3.722   3.896   1.167
  755SOL    HW1 2400   3.733   3.946   1.247
  755SOL    HW2 2401   3.631   3.865   1.170
  756SOL     OW 2402   1.000   3.614   0.801
  756SOL    HW1 2403   1.037   3.528   0.823
  756SOL    HW2 2404   0.922   3.620   0.855
  757SOL     OW 2405   3.518   0.526   1.151
  757SOL    HW1 2406   3.445   0.530   1.212
  757SOL    HW2 2407   3.507   0.602   1.094
  758SOL     OW 2408   0.322   2.532   1.094
  758SOL    HW1 2409   0.280   2.473   1.032
  758SOL    HW2 2410   0.337   2.479   1.172
  759SOL     OW 2411   1.809   3.018   2.576
  759SOL    HW1 2412   1.813   3.010   2.481
  759SOL    HW2 2413   1.870   2.952   2.608
  760SOL     OW 2414   1.971   0.162   2.443
  760SOL    HW1 2415   2.054   0.202   2.419
  760SOL    HW2 2416   1.986   0.068   2.433
  761SOL     OW 2417   3.769   0.199   3.690
  761SOL    HW1 2418   3.709   0.139   3.734
  761SOL    HW2 2419   3.825   0.143   3.637
  762SOL     OW 2420   2.610   3.988   2.151
  762SOL    HW1 2421   2.705   3.978   2.146
  762SOL    HW2 2422   2.580   3.905   2.189
  763SOL     OW 2423   3.386   2.711   3.025
  763SOL    HW1 2424   3.348   2.697   3.112
  763SOL    HW2 2425   3.317   2.757   2.977
  764SOL     OW 2426   2.787   2.286   1.821
  764SOL    HW1 2427   2.730   2.263   1.895
  764SOL    HW2 2428   2.853   2.217   1.818
  765SOL     OW 2429   0.996   2.379   1.425
  765SOL    HW1 2430   0.998   2.474   1.438
  765SOL    HW2 2431   1.025   2.343   1.509
  766SOL     OW 2432   2.693   3.748   1.826
  766SOL    HW1 2433   2.649   3.825   1.788
  766SOL    HW2 2434   2.713   3.692   1.751
  767SOL     OW 2435   1.255   2.469   3.474
  767SOL    HW1 2436   1.177   2.414   3.476
  767SOL    HW2 2437   1.327   2.410   3.451
  768SOL     OW 2438   1.386   0.700   0.312
  768SOL    HW1 2439   1.332   0.778   0.326
  768SOL    HW2 2440   1.459   0.710   0.373
  769SOL     OW 2441   2.444   1.556   2.263
  769SOL    HW1 2442   2.510   1.489   2.280
  769SOL    HW2 2443   2.493   1.627   2.222
  770SOL     OW 2444   2.833   0.924   3.689
  770SOL    HW1 2445   2.796   0.947   3.604
  770SOL    HW2 2446   2.926   0.945   3.681
  771SOL     OW 2447   2.602   3.445   2.010
  771SOL    HW1 2448   2.592   3.350   2.008
  771SOL    HW2 2449   2.513   3.479   2.001
  772SOL     OW 2450   0.573   3.324   2.926
  772SOL    HW1 2451   0.626   3.333   2.846
  772SOL    HW2 2452   0.490   3.365   2.905
  773SOL     OW 2453   1.032   1.892   2.199
  773SOL    HW1 2454   1.109   1.909   2.253
  773SOL    HW2 2455   1.066   1.873   2.112
  774SOL     OW 2456   1.984   1.168   2.612
  774SOL    HW1 2457   2.034   1.189   2.691
  774SOL    HW2 2458   1.907   1.225   2.617
  775SOL     OW 2459   2.153   2.172   0.683
  775SOL    HW1 2460   2.202   2.104   0.638
  775SOL    HW2 2461   2.076   2.186   0.627
  776SOL     OW 2462   2.671   1.780   2.527
  776SOL    HW1 2463   2.671   1.828   2.610
  776SOL    HW2 2464   2.613   1.705   2.542
  777SOL     OW 2465   2.978   3.230   1.032
  777SOL    HW1 2466   3.034   3.222   1.110
  777SOL    HW2 2467   2.889   3.220   1.066
  778SOL     OW 2468   1.220   2.857   3.604
  778SOL    HW1 2469   1.184   2.882   3.689
  778SOL    HW2 2470   1.150   2.878   3.541
  779SOL     OW 2471   0.041   1.726   0.512
  779SOL    HW1 2472  -0.054   1.725   0.520
  779SOL    HW2 2473   0.063   1.644   0.467
  780SOL     OW 2474   1.114   0.886   0.786
  780SOL    HW1 2475   1.082   0.940   0.714
  780SOL    HW2 2476   1.139   0.804   0.746
  781SOL     OW 2477   0.490   3.056   1.994
  781SOL    HW1 2478   0.406   3.069   2.037
  781SOL    HW2 2479   0.521   2.971   2.026
  782SOL     OW 2480   1.266   1.162   0.541
  782SOL    HW1 2481   1.293   1.195   0.455
  782SOL    HW2 2482   1.238   1.241   0.589
  783SOL     OW 2483   3.867   3.751   2.644
  783SOL    HW1 2484   3.820   3.730   2.725
  783SOL    HW2 2485   3.820   3.703   2.576
  784SOL     OW 2486   0.906   3.526   3.461
  784SOL    HW1 2487   0.814   3.502   3.477
  784SOL    HW2 2488   0.942   3.542   3.548
  785SOL     OW 2489   3.867   1.259   2.247
  785SOL    HW1 2490   3.868   1.163   2.243
  785SOL    HW2 2491   3.891   1.279   2.338
  786SOL     OW 2492   0.782   3.247   3.828
  786SOL    HW1 2493   0.850   3.263   3.894
  786SOL    HW2 2494   0.828   3.200   3.758
  787SOL     OW 2495   0.940   1.730   3.284
  787SOL    HW1 2496   0.877   1.793   3.319
  787SOL    HW2 2497   0.887   1.667   3.235
  788SOL     OW 2498   0.219   3.466   3.118
  788SOL    HW1 2499   0.162   3.535   3.152
  788SOL    HW2 2500   0.245   3.497   3.032
  789SOL     OW 2501   0.604   2.801   0.133
  789SOL    HW1 2502   0.526   2.746   0.146
  789SOL    HW2 2503   0.588   2.846   0.051
  790SOL     OW 2504   1.752   3.750   0.379
  790SOL    HW1 2505   1.668   3.795   0.395
  790SOL    HW2 2506   1.814   3.821   0.362
  791SOL     OW 2507   1.618   1.760   1.278
  791SOL    HW1 2508   1.617   1.838   1.222
  791SOL    HW2 2509   1.527   1.730   1.279
  792SOL     OW 2510   3.477   2.098   1.255
  792SOL    HW1 2511   3.523   2.164   1.204
  792SOL    HW2 2512   3.420   2.054   1.192
  793SOL     OW 2513   0.823   3.003   2.517
  793SOL    HW1 2514   0.911   3.040   2.524
  793SOL    HW2 2515   0.807   2.963   2.603
  794SOL     OW 2516   2.419   1.053   0.639
  794SOL    HW1 2517   2.503   1.047   0.685
  794SOL    HW2 2518   2.396   1.146   0.643
  795SOL     OW 2519   2.748   2.876   1.955
  795SOL    HW1 2520   2.825   2.873   2.013
  795SOL    HW2 2521   2.758   2.801   1.897
  796SOL     OW 2522   3.487   3.770   1.248
  796SOL    HW1 2523   3.407   3.734   1.286
  796SOL    HW2 2524   3.524   3.698   1.196
  797SOL     OW 2525   1.026   0.392   2.409
  797SOL    HW1 2526   0.952   0.439   2.446
  797SOL    HW2 2527   1.039   0.431   2.322
  798SOL     OW 2528   2.160   3.648   3.960
  798SOL    HW1 2529   2.072   3.637   3.995
  798SOL    HW2 2530   2.153   3.627   3.867
  799SOL     OW 2531   1.329   1.297   2.459
  799SOL    HW1 2532   1.260   1.359   2.436
  799SOL    HW2 2533   1.359   1.262   2.375
  800SOL     OW 2534   2.107   3.208   0.036
  800SOL    HW1 2535   2.104   3.170  -0.052
  800SOL    HW2 2536   2.016   3.227   0.057
  801SOL     OW 2537   2.281   0.973   1.843
  801SOL    HW1 2538   2.365   0.973   1.799
  801SOL    HW2 2539   2.223   1.021   1.784
  802SOL     OW 2540   1.016   0.229   0.532
  802SOL    HW1 2541   1.009   0.294   0.463
  802SOL    HW2 2542   1.106   0.236   0.563
  803SOL     OW 2543   1.574   1.314   0.984
  803SOL    HW1 2544   1.597   1.393   0.936
  803SOL    HW2 2545   1.501   1.341   1.041
  804SOL     OW 2546   1.843   1.336   3.808
  804SOL    HW1 2547   1.820   1.289   3.887
  804SOL    HW2 2548   1.928   1.301   3.782
  805SOL     OW 2549   0.735   0.977   3.637
  805SOL    HW1 2550   0.703   0.888   3.647
  805SOL    HW2 2551   0.714   1.019   3.720
  806SOL     OW 2552   3.781   0.839   3.255
  806SOL    HW1 2553   3.870   0.823   3.286
  806SOL    HW2 2554   3.766   0.772   3.188
  807SOL     OW 2555   0.551   1.128   3.019
  807SOL    HW1 2556   0.623   1.080   2.979
  807SOL    HW2 2557   0.476   1.110   2.964
  808SOL     OW 2558   3.689   3.617   3.833
  808SOL    HW1 2559   3.724   3.553   3.894
  808SOL    HW2 2560   3.761   3.633   3.771
  809SOL     OW 2561   0.936   3.542   2.911
  809SOL    HW1 2562   0.982   3.566   2.991
  809SOL    HW2 2563   0.988   3.471   2.874
  810SOL     OW 2564   2.523   1.708   3.952
  810SOL    HW1 2565   2.552   1.797   3.932
  810SOL    HW2 2566   2.604   1.661   3.974
  811SOL     OW 2567   1.751   0.590   1.860
  811SOL    HW1 2568   1.685   0.530   1.825
  811SOL    HW2 2569   1.812   0.534   1.907
  812SOL     OW 2570   3.876   2.215   3.015
  812SOL    HW1 2571   3.902   2.227   2.924
  812SOL    HW2 2572   3.788   2.251   3.020
  813SOL     OW 2573   1.289   1.912   2.334
  813SOL    HW1 2574   1.292   1.824   2.372
  813SOL    HW2 2575   1.276   1.970   2.409
  814SOL     OW 2576   3.340   1.298   0.487
  814SOL    HW1 2577   3.354   1.392   0.481
  814SOL    HW2 2578   3.258   1.288   0.535
  815SOL     OW 2579   0.870   0.570   0.192
  815SOL    HW1 2580   0.906   0.485   0.217
  815SOL    HW2 2581   0.835   0.558   0.104
  816SOL     OW 2582   2.272   1.663   2.795
  816SOL    HW1 2583   2.305   1.697   2.878
  816SOL    HW2 2584   2.177   1.669   2.803
  817SOL     OW 2585   0.986   1.788   0.896
  817SOL    HW1 2586   0.912   1.769   0.838
  817SOL    HW2 2587   1.016   1.875   0.869
  818SOL     OW 2588   1.893   2.083   2.644
  818SOL    HW1 2589   1.975   2.115   2.607
  818SOL    HW2 2590   1.863   2.017   2.582
  819SOL     OW 2591   2.617   1.984   3.845
  819SOL    HW1 2592   2.616   2.014   3.936
  819SOL    HW2 2593   2.572   2.053   3.796
  820SOL     OW 2594   3.625   3.519   3.553
  820SOL    HW1 2595   3.576   3.544   3.631
  820SOL    HW2 2596   3.655   3.430   3.571
  821SOL     OW 2597   0.892   2.115   1.205
  821SOL    HW1 2598   0.839   2.083   1.278
  821SOL    HW2 2599   0.834   2.175   1.158
  822SOL     OW 2600   1.658   1.183   2.444
  822SOL    HW1 2601   1.634   1.183   2.537
  822SOL    HW2 2602   1.632   1.269   2.412
  823SOL     OW 2603   0.018   2.647   0.499
  823SOL    HW1 2604   0.103   2.613   0.470
  823SOL    HW2 2605   0.035   2.739   0.518
  824SOL     OW 2606   2.891   1.061   3.926
  824SOL    HW1 2607   2.817   1.122   3.926
  824SOL    HW2 2608   2.857   0.981   3.886
  825SOL     OW 2609   1.155   2.975   2.046
  825SOL    HW1 2610   1.125   3.060   2.015
  825SOL    HW2 2611   1.194   2.993   2.131
  826SOL     OW 2612   1.160   0.350   1.585
  826SOL    HW1 2613   1.234   0.301   1.549
  826SOL    HW2 2614   1.096   0.351   1.514
  827SOL     OW 2615   2.308   1.973   3.470
  827SOL    HW1 2616   2.221   2.004   3.447
  827SOL    HW2 2617   2.325   1.901   3.409
  828SOL     OW 2618   0.058   1.477   0.376
  828SOL    HW1 2619   0.084   1.530   0.301
  828SOL    HW2 2620  -0.027   1.441   0.352
  829SOL     OW 2621   0.820   0.125   2.078
  829SOL    HW1 2622   0.860   0.075   2.007
  829SOL    HW2 2623   0.734   0.149   2.045
  830SOL     OW 2624   2.370   2.828   3.932
  830SOL    HW1 2625   2.355   2.831   4.026
  830SOL    HW2 2626   2.316   2.898   3.896
  831SOL     OW 2627   1.314   1.930   0.792
  831SOL    HW1 2628   1.242   1.964   0.846
  831SOL    HW2 2629   1.270   1.879   0.723
  832SOL     OW 2630   3.331   0.773   0.719
  832SOL    HW1 2631   3.331   0.678   0.707
  832SOL    HW2 2632   3.406   0.803   0.668
  833SOL     OW 2633   2.162   3.269   2.305
  833SOL    HW1 2634   2.223   3.317   2.361
  833SOL    HW2 2635   2.146   3.187   2.352
  834SOL     OW 2636   1.381   2.226   0.813
  834SOL    HW1 2637   1.350   2.140   0.787
  834SOL    HW2 2638   1.316   2.257   0.877
  835SOL     OW 2639   0.368   3.536   1.288
  835SOL    HW1 2640   0.402   3.497   1.368
  835SOL    HW2 2641   0.442   3.537   1.228
  836SOL     OW 2642   0.484   1.955   1.725
  836SOL    HW1 2643   0.457   1.867   1.748
  836SOL    HW2 2644   0.403   2.005   1.718
  837SOL     OW 2645   0.605   0.790   0.328
  837SOL    HW1 2646   0.635   0.766   0.240
  837SOL    HW2 2647   0.514   0.817   0.315
  838SOL     OW 2648   2.971   0.994   3.195
  838SOL    HW1 2649   2.988   1.063   3.130
  838SOL    HW2 2650   3.058   0.962   3.218
  839SOL     OW 2651   0.133   0.705   3.634
  839SOL    HW1 2652   0.130   0.613   3.607
  839SOL    HW2 2653   0.212   0.712   3.688
  840SOL     OW 2654   1.644   2.099   3.609
  840SOL    HW1 2655   1.608   2.187   3.601
  840SOL    HW2 2656   1.589   2.056   3.675
  841SOL     OW 2657   1.927   3.154   0.420
  841SOL    HW1 2658   1.893   3.088   0.359
  841SOL    HW2 2659   1.984   3.209   0.367
  842SOL     OW 2660   0.510   0.548   0.454
  842SOL    HW1 2661   0.483   0.558   0.363
  842SOL    HW2 2662   0.520   0.454   0.466
  843SOL     OW 2663   2.241   1.428   0.367
  843SOL    HW1 2664   2.317   1.391   0.321
  843SOL    HW2 2665   2.267   1.518   0.387
  844SOL     OW 2666   1.945   0.444   0.493
  844SOL    HW1 2667   2.018   0.476   0.546
  844SOL    HW2 2668   1.892   0.522   0.477
  845SOL     OW 2669   0.664   1.110   1.385
  845SOL    HW1 2670   0.645   1.132   1.476
  845SOL    HW2 2671   0.666   1.014   1.384
  846SOL     OW 2672   3.317   3.234   1.723
  846SOL    HW1 2673   3.282   3.265   1.807
  846SOL    HW2 2674   3.342   3.314   1.677
  847SOL     OW 2675   0.118   2.456   0.720
  847SOL    HW1 2676   0.212   2.469   0.732
  847SOL    HW2 2677   0.088   2.536   0.678
  848SOL     OW 2678   1.183   2.580   0.050
  848SOL    HW1 2679   1.275   2.557   0.043
  848SOL    HW2 2680   1.164   2.632  -0.028
  849SOL     OW 2681   2.755   2.469   3.419
  849SOL    HW1 2682   2.720   2.507   3.339
  849SOL    HW2 2683   2.705   2.511   3.489
  850SOL     OW 2684   1.896   1.612   1.807
  850SOL    HW1 2685   1.931   1.615   1.896
  850SOL    HW2 2686   1.873   1.703   1.788
  851SOL     OW 2687   1.521   1.456   2.776
  851SOL    HW1 2688   1.608   1.445   2.737
  851SOL    HW2 2689   1.472   1.379   2.747
  852SOL     OW 2690   3.660   0.277   0.096
  852SOL    HW1 2691   3.675   0.195   0.050
  852SOL    HW2 2692   3.604   0.328   0.037
  853SOL     OW 2693   2.888   2.041   3.923
  853SOL    HW1 2694   2.814   1.990   3.956
  853SOL    HW2 2695   2.937   1.980   3.868
  854SOL     OW 2696   1.734   3.049   3.566
  854SOL    HW1 2697   1.768   2.964   3.536
  854SOL    HW2 2698   1.782   3.113   3.513
  855SOL     OW 2699   2.263   0.392   2.786
  855SOL    HW1 2700   2.255   0.457   2.716
  855SOL    HW2 2701   2.287   0.311   2.742
  856SOL     OW 2702   0.364   3.643   2.216
  856SOL    HW1 2703   0.389   3.566   2.266
  856SOL    HW2 2704   0.440   3.700   2.220
  857SOL     OW 2705   2.294   3.630   1.274
  857SOL    HW1 2706   2.235   3.558   1.296
  857SOL    HW2 2707   2.382   3.592   1.279
  858SOL     OW 2708   1.533  -0.010   1.048
  858SOL    HW1 2709   1.613  -0.000   0.996
  858SOL    HW2 2710   1.479   0.065   1.022
  859SOL     OW 2711   3.289   3.407   3.077
  859SOL    HW1 2712   3.379   3.434   3.095
  859SOL    HW2 2713   3.270   3.339   3.141
  860SOL     OW 2714   3.881   0.986   1.975
  860SOL    HW1 2715   3.873   0.998   2.070
  860SOL    HW2 2716   3.887   0.891   1.964
  861SOL     OW 2717   1.165   2.844   1.565
  861SOL    HW1 2718   1.234   2.817   1.505
  861SOL    HW2 2719   1.191   2.805   1.649
  862SOL     OW 2720   2.348   0.786   1.117
  862SOL    HW1 2721   2.343   0.864   1.063
  862SOL    HW2 2722   2.268   0.737   1.096
  863SOL     OW 2723   2.149   1.387   1.923
  863SOL    HW1 2724   2.202   1.460   1.891
  863SOL    HW2 2725   2.159   1.390   2.018
  864SOL     OW 2726   3.630   1.630   2.334
  864SOL    HW1 2727   3.679   1.554   2.365
  864SOL    HW2 2728   3.617   1.614   2.241
  865SOL     OW 2729   0.082   1.966   3.313
  865SOL    HW1 2730   0.117   2.055   3.307
  865SOL    HW2 2731   0.070   1.951   3.407
  866SOL     OW 2732   0.738   3.703   1.347
  866SOL    HW1 2733   0.730   3.720   1.441
  866SOL    HW2 2734   0.727   3.608   1.339
  867SOL     OW 2735   0.027   2.818   3.781
  867SOL    HW1 2736   0.076   2.898   3.801
  867SOL    HW2 2737  -0.034   2.844   3.712
  868SOL     OW 2738   1.394   2.698   2.460
  868SOL    HW1 2739   1.471   2.647   2.485
  868SOL    HW2 2740   1.383   2.680   2.367
  869SOL     OW 2741   0.464   3.391   1.492
  869SOL    HW1 2742   0.467   3.297   1.475
  869SOL    HW2 2743   0.543   3.408   1.543
  870SOL     OW 2744   3.352   0.288   1.895
  870SOL    HW1 2745   3.387   0.371   1.863
  870SOL    HW2 2746   3.423   0.225   1.882
  871SOL     OW 2747   1.303   1.348   0.019
  871SOL    HW1 2748   1.253   1.429   0.030
  871SOL    HW2 2749   1.240   1.286  -0.018
  872SOL     OW 2750   3.175   3.041   0.566
  872SOL    HW1 2751   3.157   3.085   0.649
  872SOL    HW2 2752   3.134   3.097   0.500
  873SOL     OW 2753   2.569   2.746   2.238
  873SOL    HW1 2754   2.599   2.743   2.329
  873SOL    HW2 2755   2.584   2.836   2.210
  874SOL     OW 2756   2.720   1.598   0.193
  874SOL    HW1 2757   2.801   1.611   0.242
  874SOL    HW2 2758   2.737   1.523   0.137
  875SOL     OW 2759   2.881   3.842   2.333
  875SOL    HW1 2760   2.868   3.846   2.238
  875SOL    HW2 2761   2.972   3.868   2.347
  876SOL     OW 2762   0.381   1.543   3.682
  876SOL    HW1 2763   0.389   1.496   3.599
  876SOL    HW2 2764   0.298   1.513   3.719
  877SOL     OW 2765   2.923   2.786   3.242
  877SOL    HW1 2766   2.946   2.696   3.267
  877SOL    HW2 2767   3.002   2.837   3.262
  878SOL     OW 2768   0.816   2.484   2.291
  878SOL    HW1 2769   0.899   2.530   2.305
  878SOL    HW2 2770   0.807   2.426   2.366
  879SOL     OW 2771   1.150   3.951   1.663
  879SOL    HW1 2772   1.210   4.024   1.645
  879SOL    HW2 2773   1.203   3.889   1.712
  880SOL     OW 2774   1.247   1.307   0.308
  880SOL    HW1 2775   1.188   1.232   0.319
  880SOL    HW2 2776   1.250   1.322   0.213
  881SOL     OW 2777   2.938   0.115   0.250
  881SOL    HW1 2778   2.976   0.105   0.337
  881SOL    HW2 2779   3.013   0.128   0.192
  882SOL     OW 2780   2.949   1.542   3.016
  882SOL    HW1 2781   2.920   1.451   3.003
  882SOL    HW2 2782   2.913   1.567   3.101
  883SOL     OW 2783   2.498   2.891   1.807
  883SOL    HW1 2784   2.436   2.820   1.790
  883SOL    HW2 2785   2.569   2.850   1.855
  884SOL     OW 2786   3.176   0.381   1.081
  884SOL    HW1 2787   3.084   0.369   1.103
  884SOL    HW2 2788   3.179   0.373   0.985
  885SOL     OW 2789   0.349   0.603   2.239
  885SOL    HW1 2790   0.298   0.682   2.254
  885SOL    HW2 2791   0.300   0.556   2.171
  886SOL     OW 2792   1.577   2.792   1.769
  886SOL    HW1 2793   1.672   2.791   1.764
  886SOL    HW2 2794   1.555   2.732   1.841
  887SOL     OW 2795   3.017   0.652   3.367
  887SOL    HW1 2796   3.046   0.710   3.437
  887SOL    HW2 2797   3.081   0.581   3.367
  888SOL     OW 2798   2.692   2.658   2.865
  888SOL    HW1 2799   2.743   2.670   2.945
  888SOL    HW2 2800   2.679   2.746   2.831
  889SOL     OW 2801   3.226   2.089   0.574
  889SOL    HW1 2802   3.161   2.151   0.604
  889SOL    HW2 2803   3.185   2.003   0.586
  890SOL     OW 2804   2.709   1.929   1.996
  890SOL    HW1 2805   2.775   1.959   2.059
  890SOL    HW2 2806   2.687   2.007   1.945
  891SOL     OW 2807   2.022   2.601   0.194
  891SOL    HW1 2808   2.077   2.581   0.117
  891SOL    HW2 2809   1.936   2.564   0.172
  892SOL     OW 2810   0.867   3.631   3.202
  892SOL    HW1 2811   0.844   3.567   3.270
  892SOL    HW2 2812   0.804   3.615   3.132
  893SOL     OW 2813   1.156   0.011   1.020
  893SOL    HW1 2814   1.165  -0.022   0.931
  893SOL    HW2 2815   1.209   0.091   1.021
  894SOL     OW 2816   2.180   3.435   3.464
  894SOL    HW1 2817   2.089   3.432   3.434
  894SOL    HW2 2818   2.201   3.344   3.487
  895SOL     OW 2819   2.918   2.252   3.421
  895SOL    HW1 2820   2.961   2.241   3.505
  895SOL    HW2 2821   2.866   2.331   3.430
  896SOL     OW 2822   1.735   1.094   0.609
  896SOL    HW1 2823   1.654   1.119   0.654
  896SOL    HW2 2824   1.705   1.060   0.524
  897SOL     OW 2825   0.167   3.180   2.853
  897SOL    HW1 2826   0.238   3.167   2.791
  897SOL    HW2 2827   0.144   3.272   2.844
  898SOL     OW 2828   3.413   3.098   3.177
  898SOL    HW1 2829   3.408   3.143   3.093
  898SOL    HW2 2830   3.334   3.124   3.224
  899SOL     OW 2831   1.550   1.337   3.160
  899SOL    HW1 2832   1.592   1.397   3.099
  899SOL    HW2 2833   1.571   1.371   3.247
  900SOL     OW 2834   0.364   3.795   2.625
  900SOL    HW1 2835   0.432   3.831   2.568
  900SOL    HW2 2836   0.409   3.780   2.708
  901SOL     OW 2837   0.071   1.332   2.012
  901SOL    HW1 2838   0.068   1.252   1.959
  901SOL    HW2 2839   0.018   1.311   2.090
  902SOL     OW 2840   0.280   1.781   0.290
  902SOL    HW1 2841   0.252   1.854   0.345
  902SOL    HW2 2842   0.327   1.723   0.350
  903SOL     OW 2843   2.372   0.534   3.846
  903SOL    HW1 2844   2.326   0.571   3.921
  903SOL    HW2 2845   2.431   0.603   3.818
  904SOL     OW 2846   3.857   3.259   3.215
  904SOL    HW1 2847   3.822   3.174   3.187
  904SOL    HW2 2848   3.850   3.257   3.310
  905SOL     OW 2849   2.975   2.392   2.119
  905SOL    HW1 2850   3.036   2.459   2.089
  905SOL    HW2 2851   2.922   2.373   2.042
  906SOL     OW 2852   0.393   2.132   0.716
  906SOL    HW1 2853   0.431   2.180   0.643
  906SOL    HW2 2854   0.452   2.150   0.790
  907SOL     OW 2855   1.066   3.085   3.194
  907SOL    HW1 2856   1.076   3.148   3.266
  907SOL    HW2 2857   1.156   3.057   3.175
  908SOL     OW 2858   0.684   0.296   1.807
  908SOL    HW1 2859   0.777   0.276   1.799
  908SOL    HW2 2860   0.647   0.223   1.857
  909SOL     OW 2861   1.821   0.120   3.130
  909SOL    HW1 2862   1.895   0.124   3.069
  909SOL    HW2 2863   1.773   0.041   3.103
  910SOL     OW 2864   0.388   1.260   3.220
  910SOL    HW1 2865   0.427   1.250   3.307
  910SOL    HW2 2866   0.457   1.230   3.160
  911SOL     OW 2867   1.145   3.865   0.765
  911SOL    HW1 2868   1.105   3.778   0.766
  911SOL    HW2 2869   1.211   3.861   0.696
  912SOL     OW 2870   3.451   1.285   3.540
  912SOL    HW1 2871   3.393   1.299   3.465
  912SOL    HW2 2872   3.539   1.298   3.506
  913SOL     OW 2873   3.882   0.468   0.815
  913SOL    HW1 2874   3.925   0.552   0.801
  913SOL    HW2 2875   3.945   0.403   0.784
  914SOL     OW 2876   0.983   0.564   2.200
  914SOL    HW1 2877   0.992   0.646   2.249
  914SOL    HW2 2878   1.004   0.587   2.110
  915SOL     OW 2879   1.040  -0.003   2.601
  915SOL    HW1 2880   0.973   0.026   2.663
  915SOL    HW2 2881   1.094   0.074   2.587
  916SOL     OW 2882   3.330   2.749   1.440
  916SOL    HW1 2883   3.364   2.838   1.437
  916SOL    HW2 2884   3.408   2.693   1.441
  917SOL     OW 2885   2.071   3.721   3.612
  917SOL    HW1 2886   2.079   3.654   3.680
  917SOL    HW2 2887   2.161   3.744   3.590
  918SOL     OW 2888   3.391   1.367   2.430
  918SOL    HW1 2889   3.374   1.435   2.365
  918SOL    HW2 2890   3.388   1.412   2.514
  919SOL     OW 2891   1.647   1.423   3.398
  919SOL    HW1 2892   1.740   1.402   3.401
  919SOL    HW2 2893   1.608   1.372   3.468
  920SOL     OW 2894   3.132   2.522   2.696
  920SOL    HW1 2895   3.222   2.492   2.703
  920SOL    HW2 2896   3.134   2.614   2.724
  921SOL     OW 2897   2.158   0.103   0.318
  921SOL    HW1 2898   2.229   0.168   0.320
  921SOL    HW2 2899   2.201   0.022   0.290
  922SOL     OW 2900   0.267   1.763   3.858
  922SOL    HW1 2901   0.250   1.723   3.773
  922SOL    HW2 2902   0.361   1.753   3.871
  923SOL     OW 2903   3.140   2.575   0.489
  923SOL    HW1 2904   3.125   2.483   0.469
  923SOL    HW2 2905   3.067   2.601   0.544
  924SOL     OW 2906   3.163   2.305   1.644
  924SOL    HW1 2907   3.171   2.275   1.554
  924SOL    HW2 2908   3.214   2.243   1.695
  925SOL     OW 2909   0.611   1.412   1.844
  925SOL    HW1 2910   0.591   1.496   1.886
  925SOL    HW2 2911   0.537   1.356   1.867
  926SOL     OW 2912   0.038   0.707   2.024
  926SOL    HW1 2913  -0.016   0.653   1.967
  926SOL    HW2 2914  -0.012   0.714   2.106
  927SOL     OW 2915   3.366   2.628   0.114
  927SOL    HW1 2916   3.286   2.619   0.165
  927SOL    HW2 2917   3.395   2.539   0.098
  928SOL     OW 2918   3.475   2.016   2.880
  928SOL    HW1 2919   3.422   2.017   2.959
  928SOL    HW2 2920   3.557   2.060   2.905
  929SOL     OW 2921   3.110   0.144   1.906
  929SOL    HW1 2922   3.047   0.205   1.944
  929SOL    HW2 2923   3.195   0.186   1.917
  930SOL     OW 2924   0.803   2.974   3.155
  930SOL    HW1 2925   0.738   3.008   3.093
  930SOL    HW2 2926   0.885   3.014   3.127
  931SOL     OW 2927   1.998   3.746   3.279
  931SOL    HW1 2928   1.906   3.762   3.299
  931SOL    HW2 2929   2.041   3.831   3.290
  932SOL     OW 2930   3.699   3.519   1.536
  932SOL    HW1 2931   3.753   3.468   1.596
  932SOL    HW2 2932   3.761   3.578   1.492
  933SOL     OW 2933   3.918   2.244   2.177
  933SOL    HW1 2934   3.903   2.336   2.197
  933SOL    HW2 2935   3.986   2.245   2.109
  934SOL     OW 2936   2.939   2.760   0.634
  934SOL    HW1 2937   2.970   2.702   0.704
  934SOL    HW2 2938   2.893   2.830   0.680
  935SOL     OW 2939   2.860   2.761   1.156
  935SOL    HW1 2940   2.829   2.815   1.229
  935SOL    HW2 2941   2.956   2.766   1.163
  936SOL     OW 2942   1.807   1.922   3.238
  936SOL    HW1 2943   1.843   1.859   3.300
  936SOL    HW2 2944   1.850   2.004   3.259
  937SOL     OW 2945   3.108   3.475   2.612
  937SOL    HW1 2946   3.129   3.545   2.551
  937SOL    HW2 2947   3.054   3.518   2.679
  938SOL     OW 2948   0.093   0.504   1.412
  938SOL    HW1 2949   0.051   0.433   1.460
  938SOL    HW2 2950   0.105   0.469   1.323
  939SOL     OW 2951   0.305   0.147   0.729
  939SOL    HW1 2952   0.346   0.063   0.748
  939SOL    HW2 2953   0.379   0.207   0.718
  940SOL     OW 2954   0.506   1.642   0.441
  940SOL    HW1 2955   0.498   1.547   0.453
  940SOL    HW2 2956   0.490   1.679   0.528
  941SOL     OW 2957   3.197   3.857  -0.019
  941SOL    HW1 2958   3.172   3.834   0.071
  941SOL    HW2 2959   3.265   3.795  -0.041
  942SOL     OW 2960   2.340   2.023   1.698
  942SOL    HW1 2961   2.294   1.940   1.691
  942SOL    HW2 2962   2.397   2.025   1.621
  943SOL     OW 2963   2.282   3.843   0.173
  943SOL    HW1 2964   2.244   3.764   0.135
  943SOL    HW2 2965   2.362   3.859   0.123
  944SOL     OW 2966   1.403   2.228   1.606
  944SOL    HW1 2967   1.320   2.271   1.628
  944SOL    HW2 2968   1.385   2.184   1.523
  945SOL     OW 2969   2.136   2.721   1.259
  945SOL    HW1 2970   2.149   2.626   1.260
  945SOL    HW2 2971   2.127   2.743   1.166
  946SOL     OW 2972   0.175   0.092   0.159
  946SOL    HW1 2973   0.106   0.155   0.179
  946SOL    HW2 2974   0.128   0.010   0.143
  947SOL     OW 2975   1.140   2.845   3.855
  947SOL    HW1 2976   1.060   2.852   3.907
  947SOL    HW2 2977   1.207   2.886   3.910
  948SOL     OW 2978   3.251   1.485   1.204
  948SOL    HW1 2979   3.159   1.470   1.225
  948SOL    HW2 2980   3.251   1.509   1.111
  949SOL     OW 2981   2.203   1.774   1.592
  949SOL    HW1 2982   2.178   1.700   1.647
  949SOL    HW2 2983   2.164   1.755   1.507
  950SOL     OW 2984   1.349   3.166   0.854
  950SOL    HW1 2985   1.370   3.232   0.920
  950SOL    HW2 2986   1.405   3.092   0.876
  951SOL     OW 2987   0.918   1.907   1.564
  951SOL    HW1 2988   0.860   1.894   1.489
  951SOL    HW2 2989   0.928   1.820   1.602
  952SOL     OW 2990   0.124   1.643   0.142
  952SOL    HW1 2991   0.155   1.629   0.053
  952SOL    HW2 2992   0.183   1.709   0.177
  953SOL     OW 2993   2.822   0.433   1.217
  953SOL    HW1 2994   2.801   0.526   1.209
  953SOL    HW2 2995   2.779   0.405   1.298
  954SOL     OW 2996   2.443   3.001   2.354
  954SOL    HW1 2997   2.492   2.955   2.422
  954SOL    HW2 2998   2.390   3.065   2.401
  955SOL     OW 2999   3.519   2.406   0.143
  955SOL    HW1 3000   3.521   2.379   0.051
  955SOL    HW2 3001   3.578   2.481   0.147
  956SOL     OW 3002   0.287   3.751   1.978
  956SOL    HW1 3003   0.359   3.724   1.922
  956SOL    HW2 3004   0.312   3.723   2.066
  957SOL     OW 3005   1.338   2.229   1.908
  957SOL    HW1 3006   1.353   2.269   1.822
  957SOL    HW2 3007   1.373   2.293   1.970
  958SOL     OW 3008   3.507   0.059   0.624
  958SOL    HW1 3009   3.577  -0.001   0.600
  958SOL    HW2 3010   3.535   0.096   0.708
  959SOL     OW 3011   2.009   0.211   2.924
  959SOL    HW1 3012   2.083   0.271   2.918
  959SOL    HW2 3013   2.015   0.157   2.845
  960SOL     OW 3014   2.230   0.874   0.649
  960SOL    HW1 3015   2.292   0.944   0.627
  960SOL    HW2 3016   2.145   0.918   0.653
  961SOL     OW 3017   1.554   1.693   2.393
  961SOL    HW1 3018   1.584   1.722   2.479
  961SOL    HW2 3019   1.469   1.652   2.410
  962SOL     OW 3020   3.439   2.361   1.563
  962SOL    HW1 3021   3.429   2.322   1.476
  962SOL    HW2 3022   3.386   2.305   1.620
  963SOL     OW 3023   2.857   1.279   2.913
  963SOL    HW1 3024   2.765   1.257   2.923
  963SOL    HW2 3025   2.874   1.269   2.819
  964SOL     OW 3026   0.632   0.807   2.632
  964SOL    HW1 3027   0.648   0.825   2.725
  964SOL    HW2 3028   0.719   0.791   2.596
  965SOL     OW 3029   1.785   2.188   0.654
  965SOL    HW1 3030   1.840   2.236   0.591
  965SOL    HW2 3031   1.722   2.141   0.599
  966SOL     OW 3032   2.375   3.118   0.406
  966SOL    HW1 3033   2.372   3.173   0.484
  966SOL    HW2 3034   2.446   3.056   0.422
  967SOL     OW 3035   0.345   0.659   3.867
  967SOL    HW1 3036   0.308   0.583   3.821
  967SOL    HW2 3037   0.388   0.622   3.944
  968SOL     OW 3038   3.135   3.914   3.117
  968SOL    HW1 3039   3.151   3.849   3.185
  968SOL    HW2 3040   3.045   3.898   3.088
  969SOL     OW 3041   0.313   2.957   1.643
  969SOL    HW1 3042   0.330   2.870   1.679
  969SOL    HW2 3043   0.377   3.014   1.686
  970SOL     OW 3044   3.769   3.004   3.137
  970SOL    HW1 3045   3.709   3.036   3.069
  970SOL    HW2 3046   3.728   2.924   3.169
  971SOL     OW 3047   0.258   3.204   0.478
  971SOL    HW1 3048   0.186   3.219   0.540
  971SOL    HW2 3049   0.314   3.141   0.522
  972SOL     OW 3050   2.961   1.434   2.581
  972SOL    HW1 3051   2.870   1.461   2.567
  972SOL    HW2 3052   2.957   1.340   2.595
  973SOL     OW 3053   3.204   1.893   1.362
  973SOL    HW1 3054   3.265   1.832   1.404
  973SOL    HW2 3055   3.180   1.851   1.280
  974SOL     OW 3056   1.410   3.896   1.818
  974SOL    HW1 3057   1.384   3.807   1.843
  974SOL    HW2 3058   1.500   3.904   1.849
  975SOL     OW 3059   2.869   2.272   0.951
  975SOL    HW1 3060   2.779   2.288   0.922
  975SOL    HW2 3061   2.890   2.186   0.914
  976SOL     OW 3062   3.971   2.631   2.813
  976SOL    HW1 3063   3.959   2.606   2.905
  976SOL    HW2 3064   3.935   2.720   2.807
  977SOL     OW 3065   1.291   1.882   0.242
  977SOL    HW1 3066   1.207   1.845   0.270
  977SOL    HW2 3067   1.334   1.809   0.197
  978SOL     OW 3068   0.597   1.321   0.910
  978SOL    HW1 3069   0.503   1.302   0.902
  978SOL    HW2 3070   0.633   1.246   0.956
  979SOL     OW 3071   1.508   2.917   3.901
  979SOL    HW1 3072   1.560   2.995   3.919
  979SOL    HW2 3073   1.485   2.925   3.809
  980SOL     OW 3074   0.484   2.746   1.161
  980SOL    HW1 3075   0.426   2.674   1.136
  980SOL    HW2 3076   0.525   2.717   1.242
  981SOL     OW 3077   0.075   1.656   1.273
  981SOL    HW1 3078   0.061   1.722   1.341
  981SOL    HW2 3079   0.061   1.703   1.191
  982SOL     OW 3080   2.613   1.206   3.614
  982SOL    HW1 3081   2.690   1.169   3.569
  982SOL    HW2 3082   2.582   1.275   3.555
  983SOL     OW 3083   3.825   1.739   0.969
  983SOL    HW1 3084   3.791   1.686   0.897
  983SOL    HW2 3085   3.914   1.763   0.942
  984SOL     OW 3086   3.009   3.609   3.949
  984SOL    HW1 3087   2.946   3.587   4.018
  984SOL    HW2 3088   2.954   3.631   3.873
  985SOL     OW 3089   0.676   3.632   3.001
  985SOL    HW1 3090   0.592   3.660   2.965
  985SOL    HW2 3091   0.720   3.589   2.927
  986SOL     OW 3092   0.801   3.204   1.901
  986SOL    HW1 3093   0.741   3.221   1.975
  986SOL    HW2 3094   0.865   3.141   1.936
  987SOL     OW 3095   2.947   1.486   0.315
  987SOL    HW1 3096   2.874   1.425   0.313
  987SOL    HW2 3097   3.025   1.431   0.311
  988SOL     OW 3098   3.377   3.480   3.703
  988SOL    HW1 3099   3.297   3.466   3.753
  988SOL    HW2 3100   3.393   3.397   3.658
  989SOL     OW 3101   2.210   1.281   3.477
  989SOL    HW1 3102   2.194   1.268   3.571
  989SOL    HW2 3103   2.300   1.253   3.464
  990SOL     OW 3104   0.619   3.955   0.393
  990SOL    HW1 3105   0.561   3.974   0.319
  990SOL    HW2 3106   0.624   3.859   0.395
  991SOL     OW 3107   3.662   0.142   0.346
  991SOL    HW1 3108   3.569   0.126   0.362
  991SOL    HW2 3109   3.665   0.181   0.259
  992SOL     OW 3110   3.507   3.700   0.897
  992SOL    HW1 3111   3.437   3.683   0.961
  992SOL    HW2 3112   3.587   3.700   0.949
  993SOL     OW 3113   2.568   3.364   3.158
  993SOL    HW1 3114   2.523   3.415   3.225
  993SOL    HW2 3115   2.655   3.348   3.193
  994SOL     OW 3116   1.590   0.413   2.832
  994SOL    HW1 3117   1.646   0.375   2.764
  994SOL    HW2 3118   1.602   0.508   2.821
  995SOL     OW 3119   1.501   2.602   2.730
  995SOL    HW1 3120   1.528   2.587   2.640
  995SOL    HW2 3121   1.406   2.613   2.725
  996SOL     OW 3122   3.908   3.574   0.284
  996SOL    HW1 3123   3.821   3.614   0.290
  996SOL    HW2 3124   3.941   3.575   0.374
  997SOL     OW 3125   2.932   1.730   2.649
  997SOL    HW1 3126   2.851   1.726   2.598
  997SOL    HW2 3127   2.903   1.744   2.739
  998SOL     OW 3128   3.270   3.282   2.813
  998SOL    HW1 3129   3.290   3.350   2.749
  998SOL    HW2 3130   3.289   3.322   2.898
  999SOL     OW 3131   3.455   3.858   2.692
  999SOL    HW1 3132   3.529   3.859   2.752
  999SOL    HW2 3133   3.473   3.928   2.629
 1000SOL     OW 3134   3.206   3.651   1.954
 1000SOL    HW1 3135   3.252   3.570   1.930
 1000SOL    HW2 3136   3.269   3.721   1.934
 1001SOL     OW 3137   3.676   1.385   2.493
 1001SOL    HW1 3138   3.623   1.337   2.429
 1001SOL    HW2 3139   3.635   1.365   2.578
 1002SOL     OW 3140   1.151   3.623   3.319
 1002SOL    HW1 3141   1.056   3.616   3.309
 1002SOL    HW2 3142   1.170   3.580   3.403
 1003SOL     OW 3143   0.654   0.609   0.833
 1003SOL    HW1 3144   0.650   0.703   0.821
 1003SOL    HW2 3145   0.746   0.590   0.849
 1004SOL     OW 3146   2.892   3.486   2.323
 1004SOL    HW1 3147   2.953   3.544   2.279
 1004SOL    HW2 3148   2.860   3.537   2.398
 1005SOL     OW 3149   2.095   2.541   2.886
 1005SOL    HW1 3150   2.140   2.549   2.802
 1005SOL    HW2 3151   2.098   2.629   2.923
 1006SOL     OW 3152   3.589   1.409   0.090
 1006SOL    HW1 3153   3.624   1.349   0.025
 1006SOL    HW2 3154   3.500   1.378   0.106
 1007SOL     OW 3155   3.502   0.320   3.414
 1007SOL    HW1 3156   3.452   0.399   3.395
 1007SOL    HW2 3157   3.474   0.294   3.502
 1008SOL     OW 3158   1.865   1.871   2.252
 1008SOL    HW1 3159   1.956   1.847   2.270
 1008SOL    HW2 3160   1.870   1.926   2.173
 1009SOL     OW 3161   2.691   1.639   3.204
 1009SOL    HW1 3162   2.776   1.677   3.227
 1009SOL    HW2 3163   2.708   1.544   3.204
 1010SOL     OW 3164   0.626   3.844   1.137
 1010SOL    HW1 3165   0.672   3.927   1.146
 1010SOL    HW2 3166   0.644   3.797   1.218
 1011SOL     OW 3167   3.367   3.229   3.609
 1011SOL    HW1 3168   3.339   3.143   3.640
 1011SOL    HW2 3169   3.428   3.210   3.539
 1012SOL     OW 3170   3.071   3.806   0.331
 1012SOL    HW1 3171   3.104   3.726   0.291
 1012SOL    HW2 3172   2.976   3.799   0.325
 1013SOL     OW 3173   1.260   3.549   0.486
 1013SOL    HW1 3174   1.211   3.519   0.562
 1013SOL    HW2 3175   1.320   3.478   0.466
 1014SOL     OW 3176   0.549   1.529   1.116
 1014SOL    HW1 3177   0.644   1.524   1.106
 1014SOL    HW2 3178   0.515   1.457   1.062
 1015SOL     OW 3179   2.544   0.356   0.831
 1015SOL    HW1 3180   2.574   0.265   0.830
 1015SOL    HW2 3181   2.621   0.407   0.857
 1016SOL     OW 3182   2.127   2.665   3.868
 1016SOL    HW1 3183   2.178   2.741   3.840
 1016SOL    HW2 3184   2.123   2.609   3.791
 1017SOL     OW 3185   3.247   2.925   2.533
 1017SOL    HW1 3186   3.245   2.843   2.582
 1017SOL    HW2 3187   3.170   2.922   2.477
 1018SOL     OW 3188   2.777   0.068   3.361
 1018SOL    HW1 3189   2.791   0.057   3.267
 1018SOL    HW2 3190   2.863   0.049   3.400
 1019SOL     OW 3191   3.466   0.014   1.650
 1019SOL    HW1 3192   3.465   0.065   1.569
 1019SOL    HW2 3193   3.505  -0.069   1.626
 1020SOL     OW 3194   1.045   3.938   3.584
 1020SOL    HW1 3195   0.985   3.876   3.542
 1020SOL    HW2 3196   0.988   4.009   3.615
 1021SOL     OW 3197   1.922   0.073   0.933
 1021SOL    HW1 3198   1.858   0.111   0.874
 1021SOL    HW2 3199   1.869   0.027   0.999
 1022SOL     OW 3200   1.245   2.606   2.721
 1022SOL    HW1 3201   1.207   2.531   2.675
 1022SOL    HW2 3202   1.206   2.603   2.808
 1023SOL     OW 3203   2.300   0.292   1.883
 1023SOL    HW1 3204   2.258   0.285   1.797
 1023SOL    HW2 3205   2.363   0.220   1.885
 1024SOL     OW 3206   1.876   3.659   0.040
 1024SOL    HW1 3207   1.886   3.753   0.052
 1024SOL    HW2 3208   1.785   3.641   0.064
 1025SOL     OW 3209   2.136   0.826   2.565
 1025SOL    HW1 3210   2.082   0.892   2.521
 1025SOL    HW2 3211   2.217   0.871   2.587
 1026SOL     OW 3212   1.255   3.953   3.313
 1026SOL    HW1 3213   1.203   3.884   3.355
 1026SOL    HW2 3214   1.222   4.034   3.352
 1027SOL     OW 3215   3.410   3.400   1.357
 1027SOL    HW1 3216   3.472   3.421   1.427
 1027SOL    HW2 3217   3.378   3.485   1.327
 1028SOL     OW 3218   1.463   2.975   2.104
 1028SOL    HW1 3219   1.425   2.956   2.018
 1028SOL    HW2 3220   1.510   3.058   2.091
 1029SOL     OW 3221   1.794   2.243   0.944
 1029SOL    HW1 3222   1.888   2.256   0.952
 1029SOL    HW2 3223   1.775   2.258   0.851
 1030SOL     OW 3224   0.113   0.191   2.727
 1030SOL    HW1 3225   0.047   0.156   2.668
 1030SOL    HW2 3226   0.196   0.171   2.684
 1031SOL     OW 3227   1.485   1.413   2.025
 1031SOL    HW1 3228   1.558   1.401   1.964
 1031SOL    HW2 3229   1.527   1.426   2.110
 1032SOL     OW 3230   1.903   3.521   3.467
 1032SOL    HW1 3231   1.880   3.492   3.555
 1032SOL    HW2 3232   1.923   3.614   3.477
 1033SOL     OW 3233   0.195   2.872   3.404
 1033SOL    HW1 3234   0.289   2.860   3.398
 1033SOL    HW2 3235   0.172   2.923   3.326
 1034SOL     OW 3236   2.161   3.048   1.701
 1034SOL    HW1 3237   2.223   3.016   1.636
 1034SOL    HW2 3238   2.092   3.090   1.650
 1035SOL     OW 3239   3.925   1.839   1.447
 1035SOL    HW1 3240   3.889   1.911   1.396
 1035SOL    HW2 3241   3.849   1.786   1.471
 1036SOL     OW 3242   0.649   0.428   1.555
 1036SOL    HW1 3243   0.683   0.516   1.541
 1036SOL    HW2 3244   0.686   0.401   1.640
 1037SOL     OW 3245   1.043   2.605   1.105
 1037SOL    HW1 3246   1.060   2.628   1.014
 1037SOL    HW2 3247   1.130   2.590   1.142
 1038SOL     OW 3248   2.689   2.343   3.094
 1038SOL    HW1 3249   2.624   2.272   3.101
 1038SOL    HW2 3250   2.642   2.421   3.124
 1039SOL     OW 3251   0.812   1.834   3.764
 1039SOL    HW1 3252   0.901   1.863   3.745
 1039SOL    HW2 3253   0.772   1.824   3.677
 1040SOL     OW 3254   1.755   3.320   2.308
 1040SOL    HW1 3255   1.667   3.287   2.324
 1040SOL    HW2 3256   1.783   3.278   2.227
 1041SOL     OW 3257   0.703   2.271   2.456
 1041SOL    HW1 3258   0.782   2.230   2.421
 1041SOL    HW2 3259   0.653   2.198   2.493
 1042SOL     OW 3260   2.052   1.671   0.816
 1042SOL    HW1 3261   2.033   1.619   0.893
 1042SOL    HW2 3262   2.036   1.762   0.843
 1043SOL     OW 3263   2.079   2.821   2.031
 1043SOL    HW1 3264   2.137   2.818   2.108
 1043SOL    HW2 3265   2.056   2.913   2.022
 1044SOL     OW 3266  -0.024   2.682   3.426
 1044SOL    HW1 3267   0.015   2.633   3.498
 1044SOL    HW2 3268   0.032   2.758   3.415
 1045SOL     OW 3269   1.610   3.264   1.990
 1045SOL    HW1 3270   1.545   3.282   1.922
 1045SOL    HW2 3271   1.570   3.296   2.071
 1046SOL     OW 3272   3.513   0.124   2.536
 1046SOL    HW1 3273   3.573   0.151   2.605
 1046SOL    HW2 3274   3.544   0.169   2.457
 1047SOL     OW 3275   0.412  -0.024   1.653
 1047SOL    HW1 3276   0.400   0.070   1.669
 1047SOL    HW2 3277   0.386  -0.035   1.561
 1048SOL     OW 3278   3.346   0.204   3.651
 1048SOL    HW1 3279   3.314   0.286   3.689
 1048SOL    HW2 3280   3.269   0.146   3.651
 1049SOL     OW 3281   2.665   0.842   3.932
 1049SOL    HW1 3282   2.654   0.807   3.843
 1049SOL    HW2 3283   2.719   0.776   3.976
 1050SOL     OW 3284   0.944   2.438   0.014
 1050SOL    HW1 3285   1.026   2.483  -0.007
 1050SOL    HW2 3286   0.970   2.363   0.067
 1051SOL     OW 3287   3.599   3.024   0.020
 1051SOL    HW1 3288   3.574   3.117   0.020
 1051SOL    HW2 3289   3.543   2.985   0.087
 1052SOL     OW 3290   2.432   2.076   1.457
 1052SOL    HW1 3291   2.433   2.046   1.366
 1052SOL    HW2 3292   2.477   2.160   1.456
 1053SOL     OW 3293   3.773   1.447   3.703
 1053SOL    HW1 3294   3.718   1.375   3.734
 1053SOL    HW2 3295   3.813   1.483   3.782
 1054SOL     OW 3296   1.790   0.775   0.158
 1054SOL    HW1 3297   1.850   0.744   0.226
 1054SOL    HW2 3298   1.840   0.841   0.110
 1055SOL     OW 3299   1.870   1.590   2.820
 1055SOL    HW1 3300   1.809   1.661   2.841
 1055SOL    HW2 3301   1.956   1.630   2.830
 1056SOL     OW 3302   3.800   0.679   1.539
 1056SOL    HW1 3303   3.873   0.717   1.588
 1056SOL    HW2 3304   3.840   0.651   1.456
 1057SOL     OW 3305   1.491   2.463   3.192
 1057SOL    HW1 3306   1.522   2.509   3.114
 1057SOL    HW2 3307   1.427   2.400   3.158
 1058SOL     OW 3308   1.295   2.928   0.107
 1058SOL    HW1 3309   1.320   2.942   0.198
 1058SOL    HW2 3310   1.378   2.928   0.059
 1059SOL     OW 3311   2.102   0.047   1.932
 1059SOL    HW1 3312   2.187   0.021   1.966
 1059SOL    HW2 3313   2.094   0.139   1.956
 1060SOL     OW 3314   0.590   1.421   1.538
 1060SOL    HW1 3315   0.644   1.379   1.605
 1060SOL    HW2 3316   0.505   1.434   1.580
 1061SOL     OW 3317   1.117   0.733   0.504
 1061SOL    HW1 3318   1.176   0.807   0.491
 1061SOL    HW2 3319   1.033   0.763   0.467
 1062SOL     OW 3320   3.434   1.850   3.568
 1062SOL    HW1 3321   3.442   1.876   3.660
 1062SOL    HW2 3322   3.507   1.790   3.554
 1063SOL     OW 3323   1.714   2.251   1.528
 1063SOL    HW1 3324   1.658   2.217   1.599
 1063SOL    HW2 3325   1.803   2.233   1.558
 1064SOL     OW 3326   1.930   1.147   1.449
 1064SOL    HW1 3327   1.907   1.125   1.359
 1064SOL    HW2 3328   1.936   1.243   1.450
 1065SOL     OW 3329   0.971   0.359   1.389
 1065SOL    HW1 3330   0.919   0.397   1.318
 1065SOL    HW2 3331   0.963   0.264   1.375
 1066SOL     OW 3332   0.314   0.213   1.735
 1066SOL    HW1 3333   0.254   0.202   1.808
 1066SOL    HW2 3334   0.387   0.263   1.772
 1067SOL     OW 3335   3.184   2.106   3.911
 1067SOL    HW1 3336   3.088   2.109   3.907
 1067SOL    HW2 3337   3.203   2.053   3.988
 1068SOL     OW 3338   2.764   2.944   2.821
 1068SOL    HW1 3339   2.810   2.920   2.741
 1068SOL    HW2 3340   2.794   3.033   2.840
 1069SOL     OW 3341   2.085   2.954   3.205
 1069SOL    HW1 3342   2.127   2.974   3.121
 1069SOL    HW2 3343   2.095   3.034   3.257
 1070SOL     OW 3344   0.262   0.930   1.620
 1070SOL    HW1 3345   0.261   0.836   1.602
 1070SOL    HW2 3346   0.254   0.936   1.716
 1071SOL     OW 3347   3.214   1.624   0.169
 1071SOL    HW1 3348   3.145   1.663   0.222
 1071SOL    HW2 3349   3.237   1.692   0.105
 1072SOL     OW 3350   0.355   3.221   3.931
 1072SOL    HW1 3351   0.337   3.249   4.021
 1072SOL    HW2 3352   0.427   3.277   3.902
 1073SOL     OW 3353   2.581   1.758   2.147
 1073SOL    HW1 3354   2.621   1.804   2.073
 1073SOL    HW2 3355   2.633   1.784   2.223
 1074SOL     OW 3356   2.901   1.953   0.230
 1074SOL    HW1 3357   2.812   1.964   0.197
 1074SOL    HW2 3358   2.900   1.993   0.317
 1075SOL     OW 3359   0.675   1.231   2.455
 1075SOL    HW1 3360   0.690   1.323   2.478
 1075SOL    HW2 3361   0.695   1.225   2.362
 1076SOL     OW 3362   2.689   0.282  -0.016
 1076SOL    HW1 3363   2.718   0.319   0.067
 1076SOL    HW2 3364   2.647   0.199   0.008
 1077SOL     OW 3365   0.149   0.585   2.823
 1077SOL    HW1 3366   0.235   0.547   2.839
 1077SOL    HW2 3367   0.089   0.532   2.875
 1078SOL     OW 3368   0.415   1.603   0.866
 1078SOL    HW1 3369   0.477   1.583   0.936
 1078SOL    HW2 3370   0.469   1.636   0.794
 1079SOL     OW 3371   3.903   3.113   2.767
 1079SOL    HW1 3372   3.833   3.121   2.833
 1079SOL    HW2 3373   3.984   3.123   2.817
 1080SOL     OW 3374   2.118   2.194   0.950
 1080SOL    HW1 3375   2.180   2.144   0.897
 1080SOL    HW2 3376   2.132   2.162   1.039
 1081SOL     OW 3377  -0.016   3.600   1.793
 1081SOL    HW1 3378   0.026   3.577   1.876
 1081SOL    HW2 3379   0.011   3.531   1.732
 1082SOL     OW 3380   1.806   1.866   1.420
 1082SOL    HW1 3381   1.728   1.842   1.369
 1082SOL    HW2 3382   1.782   1.846   1.510
 1083SOL     OW 3383   0.342   2.583   3.544
 1083SOL    HW1 3384   0.264   2.558   3.593
 1083SOL    HW2 3385   0.404   2.512   3.559
 1084SOL     OW 3386   0.953   1.418   1.421
 1084SOL    HW1 3387   0.872   1.386   1.461
 1084SOL    HW2 3388   1.013   1.430   1.495
 1085SOL     OW 3389   0.058   3.626   3.420
 1085SOL    HW1 3390  -0.018   3.640   3.477
 1085SOL    HW2 3391   0.023   3.638   3.331
 1086SOL     OW 3392   3.845   1.693   2.576
 1086SOL    HW1 3393   3.771   1.632   2.585
 1086SOL    HW2 3394   3.816   1.772   2.621
 1087SOL     OW 3395   1.246   0.220   3.973
 1087SOL    HW1 3396   1.284   0.304   4.001
 1087SOL    HW2 3397   1.206   0.239   3.888
 1088SOL     OW 3398   3.391   3.206   0.726
 1088SOL    HW1 3399   3.345   3.165   0.799
 1088SOL    HW2 3400   3.424   3.134   0.674
 1089SOL     OW 3401   0.987   0.186   0.151
 1089SOL    HW1 3402   1.070   0.196   0.105
 1089SOL    HW2 3403   1.007   0.210   0.242
 1090SOL     OW 3404   3.280   0.426   0.436
 1090SOL    HW1 3405   3.304   0.340   0.402
 1090SOL    HW2 3406   3.287   0.417   0.531
 1091SOL     OW 3407   3.170   0.862   3.483
 1091SOL    HW1 3408   3.213   0.858   3.397
 1091SOL    HW2 3409   3.149   0.955   3.494
 1092SOL     OW 3410   3.376   2.402   2.736
 1092SOL    HW1 3411   3.417   2.316   2.749
 1092SOL    HW2 3412   3.444   2.465   2.760
 1093SOL     OW 3413   2.170   3.124   2.761
 1093SOL    HW1 3414   2.206   3.039   2.736
 1093SOL    HW2 3415   2.078   3.108   2.779
 1094SOL     OW 3416   1.997   1.049   3.465
 1094SOL    HW1 3417   2.053   0.991   3.413
 1094SOL    HW2 3418   1.986   1.004   3.548
 1095SOL     OW 3419   2.227   0.503   2.033
 1095SOL    HW1 3420   2.288   0.443   1.992
 1095SOL    HW2 3421   2.224   0.579   1.974
 1096SOL     OW 3422   1.204   0.397   3.200
 1096SOL    HW1 3423   1.274   0.347   3.158
 1096SOL    HW2 3424   1.204   0.366   3.290
 1097SOL     OW 3425   2.355   2.010   2.003
 1097SOL    HW1 3426   2.432   2.040   2.050
 1097SOL    HW2 3427   2.372   2.031   1.912
 1098SOL     OW 3428   2.161   2.164   3.146
 1098SOL    HW1 3429   2.138   2.121   3.229
 1098SOL    HW2 3430   2.142   2.098   3.079
 1099SOL     OW 3431   0.704   0.883   2.982
 1099SOL    HW1 3432   0.644   0.815   3.013
 1099SOL    HW2 3433   0.791   0.854   3.008
 1100SOL     OW 3434   2.267   3.779   1.032
 1100SOL    HW1 3435   2.283   3.688   1.058
 1100SOL    HW2 3436   2.187   3.804   1.078
 1101SOL     OW 3437   1.915   0.023   0.392
 1101SOL    HW1 3438   2.004   0.056   0.386
 1101SOL    HW2 3439   1.861   0.100   0.403
 1102SOL     OW 3440   0.804   0.951   0.126
 1102SOL    HW1 3441   0.849   0.901   0.194
 1102SOL    HW2 3442   0.869   0.964   0.057
 1103SOL     OW 3443   3.020   0.313   3.062
 1103SOL    HW1 3444   2.946   0.253   3.074
 1103SOL    HW2 3445   3.070   0.307   3.143
 1104SOL     OW 3446   2.974   2.465   1.757
 1104SOL    HW1 3447   3.028   2.401   1.710
 1104SOL    HW2 3448   2.904   2.414   1.797
 1105SOL     OW 3449   1.480   0.904   3.020
 1105SOL    HW1 3450   1.572   0.903   3.047
 1105SOL    HW2 3451   1.468   0.991   2.981
 1106SOL     OW 3452   1.858   3.499   0.353
 1106SOL    HW1 3453   1.806   3.578   0.338
 1106SOL    HW2 3454   1.942   3.531   0.386
 1107SOL     OW 3455   2.891   2.927   1.647
 1107SOL    HW1 3456   2.966   2.986   1.649
 1107SOL    HW2 3457   2.820   2.978   1.687
 1108SOL     OW 3458   0.975   1.467   0.533
 1108SOL    HW1 3459   0.928   1.441   0.612
 1108SOL    HW2 3460   0.941   1.410   0.465
 1109SOL     OW 3461   3.406   2.112   3.452
 1109SOL    HW1 3462   3.370   2.168   3.521
 1109SOL    HW2 3463   3.429   2.031   3.497
 1110SOL     OW 3464   3.635   2.770   0.817
 1110SOL    HW1 3465   3.679   2.856   0.814
 1110SOL    HW2 3466   3.706   2.708   0.833
 1111SOL     OW 3467   2.331   1.738   1.987
 1111SOL    HW1 3468   2.373   1.696   2.062
 1111SOL    HW2 3469   2.351   1.831   1.997
 1112SOL     OW 3470   3.459   2.878   0.212
 1112SOL    HW1 3471   3.473   2.851   0.302
 1112SOL    HW2 3472   3.436   2.798   0.165
 1113SOL     OW 3473   3.111   3.213   2.539
 1113SOL    HW1 3474   3.074   3.294   2.573
 1113SOL    HW2 3475   3.203   3.233   2.522
 1114SOL     OW 3476   1.982   3.226   1.608
 1114SOL    HW1 3477   1.945   3.179   1.534
 1114SOL    HW2 3478   1.907   3.260   1.656
 1115SOL     OW 3479   2.416   1.259   0.177
 1115SOL    HW1 3480   2.436   1.204   0.101
 1115SOL    HW2 3481   2.499   1.269   0.222
 1116SOL     OW 3482   2.576   3.214   1.384
 1116SOL    HW1 3483   2.633   3.244   1.455
 1116SOL    HW2 3484   2.525   3.143   1.422
 1117SOL     OW 3485   2.905   3.661   3.704
 1117SOL    HW1 3486   2.822   3.697   3.675
 1117SOL    HW2 3487   2.909   3.575   3.663
 1118SOL     OW 3488   2.138   1.226   3.766
 1118SOL    HW1 3489   2.148   1.134   3.788
 1118SOL    HW2 3490   2.147   1.272   3.850
 1119SOL     OW 3491   1.996   1.957   0.831
 1119SOL    HW1 3492   2.024   2.043   0.863
 1119SOL    HW2 3493   2.016   1.959   0.737
 1120SOL     OW 3494   2.596   0.977   2.399
 1120SOL    HW1 3495   2.513   0.937   2.375
 1120SOL    HW2 3496   2.656   0.903   2.410
 1121SOL     OW 3497   3.412   3.136   2.375
 1121SOL    HW1 3498   3.430   3.058   2.428
 1121SOL    HW2 3499   3.494   3.152   2.328
 1122SOL     OW 3500   1.947   2.275   0.436
 1122SOL    HW1 3501   1.873   2.317   0.393
 1122SOL    HW2 3502   1.983   2.216   0.369
 1123SOL     OW 3503   3.353   2.398   1.176
 1123SOL    HW1 3504   3.304   2.345   1.239
 1123SOL    HW2 3505   3.326   2.488   1.194
 1124SOL     OW 3506   0.816   1.993   2.650
 1124SOL    HW1 3507   0.815   1.910   2.602
 1124SOL    HW2 3508   0.730   1.997   2.693
 1125SOL     OW 3509   1.378   0.905   1.432
 1125SOL    HW1 3510   1.353   0.896   1.340
 1125SOL    HW2 3511   1.452   0.845   1.442
 1126SOL     OW 3512   0.468   0.993   2.513
 1126SOL    HW1 3513   0.549   0.945   2.532
 1126SOL    HW2 3514   0.470   1.068   2.572
 1127SOL     OW 3515   3.647   0.157   3.215
 1127SOL    HW1 3516   3.617   0.208   3.290
 1127SOL    HW2 3517   3.599   0.193   3.141
 1128SOL     OW 3518   3.694   1.620   0.759
 1128SOL    HW1 3519   3.619   1.672   0.787
 1128SOL    HW2 3520   3.719   1.657   0.674
 1129SOL     OW 3521   2.634   2.543   0.506
 1129SOL    HW1 3522   2.710   2.487   0.523
 1129SOL    HW2 3523   2.610   2.577   0.593
 1130SOL     OW 3524   1.027   3.706   1.895
 1130SOL    HW1 3525   0.984   3.702   1.809
 1130SOL    HW2 3526   1.043   3.799   1.909
 1131SOL     OW 3527   1.350   2.623   0.420
 1131SOL    HW1 3528   1.261   2.598   0.395
 1131SOL    HW2 3529   1.402   2.544   0.408
 1132SOL     OW 3530   0.940   0.653   0.950
 1132SOL    HW1 3531   0.967   0.586   0.887
 1132SOL    HW2 3532   0.985   0.733   0.921
 1133SOL     OW 3533   0.268   1.388   3.456
 1133SOL    HW1 3534   0.208   1.315   3.470
 1133SOL    HW2 3535   0.351   1.347   3.433
 1134SOL     OW 3536   0.756   1.202   1.104
 1134SOL    HW1 3537   0.844   1.165   1.098
 1134SOL    HW2 3538   0.734   1.195   1.197
 1135SOL     OW 3539   0.800   1.600   3.037
 1135SOL    HW1 3540   0.833   1.680   2.996
 1135SOL    HW2 3541   0.858   1.531   3.006
 1136SOL     OW 3542   2.941   2.275   2.728
 1136SOL    HW1 3543   2.858   2.304   2.766
 1136SOL    HW2 3544   2.992   2.356   2.718
 1137SOL     OW 3545   3.760   1.683   1.618
 1137SOL    HW1 3546   3.749   1.719   1.706
 1137SOL    HW2 3547   3.820   1.609   1.629
 1138SOL     OW 3548   0.565   3.101   2.485
 1138SOL    HW1 3549   0.521   3.017   2.468
 1138SOL    HW2 3550   0.652   3.077   2.516
 1139SOL     OW 3551   1.628   3.534   0.121
 1139SOL    HW1 3552   1.589   3.619   0.140
 1139SOL    HW2 3553   1.631   3.489   0.206
 1140SOL     OW 3554   3.871   2.295   1.658
 1140SOL    HW1 3555   3.794   2.238   1.652
 1140SOL    HW2 3556   3.939   2.240   1.696
 1141SOL     OW 3557   2.577   0.690   3.713
 1141SOL    HW1 3558   2.577   0.717   3.622
 1141SOL    HW2 3559   2.645   0.622   3.718
 1142SOL     OW 3560   2.254   0.428   3.050
 1142SOL    HW1 3561   2.345   0.406   3.071
 1142SOL    HW2 3562   2.246   0.407   2.957
 1143SOL     OW 3563   3.300   0.459   3.769
 1143SOL    HW1 3564   3.261   0.535   3.725
 1143SOL    HW2 3565   3.322   0.489   3.857
 1144SOL     OW 3566   3.072   0.166   3.568
 1144SOL    HW1 3567   3.036   0.139   3.653
 1144SOL    HW2 3568   3.044   0.098   3.507
 1145SOL     OW 3569   3.110   0.788   0.548
 1145SOL    HW1 3570   3.173   0.814   0.615
 1145SOL    HW2 3571   3.066   0.711   0.584
 1146SOL     OW 3572   2.213   1.390   1.580
 1146SOL    HW1 3573   2.266   1.420   1.506
 1146SOL    HW2 3574   2.265   1.412   1.657
 1147SOL     OW 3575   2.199   0.289   2.370
 1147SOL    HW1 3576   2.157   0.374   2.359
 1147SOL    HW2 3577   2.217   0.259   2.282
 1148SOL     OW 3578   2.809   2.300   3.901
 1148SOL    HW1 3579   2.835   2.216   3.938
 1148SOL    HW2 3580   2.802   2.283   3.807
 1149SOL     OW 3581   3.110   0.952   0.119
 1149SOL    HW1 3582   3.027   0.968   0.074
 1149SOL    HW2 3583   3.090   0.882   0.182
 1150SOL     OW 3584   3.156   0.361   0.814
 1150SOL    HW1 3585   3.214   0.413   0.759
 1150SOL    HW2 3586   3.192   0.273   0.811
 1151SOL     OW 3587   1.883   3.160   2.120
 1151SOL    HW1 3588   1.969   3.200   2.102
 1151SOL    HW2 3589   1.858   3.121   2.036
 1152SOL     OW 3590   0.490   1.013   0.090
 1152SOL    HW1 3591   0.539   0.934   0.111
 1152SOL    HW2 3592   0.496   1.067   0.169
 1153SOL     OW 3593   2.276   3.071   3.039
 1153SOL    HW1 3594   2.308   3.054   2.951
 1153SOL    HW2 3595   2.237   3.158   3.034
 1154SOL     OW 3596   1.244   1.708   3.013
 1154SOL    HW1 3597   1.290   1.646   3.069
 1154SOL    HW2 3598   1.217   1.778   3.071
 1155SOL     OW 3599   0.822   0.545   2.503
 1155SOL    HW1 3600   0.837   0.613   2.568
 1155SOL    HW2 3601   0.728   0.526   2.510
 1156SOL     OW 3602   2.919   3.661   3.326
 1156SOL    HW1 3603   3.009   3.650   3.296
 1156SOL    HW2 3604   2.885   3.572   3.334
 1157SOL     OW 3605   0.347   1.546   1.626
 1157SOL    HW1 3606   0.336   1.601   1.703
 1157SOL    HW2 3607   0.266   1.495   1.621
 1158SOL     OW 3608   1.982   0.373   2.026
 1158SOL    HW1 3609   2.058   0.431   2.021
 1158SOL    HW2 3610   1.928   0.410   2.095
 1159SOL     OW 3611   1.495   0.012   2.907
 1159SOL    HW1 3612   1.561  -0.039   2.861
 1159SOL    HW2 3613   1.480   0.089   2.852
 1160SOL     OW 3614   0.748   3.543   2.713
 1160SOL    HW1 3615   0.827   3.575   2.756
 1160SOL    HW2 3616   0.714   3.619   2.665
 1161SOL     OW 3617   3.819   2.954   0.458
 1161SOL    HW1 3618   3.894   2.951   0.516
 1161SOL    HW2 3619   3.751   2.904   0.503
 1162SOL     OW 3620   3.883   2.858   2.652
 1162SOL    HW1 3621   3.873   2.941   2.699
 1162SOL    HW2 3622   3.834   2.870   2.571
 1163SOL     OW 3623   2.359   0.437   0.655
 1163SOL    HW1 3624   2.412   0.398   0.724
 1163SOL    HW2 3625   2.293   0.371   0.635
 1164SOL     OW 3626   0.173   1.669   2.725
 1164SOL    HW1 3627   0.101   1.651   2.665
 1164SOL    HW2 3628   0.249   1.682   2.669
 1165SOL     OW 3629   1.218   3.752   2.575
 1165SOL    HW1 3630   1.217   3.731   2.669
 1165SOL    HW2 3631   1.144   3.812   2.563
 1166SOL     OW 3632   3.219   3.880   1.067
 1166SOL    HW1 3633   3.288   3.868   1.132
 1166SOL    HW2 3634   3.140   3.897   1.117
 1167SOL     OW 3635   0.411   3.452   1.843
 1167SOL    HW1 3636   0.389   3.515   1.775
 1167SOL    HW2 3637   0.466   3.387   1.799
 1168SOL     OW 3638   2.452   2.790   1.220
 1168SOL    HW1 3639   2.472   2.818   1.310
 1168SOL    HW2 3640   2.441   2.695   1.227
 1169SOL     OW 3641   0.640   3.267   2.122
 1169SOL    HW1 3642   0.594   3.183   2.116
 1169SOL    HW2 3643   0.585   3.320   2.179
 1170SOL     OW 3644   3.335   3.555   1.691
 1170SOL    HW1 3645   3.278   3.629   1.714
 1170SOL    HW2 3646   3.410   3.564   1.749
 1171SOL     OW 3647   3.830   3.716   2.206
 1171SOL    HW1 3648   3.780   3.793   2.233
 1171SOL    HW2 3649   3.920   3.734   2.232
 1172SOL     OW 3650   1.074   3.325   3.361
 1172SOL    HW1 3651   1.142   3.351   3.423
 1172SOL    HW2 3652   0.992   3.347   3.405
 1173SOL     OW 3653   2.115   3.521   0.470
 1173SOL    HW1 3654   2.166   3.597   0.442
 1173SOL    HW2 3655   2.156   3.447   0.425
 1174SOL     OW 3656   1.919   2.311   1.769
 1174SOL    HW1 3657   1.928   2.329   1.863
 1174SOL    HW2 3658   1.960   2.226   1.756
 1175SOL     OW 3659   1.678   3.434   2.742
 1175SOL    HW1 3660   1.742   3.486   2.791
 1175SOL    HW2 3661   1.729   3.396   2.670
 1176SOL     OW 3662   3.504   1.570   3.698
 1176SOL    HW1 3663   3.480   1.480   3.720
 1176SOL    HW2 3664   3.596   1.577   3.723
 1177SOL     OW 3665   0.537   3.591   1.015
 1177SOL    HW1 3666   0.535   3.685   1.037
 1177SOL    HW2 3667   0.622   3.561   1.047
 1178SOL     OW 3668   2.407   1.321   2.943
 1178SOL    HW1 3669   2.427   1.403   2.898
 1178SOL    HW2 3670   2.463   1.256   2.900
 1179SOL     OW 3671   3.610   2.830   0.550
 1179SOL    HW1 3672   3.634   2.818   0.642
 1179SOL    HW2 3673   3.515   2.842   0.551
 1180SOL     OW 3674   0.724   0.410   2.279
 1180SOL    HW1 3675   0.783   0.335   2.274
 1180SOL    HW2 3676   0.771   0.474   2.333
 1181SOL     OW 3677   1.729   2.031   1.131
 1181SOL    HW1 3678   1.757   2.101   1.071
 1181SOL    HW2 3679   1.666   2.074   1.190
 1182SOL     OW 3680   3.328   1.596   2.270
 1182SOL    HW1 3681   3.234   1.590   2.281
 1182SOL    HW2 3682   3.342   1.592   2.176
 1183SOL     OW 3683   1.161   1.415   1.613
 1183SOL    HW1 3684   1.251   1.407   1.582
 1183SOL    HW2 3685   1.164   1.384   1.704
 1184SOL     OW 3686   2.076   3.036   2.462
 1184SOL    HW1 3687   1.997   3.037   2.408
 1184SOL    HW2 3688   2.078   2.949   2.501
 1185SOL     OW 3689   0.582   1.618   2.483
 1185SOL    HW1 3690   0.535   1.654   2.559
 1185SOL    HW2 3691   0.517   1.563   2.439
 1186SOL     OW 3692   3.672   1.920   0.290
 1186SOL    HW1 3693   3.760   1.886   0.270
 1186SOL    HW2 3694   3.686   1.981   0.362
 1187SOL     OW 3695   0.243   2.432   1.690
 1187SOL    HW1 3696   0.178   2.405   1.625
 1187SOL    HW2 3697   0.195   2.490   1.749
 1188SOL     OW 3698   2.578   3.217   2.649
 1188SOL    HW1 3699   2.487   3.221   2.678
 1188SOL    HW2 3700   2.627   3.185   2.725
 1189SOL     OW 3701   0.242   1.837   2.505
 1189SOL    HW1 3702   0.288   1.817   2.423
 1189SOL    HW2 3703   0.159   1.875   2.477
 1190SOL     OW 3704   2.549   3.799   2.879
 1190SOL    HW1 3705   2.535   3.826   2.788
 1190SOL    HW2 3706   2.490   3.854   2.929
 1191SOL     OW 3707   1.021   2.318   3.516
 1191SOL    HW1 3708   0.983   2.325   3.604
 1191SOL    HW2 3709   0.946   2.324   3.457
 1192SOL     OW 3710   1.689   3.543   3.151
 1192SOL    HW1 3711   1.736   3.623   3.128
 1192SOL    HW2 3712   1.646   3.515   3.070
 1193SOL     OW 3713   2.784   2.500   1.117
 1193SOL    HW1 3714   2.873   2.465   1.107
 1193SOL    HW2 3715   2.795   2.595   1.102
 1194SOL     OW 3716   1.243   0.658   0.841
 1194SOL    HW1 3717   1.310   0.594   0.818
 1194SOL    HW2 3718   1.191   0.615   0.909
 1195SOL     OW 3719   3.183   3.220   0.341
 1195SOL    HW1 3720   3.246   3.292   0.328
 1195SOL    HW2 3721   3.122   3.228   0.267
 1196SOL     OW 3722   2.514   0.030   3.975
 1196SOL    HW1 3723   2.434   0.079   3.956
 1196SOL    HW2 3724   2.502  -0.054   3.931
 1197SOL     OW 3725   1.390   2.888   0.363
 1197SOL    HW1 3726   1.439   2.908   0.442
 1197SOL    HW2 3727   1.369   2.795   0.371
 1198SOL     OW 3728   3.144   1.823   0.597
 1198SOL    HW1 3729   3.085   1.804   0.523
 1198SOL    HW2 3730   3.209   1.753   0.594
 1199SOL     OW 3731   0.031   0.899   0.278
 1199SOL    HW1 3732   0.021   0.988   0.311
 1199SOL    HW2 3733   0.028   0.844   0.357
 1200SOL     OW 3734   1.997   2.067   2.942
 1200SOL    HW1 3735   1.910   2.096   2.970
 1200SOL    HW2 3736   2.002   2.093   2.850
 1201SOL     OW 3737   0.160   0.379   0.696
 1201SOL    HW1 3738   0.131   0.458   0.649
 1201SOL    HW2 3739   0.197   0.324   0.628
 1202SOL     OW 3740   1.729   3.907   2.789
 1202SOL    HW1 3741   1.727   3.869   2.701
 1202SOL    HW2 3742   1.789   3.982   2.782
 1203SOL     OW 3743   0.947   1.224   0.109
 1203SOL    HW1 3744   0.867   1.216   0.057
 1203SOL    HW2 3745   0.954   1.318   0.128
 1204SOL     OW 3746   0.381   0.205   2.622
 1204SOL    HW1 3747   0.387   0.119   2.581
 1204SOL    HW2 3748   0.411   0.266   2.554
 1205SOL     OW 3749   0.043   0.854   3.422
 1205SOL    HW1 3750   0.030   0.792   3.494
 1205SOL    HW2 3751   0.137   0.849   3.404
 1206SOL     OW 3752   0.115   1.092   0.049
 1206SOL    HW1 3753   0.184   1.037   0.013
 1206SOL    HW2 3754   0.139   1.103   0.141
 1207SOL     OW 3755   1.899   3.113   1.383
 1207SOL    HW1 3756   1.912   3.021   1.358
 1207SOL    HW2 3757   1.917   3.162   1.303
 1208SOL     OW 3758   2.725   3.124   1.152
 1208SOL    HW1 3759   2.762   3.048   1.197
 1208SOL    HW2 3760   2.666   3.163   1.216
 1209SOL     OW 3761   1.861   2.438   2.981
 1209SOL    HW1 3762   1.881   2.351   3.015
 1209SOL    HW2 3763   1.943   2.467   2.941
 1210SOL     OW 3764   2.542   2.478   1.780
 1210SOL    HW1 3765   2.484   2.404   1.761
 1210SOL    HW2 3766   2.609   2.474   1.712
 1211SOL     OW 3767   1.630   2.554   2.500
 1211SOL    HW1 3768   1.694   2.570   2.431
 1211SOL    HW2 3769   1.654   2.468   2.535
 1212SOL     OW 3770   1.375   1.187   2.972
 1212SOL    HW1 3771   1.398   1.219   2.885
 1212SOL    HW2 3772   1.398   1.259   3.031
 1213SOL     OW 3773   1.737   3.494   1.564
 1213SOL    HW1 3774   1.731   3.453   1.650
 1213SOL    HW2 3775   1.701   3.429   1.504
 1214SOL     OW 3776   2.087   0.199   3.481
 1214SOL    HW1 3777   2.065   0.266   3.545
 1214SOL    HW2 3778   2.038   0.121   3.508
 1215SOL     OW 3779   0.371   2.557   2.094
 1215SOL    HW1 3780   0.367   2.640   2.047
 1215SOL    HW2 3781   0.465   2.540   2.106
 1216SOL     OW 3782   2.455   3.314   0.577
 1216SOL    HW1 3783   2.549   3.308   0.591
 1216SOL    HW2 3784   2.428   3.389   0.629
 1217SOL     OW 3785   3.178   1.989   0.192
 1217SOL    HW1 3786   3.087   1.960   0.186
 1217SOL    HW2 3787   3.213   1.941   0.267
 1218SOL     OW 3788   2.146   2.948   3.790
 1218SOL    HW1 3789   2.052   2.955   3.808
 1218SOL    HW2 3790   2.151   2.937   3.695
 1219SOL     OW 3791   2.309   1.300   0.633
 1219SOL    HW1 3792   2.230   1.254   0.662
 1219SOL    HW2 3793   2.294   1.316   0.540
 1220SOL     OW 3794   0.838   1.731   2.541
 1220SOL    HW1 3795   0.891   1.674   2.486
 1220SOL    HW2 3796   0.760   1.681   2.561
 1221SOL     OW 3797   1.741   0.481   0.825
 1221SOL    HW1 3798   1.688   0.494   0.903
 1221SOL    HW2 3799   1.757   0.570   0.792
 1222SOL     OW 3800   0.390   0.943   0.521
 1222SOL    HW1 3801   0.398   0.854   0.555
 1222SOL    HW2 3802   0.315   0.939   0.462
 1223SOL     OW 3803   3.974   1.149   0.379
 1223SOL    HW1 3804   3.883   1.176   0.362
 1223SOL    HW2 3805   3.982   1.153   0.474
 1224SOL     OW 3806   1.869   0.703   1.228
 1224SOL    HW1 3807   1.922   0.748   1.293
 1224SOL    HW2 3808   1.889   0.610   1.240
 1225SOL     OW 3809   2.822   1.558   3.499
 1225SOL    HW1 3810   2.867   1.558   3.584
 1225SOL    HW2 3811   2.851   1.639   3.457
 1226SOL     OW 3812   3.645   0.395   1.921
 1226SOL    HW1 3813   3.594   0.419   1.998
 1226SOL    HW2 3814   3.603   0.315   1.888
 1227SOL     OW 3815   0.596   2.247   1.228
 1227SOL    HW1 3816   0.573   2.195   1.305
 1227SOL    HW2 3817   0.639   2.325   1.264
 1228SOL     OW 3818   3.883   0.468   3.062
 1228SOL    HW1 3819   3.793   0.487   3.090
 1228SOL    HW2 3820   3.877   0.387   3.012
 1229SOL     OW 3821   3.283   0.446   0.099
 1229SOL    HW1 3822   3.351   0.510   0.122
 1229SOL    HW2 3823   3.213   0.461   0.163
 1230SOL     OW 3824   1.192   2.961   2.326
 1230SOL    HW1 3825   1.112   3.012   2.314
 1230SOL    HW2 3826   1.237   3.003   2.400
 1231SOL     OW 3827   2.216   1.003   3.027
 1231SOL    HW1 3828   2.209   0.949   2.949
 1231SOL    HW2 3829   2.288   1.063   3.008
 1232SOL     OW 3830   0.709   1.862   3.497
 1232SOL    HW1 3831   0.765   1.933   3.465
 1232SOL    HW2 3832   0.626   1.904   3.518
 1233SOL     OW 3833   3.885   2.947   0.188
 1233SOL    HW1 3834   3.864   2.946   0.282
 1233SOL    HW2 3835   3.819   3.004   0.149
 1234SOL     OW 3836   3.216   2.790   1.705
 1234SOL    HW1 3837   3.224   2.794   1.609
 1234SOL    HW2 3838   3.276   2.857   1.737
 1235SOL     OW 3839   0.335   3.315   1.110
 1235SOL    HW1 3840   0.430   3.310   1.100
 1235SOL    HW2 3841   0.323   3.375   1.184
 1236SOL     OW 3842   3.482   0.265   3.007
 1236SOL    HW1 3843   3.393   0.253   3.039
 1236SOL    HW2 3844   3.476   0.335   2.943
 1237SOL     OW 3845  -0.006   0.985   1.448
 1237SOL    HW1 3846   0.049   1.061   1.431
 1237SOL    HW2 3847   0.042   0.911   1.409
 1238SOL     OW 3848   2.948   2.030   0.894
 1238SOL    HW1 3849   2.961   1.954   0.837
 1238SOL    HW2 3850   2.916   1.992   0.976
 1239SOL     OW 3851   1.081   1.549   3.718
 1239SOL    HW1 3852   1.057   1.561   3.627
 1239SOL    HW2 3853   1.176   1.560   3.720
 1240SOL     OW 3854   2.763   1.798   0.669
 1240SOL    HW1 3855   2.679   1.770   0.705
 1240SOL    HW2 3856   2.809   1.716   0.648
 1241SOL     OW 3857   2.030   1.277   0.290
 1241SOL    HW1 3858   2.087   1.339   0.336
 1241SOL    HW2 3859   1.964   1.253   0.355
 1242SOL     OW 3860   0.621   3.281   0.344
 1242SOL    HW1 3861   0.623   3.341   0.419
 1242SOL    HW2 3862   0.689   3.314   0.285
 1243SOL     OW 3863   3.695   3.179   2.925
 1243SOL    HW1 3864   3.663   3.252   2.977
 1243SOL    HW2 3865   3.625   3.160   2.863
 1244SOL     OW 3866   0.023   3.216   0.917
 1244SOL    HW1 3867   0.109   3.175   0.907
 1244SOL    HW2 3868  -0.005   3.234   0.827
 1245SOL     OW 3869   1.390   2.676   1.540
 1245SOL    HW1 3870   1.448   2.627   1.482
 1245SOL    HW2 3871   1.448   2.716   1.604
 1246SOL     OW 3872   1.398   3.899   1.413
 1246SOL    HW1 3873   1.385   3.840   1.338
 1246SOL    HW2 3874   1.473   3.863   1.459
 1247SOL     OW 3875   2.338   3.668   0.395
 1247SOL    HW1 3876   2.331   3.749   0.344
 1247SOL    HW2 3877   2.398   3.613   0.346
 1248SOL     OW 3878   3.107   1.460   2.353
 1248SOL    HW1 3879   3.138   1.370   2.355
 1248SOL    HW2 3880   3.040   1.464   2.423
 1249SOL     OW 3881   0.066   0.429   3.504
 1249SOL    HW1 3882  -0.027   0.418   3.483
 1249SOL    HW2 3883   0.103   0.470   3.425
 1250SOL     OW 3884   3.290   1.807   2.452
 1250SOL    HW1 3885   3.275   1.716   2.426
 1250SOL    HW2 3886   3.322   1.802   2.542
 1251SOL     OW 3887   1.153   2.968   0.760
 1251SOL    HW1 3888   1.143   2.986   0.666
 1251SOL    HW2 3889   1.230   3.018   0.786
 1252SOL     OW 3890   1.376   1.677   0.078
 1252SOL    HW1 3891   1.425   1.611   0.126
 1252SOL    HW2 3892   1.423   1.687  -0.004
 1253SOL     OW 3893   0.257   0.249   0.972
 1253SOL    HW1 3894   0.247   0.158   0.945
 1253SOL    HW2 3895   0.282   0.295   0.891
 1254SOL     OW 3896   2.243   0.568   3.386
 1254SOL    HW1 3897   2.158   0.585   3.348
 1254SOL    HW2 3898   2.283   0.504   3.328
 1255SOL     OW 3899   1.626   2.511   1.426
 1255SOL    HW1 3900   1.638   2.418   1.444
 1255SOL    HW2 3901   1.703   2.553   1.463
 1256SOL     OW 3902   1.940   1.029   1.179
 1256SOL    HW1 3903   1.959   1.078   1.099
 1256SOL    HW2 3904   1.909   0.944   1.148
 1257SOL     OW 3905   1.535   0.236   0.245
 1257SOL    HW1 3906   1.516   0.307   0.183
 1257SOL    HW2 3907   1.619   0.201   0.215
 1258SOL     OW 3908   0.371   2.484   2.991
 1258SOL    HW1 3909   0.292   2.475   2.937
 1258SOL    HW2 3910   0.341   2.531   3.069
 1259SOL     OW 3911   2.682   0.634   2.932
 1259SOL    HW1 3912   2.772   0.603   2.917
 1259SOL    HW2 3913   2.629   0.582   2.872
 1260SOL     OW 3914   3.748   0.760   0.139
 1260SOL    HW1 3915   3.818   0.760   0.072
 1260SOL    HW2 3916   3.743   0.851   0.168
 1261SOL     OW 3917   3.418   0.588   1.931
 1261SOL    HW1 3918   3.344   0.535   1.960
 1261SOL    HW2 3919   3.378   0.658   1.879
 1262SOL     OW 3920   1.473   2.357   0.375
 1262SOL    HW1 3921   1.488   2.343   0.468
 1262SOL    HW2 3922   1.398   2.301   0.354
 1263SOL     OW 3923   1.440   2.159   3.314
 1263SOL    HW1 3924   1.525   2.184   3.277
 1263SOL    HW2 3925   1.450   2.067   3.337
 1264SOL     OW 3926   0.711   0.308   0.120
 1264SOL    HW1 3927   0.762   0.230   0.099
 1264SOL    HW2 3928   0.627   0.274   0.151
 1265SOL     OW 3929   3.960   1.253   2.540
 1265SOL    HW1 3930   3.995   1.219   2.623
 1265SOL    HW2 3931   3.883   1.304   2.566
 1266SOL     OW 3932   3.403   3.701   3.883
 1266SOL    HW1 3933   3.495   3.680   3.899
 1266SOL    HW2 3934   3.379   3.646   3.808
 1267SOL     OW 3935   0.901   2.488   0.759
 1267SOL    HW1 3936   0.974   2.444   0.715
 1267SOL    HW2 3937   0.931   2.578   0.771
 1268SOL     OW 3938   3.731   3.725   1.895
 1268SOL    HW1 3939   3.774   3.751   1.976
 1268SOL    HW2 3940   3.798   3.678   1.846
 1269SOL     OW 3941   1.496   3.740   3.836
 1269SOL    HW1 3942   1.491   3.834   3.853
 1269SOL    HW2 3943   1.446   3.727   3.756
 1270SOL     OW 3944   1.556   2.655   1.196
 1270SOL    HW1 3945   1.587   2.617   1.278
 1270SOL    HW2 3946   1.544   2.580   1.137
 1271SOL     OW 3947   0.611   3.912   0.729
 1271SOL    HW1 3948   0.641   3.977   0.665
 1271SOL    HW2 3949   0.688   3.891   0.780
 1272SOL     OW 3950   0.264   1.332   0.736
 1272SOL    HW1 3951   0.304   1.309   0.820
 1272SOL    HW2 3952   0.217   1.413   0.753
 1273SOL     OW 3953   0.545   3.078   1.726
 1273SOL    HW1 3954   0.535   3.085   1.821
 1273SOL    HW2 3955   0.621   3.021   1.714
 1274SOL     OW 3956   3.703   2.517   0.474
 1274SOL    HW1 3957   3.712   2.545   0.383
 1274SOL    HW2 3958   3.671   2.595   0.520
 1275SOL     OW 3959   0.103   2.547   0.060
 1275SOL    HW1 3960   0.078   2.498   0.139
 1275SOL    HW2 3961   0.046   2.623   0.060
 1276SOL     OW 3962   2.627   0.730   1.023
 1276SOL    HW1 3963   2.553   0.763   1.073
 1276SOL    HW2 3964   2.589   0.680   0.951
 1277SOL     OW 3965   0.690   3.182   3.394
 1277SOL    HW1 3966   0.625   3.236   3.348
 1277SOL    HW2 3967   0.741   3.141   3.324
 1278SOL     OW 3968   3.525   1.181   0.715
 1278SOL    HW1 3969   3.452   1.128   0.749
 1278SOL    HW2 3970   3.484   1.238   0.649
 1279SOL     OW 3971   2.425   3.498   3.336
 1279SOL    HW1 3972   2.337   3.495   3.372
 1279SOL    HW2 3973   2.465   3.575   3.378
 1280SOL     OW 3974   1.069   2.617   3.730
 1280SOL    HW1 3975   1.135   2.591   3.665
 1280SOL    HW2 3976   1.089   2.708   3.749
 1281SOL     OW 3977   1.916   3.932   3.534
 1281SOL    HW1 3978   1.960   3.853   3.564
 1281SOL    HW2 3979   1.850   3.901   3.472
 1282SOL     OW 3980   3.390   2.179   0.232
 1282SOL    HW1 3981   3.402   2.271   0.207
 1282SOL    HW2 3982   3.296   2.172   0.251
 1283SOL     OW 3983   1.721   0.243   2.346
 1283SOL    HW1 3984   1.780   0.178   2.384
 1283SOL    HW2 3985   1.634   0.204   2.355
 1284SOL     OW 3986   1.050   3.611   0.057
 1284SOL    HW1 3987   0.998   3.690   0.073
 1284SOL    HW2 3988   1.136   3.631   0.095
 1285SOL     OW 3989   1.949   2.356   3.417
 1285SOL    HW1 3990   1.855   2.376   3.408
 1285SOL    HW2 3991   1.989   2.396   3.341
 1286SOL     OW 3992   3.579   0.187   1.059
 1286SOL    HW1 3993   3.630   0.119   1.102
 1286SOL    HW2 3994   3.598   0.177   0.966
 1287SOL     OW 3995   1.756   1.846   0.913
 1287SOL    HW1 3996   1.836   1.897   0.896
 1287SOL    HW2 3997   1.738   1.862   1.005
 1288SOL     OW 3998   0.440   0.458   0.071
 1288SOL    HW1 3999   0.527   0.425   0.052
 1288SOL    HW2 4000   0.380   0.394   0.033
 1289SOL     OW 4001   0.130   0.384   1.183
 1289SOL    HW1 4002   0.036   0.385   1.170
 1289SOL    HW2 4003   0.165   0.349   1.101
 1290SOL     OW 4004   0.180   1.973   0.443
 1290SOL    HW1 4005   0.133   1.900   0.483
 1290SOL    HW2 4006   0.128   1.996   0.366
 1291SOL     OW 4007   0.488   2.073   1.433
 1291SOL    HW1 4008   0.465   1.987   1.467
 1291SOL    HW2 4009   0.439   2.134   1.488
 1292SOL     OW 4010   0.348   3.892   1.041
 1292SOL    HW1 4011   0.441   3.903   1.063
 1292SOL    HW2 4012   0.348   3.882   0.946
 1293SOL     OW 4013   2.958   3.182   3.690
 1293SOL    HW1 4014   2.926   3.118   3.753
 1293SOL    HW2 4015   3.054   3.173   3.693
 1294SOL     OW 4016   2.907   0.120   0.640
 1294SOL    HW1 4017   2.928   0.099   0.731
 1294SOL    HW2 4018   2.812   0.119   0.635
 1295SOL     OW 4019   1.961   3.476   1.998
 1295SOL    HW1 4020   2.012   3.399   2.024
 1295SOL    HW2 4021   1.942   3.520   2.081
 1296SOL     OW 4022   0.151   0.468   3.229
 1296SOL    HW1 4023   0.069   0.492   3.186
 1296SOL    HW2 4024   0.216   0.525   3.188
 1297SOL     OW 4025   0.117   3.519   0.847
 1297SOL    HW1 4026   0.099   3.430   0.879
 1297SOL    HW2 4027   0.162   3.562   0.920
 1298SOL     OW 4028   0.673   0.349   1.010
 1298SOL    HW1 4029   0.730   0.363   0.934
 1298SOL    HW2 4030   0.669   0.435   1.053
 1299SOL     OW 4031   3.099   1.011   2.816
 1299SOL    HW1 4032   3.117   1.079   2.880
 1299SOL    HW2 4033   3.015   0.973   2.843
 1300SOL     OW 4034   1.067   1.646   1.305
 1300SOL    HW1 4035   1.004   1.716   1.286
 1300SOL    HW2 4036   1.013   1.571   1.329
 1301SOL     OW 4037   1.638   0.653   2.184
 1301SOL    HW1 4038   1.710   0.595   2.210
 1301SOL    HW2 4039   1.674   0.707   2.114
 1302SOL     OW 4040   1.402   1.998   2.039
 1302SOL    HW1 4041   1.327   2.000   2.099
 1302SOL    HW2 4042   1.379   2.060   1.970
 1303SOL     OW 4043   3.594   3.811   3.507
 1303SOL    HW1 4044   3.549   3.811   3.423
 1303SOL    HW2 4045   3.602   3.719   3.531
 1304SOL     OW 4046   2.955   3.178   3.250
 1304SOL    HW1 4047   2.889   3.132   3.302
 1304SOL    HW2 4048   2.970   3.122   3.174
 1305SOL     OW 4049   3.636   0.338   1.395
 1305SOL    HW1 4050   3.577   0.356   1.322
 1305SOL    HW2 4051   3.596   0.265   1.442
 1306SOL     OW 4052   1.719   2.143   2.857
 1306SOL    HW1 4053   1.633   2.152   2.815
 1306SOL    HW2 4054   1.781   2.137   2.784
 1307SOL     OW 4055   1.386   3.475   1.019
 1307SOL    HW1 4056   1.406   3.554   1.068
 1307SOL    HW2 4057   1.440   3.481   0.940
 1308SOL     OW 4058   3.287   0.125   0.824
 1308SOL    HW1 4059   3.362   0.076   0.789
 1308SOL    HW2 4060   3.260   0.075   0.901
 1309SOL     OW 4061   0.422   1.821   0.645
 1309SOL    HW1 4062   0.403   1.915   0.641
 1309SOL    HW2 4063   0.497   1.814   0.704
 1310SOL     OW 4064  -0.003   1.046   3.019
 1310SOL    HW1 4065   0.003   1.131   3.064
 1310SOL    HW2 4066   0.058   0.990   3.066
 1311SOL     OW 4067   1.897   1.285   3.428
 1311SOL    HW1 4068   1.916   1.191   3.434
 1311SOL    HW2 4069   1.983   1.326   3.421
 1312SOL     OW 4070   3.239   1.739   3.404
 1312SOL    HW1 4071   3.285   1.718   3.323
 1312SOL    HW2 4072   3.308   1.765   3.465
 1313SOL     OW 4073   1.424   0.519   1.626
 1313SOL    HW1 4074   1.509   0.486   1.656
 1313SOL    HW2 4075   1.444   0.573   1.550
 1314SOL     OW 4076   2.189   1.632   3.909
 1314SOL    HW1 4077   2.264   1.577   3.884
 1314SOL    HW2 4078   2.113   1.584   3.877
 1315SOL     OW 4079   3.291   1.607   0.450
 1315SOL    HW1 4080   3.343   1.688   0.442
 1315SOL    HW2 4081   3.269   1.583   0.360
 1316SOL     OW 4082   1.944   2.776   0.719
 1316SOL    HW1 4083   1.855   2.772   0.682
 1316SOL    HW2 4084   1.974   2.685   0.718
 1317SOL     OW 4085   3.090   1.764   1.151
 1317SOL    HW1 4086   3.065   1.672   1.143
 1317SOL    HW2 4087   3.007   1.810   1.164
 1318SOL     OW 4088   0.458   3.343   2.305
 1318SOL    HW1 4089   0.366   3.328   2.283
 1318SOL    HW2 4090   0.479   3.275   2.368
 1319SOL     OW 4091   0.558   1.886   0.946
 1319SOL    HW1 4092   0.558   1.981   0.933
 1319SOL    HW2 4093   0.643   1.868   0.985
 1320SOL     OW 4094   0.700   2.901   1.417
 1320SOL    HW1 4095   0.756   2.833   1.379
 1320SOL    HW2 4096   0.710   2.890   1.512
 1321SOL     OW 4097   0.434   2.345   1.540
 1321SOL    HW1 4098   0.384   2.357   1.459
 1321SOL    HW2 4099   0.376   2.377   1.609
 1322SOL     OW 4100   1.138   2.520   2.063
 1322SOL    HW1 4101   1.104   2.454   2.004
 1322SOL    HW2 4102   1.066   2.582   2.074
 1323SOL     OW 4103   3.353   1.155   3.781
 1323SOL    HW1 4104   3.281   1.206   3.818
 1323SOL    HW2 4105   3.392   1.213   3.715
 1324SOL     OW 4106   0.399   1.278   1.956
 1324SOL    HW1 4107   0.308   1.305   1.974
 1324SOL    HW2 4108   0.427   1.236   2.037
 1325SOL     OW 4109   1.173   2.132   3.012
 1325SOL    HW1 4110   1.206   2.172   3.093
 1325SOL    HW2 4111   1.093   2.088   3.038
 1326SOL     OW 4112   1.589   2.048   0.475
 1326SOL    HW1 4113   1.502   2.082   0.455
 1326SOL    HW2 4114   1.580   2.006   0.560
 1327SOL     OW 4115   1.446   1.736   1.882
 1327SOL    HW1 4116   1.496   1.719   1.963
 1327SOL    HW2 4117   1.456   1.830   1.868
 1328SOL     OW 4118   1.170   1.514   2.347
 1328SOL    HW1 4119   1.213   1.575   2.287
 1328SOL    HW2 4120   1.133   1.447   2.290
 1329SOL     OW 4121   0.974   3.864   1.160
 1329SOL    HW1 4122   0.955   3.947   1.205
 1329SOL    HW2 4123   1.048   3.884   1.102
 1330SOL     OW 4124   2.548   2.810   0.942
 1330SOL    HW1 4125   2.534   2.793   1.035
 1330SOL    HW2 4126   2.462   2.799   0.902
 1331SOL     OW 4127   1.894   3.044   1.878
 1331SOL    HW1 4128   1.851   3.002   1.803
 1331SOL    HW2 4129   1.965   3.095   1.839
 1332SOL     OW 4130   0.483   0.702   1.572
 1332SOL    HW1 4131   0.575   0.725   1.559
 1332SOL    HW2 4132   0.459   0.655   1.492
 1333SOL     OW 4133   3.014   3.903   3.430
 1333SOL    HW1 4134   3.088   3.873   3.484
 1333SOL    HW2 4135   2.988   3.826   3.380
 1334SOL     OW 4136   3.455   2.101   2.273
 1334SOL    HW1 4137   3.508   2.168   2.230
 1334SOL    HW2 4138   3.518   2.044   2.317
 1335SOL     OW 4139   2.248   2.309   2.566
 1335SOL    HW1 4140   2.157   2.335   2.578
 1335SOL    HW2 4141   2.244   2.227   2.518
 1336SOL     OW 4142   1.156   2.335   2.631
 1336SOL    HW1 4143   1.233   2.323   2.575
 1336SOL    HW2 4144   1.110   2.251   2.626
 1337SOL     OW 4145   1.585   3.295   3.287
 1337SOL    HW1 4146   1.632   3.231   3.339
 1337SOL    HW2 4147   1.647   3.368   3.277
 1338SOL     OW 4148   1.200   3.278   1.281
 1338SOL    HW1 4149   1.278   3.324   1.311
 1338SOL    HW2 4150   1.188   3.206   1.343
 1339SOL     OW 4151   3.309   3.466   2.242
 1339SOL    HW1 4152   3.230   3.519   2.243
 1339SOL    HW2 4153   3.277   3.376   2.233
 1340SOL     OW 4154   3.932   3.336   2.167
 1340SOL    HW1 4155   3.853   3.327   2.114
 1340SOL    HW2 4156   4.004   3.311   2.109
 1341SOL     OW 4157   0.819   3.343   2.451
 1341SOL    HW1 4158   0.803   3.385   2.535
 1341SOL    HW2 4159   0.808   3.413   2.387
 1342SOL     OW 4160   2.969   0.499   0.367
 1342SOL    HW1 4161   2.955   0.524   0.458
 1342SOL    HW2 4162   3.028   0.566   0.332
 1343SOL     OW 4163   0.738   0.251   3.319
 1343SOL    HW1 4164   0.662   0.292   3.359
 1343SOL    HW2 4165   0.808   0.316   3.330
 1344SOL     OW 4166   0.322   0.198   3.906
 1344SOL    HW1 4167   0.279   0.148   3.836
 1344SOL    HW2 4168   0.272   0.176   3.985
 1345SOL     OW 4169   2.270   2.613   0.706
 1345SOL    HW1 4170   2.201   2.595   0.643
 1345SOL    HW2 4171   2.237   2.577   0.789
 1346SOL     OW 4172   2.629   2.521   3.693
 1346SOL    HW1 4173   2.681   2.480   3.762
 1346SOL    HW2 4174   2.540   2.487   3.706
 1347SOL     OW 4175   0.234   2.015   0.047
 1347SOL    HW1 4176   0.246   1.960  -0.031
 1347SOL    HW2 4177   0.232   2.105   0.013
 1348SOL     OW 4178   3.171   3.897   2.353
 1348SOL    HW1 4179   3.266   3.890   2.354
 1348SOL    HW2 4180   3.154   3.992   2.357
 1349SOL     OW 4181   2.571   2.278   0.868
 1349SOL    HW1 4182   2.493   2.310   0.825
 1349SOL    HW2 4183   2.539   2.224   0.940
 1350SOL     OW 4184   1.261   3.617   1.663
 1350SOL    HW1 4185   1.193   3.611   1.730
 1350SOL    HW2 4186   1.217   3.656   1.588
 1351SOL     OW 4187   1.179   1.728   0.685
 1351SOL    HW1 4188   1.130   1.688   0.758
 1351SOL    HW2 4189   1.208   1.654   0.632
 1352SOL     OW 4190   2.670   0.375   2.788
 1352SOL    HW1 4191   2.658   0.284   2.761
 1352SOL    HW2 4192   2.707   0.419   2.712
 1353SOL     OW 4193   3.731   2.400   2.497
 1353SOL    HW1 4194   3.780   2.355   2.427
 1353SOL    HW2 4195   3.659   2.443   2.452
 1354SOL     OW 4196   0.829   1.368   1.684
 1354SOL    HW1 4197   0.785   1.363   1.768
 1354SOL    HW2 4198   0.895   1.299   1.687
 1355SOL     OW 4199   0.441   3.966   0.205
 1355SOL    HW1 4200   0.350   3.994   0.212
 1355SOL    HW2 4201   0.438   3.870   0.206
 1356SOL     OW 4202   0.431   1.757   1.452
 1356SOL    HW1 4203   0.390   1.767   1.367
 1356SOL    HW2 4204   0.363   1.718   1.507
 1357SOL     OW 4205   3.164   3.321   1.920
 1357SOL    HW1 4206   3.068   3.326   1.924
 1357SOL    HW2 4207   3.190   3.282   2.003
 1358SOL     OW 4208   2.857   2.331   0.329
 1358SOL    HW1 4209   2.767   2.303   0.344
 1358SOL    HW2 4210   2.911   2.258   0.358
 1359SOL     OW 4211   2.283   2.813   2.239
 1359SOL    HW1 4212   2.347   2.882   2.256
 1359SOL    HW2 4213   2.321   2.734   2.276
 1360SOL     OW 4214   0.188   2.393   2.790
 1360SOL    HW1 4215   0.128   2.337   2.741
 1360SOL    HW2 4216   0.149   2.480   2.783
 1361SOL     OW 4217   3.477   3.759   2.326
 1361SOL    HW1 4218   3.518   3.673   2.317
 1361SOL    HW2 4219   3.528   3.816   2.268
 1362SOL     OW 4220   1.885   0.137   3.758
 1362SOL    HW1 4221   1.908   0.080   3.831
 1362SOL    HW2 4222   1.890   0.080   3.681
 1363SOL     OW 4223   2.876   1.088   3.439
 1363SOL    HW1 4224   2.896   1.044   3.357
 1363SOL    HW2 4225   2.962   1.107   3.478
 1364SOL     OW 4226   1.572   1.805   2.642
 1364SOL    HW1 4227   1.533   1.763   2.719
 1364SOL    HW2 4228   1.557   1.899   2.656
 1365SOL     OW 4229   0.777   0.664   1.535
 1365SOL    HW1 4230   0.831   0.607   1.590
 1365SOL    HW2 4231   0.840   0.720   1.490
 1366SOL     OW 4232   0.879   3.878   0.110
 1366SOL    HW1 4233   0.802   3.920   0.073
 1366SOL    HW2 4234   0.917   3.944   0.168
 1367SOL     OW 4235   2.086   1.905   0.502
 1367SOL    HW1 4236   2.058   1.946   0.420
 1367SOL    HW2 4237   2.005   1.873   0.541
 1368SOL     OW 4238   2.071   2.410   3.184
 1368SOL    HW1 4239   2.125   2.333   3.169
 1368SOL    HW2 4240   2.056   2.446   3.097
 1369SOL     OW 4241   1.180   2.199   3.315
 1369SOL    HW1 4242   1.152   2.232   3.400
 1369SOL    HW2 4243   1.276   2.205   3.317
 1370SOL     OW 4244   0.806   0.496   2.832
 1370SOL    HW1 4245   0.770   0.491   2.921
 1370SOL    HW2 4246   0.901   0.504   2.846
 1371SOL     OW 4247   3.940   3.003   2.221
 1371SOL    HW1 4248   3.884   2.957   2.159
 1371SOL    HW2 4249   3.888   3.008   2.301
 1372SOL     OW 4250   3.879   0.839   2.445
 1372SOL    HW1 4251   3.942   0.830   2.517
 1372SOL    HW2 4252   3.906   0.772   2.382
 1373SOL     OW 4253   2.305   2.405   2.043
 1373SOL    HW1 4254   2.256   2.342   2.095
 1373SOL    HW2 4255   2.296   2.374   1.953
 1374SOL     OW 4256   1.602   0.244   2.100
 1374SOL    HW1 4257   1.656   0.167   2.081
 1374SOL    HW2 4258   1.658   0.298   2.155
 1375SOL     OW 4259   0.629   3.453   0.552
 1375SOL    HW1 4260   0.711   3.455   0.602
 1375SOL    HW2 4261   0.562   3.478   0.616
 1376SOL     OW 4262   1.258   0.151   1.349
 1376SOL    HW1 4263   1.291   0.077   1.400
 1376SOL    HW2 4264   1.196   0.112   1.287
 1377SOL     OW 4265   2.131   2.763   2.523
 1377SOL    HW1 4266   2.184   2.794   2.596
 1377SOL    HW2 4267   2.186   2.699   2.479
 1378SOL     OW 4268   3.739   1.060   2.857
 1378SOL    HW1 4269   3.680   1.006   2.911
 1378SOL    HW2 4270   3.821   1.062   2.906
 1379SOL     OW 4271   0.106   3.250   1.363
 1379SOL    HW1 4272   0.112   3.160   1.395
 1379SOL    HW2 4273   0.196   3.275   1.344
 1380SOL     OW 4274   3.677   3.199   2.331
 1380SOL    HW1 4275   3.728   3.185   2.411
 1380SOL    HW2 4276   3.736   3.246   2.272
 1381SOL     OW 4277   0.452   0.648   2.877
 1381SOL    HW1 4278   0.426   0.644   2.785
 1381SOL    HW2 4279   0.457   0.557   2.905
 1382SOL     OW 4280   0.669   3.774   2.553
 1382SOL    HW1 4281   0.671   3.869   2.557
 1382SOL    HW2 4282   0.750   3.750   2.508
 1383SOL     OW 4283   3.582   3.350   2.736
 1383SOL    HW1 4284   3.574   3.394   2.652
 1383SOL    HW2 4285   3.676   3.341   2.750
 1384SOL     OW 4286   3.939   2.944   1.814
 1384SOL    HW1 4287   3.994   3.020   1.798
 1384SOL    HW2 4288   3.898   2.961   1.899
 1385SOL     OW 4289   3.119   2.642   1.904
 1385SOL    HW1 4290   3.154   2.706   1.842
 1385SOL    HW2 4291   3.053   2.594   1.854
 1386SOL     OW 4292   3.673   3.633   2.785
 1386SOL    HW1 4293   3.577   3.632   2.781
 1386SOL    HW2 4294   3.693   3.697   2.852
 1387SOL     OW 4295   2.918   2.053   1.352
 1387SOL    HW1 4296   2.993   2.025   1.405
 1387SOL    HW2 4297   2.932   2.011   1.267
 1388SOL     OW 4298   0.868   2.910   2.776
 1388SOL    HW1 4299   0.817   2.856   2.836
 1388SOL    HW2 4300   0.951   2.926   2.822
 1389SOL     OW 4301   2.996   0.582   0.682
 1389SOL    HW1 4302   2.927   0.614   0.740
 1389SOL    HW2 4303   3.009   0.491   0.709
 1390SOL     OW 4304   2.136   3.246   2.020
 1390SOL    HW1 4305   2.160   3.236   2.113
 1390SOL    HW2 4306   2.170   3.166   1.979
 1391SOL     OW 4307   2.347   2.512   3.385
 1391SOL    HW1 4308   2.337   2.420   3.408
 1391SOL    HW2 4309   2.261   2.539   3.353
 1392SOL     OW 4310   2.264   3.300   1.624
 1392SOL    HW1 4311   2.179   3.342   1.606
 1392SOL    HW2 4312   2.243   3.227   1.682
 1393SOL     OW 4313   1.279   2.387   3.001
 1393SOL    HW1 4314   1.254   2.303   2.963
 1393SOL    HW2 4315   1.311   2.439   2.927
 1394SOL     OW 4316   3.678   2.067   0.521
 1394SOL    HW1 4317   3.618   2.078   0.595
 1394SOL    HW2 4318   3.759   2.035   0.560
 1395SOL     OW 4319   0.557   2.246   0.509
 1395SOL    HW1 4320   0.551   2.202   0.424
 1395SOL    HW2 4321   0.582   2.335   0.488
 1396SOL     OW 4322   1.637   0.977   2.041
 1396SOL    HW1 4323   1.668   1.019   2.121
 1396SOL    HW2 4324   1.588   1.045   1.995
 1397SOL     OW 4325   2.874   0.067   2.091
 1397SOL    HW1 4326   2.920   0.149   2.109
 1397SOL    HW2 4327   2.857   0.070   1.996
 1398SOL     OW 4328   3.502   0.505   2.876
 1398SOL    HW1 4329   3.529   0.503   2.784
 1398SOL    HW2 4330   3.420   0.554   2.876
 1399SOL     OW 4331   2.922   1.764   3.293
 1399SOL    HW1 4332   2.894   1.855   3.287
 1399SOL    HW2 4333   3.007   1.767   3.336
 1400SOL     OW 4334   0.469   0.429   2.409
 1400SOL    HW1 4335   0.543   0.391   2.362
 1400SOL    HW2 4336   0.417   0.472   2.342
 1401SOL     OW 4337   2.313   0.146   2.113
 1401SOL    HW1 4338   2.407   0.128   2.103
 1401SOL    HW2 4339   2.297   0.220   2.053
 1402SOL     OW 4340   0.755   2.096   3.870
 1402SOL    HW1 4341   0.787   2.019   3.821
 1402SOL    HW2 4342   0.729   2.061   3.955
 1403SOL     OW 4343   3.242   2.188   1.382
 1403SOL    HW1 4344   3.160   2.162   1.340
 1403SOL    HW2 4345   3.308   2.131   1.343
 1404SOL     OW 4346   2.214   0.209   0.749
 1404SOL    HW1 4347   2.123   0.199   0.723
 1404SOL    HW2 4348   2.213   0.198   0.844
 1405SOL     OW 4349   1.301   1.713   3.672
 1405SOL    HW1 4350   1.366   1.737   3.738
 1405SOL    HW2 4351   1.353   1.676   3.600
 1406SOL     OW 4352   1.372   2.863   1.109
 1406SOL    HW1 4353   1.333   2.916   1.179
 1406SOL    HW2 4354   1.424   2.797   1.154
 1407SOL     OW 4355   2.973   2.532   3.827
 1407SOL    HW1 4356   2.998   2.575   3.909
 1407SOL    HW2 4357   2.912   2.463   3.854
 1408SOL     OW 4358   0.600   2.161   0.955
 1408SOL    HW1 4359   0.635   2.182   1.041
 1408SOL    HW2 4360   0.667   2.192   0.894
 1409SOL     OW 4361   1.461   3.026   3.642
 1409SOL    HW1 4362   1.410   2.991   3.568
 1409SOL    HW2 4363   1.552   3.015   3.615
 1410SOL     OW 4364   2.510   1.100   3.228
 1410SOL    HW1 4365   2.510   1.017   3.180
 1410SOL    HW2 4366   2.479   1.077   3.316
 1411SOL     OW 4367   0.397   0.593   3.444
 1411SOL    HW1 4368   0.390   0.570   3.352
 1411SOL    HW2 4369   0.365   0.684   3.449
 1412SOL     OW 4370   1.701   1.438   2.275
 1412SOL    HW1 4371   1.651   1.519   2.283
 1412SOL    HW2 4372   1.790   1.462   2.302
 1413SOL     OW 4373   3.050   3.664   1.127
 1413SOL    HW1 4374   2.965   3.695   1.158
 1413SOL    HW2 4375   3.038   3.651   1.033
 1414SOL     OW 4376   1.324   3.151   2.758
 1414SOL    HW1 4377   1.407   3.152   2.805
 1414SOL    HW2 4378   1.300   3.058   2.752
 1415SOL     OW 4379   0.882   0.068   2.345
 1415SOL    HW1 4380   0.968   0.102   2.367
 1415SOL    HW2 4381   0.871   0.088   2.252
 1416SOL     OW 4382   3.088   0.865   1.036
 1416SOL    HW1 4383   3.082   0.886   1.129
 1416SOL    HW2 4384   3.176   0.828   1.026
 1417SOL     OW 4385   1.289   2.536   0.665
 1417SOL    HW1 4386   1.378   2.527   0.698
 1417SOL    HW2 4387   1.299   2.582   0.582
 1418SOL     OW 4388   2.108   3.190   3.308
 1418SOL    HW1 4389   2.197   3.193   3.343
 1418SOL    HW2 4390   2.111   3.246   3.230
 1419SOL     OW 4391   0.697   2.574   3.248
 1419SOL    HW1 4392   0.625   2.627   3.282
 1419SOL    HW2 4393   0.763   2.638   3.220
 1420SOL     OW 4394   3.326   1.710   1.856
 1420SOL    HW1 4395   3.354   1.774   1.921
 1420SOL    HW2 4396   3.265   1.653   1.902
 1421SOL     OW 4397   2.556   2.321   0.078
 1421SOL    HW1 4398   2.531   2.394   0.135
 1421SOL    HW2 4399   2.649   2.335   0.059
 1422SOL     OW 4400   0.811   2.670   0.333
 1422SOL    HW1 4401   0.836   2.709   0.417
 1422SOL    HW2 4402   0.751   2.734   0.294
 1423SOL     OW 4403   3.935   1.433   1.404
 1423SOL    HW1 4404   3.878   1.404   1.333
 1423SOL    HW2 4405   3.968   1.518   1.375
 1424SOL     OW 4406   2.398   2.233   2.783
 1424SOL    HW1 4407   2.474   2.187   2.747
 1424SOL    HW2 4408   2.353   2.269   2.706
 1425SOL     OW 4409   0.592   0.718   3.660
 1425SOL    HW1 4410   0.577   0.697   3.752
 1425SOL    HW2 4411   0.515   0.682   3.615
 1426SOL     OW 4412   1.426   3.323   3.635
 1426SOL    HW1 4413   1.436   3.234   3.669
 1426SOL    HW2 4414   1.484   3.376   3.689
 1427SOL     OW 4415   2.225   1.008   2.133
 1427SOL    HW1 4416   2.234   0.995   2.038
 1427SOL    HW2 4417   2.131   1.004   2.149
 1428SOL     OW 4418   3.215   1.995   3.052
 1428SOL    HW1 4419   3.186   1.906   3.036
 1428SOL    HW2 4420   3.285   1.986   3.117
 1429SOL     OW 4421   0.626   1.946   0.453
 1429SOL    HW1 4422   0.573   2.011   0.406
 1429SOL    HW2 4423   0.593   1.862   0.422
 1430SOL     OW 4424   2.702   0.242   1.575
 1430SOL    HW1 4425   2.629   0.291   1.536
 1430SOL    HW2 4426   2.760   0.309   1.611
 1431SOL     OW 4427   3.493   0.948   1.294
 1431SOL    HW1 4428   3.443   0.979   1.219
 1431SOL    HW2 4429   3.584   0.946   1.264
 1432SOL     OW 4430   0.851   0.152   3.671
 1432SOL    HW1 4431   0.757   0.163   3.658
 1432SOL    HW2 4432   0.885   0.242   3.674
 1433SOL     OW 4433   3.720   2.017   1.397
 1433SOL    HW1 4434   3.683   2.097   1.359
 1433SOL    HW2 4435   3.661   1.947   1.368
 1434SOL     OW 4436   1.825   2.957   0.241
 1434SOL    HW1 4437   1.764   2.883   0.235
 1434SOL    HW2 4438   1.910   2.920   0.219
 1435SOL     OW 4439   3.574   1.445   2.926
 1435SOL    HW1 4440   3.623   1.446   2.844
 1435SOL    HW2 4441   3.634   1.406   2.990
 1436SOL     OW 4442   0.127   0.026   3.363
 1436SOL    HW1 4443   0.082   0.099   3.322
 1436SOL    HW2 4444   0.075   0.006   3.441
 1437SOL     OW 4445   1.821   2.719   2.152
 1437SOL    HW1 4446   1.830   2.627   2.177
 1437SOL    HW2 4447   1.898   2.736   2.098
 1438SOL     OW 4448   0.082   2.902   0.613
 1438SOL    HW1 4449   0.112   2.870   0.698
 1438SOL    HW2 4450   0.157   2.950   0.578
 1439SOL     OW 4451   3.116   2.651   0.837
 1439SOL    HW1 4452   3.152   2.564   0.820
 1439SOL    HW2 4453   3.096   2.651   0.931
 1440SOL     OW 4454   2.149   2.859   2.773
 1440SOL    HW1 4455   2.215   2.832   2.837
 1440SOL    HW2 4456   2.068   2.820   2.805
 1441SOL     OW 4457   2.776   3.053   3.448
 1441SOL    HW1 4458   2.812   3.104   3.521
 1441SOL    HW2 4459   2.739   2.975   3.489
 1442SOL     OW 4460   0.708   3.616   0.091
 1442SOL    HW1 4461   0.730   3.634   0.182
 1442SOL    HW2 4462   0.730   3.696   0.044
 1443SOL     OW 4463   2.329   2.726   2.981
 1443SOL    HW1 4464   2.296   2.707   3.069
 1443SOL    HW2 4465   2.424   2.725   2.990
 1444SOL     OW 4466   1.057   0.781   3.677
 1444SOL    HW1 4467   1.082   0.696   3.714
 1444SOL    HW2 4468   1.119   0.796   3.606
 1445SOL     OW 4469   3.821   1.353   0.770
 1445SOL    HW1 4470   3.837   1.448   0.774
 1445SOL    HW2 4471   3.849   1.321   0.856
 1446SOL     OW 4472   2.051   2.530   2.040
 1446SOL    HW1 4473   2.139   2.494   2.028
 1446SOL    HW2 4474   2.065   2.619   2.072
 1447SOL     OW 4475   2.995   3.302   0.507
 1447SOL    HW1 4476   3.020   3.392   0.529
 1447SOL    HW2 4477   3.053   3.278   0.434
 1448SOL     OW 4478   1.914   2.019   3.641
 1448SOL    HW1 4479   1.835   2.067   3.618
 1448SOL    HW2 4480   1.914   2.016   3.736
 1449SOL     OW 4481   2.722   0.948   0.401
 1449SOL    HW1 4482   2.726   0.854   0.382
 1449SOL    HW2 4483   2.792   0.962   0.465
 1450SOL     OW 4484   1.778   0.044   2.033
 1450SOL    HW1 4485   1.809  -0.026   2.089
 1450SOL    HW2 4486   1.798   0.014   1.944
 1451SOL     OW 4487   1.741   2.563   3.721
 1451SOL    HW1 4488   1.659   2.547   3.674
 1451SOL    HW2 4489   1.779   2.639   3.677
 1452SOL     OW 4490   3.695   1.325   3.449
 1452SOL    HW1 4491   3.755   1.257   3.417
 1452SOL    HW2 4492   3.736   1.356   3.530
 1453SOL     OW 4493   0.929   1.270   3.696
 1453SOL    HW1 4494   0.989   1.344   3.698
 1453SOL    HW2 4495   0.859   1.295   3.756
 1454SOL     OW 4496   2.695   3.464   1.519
 1454SOL    HW1 4497   2.777   3.499   1.552
 1454SOL    HW2 4498   2.641   3.451   1.597
 1455SOL     OW 4499   3.390   1.072   1.061
 1455SOL    HW1 4500   3.403   1.167   1.062
 1455SOL    HW2 4501   3.340   1.056   0.981
 1456SOL     OW 4502   2.112   0.964   3.805
 1456SOL    HW1 4503   2.205   0.947   3.817
 1456SOL    HW2 4504   2.078   0.977   3.894
 1457SOL     OW 4505   2.760   3.212   0.603
 1457SOL    HW1 4506   2.845   3.255   0.596
 1457SOL    HW2 4507   2.762   3.167   0.687
 1458SOL     OW 4508   3.629   1.810   1.151
 1458SOL    HW1 4509   3.650   1.739   1.210
 1458SOL    HW2 4510   3.683   1.795   1.074
 1459SOL     OW 4511   0.097   2.705   1.659
 1459SOL    HW1 4512   0.070   2.775   1.718
 1459SOL    HW2 4513   0.015   2.667   1.628
 1460SOL     OW 4514   0.911   2.858   3.371
 1460SOL    HW1 4515   0.848   2.875   3.301
 1460SOL    HW2 4516   0.994   2.891   3.337
 1461SOL     OW 4517   0.977   0.818   1.487
 1461SOL    HW1 4518   1.055   0.786   1.532
 1461SOL    HW2 4519   1.004   0.900   1.446
 1462SOL     OW 4520   2.441   0.443   1.313
 1462SOL    HW1 4521   2.429   0.427   1.219
 1462SOL    HW2 4522   2.513   0.506   1.318
 1463SOL     OW 4523   3.674   1.844   3.253
 1463SOL    HW1 4524   3.730   1.882   3.185
 1463SOL    HW2 4525   3.706   1.754   3.262
 1464SOL     OW 4526   2.733   3.214   2.907
 1464SOL    HW1 4527   2.717   3.306   2.929
 1464SOL    HW2 4528   2.690   3.165   2.977
 1465SOL     OW 4529   3.276   2.954   1.945
 1465SOL    HW1 4530   3.204   3.014   1.928
 1465SOL    HW2 4531   3.349   2.988   1.895
 1466SOL     OW 4532   2.222   0.392   3.658
 1466SOL    HW1 4533   2.290   0.421   3.598
 1466SOL    HW2 4534   2.250   0.424   3.744
 1467SOL     OW 4535   0.148   3.636   2.712
 1467SOL    HW1 4536   0.207   3.699   2.670
 1467SOL    HW2 4537   0.061   3.666   2.688
 1468SOL     OW 4538   0.656   0.048   0.027
 1468SOL    HW1 4539   0.653   0.077  -0.064
 1468SOL    HW2 4540   0.565   0.053   0.056
 1469SOL     OW 4541   0.729   0.209   0.535
 1469SOL    HW1 4542   0.706   0.124   0.497
 1469SOL    HW2 4543   0.823   0.218   0.520
 1470SOL     OW 4544   0.210   0.413   3.754
 1470SOL    HW1 4545   0.258   0.337   3.787
 1470SOL    HW2 4546   0.177   0.386   3.669
 1471SOL     OW 4547   1.207   2.385   0.980
 1471SOL    HW1 4548   1.163   2.376   1.065
 1471SOL    HW2 4549   1.136   2.396   0.917
 1472SOL     OW 4550   1.519   2.431   1.046
 1472SOL    HW1 4551   1.449   2.372   1.017
 1472SOL    HW2 4552   1.600   2.388   1.019
 1473SOL     OW 4553   1.871   3.952   1.196
 1473SOL    HW1 4554   1.834   4.017   1.256
 1473SOL    HW2 4555   1.909   3.886   1.254
 1474SOL     OW 4556   3.868   0.343   2.397
 1474SOL    HW1 4557   3.952   0.377   2.429
 1474SOL    HW2 4558   3.835   0.290   2.469
 1475SOL     OW 4559   1.675   3.667   1.857
 1475SOL    HW1 4560   1.757   3.667   1.807
 1475SOL    HW2 4561   1.701   3.637   1.944
 1476SOL     OW 4562   2.688   2.227   1.348
 1476SOL    HW1 4563   2.682   2.223   1.252
 1476SOL    HW2 4564   2.748   2.157   1.371
 1477SOL     OW 4565   2.411   0.211   1.596
 1477SOL    HW1 4566   2.406   0.146   1.526
 1477SOL    HW2 4567   2.456   0.167   1.667
 1478SOL     OW 4568   1.085   2.861   2.967
 1478SOL    HW1 4569   1.064   2.768   2.969
 1478SOL    HW2 4570   1.134   2.877   3.047
 1479SOL     OW 4571   1.943   0.806   0.995
 1479SOL    HW1 4572   1.927   0.759   1.077
 1479SOL    HW2 4573   2.028   0.774   0.965
 1480SOL     OW 4574   1.571   0.443   1.055
 1480SOL    HW1 4575   1.514   0.502   1.105
 1480SOL    HW2 4576   1.630   0.405   1.120
 1481SOL     OW 4577   3.107   3.049   2.790
 1481SOL    HW1 4578   3.157   3.127   2.812
 1481SOL    HW2 4579   3.068   3.068   2.704
 1482SOL     OW 4580   1.077   2.586   2.974
 1482SOL    HW1 4581   1.010   2.518   2.977
 1482SOL    HW2 4582   1.116   2.585   3.061
 1483SOL     OW 4583   1.386   0.415   1.324
 1483SOL    HW1 4584   1.433   0.411   1.407
 1483SOL    HW2 4585   1.338   0.333   1.319
 1484SOL     OW 4586   2.661   2.075   0.160
 1484SOL    HW1 4587   2.652   2.085   0.255
 1484SOL    HW2 4588   2.613   2.149   0.124
 1485SOL     OW 4589   3.323   3.654   2.526
 1485SOL    HW1 4590   3.354   3.709   2.598
 1485SOL    HW2 4591   3.361   3.694   2.448
 1486SOL     OW 4592   0.984   3.641   3.754
 1486SOL    HW1 4593   1.026   3.716   3.711
 1486SOL    HW2 4594   1.028   3.635   3.839
 1487SOL     OW 4595   0.772   1.773   1.079
 1487SOL    HW1 4596   0.767   1.684   1.044
 1487SOL    HW2 4597   0.862   1.800   1.061
 1488SOL     OW 4598   2.018   2.030   0.277
 1488SOL    HW1 4599   1.985   1.946   0.246
 1488SOL    HW2 4600   2.084   2.055   0.213
 1489SOL     OW 4601   2.902   0.305   2.541
 1489SOL    HW1 4602   2.841   0.378   2.550
 1489SOL    HW2 4603   2.849   0.227   2.556
 1490SOL     OW 4604   2.388   3.638   1.558
 1490SOL    HW1 4605   2.373   3.597   1.473
 1490SOL    HW2 4606   2.483   3.636   1.569
 1491SOL     OW 4607   1.982   1.803   3.460
 1491SOL    HW1 4608   1.946   1.882   3.501
 1491SOL    HW2 4609   1.973   1.736   3.528
 1492SOL     OW 4610   1.622   2.056   2.370
 1492SOL    HW1 4611   1.676   1.980   2.389
 1492SOL    HW2 4612   1.542   2.019   2.330
 1493SOL     OW 4613   3.359   1.813   2.719
 1493SOL    HW1 4614   3.303   1.765   2.779
 1493SOL    HW2 4615   3.422   1.858   2.776
 1494SOL     OW 4616   2.048   3.820   0.570
 1494SOL    HW1 4617   1.961   3.797   0.603
 1494SOL    HW2 4618   2.032   3.874   0.493
 1495SOL     OW 4619   2.060   1.774   1.365
 1495SOL    HW1 4620   2.036   1.715   1.293
 1495SOL    HW2 4621   1.976   1.810   1.395
 1496SOL     OW 4622   2.119   3.474   3.732
 1496SOL    HW1 4623   2.137   3.476   3.638
 1496SOL    HW2 4624   2.026   3.450   3.738
 1497SOL     OW 4625   1.069   1.768   1.959
 1497SOL    HW1 4626   1.098   1.840   1.903
 1497SOL    HW2 4627   1.023   1.708   1.899
 1498SOL     OW 4628   1.919   2.205   2.286
 1498SOL    HW1 4629   1.857   2.148   2.332
 1498SOL    HW2 4630   1.933   2.161   2.202
 1499SOL     OW 4631   0.580   0.169   3.671
 1499SOL    HW1 4632   0.543   0.081   3.667
 1499SOL    HW2 4633   0.548   0.212   3.592
 1500SOL     OW 4634   2.982   1.005   0.841
 1500SOL    HW1 4635   2.975   1.095   0.873
 1500SOL    HW2 4636   3.022   0.957   0.913
 1501SOL     OW 4637   1.203   3.338   1.971
 1501SOL    HW1 4638   1.234   3.331   2.062
 1501SOL    HW2 4639   1.236   3.423   1.942
 1502SOL     OW 4640   2.592   1.430   3.478
 1502SOL    HW1 4641   2.661   1.487   3.511
 1502SOL    HW2 4642   2.610   1.420   3.385
 1503SOL     OW 4643   2.612   2.245   0.414
 1503SOL    HW1 4644   2.620   2.165   0.466
 1503SOL    HW2 4645   2.536   2.290   0.451
 1504SOL     OW 4646   0.773   2.352   3.390
 1504SOL    HW1 4647   0.738   2.436   3.362
 1504SOL    HW2 4648   0.733   2.288   3.331
 1505SOL     OW 4649   0.667   3.399   3.173
 1505SOL    HW1 4650   0.649   3.351   3.092
 1505SOL    HW2 4651   0.659   3.491   3.149
 1506SOL     OW 4652   0.045   0.108   1.299
 1506SOL    HW1 4653   0.021   0.199   1.286
 1506SOL    HW2 4654   0.012   0.087   1.387
 1507SOL     OW 4655   0.946   3.313   0.918
 1507SOL    HW1 4656   0.960   3.254   0.992
 1507SOL    HW2 4657   0.870   3.278   0.872
 1508SOL     OW 4658   0.399   0.376   2.864
 1508SOL    HW1 4659   0.399   0.300   2.922
 1508SOL    HW2 4660   0.406   0.339   2.776
 1509SOL     OW 4661   1.290   2.124   1.344
 1509SOL    HW1 4662   1.215   2.071   1.373
 1509SOL    HW2 4663   1.251   2.193   1.291
 1510SOL     OW 4664   0.969   0.333   1.115
 1510SOL    HW1 4665   0.940   0.263   1.057
 1510SOL    HW2 4666   0.908   0.405   1.099
 1511SOL     OW 4667   3.075   1.236   0.292
 1511SOL    HW1 4668   3.137   1.191   0.349
 1511SOL    HW2 4669   3.081   1.188   0.209
 1512SOL     OW 4670   2.534   2.496   2.144
 1512SOL    HW1 4671   2.508   2.588   2.145
 1512SOL    HW2 4672   2.454   2.448   2.123
 1513SOL     OW 4673   1.060   2.564   0.293
 1513SOL    HW1 4674   0.979   2.615   0.296
 1513SOL    HW2 4675   1.092   2.574   0.203
 1514SOL     OW 4676   0.483   0.201   2.147
 1514SOL    HW1 4677   0.507   0.145   2.073
 1514SOL    HW2 4678   0.449   0.281   2.108
 1515SOL     OW 4679   3.865   3.250   0.635
 1515SOL    HW1 4680   3.897   3.226   0.548
 1515SOL    HW2 4681   3.787   3.303   0.619
 1516SOL     OW 4682   3.760   2.486   1.048
 1516SOL    HW1 4683   3.694   2.423   1.079
 1516SOL    HW2 4684   3.756   2.558   1.111
 1517SOL     OW 4685   1.890   0.379   1.505
 1517SOL    HW1 4686   1.945   0.389   1.583
 1517SOL    HW2 4687   1.913   0.292   1.471
 1518SOL     OW 4688   0.885   0.072   1.793
 1518SOL    HW1 4689   0.839   0.049   1.712
 1518SOL    HW2 4690   0.972   0.035   1.783
 1519SOL     OW 4691   0.053   1.560   3.158
 1519SOL    HW1 4692   0.117   1.631   3.156
 1519SOL    HW2 4693  -0.025   1.598   3.199
 1520SOL     OW 4694   3.918   1.955   2.138
 1520SOL    HW1 4695   3.894   2.047   2.151
 1520SOL    HW2 4696   3.919   1.917   2.226
 1521SOL     OW 4697   0.740   3.653   0.363
 1521SOL    HW1 4698   0.833   3.630   0.368
 1521SOL    HW2 4699   0.697   3.590   0.422
 1522SOL     OW 4700   1.984   3.509   3.151
 1522SOL    HW1 4701   1.890   3.503   3.168
 1522SOL    HW2 4702   2.010   3.591   3.192
 1523SOL     OW 4703   3.764   1.320   1.200
 1523SOL    HW1 4704   3.678   1.353   1.174
 1523SOL    HW2 4705   3.818   1.333   1.122
 1524SOL     OW 4706   3.476   3.006   1.716
 1524SOL    HW1 4707   3.430   3.088   1.696
 1524SOL    HW2 4708   3.552   3.007   1.657
 1525SOL     OW 4709   2.016   1.024   2.408
 1525SOL    HW1 4710   1.957   1.055   2.340
 1525SOL    HW2 4711   2.003   1.084   2.481
 1526SOL     OW 4712   1.289   1.992   3.922
 1526SOL    HW1 4713   1.331   2.007   3.838
 1526SOL    HW2 4714   1.337   1.919   3.961
 1527SOL     OW 4715   1.269   3.515   3.087
 1527SOL    HW1 4716   1.254   3.560   3.170
 1527SOL    HW2 4717   1.329   3.572   3.039
 1528SOL     OW 4718   1.108   1.690   0.333
 1528SOL    HW1 4719   1.122   1.647   0.248
 1528SOL    HW2 4720   1.038   1.640   0.374
 1529SOL     OW 4721   0.399   0.362   1.440
 1529SOL    HW1 4722   0.363   0.298   1.500
 1529SOL    HW2 4723   0.488   0.377   1.470
 1530SOL     OW 4724   3.812   2.567   3.212
 1530SOL    HW1 4725   3.769   2.618   3.144
 1530SOL    HW2 4726   3.845   2.632   3.274
 1531SOL     OW 4727   1.589   0.343   0.569
 1531SOL    HW1 4728   1.659   0.401   0.541
 1531SOL    HW2 4729   1.614   0.257   0.535
 1532SOL     OW 4730   0.922   0.805   0.332
 1532SOL    HW1 4731   0.913   0.721   0.287
 1532SOL    HW2 4732   0.839   0.815   0.380
 1533SOL     OW 4733   0.478   2.103   2.922
 1533SOL    HW1 4734   0.407   2.040   2.929
 1533SOL    HW2 4735   0.449   2.164   2.854
 1534SOL     OW 4736   3.871   3.934   3.557
 1534SOL    HW1 4737   3.884   3.867   3.624
 1534SOL    HW2 4738   3.796   3.902   3.506
 1535SOL     OW 4739   1.473   3.728   0.165
 1535SOL    HW1 4740   1.467   3.725   0.070
 1535SOL    HW2 4741   1.399   3.784   0.191
 1536SOL     OW 4742   0.330   0.878   3.438
 1536SOL    HW1 4743   0.417   0.912   3.423
 1536SOL    HW2 4744   0.281   0.951   3.475
 1537SOL     OW 4745   1.184   2.374   1.644
 1537SOL    HW1 4746   1.197   2.467   1.623
 1537SOL    HW2 4747   1.146   2.375   1.732
 1538SOL     OW 4748   2.001   0.049   2.712
 1538SOL    HW1 4749   2.047  -0.028   2.677
 1538SOL    HW2 4750   1.973   0.097   2.634
 1539SOL     OW 4751   1.423   1.155   1.923
 1539SOL    HW1 4752   1.397   1.082   1.867
 1539SOL    HW2 4753   1.405   1.233   1.871
 1540SOL     OW 4754   2.397   3.020   3.311
 1540SOL    HW1 4755   2.369   3.040   3.221
 1540SOL    HW2 4756   2.407   2.925   3.312
 1541SOL     OW 4757   3.392   1.171   2.884
 1541SOL    HW1 4758   3.454   1.243   2.870
 1541SOL    HW2 4759   3.369   1.142   2.796
 1542SOL     OW 4760   3.331   0.179   1.207
 1542SOL    HW1 4761   3.402   0.183   1.144
 1542SOL    HW2 4762   3.269   0.246   1.178
 1543SOL     OW 4763   2.202   3.694   2.089
 1543SOL    HW1 4764   2.170   3.707   2.179
 1543SOL    HW2 4765   2.187   3.601   2.071
 1544SOL     OW 4766   2.515   3.348   1.725
 1544SOL    HW1 4767   2.490   3.374   1.813
 1544SOL    HW2 4768   2.433   3.324   1.682
 1545SOL     OW 4769   1.854   3.335   0.063
 1545SOL    HW1 4770   1.841   3.417   0.015
 1545SOL    HW2 4771   1.855   3.362   0.155
 1546SOL     OW 4772   0.320   1.238   3.913
 1546SOL    HW1 4773   0.367   1.233   3.996
 1546SOL    HW2 4774   0.252   1.171   3.920
 1547SOL     OW 4775   3.168   2.559   2.321
 1547SOL    HW1 4776   3.262   2.551   2.330
 1547SOL    HW2 4777   3.134   2.471   2.335
 1548SOL     OW 4778   0.818   2.410   2.763
 1548SOL    HW1 4779   0.754   2.346   2.732
 1548SOL    HW2 4780   0.782   2.441   2.847
 1549SOL     OW 4781   1.316   1.369   0.799
 1549SOL    HW1 4782   1.342   1.434   0.865
 1549SOL    HW2 4783   1.288   1.421   0.724
 1550SOL     OW 4784   3.066   1.858   3.824
 1550SOL    HW1 4785   3.077   1.897   3.737
 1550SOL    HW2 4786   3.155   1.850   3.858
 1551SOL     OW 4787   0.911   2.956   0.886
 1551SOL    HW1 4788   0.928   2.917   0.972
 1551SOL    HW2 4789   0.988   2.935   0.834
 1552SOL     OW 4790   2.948   3.203   2.297
 1552SOL    HW1 4791   2.998   3.176   2.374
 1552SOL    HW2 4792   2.945   3.299   2.303
 1553SOL     OW 4793   1.564   0.908   2.449
 1553SOL    HW1 4794   1.577   0.858   2.369
 1553SOL    HW2 4795   1.570   1.000   2.422
 1554SOL     OW 4796   0.585   3.796   2.236
 1554SOL    HW1 4797   0.616   3.800   2.327
 1554SOL    HW2 4798   0.665   3.796   2.183
 1555SOL     OW 4799   1.931   1.461   1.593
 1555SOL    HW1 4800   1.919   1.510   1.675
 1555SOL    HW2 4801   2.014   1.414   1.606
 1556SOL     OW 4802   0.708   3.442   1.302
 1556SOL    HW1 4803   0.671   3.374   1.246
 1556SOL    HW2 4804   0.795   3.411   1.324
 1557SOL     OW 4805   1.797   0.655   0.523
 1557SOL    HW1 4806   1.708   0.689   0.526
 1557SOL    HW2 4807   1.831   0.669   0.611
 1558SOL     OW 4808   2.647   2.061   2.958
 1558SOL    HW1 4809   2.585   2.106   3.015
 1558SOL    HW2 4810   2.732   2.098   2.981
 1559SOL     OW 4811   3.175   3.797   0.792
 1559SOL    HW1 4812   3.196   3.820   0.882
 1559SOL    HW2 4813   3.102   3.854   0.769
 1560SOL     OW 4814   3.170   1.719   2.969
 1560SOL    HW1 4815   3.086   1.673   2.975
 1560SOL    HW2 4816   3.220   1.689   3.045
 1561SOL     OW 4817   0.951   2.355   3.115
 1561SOL    HW1 4818   1.046   2.353   3.127
 1561SOL    HW2 4819   0.915   2.313   3.193
 1562SOL     OW 4820   3.546   3.192   3.423
 1562SOL    HW1 4821   3.624   3.201   3.477
 1562SOL    HW2 4822   3.572   3.136   3.350
 1563SOL     OW 4823   0.680   1.112   1.959
 1563SOL    HW1 4824   0.622   1.100   1.884
 1563SOL    HW2 4825   0.647   1.051   2.025
 1564SOL     OW 4826   2.583   1.669   0.898
 1564SOL    HW1 4827   2.605   1.749   0.946
 1564SOL    HW2 4828   2.662   1.615   0.905
 1565SOL     OW 4829   2.447   1.735   3.275
 1565SOL    HW1 4830   2.529   1.691   3.251
 1565SOL    HW2 4831   2.415   1.686   3.350
 1566SOL     OW 4832   0.394   0.932   2.897
 1566SOL    HW1 4833   0.399   0.839   2.878
 1566SOL    HW2 4834   0.441   0.974   2.825
 1567SOL     OW 4835   2.518   2.996   1.543
 1567SOL    HW1 4836   2.436   2.946   1.545
 1567SOL    HW2 4837   2.558   2.978   1.628
 1568SOL     OW 4838   2.623   3.484   1.037
 1568SOL    HW1 4839   2.577   3.515   0.959
 1568SOL    HW2 4840   2.626   3.389   1.026
 1569SOL     OW 4841   0.081   3.852   1.146
 1569SOL    HW1 4842   0.169   3.866   1.112
 1569SOL    HW2 4843   0.061   3.933   1.194
 1570SOL     OW 4844   3.305   2.257   3.720
 1570SOL    HW1 4845   3.391   2.270   3.760
 1570SOL    HW2 4846   3.258   2.203   3.783
 1571SOL     OW 4847   0.608   0.696   2.174
 1571SOL    HW1 4848   0.527   0.664   2.213
 1571SOL    HW2 4849   0.668   0.622   2.178
 1572SOL     OW 4850   1.856   3.304   2.572
 1572SOL    HW1 4851   1.827   3.288   2.482
 1572SOL    HW2 4852   1.925   3.240   2.586
 1573SOL     OW 4853   3.416   3.800   1.902
 1573SOL    HW1 4854   3.496   3.794   1.849
 1573SOL    HW2 4855   3.385   3.889   1.887
 1574SOL     OW 4856   2.908   1.004   0.592
 1574SOL    HW1 4857   2.918   0.994   0.687
 1574SOL    HW2 4858   2.963   0.935   0.554
 1575SOL     OW 4859   3.738   2.326   0.678
 1575SOL    HW1 4860   3.696   2.361   0.599
 1575SOL    HW2 4861   3.812   2.274   0.644
 1576SOL     OW 4862   1.476   3.209   2.471
 1576SOL    HW1 4863   1.429   3.209   2.554
 1576SOL    HW2 4864   1.494   3.117   2.453
 1577SOL     OW 4865   0.761   2.470   1.936
 1577SOL    HW1 4866   0.785   2.508   2.020
 1577SOL    HW2 4867   0.678   2.512   1.914
 1578SOL     OW 4868   3.836   2.591   0.745
 1578SOL    HW1 4869   3.799   2.503   0.748
 1578SOL    HW2 4870   3.850   2.608   0.652
 1579SOL     OW 4871   3.885   2.259   0.993
 1579SOL    HW1 4872   3.831   2.180   1.000
 1579SOL    HW2 4873   3.821   2.330   0.985
 1580SOL     OW 4874   1.149   3.023   0.469
 1580SOL    HW1 4875   1.055   3.014   0.456
 1580SOL    HW2 4876   1.188   2.980   0.393
 1581SOL     OW 4877   0.296   0.723   0.239
 1581SOL    HW1 4878   0.231   0.789   0.216
 1581SOL    HW2 4879   0.268   0.645   0.192
 1582SOL     OW 4880   0.202   2.256   0.410
 1582SOL    HW1 4881   0.249   2.174   0.397
 1582SOL    HW2 4882   0.147   2.240   0.487
 1583SOL     OW 4883   2.600   3.749   2.418
 1583SOL    HW1 4884   2.624   3.732   2.327
 1583SOL    HW2 4885   2.683   3.755   2.465
 1584SOL     OW 4886   1.189   0.761   3.417
 1584SOL    HW1 4887   1.266   0.710   3.393
 1584SOL    HW2 4888   1.196   0.841   3.365
 1585SOL     OW 4889   0.063   0.496   0.048
 1585SOL    HW1 4890   0.092   0.488  -0.043
 1585SOL    HW2 4891  -0.025   0.534   0.043
 1586SOL     OW 4892   2.145   3.818   2.552
 1586SOL    HW1 4893   2.135   3.861   2.467
 1586SOL    HW2 4894   2.169   3.728   2.532
 1587SOL     OW 4895   0.787   0.516   3.897
 1587SOL    HW1 4896   0.748   0.436   3.934
 1587SOL    HW2 4897   0.825   0.487   3.814
 1588SOL     OW 4898   2.384   2.347   0.572
 1588SOL    HW1 4899   2.404   2.440   0.567
 1588SOL    HW2 4900   2.293   2.343   0.600
 1589SOL     OW 4901   2.742   2.392   2.831
 1589SOL    HW1 4902   2.744   2.365   2.923
 1589SOL    HW2 4903   2.737   2.487   2.833
 1590SOL     OW 4904   0.552   3.154   0.866
 1590SOL    HW1 4905   0.536   3.060   0.855
 1590SOL    HW2 4906   0.631   3.171   0.815
 1591SOL     OW 4907   0.248   1.052   2.121
 1591SOL    HW1 4908   0.226   1.012   2.206
 1591SOL    HW2 4909   0.286   1.137   2.144
 1592SOL     OW 4910   1.047   1.529   0.114
 1592SOL    HW1 4911   1.043   1.572   0.029
 1592SOL    HW2 4912   0.957   1.503   0.132
 1593SOL     OW 4913   1.131   2.673   0.840
 1593SOL    HW1 4914   1.194   2.652   0.771
 1593SOL    HW2 4915   1.125   2.769   0.840
 1594SOL     OW 4916   2.170   2.000   1.145
 1594SOL    HW1 4917   2.124   2.005   1.229
 1594SOL    HW2 4918   2.174   1.906   1.126
 1595SOL     OW 4919   3.528   1.714   2.951
 1595SOL    HW1 4920   3.613   1.748   2.926
 1595SOL    HW2 4921   3.538   1.619   2.952
 1596SOL     OW 4922   3.326   2.084   1.715
 1596SOL    HW1 4923   3.421   2.088   1.728
 1596SOL    HW2 4924   3.315   2.021   1.643
 1597SOL     OW 4925   0.487   0.291   0.338
 1597SOL    HW1 4926   0.549   0.268   0.407
 1597SOL    HW2 4927   0.404   0.303   0.385
 1598SOL     OW 4928   0.765   2.566   1.652
 1598SOL    HW1 4929   0.764   2.525   1.739
 1598SOL    HW2 4930   0.750   2.494   1.591
 1599SOL     OW 4931   3.726   0.650   1.275
 1599SOL    HW1 4932   3.640   0.627   1.239
 1599SOL    HW2 4933   3.758   0.569   1.314
 1600SOL     OW 4934   0.318   1.885   2.922
 1600SOL    HW1 4935   0.244   1.896   2.863
 1600SOL    HW2 4936   0.311   1.794   2.952
 1601SOL     OW 4937   3.872   3.741   0.952
 1601SOL    HW1 4938   3.934   3.802   0.992
 1601SOL    HW2 4939   3.801   3.733   1.016
 1602SOL     OW 4940   1.789   2.787   1.090
 1602SOL    HW1 4941   1.721   2.730   1.126
 1602SOL    HW2 4942   1.751   2.875   1.094
 1603SOL     OW 4943   1.287   3.645   1.984
 1603SOL    HW1 4944   1.301   3.650   2.078
 1603SOL    HW2 4945   1.195   3.670   1.973
 1604SOL     OW 4946   0.328   2.116   1.132
 1604SOL    HW1 4947   0.405   2.169   1.152
 1604SOL    HW2 4948   0.352   2.028   1.161
 1605SOL     OW 4949   2.559   2.887   0.465
 1605SOL    HW1 4950   2.643   2.845   0.442
 1605SOL    HW2 4951   2.526   2.837   0.539
 1606SOL     OW 4952   2.445   3.033   3.697
 1606SOL    HW1 4953   2.388   3.021   3.772
 1606SOL    HW2 4954   2.444   2.948   3.652
 1607SOL     OW 4955   0.340   3.523   3.932
 1607SOL    HW1 4956   0.416   3.468   3.951
 1607SOL    HW2 4957   0.348   3.543   3.838
 1608SOL     OW 4958   3.200   2.034   1.079
 1608SOL    HW1 4959   3.167   1.946   1.099
 1608SOL    HW2 4960   3.174   2.050   0.989
 1609SOL     OW 4961   1.803   0.524   3.848
 1609SOL    HW1 4962   1.827   0.538   3.940
 1609SOL    HW2 4963   1.836   0.602   3.803
 1610SOL     OW 4964   2.582   3.513   2.856
 1610SOL    HW1 4965   2.564   3.605   2.840
 1610SOL    HW2 4966   2.509   3.483   2.910
 1611SOL     OW 4967   0.917   1.793   2.840
 1611SOL    HW1 4968   0.832   1.812   2.801
 1611SOL    HW2 4969   0.965   1.745   2.772
 1612SOL     OW 4970   1.800   0.272   1.830
 1612SOL    HW1 4971   1.826   0.190   1.789
 1612SOL    HW2 4972   1.877   0.298   1.881
 1613SOL     OW 4973   2.337   3.382   2.479
 1613SOL    HW1 4974   2.429   3.388   2.452
 1613SOL    HW2 4975   2.340   3.393   2.575
 1614SOL     OW 4976   3.888   1.612   3.890
 1614SOL    HW1 4977   3.938   1.682   3.931
 1614SOL    HW2 4978   3.889   1.541   3.954
 1615SOL     OW 4979   0.828   0.218   2.734
 1615SOL    HW1 4980   0.843   0.202   2.827
 1615SOL    HW2 4981   0.815   0.312   2.727
 1616SOL     OW 4982   0.286   2.824   3.047
 1616SOL    HW1 4983   0.258   2.906   3.088
 1616SOL    HW2 4984   0.253   2.755   3.105
 1617SOL     OW 4985   1.182   0.529   1.163
 1617SOL    HW1 4986   1.124   0.453   1.160
 1617SOL    HW2 4987   1.227   0.521   1.248
 1618SOL     OW 4988   1.090   2.217   0.085
 1618SOL    HW1 4989   1.139   2.228   0.167
 1618SOL    HW2 4990   1.120   2.133   0.051
 1619SOL     OW 4991   2.652   0.107   2.658
 1619SOL    HW1 4992   2.564   0.107   2.619
 1619SOL    HW2 4993   2.686   0.020   2.639
 1620SOL     OW 4994   0.507   1.090   1.654
 1620SOL    HW1 4995   0.458   1.168   1.681
 1620SOL    HW2 4996   0.439   1.025   1.632
 1621SOL     OW 4997   1.094   2.261   0.366
 1621SOL    HW1 4998   1.013   2.211   0.369
 1621SOL    HW2 4999   1.070   2.342   0.321
 1622SOL     OW 5000   3.904   1.343   0.045
 1622SOL    HW1 5001   3.993   1.308   0.046
 1622SOL    HW2 5002   3.847   1.266   0.046
 1623SOL     OW 5003   3.551   0.686   0.518
 1623SOL    HW1 5004   3.588   0.759   0.469
 1623SOL    HW2 5005   3.586   0.608   0.473
 1624SOL     OW 5006   2.355   3.756   3.659
 1624SOL    HW1 5007   2.398   3.834   3.694
 1624SOL    HW2 5008   2.423   3.712   3.608
 1625SOL     OW 5009   2.257   1.331   2.199
 1625SOL    HW1 5010   2.333   1.385   2.218
 1625SOL    HW2 5011   2.285   1.242   2.218
 1626SOL     OW 5012   2.099   0.724   0.135
 1626SOL    HW1 5013   2.093   0.810   0.177
 1626SOL    HW2 5014   2.192   0.704   0.134
 1627SOL     OW 5015   3.518   2.505   0.874
 1627SOL    HW1 5016   3.493   2.535   0.786
 1627SOL    HW2 5017   3.609   2.477   0.865
 1628SOL     OW 5018   1.700   1.075   0.054
 1628SOL    HW1 5019   1.653   1.158   0.055
 1628SOL    HW2 5020   1.682   1.038  -0.032
 1629SOL     OW 5021   2.504   1.781   0.329
 1629SOL    HW1 5022   2.588   1.737   0.319
 1629SOL    HW2 5023   2.498   1.804   0.421
 1630SOL     OW 5024   1.984   1.160   1.864
 1630SOL    HW1 5025   2.035   1.235   1.895
 1630SOL    HW2 5026   2.040   1.120   1.797
 1631SOL     OW 5027   3.918   0.353   1.607
 1631SOL    HW1 5028   3.835   0.400   1.593
 1631SOL    HW2 5029   3.892   0.261   1.614
 1632SOL     OW 5030   0.651   2.111   2.124
 1632SOL    HW1 5031   0.654   2.113   2.028
 1632SOL    HW2 5032   0.743   2.116   2.151
 1633SOL     OW 5033   2.314   0.245   3.917
 1633SOL    HW1 5034   2.352   0.333   3.909
 1633SOL    HW2 5035   2.220   0.259   3.924
 1634SOL     OW 5036   3.167   3.642   3.221
 1634SOL    HW1 5037   3.249   3.679   3.190
 1634SOL    HW2 5038   3.152   3.565   3.166
 1635SOL     OW 5039   3.988   2.361   3.212
 1635SOL    HW1 5040   3.953   2.293   3.154
 1635SOL    HW2 5041   3.925   2.433   3.205
 1636SOL     OW 5042   2.999   1.583   3.723
 1636SOL    HW1 5043   3.082   1.552   3.685
 1636SOL    HW2 5044   3.020   1.669   3.759
 1637SOL     OW 5045   0.213   2.095   1.827
 1637SOL    HW1 5046   0.134   2.080   1.774
 1637SOL    HW2 5047   0.219   2.019   1.884
 1638SOL     OW 5048   3.158   2.398   0.238
 1638SOL    HW1 5049   3.135   2.488   0.211
 1638SOL    HW2 5050   3.083   2.345   0.210
 1639SOL     OW 5051   0.381   1.770   1.138
 1639SOL    HW1 5052   0.427   1.812   1.066
 1639SOL    HW2 5053   0.435   1.694   1.160
 1640SOL     OW 5054   1.244   3.762   0.294
 1640SOL    HW1 5055   1.188   3.823   0.342
 1640SOL    HW2 5056   1.237   3.680   0.343
 1641SOL     OW 5057   2.735   3.019   2.312
 1641SOL    HW1 5058   2.818   3.059   2.286
 1641SOL    HW2 5059   2.736   3.020   2.407
 1642SOL     OW 5060   1.748   0.133   0.113
 1642SOL    HW1 5061   1.679   0.128   0.047
 1642SOL    HW2 5062   1.813   0.070   0.084
 1643SOL     OW 5063   1.314   0.805   1.181
 1643SOL    HW1 5064   1.278   0.720   1.206
 1643SOL    HW2 5065   1.406   0.787   1.162
 1644SOL     OW 5066   3.384   1.211   3.159
 1644SOL    HW1 5067   3.379   1.223   3.065
 1644SOL    HW2 5068   3.432   1.129   3.171
 1645SOL     OW 5069   1.362   2.035   3.672
 1645SOL    HW1 5070   1.336   1.968   3.609
 1645SOL    HW2 5071   1.292   2.100   3.669
 1646SOL     OW 5072   1.012   2.312   1.887
 1646SOL    HW1 5073   0.969   2.290   1.970
 1646SOL    HW2 5074   0.953   2.277   1.820
 1647SOL     OW 5075   2.348   3.817   1.902
 1647SOL    HW1 5076   2.325   3.795   1.992
 1647SOL    HW2 5077   2.377   3.735   1.863
 1648SOL     OW 5078   2.749   2.588   2.006
 1648SOL    HW1 5079   2.710   2.541   1.933
 1648SOL    HW2 5080   2.693   2.567   2.081
 1649SOL     OW 5081   3.610   2.366   1.827
 1649SOL    HW1 5082   3.571   2.349   1.741
 1649SOL    HW2 5083   3.702   2.385   1.808
 1650SOL     OW 5084   2.171   2.887   0.607
 1650SOL    HW1 5085   2.081   2.855   0.611
 1650SOL    HW2 5086   2.198   2.874   0.516
 1651SOL     OW 5087   0.455   2.333   2.734
 1651SOL    HW1 5088   0.366   2.349   2.764
 1651SOL    HW2 5089   0.510   2.383   2.795
 1652SOL     OW 5090   2.159   2.774   0.355
 1652SOL    HW1 5091   2.107   2.840   0.309
 1652SOL    HW2 5092   2.140   2.692   0.309
 1653SOL     OW 5093   3.131   2.461   3.610
 1653SOL    HW1 5094   3.193   2.396   3.642
 1653SOL    HW2 5095   3.066   2.469   3.680
 1654SOL     OW 5096   0.728   1.953   1.866
 1654SOL    HW1 5097   0.767   1.866   1.876
 1654SOL    HW2 5098   0.641   1.935   1.828
 1655SOL     OW 5099   3.044   1.751   0.325
 1655SOL    HW1 5100   3.003   1.669   0.350
 1655SOL    HW2 5101   2.975   1.802   0.283
 1656SOL     OW 5102   1.286   1.688   2.531
 1656SOL    HW1 5103   1.254   1.610   2.486
 1656SOL    HW2 5104   1.251   1.681   2.620
 1657SOL     OW 5105   2.347   2.678   1.712
 1657SOL    HW1 5106   2.425   2.644   1.754
 1657SOL    HW2 5107   2.350   2.642   1.623
 1658SOL     OW 5108   3.817   2.610   3.821
 1658SOL    HW1 5109   3.876   2.676   3.786
 1658SOL    HW2 5110   3.753   2.660   3.872
 1659SOL     OW 5111   3.261   0.842   2.407
 1659SOL    HW1 5112   3.301   0.921   2.443
 1659SOL    HW2 5113   3.335   0.782   2.393
 1660SOL     OW 5114   3.702   2.593   0.167
 1660SOL    HW1 5115   3.692   2.680   0.128
 1660SOL    HW2 5116   3.767   2.550   0.112
 1661SOL     OW 5117   0.618   1.456   3.823
 1661SOL    HW1 5118   0.570   1.379   3.853
 1661SOL    HW2 5119   0.553   1.510   3.779
 1662SOL     OW 5120   0.458   1.918   3.609
 1662SOL    HW1 5121   0.483   1.891   3.697
 1662SOL    HW2 5122   0.419   2.005   3.621
 1663SOL     OW 5123   0.388   1.738   3.395
 1663SOL    HW1 5124   0.421   1.804   3.457
 1663SOL    HW2 5125   0.431   1.657   3.421
 1664SOL     OW 5126   1.752   0.747   1.634
 1664SOL    HW1 5127   1.836   0.792   1.631
 1664SOL    HW2 5128   1.749   0.706   1.721
 1665SOL     OW 5129   1.420   0.108   0.762
 1665SOL    HW1 5130   1.340   0.155   0.739
 1665SOL    HW2 5131   1.418   0.030   0.705
 1666SOL     OW 5132   3.617   2.811   3.280
 1666SOL    HW1 5133   3.586   2.808   3.371
 1666SOL    HW2 5134   3.576   2.737   3.238
 1667SOL     OW 5135   1.697   2.291   2.528
 1667SOL    HW1 5136   1.777   2.269   2.577
 1667SOL    HW2 5137   1.665   2.208   2.495
 1668SOL     OW 5138   1.802   1.864   0.553
 1668SOL    HW1 5139   1.771   1.892   0.639
 1668SOL    HW2 5140   1.766   1.928   0.492
 1669SOL     OW 5141   0.515   2.251   3.293
 1669SOL    HW1 5142   0.444   2.304   3.257
 1669SOL    HW2 5143   0.510   2.168   3.245
 1670SOL     OW 5144   0.969   1.051   3.507
 1670SOL    HW1 5145   0.960   1.137   3.549
 1670SOL    HW2 5146   0.895   1.000   3.540
 1671SOL     OW 5147   2.813   3.283   3.904
 1671SOL    HW1 5148   2.839   3.191   3.903
 1671SOL    HW2 5149   2.718   3.281   3.912
 1672SOL     OW 5150   0.228   3.688   0.477
 1672SOL    HW1 5151   0.190   3.602   0.465
 1672SOL    HW2 5152   0.313   3.684   0.433
 1673SOL     OW 5153   3.774   1.782   2.879
 1673SOL    HW1 5154   3.778   1.833   2.960
 1673SOL    HW2 5155   3.827   1.705   2.896
 1674SOL     OW 5156   3.444   2.002   3.217
 1674SOL    HW1 5157   3.507   1.932   3.238
 1674SOL    HW2 5158   3.448   2.061   3.292
 1675SOL     OW 5159   0.236   1.091   3.596
 1675SOL    HW1 5160   0.161   1.136   3.636
 1675SOL    HW2 5161   0.268   1.032   3.665
 1676SOL     OW 5162   3.379   0.945   0.115
 1676SOL    HW1 5163   3.388   0.910   0.026
 1676SOL    HW2 5164   3.286   0.969   0.121
 1677SOL     OW 5165   1.529   2.989   2.986
 1677SOL    HW1 5166   1.557   3.027   2.902
 1677SOL    HW2 5167   1.485   3.061   3.031
 1678SOL     OW 5168   3.550   2.592   1.500
 1678SOL    HW1 5169   3.646   2.587   1.491
 1678SOL    HW2 5170   3.525   2.505   1.531
 1679SOL     OW 5171   2.886   2.592   2.531
 1679SOL    HW1 5172   2.897   2.520   2.469
 1679SOL    HW2 5173   2.946   2.572   2.603
 1680SOL     OW 5174   1.060   1.406   2.118
 1680SOL    HW1 5175   1.034   1.331   2.065
 1680SOL    HW2 5176   1.143   1.434   2.080
 1681SOL     OW 5177   3.921   2.020   1.698
 1681SOL    HW1 5178   3.953   1.969   1.623
 1681SOL    HW2 5179   3.883   1.955   1.756
 1682SOL     OW 5180   2.149   1.223   2.854
 1682SOL    HW1 5181   2.077   1.188   2.905
 1682SOL    HW2 5182   2.206   1.266   2.918
 1683SOL     OW 5183   3.207   0.473   2.084
 1683SOL    HW1 5184   3.140   0.540   2.097
 1683SOL    HW2 5185   3.162   0.400   2.043
 1684SOL     OW 5186   2.861   0.507   1.671
 1684SOL    HW1 5187   2.863   0.478   1.762
 1684SOL    HW2 5188   2.953   0.506   1.643
 1685SOL     OW 5189   0.097   0.525   2.509
 1685SOL    HW1 5190   0.119   0.579   2.585
 1685SOL    HW2 5191   0.119   0.580   2.433
 1686SOL     OW 5192   3.392   0.175   1.460
 1686SOL    HW1 5193   3.313   0.214   1.498
 1686SOL    HW2 5194   3.377   0.178   1.365
 1687SOL     OW 5195   1.999   1.020   0.573
 1687SOL    HW1 5196   1.970   0.930   0.560
 1687SOL    HW2 5197   1.919   1.071   0.582
 1688SOL     OW 5198   1.580   2.239   3.893
 1688SOL    HW1 5199   1.649   2.179   3.866
 1688SOL    HW2 5200   1.558   2.211   3.983
 1689SOL     OW 5201   0.889   0.731   2.703
 1689SOL    HW1 5202   0.869   0.647   2.744
 1689SOL    HW2 5203   0.953   0.772   2.761
 1690SOL     OW 5204   1.589   1.921   0.729
 1690SOL    HW1 5205   1.498   1.909   0.756
 1690SOL    HW2 5206   1.641   1.905   0.808
 1691SOL     OW 5207   3.558   1.016   3.210
 1691SOL    HW1 5208   3.506   0.944   3.174
 1691SOL    HW2 5209   3.636   0.974   3.245
 1692SOL     OW 5210   2.215   3.924   2.301
 1692SOL    HW1 5211   2.267   3.847   2.276
 1692SOL    HW2 5212   2.259   3.997   2.257
 1693SOL     OW 5213   1.889   3.236   3.473
 1693SOL    HW1 5214   1.963   3.199   3.425
 1693SOL    HW2 5215   1.886   3.328   3.445
 1694SOL     OW 5216   0.334   2.663   0.156
 1694SOL    HW1 5217   0.310   2.739   0.104
 1694SOL    HW2 5218   0.268   2.597   0.134
 1695SOL     OW 5219   0.510   3.848   3.645
 1695SOL    HW1 5220   0.578   3.792   3.684
 1695SOL    HW2 5221   0.467   3.792   3.581
 1696SOL     OW 5222   1.297   1.634   0.929
 1696SOL    HW1 5223   1.246   1.707   0.893
 1696SOL    HW2 5224   1.383   1.642   0.887
 1697SOL     OW 5225   1.196   1.946   1.590
 1697SOL    HW1 5226   1.221   1.854   1.577
 1697SOL    HW2 5227   1.100   1.945   1.588
 1698SOL     OW 5228   3.561   3.512   3.175
 1698SOL    HW1 5229   3.639   3.504   3.119
 1698SOL    HW2 5230   3.583   3.462   3.253
 1699SOL     OW 5231   3.607   0.151   1.831
 1699SOL    HW1 5232   3.569   0.099   1.760
 1699SOL    HW2 5233   3.698   0.165   1.804
 1700SOL     OW 5234   3.809   3.416   0.054
 1700SOL    HW1 5235   3.897   3.391   0.024
 1700SOL    HW2 5236   3.824   3.463   0.136
 1701SOL     OW 5237   3.158   2.773   2.803
 1701SOL    HW1 5238   3.075   2.749   2.844
 1701SOL    HW2 5239   3.155   2.868   2.795
 1702SOL     OW 5240   2.543   3.234   0.158
 1702SOL    HW1 5241   2.544   3.185   0.241
 1702SOL    HW2 5242   2.472   3.194   0.108
 1703SOL     OW 5243   0.613   0.968   2.187
 1703SOL    HW1 5244   0.625   0.873   2.181
 1703SOL    HW2 5245   0.520   0.980   2.208
 1704SOL     OW 5246   2.838   2.746   3.654
 1704SOL    HW1 5247   2.887   2.678   3.701
 1704SOL    HW2 5248   2.765   2.767   3.711
 1705SOL     OW 5249   2.626   2.186   2.528
 1705SOL    HW1 5250   2.635   2.222   2.439
 1705SOL    HW2 5251   2.690   2.234   2.580
 1706SOL     OW 5252   2.521   2.457   1.198
 1706SOL    HW1 5253   2.583   2.453   1.125
 1706SOL    HW2 5254   2.563   2.407   1.268
 1707SOL     OW 5255   3.807  -0.032   3.152
 1707SOL    HW1 5256   3.756   0.038   3.193
 1707SOL    HW2 5257   3.881   0.014   3.112
 1708SOL     OW 5258   3.960   3.346   1.675
 1708SOL    HW1 5259   4.012   3.266   1.686
 1708SOL    HW2 5260   3.869   3.317   1.676
 1709SOL     OW 5261   0.139   3.049   3.172
 1709SOL    HW1 5262   0.077   3.101   3.121
 1709SOL    HW2 5263   0.197   3.114   3.212
 1710SOL     OW 5264   3.207   3.231   3.299
 1710SOL    HW1 5265   3.114   3.217   3.281
 1710SOL    HW2 5266   3.220   3.197   3.387
 1711SOL     OW 5267   0.341   3.068   2.671
 1711SOL    HW1 5268   0.416   3.016   2.699
 1711SOL    HW2 5269   0.363   3.096   2.582
 1712SOL     OW 5270   0.678   3.636   1.634
 1712SOL    HW1 5271   0.773   3.641   1.643
 1712SOL    HW2 5272   0.650   3.575   1.702
 1713SOL     OW 5273   0.566   3.386   3.941
 1713SOL    HW1 5274   0.612   3.465   3.971
 1713SOL    HW2 5275   0.636   3.324   3.922
 1714SOL     OW 5276   0.368   1.576   3.029
 1714SOL    HW1 5277   0.371   1.647   3.094
 1714SOL    HW2 5278   0.384   1.497   3.080
 1715SOL     OW 5279   3.385   3.581   0.401
 1715SOL    HW1 5280   3.361   3.588   0.493
 1715SOL    HW2 5281   3.309   3.617   0.354
 1716SOL     OW 5282   1.526   2.878   0.869
 1716SOL    HW1 5283   1.581   2.921   0.934
 1716SOL    HW2 5284   1.445   2.857   0.915
 1717SOL     OW 5285   0.692   3.357   3.600
 1717SOL    HW1 5286   0.700   3.293   3.529
 1717SOL    HW2 5287   0.707   3.306   3.680
 1718SOL     OW 5288   1.292   1.078   0.875
 1718SOL    HW1 5289   1.257   1.167   0.869
 1718SOL    HW2 5290   1.215   1.022   0.864
 1719SOL     OW 5291   1.704   0.179   0.793
 1719SOL    HW1 5292   1.616   0.158   0.763
 1719SOL    HW2 5293   1.706   0.274   0.798
 1720SOL     OW 5294   0.121   2.476   3.724
 1720SOL    HW1 5295   0.084   2.543   3.782
 1720SOL    HW2 5296   0.099   2.393   3.766
 1721SOL     OW 5297   2.344   2.248   3.410
 1721SOL    HW1 5298   2.307   2.160   3.403
 1721SOL    HW2 5299   2.438   2.236   3.403
 1722SOL     OW 5300   2.712   0.640   0.541
 1722SOL    HW1 5301   2.690   0.548   0.557
 1722SOL    HW2 5302   2.667   0.689   0.610
 1723SOL     OW 5303   3.478   0.426   2.164
 1723SOL    HW1 5304   3.392   0.444   2.126
 1723SOL    HW2 5305   3.458   0.382   2.247
 1724SOL     OW 5306   0.872   3.633   1.035
 1724SOL    HW1 5307   0.915   3.562   1.083
 1724SOL    HW2 5308   0.881   3.709   1.093
 1725SOL     OW 5309   1.545   1.032   1.654
 1725SOL    HW1 5310   1.621   1.086   1.678
 1725SOL    HW2 5311   1.571   0.987   1.575
 1726SOL     OW 5312   3.725   2.227   0.285
 1726SOL    HW1 5313   3.653   2.290   0.278
 1726SOL    HW2 5314   3.705   2.176   0.364
 1727SOL     OW 5315   3.571   2.793   1.867
 1727SOL    HW1 5316   3.514   2.721   1.839
 1727SOL    HW2 5317   3.518   2.872   1.853
 1728SOL     OW 5318   2.475   2.091   1.035
 1728SOL    HW1 5319   2.392   2.061   1.070
 1728SOL    HW2 5320   2.527   2.011   1.024
 1729SOL     OW 5321   2.990   3.038   3.034
 1729SOL    HW1 5322   2.897   3.018   3.024
 1729SOL    HW2 5323   3.029   3.018   2.949
 1730SOL     OW 5324   1.204   3.355   2.625
 1730SOL    HW1 5325   1.244   3.268   2.627
 1730SOL    HW2 5326   1.188   3.376   2.717
 1731SOL     OW 5327   1.084   3.479   2.378
 1731SOL    HW1 5328   1.100   3.444   2.466
 1731SOL    HW2 5329   1.105   3.406   2.319
 1732SOL     OW 5330   3.758   3.022   0.810
 1732SOL    HW1 5331   3.797   3.099   0.770
 1732SOL    HW2 5332   3.742   3.048   0.901
 1733SOL     OW 5333   2.408   0.882   0.300
 1733SOL    HW1 5334   2.393   0.934   0.379
 1733SOL    HW2 5335   2.496   0.846   0.311
 1734SOL     OW 5336   2.508   0.866   2.911
 1734SOL    HW1 5337   2.419   0.831   2.912
 1734SOL    HW2 5338   2.548   0.834   2.992
 1735SOL     OW 5339   1.721   1.387   1.403
 1735SOL    HW1 5340   1.781   1.423   1.338
 1735SOL    HW2 5341   1.727   1.447   1.477
 1736SOL     OW 5342   3.863   3.923   0.366
 1736SOL    HW1 5343   3.801   3.996   0.368
 1736SOL    HW2 5344   3.904   3.929   0.280
 1737SOL     OW 5345   3.584   2.261   1.065
 1737SOL    HW1 5346   3.585   2.263   0.970
 1737SOL    HW2 5347   3.507   2.311   1.090
 1738SOL     OW 5348   1.522   1.718   3.817
 1738SOL    HW1 5349   1.586   1.648   3.802
 1738SOL    HW2 5350   1.575   1.794   3.841
 1739SOL     OW 5351   0.680   2.656   0.733
 1739SOL    HW1 5352   0.736   2.592   0.778
 1739SOL    HW2 5353   0.692   2.737   0.782
 1740SOL     OW 5354   3.759   0.502   0.256
 1740SOL    HW1 5355   3.746   0.460   0.172
 1740SOL    HW2 5356   3.734   0.594   0.241
 1741SOL     OW 5357   2.921   2.843   2.612
 1741SOL    HW1 5358   2.879   2.758   2.597
 1741SOL    HW2 5359   2.991   2.847   2.546
 1742SOL     OW 5360   0.929   2.696   2.090
 1742SOL    HW1 5361   0.973   2.705   2.174
 1742SOL    HW2 5362   0.838   2.721   2.107
 1743SOL     OW 5363   1.612   1.341   0.035
 1743SOL    HW1 5364   1.517   1.347   0.032
 1743SOL    HW2 5365   1.639   1.422   0.080
 1744SOL     OW 5366   0.415   1.733   1.850
 1744SOL    HW1 5367   0.334   1.696   1.884
 1744SOL    HW2 5368   0.483   1.700   1.910
 1745SOL     OW 5369   1.572   2.137   1.315
 1745SOL    HW1 5370   1.480   2.134   1.341
 1745SOL    HW2 5371   1.618   2.172   1.391
 1746SOL     OW 5372   2.858   0.394   0.846
 1746SOL    HW1 5373   2.862   0.483   0.881
 1746SOL    HW2 5374   2.938   0.352   0.877
 1747SOL     OW 5375   0.214   3.183   0.219
 1747SOL    HW1 5376   0.255   3.101   0.191
 1747SOL    HW2 5377   0.233   3.189   0.312
 1748SOL     OW 5378   1.325   2.192   2.464
 1748SOL    HW1 5379   1.420   2.186   2.457
 1748SOL    HW2 5380   1.296   2.219   2.377
 1749SOL     OW 5381   2.961   3.924   1.719
 1749SOL    HW1 5382   2.881   3.877   1.740
 1749SOL    HW2 5383   2.989   3.963   1.802
 1750SOL     OW 5384   0.623   2.675   2.240
 1750SOL    HW1 5385   0.564   2.666   2.315
 1750SOL    HW2 5386   0.675   2.594   2.240
 1751SOL     OW 5387   0.201   2.190   3.318
 1751SOL    HW1 5388   0.256   2.243   3.376
 1751SOL    HW2 5389   0.137   2.252   3.283
 1752SOL     OW 5390   2.749   1.094   2.658
 1752SOL    HW1 5391   2.707   1.152   2.594
 1752SOL    HW2 5392   2.842   1.112   2.649
 1753SOL     OW 5393   3.542   2.031   0.086
 1753SOL    HW1 5394   3.584   1.987   0.159
 1753SOL    HW2 5395   3.471   2.081   0.127
 1754SOL     OW 5396   2.953   2.907   0.188
 1754SOL    HW1 5397   2.877   2.878   0.237
 1754SOL    HW2 5398   2.965   2.999   0.212
 1755SOL     OW 5399   0.901   0.481   1.691
 1755SOL    HW1 5400   0.937   0.512   1.774
 1755SOL    HW2 5401   0.968   0.424   1.655
 1756SOL     OW 5402   2.292   3.254   1.298
 1756SOL    HW1 5403   2.378   3.219   1.321
 1756SOL    HW2 5404   2.249   3.270   1.382
 1757SOL     OW 5405   3.560   3.525   1.847
 1757SOL    HW1 5406   3.542   3.473   1.925
 1757SOL    HW2 5407   3.620   3.593   1.878
 1758SOL     OW 5408   2.946   0.101   3.907
 1758SOL    HW1 5409   3.031   0.058   3.914
 1758SOL    HW2 5410   2.956   0.184   3.952
 1759SOL     OW 5411   1.093   1.567   2.694
 1759SOL    HW1 5412   1.028   1.518   2.645
 1759SOL    HW2 5413   1.160   1.502   2.717
 1760SOL     OW 5414   2.778   3.527   0.728
 1760SOL    HW1 5415   2.727   3.447   0.718
 1760SOL    HW2 5416   2.849   3.504   0.787
 1761SOL     OW 5417   3.093   1.863   2.039
 1761SOL    HW1 5418   3.185   1.889   2.033
 1761SOL    HW2 5419   3.069   1.881   2.130
 1762SOL     OW 5420   0.189   2.329   0.973
 1762SOL    HW1 5421   0.108   2.311   0.925
 1762SOL    HW2 5422   0.216   2.243   1.007
 1763SOL     OW 5423   0.056   2.239   2.477
 1763SOL    HW1 5424   0.127   2.301   2.459
 1763SOL    HW2 5425   0.014   2.226   2.393
 1764SOL     OW 5426   2.001   3.418   0.714
 1764SOL    HW1 5427   2.056   3.459   0.647
 1764SOL    HW2 5428   2.039   3.331   0.726
 1765SOL     OW 5429   0.260   2.401   1.351
 1765SOL    HW1 5430   0.180   2.356   1.323
 1765SOL    HW2 5431   0.232   2.490   1.371
 1766SOL     OW 5432   1.839   3.100   0.837
 1766SOL    HW1 5433   1.929   3.094   0.807
 1766SOL    HW2 5434   1.788   3.115   0.757
 1767SOL     OW 5435   0.450   1.215   2.721
 1767SOL    HW1 5436   0.491   1.301   2.729
 1767SOL    HW2 5437   0.370   1.230   2.671
 1768SOL     OW 5438   0.398   3.008   0.592
 1768SOL    HW1 5439   0.441   2.969   0.668
 1768SOL    HW2 5440   0.379   2.934   0.534
 1769SOL     OW 5441   2.417   2.608   2.725
 1769SOL    HW1 5442   2.442   2.549   2.653
 1769SOL    HW2 5443   2.393   2.548   2.796
 1770SOL     OW 5444   0.071   2.194   1.260
 1770SOL    HW1 5445   0.013   2.221   1.189
 1770SOL    HW2 5446   0.156   2.182   1.218
 1771SOL     OW 5447   3.677   3.711   0.304
 1771SOL    HW1 5448   3.585   3.714   0.275
 1771SOL    HW2 5449   3.710   3.799   0.287
 1772SOL     OW 5450   3.157   2.118   2.277
 1772SOL    HW1 5451   3.107   2.189   2.318
 1772SOL    HW2 5452   3.166   2.053   2.346
 1773SOL     OW 5453   2.308   0.473   1.612
 1773SOL    HW1 5454   2.340   0.560   1.586
 1773SOL    HW2 5455   2.346   0.414   1.547
 1774SOL     OW 5456   3.789   3.236   1.348
 1774SOL    HW1 5457   3.884   3.245   1.358
 1774SOL    HW2 5458   3.753   3.300   1.410
 1775SOL     OW 5459   1.564   3.280   1.156
 1775SOL    HW1 5460   1.494   3.345   1.147
 1775SOL    HW2 5461   1.546   3.238   1.240
 1776SOL     OW 5462   2.472   0.078   1.833
 1776SOL    HW1 5463   2.433  -0.009   1.830
 1776SOL    HW2 5464   2.560   0.064   1.868
 1777SOL     OW 5465   2.787   2.730   0.395
 1777SOL    HW1 5466   2.735   2.655   0.424
 1777SOL    HW2 5467   2.847   2.746   0.467
 1778SOL     OW 5468   1.458   2.099   2.723
 1778SOL    HW1 5469   1.391   2.043   2.761
 1778SOL    HW2 5470   1.411   2.157   2.663
 1779SOL     OW 5471   2.879   1.591   1.004
 1779SOL    HW1 5472   2.888   1.549   1.089
 1779SOL    HW2 5473   2.874   1.685   1.024
 1780SOL     OW 5474   2.415   1.728   3.001
 1780SOL    HW1 5475   2.422   1.713   3.095
 1780SOL    HW2 5476   2.490   1.783   2.979
 1781SOL     OW 5477   1.991   2.039   1.743
 1781SOL    HW1 5478   2.063   1.977   1.754
 1781SOL    HW2 5479   1.913   1.984   1.742
 1782SOL     OW 5480   3.870   1.938   3.088
 1782SOL    HW1 5481   3.887   2.016   3.037
 1782SOL    HW2 5482   3.914   1.953   3.172
 1783SOL     OW 5483   1.926   2.483   1.104
 1783SOL    HW1 5484   1.830   2.486   1.107
 1783SOL    HW2 5485   1.950   2.433   1.182
 1784SOL     OW 5486   1.837   1.597   0.387
 1784SOL    HW1 5487   1.837   1.672   0.446
 1784SOL    HW2 5488   1.840   1.521   0.446
 1785SOL     OW 5489   2.166   2.936   3.518
 1785SOL    HW1 5490   2.197   3.003   3.457
 1785SOL    HW2 5491   2.238   2.873   3.523
 1786SOL     OW 5492   0.530   0.910   3.250
 1786SOL    HW1 5493   0.585   0.968   3.197
 1786SOL    HW2 5494   0.574   0.825   3.245
 1787SOL     OW 5495   3.763   1.058   0.790
 1787SOL    HW1 5496   3.831   1.113   0.751
 1787SOL    HW2 5497   3.682   1.085   0.747
 1788SOL     OW 5498   0.771   1.284   2.195
 1788SOL    HW1 5499   0.856   1.261   2.157
 1788SOL    HW2 5500   0.714   1.298   2.119
 1789SOL     OW 5501   0.194   3.466   2.029
 1789SOL    HW1 5502   0.271   3.442   1.978
 1789SOL    HW2 5503   0.221   3.541   2.081
 1790SOL     OW 5504   3.339   2.509   2.046
 1790SOL    HW1 5505   3.246   2.517   2.063
 1790SOL    HW2 5506   3.352   2.553   1.962
 1791SOL     OW 5507   3.820   1.364   2.780
 1791SOL    HW1 5508   3.832   1.292   2.841
 1791SOL    HW2 5509   3.866   1.438   2.821
 1792SOL     OW 5510   1.481   0.108   2.461
 1792SOL    HW1 5511   1.398   0.135   2.423
 1792SOL    HW2 5512   1.477   0.138   2.552
 1793SOL     OW 5513   1.990   0.787   2.267
 1793SOL    HW1 5514   1.957   0.839   2.194
 1793SOL    HW2 5515   1.989   0.846   2.342
 1794SOL     OW 5516   3.693   0.200   0.814
 1794SOL    HW1 5517   3.784   0.216   0.839
 1794SOL    HW2 5518   3.692   0.209   0.719
 1795SOL     OW 5519   3.092   3.620   2.210
 1795SOL    HW1 5520   3.138   3.680   2.269
 1795SOL    HW2 5521   3.123   3.643   2.122
 1796SOL     OW 5522   1.582   1.651   1.664
 1796SOL    HW1 5523   1.599   1.567   1.706
 1796SOL    HW2 5524   1.516   1.692   1.720
 1797SOL     OW 5525   1.560   1.613   0.847
 1797SOL    HW1 5526   1.568   1.581   0.757
 1797SOL    HW2 5527   1.634   1.673   0.858
 1798SOL     OW 5528   0.886   3.734   2.388
 1798SOL    HW1 5529   0.959   3.674   2.403
 1798SOL    HW2 5530   0.924   3.821   2.397
 1799SOL     OW 5531   0.205   2.903   0.100
 1799SOL    HW1 5532   0.208   2.935   0.010
 1799SOL    HW2 5533   0.119   2.929   0.132
 1800SOL     OW 5534  -0.013   3.665   3.719
 1800SOL    HW1 5535  -0.001   3.663   3.814
 1800SOL    HW2 5536   0.063   3.618   3.684
 1801SOL     OW 5537   1.263   3.933   2.193
 1801SOL    HW1 5538   1.306   3.865   2.244
 1801SOL    HW2 5539   1.333   3.997   2.176
 1802SOL     OW 5540   2.791   2.606   0.059
 1802SOL    HW1 5541   2.813   2.655   0.138
 1802SOL    HW2 5542   2.707   2.565   0.079
 1803SOL     OW 5543   3.399   1.922   0.386
 1803SOL    HW1 5544   3.377   2.002   0.434
 1803SOL    HW2 5545   3.491   1.932   0.363
 1804SOL     OW 5546   0.846   0.858   1.732
 1804SOL    HW1 5547   0.760   0.818   1.721
 1804SOL    HW2 5548   0.897   0.827   1.657
 1805SOL     OW 5549   3.072   1.220   0.616
 1805SOL    HW1 5550   3.034   1.285   0.674
 1805SOL    HW2 5551   2.999   1.161   0.595
 1806SOL     OW 5552   1.244   0.944   0.358
 1806SOL    HW1 5553   1.261   1.002   0.433
 1806SOL    HW2 5554   1.257   1.000   0.282
 1807SOL     OW 5555   0.972   1.534   3.488
 1807SOL    HW1 5556   0.959   1.606   3.426
 1807SOL    HW2 5557   1.007   1.463   3.434
 1808SOL     OW 5558   1.557   0.673   1.425
 1808SOL    HW1 5559   1.640   0.693   1.467
 1808SOL    HW2 5560   1.581   0.634   1.340
 1809SOL     OW 5561   1.719   3.774   3.025
 1809SOL    HW1 5562   1.626   3.755   3.039
 1809SOL    HW2 5563   1.723   3.813   2.938
 1810SOL     OW 5564   1.657   1.713   2.124
 1810SOL    HW1 5565   1.590   1.744   2.184
 1810SOL    HW2 5566   1.733   1.767   2.142
 1811SOL     OW 5567   1.361   3.361   0.146
 1811SOL    HW1 5568   1.332   3.368   0.237
 1811SOL    HW2 5569   1.452   3.389   0.148
 1812SOL     OW 5570   1.762   2.414   2.227
 1812SOL    HW1 5571   1.714   2.353   2.283
 1812SOL    HW2 5572   1.844   2.369   2.207
 1813SOL     OW 5573   1.299   0.343   2.138
 1813SOL    HW1 5574   1.391   0.319   2.132
 1813SOL    HW2 5575   1.300   0.437   2.159
 1814SOL     OW 5576   1.644   2.195   2.036
 1814SOL    HW1 5577   1.588   2.118   2.032
 1814SOL    HW2 5578   1.584   2.268   2.051
 1815SOL     OW 5579   3.279   1.059   0.804
 1815SOL    HW1 5580   3.206   1.091   0.750
 1815SOL    HW2 5581   3.263   0.965   0.812
 1816SOL     OW 5582   2.391   1.086   3.484
 1816SOL    HW1 5583   2.433   1.110   3.566
 1816SOL    HW2 5584   2.342   1.006   3.504
 1817SOL     OW 5585   1.946   2.361   1.358
 1817SOL    HW1 5586   1.916   2.274   1.383
 1817SOL    HW2 5587   1.962   2.406   1.441
 1818SOL     OW 5588   1.870   0.750   3.371
 1818SOL    HW1 5589   1.820   0.694   3.312
 1818SOL    HW2 5590   1.954   0.764   3.327
 1819SOL     OW 5591   1.904   2.085   2.051
 1819SOL    HW1 5592   1.817   2.123   2.058
 1819SOL    HW2 5593   1.901   2.033   1.970
 1820SOL     OW 5594   2.888   3.498   2.800
 1820SOL    HW1 5595   2.886   3.415   2.848
 1820SOL    HW2 5596   2.815   3.548   2.834
 1821SOL     OW 5597   3.871   2.039   0.691
 1821SOL    HW1 5598   3.852   2.064   0.781
 1821SOL    HW2 5599   3.956   1.994   0.697
 1822SOL     OW 5600   1.906   3.552   2.267
 1822SOL    HW1 5601   1.943   3.574   2.353
 1822SOL    HW2 5602   1.852   3.475   2.284
 1823SOL     OW 5603   3.007   1.180   2.616
 1823SOL    HW1 5604   3.062   1.128   2.675
 1823SOL    HW2 5605   3.044   1.166   2.529
 1824SOL     OW 5606   3.168   0.120   2.907
 1824SOL    HW1 5607   3.111   0.191   2.937
 1824SOL    HW2 5608   3.161   0.054   2.976
 1825SOL     OW 5609   1.349   3.780   1.147
 1825SOL    HW1 5610   1.280   3.835   1.109
 1825SOL    HW2 5611   1.431   3.819   1.117
 1826SOL     OW 5612   0.485   3.121   1.455
 1826SOL    HW1 5613   0.518   3.073   1.380
 1826SOL    HW2 5614   0.531   3.084   1.530
 1827SOL     OW 5615   2.803   3.378   3.587
 1827SOL    HW1 5616   2.732   3.352   3.646
 1827SOL    HW2 5617   2.879   3.329   3.617
 1828SOL     OW 5618   0.989   1.103   0.377
 1828SOL    HW1 5619   0.927   1.118   0.306
 1828SOL    HW2 5620   0.998   1.008   0.382
 1829SOL     OW 5621   2.793   0.561   2.565
 1829SOL    HW1 5622   2.745   0.630   2.610
 1829SOL    HW2 5623   2.855   0.607   2.509
 1830SOL     OW 5624   1.685   0.738   3.587
 1830SOL    HW1 5625   1.714   0.707   3.502
 1830SOL    HW2 5626   1.758   0.717   3.646
 1831SOL     OW 5627   3.829   0.995   2.239
 1831SOL    HW1 5628   3.852   0.930   2.304
 1831SOL    HW2 5629   3.735   0.983   2.225
 1832SOL     OW 5630   0.996   3.381   1.730
 1832SOL    HW1 5631   0.916   3.334   1.751
 1832SOL    HW2 5632   1.063   3.341   1.786
 1833SOL     OW 5633   0.541   1.841   2.742
 1833SOL    HW1 5634   0.531   1.893   2.662
 1833SOL    HW2 5635   0.484   1.883   2.806
 1834SOL     OW 5636   2.352   3.454   1.910
 1834SOL    HW1 5637   2.296   3.377   1.923
 1834SOL    HW2 5638   2.295   3.517   1.866
 1835SOL     OW 5639   2.595   1.233   2.438
 1835SOL    HW1 5640   2.503   1.230   2.466
 1835SOL    HW2 5641   2.610   1.148   2.397
 1836SOL     OW 5642   1.129   3.098   1.504
 1836SOL    HW1 5643   1.152   3.134   1.590
 1836SOL    HW2 5644   1.127   3.003   1.518
 1837SOL     OW 5645   1.604   1.607   3.024
 1837SOL    HW1 5646   1.655   1.687   3.012
 1837SOL    HW2 5647   1.596   1.570   2.937
 1838SOL     OW 5648   1.892   2.820   3.502
 1838SOL    HW1 5649   1.893   2.789   3.411
 1838SOL    HW2 5650   1.975   2.868   3.512
 1839SOL     OW 5651   0.635   2.890   0.427
 1839SOL    HW1 5652   0.609   2.970   0.471
 1839SOL    HW2 5653   0.589   2.893   0.343
 1840SOL     OW 5654   2.300   2.889   0.849
 1840SOL    HW1 5655   2.242   2.864   0.921
 1840SOL    HW2 5656   2.252   2.867   0.770
 1841SOL     OW 5657   2.500   0.077   3.391
 1841SOL    HW1 5658   2.589   0.063   3.358
 1841SOL    HW2 5659   2.496   0.024   3.471
 1842SOL     OW 5660   2.632   0.104   0.954
 1842SOL    HW1 5661   2.601   0.038   0.892
 1842SOL    HW2 5662   2.567   0.102   1.025
 1843SOL     OW 5663   1.109   0.977   1.234
 1843SOL    HW1 5664   1.159   0.897   1.245
 1843SOL    HW2 5665   1.040   0.954   1.171
 1844SOL     OW 5666   1.228   1.523   1.895
 1844SOL    HW1 5667   1.311   1.480   1.874
 1844SOL    HW2 5668   1.236   1.611   1.857
 1845SOL     OW 5669   3.201   3.814   1.620
 1845SOL    HW1 5670   3.116   3.849   1.645
 1845SOL    HW2 5671   3.263   3.885   1.637
 1846SOL     OW 5672   1.346   1.671   1.219
 1846SOL    HW1 5673   1.255   1.695   1.239
 1846SOL    HW2 5674   1.342   1.635   1.131
 1847SOL     OW 5675   1.355   1.530   3.223
 1847SOL    HW1 5676   1.436   1.500   3.182
 1847SOL    HW2 5677   1.382   1.573   3.303
 1848SOL     OW 5678   3.439   0.899   3.745
 1848SOL    HW1 5679   3.496   0.890   3.669
 1848SOL    HW2 5680   3.412   0.990   3.744
 1849SOL     OW 5681   0.619   2.504   0.457
 1849SOL    HW1 5682   0.601   2.537   0.369
 1849SOL    HW2 5683   0.700   2.547   0.482
 1850SOL     OW 5684   1.315   0.741   2.877
 1850SOL    HW1 5685   1.303   0.793   2.797
 1850SOL    HW2 5686   1.377   0.791   2.929
 1851SOL     OW 5687   3.400   1.775   1.017
 1851SOL    HW1 5688   3.332   1.778   1.085
 1851SOL    HW2 5689   3.480   1.801   1.063
 1852SOL     OW 5690   1.261   0.793   1.647
 1852SOL    HW1 5691   1.296   0.837   1.569
 1852SOL    HW2 5692   1.337   0.755   1.690
 1853SOL     OW 5693   0.540   1.712   0.189
 1853SOL    HW1 5694   0.456   1.739   0.152
 1853SOL    HW2 5695   0.519   1.677   0.276
 1854SOL     OW 5696   2.216   0.682   1.846
 1854SOL    HW1 5697   2.253   0.767   1.870
 1854SOL    HW2 5698   2.179   0.696   1.758
 1855SOL     OW 5699   2.392   0.227   2.569
 1855SOL    HW1 5700   2.386   0.139   2.533
 1855SOL    HW2 5701   2.355   0.284   2.501
 1856SOL     OW 5702   0.699   3.671   3.726
 1856SOL    HW1 5703   0.794   3.661   3.713
 1856SOL    HW2 5704   0.674   3.595   3.778
 1857SOL     OW 5705   0.185   1.407   1.171
 1857SOL    HW1 5706   0.236   1.397   1.251
 1857SOL    HW2 5707   0.129   1.483   1.186
 1858SOL     OW 5708   0.387   3.670   1.680
 1858SOL    HW1 5709   0.464   3.646   1.629
 1858SOL    HW2 5710   0.389   3.766   1.682
 1859SOL     OW 5711   2.680   3.164   2.019
 1859SOL    HW1 5712   2.719   3.164   2.107
 1859SOL    HW2 5713   2.620   3.090   2.019
 1860SOL     OW 5714   1.311   0.961   3.827
 1860SOL    HW1 5715   1.285   0.973   3.735
 1860SOL    HW2 5716   1.404   0.937   3.821
 1861SOL     OW 5717   1.101   1.479   3.045
 1861SOL    HW1 5718   1.089   1.422   2.969
 1861SOL    HW2 5719   1.160   1.548   3.015
 1862SOL     OW 5720   1.846   2.960   2.310
 1862SOL    HW1 5721   1.826   2.873   2.277
 1862SOL    HW2 5722   1.825   3.019   2.237
 1863SOL     OW 5723   2.577   2.765   2.523
 1863SOL    HW1 5724   2.614   2.681   2.496
 1863SOL    HW2 5725   2.531   2.745   2.605
 1864SOL     OW 5726   2.736   0.816   3.170
 1864SOL    HW1 5727   2.731   0.735   3.220
 1864SOL    HW2 5728   2.822   0.853   3.194
 1865SOL     OW 5729   2.717   2.073   0.629
 1865SOL    HW1 5730   2.749   1.989   0.661
 1865SOL    HW2 5731   2.698   2.123   0.709
 1866SOL     OW 5732   1.354   0.967   3.258
 1866SOL    HW1 5733   1.431   0.968   3.315
 1866SOL    HW2 5734   1.390   0.963   3.170
 1867SOL     OW 5735   1.411   0.571   3.763
 1867SOL    HW1 5736   1.444   0.594   3.850
 1867SOL    HW2 5737   1.490   0.548   3.713
 1868SOL     OW 5738   3.111   0.103   0.461
 1868SOL    HW1 5739   3.051   0.135   0.528
 1868SOL    HW2 5740   3.092   0.010   0.455
 1869SOL     OW 5741   0.498   3.354   2.614
 1869SOL    HW1 5742   0.490   3.387   2.524
 1869SOL    HW2 5743   0.515   3.261   2.604
 1870SOL     OW 5744   2.499   0.577   3.146
 1870SOL    HW1 5745   2.538   0.589   3.233
 1870SOL    HW2 5746   2.560   0.621   3.086
 1871SOL     OW 5747   1.770   1.854   1.759
 1871SOL    HW1 5748   1.716   1.933   1.767
 1871SOL    HW2 5749   1.709   1.786   1.733
 1872SOL     OW 5750   3.619   1.122   2.640
 1872SOL    HW1 5751   3.669   1.116   2.722
 1872SOL    HW2 5752   3.685   1.118   2.571
 1873SOL     OW 5753   1.878   2.323   3.745
 1873SOL    HW1 5754   1.925   2.333   3.662
 1873SOL    HW2 5755   1.821   2.400   3.749
 1874SOL     OW 5756   1.681   3.163   0.594
 1874SOL    HW1 5757   1.668   3.257   0.604
 1874SOL    HW2 5758   1.745   3.154   0.524
 1875SOL     OW 5759   0.373   0.577   1.787
 1875SOL    HW1 5760   0.437   0.602   1.721
 1875SOL    HW2 5761   0.335   0.661   1.816
 1876SOL     OW 5762   2.072   2.101   3.424
 1876SOL    HW1 5763   2.054   2.193   3.406
 1876SOL    HW2 5764   2.017   2.080   3.499
 1877SOL     OW 5765   2.626   2.527   2.427
 1877SOL    HW1 5766   2.700   2.468   2.417
 1877SOL    HW2 5767   2.598   2.547   2.338
 1878SOL     OW 5768   2.731   0.643   3.407
 1878SOL    HW1 5769   2.703   0.555   3.435
 1878SOL    HW2 5770   2.826   0.636   3.398
 1879SOL     OW 5771   3.958   2.036   3.633
 1879SOL    HW1 5772   3.873   2.049   3.591
 1879SOL    HW2 5773   3.959   1.943   3.657
 1880SOL     OW 5774   1.680   3.052   1.055
 1880SOL    HW1 5775   1.654   3.133   1.098
 1880SOL    HW2 5776   1.738   3.078   0.984
 1881SOL     OW 5777   3.328   0.642   3.172
 1881SOL    HW1 5778   3.237   0.662   3.149
 1881SOL    HW2 5779   3.323   0.591   3.252
 1882SOL     OW 5780   1.928   3.783   1.820
 1882SOL    HW1 5781   1.992   3.739   1.763
 1882SOL    HW2 5782   1.981   3.841   1.874
 1883SOL     OW 5783   1.636   3.153   2.759
 1883SOL    HW1 5784   1.673   3.241   2.759
 1883SOL    HW2 5785   1.681   3.108   2.688
 1884SOL     OW 5786   1.376   3.309   2.211
 1884SOL    HW1 5787   1.402   3.398   2.233
 1884SOL    HW2 5788   1.380   3.262   2.294
 1885SOL     OW 5789   1.197   2.899   2.694
 1885SOL    HW1 5790   1.259   2.827   2.684
 1885SOL    HW2 5791   1.145   2.876   2.771
 1886SOL     OW 5792   1.534   2.652   2.021
 1886SOL    HW1 5793   1.610   2.692   2.064
 1886SOL    HW2 5794   1.459   2.680   2.074
 1887SOL     OW 5795   1.351   0.419   0.347
 1887SOL    HW1 5796   1.392   0.496   0.309
 1887SOL    HW2 5797   1.401   0.345   0.312
 1888SOL     OW 5798   1.484   1.625   3.476
 1888SOL    HW1 5799   1.544   1.685   3.520
 1888SOL    HW2 5800   1.541   1.570   3.423
 1889SOL     OW 5801   3.122   0.318   3.327
 1889SOL    HW1 5802   3.099   0.276   3.410
 1889SOL    HW2 5803   3.191   0.263   3.290
 1890SOL     OW 5804   2.262   1.894   3.903
 1890SOL    HW1 5805   2.203   1.830   3.862
 1890SOL    HW2 5806   2.313   1.844   3.966
 1891SOL     OW 5807   2.140   1.773   2.419
 1891SOL    HW1 5808   2.220   1.770   2.472
 1891SOL    HW2 5809   2.129   1.683   2.387
 1892SOL     OW 5810   3.552   3.280   3.969
 1892SOL    HW1 5811   3.641   3.304   3.992
 1892SOL    HW2 5812   3.540   3.315   3.880
 1893SOL     OW 5813   0.737   2.269   0.759
 1893SOL    HW1 5814   0.795   2.344   0.752
 1893SOL    HW2 5815   0.670   2.284   0.692
 1894SOL     OW 5816   0.682   0.416   3.078
 1894SOL    HW1 5817   0.611   0.359   3.049
 1894SOL    HW2 5818   0.719   0.371   3.155
 1895SOL     OW 5819   0.479   2.898   0.813
 1895SOL    HW1 5820   0.548   2.853   0.861
 1895SOL    HW2 5821   0.399   2.850   0.834
 1896SOL     OW 5822   0.106   1.636   2.276
 1896SOL    HW1 5823   0.014   1.610   2.267
 1896SOL    HW2 5824   0.109   1.726   2.242
 1897SOL     OW 5825   1.777   0.757   0.803
 1897SOL    HW1 5826   1.828   0.783   0.880
 1897SOL    HW2 5827   1.725   0.835   0.782
 1898SOL     OW 5828   3.896   0.796   3.830
 1898SOL    HW1 5829   3.976   0.771   3.784
 1898SOL    HW2 5830   3.838   0.721   3.820
 1899SOL     OW 5831   0.777  -0.023   3.422
 1899SOL    HW1 5832   0.804   0.068   3.416
 1899SOL    HW2 5833   0.736  -0.031   3.508
 1900SOL     OW 5834   1.987   2.347   2.525
 1900SOL    HW1 5835   1.962   2.320   2.437
 1900SOL    HW2 5836   1.951   2.435   2.534
 1901SOL     OW 5837   3.763   3.017   1.565
 1901SOL    HW1 5838   3.839   2.983   1.612
 1901SOL    HW2 5839   3.779   2.993   1.474
 1902SOL     OW 5840   3.811   0.366   1.159
 1902SOL    HW1 5841   3.725   0.356   1.200
 1902SOL    HW2 5842   3.794   0.354   1.065
 1903SOL     OW 5843   2.814   3.403   3.306
 1903SOL    HW1 5844   2.869   3.326   3.297
 1903SOL    HW2 5845   2.797   3.410   3.400
 1904SOL     OW 5846   3.298   1.514   0.935
 1904SOL    HW1 5847   3.332   1.603   0.923
 1904SOL    HW2 5848   3.368   1.457   0.904
 1905SOL     OW 5849   0.944   0.530   0.645
 1905SOL    HW1 5850   0.872   0.582   0.609
 1905SOL    HW2 5851   1.023   0.577   0.619
 1906SOL     OW 5852   2.928   2.147   2.994
 1906SOL    HW1 5853   2.929   2.180   2.905
 1906SOL    HW2 5854   3.013   2.103   3.004
 1907SOL     OW 5855   0.411   0.891   1.092
 1907SOL    HW1 5856   0.350   0.852   1.030
 1907SOL    HW2 5857   0.364   0.967   1.126
 1908SOL     OW 5858   2.238   1.756   0.204
 1908SOL    HW1 5859   2.331   1.771   0.221
 1908SOL    HW2 5860   2.236   1.688   0.136
 1909SOL     OW 5861   0.257   2.534   0.414
 1909SOL    HW1 5862   0.257   2.439   0.414
 1909SOL    HW2 5863   0.318   2.559   0.345
 1910SOL     OW 5864   2.826   3.851   2.605
 1910SOL    HW1 5865   2.838   3.756   2.612
 1910SOL    HW2 5866   2.859   3.873   2.518
 1911SOL     OW 5867   1.462   1.989   1.738
 1911SOL    HW1 5868   1.382   1.945   1.710
 1911SOL    HW2 5869   1.453   2.079   1.706
 1912SOL     OW 5870   1.741   2.766   2.730
 1912SOL    HW1 5871   1.717   2.858   2.719
 1912SOL    HW2 5872   1.657   2.722   2.746
 1913SOL     OW 5873   2.129   0.216   1.034
 1913SOL    HW1 5874   2.063   0.155   1.000
 1913SOL    HW2 5875   2.083   0.299   1.043
 1914SOL     OW 5876   0.984   1.137   1.707
 1914SOL    HW1 5877   1.041   1.133   1.630
 1914SOL    HW2 5878   0.936   1.055   1.706
 1915SOL     OW 5879   2.375   0.378   1.059
 1915SOL    HW1 5880   2.410   0.386   0.970
 1915SOL    HW2 5881   2.354   0.285   1.068
 1916SOL     OW 5882   2.423   3.575   0.804
 1916SOL    HW1 5883   2.390   3.657   0.766
 1916SOL    HW2 5884   2.345   3.534   0.843
 1917SOL     OW 5885   2.499   1.592   0.648
 1917SOL    HW1 5886   2.419   1.621   0.604
 1917SOL    HW2 5887   2.490   1.624   0.738
 1918NA      NA 5888   1.265   0.425   1.773
 1919NA      NA 5889   3.908   3.647   0.759
   3.96100   3.96100   3.96100   0.00000   0.00000   0.00000   0.00000   0.00000   0.00000
