Generated with MDTraj, t= 37855.0
 5889
    1TYR      N    1   2.101   1.063   1.631
    1TYR     H1    2   2.021   0.996   1.629
    1TYR     H2    3   2.116   1.099   1.535
    1TYR     H3    4   2.189   1.020   1.667
    1TYR     CA    5   2.067   1.181   1.708
    1TYR     HA    6   2.113   1.259   1.650
    1TYR     CB    7   1.909   1.195   1.712
    1TYR    HB1    8   1.864   1.155   1.619
    1TYR    HB2    9   1.867   1.137   1.796
    1TYR     CG   10   1.872   1.341   1.717
    1TYR    CD1   11   1.901   1.419   1.606
    1TYR    HD1   12   1.955   1.373   1.525
    1TYR    CE1   13   1.861   1.553   1.602
    1TYR    HE1   14   1.885   1.612   1.515
    1TYR     CZ   15   1.791   1.608   1.712
    1TYR     OH   16   1.740   1.740   1.705
    1TYR     HH   17   1.768   1.773   1.619
    1TYR    CD2   18   1.811   1.394   1.827
    1TYR    HD2   19   1.787   1.331   1.911
    1TYR    CE2   20   1.757   1.522   1.823
    1TYR    HE2   21   1.704   1.555   1.911
    1TYR      C   22   2.128   1.174   1.849
    1TYR      O   23   2.235   1.237   1.861
    2TYR      N   24   2.065   1.104   1.946
    2TYR     HN   25   1.985   1.046   1.928
    2TYR     CA   26   2.113   1.104   2.078
    2TYR     HA   27   2.149   1.201   2.109
    2TYR     CB   28   2.016   1.076   2.195
    2TYR    HB1   29   1.987   0.968   2.198
    2TYR    HB2   30   2.060   1.106   2.292
    2TYR     CG   31   1.888   1.163   2.180
    2TYR    CD1   32   1.905   1.301   2.196
    2TYR    HD1   33   2.004   1.343   2.202
    2TYR    CE1   34   1.791   1.382   2.176
    2TYR    HE1   35   1.807   1.488   2.169
    2TYR     CZ   36   1.661   1.333   2.158
    2TYR     OH   37   1.554   1.422   2.139
    2TYR     HH   38   1.484   1.362   2.112
    2TYR    CD2   39   1.755   1.112   2.156
    2TYR    HD2   40   1.742   1.006   2.140
    2TYR    CE2   41   1.645   1.192   2.140
    2TYR    HE2   42   1.551   1.140   2.138
    2TYR      C   43   2.232   1.006   2.097
    2TYR      O   44   2.239   0.944   2.203
    3ASP      N   45   2.317   0.972   2.003
    3ASP     HN   46   2.311   1.002   1.908
    3ASP     CA   47   2.424   0.883   2.003
    3ASP     HA   48   2.388   0.792   2.050
    3ASP     CB   49   2.470   0.830   1.865
    3ASP    HB1   50   2.553   0.896   1.831
    3ASP    HB2   51   2.500   0.725   1.885
    3ASP     CG   52   2.358   0.844   1.764
    3ASP    OD1   53   2.318   0.960   1.734
    3ASP    OD2   54   2.301   0.739   1.713
    3ASP      C   55   2.540   0.946   2.084
    3ASP      O   56   2.563   1.070   2.070
    4PRO      N   57   2.610   0.869   2.165
    4PRO     CD   58   2.615   0.724   2.163
    4PRO    HD1   59   2.623   0.690   2.058
    4PRO    HD2   60   2.527   0.679   2.215
    4PRO     CA   61   2.709   0.926   2.262
    4PRO     HA   62   2.641   0.999   2.303
    4PRO     CB   63   2.750   0.807   2.345
    4PRO    HB1   64   2.844   0.816   2.405
    4PRO    HB2   65   2.664   0.796   2.415
    4PRO     CG   66   2.745   0.690   2.245
    4PRO    HG1   67   2.830   0.684   2.173
    4PRO    HG2   68   2.727   0.596   2.302
    4PRO      C   69   2.825   1.000   2.195
    4PRO      O   70   2.896   1.072   2.264
    5GLU      N   71   2.853   0.985   2.069
    5GLU     HN   72   2.786   0.939   2.012
    5GLU     CA   73   2.959   1.064   2.004
    5GLU     HA   74   3.042   1.068   2.073
    5GLU     CB   75   2.992   1.004   1.860
    5GLU    HB1   76   3.059   1.083   1.819
    5GLU    HB2   77   3.042   0.906   1.875
    5GLU     CG   78   2.883   0.984   1.757
    5GLU    HG1   79   2.792   0.963   1.817
    5GLU    HG2   80   2.859   1.082   1.709
    5GLU     CD   81   2.914   0.864   1.670
    5GLU    OE1   82   2.824   0.781   1.638
    5GLU    OE2   83   3.034   0.860   1.631
    5GLU      C   84   2.914   1.207   1.980
    5GLU      O   85   2.999   1.297   1.985
    6THR      N   86   2.786   1.230   1.940
    6THR     HN   87   2.715   1.162   1.957
    6THR     CA   88   2.740   1.349   1.858
    6THR     HA   89   2.818   1.360   1.784
    6THR     CB   90   2.593   1.325   1.806
    6THR     HB   91   2.566   1.405   1.734
    6THR    OG1   92   2.497   1.323   1.910
    6THR    HG1   93   2.423   1.281   1.866
    6THR    CG2   94   2.570   1.192   1.733
    6THR   HG21   95   2.466   1.172   1.700
    6THR   HG22   96   2.648   1.186   1.655
    6THR   HG23   97   2.583   1.113   1.811
    6THR      C   98   2.734   1.484   1.934
    6THR      O   99   2.735   1.589   1.869
    7GLY      N  100   2.729   1.483   2.068
    7GLY     HN  101   2.717   1.390   2.102
    7GLY     CA  102   2.723   1.596   2.161
    7GLY    HA1  103   2.767   1.561   2.253
    7GLY    HA2  104   2.775   1.685   2.128
    7GLY      C  105   2.583   1.635   2.198
    7GLY      O  106   2.556   1.716   2.284
    8THR      N  107   2.485   1.577   2.126
    8THR     HN  108   2.514   1.521   2.049
    8THR     CA  109   2.342   1.614   2.126
    8THR     HA  110   2.342   1.718   2.155
    8THR     CB  111   2.274   1.602   1.994
    8THR     HB  112   2.269   1.495   1.964
    8THR    OG1  113   2.353   1.672   1.900
    8THR    HG1  114   2.313   1.670   1.813
    8THR    CG2  115   2.138   1.677   1.985
    8THR   HG21  116   2.135   1.775   2.037
    8THR   HG22  117   2.091   1.694   1.886
    8THR   HG23  118   2.068   1.611   2.040
    8THR      C  119   2.270   1.525   2.225
    8THR      O  120   2.280   1.401   2.235
    9TRP      N  121   2.202   1.595   2.318
    9TRP     HN  122   2.188   1.693   2.305
    9TRP     CA  123   2.128   1.547   2.433
    9TRP     HA  124   2.140   1.440   2.422
    9TRP     CB  125   2.187   1.612   2.560
    9TRP    HB1  126   2.137   1.709   2.579
    9TRP    HB2  127   2.152   1.561   2.653
    9TRP     CG  128   2.331   1.623   2.588
    9TRP    CD1  129   2.403   1.739   2.589
    9TRP    HD1  130   2.361   1.830   2.547
    9TRP    NE1  131   2.535   1.724   2.625
    9TRP    HE1  132   2.608   1.789   2.627
    9TRP    CE2  133   2.551   1.585   2.635
    9TRP    CD2  134   2.426   1.517   2.621
    9TRP    CE3  135   2.416   1.380   2.641
    9TRP    HE3  136   2.326   1.321   2.635
    9TRP    CZ3  137   2.525   1.318   2.684
    9TRP    HZ3  138   2.516   1.212   2.700
    9TRP    CZ2  139   2.661   1.520   2.676
    9TRP    HZ2  140   2.754   1.569   2.703
    9TRP    CH2  141   2.658   1.377   2.686
    9TRP    HH2  142   2.747   1.329   2.723
    9TRP      C  143   1.981   1.573   2.432
    9TRP      O  144   1.927   1.655   2.359
   10TYR      N  145   1.903   1.509   2.519
   10TYR     HN  146   1.942   1.442   2.580
   10TYR     CA  147   1.759   1.535   2.525
   10TYR     HA  148   1.719   1.515   2.426
   10TYR     CB  149   1.701   1.458   2.637
   10TYR    HB1  150   1.782   1.446   2.712
   10TYR    HB2  151   1.608   1.493   2.685
   10TYR     CG  152   1.669   1.316   2.590
   10TYR    CD1  153   1.767   1.214   2.571
   10TYR    HD1  154   1.871   1.233   2.592
   10TYR    CE1  155   1.730   1.090   2.510
   10TYR    HE1  156   1.797   1.010   2.483
   10TYR     CZ  157   1.591   1.071   2.480
   10TYR     OH  158   1.557   0.950   2.424
   10TYR     HH  159   1.614   0.887   2.469
   10TYR    CD2  160   1.535   1.290   2.551
   10TYR    HD2  161   1.467   1.372   2.568
   10TYR    CE2  162   1.499   1.166   2.500
   10TYR    HE2  163   1.393   1.155   2.483
   10TYR      C  164   1.718   1.680   2.561
   10TYR    OT1  165   1.626   1.738   2.497
   10TYR    OT2  166   1.775   1.733   2.655
   11SOL     OW  167   0.269   0.220   3.582
   11SOL    HW1  168   0.186   0.249   3.619
   11SOL    HW2  169   0.331   0.289   3.606
   12SOL     OW  170   1.179  -0.003   3.192
   12SOL    HW1  171   1.140  -0.007   3.104
   12SOL    HW2  172   1.163   0.087   3.221
   13SOL     OW  173   1.729   2.388   0.386
   13SOL    HW1  174   1.799   2.338   0.343
   13SOL    HW2  175   1.747   2.479   0.362
   14SOL     OW  176   2.762   3.335   0.892
   14SOL    HW1  177   2.696   3.329   0.961
   14SOL    HW2  178   2.839   3.373   0.936
   15SOL     OW  179   0.700   1.706   2.238
   15SOL    HW1  180   0.721   1.781   2.294
   15SOL    HW2  181   0.642   1.742   2.171
   16SOL     OW  182   0.451   0.886   1.052
   16SOL    HW1  183   0.473   0.803   1.094
   16SOL    HW2  184   0.482   0.952   1.113
   17SOL     OW  185   0.815   3.787   0.123
   17SOL    HW1  186   0.853   3.765   0.208
   17SOL    HW2  187   0.890   3.817   0.071
   18SOL     OW  188   1.409   0.086   0.368
   18SOL    HW1  189   1.456   0.137   0.302
   18SOL    HW2  190   1.469   0.013   0.388
   19SOL     OW  191   1.582   0.714   3.154
   19SOL    HW1  192   1.598   0.662   3.076
   19SOL    HW2  193   1.666   0.713   3.201
   20SOL     OW  194   3.502   1.329   3.194
   20SOL    HW1  195   3.515   1.236   3.174
   20SOL    HW2  196   3.583   1.356   3.237
   21SOL     OW  197   0.190   2.013   0.507
   21SOL    HW1  198   0.211   2.099   0.470
   21SOL    HW2  199   0.171   2.030   0.599
   22SOL     OW  200   0.903   2.696   1.197
   22SOL    HW1  201   0.818   2.740   1.197
   22SOL    HW2  202   0.909   2.657   1.110
   23SOL     OW  203   2.571   3.672   3.224
   23SOL    HW1  204   2.481   3.687   3.253
   23SOL    HW2  205   2.620   3.659   3.305
   24SOL     OW  206   2.277   3.833   2.901
   24SOL    HW1  207   2.248   3.924   2.913
   24SOL    HW2  208   2.215   3.796   2.839
   25SOL     OW  209   1.554   0.975   3.632
   25SOL    HW1  210   1.541   1.038   3.561
   25SOL    HW2  211   1.535   0.890   3.592
   26SOL     OW  212   0.645   0.753   2.307
   26SOL    HW1  213   0.641   0.825   2.244
   26SOL    HW2  214   0.554   0.732   2.327
   27SOL     OW  215   0.511   1.329   1.256
   27SOL    HW1  216   0.584   1.390   1.265
   27SOL    HW2  217   0.448   1.376   1.201
   28SOL     OW  218   2.721   1.030   3.519
   28SOL    HW1  219   2.642   0.984   3.491
   28SOL    HW2  220   2.698   1.071   3.602
   29SOL     OW  221   2.748   3.430   2.118
   29SOL    HW1  222   2.687   3.357   2.128
   29SOL    HW2  223   2.792   3.436   2.203
   30SOL     OW  224   3.129   0.223   0.310
   30SOL    HW1  225   3.094   0.201   0.396
   30SOL    HW2  226   3.052   0.241   0.256
   31SOL     OW  227   2.006   3.652   1.707
   31SOL    HW1  228   2.063   3.628   1.634
   31SOL    HW2  229   2.015   3.579   1.768
   32SOL     OW  230   1.580   0.941   0.340
   32SOL    HW1  231   1.617   0.916   0.256
   32SOL    HW2  232   1.654   0.943   0.400
   33SOL     OW  233   1.221   3.280   1.445
   33SOL    HW1  234   1.286   3.336   1.488
   33SOL    HW2  235   1.151   3.340   1.420
   34SOL     OW  236   3.844   3.073   1.666
   34SOL    HW1  237   3.923   3.080   1.720
   34SOL    HW2  238   3.842   2.981   1.639
   35SOL     OW  239   3.068   1.444   0.642
   35SOL    HW1  240   3.087   1.537   0.628
   35SOL    HW2  241   3.016   1.442   0.722
   36SOL     OW  242   0.800   2.972   3.576
   36SOL    HW1  243   0.717   3.008   3.608
   36SOL    HW2  244   0.863   2.991   3.646
   37SOL     OW  245   1.992   3.878   1.523
   37SOL    HW1  246   2.076   3.921   1.509
   37SOL    HW2  247   2.002   3.832   1.606
   38SOL     OW  248   2.214   2.818   0.729
   38SOL    HW1  249   2.307   2.796   0.724
   38SOL    HW2  250   2.213   2.912   0.746
   39SOL     OW  251   3.221   2.748   1.828
   39SOL    HW1  252   3.284   2.805   1.783
   39SOL    HW2  253   3.200   2.795   1.908
   40SOL     OW  254   0.736   0.262   1.139
   40SOL    HW1  255   0.806   0.324   1.119
   40SOL    HW2  256   0.779   0.192   1.187
   41SOL     OW  257   1.030   0.699   2.539
   41SOL    HW1  258   1.079   0.780   2.526
   41SOL    HW2  259   1.086   0.631   2.501
   42SOL     OW  260   2.757   0.547   0.553
   42SOL    HW1  261   2.715   0.513   0.474
   42SOL    HW2  262   2.849   0.558   0.528
   43SOL     OW  263   2.547   1.416   3.342
   43SOL    HW1  264   2.462   1.457   3.322
   43SOL    HW2  265   2.530   1.322   3.336
   44SOL     OW  266   0.411   2.757   0.914
   44SOL    HW1  267   0.469   2.707   0.971
   44SOL    HW2  268   0.391   2.836   0.963
   45SOL     OW  269   0.243   2.166   0.296
   45SOL    HW1  270   0.282   2.079   0.294
   45SOL    HW2  271   0.174   2.163   0.229
   46SOL     OW  272   2.491   0.618   2.545
   46SOL    HW1  273   2.521   0.688   2.604
   46SOL    HW2  274   2.563   0.555   2.545
   47SOL     OW  275   1.960   1.894   3.404
   47SOL    HW1  276   2.027   1.890   3.472
   47SOL    HW2  277   1.926   1.983   3.408
   48SOL     OW  278   0.671   2.989   2.437
   48SOL    HW1  279   0.705   2.922   2.378
   48SOL    HW2  280   0.737   2.995   2.507
   49SOL     OW  281   0.075   1.733   1.515
   49SOL    HW1  282   0.007   1.797   1.493
   49SOL    HW2  283   0.155   1.785   1.524
   50SOL     OW  284   3.513   0.207   3.260
   50SOL    HW1  285   3.433   0.175   3.220
   50SOL    HW2  286   3.520   0.298   3.231
   51SOL     OW  287   2.616   2.627   3.144
   51SOL    HW1  288   2.558   2.701   3.126
   51SOL    HW2  289   2.583   2.557   3.088
   52SOL     OW  290   3.975   2.416   3.338
   52SOL    HW1  291   3.884   2.436   3.358
   52SOL    HW2  292   3.974   2.382   3.249
   53SOL     OW  293   3.035   0.533   0.477
   53SOL    HW1  294   3.038   0.441   0.504
   53SOL    HW2  295   3.012   0.530   0.384
   54SOL     OW  296   3.190   0.261   1.424
   54SOL    HW1  297   3.282   0.275   1.400
   54SOL    HW2  298   3.181   0.301   1.511
   55SOL     OW  299   1.296   1.106   3.113
   55SOL    HW1  300   1.341   1.149   3.040
   55SOL    HW2  301   1.245   1.036   3.072
   56SOL     OW  302   3.640   1.944   2.112
   56SOL    HW1  303   3.592   1.981   2.185
   56SOL    HW2  304   3.607   1.990   2.035
   57SOL     OW  305   2.850   1.986   1.986
   57SOL    HW1  306   2.771   1.941   1.955
   57SOL    HW2  307   2.919   1.953   1.928
   58SOL     OW  308   3.762   3.152   0.944
   58SOL    HW1  309   3.779   3.172   1.036
   58SOL    HW2  310   3.777   3.235   0.898
   59SOL     OW  311   2.414   2.502   0.536
   59SOL    HW1  312   2.484   2.486   0.600
   59SOL    HW2  313   2.399   2.597   0.541
   60SOL     OW  314   2.820   2.484   2.238
   60SOL    HW1  315   2.867   2.401   2.231
   60SOL    HW2  316   2.861   2.541   2.173
   61SOL     OW  317   0.270   0.609   3.121
   61SOL    HW1  318   0.342   0.586   3.180
   61SOL    HW2  319   0.233   0.524   3.095
   62SOL     OW  320   1.689   1.076   1.210
   62SOL    HW1  321   1.595   1.074   1.189
   62SOL    HW2  322   1.732   1.101   1.129
   63SOL     OW  323   2.870   1.697   2.927
   63SOL    HW1  324   2.792   1.642   2.925
   63SOL    HW2  325   2.939   1.642   2.889
   64SOL     OW  326   3.713   3.455   2.056
   64SOL    HW1  327   3.641   3.517   2.069
   64SOL    HW2  328   3.671   3.373   2.030
   65SOL     OW  329   0.640   2.732   0.100
   65SOL    HW1  330   0.582   2.728   0.024
   65SOL    HW2  331   0.615   2.655   0.152
   66SOL     OW  332   2.758   1.310   2.372
   66SOL    HW1  333   2.771   1.217   2.392
   66SOL    HW2  334   2.663   1.323   2.381
   67SOL     OW  335   2.130   1.568   3.715
   67SOL    HW1  336   2.116   1.587   3.622
   67SOL    HW2  337   2.205   1.509   3.716
   68SOL     OW  338   2.078   0.790   0.491
   68SOL    HW1  339   2.127   0.809   0.411
   68SOL    HW2  340   2.103   0.859   0.552
   69SOL     OW  341   1.052   0.426   0.171
   69SOL    HW1  342   0.977   0.384   0.129
   69SOL    HW2  343   1.024   0.440   0.261
   70SOL     OW  344   1.197   2.455   0.498
   70SOL    HW1  345   1.116   2.431   0.452
   70SOL    HW2  346   1.168   2.510   0.571
   71SOL     OW  347   1.385   2.896   1.264
   71SOL    HW1  348   1.313   2.911   1.203
   71SOL    HW2  349   1.445   2.969   1.250
   72SOL     OW  350   0.325   1.069   2.200
   72SOL    HW1  351   0.300   1.098   2.112
   72SOL    HW2  352   0.276   1.127   2.259
   73SOL     OW  353   1.793   0.043   2.476
   73SOL    HW1  354   1.867   0.101   2.492
   73SOL    HW2  355   1.832  -0.039   2.446
   74SOL     OW  356   2.469   3.240   3.881
   74SOL    HW1  357   2.523   3.319   3.869
   74SOL    HW2  358   2.392   3.271   3.928
   75SOL     OW  359   3.020   3.443   0.960
   75SOL    HW1  360   3.045   3.503   1.030
   75SOL    HW2  361   3.063   3.479   0.882
   76SOL     OW  362   1.133   0.225   3.329
   76SOL    HW1  363   1.127   0.258   3.418
   76SOL    HW2  364   1.154   0.302   3.276
   77SOL     OW  365   1.736   3.866   1.445
   77SOL    HW1  366   1.700   3.793   1.495
   77SOL    HW2  367   1.829   3.867   1.467
   78SOL     OW  368   3.153   0.097   1.160
   78SOL    HW1  369   3.074   0.141   1.131
   78SOL    HW2  370   3.202   0.164   1.207
   79SOL     OW  371   3.492   2.554   1.722
   79SOL    HW1  372   3.408   2.509   1.728
   79SOL    HW2  373   3.540   2.528   1.800
   80SOL     OW  374   2.145   3.115   3.283
   80SOL    HW1  375   2.129   3.094   3.375
   80SOL    HW2  376   2.112   3.204   3.273
   81SOL     OW  377   1.773   3.704   2.555
   81SOL    HW1  378   1.712   3.632   2.571
   81SOL    HW2  379   1.748   3.771   2.619
   82SOL     OW  380   2.208   2.554   1.098
   82SOL    HW1  381   2.129   2.601   1.124
   82SOL    HW2  382   2.202   2.549   1.003
   83SOL     OW  383   1.891   1.497   3.808
   83SOL    HW1  384   1.972   1.529   3.768
   83SOL    HW2  385   1.830   1.570   3.800
   84SOL     OW  386   2.539   2.206   3.873
   84SOL    HW1  387   2.480   2.139   3.838
   84SOL    HW2  388   2.572   2.252   3.795
   85SOL     OW  389   3.359   1.550   2.397
   85SOL    HW1  390   3.453   1.534   2.399
   85SOL    HW2  391   3.321   1.467   2.368
   86SOL     OW  392   1.974   0.164   3.878
   86SOL    HW1  393   1.966   0.252   3.842
   86SOL    HW2  394   2.022   0.175   3.960
   87SOL     OW  395   0.974   2.765   2.285
   87SOL    HW1  396   0.884   2.753   2.257
   87SOL    HW2  397   0.987   2.699   2.354
   88SOL     OW  398   1.802   2.635   0.633
   88SOL    HW1  399   1.710   2.649   0.615
   88SOL    HW2  400   1.847   2.661   0.553
   89SOL     OW  401   2.080   2.610   0.361
   89SOL    HW1  402   2.112   2.621   0.272
   89SOL    HW2  403   2.159   2.599   0.414
   90SOL     OW  404   3.852   3.815   3.772
   90SOL    HW1  405   3.907   3.880   3.815
   90SOL    HW2  406   3.904   3.734   3.774
   91SOL     OW  407   2.033   3.820   1.936
   91SOL    HW1  408   1.983   3.898   1.958
   91SOL    HW2  409   2.003   3.796   1.848
   92SOL     OW  410   3.646   3.150   1.458
   92SOL    HW1  411   3.712   3.143   1.527
   92SOL    HW2  412   3.675   3.223   1.404
   93SOL     OW  413   1.303   3.478   0.365
   93SOL    HW1  414   1.248   3.423   0.421
   93SOL    HW2  415   1.247   3.498   0.290
   94SOL     OW  416   2.232   0.387   0.472
   94SOL    HW1  417   2.138   0.385   0.490
   94SOL    HW2  418   2.273   0.367   0.557
   95SOL     OW  419   2.436   2.539   1.691
   95SOL    HW1  420   2.453   2.481   1.617
   95SOL    HW2  421   2.356   2.586   1.666
   96SOL     OW  422   3.741   2.209   1.782
   96SOL    HW1  423   3.658   2.171   1.811
   96SOL    HW2  424   3.765   2.269   1.853
   97SOL     OW  425   3.024   0.597   3.511
   97SOL    HW1  426   3.050   0.506   3.497
   97SOL    HW2  427   2.951   0.611   3.451
   98SOL     OW  428   1.371   3.495   1.938
   98SOL    HW1  429   1.310   3.422   1.923
   98SOL    HW2  430   1.317   3.573   1.927
   99SOL     OW  431   0.880   0.268   1.906
   99SOL    HW1  432   0.939   0.343   1.897
   99SOL    HW2  433   0.918   0.216   1.977
  100SOL     OW  434   2.751   1.127   1.332
  100SOL    HW1  435   2.663   1.163   1.319
  100SOL    HW2  436   2.743   1.074   1.411
  101SOL     OW  437   2.396   1.458   3.679
  101SOL    HW1  438   2.475   1.472   3.731
  101SOL    HW2  439   2.426   1.460   3.588
  102SOL     OW  440   1.175   1.487   3.060
  102SOL    HW1  441   1.257   1.453   3.026
  102SOL    HW2  442   1.194   1.579   3.080
  103SOL     OW  443   2.950   3.843   0.619
  103SOL    HW1  444   3.008   3.773   0.590
  103SOL    HW2  445   2.876   3.839   0.558
  104SOL     OW  446   2.945   2.793   3.054
  104SOL    HW1  447   3.010   2.748   3.001
  104SOL    HW2  448   2.864   2.787   3.004
  105SOL     OW  449   0.793   1.730   1.714
  105SOL    HW1  450   0.731   1.799   1.738
  105SOL    HW2  451   0.741   1.650   1.717
  106SOL     OW  452   0.908   1.366   0.898
  106SOL    HW1  453   0.930   1.441   0.842
  106SOL    HW2  454   0.824   1.391   0.938
  107SOL     OW  455   3.044   2.497   2.469
  107SOL    HW1  456   3.015   2.418   2.423
  107SOL    HW2  457   3.078   2.464   2.553
  108SOL     OW  458   1.094   1.076   1.558
  108SOL    HW1  459   1.029   1.040   1.498
  108SOL    HW2  460   1.075   1.170   1.562
  109SOL     OW  461   2.683   2.507   0.641
  109SOL    HW1  462   2.732   2.476   0.565
  109SOL    HW2  463   2.737   2.576   0.679
  110SOL     OW  464   1.768   2.038   3.777
  110SOL    HW1  465   1.704   2.054   3.847
  110SOL    HW2  466   1.754   2.111   3.716
  111SOL     OW  467   1.223   0.915   1.159
  111SOL    HW1  468   1.135   0.923   1.122
  111SOL    HW2  469   1.266   0.997   1.135
  112SOL     OW  470   3.702   1.260   0.074
  112SOL    HW1  471   3.756   1.182   0.064
  112SOL    HW2  472   3.641   1.238   0.145
  113SOL     OW  473   3.602   2.632   1.370
  113SOL    HW1  474   3.560   2.679   1.443
  113SOL    HW2  475   3.640   2.554   1.411
  114SOL     OW  476   1.374   1.991   2.277
  114SOL    HW1  477   1.330   1.992   2.192
  114SOL    HW2  478   1.337   2.066   2.324
  115SOL     OW  479   2.798   2.089   3.912
  115SOL    HW1  480   2.801   2.094   4.008
  115SOL    HW2  481   2.738   2.159   3.887
  116SOL     OW  482   0.717   2.083   2.825
  116SOL    HW1  483   0.739   2.147   2.892
  116SOL    HW2  484   0.673   2.012   2.874
  117SOL     OW  485   2.054   0.775   2.957
  117SOL    HW1  486   2.088   0.705   3.012
  117SOL    HW2  487   2.117   0.780   2.884
  118SOL     OW  488   1.000   0.977   0.455
  118SOL    HW1  489   0.930   0.972   0.521
  118SOL    HW2  490   0.981   1.057   0.406
  119SOL     OW  491   0.815   2.107   1.248
  119SOL    HW1  492   0.885   2.087   1.186
  119SOL    HW2  493   0.777   2.189   1.215
  120SOL     OW  494   0.235   0.213   1.658
  120SOL    HW1  495   0.266   0.301   1.680
  120SOL    HW2  496   0.141   0.216   1.676
  121SOL     OW  497   3.425   0.266   0.035
  121SOL    HW1  498   3.498   0.264  -0.027
  121SOL    HW2  499   3.466   0.248   0.120
  122SOL     OW  500   0.121   0.710   1.965
  122SOL    HW1  501   0.084   0.793   1.932
  122SOL    HW2  502   0.215   0.721   1.955
  123SOL     OW  503   2.435   0.136   3.476
  123SOL    HW1  504   2.422   0.167   3.566
  123SOL    HW2  505   2.491   0.059   3.486
  124SOL     OW  506   0.996   0.540   0.464
  124SOL    HW1  507   1.080   0.548   0.509
  124SOL    HW2  508   0.983   0.626   0.422
  125SOL     OW  509   3.230   1.897   1.682
  125SOL    HW1  510   3.283   1.884   1.603
  125SOL    HW2  511   3.218   1.992   1.688
  126SOL     OW  512   1.072   0.108   1.004
  126SOL    HW1  513   1.137   0.161   0.958
  126SOL    HW2  514   0.991   0.121   0.956
  127SOL     OW  515   0.592   2.136   1.680
  127SOL    HW1  516   0.671   2.190   1.686
  127SOL    HW2  517   0.524   2.196   1.649
  128SOL     OW  518   1.982   2.393   3.513
  128SOL    HW1  519   1.929   2.376   3.590
  128SOL    HW2  520   1.937   2.465   3.468
  129SOL     OW  521   3.069   1.501   2.865
  129SOL    HW1  522   3.038   1.429   2.919
  129SOL    HW2  523   3.110   1.460   2.789
  130SOL     OW  524   3.718   0.737   3.174
  130SOL    HW1  525   3.769   0.808   3.137
  130SOL    HW2  526   3.743   0.660   3.123
  131SOL     OW  527   1.071   2.719   3.174
  131SOL    HW1  528   1.071   2.766   3.091
  131SOL    HW2  529   1.076   2.788   3.240
  132SOL     OW  530   3.515   2.838   2.503
  132SOL    HW1  531   3.491   2.887   2.424
  132SOL    HW2  532   3.435   2.790   2.526
  133SOL     OW  533   2.372   1.082   0.878
  133SOL    HW1  534   2.306   1.143   0.845
  133SOL    HW2  535   2.329   0.996   0.875
  134SOL     OW  536   3.851   2.674   1.908
  134SOL    HW1  537   3.769   2.714   1.934
  134SOL    HW2  538   3.831   2.630   1.825
  135SOL     OW  539   1.958   0.473   0.975
  135SOL    HW1  540   1.920   0.446   1.059
  135SOL    HW2  541   1.965   0.392   0.924
  136SOL     OW  542   0.795   1.957   3.461
  136SOL    HW1  543   0.882   1.942   3.499
  136SOL    HW2  544   0.743   1.884   3.494
  137SOL     OW  545   0.425   0.429   2.809
  137SOL    HW1  546   0.506   0.377   2.811
  137SOL    HW2  547   0.452   0.515   2.777
  138SOL     OW  548   3.934   2.357   3.066
  138SOL    HW1  549   3.895   2.444   3.058
  138SOL    HW2  550   3.940   2.325   2.976
  139SOL     OW  551   2.094   3.394   3.316
  139SOL    HW1  552   2.084   3.487   3.294
  139SOL    HW2  553   2.154   3.393   3.390
  140SOL     OW  554   2.235   2.711   3.293
  140SOL    HW1  555   2.156   2.725   3.345
  140SOL    HW2  556   2.224   2.766   3.216
  141SOL     OW  557   3.579   3.404   2.581
  141SOL    HW1  558   3.493   3.446   2.579
  141SOL    HW2  559   3.641   3.476   2.578
  142SOL     OW  560   0.564   1.705   0.958
  142SOL    HW1  561   0.584   1.774   1.022
  142SOL    HW2  562   0.626   1.719   0.887
  143SOL     OW  563   3.881   3.667   0.492
  143SOL    HW1  564   3.847   3.643   0.405
  143SOL    HW2  565   3.865   3.761   0.499
  144SOL     OW  566   2.075   1.010   3.171
  144SOL    HW1  567   2.059   0.958   3.092
  144SOL    HW2  568   1.988   1.026   3.208
  145SOL     OW  569   1.518   3.220   2.052
  145SOL    HW1  570   1.431   3.244   2.084
  145SOL    HW2  571   1.502   3.151   1.987
  146SOL     OW  572   0.259   2.756   3.624
  146SOL    HW1  573   0.270   2.678   3.569
  146SOL    HW2  574   0.232   2.825   3.563
  147SOL     OW  575   1.220   0.909   2.258
  147SOL    HW1  576   1.231   0.900   2.352
  147SOL    HW2  577   1.125   0.913   2.245
  148SOL     OW  578   2.027   3.475   1.930
  148SOL    HW1  579   2.117   3.499   1.909
  148SOL    HW2  580   2.029   3.380   1.939
  149SOL     OW  581   1.477   2.277   0.496
  149SOL    HW1  582   1.562   2.313   0.521
  149SOL    HW2  583   1.444   2.336   0.429
  150SOL     OW  584   0.447   0.907   3.126
  150SOL    HW1  585   0.447   0.881   3.218
  150SOL    HW2  586   0.537   0.934   3.109
  151SOL     OW  587   0.657   1.722   3.540
  151SOL    HW1  588   0.607   1.752   3.616
  151SOL    HW2  589   0.731   1.673   3.577
  152SOL     OW  590   0.308   2.330   3.072
  152SOL    HW1  591   0.365   2.315   2.996
  152SOL    HW2  592   0.234   2.271   3.058
  153SOL     OW  593   2.687   2.846   2.846
  153SOL    HW1  594   2.708   2.939   2.832
  153SOL    HW2  595   2.615   2.847   2.909
  154SOL     OW  596   2.714   3.946   0.293
  154SOL    HW1  597   2.725   3.895   0.374
  154SOL    HW2  598   2.660   4.021   0.319
  155SOL     OW  599   2.631   3.936   1.689
  155SOL    HW1  600   2.672   3.987   1.759
  155SOL    HW2  601   2.658   3.846   1.707
  156SOL     OW  602   0.633   2.462   0.239
  156SOL    HW1  603   0.539   2.446   0.241
  156SOL    HW2  604   0.661   2.431   0.152
  157SOL     OW  605   2.945   2.681   1.724
  157SOL    HW1  606   3.021   2.664   1.780
  157SOL    HW2  607   2.879   2.617   1.754
  158SOL     OW  608   3.922   2.652   1.158
  158SOL    HW1  609   3.941   2.661   1.065
  158SOL    HW2  610   3.919   2.742   1.191
  159SOL     OW  611   1.574   3.759   2.775
  159SOL    HW1  612   1.495   3.706   2.786
  159SOL    HW2  613   1.565   3.829   2.841
  160SOL     OW  614   1.281   2.827   1.995
  160SOL    HW1  615   1.264   2.733   2.007
  160SOL    HW2  616   1.219   2.870   2.054
  161SOL     OW  617   2.826   3.920   3.839
  161SOL    HW1  618   2.880   3.941   3.915
  161SOL    HW2  619   2.839   3.994   3.779
  162SOL     OW  620   1.053   3.333   3.646
  162SOL    HW1  621   0.999   3.368   3.576
  162SOL    HW2  622   1.034   3.389   3.721
  163SOL     OW  623   1.063   2.604   0.688
  163SOL    HW1  624   0.976   2.641   0.676
  163SOL    HW2  625   1.071   2.589   0.783
  164SOL     OW  626  -0.003   0.550   2.846
  164SOL    HW1  627   0.045   0.479   2.803
  164SOL    HW2  628   0.031   0.630   2.805
  165SOL     OW  629   0.782   1.005   1.659
  165SOL    HW1  630   0.744   0.920   1.682
  165SOL    HW2  631   0.783   1.006   1.564
  166SOL     OW  632   0.213   3.550   1.354
  166SOL    HW1  633   0.261   3.553   1.437
  166SOL    HW2  634   0.185   3.459   1.346
  167SOL     OW  635   0.285   1.115   3.099
  167SOL    HW1  636   0.327   1.171   3.034
  167SOL    HW2  637   0.334   1.033   3.095
  168SOL     OW  638   3.189   3.433   3.330
  168SOL    HW1  639   3.177   3.526   3.351
  168SOL    HW2  640   3.102   3.404   3.301
  169SOL     OW  641   3.002   0.136   3.050
  169SOL    HW1  642   2.929   0.085   3.084
  169SOL    HW2  643   3.079   0.100   3.094
  170SOL     OW  644   3.775   0.301   3.729
  170SOL    HW1  645   3.722   0.351   3.791
  170SOL    HW2  646   3.734   0.317   3.644
  171SOL     OW  647   3.222   2.868   3.616
  171SOL    HW1  648   3.303   2.860   3.565
  171SOL    HW2  649   3.228   2.955   3.656
  172SOL     OW  650   0.857   2.585   1.450
  172SOL    HW1  651   0.877   2.492   1.463
  172SOL    HW2  652   0.901   2.608   1.368
  173SOL     OW  653   2.120   2.582   0.832
  173SOL    HW1  654   2.132   2.526   0.755
  173SOL    HW2  655   2.139   2.670   0.800
  174SOL     OW  656   3.422   2.059   0.411
  174SOL    HW1  657   3.453   2.053   0.321
  174SOL    HW2  658   3.448   1.976   0.451
  175SOL     OW  659   0.305   1.978   2.702
  175SOL    HW1  660   0.331   1.888   2.719
  175SOL    HW2  661   0.262   2.006   2.782
  176SOL     OW  662   3.358   1.065   2.602
  176SOL    HW1  663   3.372   1.159   2.601
  176SOL    HW2  664   3.440   1.029   2.635
  177SOL     OW  665   3.601   3.905   3.385
  177SOL    HW1  666   3.540   3.851   3.434
  177SOL    HW2  667   3.553   3.986   3.367
  178SOL     OW  668   3.648   3.014   0.583
  178SOL    HW1  669   3.632   2.990   0.674
  178SOL    HW2  670   3.607   3.100   0.573
  179SOL     OW  671   2.621   0.300   2.097
  179SOL    HW1  672   2.592   0.321   2.186
  179SOL    HW2  673   2.716   0.288   2.105
  180SOL     OW  674   0.386   3.511   1.592
  180SOL    HW1  675   0.379   3.444   1.660
  180SOL    HW2  676   0.394   3.593   1.641
  181SOL     OW  677   1.576   2.526   3.404
  181SOL    HW1  678   1.578   2.588   3.477
  181SOL    HW2  679   1.663   2.533   3.365
  182SOL     OW  680   0.414   0.167   0.271
  182SOL    HW1  681   0.370   0.178   0.356
  182SOL    HW2  682   0.464   0.086   0.280
  183SOL     OW  683   3.565   1.881   2.569
  183SOL    HW1  684   3.594   1.795   2.599
  183SOL    HW2  685   3.493   1.904   2.627
  184SOL     OW  686   3.757   0.743   0.899
  184SOL    HW1  687   3.739   0.837   0.897
  184SOL    HW2  688   3.826   0.733   0.965
  185SOL     OW  689   0.074   1.611   1.213
  185SOL    HW1  690   0.006   1.608   1.280
  185SOL    HW2  691   0.089   1.520   1.188
  186SOL     OW  692   1.861   0.012   1.050
  186SOL    HW1  693   1.863   0.076   1.121
  186SOL    HW2  694   1.948  -0.027   1.050
  187SOL     OW  695   1.775   1.313   3.533
  187SOL    HW1  696   1.774   1.337   3.626
  187SOL    HW2  697   1.842   1.245   3.526
  188SOL     OW  698   1.617   3.367   0.988
  188SOL    HW1  699   1.612   3.455   0.951
  188SOL    HW2  700   1.645   3.381   1.079
  189SOL     OW  701   1.194   1.573   0.305
  189SOL    HW1  702   1.266   1.515   0.280
  189SOL    HW2  703   1.186   1.635   0.233
  190SOL     OW  704   2.706   3.674   1.763
  190SOL    HW1  705   2.746   3.642   1.844
  190SOL    HW2  706   2.681   3.595   1.716
  191SOL     OW  707   3.431   2.320   0.409
  191SOL    HW1  708   3.339   2.346   0.421
  191SOL    HW2  709   3.428   2.224   0.409
  192SOL     OW  710   2.570   1.926   3.021
  192SOL    HW1  711   2.648   1.892   3.065
  192SOL    HW2  712   2.523   1.974   3.090
  193SOL     OW  713   2.287   2.910   1.428
  193SOL    HW1  714   2.312   2.890   1.337
  193SOL    HW2  715   2.370   2.912   1.476
  194SOL     OW  716   3.583   1.609   3.276
  194SOL    HW1  717   3.490   1.616   3.298
  194SOL    HW2  718   3.628   1.610   3.361
  195SOL     OW  719   3.382   3.431   0.835
  195SOL    HW1  720   3.349   3.358   0.888
  195SOL    HW2  721   3.307   3.491   0.828
  196SOL     OW  722   1.077   2.143   2.779
  196SOL    HW1  723   1.056   2.236   2.770
  196SOL    HW2  724   1.171   2.140   2.792
  197SOL     OW  725   0.875   3.431   3.471
  197SOL    HW1  726   0.812   3.374   3.514
  197SOL    HW2  727   0.853   3.425   3.378
  198SOL     OW  728   3.922   0.375   1.525
  198SOL    HW1  729   3.871   0.417   1.455
  198SOL    HW2  730   3.973   0.447   1.563
  199SOL     OW  731   2.141   3.810   1.130
  199SOL    HW1  732   2.183   3.894   1.115
  199SOL    HW2  733   2.198   3.763   1.191
  200SOL     OW  734   1.001   2.149   0.993
  200SOL    HW1  735   1.034   2.233   0.961
  200SOL    HW2  736   0.983   2.099   0.913
  201SOL     OW  737   0.444   3.074   3.388
  201SOL    HW1  738   0.445   2.979   3.373
  201SOL    HW2  739   0.405   3.110   3.308
  202SOL     OW  740   0.540   0.366   1.299
  202SOL    HW1  741   0.610   0.329   1.245
  202SOL    HW2  742   0.585   0.411   1.370
  203SOL     OW  743   0.003   0.609   1.044
  203SOL    HW1  744   0.038   0.539   1.099
  203SOL    HW2  745   0.044   0.596   0.958
  204SOL     OW  746   2.324   1.768   0.472
  204SOL    HW1  747   2.308   1.674   0.462
  204SOL    HW2  748   2.252   1.799   0.527
  205SOL     OW  749   1.061   2.418   2.811
  205SOL    HW1  750   1.133   2.476   2.791
  205SOL    HW2  751   1.074   2.395   2.904
  206SOL     OW  752   3.564   3.302   0.627
  206SOL    HW1  753   3.645   3.332   0.670
  206SOL    HW2  754   3.499   3.368   0.651
  207SOL     OW  755   3.551   2.201   2.752
  207SOL    HW1  756   3.632   2.251   2.760
  207SOL    HW2  757   3.527   2.178   2.842
  208SOL     OW  758   0.085   0.620   3.917
  208SOL    HW1  759   0.005   0.618   3.968
  208SOL    HW2  760   0.098   0.713   3.896
  209SOL     OW  761   0.854   1.434   2.620
  209SOL    HW1  762   0.947   1.453   2.631
  209SOL    HW2  763   0.831   1.476   2.537
  210SOL     OW  764   3.149   0.302   1.691
  210SOL    HW1  765   3.062   0.334   1.714
  210SOL    HW2  766   3.185   0.270   1.773
  211SOL     OW  767   1.689   2.186   0.944
  211SOL    HW1  768   1.758   2.167   1.007
  211SOL    HW2  769   1.735   2.214   0.865
  212SOL     OW  770   1.138   0.392   3.538
  212SOL    HW1  771   1.144   0.473   3.589
  212SOL    HW2  772   1.065   0.344   3.577
  213SOL     OW  773   0.752   3.623   2.432
  213SOL    HW1  774   0.819   3.650   2.369
  213SOL    HW2  775   0.685   3.579   2.380
  214SOL     OW  776   1.495   0.554   2.633
  214SOL    HW1  777   1.467   0.646   2.635
  214SOL    HW2  778   1.423   0.507   2.675
  215SOL     OW  779   0.016   3.489   1.593
  215SOL    HW1  780   0.065   3.570   1.606
  215SOL    HW2  781  -0.023   3.470   1.678
  216SOL     OW  782   3.832   1.036   3.322
  216SOL    HW1  783   3.918   1.078   3.331
  216SOL    HW2  784   3.823   1.020   3.229
  217SOL     OW  785   1.449   2.009   2.559
  217SOL    HW1  786   1.450   2.098   2.594
  217SOL    HW2  787   1.364   1.974   2.587
  218SOL     OW  788   0.241   2.536   3.432
  218SOL    HW1  789   0.152   2.501   3.437
  218SOL    HW2  790   0.276   2.499   3.351
  219SOL     OW  791   3.415   3.336   2.897
  219SOL    HW1  792   3.487   3.361   2.840
  219SOL    HW2  793   3.351   3.408   2.888
  220SOL     OW  794   0.400   2.264   2.641
  220SOL    HW1  795   0.380   2.171   2.652
  220SOL    HW2  796   0.446   2.289   2.721
  221SOL     OW  797   1.604   2.756   1.484
  221SOL    HW1  798   1.556   2.719   1.409
  221SOL    HW2  799   1.541   2.753   1.556
  222SOL     OW  800   1.456   3.233   1.296
  222SOL    HW1  801   1.434   3.239   1.203
  222SOL    HW2  802   1.372   3.245   1.341
  223SOL     OW  803   3.596   1.774   0.121
  223SOL    HW1  804   3.653   1.727   0.180
  223SOL    HW2  805   3.542   1.829   0.178
  224SOL     OW  806   2.315   0.503   1.848
  224SOL    HW1  807   2.401   0.462   1.841
  224SOL    HW2  808   2.325   0.588   1.805
  225SOL     OW  809   0.767   2.986   0.531
  225SOL    HW1  810   0.827   2.931   0.482
  225SOL    HW2  811   0.823   3.037   0.590
  226SOL     OW  812   2.176   3.000   3.893
  226SOL    HW1  813   2.246   2.935   3.882
  226SOL    HW2  814   2.196   3.043   3.977
  227SOL     OW  815   3.443   0.861   1.131
  227SOL    HW1  816   3.479   0.948   1.112
  227SOL    HW2  817   3.426   0.863   1.226
  228SOL     OW  818   1.387   3.767   2.260
  228SOL    HW1  819   1.385   3.759   2.356
  228SOL    HW2  820   1.428   3.685   2.231
  229SOL     OW  821   3.218   3.853   0.992
  229SOL    HW1  822   3.219   3.935   1.041
  229SOL    HW2  823   3.139   3.859   0.937
  230SOL     OW  824   1.320   3.808   1.273
  230SOL    HW1  825   1.402   3.759   1.283
  230SOL    HW2  826   1.291   3.824   1.363
  231SOL     OW  827   0.314   1.130   1.595
  231SOL    HW1  828   0.398   1.160   1.630
  231SOL    HW2  829   0.275   1.207   1.555
  232SOL     OW  830   3.332   1.699   3.308
  232SOL    HW1  831   3.242   1.723   3.284
  232SOL    HW2  832   3.378   1.783   3.316
  233SOL     OW  833   1.899   3.127   0.195
  233SOL    HW1  834   1.840   3.119   0.121
  233SOL    HW2  835   1.841   3.138   0.271
  234SOL     OW  836   0.627   1.373   0.945
  234SOL    HW1  837   0.564   1.387   1.017
  234SOL    HW2  838   0.575   1.381   0.866
  235SOL     OW  839   1.270   1.365   0.077
  235SOL    HW1  840   1.249   1.285   0.125
  235SOL    HW2  841   1.261   1.340  -0.015
  236SOL     OW  842   3.314   3.183   0.955
  236SOL    HW1  843   3.333   3.090   0.965
  236SOL    HW2  844   3.343   3.223   1.037
  237SOL     OW  845   0.792   3.697   0.864
  237SOL    HW1  846   0.742   3.740   0.795
  237SOL    HW2  847   0.729   3.641   0.909
  238SOL     OW  848   2.777   0.110   1.314
  238SOL    HW1  849   2.770   0.083   1.222
  238SOL    HW2  850   2.791   0.204   1.310
  239SOL     OW  851   3.797   1.789   1.688
  239SOL    HW1  852   3.884   1.750   1.694
  239SOL    HW2  853   3.741   1.733   1.742
  240SOL     OW  854   1.818   0.863   2.833
  240SOL    HW1  855   1.821   0.822   2.746
  240SOL    HW2  856   1.903   0.839   2.873
  241SOL     OW  857   0.379   0.783   0.721
  241SOL    HW1  858   0.436   0.858   0.740
  241SOL    HW2  859   0.430   0.706   0.745
  242SOL     OW  860   2.329   0.127   0.018
  242SOL    HW1  861   2.322   0.148   0.111
  242SOL    HW2  862   2.410   0.076   0.011
  243SOL     OW  863   2.496   2.146   2.859
  243SOL    HW1  864   2.402   2.128   2.864
  243SOL    HW2  865   2.537   2.073   2.906
  244SOL     OW  866   0.658   3.798   0.641
  244SOL    HW1  867   0.739   3.795   0.589
  244SOL    HW2  868   0.613   3.716   0.620
  245SOL     OW  869   1.441   3.143   3.508
  245SOL    HW1  870   1.377   3.142   3.438
  245SOL    HW2  871   1.441   3.053   3.543
  246SOL     OW  872   3.776   1.759   1.033
  246SOL    HW1  873   3.828   1.680   1.018
  246SOL    HW2  874   3.837   1.831   1.016
  247SOL     OW  875   0.765   0.105   0.488
  247SOL    HW1  876   0.825   0.169   0.451
  247SOL    HW2  877   0.781   0.109   0.582
  248SOL     OW  878   3.590   2.717   3.136
  248SOL    HW1  879   3.522   2.655   3.161
  248SOL    HW2  880   3.560   2.754   3.053
  249SOL     OW  881   1.234   1.534   2.042
  249SOL    HW1  882   1.206   1.557   1.954
  249SOL    HW2  883   1.209   1.609   2.096
  250SOL     OW  884   3.217   2.154   0.598
  250SOL    HW1  885   3.230   2.111   0.514
  250SOL    HW2  886   3.300   2.143   0.644
  251SOL     OW  887   0.937   2.893   0.314
  251SOL    HW1  888   0.909   2.984   0.305
  251SOL    HW2  889   0.949   2.863   0.223
  252SOL     OW  890   1.795   1.012   3.800
  252SOL    HW1  891   1.739   1.032   3.725
  252SOL    HW2  892   1.831   0.926   3.780
  253SOL     OW  893   3.346   1.169   1.596
  253SOL    HW1  894   3.436   1.149   1.570
  253SOL    HW2  895   3.354   1.245   1.654
  254SOL     OW  896   1.497   3.453   2.919
  254SOL    HW1  897   1.552   3.438   2.842
  254SOL    HW2  898   1.548   3.419   2.992
  255SOL     OW  899   2.210   1.247   3.403
  255SOL    HW1  900   2.245   1.310   3.340
  255SOL    HW2  901   2.264   1.259   3.481
  256SOL     OW  902   2.755   0.719   2.756
  256SOL    HW1  903   2.845   0.745   2.774
  256SOL    HW2  904   2.720   0.789   2.701
  257SOL     OW  905   0.344   1.493   0.671
  257SOL    HW1  906   0.325   1.486   0.577
  257SOL    HW2  907   0.423   1.440   0.683
  258SOL     OW  908   0.770   1.042   1.932
  258SOL    HW1  909   0.832   1.113   1.948
  258SOL    HW2  910   0.787   1.015   1.842
  259SOL     OW  911   1.535   2.737   0.600
  259SOL    HW1  912   1.571   2.818   0.635
  259SOL    HW2  913   1.504   2.761   0.513
  260SOL     OW  914   2.179   1.575   0.274
  260SOL    HW1  915   2.166   1.571   0.369
  260SOL    HW2  916   2.266   1.536   0.261
  261SOL     OW  917   3.398   0.870   0.625
  261SOL    HW1  918   3.342   0.868   0.547
  261SOL    HW2  919   3.443   0.786   0.625
  262SOL     OW  920   2.464   1.472   0.092
  262SOL    HW1  921   2.462   1.463   0.187
  262SOL    HW2  922   2.480   1.383   0.060
  263SOL     OW  923   0.629   1.067   3.788
  263SOL    HW1  924   0.674   1.045   3.706
  263SOL    HW2  925   0.554   1.121   3.760
  264SOL     OW  926   1.855   0.846   1.204
  264SOL    HW1  927   1.810   0.798   1.134
  264SOL    HW2  928   1.790   0.910   1.235
  265SOL     OW  929   0.962   3.785   3.812
  265SOL    HW1  930   1.047   3.828   3.825
  265SOL    HW2  931   0.900   3.857   3.804
  266SOL     OW  932   0.720   0.539   2.416
  266SOL    HW1  933   0.698   0.475   2.349
  266SOL    HW2  934   0.690   0.623   2.380
  267SOL     OW  935   3.701   0.060   0.056
  267SOL    HW1  936   3.629  -0.002   0.043
  267SOL    HW2  937   3.681   0.103   0.139
  268SOL     OW  938   3.675   3.905   1.244
  268SOL    HW1  939   3.675   3.825   1.192
  268SOL    HW2  940   3.604   3.958   1.207
  269SOL     OW  941   3.958   0.246   3.445
  269SOL    HW1  942   3.896   0.184   3.483
  269SOL    HW2  943   3.978   0.307   3.517
  270SOL     OW  944   1.323   2.246   0.255
  270SOL    HW1  945   1.385   2.181   0.290
  270SOL    HW2  946   1.270   2.198   0.192
  271SOL     OW  947   3.627   2.283   0.903
  271SOL    HW1  948   3.575   2.360   0.924
  271SOL    HW2  949   3.717   2.308   0.924
  272SOL     OW  950   0.512   2.332   2.883
  272SOL    HW1  951   0.572   2.271   2.926
  272SOL    HW2  952   0.550   2.418   2.899
  273SOL     OW  953   3.281   2.481   0.998
  273SOL    HW1  954   3.226   2.508   1.072
  273SOL    HW2  955   3.366   2.519   1.017
  274SOL     OW  956   2.980   1.190   3.487
  274SOL    HW1  957   2.918   1.133   3.531
  274SOL    HW2  958   2.937   1.276   3.484
  275SOL     OW  959   1.412   1.113   1.310
  275SOL    HW1  960   1.489   1.110   1.368
  275SOL    HW2  961   1.354   1.045   1.344
  276SOL     OW  962   0.080   3.407   2.830
  276SOL    HW1  963   0.101   3.452   2.748
  276SOL    HW2  964  -0.016   3.410   2.835
  277SOL     OW  965   2.339   2.741   2.372
  277SOL    HW1  966   2.268   2.763   2.433
  277SOL    HW2  967   2.419   2.756   2.423
  278SOL     OW  968   2.458   3.202   1.738
  278SOL    HW1  969   2.385   3.262   1.722
  278SOL    HW2  970   2.416   3.117   1.756
  279SOL     OW  971   0.056   0.877   2.278
  279SOL    HW1  972   0.014   0.798   2.244
  279SOL    HW2  973  -0.003   0.907   2.348
  280SOL     OW  974   2.814   1.004   0.592
  280SOL    HW1  975   2.867   1.064   0.540
  280SOL    HW2  976   2.877   0.958   0.647
  281SOL     OW  977   0.904   2.973   3.052
  281SOL    HW1  978   0.820   3.017   3.039
  281SOL    HW2  979   0.930   2.996   3.141
  282SOL     OW  980   2.931   3.926   0.137
  282SOL    HW1  981   2.987   3.850   0.150
  282SOL    HW2  982   2.875   3.928   0.214
  283SOL     OW  983   2.075   3.712   2.701
  283SOL    HW1  984   2.013   3.779   2.671
  283SOL    HW2  985   2.038   3.679   2.783
  284SOL     OW  986   2.506   3.023   0.888
  284SOL    HW1  987   2.578   3.024   0.951
  284SOL    HW2  988   2.547   2.999   0.805
  285SOL     OW  989   1.068   1.865   0.506
  285SOL    HW1  990   1.010   1.789   0.512
  285SOL    HW2  991   1.152   1.834   0.539
  286SOL     OW  992   2.919   2.267   1.679
  286SOL    HW1  993   2.900   2.316   1.599
  286SOL    HW2  994   2.900   2.176   1.656
  287SOL     OW  995   3.169   1.374   2.215
  287SOL    HW1  996   3.220   1.434   2.160
  287SOL    HW2  997   3.099   1.343   2.157
  288SOL     OW  998   2.686   3.737   1.078
  288SOL    HW1  999   2.698   3.722   0.985
  288SOL    HW2 1000   2.771   3.770   1.109
  289SOL     OW 1001   0.664   1.366   3.286
  289SOL    HW1 1002   0.753   1.397   3.304
  289SOL    HW2 1003   0.641   1.313   3.362
  290SOL     OW 1004   2.959   1.709   1.777
  290SOL    HW1 1005   2.877   1.678   1.815
  290SOL    HW2 1006   3.025   1.647   1.808
  291SOL     OW 1007   1.949   1.390   3.337
  291SOL    HW1 1008   1.879   1.375   3.400
  291SOL    HW2 1009   2.027   1.353   3.378
  292SOL     OW 1010   2.117   2.974   0.282
  292SOL    HW1 1011   2.198   3.021   0.302
  292SOL    HW2 1012   2.051   3.043   0.272
  293SOL     OW 1013   1.664   2.875   1.032
  293SOL    HW1 1014   1.694   2.965   1.016
  293SOL    HW2 1015   1.738   2.820   1.006
  294SOL     OW 1016   1.573   3.879   0.748
  294SOL    HW1 1017   1.537   3.831   0.673
  294SOL    HW2 1018   1.591   3.967   0.713
  295SOL     OW 1019   2.930   0.413   3.102
  295SOL    HW1 1020   3.012   0.464   3.100
  295SOL    HW2 1021   2.953   0.330   3.059
  296SOL     OW 1022   3.011   0.300   0.960
  296SOL    HW1 1023   3.029   0.343   1.043
  296SOL    HW2 1024   3.097   0.280   0.924
  297SOL     OW 1025   0.745   2.455   3.715
  297SOL    HW1 1026   0.714   2.402   3.641
  297SOL    HW2 1027   0.739   2.545   3.684
  298SOL     OW 1028   2.516   0.884   2.929
  298SOL    HW1 1029   2.604   0.901   2.963
  298SOL    HW2 1030   2.530   0.828   2.853
  299SOL     OW 1031   1.708   2.476   1.756
  299SOL    HW1 1032   1.739   2.386   1.745
  299SOL    HW2 1033   1.757   2.509   1.832
  300SOL     OW 1034   2.796   2.849   1.335
  300SOL    HW1 1035   2.732   2.816   1.398
  300SOL    HW2 1036   2.797   2.943   1.349
  301SOL     OW 1037   3.366   1.789   0.284
  301SOL    HW1 1038   3.275   1.809   0.262
  301SOL    HW2 1039   3.389   1.717   0.227
  302SOL     OW 1040   2.622   1.973   2.325
  302SOL    HW1 1041   2.619   1.975   2.229
  302SOL    HW2 1042   2.584   1.888   2.348
  303SOL     OW 1043   0.888   1.225   1.252
  303SOL    HW1 1044   0.878   1.320   1.262
  303SOL    HW2 1045   0.983   1.211   1.246
  304SOL     OW 1046   0.579   0.155   2.342
  304SOL    HW1 1047   0.613   0.239   2.309
  304SOL    HW2 1048   0.648   0.123   2.400
  305SOL     OW 1049   3.085   0.092   3.693
  305SOL    HW1 1050   3.148   0.163   3.685
  305SOL    HW2 1051   3.139   0.013   3.701
  306SOL     OW 1052   2.180   0.159   1.644
  306SOL    HW1 1053   2.236   0.166   1.721
  306SOL    HW2 1054   2.239   0.140   1.571
  307SOL     OW 1055   0.401   1.232   2.863
  307SOL    HW1 1056   0.391   1.180   2.784
  307SOL    HW2 1057   0.481   1.283   2.849
  308SOL     OW 1058   2.827   2.958   1.827
  308SOL    HW1 1059   2.760   2.916   1.882
  308SOL    HW2 1060   2.902   2.898   1.830
  309SOL     OW 1061   1.548   3.497   2.251
  309SOL    HW1 1062   1.618   3.448   2.207
  309SOL    HW2 1063   1.479   3.505   2.185
  310SOL     OW 1064   0.901   1.645   3.685
  310SOL    HW1 1065   0.994   1.667   3.677
  310SOL    HW2 1066   0.893   1.609   3.774
  311SOL     OW 1067   0.978   1.224   0.312
  311SOL    HW1 1068   1.059   1.182   0.284
  311SOL    HW2 1069   0.943   1.264   0.232
  312SOL     OW 1070   2.416   1.750   2.893
  312SOL    HW1 1071   2.477   1.821   2.914
  312SOL    HW2 1072   2.461   1.700   2.824
  313SOL     OW 1073   2.057   0.785   1.691
  313SOL    HW1 1074   2.148   0.760   1.708
  313SOL    HW2 1075   2.008   0.750   1.766
  314SOL     OW 1076   0.125   1.816   3.559
  314SOL    HW1 1077   0.086   1.902   3.572
  314SOL    HW2 1078   0.199   1.832   3.500
  315SOL     OW 1079   0.037   1.552   2.219
  315SOL    HW1 1080   0.044   1.562   2.314
  315SOL    HW2 1081   0.085   1.627   2.184
  316SOL     OW 1082   2.217   2.866   1.781
  316SOL    HW1 1083   2.295   2.902   1.823
  316SOL    HW2 1084   2.170   2.942   1.749
  317SOL     OW 1085   2.435   3.631   0.640
  317SOL    HW1 1086   2.375   3.705   0.651
  317SOL    HW2 1087   2.387   3.556   0.675
  318SOL     OW 1088   0.717   1.015   3.541
  318SOL    HW1 1089   0.778   1.075   3.499
  318SOL    HW2 1090   0.732   0.931   3.497
  319SOL     OW 1091   1.408   2.438   3.110
  319SOL    HW1 1092   1.324   2.393   3.098
  319SOL    HW2 1093   1.432   2.419   3.201
  320SOL     OW 1094   3.620   1.532   2.439
  320SOL    HW1 1095   3.647   1.602   2.380
  320SOL    HW2 1096   3.700   1.505   2.484
  321SOL     OW 1097   3.500   3.896   2.525
  321SOL    HW1 1098   3.443   3.947   2.582
  321SOL    HW2 1099   3.555   3.846   2.585
  322SOL     OW 1100   1.726   0.142   1.299
  322SOL    HW1 1101   1.634   0.167   1.307
  322SOL    HW2 1102   1.730   0.052   1.331
  323SOL     OW 1103   2.223   2.305   2.110
  323SOL    HW1 1104   2.161   2.355   2.055
  323SOL    HW2 1105   2.229   2.356   2.191
  324SOL     OW 1106   3.240   0.764   0.399
  324SOL    HW1 1107   3.152   0.725   0.399
  324SOL    HW2 1108   3.278   0.737   0.316
  325SOL     OW 1109   1.550   3.531   0.221
  325SOL    HW1 1110   1.461   3.525   0.256
  325SOL    HW2 1111   1.544   3.598   0.153
  326SOL     OW 1112   1.054   3.093   2.700
  326SOL    HW1 1113   0.968   3.119   2.731
  326SOL    HW2 1114   1.039   3.064   2.610
  327SOL     OW 1115   3.630   2.409   1.540
  327SOL    HW1 1116   3.569   2.453   1.600
  327SOL    HW2 1117   3.639   2.321   1.577
  328SOL     OW 1118   3.918   3.762   0.771
  328SOL    HW1 1119   3.910   3.686   0.714
  328SOL    HW2 1120   3.829   3.775   0.806
  329SOL     OW 1121   0.764   1.865   3.007
  329SOL    HW1 1122   0.833   1.931   3.011
  329SOL    HW2 1123   0.810   1.782   3.006
  330SOL     OW 1124   3.523   2.595   0.450
  330SOL    HW1 1125   3.472   2.650   0.390
  330SOL    HW2 1126   3.486   2.508   0.440
  331SOL     OW 1127   1.474   0.942   0.592
  331SOL    HW1 1128   1.379   0.957   0.593
  331SOL    HW2 1129   1.492   0.912   0.503
  332SOL     OW 1130   0.587   1.769   2.697
  332SOL    HW1 1131   0.675   1.750   2.732
  332SOL    HW2 1132   0.528   1.754   2.771
  333SOL     OW 1133   2.285   2.165   2.618
  333SOL    HW1 1134   2.289   2.150   2.712
  333SOL    HW2 1135   2.376   2.154   2.588
  334SOL     OW 1136   0.400   2.755   3.902
  334SOL    HW1 1137   0.353   2.802   3.833
  334SOL    HW2 1138   0.340   2.754   3.976
  335SOL     OW 1139   3.769   2.768   0.121
  335SOL    HW1 1140   3.818   2.830   0.067
  335SOL    HW2 1141   3.813   2.769   0.205
  336SOL     OW 1142   1.939   0.216   2.911
  336SOL    HW1 1143   1.856   0.262   2.924
  336SOL    HW2 1144   2.002   0.286   2.896
  337SOL     OW 1145   1.985   0.205   0.866
  337SOL    HW1 1146   1.917   0.145   0.897
  337SOL    HW2 1147   2.066   0.172   0.905
  338SOL     OW 1148   1.699   2.498   3.015
  338SOL    HW1 1149   1.737   2.417   2.980
  338SOL    HW2 1150   1.605   2.489   2.997
  339SOL     OW 1151   1.256   2.368   3.634
  339SOL    HW1 1152   1.185   2.385   3.696
  339SOL    HW2 1153   1.329   2.421   3.665
  340SOL     OW 1154   2.795   3.089   2.871
  340SOL    HW1 1155   2.801   3.104   2.966
  340SOL    HW2 1156   2.755   3.169   2.837
  341SOL     OW 1157   0.333   3.680   3.939
  341SOL    HW1 1158   0.395   3.744   3.973
  341SOL    HW2 1159   0.258   3.733   3.910
  342SOL     OW 1160   1.447   2.665   2.557
  342SOL    HW1 1161   1.461   2.652   2.463
  342SOL    HW2 1162   1.534   2.658   2.596
  343SOL     OW 1163   2.173   3.438   0.082
  343SOL    HW1 1164   2.197   3.520   0.127
  343SOL    HW2 1165   2.123   3.467   0.005
  344SOL     OW 1166   0.356   0.769   2.240
  344SOL    HW1 1167   0.413   0.835   2.201
  344SOL    HW2 1168   0.273   0.813   2.254
  345SOL     OW 1169   1.253   1.766   2.960
  345SOL    HW1 1170   1.347   1.770   2.941
  345SOL    HW2 1171   1.214   1.835   2.906
  346SOL     OW 1172   2.706   3.036   1.054
  346SOL    HW1 1173   2.772   3.096   1.019
  346SOL    HW2 1174   2.741   3.009   1.139
  347SOL     OW 1175   2.524   2.188   2.484
  347SOL    HW1 1176   2.609   2.200   2.527
  347SOL    HW2 1177   2.538   2.114   2.424
  348SOL     OW 1178   3.322   3.248   0.177
  348SOL    HW1 1179   3.305   3.203   0.094
  348SOL    HW2 1180   3.414   3.231   0.195
  349SOL     OW 1181   2.299   1.398   1.458
  349SOL    HW1 1182   2.235   1.457   1.419
  349SOL    HW2 1183   2.379   1.451   1.466
  350SOL     OW 1184   2.181   2.520   3.764
  350SOL    HW1 1185   2.203   2.532   3.672
  350SOL    HW2 1186   2.247   2.459   3.797
  351SOL     OW 1187   2.895   2.390   3.743
  351SOL    HW1 1188   2.957   2.384   3.670
  351SOL    HW2 1189   2.950   2.410   3.819
  352SOL     OW 1190   1.035   3.456   2.449
  352SOL    HW1 1191   0.964   3.440   2.512
  352SOL    HW2 1192   1.011   3.539   2.407
  353SOL     OW 1193   2.585   1.916   3.361
  353SOL    HW1 1194   2.618   1.906   3.451
  353SOL    HW2 1195   2.663   1.912   3.306
  354SOL     OW 1196   0.408   1.226   3.715
  354SOL    HW1 1197   0.379   1.312   3.745
  354SOL    HW2 1198   0.327   1.179   3.698
  355SOL     OW 1199   1.927   1.767   2.878
  355SOL    HW1 1200   2.011   1.722   2.884
  355SOL    HW2 1201   1.891   1.739   2.794
  356SOL     OW 1202   0.849   0.997   1.396
  356SOL    HW1 1203   0.855   0.936   1.322
  356SOL    HW2 1204   0.870   1.082   1.358
  357SOL     OW 1205   2.669   1.070   3.918
  357SOL    HW1 1206   2.721   1.150   3.919
  357SOL    HW2 1207   2.733   1.000   3.912
  358SOL     OW 1208   1.024   2.122   1.913
  358SOL    HW1 1209   0.930   2.113   1.929
  358SOL    HW2 1210   1.035   2.094   1.822
  359SOL     OW 1211   0.612   3.313   3.334
  359SOL    HW1 1212   0.560   3.384   3.371
  359SOL    HW2 1213   0.567   3.233   3.361
  360SOL     OW 1214   0.395   3.268   1.998
  360SOL    HW1 1215   0.344   3.253   1.918
  360SOL    HW2 1216   0.337   3.319   2.054
  361SOL     OW 1217   0.746   2.089   0.793
  361SOL    HW1 1218   0.742   2.183   0.776
  361SOL    HW2 1219   0.655   2.061   0.799
  362SOL     OW 1220   1.214   0.654   0.856
  362SOL    HW1 1221   1.133   0.607   0.876
  362SOL    HW2 1222   1.198   0.743   0.886
  363SOL     OW 1223   1.692   3.201   3.587
  363SOL    HW1 1224   1.687   3.215   3.681
  363SOL    HW2 1225   1.603   3.217   3.556
  364SOL     OW 1226   1.852   2.116   3.276
  364SOL    HW1 1227   1.773   2.128   3.223
  364SOL    HW2 1228   1.885   2.205   3.291
  365SOL     OW 1229   0.257   2.024   2.303
  365SOL    HW1 1230   0.208   2.100   2.271
  365SOL    HW2 1231   0.339   2.061   2.336
  366SOL     OW 1232   0.313   0.495   0.054
  366SOL    HW1 1233   0.233   0.515   0.005
  366SOL    HW2 1234   0.366   0.574   0.047
  367SOL     OW 1235   0.680   3.324   3.622
  367SOL    HW1 1236   0.676   3.314   3.717
  367SOL    HW2 1237   0.591   3.305   3.592
  368SOL     OW 1238   1.572   3.835   3.510
  368SOL    HW1 1239   1.585   3.890   3.434
  368SOL    HW2 1240   1.586   3.746   3.479
  369SOL     OW 1241   3.342   3.280   3.450
  369SOL    HW1 1242   3.275   3.344   3.427
  369SOL    HW2 1243   3.300   3.195   3.435
  370SOL     OW 1244   1.409   0.878   1.621
  370SOL    HW1 1245   1.425   0.784   1.623
  370SOL    HW2 1246   1.349   0.894   1.693
  371SOL     OW 1247   2.557   0.852   1.535
  371SOL    HW1 1248   2.643   0.833   1.574
  371SOL    HW2 1249   2.511   0.901   1.603
  372SOL     OW 1250   3.834   3.169   1.207
  372SOL    HW1 1251   3.847   3.234   1.276
  372SOL    HW2 1252   3.806   3.090   1.254
  373SOL     OW 1253   2.564   3.219   2.096
  373SOL    HW1 1254   2.525   3.138   2.128
  373SOL    HW2 1255   2.646   3.192   2.055
  374SOL     OW 1256   1.965   1.707   3.195
  374SOL    HW1 1257   1.882   1.717   3.147
  374SOL    HW2 1258   1.969   1.783   3.252
  375SOL     OW 1259   1.575   1.471   1.528
  375SOL    HW1 1260   1.640   1.530   1.565
  375SOL    HW2 1261   1.587   1.477   1.433
  376SOL     OW 1262   0.314   2.652   2.025
  376SOL    HW1 1263   0.231   2.695   2.044
  376SOL    HW2 1264   0.380   2.720   2.038
  377SOL     OW 1265   1.217   1.024   1.957
  377SOL    HW1 1266   1.251   1.054   2.041
  377SOL    HW2 1267   1.186   1.104   1.914
  378SOL     OW 1268   2.121   0.453   2.875
  378SOL    HW1 1269   2.196   0.447   2.934
  378SOL    HW2 1270   2.157   0.490   2.794
  379SOL     OW 1271   3.810   1.522   0.122
  379SOL    HW1 1272   3.825   1.524   0.216
  379SOL    HW2 1273   3.787   1.430   0.104
  380SOL     OW 1274   0.726   3.314   1.860
  380SOL    HW1 1275   0.702   3.228   1.894
  380SOL    HW2 1276   0.779   3.296   1.783
  381SOL     OW 1277   0.776   0.535   3.208
  381SOL    HW1 1278   0.784   0.519   3.302
  381SOL    HW2 1279   0.841   0.602   3.189
  382SOL     OW 1280   1.773   3.547   0.630
  382SOL    HW1 1281   1.697   3.513   0.678
  382SOL    HW2 1282   1.741   3.627   0.589
  383SOL     OW 1283   2.399   0.114   2.506
  383SOL    HW1 1284   2.347   0.139   2.582
  383SOL    HW2 1285   2.364   0.029   2.479
  384SOL     OW 1286   0.153   2.290   3.789
  384SOL    HW1 1287   0.065   2.326   3.782
  384SOL    HW2 1288   0.148   2.232   3.865
  385SOL     OW 1289   1.958   0.206   2.222
  385SOL    HW1 1290   2.022   0.222   2.153
  385SOL    HW2 1291   1.894   0.147   2.182
  386SOL     OW 1292   2.556   2.633   1.927
  386SOL    HW1 1293   2.479   2.635   1.983
  386SOL    HW2 1294   2.522   2.628   1.838
  387SOL     OW 1295   0.265   3.405   0.801
  387SOL    HW1 1296   0.247   3.447   0.885
  387SOL    HW2 1297   0.196   3.437   0.743
  388SOL     OW 1298   2.252   3.463   1.759
  388SOL    HW1 1299   2.293   3.414   1.831
  388SOL    HW2 1300   2.307   3.541   1.750
  389SOL     OW 1301   2.628   3.909   1.432
  389SOL    HW1 1302   2.642   3.925   1.525
  389SOL    HW2 1303   2.696   3.960   1.388
  390SOL     OW 1304   0.111   3.031   1.823
  390SOL    HW1 1305   0.110   2.938   1.800
  390SOL    HW2 1306   0.112   3.032   1.919
  391SOL     OW 1307   1.093   3.665   0.811
  391SOL    HW1 1308   1.139   3.721   0.874
  391SOL    HW2 1309   1.006   3.652   0.850
  392SOL     OW 1310   0.630   3.069   0.753
  392SOL    HW1 1311   0.659   3.004   0.689
  392SOL    HW2 1312   0.539   3.087   0.730
  393SOL     OW 1313   1.832   2.723   3.110
  393SOL    HW1 1314   1.780   2.655   3.069
  393SOL    HW2 1315   1.830   2.796   3.048
  394SOL     OW 1316   0.010   0.858   0.240
  394SOL    HW1 1317   0.092   0.831   0.281
  394SOL    HW2 1318  -0.037   0.905   0.308
  395SOL     OW 1319   1.207   1.898   2.679
  395SOL    HW1 1320   1.148   1.842   2.628
  395SOL    HW2 1321   1.152   1.970   2.709
  396SOL     OW 1322   3.619   0.877   1.559
  396SOL    HW1 1323   3.610   0.952   1.500
  396SOL    HW2 1324   3.530   0.852   1.581
  397SOL     OW 1325   3.593   3.177   3.502
  397SOL    HW1 1326   3.619   3.141   3.417
  397SOL    HW2 1327   3.504   3.211   3.487
  398SOL     OW 1328   2.081   3.678   0.904
  398SOL    HW1 1329   1.991   3.695   0.874
  398SOL    HW2 1330   2.092   3.737   0.979
  399SOL     OW 1331   0.385   0.874   3.894
  399SOL    HW1 1332   0.412   0.811   3.961
  399SOL    HW2 1333   0.452   0.942   3.896
  400SOL     OW 1334   1.386   2.360   3.378
  400SOL    HW1 1335   1.465   2.412   3.395
  400SOL    HW2 1336   1.337   2.364   3.460
  401SOL     OW 1337   2.129   1.557   0.531
  401SOL    HW1 1338   2.073   1.480   0.538
  401SOL    HW2 1339   2.161   1.572   0.619
  402SOL     OW 1340   0.713   2.050   2.234
  402SOL    HW1 1341   0.631   2.080   2.274
  402SOL    HW2 1342   0.754   1.995   2.301
  403SOL     OW 1343   2.929   0.863   3.062
  403SOL    HW1 1344   2.906   0.878   3.154
  403SOL    HW2 1345   2.898   0.942   3.017
  404SOL     OW 1346   2.998   0.276   0.562
  404SOL    HW1 1347   2.909   0.256   0.591
  404SOL    HW2 1348   3.054   0.222   0.617
  405SOL     OW 1349   1.162   2.739   0.956
  405SOL    HW1 1350   1.248   2.757   0.917
  405SOL    HW2 1351   1.167   2.649   0.987
  406SOL     OW 1352   0.079   0.798   1.454
  406SOL    HW1 1353   0.045   0.871   1.505
  406SOL    HW2 1354   0.162   0.830   1.419
  407SOL     OW 1355   2.983   1.477   0.935
  407SOL    HW1 1356   2.897   1.436   0.936
  407SOL    HW2 1357   2.981   1.540   1.007
  408SOL     OW 1358   2.057   3.541   2.255
  408SOL    HW1 1359   2.137   3.501   2.288
  408SOL    HW2 1360   2.080   3.572   2.167
  409SOL     OW 1361   3.111   2.939   0.306
  409SOL    HW1 1362   3.039   2.923   0.245
  409SOL    HW2 1363   3.121   3.034   0.308
  410SOL     OW 1364   2.174   2.419   0.614
  410SOL    HW1 1365   2.190   2.324   0.620
  410SOL    HW2 1366   2.248   2.452   0.563
  411SOL     OW 1367   1.498   3.520   1.700
  411SOL    HW1 1368   1.457   3.538   1.784
  411SOL    HW2 1369   1.557   3.595   1.686
  412SOL     OW 1370   1.774   3.455   1.531
  412SOL    HW1 1371   1.815   3.519   1.588
  412SOL    HW2 1372   1.847   3.403   1.497
  413SOL     OW 1373   3.638   3.913   1.507
  413SOL    HW1 1374   3.730   3.918   1.534
  413SOL    HW2 1375   3.642   3.891   1.414
  414SOL     OW 1376   0.539   2.531   3.202
  414SOL    HW1 1377   0.631   2.543   3.180
  414SOL    HW2 1378   0.494   2.601   3.155
  415SOL     OW 1379   0.169   1.408   1.922
  415SOL    HW1 1380   0.141   1.423   1.832
  415SOL    HW2 1381   0.087   1.398   1.971
  416SOL     OW 1382   3.421   1.504   0.203
  416SOL    HW1 1383   3.496   1.549   0.244
  416SOL    HW2 1384   3.404   1.430   0.261
  417SOL     OW 1385   1.120   1.980   1.172
  417SOL    HW1 1386   1.104   2.048   1.106
  417SOL    HW2 1387   1.184   2.019   1.231
  418SOL     OW 1388   0.250   3.594   1.061
  418SOL    HW1 1389   0.207   3.578   1.145
  418SOL    HW2 1390   0.313   3.663   1.079
  419SOL     OW 1391   3.186   3.528   2.916
  419SOL    HW1 1392   3.102   3.573   2.918
  419SOL    HW2 1393   3.250   3.597   2.893
  420SOL     OW 1394   1.565   0.587   1.736
  420SOL    HW1 1395   1.630   0.533   1.691
  420SOL    HW2 1396   1.537   0.534   1.811
  421SOL     OW 1397   0.565   0.295   0.729
  421SOL    HW1 1398   0.529   0.216   0.689
  421SOL    HW2 1399   0.593   0.268   0.816
  422SOL     OW 1400   1.225   0.346   2.010
  422SOL    HW1 1401   1.315   0.353   1.977
  422SOL    HW2 1402   1.203   0.435   2.037
  423SOL     OW 1403   3.159   3.649   0.535
  423SOL    HW1 1404   3.160   3.554   0.537
  423SOL    HW2 1405   3.216   3.673   0.463
  424SOL     OW 1406   3.796   1.524   1.504
  424SOL    HW1 1407   3.725   1.585   1.485
  424SOL    HW2 1408   3.876   1.576   1.492
  425SOL     OW 1409   0.242   2.983   1.332
  425SOL    HW1 1410   0.230   2.890   1.352
  425SOL    HW2 1411   0.315   2.985   1.271
  426SOL     OW 1412   2.618   1.650   3.652
  426SOL    HW1 1413   2.634   1.738   3.684
  426SOL    HW2 1414   2.689   1.598   3.689
  427SOL     OW 1415   2.417   0.134   2.005
  427SOL    HW1 1416   2.423   0.076   2.081
  427SOL    HW2 1417   2.491   0.194   2.014
  428SOL     OW 1418   3.224   2.988   1.307
  428SOL    HW1 1419   3.189   2.942   1.230
  428SOL    HW2 1420   3.217   3.081   1.284
  429SOL     OW 1421  -0.021   0.485   0.321
  429SOL    HW1 1422   0.044   0.535   0.371
  429SOL    HW2 1423   0.030   0.432   0.260
  430SOL     OW 1424   1.067   1.729   2.469
  430SOL    HW1 1425   1.002   1.755   2.404
  430SOL    HW2 1426   1.107   1.649   2.433
  431SOL     OW 1427   3.253   2.216   1.046
  431SOL    HW1 1428   3.167   2.194   1.080
  431SOL    HW2 1429   3.251   2.311   1.032
  432SOL     OW 1430   2.481   1.217   2.301
  432SOL    HW1 1431   2.407   1.267   2.266
  432SOL    HW2 1432   2.518   1.174   2.224
  433SOL     OW 1433   0.829   3.659   3.593
  433SOL    HW1 1434   0.848   3.575   3.552
  433SOL    HW2 1435   0.901   3.673   3.654
  434SOL     OW 1436   1.023   3.707   2.351
  434SOL    HW1 1437   1.019   3.767   2.275
  434SOL    HW2 1438   1.108   3.726   2.391
  435SOL     OW 1439   3.434   1.260   0.376
  435SOL    HW1 1440   3.405   1.179   0.334
  435SOL    HW2 1441   3.384   1.265   0.458
  436SOL     OW 1442   2.792   1.922   0.452
  436SOL    HW1 1443   2.833   1.971   0.523
  436SOL    HW2 1444   2.729   1.864   0.496
  437SOL     OW 1445   3.943   2.199   1.621
  437SOL    HW1 1446   3.911   2.184   1.533
  437SOL    HW2 1447   3.866   2.190   1.677
  438SOL     OW 1448   3.434   2.054   2.295
  438SOL    HW1 1449   3.408   1.963   2.314
  438SOL    HW2 1450   3.409   2.103   2.373
  439SOL     OW 1451   2.680   0.224   1.083
  439SOL    HW1 1452   2.623   0.301   1.085
  439SOL    HW2 1453   2.734   0.236   1.005
  440SOL     OW 1454   1.025   1.509   1.280
  440SOL    HW1 1455   0.996   1.576   1.342
  440SOL    HW2 1456   1.110   1.481   1.313
  441SOL     OW 1457   0.683   0.758   1.771
  441SOL    HW1 1458   0.701   0.754   1.865
  441SOL    HW2 1459   0.735   0.686   1.734
  442SOL     OW 1460   1.265   1.392   1.329
  442SOL    HW1 1461   1.353   1.431   1.323
  442SOL    HW2 1462   1.273   1.307   1.286
  443SOL     OW 1463   1.812   3.797   0.848
  443SOL    HW1 1464   1.722   3.814   0.820
  443SOL    HW2 1465   1.821   3.846   0.930
  444SOL     OW 1466   3.528   0.870   2.744
  444SOL    HW1 1467   3.587   0.852   2.671
  444SOL    HW2 1468   3.552   0.806   2.811
  445SOL     OW 1469   2.336   0.397   0.724
  445SOL    HW1 1470   2.299   0.383   0.811
  445SOL    HW2 1471   2.347   0.492   0.718
  446SOL     OW 1472   1.231   3.736   1.841
  446SOL    HW1 1473   1.291   3.775   1.776
  446SOL    HW2 1474   1.208   3.809   1.899
  447SOL     OW 1475   0.061   1.877   2.427
  447SOL    HW1 1476   0.125   1.934   2.383
  447SOL    HW2 1477  -0.023   1.904   2.391
  448SOL     OW 1478   1.367   1.840   0.915
  448SOL    HW1 1479   1.462   1.845   0.905
  448SOL    HW2 1480   1.334   1.920   0.875
  449SOL     OW 1481   3.602   1.375   0.780
  449SOL    HW1 1482   3.564   1.295   0.816
  449SOL    HW2 1483   3.548   1.446   0.814
  450SOL     OW 1484   3.448   2.111   0.780
  450SOL    HW1 1485   3.456   2.016   0.794
  450SOL    HW2 1486   3.499   2.150   0.850
  451SOL     OW 1487   0.742   1.104   0.982
  451SOL    HW1 1488   0.732   1.199   0.975
  451SOL    HW2 1489   0.676   1.077   1.046
  452SOL     OW 1490   3.934   3.735   1.949
  452SOL    HW1 1491   3.881   3.707   2.024
  452SOL    HW2 1492   3.912   3.827   1.936
  453SOL     OW 1493   0.268   0.255   0.920
  453SOL    HW1 1494   0.347   0.305   0.941
  453SOL    HW2 1495   0.277   0.174   0.971
  454SOL     OW 1496   0.488   0.648   1.214
  454SOL    HW1 1497   0.403   0.638   1.257
  454SOL    HW2 1498   0.551   0.611   1.275
  455SOL     OW 1499   0.221   3.884   0.779
  455SOL    HW1 1500   0.166   3.812   0.748
  455SOL    HW2 1501   0.183   3.910   0.862
  456SOL     OW 1502   0.140   2.934   3.884
  456SOL    HW1 1503   0.056   2.956   3.925
  456SOL    HW2 1504   0.122   2.854   3.834
  457SOL     OW 1505   3.522   3.856   3.042
  457SOL    HW1 1506   3.535   3.786   3.106
  457SOL    HW2 1507   3.609   3.891   3.027
  458SOL     OW 1508   0.010   0.572   2.171
  458SOL    HW1 1509   0.055   0.488   2.179
  458SOL    HW2 1510   0.043   0.610   2.090
  459SOL     OW 1511   3.923   2.641   2.301
  459SOL    HW1 1512   3.946   2.713   2.241
  459SOL    HW2 1513   3.830   2.654   2.320
  460SOL     OW 1514   1.645   3.453   2.522
  460SOL    HW1 1515   1.558   3.464   2.559
  460SOL    HW2 1516   1.635   3.473   2.429
  461SOL     OW 1517   1.680   2.938   0.700
  461SOL    HW1 1518   1.631   3.014   0.731
  461SOL    HW2 1519   1.748   2.925   0.766
  462SOL     OW 1520   0.863   3.323   0.583
  462SOL    HW1 1521   0.770   3.301   0.575
  462SOL    HW2 1522   0.874   3.345   0.675
  463SOL     OW 1523   3.323   1.081   2.947
  463SOL    HW1 1524   3.388   1.034   2.896
  463SOL    HW2 1525   3.368   1.104   3.028
  464SOL     OW 1526   3.232   1.298   3.487
  464SOL    HW1 1527   3.240   1.348   3.406
  464SOL    HW2 1528   3.140   1.272   3.490
  465SOL     OW 1529   2.966   1.744   2.474
  465SOL    HW1 1530   2.959   1.784   2.560
  465SOL    HW2 1531   2.922   1.660   2.482
  466SOL     OW 1532   1.765   0.300   3.630
  466SOL    HW1 1533   1.693   0.256   3.584
  466SOL    HW2 1534   1.756   0.272   3.721
  467SOL     OW 1535   2.294   3.074   2.671
  467SOL    HW1 1536   2.356   3.044   2.738
  467SOL    HW2 1537   2.256   3.154   2.707
  468SOL     OW 1538   3.116   2.045   2.549
  468SOL    HW1 1539   3.103   2.009   2.636
  468SOL    HW2 1540   3.160   1.975   2.500
  469SOL     OW 1541   0.799   1.461   2.133
  469SOL    HW1 1542   0.768   1.539   2.179
  469SOL    HW2 1543   0.724   1.402   2.132
  470SOL     OW 1544   0.616   3.503   2.230
  470SOL    HW1 1545   0.663   3.420   2.221
  470SOL    HW2 1546   0.598   3.530   2.140
  471SOL     OW 1547   3.632   3.410   3.824
  471SOL    HW1 1548   3.676   3.420   3.739
  471SOL    HW2 1549   3.685   3.347   3.871
  472SOL     OW 1550   0.258   0.464   1.726
  472SOL    HW1 1551   0.337   0.509   1.697
  472SOL    HW2 1552   0.188   0.528   1.715
  473SOL     OW 1553   1.917   0.839   1.939
  473SOL    HW1 1554   1.926   0.783   2.016
  473SOL    HW2 1555   1.825   0.831   1.914
  474SOL     OW 1556   2.319   1.055   3.055
  474SOL    HW1 1557   2.362   0.975   3.025
  474SOL    HW2 1558   2.234   1.025   3.089
  475SOL     OW 1559   2.017   3.278   1.009
  475SOL    HW1 1560   2.012   3.182   1.015
  475SOL    HW2 1561   2.004   3.296   0.916
  476SOL     OW 1562   2.257   2.133   0.665
  476SOL    HW1 1563   2.349   2.132   0.694
  476SOL    HW2 1564   2.260   2.109   0.573
  477SOL     OW 1565   2.990   0.826   2.817
  477SOL    HW1 1566   3.072   0.785   2.789
  477SOL    HW2 1567   2.988   0.814   2.912
  478SOL     OW 1568   3.445   3.647   2.099
  478SOL    HW1 1569   3.421   3.715   2.162
  478SOL    HW2 1570   3.384   3.659   2.027
  479SOL     OW 1571   3.248   3.265   1.508
  479SOL    HW1 1572   3.206   3.300   1.586
  479SOL    HW2 1573   3.337   3.244   1.535
  480SOL     OW 1574   0.616   3.170   3.930
  480SOL    HW1 1575   0.576   3.139   3.849
  480SOL    HW2 1576   0.589   3.105   3.996
  481SOL     OW 1577   2.601   0.379   0.707
  481SOL    HW1 1578   2.506   0.389   0.699
  481SOL    HW2 1579   2.637   0.462   0.677
  482SOL     OW 1580   3.155   3.362   0.603
  482SOL    HW1 1581   3.181   3.317   0.683
  482SOL    HW2 1582   3.135   3.292   0.541
  483SOL     OW 1583   0.967   1.087   3.472
  483SOL    HW1 1584   0.986   1.146   3.399
  483SOL    HW2 1585   1.041   1.026   3.474
  484SOL     OW 1586   1.193   3.918   3.840
  484SOL    HW1 1587   1.201   3.918   3.745
  484SOL    HW2 1588   1.228   4.002   3.867
  485SOL     OW 1589   1.520   0.774   3.425
  485SOL    HW1 1590   1.506   0.773   3.330
  485SOL    HW2 1591   1.587   0.708   3.440
  486SOL     OW 1592   0.059   2.271   0.106
  486SOL    HW1 1593   0.019   2.346   0.060
  486SOL    HW2 1594  -0.012   2.207   0.112
  487SOL     OW 1595   1.976   2.671   3.912
  487SOL    HW1 1596   2.035   2.601   3.884
  487SOL    HW2 1597   1.903   2.625   3.954
  488SOL     OW 1598   2.523   2.074   0.703
  488SOL    HW1 1599   2.568   2.131   0.640
  488SOL    HW2 1600   2.548   2.109   0.789
  489SOL     OW 1601   2.465   3.169   1.310
  489SOL    HW1 1602   2.393   3.230   1.294
  489SOL    HW2 1603   2.440   3.089   1.265
  490SOL     OW 1604   0.031   1.273   0.750
  490SOL    HW1 1605  -0.018   1.200   0.713
  490SOL    HW2 1606   0.123   1.247   0.740
  491SOL     OW 1607   2.113   2.690   2.603
  491SOL    HW1 1608   2.053   2.665   2.673
  491SOL    HW2 1609   2.076   2.649   2.524
  492SOL     OW 1610   3.198   0.708   3.326
  492SOL    HW1 1611   3.273   0.649   3.321
  492SOL    HW2 1612   3.123   0.649   3.340
  493SOL     OW 1613   3.585   0.643   0.575
  493SOL    HW1 1614   3.665   0.604   0.611
  493SOL    HW2 1615   3.579   0.607   0.487
  494SOL     OW 1616   1.808   1.838   1.450
  494SOL    HW1 1617   1.822   1.922   1.407
  494SOL    HW2 1618   1.723   1.809   1.418
  495SOL     OW 1619   0.427   0.102   3.881
  495SOL    HW1 1620   0.460   0.085   3.969
  495SOL    HW2 1621   0.338   0.066   3.882
  496SOL     OW 1622   1.917   2.153   1.435
  496SOL    HW1 1623   1.936   2.074   1.486
  496SOL    HW2 1624   1.824   2.170   1.451
  497SOL     OW 1625   2.407   0.706   0.206
  497SOL    HW1 1626   2.484   0.757   0.179
  497SOL    HW2 1627   2.335   0.769   0.206
  498SOL     OW 1628   1.946   2.315   3.845
  498SOL    HW1 1629   1.865   2.276   3.877
  498SOL    HW2 1630   2.014   2.278   3.902
  499SOL     OW 1631   0.941   3.646   1.989
  499SOL    HW1 1632   1.016   3.693   1.953
  499SOL    HW2 1633   0.895   3.712   2.041
  500SOL     OW 1634   1.248   2.356   1.734
  500SOL    HW1 1635   1.310   2.340   1.663
  500SOL    HW2 1636   1.300   2.346   1.814
  501SOL     OW 1637   0.374   3.154   0.710
  501SOL    HW1 1638   0.327   3.235   0.729
  501SOL    HW2 1639   0.312   3.103   0.657
  502SOL     OW 1640   1.225   1.038   0.604
  502SOL    HW1 1641   1.232   1.133   0.598
  502SOL    HW2 1642   1.165   1.013   0.534
  503SOL     OW 1643   2.257   0.438   1.563
  503SOL    HW1 1644   2.247   0.476   1.650
  503SOL    HW2 1645   2.169   0.407   1.540
  504SOL     OW 1646   0.110   3.724   1.684
  504SOL    HW1 1647   0.056   3.727   1.763
  504SOL    HW2 1648   0.195   3.757   1.713
  505SOL     OW 1649   1.870   2.539   1.994
  505SOL    HW1 1650   1.951   2.550   1.944
  505SOL    HW2 1651   1.899   2.533   2.085
  506SOL     OW 1652   3.696   1.329   1.243
  506SOL    HW1 1653   3.785   1.294   1.240
  506SOL    HW2 1654   3.694   1.394   1.173
  507SOL     OW 1655   3.536   2.055   1.513
  507SOL    HW1 1656   3.559   2.049   1.606
  507SOL    HW2 1657   3.447   2.090   1.513
  508SOL     OW 1658   3.300   0.069   3.106
  508SOL    HW1 1659   3.350  -0.004   3.069
  508SOL    HW2 1660   3.298   0.135   3.038
  509SOL     OW 1661   3.359   0.935   1.388
  509SOL    HW1 1662   3.390   1.016   1.429
  509SOL    HW2 1663   3.265   0.950   1.374
  510SOL     OW 1664   0.040   2.778   0.285
  510SOL    HW1 1665   0.070   2.688   0.298
  510SOL    HW2 1666   0.109   2.819   0.233
  511SOL     OW 1667   3.147   1.022   0.735
  511SOL    HW1 1668   3.139   1.072   0.654
  511SOL    HW2 1669   3.224   0.967   0.722
  512SOL     OW 1670   1.653   3.238   3.878
  512SOL    HW1 1671   1.661   3.281   3.963
  512SOL    HW2 1672   1.561   3.212   3.873
  513SOL     OW 1673   0.664   2.203   0.474
  513SOL    HW1 1674   0.745   2.158   0.449
  513SOL    HW2 1675   0.626   2.232   0.391
  514SOL     OW 1676   1.938   2.514   2.774
  514SOL    HW1 1677   2.017   2.485   2.819
  514SOL    HW2 1678   1.869   2.509   2.841
  515SOL     OW 1679   3.286   1.295   1.175
  515SOL    HW1 1680   3.299   1.330   1.263
  515SOL    HW2 1681   3.214   1.233   1.185
  516SOL     OW 1682   2.208   3.135   1.937
  516SOL    HW1 1683   2.126   3.148   1.891
  516SOL    HW2 1684   2.186   3.150   2.029
  517SOL     OW 1685   1.247   2.492   1.143
  517SOL    HW1 1686   1.337   2.462   1.128
  517SOL    HW2 1687   1.216   2.438   1.216
  518SOL     OW 1688   0.368   1.543   3.239
  518SOL    HW1 1689   0.372   1.638   3.230
  518SOL    HW2 1690   0.402   1.526   3.327
  519SOL     OW 1691   2.200   0.515   0.025
  519SOL    HW1 1692   2.193   0.479   0.113
  519SOL    HW2 1693   2.291   0.546   0.019
  520SOL     OW 1694   0.807   2.244   2.621
  520SOL    HW1 1695   0.902   2.230   2.626
  520SOL    HW2 1696   0.770   2.183   2.684
  521SOL     OW 1697   3.811   3.413   3.604
  521SOL    HW1 1698   3.836   3.483   3.544
  521SOL    HW2 1699   3.781   3.342   3.547
  522SOL     OW 1700   3.780   1.461   0.598
  522SOL    HW1 1701   3.711   1.427   0.654
  522SOL    HW2 1702   3.862   1.434   0.641
  523SOL     OW 1703   2.899   2.658   0.677
  523SOL    HW1 1704   2.923   2.741   0.718
  523SOL    HW2 1705   2.892   2.678   0.584
  524SOL     OW 1706   2.048   0.209   0.588
  524SOL    HW1 1707   2.019   0.120   0.568
  524SOL    HW2 1708   2.009   0.229   0.673
  525SOL     OW 1709   3.595   3.331   0.321
  525SOL    HW1 1710   3.566   3.335   0.412
  525SOL    HW2 1711   3.593   3.238   0.300
  526SOL     OW 1712   3.549   2.054   0.112
  526SOL    HW1 1713   3.511   2.132   0.073
  526SOL    HW2 1714   3.601   2.014   0.042
  527SOL     OW 1715   0.440   3.984   0.650
  527SOL    HW1 1716   0.371   3.957   0.710
  527SOL    HW2 1717   0.517   3.934   0.679
  528SOL     OW 1718   3.675   0.346   3.477
  528SOL    HW1 1719   3.642   0.430   3.446
  528SOL    HW2 1720   3.766   0.344   3.446
  529SOL     OW 1721   2.972   3.974   1.786
  529SOL    HW1 1722   2.995   3.948   1.697
  529SOL    HW2 1723   2.986   3.896   1.839
  530SOL     OW 1724   2.447   0.036   1.118
  530SOL    HW1 1725   2.529   0.082   1.100
  530SOL    HW2 1726   2.471  -0.031   1.182
  531SOL     OW 1727   0.773   1.745   0.803
  531SOL    HW1 1728   0.798   1.826   0.848
  531SOL    HW2 1729   0.851   1.690   0.808
  532SOL     OW 1730   1.463   1.902   0.181
  532SOL    HW1 1731   1.486   1.915   0.273
  532SOL    HW2 1732   1.545   1.873   0.140
  533SOL     OW 1733   2.539   0.464   1.103
  533SOL    HW1 1734   2.450   0.499   1.108
  533SOL    HW2 1735   2.594   0.542   1.095
  534SOL     OW 1736   1.079   2.435   0.950
  534SOL    HW1 1737   1.130   2.454   1.029
  534SOL    HW2 1738   1.140   2.388   0.893
  535SOL     OW 1739   0.675   1.886   1.104
  535SOL    HW1 1740   0.657   1.973   1.140
  535SOL    HW2 1741   0.766   1.869   1.128
  536SOL     OW 1742   0.750   3.419   0.003
  536SOL    HW1 1743   0.705   3.464   0.074
  536SOL    HW2 1744   0.712   3.331   0.002
  537SOL     OW 1745   2.918   3.329   3.429
  537SOL    HW1 1746   2.925   3.234   3.428
  537SOL    HW2 1747   2.877   3.351   3.346
  538SOL     OW 1748   3.944   2.182   0.776
  538SOL    HW1 1749   4.005   2.132   0.831
  538SOL    HW2 1750   3.912   2.252   0.833
  539SOL     OW 1751   3.804   0.827   3.796
  539SOL    HW1 1752   3.815   0.848   3.703
  539SOL    HW2 1753   3.886   0.857   3.836
  540SOL     OW 1754   1.821   2.653   0.331
  540SOL    HW1 1755   1.915   2.640   0.339
  540SOL    HW2 1756   1.805   2.653   0.236
  541SOL     OW 1757   2.037   3.494   1.164
  541SOL    HW1 1758   1.977   3.562   1.133
  541SOL    HW2 1759   2.019   3.419   1.107
  542SOL     OW 1760   1.506   2.375   1.060
  542SOL    HW1 1761   1.560   2.454   1.067
  542SOL    HW2 1762   1.565   2.309   1.024
  543SOL     OW 1763   0.789   2.504   2.041
  543SOL    HW1 1764   0.841   2.561   1.985
  543SOL    HW2 1765   0.853   2.451   2.088
  544SOL     OW 1766   1.026   0.329   1.413
  544SOL    HW1 1767   1.091   0.327   1.483
  544SOL    HW2 1768   1.032   0.243   1.372
  545SOL     OW 1769   1.373   1.340   3.573
  545SOL    HW1 1770   1.374   1.277   3.501
  545SOL    HW2 1771   1.374   1.426   3.530
  546SOL     OW 1772   3.825   2.581   2.992
  546SOL    HW1 1773   3.739   2.613   3.022
  546SOL    HW2 1774   3.850   2.642   2.923
  547SOL     OW 1775   2.482   1.199   1.338
  547SOL    HW1 1776   2.450   1.109   1.342
  547SOL    HW2 1777   2.417   1.250   1.386
  548SOL     OW 1778   0.944   0.652   3.011
  548SOL    HW1 1779   0.952   0.683   2.921
  548SOL    HW2 1780   0.921   0.560   3.003
  549SOL     OW 1781   1.659   2.269   2.021
  549SOL    HW1 1782   1.698   2.183   2.002
  549SOL    HW2 1783   1.731   2.319   2.059
  550SOL     OW 1784   2.459   2.336   1.474
  550SOL    HW1 1785   2.481   2.244   1.462
  550SOL    HW2 1786   2.373   2.335   1.517
  551SOL     OW 1787   1.627   2.154   2.339
  551SOL    HW1 1788   1.675   2.225   2.381
  551SOL    HW2 1789   1.594   2.192   2.258
  552SOL     OW 1790   1.836   2.926   2.932
  552SOL    HW1 1791   1.771   2.988   2.899
  552SOL    HW2 1792   1.918   2.975   2.934
  553SOL     OW 1793   1.616   2.772   3.536
  553SOL    HW1 1794   1.536   2.821   3.554
  553SOL    HW2 1795   1.653   2.814   3.458
  554SOL     OW 1796   0.108   3.349   3.922
  554SOL    HW1 1797   0.023   3.309   3.903
  554SOL    HW2 1798   0.107   3.367   4.016
  555SOL     OW 1799   0.357   1.141   2.599
  555SOL    HW1 1800   0.389   1.218   2.552
  555SOL    HW2 1801   0.293   1.102   2.539
  556SOL     OW 1802   0.858   1.870   2.729
  556SOL    HW1 1803   0.793   1.939   2.742
  556SOL    HW2 1804   0.911   1.872   2.808
  557SOL     OW 1805   0.856   3.659   3.073
  557SOL    HW1 1806   0.855   3.665   3.169
  557SOL    HW2 1807   0.816   3.741   3.044
  558SOL     OW 1808   0.232   0.915   0.908
  558SOL    HW1 1809   0.254   0.844   0.847
  558SOL    HW2 1810   0.286   0.898   0.985
  559SOL     OW 1811   1.068   1.332   1.531
  559SOL    HW1 1812   1.090   1.354   1.440
  559SOL    HW2 1813   1.102   1.405   1.583
  560SOL     OW 1814   2.002   3.094   2.257
  560SOL    HW1 1815   2.037   3.029   2.317
  560SOL    HW2 1816   1.982   3.170   2.312
  561SOL     OW 1817   0.470   1.548   2.291
  561SOL    HW1 1818   0.451   1.613   2.359
  561SOL    HW2 1819   0.557   1.571   2.259
  562SOL     OW 1820   1.254   3.781   0.985
  562SOL    HW1 1821   1.285   3.779   1.075
  562SOL    HW2 1822   1.319   3.834   0.939
  563SOL     OW 1823   0.500   0.887   3.392
  563SOL    HW1 1824   0.561   0.930   3.452
  563SOL    HW2 1825   0.425   0.946   3.386
  564SOL     OW 1826   0.104   3.226   3.464
  564SOL    HW1 1827   0.194   3.192   3.465
  564SOL    HW2 1828   0.111   3.311   3.423
  565SOL     OW 1829   3.610   0.287   0.248
  565SOL    HW1 1830   3.553   0.358   0.278
  565SOL    HW2 1831   3.679   0.282   0.314
  566SOL     OW 1832   3.290   0.814   1.952
  566SOL    HW1 1833   3.309   0.905   1.932
  566SOL    HW2 1834   3.270   0.774   1.867
  567SOL     OW 1835   0.219   3.201   2.335
  567SOL    HW1 1836   0.287   3.185   2.401
  567SOL    HW2 1837   0.179   3.115   2.321
  568SOL     OW 1838   0.241   2.038   2.982
  568SOL    HW1 1839   0.228   1.978   3.055
  568SOL    HW2 1840   0.335   2.059   2.985
  569SOL     OW 1841   1.189   0.884   3.002
  569SOL    HW1 1842   1.111   0.885   3.058
  569SOL    HW2 1843   1.226   0.797   3.014
  570SOL     OW 1844   0.230   3.860   3.621
  570SOL    HW1 1845   0.199   3.860   3.711
  570SOL    HW2 1846   0.269   3.946   3.608
  571SOL     OW 1847   0.107   3.286   1.055
  571SOL    HW1 1848   0.096   3.276   1.149
  571SOL    HW2 1849   0.086   3.200   1.018
  572SOL     OW 1850   0.338   1.101   3.372
  572SOL    HW1 1851   0.260   1.106   3.428
  572SOL    HW2 1852   0.313   1.146   3.292
  573SOL     OW 1853   1.753   3.016   0.401
  573SOL    HW1 1854   1.740   2.976   0.315
  573SOL    HW2 1855   1.785   2.944   0.456
  574SOL     OW 1856   0.402   0.044   1.828
  574SOL    HW1 1857   0.478   0.067   1.881
  574SOL    HW2 1858   0.409   0.101   1.751
  575SOL     OW 1859   3.752   0.370   2.225
  575SOL    HW1 1860   3.692   0.444   2.221
  575SOL    HW2 1861   3.790   0.375   2.313
  576SOL     OW 1862   0.661   1.187   2.346
  576SOL    HW1 1863   0.663   1.211   2.253
  576SOL    HW2 1864   0.630   1.097   2.348
  577SOL     OW 1865   1.216   0.710   2.028
  577SOL    HW1 1866   1.184   0.795   2.059
  577SOL    HW2 1867   1.311   0.716   2.037
  578SOL     OW 1868   1.206   0.066   1.915
  578SOL    HW1 1869   1.192   0.161   1.908
  578SOL    HW2 1870   1.239   0.054   2.004
  579SOL     OW 1871   0.433   2.268   0.640
  579SOL    HW1 1872   0.365   2.203   0.622
  579SOL    HW2 1873   0.508   2.239   0.588
  580SOL     OW 1874   0.007   1.568   0.922
  580SOL    HW1 1875   0.031   1.480   0.892
  580SOL    HW2 1876   0.076   1.591   0.984
  581SOL     OW 1877   1.268   2.084   3.414
  581SOL    HW1 1878   1.359   2.076   3.442
  581SOL    HW2 1879   1.258   2.177   3.393
  582SOL     OW 1880   1.490   2.301   2.656
  582SOL    HW1 1881   1.578   2.312   2.620
  582SOL    HW2 1882   1.481   2.372   2.720
  583SOL     OW 1883   0.959   0.399   1.103
  583SOL    HW1 1884   1.034   0.387   1.160
  583SOL    HW2 1885   0.994   0.445   1.026
  584SOL     OW 1886   2.366   0.392   2.222
  584SOL    HW1 1887   2.416   0.357   2.296
  584SOL    HW2 1888   2.390   0.337   2.148
  585SOL     OW 1889   0.058   2.465   0.309
  585SOL    HW1 1890   0.041   2.422   0.393
  585SOL    HW2 1891   0.045   2.396   0.244
  586SOL     OW 1892   3.840   1.286   1.586
  586SOL    HW1 1893   3.821   1.373   1.552
  586SOL    HW2 1894   3.819   1.291   1.679
  587SOL     OW 1895   3.853   0.911   2.988
  587SOL    HW1 1896   3.935   0.945   2.953
  587SOL    HW2 1897   3.796   0.988   2.993
  588SOL     OW 1898   3.095   2.122   3.777
  588SOL    HW1 1899   3.018   2.072   3.751
  588SOL    HW2 1900   3.117   2.089   3.865
  589SOL     OW 1901   1.529   1.688   2.247
  589SOL    HW1 1902   1.587   1.680   2.323
  589SOL    HW2 1903   1.512   1.598   2.220
  590SOL     OW 1904   1.815   2.872   2.553
  590SOL    HW1 1905   1.836   2.779   2.541
  590SOL    HW2 1906   1.729   2.882   2.511
  591SOL     OW 1907   3.128   2.498   1.240
  591SOL    HW1 1908   3.111   2.564   1.307
  591SOL    HW2 1909   3.045   2.452   1.229
  592SOL     OW 1910   0.351   2.434   0.303
  592SOL    HW1 1911   0.327   2.348   0.337
  592SOL    HW2 1912   0.272   2.466   0.259
  593SOL     OW 1913   1.913   0.757   3.800
  593SOL    HW1 1914   1.960   0.676   3.818
  593SOL    HW2 1915   1.824   0.730   3.780
  594SOL     OW 1916   0.925   2.122   0.389
  594SOL    HW1 1917   1.006   2.070   0.391
  594SOL    HW2 1918   0.893   2.113   0.299
  595SOL     OW 1919   2.232   2.105   0.379
  595SOL    HW1 1920   2.264   2.026   0.337
  595SOL    HW2 1921   2.165   2.139   0.320
  596SOL     OW 1922   0.279   0.236   1.271
  596SOL    HW1 1923   0.284   0.166   1.336
  596SOL    HW2 1924   0.358   0.288   1.286
  597SOL     OW 1925   2.687   2.280   3.218
  597SOL    HW1 1926   2.685   2.343   3.145
  597SOL    HW2 1927   2.601   2.291   3.260
  598SOL     OW 1928   3.239   1.907   2.791
  598SOL    HW1 1929   3.226   1.814   2.810
  598SOL    HW2 1930   3.263   1.946   2.875
  599SOL     OW 1931   3.496   0.038   1.086
  599SOL    HW1 1932   3.446  -0.012   1.151
  599SOL    HW2 1933   3.455   0.124   1.084
  600SOL     OW 1934   0.052   0.225   2.849
  600SOL    HW1 1935   0.065   0.130   2.852
  600SOL    HW2 1936   0.054   0.246   2.756
  601SOL     OW 1937   1.706   0.362   3.050
  601SOL    HW1 1938   1.763   0.326   3.118
  601SOL    HW2 1939   1.617   0.340   3.077
  602SOL     OW 1940   3.580   0.122   1.719
  602SOL    HW1 1941   3.561   0.192   1.657
  602SOL    HW2 1942   3.554   0.041   1.674
  603SOL     OW 1943   2.705   2.713   1.600
  603SOL    HW1 1944   2.719   2.628   1.559
  603SOL    HW2 1945   2.787   2.730   1.648
  604SOL     OW 1946   3.336   3.397   2.238
  604SOL    HW1 1947   3.398   3.458   2.200
  604SOL    HW2 1948   3.265   3.453   2.272
  605SOL     OW 1949   1.535   3.440   0.618
  605SOL    HW1 1950   1.457   3.442   0.673
  605SOL    HW2 1951   1.527   3.516   0.561
  606SOL     OW 1952   0.685   2.318   1.162
  606SOL    HW1 1953   0.590   2.311   1.149
  606SOL    HW2 1954   0.717   2.354   1.080
  607SOL     OW 1955   0.773   0.159   1.657
  607SOL    HW1 1956   0.707   0.223   1.628
  607SOL    HW2 1957   0.805   0.194   1.740
  608SOL     OW 1958   3.775   1.619   3.512
  608SOL    HW1 1959   3.750   1.577   3.594
  608SOL    HW2 1960   3.798   1.709   3.537
  609SOL     OW 1961   0.163   3.610   3.508
  609SOL    HW1 1962   0.207   3.689   3.539
  609SOL    HW2 1963   0.089   3.599   3.568
  610SOL     OW 1964   2.459   3.896   2.228
  610SOL    HW1 1965   2.365   3.883   2.233
  610SOL    HW2 1966   2.493   3.813   2.195
  611SOL     OW 1967   1.232   3.346   3.075
  611SOL    HW1 1968   1.262   3.329   2.986
  611SOL    HW2 1969   1.304   3.392   3.117
  612SOL     OW 1970   2.594   0.036   0.049
  612SOL    HW1 1971   2.636  -0.012   0.121
  612SOL    HW2 1972   2.652   0.021  -0.026
  613SOL     OW 1973   0.958   1.248   2.024
  613SOL    HW1 1974   0.961   1.277   1.933
  613SOL    HW2 1975   0.914   1.318   2.071
  614SOL     OW 1976   2.842   0.928   1.090
  614SOL    HW1 1977   2.843   0.842   1.131
  614SOL    HW2 1978   2.825   0.989   1.163
  615SOL     OW 1979   3.159   3.924   2.816
  615SOL    HW1 1980   3.069   3.898   2.838
  615SOL    HW2 1981   3.212   3.848   2.839
  616SOL     OW 1982   2.061   2.044   2.515
  616SOL    HW1 1983   2.012   2.048   2.598
  616SOL    HW2 1984   2.145   2.085   2.534
  617SOL     OW 1985   1.255   3.908   0.650
  617SOL    HW1 1986   1.239   3.982   0.592
  617SOL    HW2 1987   1.181   3.909   0.711
  618SOL     OW 1988   1.263   0.369   2.746
  618SOL    HW1 1989   1.238   0.370   2.653
  618SOL    HW2 1990   1.180   0.353   2.792
  619SOL     OW 1991   1.877   2.596   3.347
  619SOL    HW1 1992   1.939   2.658   3.385
  619SOL    HW2 1993   1.863   2.627   3.258
  620SOL     OW 1994   3.049   2.651   0.239
  620SOL    HW1 1995   3.098   2.733   0.234
  620SOL    HW2 1996   2.979   2.668   0.302
  621SOL     OW 1997   1.561   0.456   1.978
  621SOL    HW1 1998   1.617   0.425   2.049
  621SOL    HW2 1999   1.512   0.378   1.950
  622SOL     OW 2000   1.401   1.254   0.913
  622SOL    HW1 2001   1.349   1.323   0.955
  622SOL    HW2 2002   1.463   1.302   0.858
  623SOL     OW 2003   1.266   2.504   0.222
  623SOL    HW1 2004   1.301   2.416   0.212
  623SOL    HW2 2005   1.236   2.507   0.313
  624SOL     OW 2006   2.705   0.420   3.605
  624SOL    HW1 2007   2.671   0.510   3.603
  624SOL    HW2 2008   2.702   0.395   3.698
  625SOL     OW 2009   0.429   0.467   1.967
  625SOL    HW1 2010   0.491   0.532   1.936
  625SOL    HW2 2011   0.358   0.467   1.903
  626SOL     OW 2012   0.343   1.191   1.959
  626SOL    HW1 2013   0.410   1.203   1.892
  626SOL    HW2 2014   0.277   1.258   1.940
  627SOL     OW 2015   2.332   3.678   3.328
  627SOL    HW1 2016   2.299   3.766   3.308
  627SOL    HW2 2017   2.283   3.652   3.406
  628SOL     OW 2018   2.168   1.586   0.832
  628SOL    HW1 2019   2.260   1.569   0.852
  628SOL    HW2 2020   2.156   1.678   0.855
  629SOL     OW 2021   0.434   3.165   2.770
  629SOL    HW1 2022   0.513   3.139   2.818
  629SOL    HW2 2023   0.381   3.210   2.835
  630SOL     OW 2024   2.776   1.618   0.468
  630SOL    HW1 2025   2.771   1.522   0.462
  630SOL    HW2 2026   2.807   1.635   0.556
  631SOL     OW 2027   3.842   1.457   2.942
  631SOL    HW1 2028   3.911   1.498   2.891
  631SOL    HW2 2029   3.761   1.476   2.894
  632SOL     OW 2030   2.347   0.023   0.760
  632SOL    HW1 2031   2.442   0.028   0.759
  632SOL    HW2 2032   2.324   0.037   0.852
  633SOL     OW 2033   3.029   3.254   3.864
  633SOL    HW1 2034   2.996   3.195   3.932
  633SOL    HW2 2035   3.124   3.243   3.867
  634SOL     OW 2036   3.044   1.453   1.782
  634SOL    HW1 2037   3.023   1.416   1.868
  634SOL    HW2 2038   3.128   1.413   1.759
  635SOL     OW 2039   3.063   0.964   1.399
  635SOL    HW1 2040   3.014   0.902   1.346
  635SOL    HW2 2041   3.054   0.932   1.489
  636SOL     OW 2042   0.623   2.964   2.808
  636SOL    HW1 2043   0.627   2.893   2.871
  636SOL    HW2 2044   0.562   2.933   2.741
  637SOL     OW 2045   3.939   0.105   1.504
  637SOL    HW1 2046   3.950   0.199   1.490
  637SOL    HW2 2047   3.988   0.064   1.433
  638SOL     OW 2048   1.117   0.853   1.736
  638SOL    HW1 2049   1.141   0.879   1.825
  638SOL    HW2 2050   1.111   0.936   1.688
  639SOL     OW 2051   2.863   0.667   3.312
  639SOL    HW1 2052   2.768   0.660   3.301
  639SOL    HW2 2053   2.897   0.681   3.224
  640SOL     OW 2054   0.958   3.515   0.371
  640SOL    HW1 2055   1.032   3.460   0.343
  640SOL    HW2 2056   0.916   3.464   0.440
  641SOL     OW 2057   3.589   1.718   1.508
  641SOL    HW1 2058   3.515   1.766   1.470
  641SOL    HW2 2059   3.617   1.771   1.582
  642SOL     OW 2060   3.257   2.486   1.819
  642SOL    HW1 2061   3.239   2.580   1.823
  642SOL    HW2 2062   3.177   2.444   1.851
  643SOL     OW 2063   0.422   2.758   2.343
  643SOL    HW1 2064   0.439   2.675   2.387
  643SOL    HW2 2065   0.327   2.758   2.328
  644SOL     OW 2066   2.388   2.934   1.116
  644SOL    HW1 2067   2.442   2.855   1.106
  644SOL    HW2 2068   2.402   2.983   1.035
  645SOL     OW 2069   0.159   0.730   0.515
  645SOL    HW1 2070   0.226   0.773   0.568
  645SOL    HW2 2071   0.205   0.657   0.473
  646SOL     OW 2072   3.849   3.417   0.130
  646SOL    HW1 2073   3.848   3.512   0.142
  646SOL    HW2 2074   3.799   3.383   0.204
  647SOL     OW 2075   0.961   3.110   1.317
  647SOL    HW1 2076   1.025   3.144   1.379
  647SOL    HW2 2077   1.013   3.072   1.247
  648SOL     OW 2078   2.324   3.847   3.565
  648SOL    HW1 2079   2.293   3.934   3.538
  648SOL    HW2 2080   2.415   3.861   3.590
  649SOL     OW 2081   0.979   3.776   1.081
  649SOL    HW1 2082   0.919   3.785   1.006
  649SOL    HW2 2083   1.061   3.816   1.052
  650SOL     OW 2084   3.184   0.902   3.506
  650SOL    HW1 2085   3.116   0.966   3.483
  650SOL    HW2 2086   3.190   0.845   3.430
  651SOL     OW 2087   1.539   1.652   0.372
  651SOL    HW1 2088   1.568   1.733   0.333
  651SOL    HW2 2089   1.521   1.594   0.298
  652SOL     OW 2090   0.970   3.036   0.697
  652SOL    HW1 2091   0.963   3.051   0.791
  652SOL    HW2 2092   1.060   3.061   0.675
  653SOL     OW 2093   1.727   1.682   3.665
  653SOL    HW1 2094   1.711   1.679   3.571
  653SOL    HW2 2095   1.640   1.682   3.704
  654SOL     OW 2096   2.804   1.385   3.494
  654SOL    HW1 2097   2.827   1.448   3.562
  654SOL    HW2 2098   2.710   1.401   3.478
  655SOL     OW 2099   1.151   0.355   1.764
  655SOL    HW1 2100   1.180   0.360   1.855
  655SOL    HW2 2101   1.115   0.441   1.746
  656SOL     OW 2102   2.438   2.771   0.548
  656SOL    HW1 2103   2.514   2.816   0.511
  656SOL    HW2 2104   2.378   2.841   0.572
  657SOL     OW 2105   3.877   1.463   1.993
  657SOL    HW1 2106   3.914   1.530   1.935
  657SOL    HW2 2107   3.902   1.491   2.081
  658SOL     OW 2108   0.107   1.490   1.681
  658SOL    HW1 2109   0.107   1.555   1.610
  658SOL    HW2 2110   0.098   1.406   1.636
  659SOL     OW 2111   1.296   3.541   3.684
  659SOL    HW1 2112   1.276   3.466   3.628
  659SOL    HW2 2113   1.252   3.615   3.643
  660SOL     OW 2114   2.920   3.506   1.889
  660SOL    HW1 2115   2.869   3.500   1.970
  660SOL    HW2 2116   2.900   3.424   1.843
  661SOL     OW 2117   0.382   3.323   1.210
  661SOL    HW1 2118   0.339   3.267   1.275
  661SOL    HW2 2119   0.315   3.339   1.144
  662SOL     OW 2120   0.590   1.073   1.214
  662SOL    HW1 2121   0.553   1.158   1.237
  662SOL    HW2 2122   0.647   1.050   1.288
  663SOL     OW 2123   0.546   3.367   0.835
  663SOL    HW1 2124   0.576   3.279   0.811
  663SOL    HW2 2125   0.451   3.363   0.827
  664SOL     OW 2126   3.320   1.573   2.085
  664SOL    HW1 2127   3.300   1.665   2.103
  664SOL    HW2 2128   3.413   1.565   2.106
  665SOL     OW 2129   3.307   0.838   3.777
  665SOL    HW1 2130   3.342   0.925   3.799
  665SOL    HW2 2131   3.261   0.852   3.693
  666SOL     OW 2132   3.368   0.238   0.507
  666SOL    HW1 2133   3.349   0.245   0.413
  666SOL    HW2 2134   3.295   0.187   0.542
  667SOL     OW 2135   2.495   0.771   1.007
  667SOL    HW1 2136   2.586   0.745   0.997
  667SOL    HW2 2137   2.492   0.819   1.090
  668SOL     OW 2138   2.460   3.000   2.217
  668SOL    HW1 2139   2.439   3.062   2.287
  668SOL    HW2 2140   2.411   2.922   2.240
  669SOL     OW 2141   3.027   2.250   0.756
  669SOL    HW1 2142   3.086   2.214   0.690
  669SOL    HW2 2143   3.074   2.326   0.791
  670SOL     OW 2144   1.974   2.333   2.514
  670SOL    HW1 2145   2.032   2.257   2.499
  670SOL    HW2 2146   2.021   2.385   2.579
  671SOL     OW 2147   1.516   3.597   3.397
  671SOL    HW1 2148   1.581   3.527   3.385
  671SOL    HW2 2149   1.433   3.551   3.408
  672SOL     OW 2150   1.920   0.195   1.603
  672SOL    HW1 2151   1.909   0.139   1.525
  672SOL    HW2 2152   2.013   0.188   1.625
  673SOL     OW 2153   1.437   0.775   1.283
  673SOL    HW1 2154   1.404   0.730   1.361
  673SOL    HW2 2155   1.360   0.817   1.245
  674SOL     OW 2156   2.638   1.145   0.750
  674SOL    HW1 2157   2.697   1.081   0.710
  674SOL    HW2 2158   2.560   1.094   0.772
  675SOL     OW 2159   3.355   2.234   2.558
  675SOL    HW1 2160   3.401   2.215   2.640
  675SOL    HW2 2161   3.283   2.170   2.556
  676SOL     OW 2162   1.717   2.394   2.553
  676SOL    HW1 2163   1.706   2.485   2.580
  676SOL    HW2 2164   1.809   2.375   2.569
  677SOL     OW 2165   0.029   2.990   0.971
  677SOL    HW1 2166   0.033   2.895   0.958
  677SOL    HW2 2167  -0.062   3.013   0.953
  678SOL     OW 2168   0.633   3.438   1.257
  678SOL    HW1 2169   0.658   3.470   1.170
  678SOL    HW2 2170   0.563   3.375   1.240
  679SOL     OW 2171   3.332   1.408   1.830
  679SOL    HW1 2172   3.386   1.456   1.768
  679SOL    HW2 2173   3.357   1.443   1.916
  680SOL     OW 2174   0.006   1.213   2.825
  680SOL    HW1 2175   0.066   1.280   2.792
  680SOL    HW2 2176   0.063   1.143   2.856
  681SOL     OW 2177   0.484   2.960   1.203
  681SOL    HW1 2178   0.504   2.975   1.111
  681SOL    HW2 2179   0.552   3.008   1.250
  682SOL     OW 2180   3.291   3.788   1.813
  682SOL    HW1 2181   3.202   3.797   1.848
  682SOL    HW2 2182   3.339   3.860   1.853
  683SOL     OW 2183   0.225   1.441   2.755
  683SOL    HW1 2184   0.295   1.376   2.746
  683SOL    HW2 2185   0.193   1.455   2.666
  684SOL     OW 2186   1.823   1.080   0.750
  684SOL    HW1 2187   1.728   1.085   0.763
  684SOL    HW2 2188   1.860   1.091   0.837
  685SOL     OW 2189   0.785   3.192   2.755
  685SOL    HW1 2190   0.784   3.196   2.850
  685SOL    HW2 2191   0.726   3.119   2.733
  686SOL     OW 2192   3.534   0.227   2.408
  686SOL    HW1 2193   3.497   0.263   2.489
  686SOL    HW2 2194   3.567   0.141   2.434
  687SOL     OW 2195   3.484   2.520   2.005
  687SOL    HW1 2196   3.403   2.477   1.979
  687SOL    HW2 2197   3.535   2.452   2.049
  688SOL     OW 2198   1.511   1.093   1.831
  688SOL    HW1 2199   1.477   1.134   1.751
  688SOL    HW2 2200   1.450   1.121   1.900
  689SOL     OW 2201   2.752   0.054   3.165
  689SOL    HW1 2202   2.716   0.142   3.163
  689SOL    HW2 2203   2.678  -0.002   3.188
  690SOL     OW 2204   3.405   1.046   2.234
  690SOL    HW1 2205   3.413   1.092   2.317
  690SOL    HW2 2206   3.483   0.991   2.229
  691SOL     OW 2207   3.431   2.608   2.751
  691SOL    HW1 2208   3.514   2.649   2.773
  691SOL    HW2 2209   3.418   2.541   2.818
  692SOL     OW 2210   0.890   3.006   1.924
  692SOL    HW1 2211   0.820   3.053   1.970
  692SOL    HW2 2212   0.876   3.027   1.832
  693SOL     OW 2213   3.690   1.311   0.360
  693SOL    HW1 2214   3.725   1.352   0.439
  693SOL    HW2 2215   3.595   1.316   0.371
  694SOL     OW 2216   1.642   0.865   1.842
  694SOL    HW1 2217   1.607   0.789   1.797
  694SOL    HW2 2218   1.575   0.933   1.830
  695SOL     OW 2219   0.177   3.938   3.932
  695SOL    HW1 2220   0.179   3.922   4.026
  695SOL    HW2 2221   0.100   3.992   3.917
  696SOL     OW 2222   3.604   2.884   1.004
  696SOL    HW1 2223   3.649   2.801   0.988
  696SOL    HW2 2224   3.673   2.950   1.005
  697SOL     OW 2225   3.377   2.947   0.837
  697SOL    HW1 2226   3.455   2.910   0.877
  697SOL    HW2 2227   3.384   2.924   0.745
  698SOL     OW 2228   0.430   2.454   2.229
  698SOL    HW1 2229   0.439   2.487   2.140
  698SOL    HW2 2230   0.338   2.430   2.237
  699SOL     OW 2231   1.293   3.765   2.536
  699SOL    HW1 2232   1.269   3.801   2.621
  699SOL    HW2 2233   1.294   3.670   2.549
  700SOL     OW 2234   2.130   1.295   0.237
  700SOL    HW1 2235   2.068   1.359   0.272
  700SOL    HW2 2236   2.202   1.348   0.202
  701SOL     OW 2237   0.569   3.521   0.604
  701SOL    HW1 2238   0.507   3.466   0.556
  701SOL    HW2 2239   0.571   3.485   0.692
  702SOL     OW 2240   1.814   0.800   3.228
  702SOL    HW1 2241   1.887   0.837   3.278
  702SOL    HW2 2242   1.762   0.877   3.203
  703SOL     OW 2243   3.610   1.676   1.829
  703SOL    HW1 2244   3.633   1.626   1.907
  703SOL    HW2 2245   3.517   1.697   1.840
  704SOL     OW 2246   0.044   3.777   1.088
  704SOL    HW1 2247   0.094   3.707   1.045
  704SOL    HW2 2248  -0.046   3.762   1.061
  705SOL     OW 2249   2.960   1.964   0.945
  705SOL    HW1 2250   2.970   2.028   1.015
  705SOL    HW2 2251   3.048   1.951   0.911
  706SOL     OW 2252   3.768   2.849   1.296
  706SOL    HW1 2253   3.748   2.755   1.296
  706SOL    HW2 2254   3.687   2.891   1.271
  707SOL     OW 2255   0.298   0.116   3.342
  707SOL    HW1 2256   0.277   0.139   3.433
  707SOL    HW2 2257   0.391   0.094   3.344
  708SOL     OW 2258   0.260   1.738   2.159
  708SOL    HW1 2259   0.231   1.808   2.101
  708SOL    HW2 2260   0.309   1.782   2.228
  709SOL     OW 2261   3.199   2.819   1.023
  709SOL    HW1 2262   3.206   2.900   0.972
  709SOL    HW2 2263   3.279   2.771   1.002
  710SOL     OW 2264   2.825   2.684   0.397
  710SOL    HW1 2265   2.809   2.775   0.372
  710SOL    HW2 2266   2.755   2.635   0.355
  711SOL     OW 2267   2.339   0.513   3.330
  711SOL    HW1 2268   2.260   0.491   3.379
  711SOL    HW2 2269   2.368   0.430   3.293
  712SOL     OW 2270   2.368   0.850   3.608
  712SOL    HW1 2271   2.347   0.914   3.539
  712SOL    HW2 2272   2.320   0.881   3.685
  713SOL     OW 2273   2.494   2.061   0.269
  713SOL    HW1 2274   2.509   2.109   0.351
  713SOL    HW2 2275   2.419   2.104   0.229
  714SOL     OW 2276   3.748   0.868   3.530
  714SOL    HW1 2277   3.778   0.936   3.469
  714SOL    HW2 2278   3.806   0.793   3.512
  715SOL     OW 2279   0.506   3.790   0.412
  715SOL    HW1 2280   0.504   3.833   0.498
  715SOL    HW2 2281   0.572   3.839   0.362
  716SOL     OW 2282   1.526   2.091   3.918
  716SOL    HW1 2283   1.482   2.027   3.974
  716SOL    HW2 2284   1.461   2.114   3.851
  717SOL     OW 2285   3.200   1.973   0.838
  717SOL    HW1 2286   3.198   2.067   0.855
  717SOL    HW2 2287   3.275   1.941   0.889
  718SOL     OW 2288   1.795   3.371   2.207
  718SOL    HW1 2289   1.875   3.421   2.187
  718SOL    HW2 2290   1.781   3.317   2.128
  719SOL     OW 2291   1.457   1.474   3.855
  719SOL    HW1 2292   1.480   1.408   3.789
  719SOL    HW2 2293   1.414   1.425   3.924
  720SOL     OW 2294   3.614   0.110   0.598
  720SOL    HW1 2295   3.706   0.088   0.613
  720SOL    HW2 2296   3.612   0.206   0.594
  721SOL     OW 2297   2.056   1.252   3.837
  721SOL    HW1 2298   2.011   1.212   3.763
  721SOL    HW2 2299   2.019   1.340   3.843
  722SOL     OW 2300   1.326   0.676   3.056
  722SOL    HW1 2301   1.390   0.637   2.997
  722SOL    HW2 2302   1.378   0.727   3.118
  723SOL     OW 2303   1.298   2.964   2.833
  723SOL    HW1 2304   1.328   2.943   2.745
  723SOL    HW2 2305   1.208   2.993   2.821
  724SOL     OW 2306   2.296   3.377   1.249
  724SOL    HW1 2307   2.222   3.436   1.260
  724SOL    HW2 2308   2.321   3.388   1.157
  725SOL     OW 2309   1.864   3.775   2.876
  725SOL    HW1 2310   1.784   3.827   2.869
  725SOL    HW2 2311   1.933   3.833   2.843
  726SOL     OW 2312   2.321   0.378   2.602
  726SOL    HW1 2313   2.401   0.331   2.578
  726SOL    HW2 2314   2.329   0.462   2.558
  727SOL     OW 2315   0.974   3.876   0.639
  727SOL    HW1 2316   0.981   3.807   0.705
  727SOL    HW2 2317   0.980   3.830   0.555
  728SOL     OW 2318   3.594   0.400   1.634
  728SOL    HW1 2319   3.637   0.471   1.587
  728SOL    HW2 2320   3.660   0.368   1.695
  729SOL     OW 2321   2.921   2.912   0.786
  729SOL    HW1 2322   2.875   2.970   0.725
  729SOL    HW2 2323   2.912   2.955   0.871
  730SOL     OW 2324   1.939   1.314   0.623
  730SOL    HW1 2325   1.891   1.252   0.678
  730SOL    HW2 2326   1.880   1.389   0.615
  731SOL     OW 2327   0.569   0.080   3.642
  731SOL    HW1 2328   0.533   0.101   3.728
  731SOL    HW2 2329   0.562  -0.015   3.635
  732SOL     OW 2330   0.714   3.591   1.800
  732SOL    HW1 2331   0.803   3.595   1.834
  732SOL    HW2 2332   0.710   3.507   1.754
  733SOL     OW 2333   1.471   0.180   1.334
  733SOL    HW1 2334   1.381   0.204   1.314
  733SOL    HW2 2335   1.495   0.233   1.410
  734SOL     OW 2336   1.078   1.729   1.833
  734SOL    HW1 2337   1.117   1.815   1.846
  734SOL    HW2 2338   0.986   1.746   1.810
  735SOL     OW 2339   0.191   2.168   1.782
  735SOL    HW1 2340   0.249   2.210   1.719
  735SOL    HW2 2341   0.104   2.174   1.743
  736SOL     OW 2342   3.885   3.403   0.879
  736SOL    HW1 2343   3.819   3.448   0.932
  736SOL    HW2 2344   3.955   3.381   0.941
  737SOL     OW 2345   2.129   0.566   0.303
  737SOL    HW1 2346   2.065   0.500   0.329
  737SOL    HW2 2347   2.208   0.543   0.352
  738SOL     OW 2348   2.767   1.518   3.229
  738SOL    HW1 2349   2.695   1.463   3.261
  738SOL    HW2 2350   2.842   1.458   3.224
  739SOL     OW 2351   0.195   1.433   3.077
  739SOL    HW1 2352   0.268   1.462   3.132
  739SOL    HW2 2353   0.217   1.464   2.989
  740SOL     OW 2354   0.578   2.144   0.163
  740SOL    HW1 2355   0.587   2.161   0.069
  740SOL    HW2 2356   0.509   2.078   0.169
  741SOL     OW 2357   1.867   1.475   1.268
  741SOL    HW1 2358   1.785   1.503   1.228
  741SOL    HW2 2359   1.848   1.389   1.305
  742SOL     OW 2360   2.388   0.659   0.761
  742SOL    HW1 2361   2.405   0.707   0.842
  742SOL    HW2 2362   2.299   0.684   0.736
  743SOL     OW 2363   3.181   3.397   1.751
  743SOL    HW1 2364   3.218   3.423   1.835
  743SOL    HW2 2365   3.100   3.448   1.743
  744SOL     OW 2366   0.543   1.570   3.033
  744SOL    HW1 2367   0.491   1.550   3.111
  744SOL    HW2 2368   0.629   1.596   3.066
  745SOL     OW 2369   3.258   1.430   3.243
  745SOL    HW1 2370   3.275   1.518   3.276
  745SOL    HW2 2371   3.344   1.395   3.222
  746SOL     OW 2372   1.597   1.617   1.051
  746SOL    HW1 2373   1.652   1.573   0.985
  746SOL    HW2 2374   1.627   1.707   1.051
  747SOL     OW 2375   1.554   1.910   3.442
  747SOL    HW1 2376   1.634   1.948   3.476
  747SOL    HW2 2377   1.583   1.840   3.383
  748SOL     OW 2378   2.906   0.858   3.659
  748SOL    HW1 2379   2.960   0.789   3.619
  748SOL    HW2 2380   2.859   0.897   3.585
  749SOL     OW 2381   2.710   0.843   0.272
  749SOL    HW1 2382   2.800   0.869   0.292
  749SOL    HW2 2383   2.663   0.851   0.355
  750SOL     OW 2384   1.799   2.873   3.899
  750SOL    HW1 2385   1.832   2.934   3.833
  750SOL    HW2 2386   1.863   2.802   3.901
  751SOL     OW 2387   1.138   1.815   3.196
  751SOL    HW1 2388   1.094   1.892   3.232
  751SOL    HW2 2389   1.151   1.836   3.103
  752SOL     OW 2390   2.852   2.152   3.409
  752SOL    HW1 2391   2.800   2.203   3.347
  752SOL    HW2 2392   2.789   2.126   3.477
  753SOL     OW 2393   2.137   1.944   3.148
  753SOL    HW1 2394   2.138   1.848   3.154
  753SOL    HW2 2395   2.067   1.971   3.207
  754SOL     OW 2396   3.650   0.628   2.787
  754SOL    HW1 2397   3.693   0.582   2.859
  754SOL    HW2 2398   3.720   0.679   2.746
  755SOL     OW 2399   1.688   0.436   2.521
  755SOL    HW1 2400   1.619   0.494   2.554
  755SOL    HW2 2401   1.714   0.384   2.597
  756SOL     OW 2402   3.577   1.035   3.706
  756SOL    HW1 2403   3.561   0.983   3.785
  756SOL    HW2 2404   3.605   0.971   3.641
  757SOL     OW 2405   1.499   3.120   0.539
  757SOL    HW1 2406   1.583   3.077   0.520
  757SOL    HW2 2407   1.523   3.211   0.557
  758SOL     OW 2408   1.547   2.521   0.789
  758SOL    HW1 2409   1.565   2.590   0.726
  758SOL    HW2 2410   1.612   2.532   0.857
  759SOL     OW 2411   3.260   0.515   2.795
  759SOL    HW1 2412   3.213   0.584   2.746
  759SOL    HW2 2413   3.286   0.558   2.876
  760SOL     OW 2414   2.439   0.856   1.276
  760SOL    HW1 2415   2.358   0.806   1.282
  760SOL    HW2 2416   2.465   0.869   1.367
  761SOL     OW 2417   0.562   3.910   1.576
  761SOL    HW1 2418   0.523   3.848   1.638
  761SOL    HW2 2419   0.629   3.955   1.627
  762SOL     OW 2420   2.942   2.848   3.674
  762SOL    HW1 2421   3.016   2.847   3.613
  762SOL    HW2 2422   2.890   2.772   3.650
  763SOL     OW 2423   3.024   0.612   2.026
  763SOL    HW1 2424   3.091   0.563   1.978
  763SOL    HW2 2425   3.073   0.682   2.070
  764SOL     OW 2426   1.828   3.803   3.746
  764SOL    HW1 2427   1.898   3.773   3.805
  764SOL    HW2 2428   1.852   3.767   3.661
  765SOL     OW 2429   3.447   0.234   2.158
  765SOL    HW1 2430   3.458   0.326   2.134
  765SOL    HW2 2431   3.468   0.231   2.252
  766SOL     OW 2432   2.854   3.502   2.406
  766SOL    HW1 2433   2.763   3.476   2.422
  766SOL    HW2 2434   2.858   3.593   2.433
  767SOL     OW 2435   1.382   2.691   1.645
  767SOL    HW1 2436   1.375   2.597   1.661
  767SOL    HW2 2437   1.293   2.718   1.624
  768SOL     OW 2438   2.209   3.593   0.310
  768SOL    HW1 2439   2.160   3.649   0.370
  768SOL    HW2 2440   2.202   3.505   0.349
  769SOL     OW 2441   1.833   1.111   3.203
  769SOL    HW1 2442   1.819   1.116   3.109
  769SOL    HW2 2443   1.834   1.202   3.232
  770SOL     OW 2444   1.980   3.336   3.072
  770SOL    HW1 2445   1.920   3.404   3.042
  770SOL    HW2 2446   2.005   3.362   3.160
  771SOL     OW 2447   1.608   0.143   2.294
  771SOL    HW1 2448   1.552   0.121   2.368
  771SOL    HW2 2449   1.682   0.083   2.302
  772SOL     OW 2450   0.985   1.591   0.493
  772SOL    HW1 2451   0.917   1.530   0.464
  772SOL    HW2 2452   1.064   1.562   0.447
  773SOL     OW 2453   1.917   3.666   3.540
  773SOL    HW1 2454   2.012   3.669   3.557
  773SOL    HW2 2455   1.909   3.695   3.449
  774SOL     OW 2456   3.798   1.046   0.367
  774SOL    HW1 2457   3.740   1.072   0.295
  774SOL    HW2 2458   3.757   1.083   0.445
  775SOL     OW 2459   2.492   2.983   3.297
  775SOL    HW1 2460   2.444   2.957   3.376
  775SOL    HW2 2461   2.578   2.943   3.308
  776SOL     OW 2462   2.815   1.306   3.938
  776SOL    HW1 2463   2.824   1.387   3.990
  776SOL    HW2 2464   2.897   1.259   3.954
  777SOL     OW 2465   1.223   1.792   2.121
  777SOL    HW1 2466   1.308   1.748   2.116
  777SOL    HW2 2467   1.226   1.841   2.202
  778SOL     OW 2468   2.074   2.614   2.236
  778SOL    HW1 2469   2.088   2.706   2.216
  778SOL    HW2 2470   2.151   2.588   2.286
  779SOL     OW 2471   1.819   1.209   1.391
  779SOL    HW1 2472   1.756   1.240   1.456
  779SOL    HW2 2473   1.773   1.141   1.343
  780SOL     OW 2474   1.178   0.103   1.267
  780SOL    HW1 2475   1.138   0.103   1.181
  780SOL    HW2 2476   1.234   0.025   1.268
  781SOL     OW 2477   3.669   3.589   3.417
  781SOL    HW1 2478   3.607   3.620   3.351
  781SOL    HW2 2479   3.614   3.548   3.483
  782SOL     OW 2480   1.204   3.750   1.502
  782SOL    HW1 2481   1.230   3.659   1.516
  782SOL    HW2 2482   1.142   3.769   1.572
  783SOL     OW 2483   0.240   1.151   0.157
  783SOL    HW1 2484   0.205   1.240   0.143
  783SOL    HW2 2485   0.200   1.098   0.089
  784SOL     OW 2486   2.027   0.686   2.123
  784SOL    HW1 2487   1.990   0.604   2.091
  784SOL    HW2 2488   2.115   0.663   2.153
  785SOL     OW 2489   2.740   3.620   3.420
  785SOL    HW1 2490   2.806   3.552   3.403
  785SOL    HW2 2491   2.772   3.664   3.499
  786SOL     OW 2492   1.958   0.495   3.569
  786SOL    HW1 2493   2.047   0.462   3.578
  786SOL    HW2 2494   1.902   0.418   3.579
  787SOL     OW 2495   0.096   0.760   3.247
  787SOL    HW1 2496   0.043   0.786   3.172
  787SOL    HW2 2497   0.177   0.727   3.210
  788SOL     OW 2498   2.928   1.888   2.718
  788SOL    HW1 2499   2.911   1.825   2.788
  788SOL    HW2 2500   2.921   1.973   2.761
  789SOL     OW 2501   1.295   0.690   3.571
  789SOL    HW1 2502   1.371   0.716   3.519
  789SOL    HW2 2503   1.223   0.740   3.534
  790SOL     OW 2504   2.916   3.002   0.110
  790SOL    HW1 2505   2.847   3.066   0.130
  790SOL    HW2 2506   2.880   2.951   0.037
  791SOL     OW 2507   3.799   1.269   3.484
  791SOL    HW1 2508   3.783   1.192   3.430
  791SOL    HW2 2509   3.713   1.307   3.498
  792SOL     OW 2510   1.572   3.261   0.201
  792SOL    HW1 2511   1.534   3.213   0.275
  792SOL    HW2 2512   1.583   3.350   0.233
  793SOL     OW 2513   1.138   1.254   2.747
  793SOL    HW1 2514   1.064   1.224   2.799
  793SOL    HW2 2515   1.202   1.182   2.752
  794SOL     OW 2516   2.746   2.350   1.861
  794SOL    HW1 2517   2.801   2.332   1.785
  794SOL    HW2 2518   2.657   2.335   1.829
  795SOL     OW 2519   2.116   0.688   3.365
  795SOL    HW1 2520   2.155   0.631   3.431
  795SOL    HW2 2521   2.179   0.688   3.292
  796SOL     OW 2522   1.011   2.056   0.691
  796SOL    HW1 2523   1.023   1.986   0.627
  796SOL    HW2 2524   0.917   2.059   0.706
  797SOL     OW 2525   1.329   1.630   3.361
  797SOL    HW1 2526   1.297   1.699   3.302
  797SOL    HW2 2527   1.253   1.573   3.374
  798SOL     OW 2528   2.442   2.655   0.146
  798SOL    HW1 2529   2.474   2.708   0.073
  798SOL    HW2 2530   2.349   2.675   0.151
  799SOL     OW 2531   3.067   2.630   3.415
  799SOL    HW1 2532   3.092   2.715   3.380
  799SOL    HW2 2533   3.065   2.572   3.338
  800SOL     OW 2534   1.831   3.533   2.966
  800SOL    HW1 2535   1.855   3.621   2.939
  800SOL    HW2 2536   1.794   3.493   2.887
  801SOL     OW 2537   0.890   2.059   1.514
  801SOL    HW1 2538   0.857   2.073   1.425
  801SOL    HW2 2539   0.911   2.147   1.546
  802SOL     OW 2540   0.714   0.751   0.982
  802SOL    HW1 2541   0.708   0.660   0.952
  802SOL    HW2 2542   0.630   0.790   0.958
  803SOL     OW 2543   2.010   0.696   2.379
  803SOL    HW1 2544   2.099   0.671   2.403
  803SOL    HW2 2545   2.008   0.691   2.284
  804SOL     OW 2546   2.695   3.712   0.719
  804SOL    HW1 2547   2.618   3.662   0.692
  804SOL    HW2 2548   2.770   3.663   0.684
  805SOL     OW 2549   1.423   0.111   1.017
  805SOL    HW1 2550   1.401   0.117   1.110
  805SOL    HW2 2551   1.512   0.074   1.016
  806SOL     OW 2552   0.718   2.831   1.361
  806SOL    HW1 2553   0.736   2.925   1.362
  806SOL    HW2 2554   0.793   2.792   1.407
  807SOL     OW 2555   2.512   2.071   1.489
  807SOL    HW1 2556   2.536   2.006   1.423
  807SOL    HW2 2557   2.595   2.092   1.532
  808SOL     OW 2558   1.087   2.339   2.374
  808SOL    HW1 2559   1.177   2.360   2.352
  808SOL    HW2 2560   1.050   2.422   2.404
  809SOL     OW 2561   2.123   1.059   0.412
  809SOL    HW1 2562   2.112   1.148   0.380
  809SOL    HW2 2563   2.162   1.012   0.339
  810SOL     OW 2564   3.681   3.391   1.088
  810SOL    HW1 2565   3.723   3.356   1.167
  810SOL    HW2 2566   3.589   3.368   1.097
  811SOL     OW 2567   2.008   2.881   0.523
  811SOL    HW1 2568   2.082   2.862   0.581
  811SOL    HW2 2569   2.048   2.900   0.438
  812SOL     OW 2570   3.460   1.031   3.208
  812SOL    HW1 2571   3.366   1.015   3.208
  812SOL    HW2 2572   3.495   0.964   3.267
  813SOL     OW 2573   2.279   0.184   2.775
  813SOL    HW1 2574   2.281   0.261   2.718
  813SOL    HW2 2575   2.250   0.217   2.860
  814SOL     OW 2576   1.044   2.004   2.998
  814SOL    HW1 2577   1.054   2.058   2.919
  814SOL    HW2 2578   1.040   2.068   3.070
  815SOL     OW 2579   0.154   3.245   1.374
  815SOL    HW1 2580   0.183   3.244   1.465
  815SOL    HW2 2581   0.173   3.157   1.342
  816SOL     OW 2582   2.677   3.607   2.718
  816SOL    HW1 2583   2.633   3.662   2.782
  816SOL    HW2 2584   2.630   3.524   2.721
  817SOL     OW 2585   1.379   1.301   1.670
  817SOL    HW1 2586   1.313   1.294   1.602
  817SOL    HW2 2587   1.443   1.364   1.635
  818SOL     OW 2588   3.852   0.820   0.558
  818SOL    HW1 2589   3.810   0.734   0.553
  818SOL    HW2 2590   3.946   0.800   0.562
  819SOL     OW 2591   1.855   1.991   1.826
  819SOL    HW1 2592   1.790   1.947   1.771
  819SOL    HW2 2593   1.938   1.950   1.801
  820SOL     OW 2594   3.677   2.447   3.379
  820SOL    HW1 2595   3.591   2.480   3.403
  820SOL    HW2 2596   3.661   2.362   3.338
  821SOL     OW 2597   3.432   2.580   3.440
  821SOL    HW1 2598   3.502   2.642   3.460
  821SOL    HW2 2599   3.361   2.603   3.500
  822SOL     OW 2600   1.065   1.186   1.036
  822SOL    HW1 2601   1.128   1.254   1.056
  822SOL    HW2 2602   0.999   1.230   0.981
  823SOL     OW 2603   3.039   3.744   1.938
  823SOL    HW1 2604   3.024   3.747   2.032
  823SOL    HW2 2605   3.028   3.651   1.915
  824SOL     OW 2606   0.433   2.455   1.130
  824SOL    HW1 2607   0.510   2.510   1.118
  824SOL    HW2 2608   0.389   2.457   1.045
  825SOL     OW 2609   0.809   3.778   3.328
  825SOL    HW1 2610   0.825   3.871   3.317
  825SOL    HW2 2611   0.777   3.769   3.417
  826SOL     OW 2612   1.660   0.627   3.755
  826SOL    HW1 2613   1.600   0.690   3.794
  826SOL    HW2 2614   1.605   0.556   3.724
  827SOL     OW 2615   3.198   3.560   3.876
  827SOL    HW1 2616   3.269   3.499   3.856
  827SOL    HW2 2617   3.118   3.513   3.855
  828SOL     OW 2618   0.893   3.343   1.628
  828SOL    HW1 2619   0.972   3.367   1.579
  828SOL    HW2 2620   0.822   3.389   1.582
  829SOL     OW 2621   2.711   0.422   2.580
  829SOL    HW1 2622   2.804   0.431   2.601
  829SOL    HW2 2623   2.676   0.365   2.648
  830SOL     OW 2624   2.828   0.200   0.792
  830SOL    HW1 2625   2.762   0.268   0.776
  830SOL    HW2 2626   2.893   0.242   0.848
  831SOL     OW 2627   2.949   2.325   0.415
  831SOL    HW1 2628   3.014   2.367   0.471
  831SOL    HW2 2629   2.986   2.239   0.395
  832SOL     OW 2630   2.783   3.647   0.156
  832SOL    HW1 2631   2.871   3.667   0.125
  832SOL    HW2 2632   2.725   3.670   0.083
  833SOL     OW 2633   2.969   2.264   2.378
  833SOL    HW1 2634   3.034   2.201   2.408
  833SOL    HW2 2635   2.905   2.212   2.330
  834SOL     OW 2636   3.908   2.384   2.212
  834SOL    HW1 2637   3.923   2.461   2.266
  834SOL    HW2 2638   3.816   2.363   2.224
  835SOL     OW 2639   0.392   0.444   2.272
  835SOL    HW1 2640   0.395   0.465   2.179
  835SOL    HW2 2641   0.377   0.350   2.275
  836SOL     OW 2642   2.810   2.651   0.045
  836SOL    HW1 2643   2.900   2.646   0.076
  836SOL    HW2 2644   2.806   2.589  -0.027
  837SOL     OW 2645   1.425   0.225   2.899
  837SOL    HW1 2646   1.357   0.272   2.851
  837SOL    HW2 2647   1.500   0.223   2.839
  838SOL     OW 2648   3.600   3.113   2.365
  838SOL    HW1 2649   3.629   3.121   2.456
  838SOL    HW2 2650   3.675   3.144   2.314
  839SOL     OW 2651   2.322   2.418   2.331
  839SOL    HW1 2652   2.343   2.470   2.408
  839SOL    HW2 2653   2.405   2.376   2.306
  840SOL     OW 2654   0.418   3.122   2.492
  840SOL    HW1 2655   0.501   3.080   2.470
  840SOL    HW2 2656   0.417   3.124   2.588
  841SOL     OW 2657   2.191   3.843   0.199
  841SOL    HW1 2658   2.112   3.832   0.147
  841SOL    HW2 2659   2.196   3.763   0.252
  842SOL     OW 2660   1.642   0.540   1.435
  842SOL    HW1 2661   1.557   0.518   1.398
  842SOL    HW2 2662   1.648   0.635   1.427
  843SOL     OW 2663   2.990   1.326   0.267
  843SOL    HW1 2664   2.966   1.409   0.226
  843SOL    HW2 2665   3.026   1.273   0.196
  844SOL     OW 2666   1.670   3.372   1.880
  844SOL    HW1 2667   1.614   3.316   1.934
  844SOL    HW2 2668   1.619   3.388   1.801
  845SOL     OW 2669   3.439   2.111   2.968
  845SOL    HW1 2670   3.362   2.145   3.014
  845SOL    HW2 2671   3.440   2.018   2.988
  846SOL     OW 2672   0.816   2.793   0.930
  846SOL    HW1 2673   0.807   2.771   0.837
  846SOL    HW2 2674   0.838   2.886   0.930
  847SOL     OW 2675   1.864   3.120   2.694
  847SOL    HW1 2676   1.894   3.166   2.615
  847SOL    HW2 2677   1.836   3.034   2.662
  848SOL     OW 2678   0.829   1.903   2.416
  848SOL    HW1 2679   0.848   1.902   2.510
  848SOL    HW2 2680   0.911   1.929   2.375
  849SOL     OW 2681   3.490   0.529   2.044
  849SOL    HW1 2682   3.535   0.613   2.055
  849SOL    HW2 2683   3.559   0.468   2.019
  850SOL     OW 2684   1.104   0.586   3.798
  850SOL    HW1 2685   1.172   0.540   3.848
  850SOL    HW2 2686   1.078   0.658   3.855
  851SOL     OW 2687   0.398   3.458   3.799
  851SOL    HW1 2688   0.378   3.535   3.852
  851SOL    HW2 2689   0.398   3.385   3.862
  852SOL     OW 2690   2.464   1.502   0.365
  852SOL    HW1 2691   2.483   1.421   0.412
  852SOL    HW2 2692   2.533   1.562   0.393
  853SOL     OW 2693   2.747   0.305   3.335
  853SOL    HW1 2694   2.806   0.367   3.292
  853SOL    HW2 2695   2.738   0.338   3.424
  854SOL     OW 2696   0.327   1.850   0.984
  854SOL    HW1 2697   0.408   1.800   0.972
  854SOL    HW2 2698   0.303   1.835   1.076
  855SOL     OW 2699   1.011   2.071   2.291
  855SOL    HW1 2700   1.059   2.142   2.333
  855SOL    HW2 2701   0.925   2.108   2.270
  856SOL     OW 2702   3.013   0.660   0.230
  856SOL    HW1 2703   2.938   0.668   0.172
  856SOL    HW2 2704   3.087   0.694   0.179
  857SOL     OW 2705   0.317   3.024   0.975
  857SOL    HW1 2706   0.223   3.014   0.957
  857SOL    HW2 2707   0.356   3.049   0.892
  858SOL     OW 2708   1.786   1.517   0.477
  858SOL    HW1 2709   1.734   1.577   0.424
  858SOL    HW2 2710   1.788   1.436   0.426
  859SOL     OW 2711   1.450   0.037   2.502
  859SOL    HW1 2712   1.414  -0.050   2.485
  859SOL    HW2 2713   1.509   0.025   2.576
  860SOL     OW 2714   2.902   3.140   0.613
  860SOL    HW1 2715   2.973   3.151   0.676
  860SOL    HW2 2716   2.945   3.122   0.530
  861SOL     OW 2717   3.463   3.876   0.057
  861SOL    HW1 2718   3.442   3.927   0.135
  861SOL    HW2 2719   3.387   3.885   0.000
  862SOL     OW 2720   0.978   3.162   3.275
  862SOL    HW1 2721   0.909   3.189   3.336
  862SOL    HW2 2722   0.976   3.228   3.206
  863SOL     OW 2723   2.898   2.006   2.347
  863SOL    HW1 2724   2.924   1.916   2.365
  863SOL    HW2 2725   2.803   2.001   2.335
  864SOL     OW 2726   0.881   3.388   2.064
  864SOL    HW1 2727   0.811   3.366   2.003
  864SOL    HW2 2728   0.896   3.482   2.050
  865SOL     OW 2729   1.057   0.604   3.363
  865SOL    HW1 2730   1.053   0.569   3.452
  865SOL    HW2 2731   0.987   0.669   3.359
  866SOL     OW 2732   3.519   1.841   0.572
  866SOL    HW1 2733   3.556   1.861   0.658
  866SOL    HW2 2734   3.446   1.782   0.590
  867SOL     OW 2735   0.060   1.938   0.925
  867SOL    HW1 2736   0.031   1.968   1.011
  867SOL    HW2 2737   0.148   1.902   0.940
  868SOL     OW 2738   3.929   0.072   2.286
  868SOL    HW1 2739   3.864   0.060   2.217
  868SOL    HW2 2740   3.962  -0.016   2.303
  869SOL     OW 2741   2.429   2.973   1.912
  869SOL    HW1 2742   2.409   3.060   1.947
  869SOL    HW2 2743   2.471   2.928   1.985
  870SOL     OW 2744   0.840   0.609   2.745
  870SOL    HW1 2745   0.748   0.635   2.744
  870SOL    HW2 2746   0.882   0.667   2.682
  871SOL     OW 2747   1.010   0.094   0.083
  871SOL    HW1 2748   1.067   0.168   0.062
  871SOL    HW2 2749   1.067   0.032   0.129
  872SOL     OW 2750   1.625   3.165   2.317
  872SOL    HW1 2751   1.557   3.184   2.252
  872SOL    HW2 2752   1.685   3.239   2.311
  873SOL     OW 2753   2.768   3.141   3.176
  873SOL    HW1 2754   2.693   3.083   3.188
  873SOL    HW2 2755   2.839   3.098   3.222
  874SOL     OW 2756   1.841   3.972   2.096
  874SOL    HW1 2757   1.795   3.958   2.014
  874SOL    HW2 2758   1.859   3.884   2.129
  875SOL     OW 2759   1.196   0.455   3.171
  875SOL    HW1 2760   1.169   0.496   3.252
  875SOL    HW2 2761   1.222   0.528   3.114
  876SOL     OW 2762   1.416   3.219   0.957
  876SOL    HW1 2763   1.494   3.274   0.951
  876SOL    HW2 2764   1.450   3.129   0.956
  877SOL     OW 2765   0.714   1.138   0.101
  877SOL    HW1 2766   0.801   1.098   0.100
  877SOL    HW2 2767   0.673   1.108   0.019
  878SOL     OW 2768   1.141   3.125   0.176
  878SOL    HW1 2769   1.077   3.144   0.245
  878SOL    HW2 2770   1.194   3.205   0.170
  879SOL     OW 2771   2.420   0.507   2.954
  879SOL    HW1 2772   2.429   0.430   2.898
  879SOL    HW2 2773   2.508   0.522   2.988
  880SOL     OW 2774   1.147   1.740   3.731
  880SOL    HW1 2775   1.213   1.787   3.680
  880SOL    HW2 2776   1.173   1.755   3.822
  881SOL     OW 2777   3.135   1.705   0.625
  881SOL    HW1 2778   3.123   1.789   0.669
  881SOL    HW2 2779   3.229   1.690   0.626
  882SOL     OW 2780   0.056   2.721   3.140
  882SOL    HW1 2781   0.023   2.669   3.067
  882SOL    HW2 2782  -0.022   2.748   3.188
  883SOL     OW 2783   1.214   0.211   0.529
  883SOL    HW1 2784   1.239   0.300   0.555
  883SOL    HW2 2785   1.289   0.179   0.479
  884SOL     OW 2786   1.531   1.017   0.899
  884SOL    HW1 2787   1.518   1.026   0.804
  884SOL    HW2 2788   1.465   1.074   0.937
  885SOL     OW 2789   0.975   2.584   2.472
  885SOL    HW1 2790   0.884   2.556   2.457
  885SOL    HW2 2791   0.981   2.595   2.567
  886SOL     OW 2792   1.596   3.954   3.899
  886SOL    HW1 2793   1.569   4.004   3.822
  886SOL    HW2 2794   1.680   3.915   3.875
  887SOL     OW 2795   3.734   2.657   0.912
  887SOL    HW1 2796   3.815   2.635   0.865
  887SOL    HW2 2797   3.664   2.641   0.848
  888SOL     OW 2798   3.243   0.410   3.428
  888SOL    HW1 2799   3.336   0.416   3.407
  888SOL    HW2 2800   3.214   0.330   3.386
  889SOL     OW 2801   1.359   2.162   1.046
  889SOL    HW1 2802   1.425   2.228   1.025
  889SOL    HW2 2803   1.348   2.112   0.964
  890SOL     OW 2804   1.773   1.153   2.902
  890SOL    HW1 2805   1.797   1.061   2.905
  890SOL    HW2 2806   1.856   1.200   2.899
  891SOL     OW 2807   3.367   2.899   0.576
  891SOL    HW1 2808   3.394   2.943   0.496
  891SOL    HW2 2809   3.384   2.806   0.559
  892SOL     OW 2810   2.585   1.897   3.830
  892SOL    HW1 2811   2.653   1.922   3.892
  892SOL    HW2 2812   2.516   1.859   3.883
  893SOL     OW 2813   2.041   1.639   3.477
  893SOL    HW1 2814   2.007   1.717   3.434
  893SOL    HW2 2815   1.997   1.566   3.432
  894SOL     OW 2816   1.401   1.356   3.201
  894SOL    HW1 2817   1.367   1.431   3.250
  894SOL    HW2 2818   1.423   1.392   3.115
  895SOL     OW 2819   1.519   0.707   2.056
  895SOL    HW1 2820   1.575   0.771   2.012
  895SOL    HW2 2821   1.539   0.624   2.012
  896SOL     OW 2822   2.647   0.423   1.368
  896SOL    HW1 2823   2.620   0.360   1.435
  896SOL    HW2 2824   2.572   0.482   1.358
  897SOL     OW 2825   2.478   3.413   3.040
  897SOL    HW1 2826   2.511   3.475   3.105
  897SOL    HW2 2827   2.465   3.332   3.088
  898SOL     OW 2828   1.783   0.320   3.336
  898SOL    HW1 2829   1.857   0.368   3.298
  898SOL    HW2 2830   1.776   0.352   3.425
  899SOL     OW 2831   3.375   2.516   3.189
  899SOL    HW1 2832   3.366   2.536   3.282
  899SOL    HW2 2833   3.382   2.420   3.185
  900SOL     OW 2834   2.111   2.219   0.906
  900SOL    HW1 2835   2.091   2.312   0.907
  900SOL    HW2 2836   2.157   2.205   0.823
  901SOL     OW 2837   3.522   1.853   0.854
  901SOL    HW1 2838   3.480   1.779   0.898
  901SOL    HW2 2839   3.582   1.888   0.919
  902SOL     OW 2840   3.050   2.987   2.076
  902SOL    HW1 2841   3.116   2.934   2.120
  902SOL    HW2 2842   3.099   3.036   2.010
  903SOL     OW 2843   0.613   0.198   3.414
  903SOL    HW1 2844   0.601   0.171   3.505
  903SOL    HW2 2845   0.693   0.154   3.386
  904SOL     OW 2846   0.787   3.924   3.007
  904SOL    HW1 2847   0.736   3.911   2.928
  904SOL    HW2 2848   0.746   3.999   3.050
  905SOL     OW 2849   1.960   2.297   0.264
  905SOL    HW1 2850   2.012   2.357   0.318
  905SOL    HW2 2851   2.016   2.277   0.189
  906SOL     OW 2852   1.269   3.075   1.655
  906SOL    HW1 2853   1.207   3.004   1.642
  906SOL    HW2 2854   1.267   3.124   1.572
  907SOL     OW 2855   1.186   1.581   1.600
  907SOL    HW1 2856   1.186   1.618   1.688
  907SOL    HW2 2857   1.225   1.649   1.545
  908SOL     OW 2858   2.906   3.812   2.173
  908SOL    HW1 2859   2.924   3.903   2.197
  908SOL    HW2 2860   2.856   3.818   2.092
  909SOL     OW 2861   2.828   1.730   0.720
  909SOL    HW1 2862   2.784   1.678   0.787
  909SOL    HW2 2863   2.758   1.781   0.679
  910SOL     OW 2864   0.233   3.282   2.989
  910SOL    HW1 2865   0.225   3.329   3.072
  910SOL    HW2 2866   0.172   3.326   2.930
  911SOL     OW 2867   0.944   3.774   1.639
  911SOL    HW1 2868   0.917   3.757   1.549
  911SOL    HW2 2869   0.876   3.832   1.673
  912SOL     OW 2870   1.218   3.035   0.575
  912SOL    HW1 2871   1.312   3.034   0.593
  912SOL    HW2 2872   1.196   2.943   0.559
  913SOL     OW 2873   0.621   3.885   2.090
  913SOL    HW1 2874   0.553   3.846   2.144
  913SOL    HW2 2875   0.620   3.978   2.114
  914SOL     OW 2876   3.535   2.538   1.046
  914SOL    HW1 2877   3.563   2.474   1.112
  914SOL    HW2 2878   3.617   2.573   1.011
  915SOL     OW 2879   3.351   1.569   0.867
  915SOL    HW1 2880   3.304   1.641   0.911
  915SOL    HW2 2881   3.292   1.494   0.875
  916SOL     OW 2882   1.490   0.562   0.209
  916SOL    HW1 2883   1.467   0.559   0.302
  916SOL    HW2 2884   1.583   0.584   0.208
  917SOL     OW 2885   2.625   2.886   0.315
  917SOL    HW1 2886   2.592   2.844   0.236
  917SOL    HW2 2887   2.638   2.977   0.291
  918SOL     OW 2888   2.132   1.570   1.336
  918SOL    HW1 2889   2.150   1.632   1.265
  918SOL    HW2 2890   2.036   1.569   1.343
  919SOL     OW 2891   0.998   0.855   3.202
  919SOL    HW1 2892   0.968   0.780   3.151
  919SOL    HW2 2893   0.918   0.902   3.225
  920SOL     OW 2894   2.541   3.480   3.773
  920SOL    HW1 2895   2.592   3.546   3.725
  920SOL    HW2 2896   2.487   3.531   3.834
  921SOL     OW 2897   0.848   1.059   2.486
  921SOL    HW1 2898   0.930   1.109   2.481
  921SOL    HW2 2899   0.784   1.114   2.442
  922SOL     OW 2900   2.325   0.973   2.472
  922SOL    HW1 2901   2.371   1.046   2.430
  922SOL    HW2 2902   2.267   0.939   2.404
  923SOL     OW 2903   3.142   3.609   1.129
  923SOL    HW1 2904   3.165   3.563   1.209
  923SOL    HW2 2905   3.194   3.689   1.131
  924SOL     OW 2906   3.710   3.261   2.931
  924SOL    HW1 2907   3.794   3.300   2.955
  924SOL    HW2 2908   3.658   3.266   3.011
  925SOL     OW 2909   0.605   2.688   1.956
  925SOL    HW1 2910   0.648   2.617   2.003
  925SOL    HW2 2911   0.675   2.731   1.908
  926SOL     OW 2912   1.414   3.754   3.223
  926SOL    HW1 2913   1.468   3.687   3.262
  926SOL    HW2 2914   1.348   3.773   3.290
  927SOL     OW 2915   0.911   0.620   3.612
  927SOL    HW1 2916   0.830   0.655   3.648
  927SOL    HW2 2917   0.951   0.571   3.684
  928SOL     OW 2918   1.734   1.721   3.057
  928SOL    HW1 2919   1.646   1.736   3.022
  928SOL    HW2 2920   1.793   1.755   2.990
  929SOL     OW 2921   3.420   3.738   3.535
  929SOL    HW1 2922   3.442   3.646   3.546
  929SOL    HW2 2923   3.347   3.738   3.473
  930SOL     OW 2924   0.084   1.986   3.918
  930SOL    HW1 2925   0.049   1.922   3.856
  930SOL    HW2 2926   0.010   2.004   3.977
  931SOL     OW 2927   3.098   1.217   1.445
  931SOL    HW1 2928   3.165   1.211   1.513
  931SOL    HW2 2929   3.087   1.127   1.415
  932SOL     OW 2930   3.147   3.518   2.425
  932SOL    HW1 2931   3.062   3.546   2.391
  932SOL    HW2 2932   3.128   3.440   2.478
  933SOL     OW 2933   0.284   1.368   1.473
  933SOL    HW1 2934   0.342   1.433   1.512
  933SOL    HW2 2935   0.332   1.336   1.397
  934SOL     OW 2936   3.645   2.350   1.186
  934SOL    HW1 2937   3.720   2.371   1.241
  934SOL    HW2 2938   3.580   2.314   1.246
  935SOL     OW 2939   1.707   0.390   2.230
  935SOL    HW1 2940   1.753   0.402   2.313
  935SOL    HW2 2941   1.664   0.305   2.238
  936SOL     OW 2942   3.045   0.020   1.443
  936SOL    HW1 2943   2.992   0.051   1.370
  936SOL    HW2 2944   3.098   0.096   1.469
  937SOL     OW 2945   0.280   2.166   3.540
  937SOL    HW1 2946   0.197   2.162   3.491
  937SOL    HW2 2947   0.259   2.216   3.619
  938SOL     OW 2948   0.546   1.879   1.746
  938SOL    HW1 2949   0.461   1.892   1.704
  938SOL    HW2 2950   0.588   1.965   1.744
  939SOL     OW 2951   1.950   2.104   1.128
  939SOL    HW1 2952   2.021   2.136   1.073
  939SOL    HW2 2953   1.957   2.154   1.209
  940SOL     OW 2954   3.827   0.018   3.519
  940SOL    HW1 2955   3.746   0.007   3.469
  940SOL    HW2 2956   3.797   0.033   3.609
  941SOL     OW 2957   3.357   3.594   1.355
  941SOL    HW1 2958   3.324   3.683   1.351
  941SOL    HW2 2959   3.408   3.591   1.436
  942SOL     OW 2960   2.080   0.600   0.759
  942SOL    HW1 2961   2.056   0.573   0.670
  942SOL    HW2 2962   1.997   0.601   0.807
  943SOL     OW 2963   3.065   3.677   0.140
  943SOL    HW1 2964   3.134   3.700   0.202
  943SOL    HW2 2965   3.111   3.650   0.061
  944SOL     OW 2966   3.078   1.938   3.433
  944SOL    HW1 2967   3.043   2.020   3.400
  944SOL    HW2 2968   3.021   1.915   3.506
  945SOL     OW 2969   3.023   3.651   3.177
  945SOL    HW1 2970   2.978   3.566   3.178
  945SOL    HW2 2971   2.974   3.703   3.113
  946SOL     OW 2972   2.788   3.117   1.327
  946SOL    HW1 2973   2.698   3.135   1.355
  946SOL    HW2 2974   2.831   3.202   1.330
  947SOL     OW 2975   3.986   3.071   2.071
  947SOL    HW1 2976   3.998   3.166   2.065
  947SOL    HW2 2977   3.893   3.060   2.092
  948SOL     OW 2978   0.031   1.661   3.183
  948SOL    HW1 2979   0.078   1.585   3.148
  948SOL    HW2 2980  -0.042   1.624   3.231
  949SOL     OW 2981   1.883   2.761   0.859
  949SOL    HW1 2982   1.957   2.705   0.882
  949SOL    HW2 2983   1.865   2.741   0.767
  950SOL     OW 2984   0.635   3.108   2.036
  950SOL    HW1 2985   0.541   3.116   2.053
  950SOL    HW2 2986   0.677   3.146   2.113
  951SOL     OW 2987   1.210   2.398   1.404
  951SOL    HW1 2988   1.149   2.373   1.473
  951SOL    HW2 2989   1.224   2.492   1.417
  952SOL     OW 2990   1.429   3.724   0.546
  952SOL    HW1 2991   1.383   3.659   0.493
  952SOL    HW2 2992   1.360   3.778   0.585
  953SOL     OW 2993   1.359   2.922   2.568
  953SOL    HW1 2994   1.323   2.834   2.554
  953SOL    HW2 2995   1.446   2.919   2.528
  954SOL     OW 2996   1.572   0.555   1.134
  954SOL    HW1 2997   1.562   0.645   1.167
  954SOL    HW2 2998   1.629   0.564   1.058
  955SOL     OW 2999   3.455   2.841   3.883
  955SOL    HW1 3000   3.503   2.781   3.941
  955SOL    HW2 3001   3.365   2.810   3.885
  956SOL     OW 3002   3.359   1.810   1.441
  956SOL    HW1 3003   3.269   1.783   1.424
  956SOL    HW2 3004   3.385   1.858   1.363
  957SOL     OW 3005   2.605   0.520   0.311
  957SOL    HW1 3006   2.574   0.435   0.278
  957SOL    HW2 3007   2.538   0.582   0.283
  958SOL     OW 3008   2.256   2.446   3.168
  958SOL    HW1 3009   2.264   2.525   3.221
  958SOL    HW2 3010   2.312   2.382   3.211
  959SOL     OW 3011   3.204   0.708   2.986
  959SOL    HW1 3012   3.280   0.765   2.978
  959SOL    HW2 3013   3.160   0.736   3.066
  960SOL     OW 3014   2.433   1.214   0.192
  960SOL    HW1 3015   2.406   1.130   0.226
  960SOL    HW2 3016   2.519   1.230   0.231
  961SOL     OW 3017   1.035   2.662   3.534
  961SOL    HW1 3018   1.120   2.620   3.525
  961SOL    HW2 3019   1.040   2.739   3.477
  962SOL     OW 3020   1.583   2.919   2.398
  962SOL    HW1 3021   1.554   2.881   2.315
  962SOL    HW2 3022   1.602   3.011   2.377
  963SOL     OW 3023   2.579   0.681   3.587
  963SOL    HW1 3024   2.489   0.714   3.586
  963SOL    HW2 3025   2.632   0.755   3.558
  964SOL     OW 3026   0.268   3.149   3.784
  964SOL    HW1 3027   0.237   3.072   3.831
  964SOL    HW2 3028   0.212   3.220   3.813
  965SOL     OW 3029   2.301   3.517   0.852
  965SOL    HW1 3030   2.361   3.540   0.923
  965SOL    HW2 3031   2.216   3.552   0.880
  966SOL     OW 3032   1.522   1.766   2.862
  966SOL    HW1 3033   1.496   1.725   2.780
  966SOL    HW2 3034   1.583   1.835   2.837
  967SOL     OW 3035   1.559   3.064   2.924
  967SOL    HW1 3036   1.534   3.017   3.004
  967SOL    HW2 3037   1.487   3.046   2.863
  968SOL     OW 3038   0.154   2.836   3.374
  968SOL    HW1 3039   0.135   2.763   3.316
  968SOL    HW2 3040   0.081   2.897   3.362
  969SOL     OW 3041   3.617   3.211   1.917
  969SOL    HW1 3042   3.536   3.207   1.866
  969SOL    HW2 3043   3.687   3.205   1.851
  970SOL     OW 3044   2.266   2.066   1.276
  970SOL    HW1 3045   2.220   2.149   1.291
  970SOL    HW2 3046   2.350   2.076   1.320
  971SOL     OW 3047   2.143   2.199   0.109
  971SOL    HW1 3048   2.179   2.116   0.077
  971SOL    HW2 3049   2.220   2.253   0.127
  972SOL     OW 3050   3.939   2.539   1.577
  972SOL    HW1 3051   3.997   2.496   1.640
  972SOL    HW2 3052   3.906   2.468   1.523
  973SOL     OW 3053   3.728   0.491   3.005
  973SOL    HW1 3054   3.811   0.483   2.959
  973SOL    HW2 3055   3.731   0.423   3.072
  974SOL     OW 3056   1.361   2.715   3.165
  974SOL    HW1 3057   1.446   2.672   3.174
  974SOL    HW2 3058   1.299   2.643   3.151
  975SOL     OW 3059   2.308   3.636   2.549
  975SOL    HW1 3060   2.232   3.675   2.591
  975SOL    HW2 3061   2.378   3.642   2.615
  976SOL     OW 3062   1.302   3.652   2.924
  976SOL    HW1 3063   1.355   3.572   2.925
  976SOL    HW2 3064   1.345   3.710   2.987
  977SOL     OW 3065   1.856   2.980   3.623
  977SOL    HW1 3066   1.810   3.060   3.596
  977SOL    HW2 3067   1.786   2.917   3.640
  978SOL     OW 3068   1.661   0.781   0.985
  978SOL    HW1 3069   1.650   0.748   0.896
  978SOL    HW2 3070   1.607   0.861   0.988
  979SOL     OW 3071   0.953   1.190   0.709
  979SOL    HW1 3072   0.917   1.253   0.772
  979SOL    HW2 3073   1.041   1.171   0.740
  980SOL     OW 3074   0.039   0.426   3.672
  980SOL    HW1 3075   0.082   0.474   3.742
  980SOL    HW2 3076  -0.037   0.385   3.714
  981SOL     OW 3077   2.564   3.046   3.677
  981SOL    HW1 3078   2.517   3.105   3.736
  981SOL    HW2 3079   2.656   3.053   3.704
  982SOL     OW 3080   0.524   0.713   0.120
  982SOL    HW1 3081   0.586   0.641   0.131
  982SOL    HW2 3082   0.565   0.787   0.164
  983SOL     OW 3083   1.084   0.674   0.084
  983SOL    HW1 3084   1.038   0.704   0.162
  983SOL    HW2 3085   1.087   0.578   0.094
  984SOL     OW 3086   1.772   3.926   0.203
  984SOL    HW1 3087   1.819   3.848   0.231
  984SOL    HW2 3088   1.742   3.906   0.114
  985SOL     OW 3089   2.563   0.411   1.839
  985SOL    HW1 3090   2.602   0.375   1.918
  985SOL    HW2 3091   2.638   0.441   1.787
  986SOL     OW 3092   0.117   0.316   0.153
  986SOL    HW1 3093   0.062   0.293   0.078
  986SOL    HW2 3094   0.202   0.339   0.114
  987SOL     OW 3095   0.756   1.486   1.212
  987SOL    HW1 3096   0.835   1.539   1.219
  987SOL    HW2 3097   0.699   1.535   1.153
  988SOL     OW 3098   0.889   0.272   3.613
  988SOL    HW1 3099   0.851   0.195   3.569
  988SOL    HW2 3100   0.865   0.261   3.705
  989SOL     OW 3101   3.431   0.070   1.376
  989SOL    HW1 3102   3.515   0.049   1.416
  989SOL    HW2 3103   3.438   0.161   1.349
  990SOL     OW 3104   0.328   0.130   2.426
  990SOL    HW1 3105   0.297   0.172   2.346
  990SOL    HW2 3106   0.416   0.099   2.405
  991SOL     OW 3107   3.623   1.144   2.413
  991SOL    HW1 3108   3.602   1.071   2.472
  991SOL    HW2 3109   3.687   1.197   2.462
  992SOL     OW 3110   0.154   3.468   0.485
  992SOL    HW1 3111   0.070   3.467   0.532
  992SOL    HW2 3112   0.163   3.558   0.454
  993SOL     OW 3113   1.763   2.542   1.002
  993SOL    HW1 3114   1.796   2.575   0.918
  993SOL    HW2 3115   1.820   2.581   1.068
  994SOL     OW 3116   1.607   1.440   1.261
  994SOL    HW1 3117   1.571   1.503   1.199
  994SOL    HW2 3118   1.617   1.359   1.209
  995SOL     OW 3119   0.208   2.974   0.584
  995SOL    HW1 3120   0.249   2.908   0.529
  995SOL    HW2 3121   0.114   2.953   0.581
  996SOL     OW 3122   2.434   2.378   1.112
  996SOL    HW1 3123   2.377   2.451   1.089
  996SOL    HW2 3124   2.378   2.301   1.110
  997SOL     OW 3125   3.924   3.398   1.867
  997SOL    HW1 3126   3.846   3.427   1.914
  997SOL    HW2 3127   3.993   3.400   1.933
  998SOL     OW 3128   1.411   0.494   0.898
  998SOL    HW1 3129   1.355   0.570   0.880
  998SOL    HW2 3130   1.454   0.514   0.981
  999SOL     OW 3131   0.543   0.597   0.795
  999SOL    HW1 3132   0.527   0.518   0.847
  999SOL    HW2 3133   0.622   0.577   0.745
 1000SOL     OW 3134   1.011   0.157   2.228
 1000SOL    HW1 3135   1.062   0.120   2.300
 1000SOL    HW2 3136   1.025   0.252   2.235
 1001SOL     OW 3137   0.368   1.911   0.261
 1001SOL    HW1 3138   0.389   1.856   0.186
 1001SOL    HW2 3139   0.327   1.851   0.324
 1002SOL     OW 3140   2.158   1.242   0.804
 1002SOL    HW1 3141   2.101   1.193   0.863
 1002SOL    HW2 3142   2.100   1.277   0.737
 1003SOL     OW 3143   1.241   3.084   2.313
 1003SOL    HW1 3144   1.200   3.160   2.271
 1003SOL    HW2 3145   1.290   3.122   2.387
 1004SOL     OW 3146   3.822   3.179   0.439
 1004SOL    HW1 3147   3.791   3.119   0.507
 1004SOL    HW2 3148   3.819   3.265   0.480
 1005SOL     OW 3149   3.524   1.308   3.588
 1005SOL    HW1 3150   3.540   1.230   3.641
 1005SOL    HW2 3151   3.430   1.305   3.568
 1006SOL     OW 3152   2.282   0.967   3.351
 1006SOL    HW1 3153   2.220   0.936   3.284
 1006SOL    HW2 3154   2.263   1.060   3.359
 1007SOL     OW 3155   2.219   1.658   1.643
 1007SOL    HW1 3156   2.198   1.728   1.581
 1007SOL    HW2 3157   2.238   1.582   1.587
 1008SOL     OW 3158   2.851   3.254   1.744
 1008SOL    HW1 3159   2.831   3.174   1.792
 1008SOL    HW2 3160   2.884   3.224   1.660
 1009SOL     OW 3161   0.962   3.511   3.826
 1009SOL    HW1 3162   0.935   3.602   3.836
 1009SOL    HW2 3163   0.890   3.460   3.862
 1010SOL     OW 3164   1.254   2.645   2.741
 1010SOL    HW1 3165   1.308   2.676   2.669
 1010SOL    HW2 3166   1.188   2.714   2.754
 1011SOL     OW 3167   2.282   3.193   0.177
 1011SOL    HW1 3168   2.349   3.236   0.231
 1011SOL    HW2 3169   2.223   3.263   0.152
 1012SOL     OW 3170   1.026   0.450   0.848
 1012SOL    HW1 3171   1.081   0.378   0.819
 1012SOL    HW2 3172   0.953   0.452   0.785
 1013SOL     OW 3173   0.203   1.064   0.689
 1013SOL    HW1 3174   0.218   1.023   0.774
 1013SOL    HW2 3175   0.286   1.106   0.668
 1014SOL     OW 3176   2.475   3.409   2.739
 1014SOL    HW1 3177   2.484   3.416   2.834
 1014SOL    HW2 3178   2.386   3.375   2.726
 1015SOL     OW 3179   0.654   2.073   3.744
 1015SOL    HW1 3180   0.572   2.076   3.791
 1015SOL    HW2 3181   0.639   2.125   3.665
 1016SOL     OW 3182   3.852   2.290   2.772
 1016SOL    HW1 3183   3.853   2.371   2.721
 1016SOL    HW2 3184   3.908   2.230   2.723
 1017SOL     OW 3185   0.609   1.740   3.270
 1017SOL    HW1 3186   0.567   1.826   3.278
 1017SOL    HW2 3187   0.604   1.702   3.358
 1018SOL     OW 3188   3.853   0.546   0.693
 1018SOL    HW1 3189   3.945   0.518   0.692
 1018SOL    HW2 3190   3.851   0.620   0.753
 1019SOL     OW 3191   3.481   0.200   3.659
 1019SOL    HW1 3192   3.547   0.233   3.597
 1019SOL    HW2 3193   3.510   0.111   3.679
 1020SOL     OW 3194   1.840   1.049   0.461
 1020SOL    HW1 3195   1.810   1.047   0.552
 1020SOL    HW2 3196   1.929   1.015   0.464
 1021SOL     OW 3197   1.470   0.219   1.901
 1021SOL    HW1 3198   1.527   0.172   1.840
 1021SOL    HW2 3199   1.424   0.150   1.949
 1022SOL     OW 3200   3.121   2.053   0.083
 1022SOL    HW1 3201   3.121   2.145   0.110
 1022SOL    HW2 3202   3.073   2.008   0.152
 1023SOL     OW 3203   1.286   2.109   0.784
 1023SOL    HW1 3204   1.200   2.068   0.791
 1023SOL    HW2 3205   1.268   2.196   0.748
 1024SOL     OW 3206   0.532   2.928   0.244
 1024SOL    HW1 3207   0.513   2.873   0.320
 1024SOL    HW2 3208   0.578   2.870   0.183
 1025SOL     OW 3209   2.178   2.220   1.673
 1025SOL    HW1 3210   2.183   2.124   1.676
 1025SOL    HW2 3211   2.246   2.250   1.733
 1026SOL     OW 3212   0.569   1.308   2.122
 1026SOL    HW1 3213   0.520   1.388   2.143
 1026SOL    HW2 3214   0.513   1.261   2.060
 1027SOL     OW 3215   2.382   3.180   3.135
 1027SOL    HW1 3216   2.288   3.180   3.153
 1027SOL    HW2 3217   2.418   3.114   3.194
 1028SOL     OW 3218   0.219   1.871   3.209
 1028SOL    HW1 3219   0.207   1.882   3.304
 1028SOL    HW2 3220   0.152   1.807   3.184
 1029SOL     OW 3221   0.103   0.274   2.534
 1029SOL    HW1 3222   0.074   0.288   2.444
 1029SOL    HW2 3223   0.170   0.207   2.528
 1030SOL     OW 3224   2.349   3.386   2.021
 1030SOL    HW1 3225   2.375   3.431   2.102
 1030SOL    HW2 3226   2.402   3.306   2.021
 1031SOL     OW 3227   0.451   2.155   3.229
 1031SOL    HW1 3228   0.370   2.145   3.279
 1031SOL    HW2 3229   0.439   2.236   3.179
 1032SOL     OW 3230   3.569   1.177   1.438
 1032SOL    HW1 3231   3.649   1.170   1.490
 1032SOL    HW2 3232   3.588   1.243   1.372
 1033SOL     OW 3233   2.554   3.741   2.920
 1033SOL    HW1 3234   2.554   3.702   3.007
 1033SOL    HW2 3235   2.466   3.777   2.910
 1034SOL     OW 3236   1.735   1.265   0.334
 1034SOL    HW1 3237   1.784   1.212   0.397
 1034SOL    HW2 3238   1.706   1.203   0.267
 1035SOL     OW 3239   1.273   1.288   0.502
 1035SOL    HW1 3240   1.302   1.322   0.418
 1035SOL    HW2 3241   1.267   1.365   0.559
 1036SOL     OW 3242   2.648   3.321   0.649
 1036SOL    HW1 3243   2.680   3.334   0.738
 1036SOL    HW2 3244   2.712   3.367   0.594
 1037SOL     OW 3245   0.476   1.775   3.758
 1037SOL    HW1 3246   0.525   1.829   3.820
 1037SOL    HW2 3247   0.406   1.736   3.809
 1038SOL     OW 3248   1.668   2.616   2.712
 1038SOL    HW1 3249   1.596   2.590   2.769
 1038SOL    HW2 3250   1.724   2.670   2.768
 1039SOL     OW 3251   0.742   0.283   3.105
 1039SOL    HW1 3252   0.759   0.375   3.126
 1039SOL    HW2 3253   0.656   0.284   3.063
 1040SOL     OW 3254   2.231   2.069   2.874
 1040SOL    HW1 3255   2.230   2.013   2.952
 1040SOL    HW2 3256   2.149   2.050   2.830
 1041SOL     OW 3257   0.413   3.379   3.526
 1041SOL    HW1 3258   0.397   3.453   3.466
 1041SOL    HW2 3259   0.398   3.416   3.613
 1042SOL     OW 3260   2.777   3.693   0.442
 1042SOL    HW1 3261   2.787   3.599   0.456
 1042SOL    HW2 3262   2.762   3.701   0.348
 1043SOL     OW 3263   1.315   3.420   3.415
 1043SOL    HW1 3264   1.236   3.385   3.374
 1043SOL    HW2 3265   1.355   3.344   3.457
 1044SOL     OW 3266   0.966   0.259   0.418
 1044SOL    HW1 3267   0.932   0.345   0.441
 1044SOL    HW2 3268   1.041   0.246   0.476
 1045SOL     OW 3269   0.998   2.357   2.113
 1045SOL    HW1 3270   1.009   2.320   2.201
 1045SOL    HW2 3271   1.037   2.293   2.055
 1046SOL     OW 3272   2.981   0.943   0.273
 1046SOL    HW1 3273   2.978   0.974   0.183
 1046SOL    HW2 3274   3.062   0.894   0.280
 1047SOL     OW 3275   2.878   0.425   0.042
 1047SOL    HW1 3276   2.927   0.343   0.045
 1047SOL    HW2 3277   2.921   0.476  -0.026
 1048SOL     OW 3278   2.601   3.397   2.368
 1048SOL    HW1 3279   2.534   3.459   2.396
 1048SOL    HW2 3280   2.557   3.312   2.365
 1049SOL     OW 3281   1.453   3.764   0.102
 1049SOL    HW1 3282   1.394   3.730   0.035
 1049SOL    HW2 3283   1.497   3.838   0.060
 1050SOL     OW 3284   2.906   2.062   3.110
 1050SOL    HW1 3285   2.889   1.969   3.122
 1050SOL    HW2 3286   2.833   2.106   3.154
 1051SOL     OW 3287   0.522   0.921   2.736
 1051SOL    HW1 3288   0.613   0.938   2.761
 1051SOL    HW2 3289   0.487   1.006   2.711
 1052SOL     OW 3290   2.388   2.286   3.331
 1052SOL    HW1 3291   2.364   2.198   3.302
 1052SOL    HW2 3292   2.331   2.304   3.405
 1053SOL     OW 3293   2.868   3.196   2.506
 1053SOL    HW1 3294   2.818   3.261   2.456
 1053SOL    HW2 3295   2.819   3.186   2.588
 1054SOL     OW 3296   1.217   2.767   0.052
 1054SOL    HW1 3297   1.126   2.776   0.078
 1054SOL    HW2 3298   1.246   2.687   0.095
 1055SOL     OW 3299   0.577   3.476   0.230
 1055SOL    HW1 3300   0.546   3.409   0.291
 1055SOL    HW2 3301   0.577   3.557   0.280
 1056SOL     OW 3302   1.533   1.229   2.861
 1056SOL    HW1 3303   1.510   1.177   2.784
 1056SOL    HW2 3304   1.621   1.200   2.885
 1057SOL     OW 3305   0.071   1.369   1.153
 1057SOL    HW1 3306   0.143   1.306   1.151
 1057SOL    HW2 3307  -0.001   1.325   1.108
 1058SOL     OW 3308   2.439   0.588   1.450
 1058SOL    HW1 3309   2.477   0.660   1.501
 1058SOL    HW2 3310   2.397   0.532   1.514
 1059SOL     OW 3311   3.528   0.785   2.144
 1059SOL    HW1 3312   3.455   0.800   2.084
 1059SOL    HW2 3313   3.489   0.736   2.217
 1060SOL     OW 3314   0.510   2.006   3.009
 1060SOL    HW1 3315   0.578   1.941   3.022
 1060SOL    HW2 3316   0.494   2.043   3.096
 1061SOL     OW 3317   3.847   1.696   2.684
 1061SOL    HW1 3318   3.877   1.762   2.746
 1061SOL    HW2 3319   3.762   1.668   2.719
 1062SOL     OW 3320   3.321   2.252   3.287
 1062SOL    HW1 3321   3.267   2.276   3.362
 1062SOL    HW2 3322   3.260   2.242   3.214
 1063SOL     OW 3323   1.323   0.479   1.218
 1063SOL    HW1 3324   1.337   0.494   1.312
 1063SOL    HW2 3325   1.406   0.504   1.177
 1064SOL     OW 3326   2.571   0.858   3.338
 1064SOL    HW1 3327   2.599   0.768   3.320
 1064SOL    HW2 3328   2.481   0.850   3.369
 1065SOL     OW 3329   3.390   0.299   1.088
 1065SOL    HW1 3330   3.430   0.386   1.096
 1065SOL    HW2 3331   3.360   0.295   0.997
 1066SOL     OW 3332   3.823   3.392   0.603
 1066SOL    HW1 3333   3.821   3.475   0.555
 1066SOL    HW2 3334   3.827   3.418   0.695
 1067SOL     OW 3335   3.405   0.077   1.922
 1067SOL    HW1 3336   3.459   0.127   1.861
 1067SOL    HW2 3337   3.421   0.118   2.007
 1068SOL     OW 3338   0.274   1.402   0.380
 1068SOL    HW1 3339   0.329   1.371   0.307
 1068SOL    HW2 3340   0.189   1.361   0.365
 1069SOL     OW 3341   3.158   1.373   2.634
 1069SOL    HW1 3342   3.101   1.398   2.561
 1069SOL    HW2 3343   3.151   1.278   2.640
 1070SOL     OW 3344   2.624   3.047   0.603
 1070SOL    HW1 3345   2.606   3.138   0.628
 1070SOL    HW2 3346   2.712   3.050   0.565
 1071SOL     OW 3347   3.272   1.315   0.903
 1071SOL    HW1 3348   3.306   1.317   0.992
 1071SOL    HW2 3349   3.179   1.293   0.914
 1072SOL     OW 3350   1.234   1.132   0.234
 1072SOL    HW1 3351   1.294   1.155   0.305
 1072SOL    HW2 3352   1.243   1.038   0.224
 1073SOL     OW 3353   3.241   1.827   2.422
 1073SOL    HW1 3354   3.157   1.787   2.445
 1073SOL    HW2 3355   3.306   1.759   2.441
 1074SOL     OW 3356   1.933   1.840   3.743
 1074SOL    HW1 3357   1.871   1.783   3.698
 1074SOL    HW2 3358   1.884   1.920   3.761
 1075SOL     OW 3359   3.772   1.174   2.989
 1075SOL    HW1 3360   3.791   1.250   3.044
 1075SOL    HW2 3361   3.845   1.170   2.928
 1076SOL     OW 3362   0.126   1.209   3.505
 1076SOL    HW1 3363   0.161   1.296   3.487
 1076SOL    HW2 3364   0.032   1.216   3.489
 1077SOL     OW 3365   2.005   1.682   0.054
 1077SOL    HW1 3366   2.042   1.646   0.135
 1077SOL    HW2 3367   1.989   1.604  -0.000
 1078SOL     OW 3368   2.228   3.673   2.068
 1078SOL    HW1 3369   2.173   3.752   2.066
 1078SOL    HW2 3370   2.273   3.674   1.983
 1079SOL     OW 3371   2.051   2.808   3.462
 1079SOL    HW1 3372   2.062   2.899   3.436
 1079SOL    HW2 3373   2.065   2.808   3.556
 1080SOL     OW 3374   1.312   0.852   0.161
 1080SOL    HW1 3375   1.391   0.804   0.190
 1080SOL    HW2 3376   1.265   0.789   0.107
 1081SOL     OW 3377   1.953   1.025   0.101
 1081SOL    HW1 3378   1.967   1.094   0.166
 1081SOL    HW2 3379   1.932   1.071   0.020
 1082SOL     OW 3380   0.417   2.972   1.680
 1082SOL    HW1 3381   0.348   2.911   1.707
 1082SOL    HW2 3382   0.372   3.056   1.675
 1083SOL     OW 3383   2.831   2.070   0.671
 1083SOL    HW1 3384   2.906   2.126   0.691
 1083SOL    HW2 3385   2.797   2.044   0.756
 1084SOL     OW 3386   0.720   2.776   2.223
 1084SOL    HW1 3387   0.637   2.733   2.245
 1084SOL    HW2 3388   0.699   2.829   2.146
 1085SOL     OW 3389   0.108   2.730   0.924
 1085SOL    HW1 3390   0.076   2.675   0.853
 1085SOL    HW2 3391   0.202   2.740   0.907
 1086SOL     OW 3392   3.313   0.417   0.226
 1086SOL    HW1 3393   3.230   0.382   0.256
 1086SOL    HW2 3394   3.331   0.370   0.144
 1087SOL     OW 3395   0.810   3.170   2.222
 1087SOL    HW1 3396   0.857   3.125   2.293
 1087SOL    HW2 3397   0.871   3.238   2.194
 1088SOL     OW 3398   3.336   2.894   2.089
 1088SOL    HW1 3399   3.340   2.938   2.173
 1088SOL    HW2 3400   3.336   2.965   2.025
 1089SOL     OW 3401   2.035   1.883   0.277
 1089SOL    HW1 3402   2.069   1.804   0.320
 1089SOL    HW2 3403   2.067   1.877   0.187
 1090SOL     OW 3404   3.058   1.590   3.894
 1090SOL    HW1 3405   3.128   1.524   3.893
 1090SOL    HW2 3406   3.103   1.672   3.915
 1091SOL     OW 3407   0.146   0.482   0.828
 1091SOL    HW1 3408   0.174   0.400   0.870
 1091SOL    HW2 3409   0.184   0.478   0.740
 1092SOL     OW 3410   2.104   0.328   1.201
 1092SOL    HW1 3411   2.037   0.353   1.264
 1092SOL    HW2 3412   2.121   0.409   1.151
 1093SOL     OW 3413   3.209   2.271   3.555
 1093SOL    HW1 3414   3.192   2.358   3.593
 1093SOL    HW2 3415   3.159   2.211   3.609
 1094SOL     OW 3416   3.374   3.005   2.318
 1094SOL    HW1 3417   3.311   3.015   2.390
 1094SOL    HW2 3418   3.450   3.057   2.345
 1095SOL     OW 3419   0.287   0.004   1.449
 1095SOL    HW1 3420   0.357  -0.051   1.483
 1095SOL    HW2 3421   0.261   0.059   1.523
 1096SOL     OW 3422   1.006   1.487   3.965
 1096SOL    HW1 3423   1.089   1.527   3.991
 1096SOL    HW2 3424   1.028   1.427   3.894
 1097SOL     OW 3425   0.811   2.648   0.399
 1097SOL    HW1 3426   0.784   2.574   0.345
 1097SOL    HW2 3427   0.852   2.709   0.338
 1098SOL     OW 3428   1.841   3.677   0.151
 1098SOL    HW1 3429   1.789   3.639   0.080
 1098SOL    HW2 3430   1.862   3.603   0.208
 1099SOL     OW 3431   3.639   1.652   0.382
 1099SOL    HW1 3432   3.588   1.721   0.425
 1099SOL    HW2 3433   3.669   1.597   0.454
 1100SOL     OW 3434   1.819   2.268   2.934
 1100SOL    HW1 3435   1.863   2.210   2.872
 1100SOL    HW2 3436   1.887   2.290   2.999
 1101SOL     OW 3437   3.809   1.343   2.557
 1101SOL    HW1 3438   3.864   1.265   2.563
 1101SOL    HW2 3439   3.732   1.322   2.610
 1102SOL     OW 3440   3.252   0.441   1.940
 1102SOL    HW1 3441   3.331   0.466   1.987
 1102SOL    HW2 3442   3.250   0.499   1.864
 1103SOL     OW 3443   0.405   3.355   0.426
 1103SOL    HW1 3444   0.319   3.330   0.458
 1103SOL    HW2 3445   0.461   3.279   0.444
 1104SOL     OW 3446   3.587   1.261   2.709
 1104SOL    HW1 3447   3.516   1.325   2.715
 1104SOL    HW2 3448   3.613   1.246   2.800
 1105SOL     OW 3449   0.733   0.428   3.464
 1105SOL    HW1 3450   0.681   0.354   3.432
 1105SOL    HW2 3451   0.797   0.388   3.523
 1106SOL     OW 3452   1.956   0.504   3.231
 1106SOL    HW1 3453   1.879   0.555   3.206
 1106SOL    HW2 3454   2.007   0.562   3.287
 1107SOL     OW 3455   0.877   0.308   2.690
 1107SOL    HW1 3456   0.910   0.283   2.777
 1107SOL    HW2 3457   0.866   0.403   2.695
 1108SOL     OW 3458   2.924   2.649   2.039
 1108SOL    HW1 3459   2.844   2.701   2.047
 1108SOL    HW2 3460   2.987   2.693   2.096
 1109SOL     OW 3461   0.566   3.930   1.320
 1109SOL    HW1 3462   0.564   4.026   1.314
 1109SOL    HW2 3463   0.569   3.912   1.414
 1110SOL     OW 3464   3.840   0.746   1.253
 1110SOL    HW1 3465   3.914   0.784   1.301
 1110SOL    HW2 3466   3.880   0.698   1.181
 1111SOL     OW 3467   1.673   3.405   1.262
 1111SOL    HW1 3468   1.612   3.336   1.291
 1111SOL    HW2 3469   1.729   3.420   1.338
 1112SOL     OW 3470   2.853   0.607   1.400
 1112SOL    HW1 3471   2.862   0.646   1.487
 1112SOL    HW2 3472   2.770   0.560   1.404
 1113SOL     OW 3473   1.407   1.467   2.937
 1113SOL    HW1 3474   1.445   1.549   2.906
 1113SOL    HW2 3475   1.453   1.399   2.887
 1114SOL     OW 3476   2.944   3.479   3.717
 1114SOL    HW1 3477   2.946   3.438   3.631
 1114SOL    HW2 3478   2.956   3.407   3.778
 1115SOL     OW 3479   0.508   2.757   1.511
 1115SOL    HW1 3480   0.460   2.837   1.533
 1115SOL    HW2 3481   0.575   2.786   1.449
 1116SOL     OW 3482   0.757   2.082   1.951
 1116SOL    HW1 3483   0.751   2.029   2.031
 1116SOL    HW2 3484   0.681   2.140   1.955
 1117SOL     OW 3485   1.869   0.894   1.520
 1117SOL    HW1 3486   1.875   0.883   1.425
 1117SOL    HW2 3487   1.933   0.833   1.555
 1118SOL     OW 3488   3.944   0.044   1.221
 1118SOL    HW1 3489   3.953  -0.048   1.198
 1118SOL    HW2 3490   3.852   0.054   1.245
 1119SOL     OW 3491   0.747   0.910   0.588
 1119SOL    HW1 3492   0.686   0.960   0.641
 1119SOL    HW2 3493   0.741   0.820   0.622
 1120SOL     OW 3494   3.722   3.621   1.447
 1120SOL    HW1 3495   3.803   3.672   1.443
 1120SOL    HW2 3496   3.681   3.649   1.529
 1121SOL     OW 3497   3.160   0.170   2.381
 1121SOL    HW1 3498   3.201   0.181   2.466
 1121SOL    HW2 3499   3.202   0.092   2.344
 1122SOL     OW 3500   3.734   2.207   3.221
 1122SOL    HW1 3501   3.687   2.132   3.185
 1122SOL    HW2 3502   3.773   2.250   3.145
 1123SOL     OW 3503   0.833   0.549   1.704
 1123SOL    HW1 3504   0.825   0.523   1.612
 1123SOL    HW2 3505   0.920   0.517   1.730
 1124SOL     OW 3506   3.619   1.008   2.005
 1124SOL    HW1 3507   3.598   0.929   2.054
 1124SOL    HW2 3508   3.533   1.046   1.984
 1125SOL     OW 3509   0.391   0.504   0.355
 1125SOL    HW1 3510   0.430   0.459   0.280
 1125SOL    HW2 3511   0.420   0.595   0.346
 1126SOL     OW 3512   3.621   0.643   1.433
 1126SOL    HW1 3513   3.703   0.627   1.387
 1126SOL    HW2 3514   3.635   0.725   1.480
 1127SOL     OW 3515   3.166   2.400   2.695
 1127SOL    HW1 3516   3.133   2.320   2.736
 1127SOL    HW2 3517   3.256   2.378   2.670
 1128SOL     OW 3518   0.771   2.371   1.797
 1128SOL    HW1 3519   0.736   2.458   1.818
 1128SOL    HW2 3520   0.790   2.332   1.882
 1129SOL     OW 3521   1.145   2.801   0.480
 1129SOL    HW1 3522   1.081   2.761   0.539
 1129SOL    HW2 3523   1.092   2.847   0.415
 1130SOL     OW 3524   1.293   0.179   3.928
 1130SOL    HW1 3525   1.355   0.210   3.994
 1130SOL    HW2 3526   1.300   0.243   3.857
 1131SOL     OW 3527   2.073   0.565   2.616
 1131SOL    HW1 3528   2.041   0.606   2.536
 1131SOL    HW2 3529   1.995   0.526   2.656
 1132SOL     OW 3530   1.950   0.449   3.905
 1132SOL    HW1 3531   2.037   0.462   3.868
 1132SOL    HW2 3532   1.949   0.505   3.983
 1133SOL     OW 3533   1.096   0.610   1.652
 1133SOL    HW1 3534   1.124   0.680   1.711
 1133SOL    HW2 3535   1.022   0.648   1.604
 1134SOL     OW 3536   1.342   3.196   2.608
 1134SOL    HW1 3537   1.361   3.105   2.584
 1134SOL    HW2 3538   1.290   3.189   2.688
 1135SOL     OW 3539   3.860   3.671   0.160
 1135SOL    HW1 3540   3.899   3.751   0.196
 1135SOL    HW2 3541   3.792   3.701   0.101
 1136SOL     OW 3542   2.807   0.270   1.753
 1136SOL    HW1 3543   2.739   0.256   1.687
 1136SOL    HW2 3544   2.869   0.198   1.738
 1137SOL     OW 3545   2.546   2.418   2.172
 1137SOL    HW1 3546   2.577   2.387   2.257
 1137SOL    HW2 3547   2.622   2.463   2.135
 1138SOL     OW 3548   1.653   0.915   0.093
 1138SOL    HW1 3549   1.705   0.958   0.024
 1138SOL    HW2 3550   1.596   0.855   0.046
 1139SOL     OW 3551   2.852   1.081   2.537
 1139SOL    HW1 3552   2.885   1.081   2.447
 1139SOL    HW2 3553   2.931   1.086   2.591
 1140SOL     OW 3554   0.486   1.358   2.487
 1140SOL    HW1 3555   0.548   1.303   2.439
 1140SOL    HW2 3556   0.445   1.412   2.419
 1141SOL     OW 3557   1.854   2.334   0.712
 1141SOL    HW1 3558   1.920   2.342   0.644
 1141SOL    HW2 3559   1.781   2.388   0.682
 1142SOL     OW 3560   0.702   3.098   1.278
 1142SOL    HW1 3561   0.691   3.108   1.184
 1142SOL    HW2 3562   0.794   3.118   1.294
 1143SOL     OW 3563   0.382   2.512   0.567
 1143SOL    HW1 3564   0.385   2.506   0.472
 1143SOL    HW2 3565   0.397   2.422   0.598
 1144SOL     OW 3566   3.840   0.704   2.590
 1144SOL    HW1 3567   3.928   0.688   2.624
 1144SOL    HW2 3568   3.815   0.622   2.548
 1145SOL     OW 3569   1.517   2.854   2.129
 1145SOL    HW1 3570   1.431   2.854   2.088
 1145SOL    HW2 3571   1.578   2.831   2.059
 1146SOL     OW 3572   1.711   0.369   1.660
 1146SOL    HW1 3573   1.766   0.297   1.628
 1146SOL    HW2 3574   1.686   0.416   1.581
 1147SOL     OW 3575   1.217   1.419   1.037
 1147SOL    HW1 3576   1.205   1.488   0.972
 1147SOL    HW2 3577   1.197   1.461   1.120
 1148SOL     OW 3578   2.575   1.553   1.350
 1148SOL    HW1 3579   2.573   1.500   1.271
 1148SOL    HW2 3580   2.665   1.548   1.381
 1149SOL     OW 3581   2.327   3.738   1.792
 1149SOL    HW1 3582   2.372   3.721   1.709
 1149SOL    HW2 3583   2.319   3.834   1.795
 1150SOL     OW 3584   0.047   1.246   0.383
 1150SOL    HW1 3585  -0.034   1.196   0.392
 1150SOL    HW2 3586   0.092   1.206   0.309
 1151SOL     OW 3587   1.612   2.139   1.399
 1151SOL    HW1 3588   1.524   2.111   1.375
 1151SOL    HW2 3589   1.612   2.234   1.384
 1152SOL     OW 3590   0.040   3.901   3.296
 1152SOL    HW1 3591   0.091   3.982   3.292
 1152SOL    HW2 3592  -0.026   3.918   3.362
 1153SOL     OW 3593   3.091   1.082   2.678
 1153SOL    HW1 3594   3.051   1.013   2.731
 1153SOL    HW2 3595   3.169   1.042   2.640
 1154SOL     OW 3596   1.549   0.315  -0.015
 1154SOL    HW1 3597   1.562   0.334   0.078
 1154SOL    HW2 3598   1.627   0.350  -0.058
 1155SOL     OW 3599   3.272   3.091   3.934
 1155SOL    HW1 3600   3.216   3.014   3.933
 1155SOL    HW2 3601   3.358   3.059   3.905
 1156SOL     OW 3602   3.268   0.308   3.781
 1156SOL    HW1 3603   3.324   0.316   3.858
 1156SOL    HW2 3604   3.328   0.283   3.711
 1157SOL     OW 3605   0.914   1.808   1.203
 1157SOL    HW1 3606   0.991   1.861   1.185
 1157SOL    HW2 3607   0.913   1.800   1.299
 1158SOL     OW 3608   0.859   3.148   0.290
 1158SOL    HW1 3609   0.846   3.201   0.211
 1158SOL    HW2 3610   0.829   3.204   0.362
 1159SOL     OW 3611   0.415   1.538   1.945
 1159SOL    HW1 3612   0.330   1.496   1.930
 1159SOL    HW2 3613   0.395   1.614   2.000
 1160SOL     OW 3614   2.137   1.854   0.851
 1160SOL    HW1 3615   2.127   1.861   0.946
 1160SOL    HW2 3616   2.127   1.944   0.820
 1161SOL     OW 3617   3.150   0.894   1.069
 1161SOL    HW1 3618   3.245   0.883   1.064
 1161SOL    HW2 3619   3.121   0.822   1.125
 1162SOL     OW 3620   3.824   3.143   3.755
 1162SOL    HW1 3621   3.864   3.215   3.706
 1162SOL    HW2 3622   3.828   3.068   3.695
 1163SOL     OW 3623   1.958   2.639   1.206
 1163SOL    HW1 3624   1.897   2.588   1.259
 1163SOL    HW2 3625   1.993   2.705   1.267
 1164SOL     OW 3626   3.759   0.737   2.280
 1164SOL    HW1 3627   3.818   0.672   2.242
 1164SOL    HW2 3628   3.685   0.740   2.219
 1165SOL     OW 3629   2.647   3.158   0.197
 1165SOL    HW1 3630   2.580   3.208   0.245
 1165SOL    HW2 3631   2.615   3.157   0.107
 1166SOL     OW 3632   2.639   2.002   0.994
 1166SOL    HW1 3633   2.633   2.097   0.982
 1166SOL    HW2 3634   2.733   1.983   0.994
 1167SOL     OW 3635   0.937   2.730   3.769
 1167SOL    HW1 3636   0.958   2.710   3.678
 1167SOL    HW2 3637   1.014   2.776   3.802
 1168SOL     OW 3638   1.912   2.263   1.735
 1168SOL    HW1 3639   1.884   2.188   1.788
 1168SOL    HW2 3640   2.007   2.250   1.724
 1169SOL     OW 3641   3.431   2.865   1.687
 1169SOL    HW1 3642   3.468   2.786   1.725
 1169SOL    HW2 3643   3.424   2.846   1.593
 1170SOL     OW 3644   1.310   0.382   2.460
 1170SOL    HW1 3645   1.386   0.439   2.470
 1170SOL    HW2 3646   1.260   0.422   2.388
 1171SOL     OW 3647   3.394   1.964   3.324
 1171SOL    HW1 3648   3.408   2.057   3.342
 1171SOL    HW2 3649   3.299   1.953   3.325
 1172SOL     OW 3650   2.840   3.758   2.534
 1172SOL    HW1 3651   2.773   3.711   2.585
 1172SOL    HW2 3652   2.794   3.834   2.498
 1173SOL     OW 3653   0.446   3.765   2.346
 1173SOL    HW1 3654   0.406   3.697   2.399
 1173SOL    HW2 3655   0.534   3.732   2.327
 1174SOL     OW 3656   2.420   2.024   1.900
 1174SOL    HW1 3657   2.400   2.117   1.886
 1174SOL    HW2 3658   2.388   2.006   1.989
 1175SOL     OW 3659   3.518   2.016   1.861
 1175SOL    HW1 3660   3.423   2.017   1.866
 1175SOL    HW2 3661   3.541   1.926   1.841
 1176SOL     OW 3662   3.953   2.717   3.732
 1176SOL    HW1 3663   3.878   2.759   3.689
 1176SOL    HW2 3664   4.022   2.718   3.666
 1177SOL     OW 3665   0.379   2.563   2.619
 1177SOL    HW1 3666   0.385   2.470   2.599
 1177SOL    HW2 3667   0.285   2.583   2.615
 1178SOL     OW 3668   0.852   3.464   2.659
 1178SOL    HW1 3669   0.800   3.536   2.694
 1178SOL    HW2 3670   0.809   3.385   2.692
 1179SOL     OW 3671   3.744   1.006   0.024
 1179SOL    HW1 3672   3.776   0.953   0.097
 1179SOL    HW2 3673   3.742   0.947  -0.051
 1180SOL     OW 3674   3.471   0.983  -0.005
 1180SOL    HW1 3675   3.562   1.000   0.018
 1180SOL    HW2 3676   3.428   1.069  -0.002
 1181SOL     OW 3677   1.297   1.771   1.174
 1181SOL    HW1 3678   1.346   1.796   1.095
 1181SOL    HW2 3679   1.206   1.790   1.152
 1182SOL     OW 3680   3.329   0.456   0.736
 1182SOL    HW1 3681   3.375   0.539   0.725
 1182SOL    HW2 3682   3.352   0.405   0.658
 1183SOL     OW 3683   3.459   0.354   1.381
 1183SOL    HW1 3684   3.494   0.365   1.469
 1183SOL    HW2 3685   3.536   0.355   1.324
 1184SOL     OW 3686   1.532   0.457   0.642
 1184SOL    HW1 3687   1.613   0.500   0.671
 1184SOL    HW2 3688   1.475   0.459   0.719
 1185SOL     OW 3689   0.565   0.653   3.553
 1185SOL    HW1 3690   0.588   0.577   3.500
 1185SOL    HW2 3691   0.534   0.718   3.491
 1186SOL     OW 3692   2.625   0.196   0.484
 1186SOL    HW1 3693   2.654   0.283   0.512
 1186SOL    HW2 3694   2.603   0.151   0.566
 1187SOL     OW 3695   0.597   3.609   1.032
 1187SOL    HW1 3696   0.566   3.695   1.060
 1187SOL    HW2 3697   0.518   3.554   1.032
 1188SOL     OW 3698   3.106   2.432   3.194
 1188SOL    HW1 3699   3.176   2.490   3.164
 1188SOL    HW2 3700   3.040   2.438   3.125
 1189SOL     OW 3701   2.896   2.117   2.845
 1189SOL    HW1 3702   2.922   2.080   2.930
 1189SOL    HW2 3703   2.870   2.207   2.865
 1190SOL     OW 3704   3.595   3.599   0.828
 1190SOL    HW1 3705   3.583   3.656   0.752
 1190SOL    HW2 3706   3.521   3.538   0.825
 1191SOL     OW 3707   3.132   0.946   3.979
 1191SOL    HW1 3708   3.184   0.887   3.924
 1191SOL    HW2 3709   3.042   0.927   3.954
 1192SOL     OW 3710   2.138   3.928   3.314
 1192SOL    HW1 3711   2.174   4.010   3.280
 1192SOL    HW2 3712   2.044   3.942   3.315
 1193SOL     OW 3713   1.263   3.151   3.293
 1193SOL    HW1 3714   1.172   3.175   3.279
 1193SOL    HW2 3715   1.284   3.093   3.220
 1194SOL     OW 3716   1.744   3.048   1.823
 1194SOL    HW1 3717   1.751   3.100   1.743
 1194SOL    HW2 3718   1.651   3.028   1.832
 1195SOL     OW 3719   3.707   2.206   0.444
 1195SOL    HW1 3720   3.728   2.113   0.449
 1195SOL    HW2 3721   3.616   2.212   0.473
 1196SOL     OW 3722   3.667   2.649   2.361
 1196SOL    HW1 3723   3.614   2.663   2.282
 1196SOL    HW2 3724   3.603   2.638   2.431
 1197SOL     OW 3725   3.477   0.578   3.309
 1197SOL    HW1 3726   3.494   0.665   3.272
 1197SOL    HW2 3727   3.463   0.595   3.402
 1198SOL     OW 3728   2.380   2.324   0.120
 1198SOL    HW1 3729   2.444   2.315   0.049
 1198SOL    HW2 3730   2.380   2.417   0.141
 1199SOL     OW 3731   1.663   0.141   2.744
 1199SOL    HW1 3732   1.686   0.109   2.656
 1199SOL    HW2 3733   1.748   0.153   2.787
 1200SOL     OW 3734   0.038   1.839   2.887
 1200SOL    HW1 3735   0.107   1.798   2.835
 1200SOL    HW2 3736   0.083   1.907   2.937
 1201SOL     OW 3737   2.283   3.470   3.540
 1201SOL    HW1 3738   2.377   3.489   3.537
 1201SOL    HW2 3739   2.250   3.522   3.613
 1202SOL     OW 3740   0.084   0.907   3.882
 1202SOL    HW1 3741   0.091   0.994   3.842
 1202SOL    HW2 3742   0.174   0.875   3.884
 1203SOL     OW 3743   3.312   1.043   0.335
 1203SOL    HW1 3744   3.332   0.972   0.396
 1203SOL    HW2 3745   3.263   1.001   0.264
 1204SOL     OW 3746   3.277   2.690   2.535
 1204SOL    HW1 3747   3.333   2.635   2.590
 1204SOL    HW2 3748   3.198   2.638   2.523
 1205SOL     OW 3749   0.930   0.921   1.091
 1205SOL    HW1 3750   0.916   1.011   1.060
 1205SOL    HW2 3751   0.850   0.875   1.065
 1206SOL     OW 3752   2.114   2.972   2.475
 1206SOL    HW1 3753   2.036   2.936   2.517
 1206SOL    HW2 3754   2.175   2.988   2.548
 1207SOL     OW 3755   3.729   3.055   2.123
 1207SOL    HW1 3756   3.684   2.971   2.120
 1207SOL    HW2 3757   3.674   3.114   2.072
 1208SOL     OW 3758   2.663   2.308   3.621
 1208SOL    HW1 3759   2.644   2.370   3.550
 1208SOL    HW2 3760   2.742   2.343   3.662
 1209SOL     OW 3761   0.937   0.757   0.834
 1209SOL    HW1 3762   0.884   0.794   0.905
 1209SOL    HW2 3763   0.993   0.830   0.806
 1210SOL     OW 3764   3.613   2.766   2.050
 1210SOL    HW1 3765   3.537   2.823   2.042
 1210SOL    HW2 3766   3.579   2.678   2.039
 1211SOL     OW 3767   2.801   3.713   3.662
 1211SOL    HW1 3768   2.852   3.638   3.694
 1211SOL    HW2 3769   2.809   3.778   3.732
 1212SOL     OW 3770   0.038   0.314   1.186
 1212SOL    HW1 3771  -0.000   0.227   1.173
 1212SOL    HW2 3772   0.127   0.297   1.217
 1213SOL     OW 3773   2.965   3.921   3.395
 1213SOL    HW1 3774   2.913   3.906   3.474
 1213SOL    HW2 3775   2.901   3.948   3.329
 1214SOL     OW 3776   1.950   3.166   0.552
 1214SOL    HW1 3777   1.874   3.152   0.495
 1214SOL    HW2 3778   1.994   3.081   0.554
 1215SOL     OW 3779   2.160   2.895   3.093
 1215SOL    HW1 3780   2.114   2.921   3.013
 1215SOL    HW2 3781   2.161   2.975   3.147
 1216SOL     OW 3782   3.454   3.081   3.719
 1216SOL    HW1 3783   3.518   3.105   3.652
 1216SOL    HW2 3784   3.481   2.994   3.747
 1217SOL     OW 3785   2.958   2.347   0.100
 1217SOL    HW1 3786   2.977   2.387   0.184
 1217SOL    HW2 3787   2.877   2.297   0.114
 1218SOL     OW 3788   1.615   0.113   3.331
 1218SOL    HW1 3789   1.549   0.164   3.285
 1218SOL    HW2 3790   1.698   0.155   3.310
 1219SOL     OW 3791   0.783   0.606   0.670
 1219SOL    HW1 3792   0.845   0.640   0.734
 1219SOL    HW2 3793   0.831   0.607   0.587
 1220SOL     OW 3794   3.186   2.159   1.846
 1220SOL    HW1 3795   3.188   2.116   1.931
 1220SOL    HW2 3796   3.148   2.245   1.864
 1221SOL     OW 3797   2.970   3.068   3.399
 1221SOL    HW1 3798   2.895   3.022   3.438
 1221SOL    HW2 3799   3.027   2.997   3.367
 1222SOL     OW 3800   3.166   2.736   2.900
 1222SOL    HW1 3801   3.130   2.814   2.858
 1222SOL    HW2 3802   3.235   2.707   2.840
 1223SOL     OW 3803   1.685   3.596   3.890
 1223SOL    HW1 3804   1.710   3.643   3.811
 1223SOL    HW2 3805   1.642   3.516   3.858
 1224SOL     OW 3806   0.614   2.379   3.943
 1224SOL    HW1 3807   0.531   2.405   3.902
 1224SOL    HW2 3808   0.680   2.396   3.875
 1225SOL     OW 3809   2.935   3.476   0.303
 1225SOL    HW1 3810   3.009   3.532   0.279
 1225SOL    HW2 3811   2.862   3.509   0.250
 1226SOL     OW 3812   0.338   1.938   1.523
 1226SOL    HW1 3813   0.425   1.958   1.488
 1226SOL    HW2 3814   0.319   2.012   1.580
 1227SOL     OW 3815   3.776   1.854   3.875
 1227SOL    HW1 3816   3.738   1.803   3.947
 1227SOL    HW2 3817   3.723   1.832   3.799
 1228SOL     OW 3818   0.192   0.239   2.230
 1228SOL    HW1 3819   0.108   0.196   2.247
 1228SOL    HW2 3820   0.212   0.216   2.139
 1229SOL     OW 3821   0.231   0.358   2.983
 1229SOL    HW1 3822   0.293   0.392   2.918
 1229SOL    HW2 3823   0.171   0.303   2.932
 1230SOL     OW 3824   1.748   2.581   0.039
 1230SOL    HW1 3825   1.661   2.614   0.057
 1230SOL    HW2 3826   1.736   2.488   0.020
 1231SOL     OW 3827   0.355   3.736   1.802
 1231SOL    HW1 3828   0.378   3.828   1.816
 1231SOL    HW2 3829   0.405   3.689   1.868
 1232SOL     OW 3830   0.272   0.964   1.398
 1232SOL    HW1 3831   0.291   1.025   1.327
 1232SOL    HW2 3832   0.261   1.019   1.476
 1233SOL     OW 3833   1.634   0.739   0.723
 1233SOL    HW1 3834   1.705   0.700   0.671
 1233SOL    HW2 3835   1.600   0.809   0.667
 1234SOL     OW 3836   0.884   3.731   1.354
 1234SOL    HW1 3837   0.923   3.764   1.274
 1234SOL    HW2 3838   0.838   3.651   1.328
 1235SOL     OW 3839   1.877   2.322   2.193
 1235SOL    HW1 3840   1.907   2.231   2.188
 1235SOL    HW2 3841   1.941   2.365   2.250
 1236SOL     OW 3842   2.100   1.329   1.198
 1236SOL    HW1 3843   2.036   1.400   1.204
 1236SOL    HW2 3844   2.175   1.360   1.250
 1237SOL     OW 3845   1.918   1.460   0.877
 1237SOL    HW1 3846   1.898   1.554   0.879
 1237SOL    HW2 3847   2.009   1.455   0.849
 1238SOL     OW 3848   3.712   0.083   3.025
 1238SOL    HW1 3849   3.651   0.129   3.082
 1238SOL    HW2 3850   3.796   0.087   3.071
 1239SOL     OW 3851   1.494   2.425   1.616
 1239SOL    HW1 3852   1.580   2.440   1.656
 1239SOL    HW2 3853   1.511   2.426   1.522
 1240SOL     OW 3854   0.322   0.622   2.477
 1240SOL    HW1 3855   0.331   0.689   2.409
 1240SOL    HW2 3856   0.348   0.541   2.435
 1241SOL     OW 3857   0.509   0.567   3.268
 1241SOL    HW1 3858   0.526   0.473   3.264
 1241SOL    HW2 3859   0.566   0.605   3.200
 1242SOL     OW 3860   3.535   1.058   0.779
 1242SOL    HW1 3861   3.487   0.982   0.748
 1242SOL    HW2 3862   3.521   1.058   0.874
 1243SOL     OW 3863   2.155   1.888   2.317
 1243SOL    HW1 3864   2.133   1.933   2.399
 1243SOL    HW2 3865   2.075   1.843   2.292
 1244SOL     OW 3866   2.380   2.636   2.126
 1244SOL    HW1 3867   2.356   2.679   2.208
 1244SOL    HW2 3868   2.403   2.547   2.151
 1245SOL     OW 3869   2.639   1.877   1.832
 1245SOL    HW1 3870   2.568   1.942   1.841
 1245SOL    HW2 3871   2.595   1.799   1.798
 1246SOL     OW 3872   2.194   1.808   1.159
 1246SOL    HW1 3873   2.211   1.898   1.186
 1246SOL    HW2 3874   2.276   1.779   1.119
 1247SOL     OW 3875   3.431   0.055   0.796
 1247SOL    HW1 3876   3.488   0.074   0.721
 1247SOL    HW2 3877   3.492   0.043   0.869
 1248SOL     OW 3878   2.373   3.293   0.741
 1248SOL    HW1 3879   2.349   3.374   0.786
 1248SOL    HW2 3880   2.460   3.310   0.706
 1249SOL     OW 3881   3.963   3.583   3.055
 1249SOL    HW1 3882   3.890   3.639   3.081
 1249SOL    HW2 3883   4.019   3.639   3.002
 1250SOL     OW 3884   3.544   3.036   0.249
 1250SOL    HW1 3885   3.612   3.009   0.188
 1250SOL    HW2 3886   3.558   2.981   0.326
 1251SOL     OW 3887   3.559   1.123   1.076
 1251SOL    HW1 3888   3.522   1.192   1.131
 1251SOL    HW2 3889   3.650   1.117   1.105
 1252SOL     OW 3890   3.557   2.570   0.734
 1252SOL    HW1 3891   3.506   2.489   0.742
 1252SOL    HW2 3892   3.569   2.581   0.640
 1253SOL     OW 3893   0.430   1.785   2.420
 1253SOL    HW1 3894   0.363   1.848   2.395
 1253SOL    HW2 3895   0.450   1.806   2.511
 1254SOL     OW 3896   1.055   0.302   2.932
 1254SOL    HW1 3897   1.088   0.214   2.947
 1254SOL    HW2 3898   1.079   0.350   3.011
 1255SOL     OW 3899   3.604   1.507   1.029
 1255SOL    HW1 3900   3.512   1.522   1.052
 1255SOL    HW2 3901   3.646   1.592   1.038
 1256SOL     OW 3902   3.935   0.137   3.912
 1256SOL    HW1 3903   3.883   0.191   3.852
 1256SOL    HW2 3904   3.873   0.108   3.979
 1257SOL     OW 3905   0.061   1.222   3.185
 1257SOL    HW1 3906   0.094   1.312   3.192
 1257SOL    HW2 3907   0.139   1.169   3.171
 1258SOL     OW 3908   1.609   3.199   1.528
 1258SOL    HW1 3909   1.611   3.289   1.562
 1258SOL    HW2 3910   1.546   3.203   1.456
 1259SOL     OW 3911   1.340   2.159   1.330
 1259SOL    HW1 3912   1.284   2.236   1.340
 1259SOL    HW2 3913   1.363   2.158   1.237
 1260SOL     OW 3914   3.944   2.018   1.161
 1260SOL    HW1 3915   4.019   2.066   1.197
 1260SOL    HW2 3916   3.913   1.964   1.233
 1261SOL     OW 3917   1.698   3.718   0.422
 1261SOL    HW1 3918   1.628   3.783   0.431
 1261SOL    HW2 3919   1.670   3.661   0.351
 1262SOL     OW 3920   0.939   0.738   2.228
 1262SOL    HW1 3921   0.943   0.831   2.206
 1262SOL    HW2 3922   0.888   0.735   2.309
 1263SOL     OW 3923   1.040   3.108   3.825
 1263SOL    HW1 3924   1.068   3.173   3.760
 1263SOL    HW2 3925   1.065   3.146   3.909
 1264SOL     OW 3926   2.804   2.540   0.966
 1264SOL    HW1 3927   2.847   2.607   1.020
 1264SOL    HW2 3928   2.848   2.546   0.881
 1265SOL     OW 3929   1.425   0.447   3.687
 1265SOL    HW1 3930   1.366   0.513   3.651
 1265SOL    HW2 3931   1.406   0.446   3.781
 1266SOL     OW 3932   1.846   2.022   0.722
 1266SOL    HW1 3933   1.789   2.013   0.646
 1266SOL    HW2 3934   1.907   2.091   0.698
 1267SOL     OW 3935   3.478   2.228   3.634
 1267SOL    HW1 3936   3.397   2.258   3.592
 1267SOL    HW2 3937   3.454   2.145   3.674
 1268SOL     OW 3938   1.096   0.849   3.696
 1268SOL    HW1 3939   1.016   0.836   3.645
 1268SOL    HW2 3940   1.134   0.762   3.704
 1269SOL     OW 3941   0.725   3.216   3.035
 1269SOL    HW1 3942   0.667   3.231   3.110
 1269SOL    HW2 3943   0.797   3.277   3.048
 1270SOL     OW 3944   1.683   3.252   3.110
 1270SOL    HW1 3945   1.692   3.190   3.038
 1270SOL    HW2 3946   1.772   3.260   3.145
 1271SOL     OW 3947   1.419   2.732   0.926
 1271SOL    HW1 3948   1.504   2.774   0.936
 1271SOL    HW2 3949   1.439   2.646   0.889
 1272SOL     OW 3950   0.755   1.097   2.764
 1272SOL    HW1 3951   0.790   1.079   2.677
 1272SOL    HW2 3952   0.739   1.191   2.764
 1273SOL     OW 3953   2.182   2.451   2.905
 1273SOL    HW1 3954   2.208   2.451   2.998
 1273SOL    HW2 3955   2.255   2.494   2.860
 1274SOL     OW 3956   0.058   1.697   0.090
 1274SOL    HW1 3957   0.044   1.766   0.155
 1274SOL    HW2 3958  -0.023   1.646   0.092
 1275SOL     OW 3959   2.150   0.257   3.318
 1275SOL    HW1 3960   2.095   0.335   3.322
 1275SOL    HW2 3961   2.153   0.226   3.409
 1276SOL     OW 3962   1.516   1.160   0.090
 1276SOL    HW1 3963   1.548   1.076   0.121
 1276SOL    HW2 3964   1.423   1.145   0.069
 1277SOL     OW 3965   3.623   3.648   3.960
 1277SOL    HW1 3966   3.586   3.575   3.910
 1277SOL    HW2 3967   3.559   3.719   3.950
 1278SOL     OW 3968   1.112   2.917   1.156
 1278SOL    HW1 3969   1.053   2.853   1.196
 1278SOL    HW2 3970   1.145   2.873   1.077
 1279SOL     OW 3971   2.984   1.918   0.262
 1279SOL    HW1 3972   3.023   1.831   0.259
 1279SOL    HW2 3973   2.899   1.905   0.305
 1280SOL     OW 3974   3.464   3.325   3.156
 1280SOL    HW1 3975   3.387   3.326   3.213
 1280SOL    HW2 3976   3.430   3.302   3.070
 1281SOL     OW 3977   1.696   1.304   1.029
 1281SOL    HW1 3978   1.658   1.271   0.948
 1281SOL    HW2 3979   1.781   1.340   1.003
 1282SOL     OW 3980   2.259   0.566   1.023
 1282SOL    HW1 3981   2.303   0.650   1.012
 1282SOL    HW2 3982   2.188   0.568   0.959
 1283SOL     OW 3983   1.117   1.963   1.592
 1283SOL    HW1 3984   1.181   2.029   1.565
 1283SOL    HW2 3985   1.032   2.002   1.572
 1284SOL     OW 3986   3.636   2.044   1.091
 1284SOL    HW1 3987   3.725   2.023   1.117
 1284SOL    HW2 3988   3.641   2.133   1.056
 1285SOL     OW 3989   2.454   1.791   1.051
 1285SOL    HW1 3990   2.477   1.882   1.032
 1285SOL    HW2 3991   2.458   1.748   0.966
 1286SOL     OW 3992   2.321   3.505   2.286
 1286SOL    HW1 3993   2.318   3.557   2.367
 1286SOL    HW2 3994   2.322   3.570   2.216
 1287SOL     OW 3995   0.171   2.510   1.844
 1287SOL    HW1 3996   0.236   2.556   1.897
 1287SOL    HW2 3997   0.221   2.449   1.790
 1288SOL     OW 3998   0.577   3.859   2.862
 1288SOL    HW1 3999   0.487   3.833   2.882
 1288SOL    HW2 4000   0.586   3.845   2.768
 1289SOL     OW 4001   3.692   0.528   3.873
 1289SOL    HW1 4002   3.630   0.586   3.829
 1289SOL    HW2 4003   3.748   0.588   3.923
 1290SOL     OW 4004   0.666  -0.004   0.262
 1290SOL    HW1 4005   0.708   0.049   0.329
 1290SOL    HW2 4006   0.738  -0.036   0.207
 1291SOL     OW 4007   2.181   3.789   0.688
 1291SOL    HW1 4008   2.250   3.850   0.715
 1291SOL    HW2 4009   2.159   3.741   0.768
 1292SOL     OW 4010   2.875   0.297   2.024
 1292SOL    HW1 4011   2.903   0.389   2.026
 1292SOL    HW2 4012   2.854   0.280   1.933
 1293SOL     OW 4013   1.613   1.045   1.516
 1293SOL    HW1 4014   1.683   0.984   1.539
 1293SOL    HW2 4015   1.534   0.990   1.515
 1294SOL     OW 4016   0.150   0.980   2.895
 1294SOL    HW1 4017   0.214   1.030   2.945
 1294SOL    HW2 4018   0.197   0.902   2.868
 1295SOL     OW 4019   0.377   3.578   3.309
 1295SOL    HW1 4020   0.384   3.654   3.252
 1295SOL    HW2 4021   0.289   3.585   3.347
 1296SOL     OW 4022   2.219   1.916   0.058
 1296SOL    HW1 4023   2.146   1.884   0.004
 1296SOL    HW2 4024   2.282   1.844   0.060
 1297SOL     OW 4025   3.803   3.103   3.285
 1297SOL    HW1 4026   3.889   3.135   3.313
 1297SOL    HW2 4027   3.814   3.080   3.193
 1298SOL     OW 4028   2.971   3.892   0.887
 1298SOL    HW1 4029   2.932   3.975   0.916
 1298SOL    HW2 4030   2.934   3.877   0.800
 1299SOL     OW 4031   3.343   1.957   3.651
 1299SOL    HW1 4032   3.382   1.914   3.575
 1299SOL    HW2 4033   3.255   1.981   3.623
 1300SOL     OW 4034   2.571   0.279   2.759
 1300SOL    HW1 4035   2.651   0.249   2.802
 1300SOL    HW2 4036   2.507   0.210   2.776
 1301SOL     OW 4037   1.691   3.753   1.693
 1301SOL    HW1 4038   1.717   3.694   1.765
 1301SOL    HW2 4039   1.722   3.839   1.721
 1302SOL     OW 4040   2.104   0.861   1.163
 1302SOL    HW1 4041   2.150   0.801   1.223
 1302SOL    HW2 4042   2.012   0.856   1.191
 1303SOL     OW 4043   3.039   1.688   3.246
 1303SOL    HW1 4044   2.990   1.606   3.246
 1303SOL    HW2 4045   3.029   1.722   3.335
 1304SOL     OW 4046   0.138   0.120   1.976
 1304SOL    HW1 4047   0.072   0.056   1.951
 1304SOL    HW2 4048   0.220   0.083   1.946
 1305SOL     OW 4049   1.650   1.949   2.731
 1305SOL    HW1 4050   1.604   1.992   2.659
 1305SOL    HW2 4051   1.702   1.881   2.688
 1306SOL     OW 4052   3.210   2.650   0.678
 1306SOL    HW1 4053   3.129   2.659   0.730
 1306SOL    HW2 4054   3.275   2.621   0.742
 1307SOL     OW 4055   1.506   2.631   0.165
 1307SOL    HW1 4056   1.420   2.589   0.167
 1307SOL    HW2 4057   1.508   2.685   0.244
 1308SOL     OW 4058   2.941   1.863   3.923
 1308SOL    HW1 4059   3.013   1.878   3.984
 1308SOL    HW2 4060   2.891   1.945   3.924
 1309SOL     OW 4061   0.188   2.911   2.407
 1309SOL    HW1 4062   0.273   2.920   2.449
 1309SOL    HW2 4063   0.147   2.837   2.451
 1310SOL     OW 4064   0.195   0.570   1.280
 1310SOL    HW1 4065   0.201   0.489   1.331
 1310SOL    HW2 4066   0.162   0.635   1.341
 1311SOL     OW 4067   3.252   0.450   2.342
 1311SOL    HW1 4068   3.218   0.363   2.366
 1311SOL    HW2 4069   3.212   0.468   2.257
 1312SOL     OW 4070   3.577   1.786   3.702
 1312SOL    HW1 4071   3.486   1.793   3.733
 1312SOL    HW2 4072   3.597   1.692   3.710
 1313SOL     OW 4073   2.589   0.568   3.262
 1313SOL    HW1 4074   2.498   0.543   3.277
 1313SOL    HW2 4075   2.592   0.595   3.170
 1314SOL     OW 4076   1.291   2.097   1.984
 1314SOL    HW1 4077   1.306   2.190   1.967
 1314SOL    HW2 4078   1.196   2.087   1.980
 1315SOL     OW 4079   2.788   2.700   3.531
 1315SOL    HW1 4080   2.836   2.627   3.493
 1315SOL    HW2 4081   2.697   2.673   3.528
 1316SOL     OW 4082   0.907   2.363   0.483
 1316SOL    HW1 4083   0.819   2.361   0.520
 1316SOL    HW2 4084   0.929   2.272   0.466
 1317SOL     OW 4085   3.041   2.398   1.936
 1317SOL    HW1 4086   2.963   2.343   1.944
 1317SOL    HW2 4087   3.011   2.485   1.963
 1318SOL     OW 4088   3.325   2.235   1.571
 1318SOL    HW1 4089   3.341   2.302   1.504
 1318SOL    HW2 4090   3.308   2.285   1.651
 1319SOL     OW 4091   1.284   1.031   2.779
 1319SOL    HW1 4092   1.370   0.991   2.767
 1319SOL    HW2 4093   1.236   0.969   2.834
 1320SOL     OW 4094   1.923   2.032   2.761
 1320SOL    HW1 4095   1.952   1.942   2.779
 1320SOL    HW2 4096   1.837   2.022   2.720
 1321SOL     OW 4097   0.857   2.529   3.143
 1321SOL    HW1 4098   0.908   2.609   3.152
 1321SOL    HW2 4099   0.809   2.521   3.225
 1322SOL     OW 4100   3.694   3.657   2.618
 1322SOL    HW1 4101   3.741   3.703   2.548
 1322SOL    HW2 4102   3.696   3.718   2.692
 1323SOL     OW 4103   3.755   0.425   1.257
 1323SOL    HW1 4104   3.845   0.392   1.256
 1323SOL    HW2 4105   3.762   0.515   1.228
 1324SOL     OW 4106   0.340   1.752   0.050
 1324SOL    HW1 4107   0.274   1.810   0.012
 1324SOL    HW2 4108   0.290   1.692   0.105
 1325SOL     OW 4109   0.363   2.334   1.641
 1325SOL    HW1 4110   0.409   2.412   1.671
 1325SOL    HW2 4111   0.333   2.355   1.553
 1326SOL     OW 4112   3.594   2.825   2.847
 1326SOL    HW1 4113   3.532   2.865   2.785
 1326SOL    HW2 4114   3.660   2.893   2.861
 1327SOL     OW 4115   3.582   1.703   2.812
 1327SOL    HW1 4116   3.513   1.651   2.854
 1327SOL    HW2 4117   3.642   1.725   2.883
 1328SOL     OW 4118   3.537   2.599   0.087
 1328SOL    HW1 4119   3.609   2.662   0.082
 1328SOL    HW2 4120   3.578   2.520   0.122
 1329SOL     OW 4121   1.181   2.890   3.759
 1329SOL    HW1 4122   1.133   2.966   3.792
 1329SOL    HW2 4123   1.206   2.842   3.838
 1330SOL     OW 4124   1.350   2.968   3.113
 1330SOL    HW1 4125   1.350   2.879   3.148
 1330SOL    HW2 4126   1.326   2.957   3.021
 1331SOL     OW 4127   0.211   0.938   1.773
 1331SOL    HW1 4128   0.171   0.996   1.837
 1331SOL    HW2 4129   0.239   0.997   1.702
 1332SOL     OW 4130   0.075   3.383   2.480
 1332SOL    HW1 4131   0.132   3.327   2.429
 1332SOL    HW2 4132   0.133   3.450   2.517
 1333SOL     OW 4133   0.022   0.373   1.924
 1333SOL    HW1 4134   0.046   0.284   1.950
 1333SOL    HW2 4135   0.104   0.413   1.896
 1334SOL     OW 4136   3.810   1.038   1.196
 1334SOL    HW1 4137   3.802   0.943   1.203
 1334SOL    HW2 4138   3.843   1.053   1.107
 1335SOL     OW 4139   0.860   1.554   3.353
 1335SOL    HW1 4140   0.783   1.583   3.304
 1335SOL    HW2 4141   0.921   1.627   3.346
 1336SOL     OW 4142   1.918   3.167   2.011
 1336SOL    HW1 4143   1.921   3.118   2.094
 1336SOL    HW2 4144   1.852   3.121   1.959
 1337SOL     OW 4145   3.628   1.967   3.164
 1337SOL    HW1 4146   3.547   1.958   3.213
 1337SOL    HW2 4147   3.663   1.878   3.158
 1338SOL     OW 4148   3.879   2.397   1.919
 1338SOL    HW1 4149   3.878   2.426   2.010
 1338SOL    HW2 4150   3.961   2.432   1.884
 1339SOL     OW 4151   1.188   3.290   1.855
 1339SOL    HW1 4152   1.096   3.281   1.880
 1339SOL    HW2 4153   1.199   3.230   1.781
 1340SOL     OW 4154   1.023   2.791   2.877
 1340SOL    HW1 4155   0.991   2.872   2.917
 1340SOL    HW2 4156   0.949   2.731   2.881
 1341SOL     OW 4157   0.042   2.130   3.400
 1341SOL    HW1 4158   0.018   2.218   3.369
 1341SOL    HW2 4159  -0.032   2.075   3.374
 1342SOL     OW 4160   1.928   2.698   1.667
 1342SOL    HW1 4161   1.956   2.780   1.707
 1342SOL    HW2 4162   1.857   2.666   1.722
 1343SOL     OW 4163   2.655   1.506   2.991
 1343SOL    HW1 4164   2.560   1.498   3.003
 1343SOL    HW2 4165   2.688   1.533   3.077
 1344SOL     OW 4166   1.590   2.096   2.944
 1344SOL    HW1 4167   1.669   2.148   2.961
 1344SOL    HW2 4168   1.620   2.024   2.888
 1345SOL     OW 4169   2.434   3.687   0.045
 1345SOL    HW1 4170   2.367   3.755   0.054
 1345SOL    HW2 4171   2.474   3.682   0.132
 1346SOL     OW 4172   3.899   0.987   0.950
 1346SOL    HW1 4173   3.880   1.050   0.881
 1346SOL    HW2 4174   3.963   0.927   0.911
 1347SOL     OW 4175   3.072   0.568   0.762
 1347SOL    HW1 4176   3.161   0.532   0.761
 1347SOL    HW2 4177   3.036   0.547   0.676
 1348SOL     OW 4178   1.903   3.939   0.510
 1348SOL    HW1 4179   1.976   3.876   0.507
 1348SOL    HW2 4180   1.845   3.904   0.577
 1349SOL     OW 4181   2.920   2.735   1.093
 1349SOL    HW1 4182   3.006   2.775   1.077
 1349SOL    HW2 4183   2.878   2.793   1.156
 1350SOL     OW 4184   2.878   3.497   0.644
 1350SOL    HW1 4185   2.956   3.549   0.627
 1350SOL    HW2 4186   2.912   3.416   0.684
 1351SOL     OW 4187   1.094   1.290   3.230
 1351SOL    HW1 4188   1.108   1.346   3.154
 1351SOL    HW2 4189   1.160   1.221   3.222
 1352SOL     OW 4190   2.452   1.747   0.047
 1352SOL    HW1 4191   2.443   1.652   0.039
 1352SOL    HW2 4192   2.491   1.760   0.133
 1353SOL     OW 4193   3.886   3.532   2.291
 1353SOL    HW1 4194   3.906   3.476   2.365
 1353SOL    HW2 4195   3.834   3.478   2.232
 1354SOL     OW 4196   3.826   2.807   1.560
 1354SOL    HW1 4197   3.786   2.825   1.474
 1354SOL    HW2 4198   3.868   2.721   1.549
 1355SOL     OW 4199   0.233   3.257   1.714
 1355SOL    HW1 4200   0.183   3.190   1.760
 1355SOL    HW2 4201   0.167   3.315   1.677
 1356SOL     OW 4202   3.971   1.041   1.547
 1356SOL    HW1 4203   3.974   1.136   1.532
 1356SOL    HW2 4204   3.911   1.030   1.621
 1357SOL     OW 4205   0.965   3.388   3.103
 1357SOL    HW1 4206   1.058   3.399   3.081
 1357SOL    HW2 4207   0.928   3.476   3.091
 1358SOL     OW 4208   0.857   0.060   1.251
 1358SOL    HW1 4209   0.824  -0.013   1.303
 1358SOL    HW2 4210   0.951   0.063   1.269
 1359SOL     OW 4211   1.493   0.623   2.321
 1359SOL    HW1 4212   1.506   0.673   2.241
 1359SOL    HW2 4213   1.518   0.533   2.298
 1360SOL     OW 4214   2.616   2.469   1.298
 1360SOL    HW1 4215   2.544   2.449   1.358
 1360SOL    HW2 4216   2.574   2.487   1.214
 1361SOL     OW 4217   3.312   0.745   0.139
 1361SOL    HW1 4218   3.338   0.812   0.075
 1361SOL    HW2 4219   3.322   0.662   0.091
 1362SOL     OW 4220   2.049   0.201   2.495
 1362SOL    HW1 4221   2.029   0.230   2.406
 1362SOL    HW2 4222   2.097   0.274   2.534
 1363SOL     OW 4223   2.847   1.511   3.741
 1363SOL    HW1 4224   2.903   1.564   3.797
 1363SOL    HW2 4225   2.855   1.422   3.775
 1364SOL     OW 4226   0.774   2.393   0.924
 1364SOL    HW1 4227   0.752   2.468   0.868
 1364SOL    HW2 4228   0.869   2.397   0.933
 1365SOL     OW 4229   3.363   3.361   3.843
 1365SOL    HW1 4230   3.327   3.273   3.848
 1365SOL    HW2 4231   3.457   3.348   3.831
 1366SOL     OW 4232   0.407   1.613   1.594
 1366SOL    HW1 4233   0.391   1.625   1.688
 1366SOL    HW2 4234   0.479   1.672   1.574
 1367SOL     OW 4235   2.349   0.174   0.285
 1367SOL    HW1 4236   2.367   0.097   0.339
 1367SOL    HW2 4237   2.354   0.248   0.346
 1368SOL     OW 4238   0.466   2.827   2.645
 1368SOL    HW1 4239   0.514   2.843   2.563
 1368SOL    HW2 4240   0.430   2.739   2.634
 1369SOL     OW 4241   0.324   1.749   2.833
 1369SOL    HW1 4242   0.277   1.674   2.797
 1369SOL    HW2 4243   0.360   1.717   2.916
 1370SOL     OW 4244   3.215   1.360   3.797
 1370SOL    HW1 4245   3.220   1.382   3.704
 1370SOL    HW2 4246   3.286   1.410   3.838
 1371SOL     OW 4247   1.599   0.151   0.198
 1371SOL    HW1 4248   1.580   0.156   0.105
 1371SOL    HW2 4249   1.673   0.091   0.205
 1372SOL     OW 4250   3.643   0.903   2.515
 1372SOL    HW1 4251   3.732   0.871   2.498
 1372SOL    HW2 4252   3.588   0.855   2.453
 1373SOL     OW 4253   3.306   3.692   0.309
 1373SOL    HW1 4254   3.349   3.642   0.240
 1373SOL    HW2 4255   3.371   3.757   0.336
 1374SOL     OW 4256   2.890   2.770   2.469
 1374SOL    HW1 4257   2.918   2.679   2.468
 1374SOL    HW2 4258   2.930   2.809   2.392
 1375SOL     OW 4259   2.360   0.035   1.435
 1375SOL    HW1 4260   2.367   0.084   1.353
 1375SOL    HW2 4261   2.447  -0.001   1.449
 1376SOL     OW 4262   1.097   2.568   1.984
 1376SOL    HW1 4263   1.064   2.501   2.044
 1376SOL    HW2 4264   1.139   2.518   1.914
 1377SOL     OW 4265   0.926   2.729   0.096
 1377SOL    HW1 4266   0.831   2.726   0.081
 1377SOL    HW2 4267   0.964   2.695   0.015
 1378SOL     OW 4268   2.669   0.696   0.776
 1378SOL    HW1 4269   2.716   0.642   0.712
 1378SOL    HW2 4270   2.578   0.667   0.770
 1379SOL     OW 4271   1.453   0.328   3.147
 1379SOL    HW1 4272   1.417   0.274   3.076
 1379SOL    HW2 4273   1.378   0.380   3.177
 1380SOL     OW 4274   3.548   3.715   0.553
 1380SOL    HW1 4275   3.554   3.681   0.463
 1380SOL    HW2 4276   3.528   3.808   0.542
 1381SOL     OW 4277   0.584   3.156   0.415
 1381SOL    HW1 4278   0.582   3.105   0.334
 1381SOL    HW2 4279   0.622   3.097   0.480
 1382SOL     OW 4280   0.035   1.015   2.037
 1382SOL    HW1 4281   0.086   0.971   2.104
 1382SOL    HW2 4282  -0.029   1.067   2.086
 1383SOL     OW 4283   0.173   3.904   2.551
 1383SOL    HW1 4284   0.164   3.837   2.483
 1383SOL    HW2 4285   0.230   3.970   2.511
 1384SOL     OW 4286   0.758   0.331   2.221
 1384SOL    HW1 4287   0.796   0.244   2.232
 1384SOL    HW2 4288   0.820   0.390   2.264
 1385SOL     OW 4289   1.892   0.728   0.175
 1385SOL    HW1 4290   1.981   0.719   0.209
 1385SOL    HW2 4291   1.882   0.822   0.162
 1386SOL     OW 4292   0.576   3.744   3.617
 1386SOL    HW1 4293   0.661   3.700   3.611
 1386SOL    HW2 4294   0.512   3.675   3.599
 1387SOL     OW 4295   1.658   1.884   0.982
 1387SOL    HW1 4296   1.752   1.900   0.980
 1387SOL    HW2 4297   1.619   1.968   0.955
 1388SOL     OW 4298   3.309   2.980   3.064
 1388SOL    HW1 4299   3.361   3.016   2.992
 1388SOL    HW2 4300   3.252   2.915   3.023
 1389SOL     OW 4301   0.522   3.079   3.664
 1389SOL    HW1 4302   0.445   3.091   3.719
 1389SOL    HW2 4303   0.493   3.103   3.576
 1390SOL     OW 4304   2.401   3.189   2.409
 1390SOL    HW1 4305   2.392   3.140   2.490
 1390SOL    HW2 4306   2.325   3.248   2.408
 1391SOL     OW 4307   3.096   2.746   2.262
 1391SOL    HW1 4308   3.127   2.674   2.317
 1391SOL    HW2 4309   3.176   2.790   2.232
 1392SOL     OW 4310   3.881   2.420   1.309
 1392SOL    HW1 4311   3.948   2.363   1.272
 1392SOL    HW2 4312   3.910   2.508   1.287
 1393SOL     OW 4313   1.255   1.633   0.820
 1393SOL    HW1 4314   1.274   1.714   0.867
 1393SOL    HW2 4315   1.332   1.620   0.764
 1394SOL     OW 4316   0.159   3.944   2.837
 1394SOL    HW1 4317   0.200   3.871   2.883
 1394SOL    HW2 4318   0.183   3.932   2.745
 1395SOL     OW 4319   0.718   0.772   3.779
 1395SOL    HW1 4320   0.674   0.798   3.859
 1395SOL    HW2 4321   0.648   0.764   3.714
 1396SOL     OW 4322   0.733   2.495   2.548
 1396SOL    HW1 4323   0.746   2.409   2.587
 1396SOL    HW2 4324   0.661   2.483   2.486
 1397SOL     OW 4325   2.380   1.731   3.368
 1397SOL    HW1 4326   2.374   1.744   3.463
 1397SOL    HW2 4327   2.433   1.804   3.337
 1398SOL     OW 4328   0.638   1.160   3.050
 1398SOL    HW1 4329   0.686   1.163   2.967
 1398SOL    HW2 4330   0.631   1.251   3.077
 1399SOL     OW 4331   0.842   2.892   1.641
 1399SOL    HW1 4332   0.772   2.955   1.656
 1399SOL    HW2 4333   0.798   2.807   1.640
 1400SOL     OW 4334   0.554   1.789   2.034
 1400SOL    HW1 4335   0.537   1.836   1.952
 1400SOL    HW2 4336   0.468   1.777   2.073
 1401SOL     OW 4337   1.267   0.881   2.525
 1401SOL    HW1 4338   1.353   0.873   2.484
 1401SOL    HW2 4339   1.272   0.960   2.578
 1402SOL     OW 4340   2.931   0.812   0.795
 1402SOL    HW1 4341   2.965   0.723   0.806
 1402SOL    HW2 4342   2.838   0.801   0.775
 1403SOL     OW 4343   2.554   0.890   2.641
 1403SOL    HW1 4344   2.625   0.934   2.594
 1403SOL    HW2 4345   2.479   0.895   2.581
 1404SOL     OW 4346   3.615   2.697   3.642
 1404SOL    HW1 4347   3.604   2.755   3.717
 1404SOL    HW2 4348   3.638   2.613   3.680
 1405SOL     OW 4349   1.485   1.175   3.370
 1405SOL    HW1 4350   1.444   1.232   3.305
 1405SOL    HW2 4351   1.563   1.223   3.398
 1406SOL     OW 4352   1.292   3.482   2.531
 1406SOL    HW1 4353   1.324   3.396   2.556
 1406SOL    HW2 4354   1.199   3.470   2.514
 1407SOL     OW 4355   0.379   1.502   1.062
 1407SOL    HW1 4356   0.360   1.575   1.120
 1407SOL    HW2 4357   0.427   1.541   0.988
 1408SOL     OW 4358   2.583   2.693   1.076
 1408SOL    HW1 4359   2.628   2.705   0.993
 1408SOL    HW2 4360   2.645   2.642   1.129
 1409SOL     OW 4361   1.083   1.520   2.775
 1409SOL    HW1 4362   1.164   1.571   2.774
 1409SOL    HW2 4363   1.111   1.430   2.760
 1410SOL     OW 4364   1.032   3.735   2.833
 1410SOL    HW1 4365   1.117   3.693   2.850
 1410SOL    HW2 4366   0.979   3.713   2.909
 1411SOL     OW 4367   1.765   2.993   1.461
 1411SOL    HW1 4368   1.717   3.061   1.508
 1411SOL    HW2 4369   1.705   2.918   1.458
 1412SOL     OW 4370   1.467   1.641   0.656
 1412SOL    HW1 4371   1.444   1.733   0.645
 1412SOL    HW2 4372   1.488   1.611   0.567
 1413SOL     OW 4373   2.739   0.660   0.088
 1413SOL    HW1 4374   2.754   0.566   0.090
 1413SOL    HW2 4375   2.709   0.682   0.176
 1414SOL     OW 4376   1.271   0.044   1.664
 1414SOL    HW1 4377   1.249   0.049   1.757
 1414SOL    HW2 4378   1.189   0.064   1.619
 1415SOL     OW 4379   3.203   3.061   1.827
 1415SOL    HW1 4380   3.126   3.087   1.777
 1415SOL    HW2 4381   3.277   3.094   1.777
 1416SOL     OW 4382   1.324   0.602   1.465
 1416SOL    HW1 4383   1.373   0.547   1.527
 1416SOL    HW2 4384   1.235   0.602   1.500
 1417SOL     OW 4385   3.775   0.114   2.079
 1417SOL    HW1 4386   3.737   0.201   2.092
 1417SOL    HW2 4387   3.810   0.117   1.990
 1418SOL     OW 4388   1.470   3.917   3.003
 1418SOL    HW1 4389   1.440   4.008   3.004
 1418SOL    HW2 4390   1.446   3.882   3.089
 1419SOL     OW 4391   1.787   2.495   3.676
 1419SOL    HW1 4392   1.839   2.477   3.755
 1419SOL    HW2 4393   1.822   2.577   3.643
 1420SOL     OW 4394   2.468   3.551   1.064
 1420SOL    HW1 4395   2.530   3.612   1.104
 1420SOL    HW2 4396   2.513   3.467   1.063
 1421SOL     OW 4397   0.790   1.882   3.883
 1421SOL    HW1 4398   0.837   1.822   3.825
 1421SOL    HW2 4399   0.755   1.949   3.825
 1422SOL     OW 4400   0.681   0.517   0.203
 1422SOL    HW1 4401   0.692   0.433   0.159
 1422SOL    HW2 4402   0.688   0.497   0.296
 1423SOL     OW 4403   1.334   2.162   2.871
 1423SOL    HW1 4404   1.408   2.117   2.912
 1423SOL    HW2 4405   1.373   2.209   2.798
 1424SOL     OW 4406   0.038   1.542   3.719
 1424SOL    HW1 4407   0.034   1.638   3.714
 1424SOL    HW2 4408  -0.053   1.515   3.730
 1425SOL     OW 4409   1.999   1.136   3.562
 1425SOL    HW1 4410   2.077   1.153   3.509
 1425SOL    HW2 4411   1.983   1.042   3.552
 1426SOL     OW 4412   3.432   2.853   1.423
 1426SOL    HW1 4413   3.358   2.873   1.366
 1426SOL    HW2 4414   3.493   2.925   1.409
 1427SOL     OW 4415   0.825   2.720   0.661
 1427SOL    HW1 4416   0.832   2.810   0.629
 1427SOL    HW2 4417   0.799   2.669   0.585
 1428SOL     OW 4418   1.043   0.036   2.957
 1428SOL    HW1 4419   0.959   0.008   2.995
 1428SOL    HW2 4420   1.060  -0.027   2.888
 1429SOL     OW 4421   2.601   2.260   0.931
 1429SOL    HW1 4422   2.675   2.310   0.898
 1429SOL    HW2 4423   2.566   2.313   1.003
 1430SOL     OW 4424   0.922   1.137   3.725
 1430SOL    HW1 4425   0.951   1.122   3.634
 1430SOL    HW2 4426   0.828   1.151   3.717
 1431SOL     OW 4427   0.626   1.382   2.777
 1431SOL    HW1 4428   0.671   1.400   2.694
 1431SOL    HW2 4429   0.622   1.467   2.821
 1432SOL     OW 4430   0.631   2.292   3.509
 1432SOL    HW1 4431   0.683   2.292   3.428
 1432SOL    HW2 4432   0.550   2.247   3.484
 1433SOL     OW 4433   0.457   1.435   3.930
 1433SOL    HW1 4434   0.455   1.518   3.978
 1433SOL    HW2 4435   0.550   1.415   3.921
 1434SOL     OW 4436   1.444   2.488   2.843
 1434SOL    HW1 4437   1.375   2.537   2.798
 1434SOL    HW2 4438   1.423   2.499   2.936
 1435SOL     OW 4439   2.481   3.586   1.469
 1435SOL    HW1 4440   2.438   3.536   1.399
 1435SOL    HW2 4441   2.542   3.524   1.509
 1436SOL     OW 4442   1.236   1.213   3.801
 1436SOL    HW1 4443   1.179   1.146   3.762
 1436SOL    HW2 4444   1.278   1.254   3.726
 1437SOL     OW 4445   0.073   1.854   0.329
 1437SOL    HW1 4446   0.026   1.782   0.372
 1437SOL    HW2 4447   0.110   1.905   0.401
 1438SOL     OW 4448   0.356   1.931   3.440
 1438SOL    HW1 4449   0.345   2.016   3.483
 1438SOL    HW2 4450   0.428   1.890   3.488
 1439SOL     OW 4451   1.768   0.049   1.792
 1439SOL    HW1 4452   1.837   0.082   1.734
 1439SOL    HW2 4453   1.688   0.092   1.760
 1440SOL     OW 4454   3.001   2.662   1.437
 1440SOL    HW1 4455   2.971   2.745   1.400
 1440SOL    HW2 4456   3.018   2.680   1.529
 1441SOL     OW 4457   2.145   0.235   2.026
 1441SOL    HW1 4458   2.212   0.168   2.035
 1441SOL    HW2 4459   2.193   0.316   2.007
 1442SOL     OW 4460   3.467   1.463   1.603
 1442SOL    HW1 4461   3.558   1.492   1.611
 1442SOL    HW2 4462   3.424   1.532   1.553
 1443SOL     OW 4463   2.937   3.670   1.407
 1443SOL    HW1 4464   2.897   3.749   1.371
 1443SOL    HW2 4465   3.021   3.701   1.443
 1444SOL     OW 4466   3.142   3.251   3.054
 1444SOL    HW1 4467   3.179   3.312   2.991
 1444SOL    HW2 4468   3.197   3.173   3.049
 1445SOL     OW 4469   1.021   2.407   0.123
 1445SOL    HW1 4470   0.958   2.396   0.195
 1445SOL    HW2 4471   1.093   2.456   0.162
 1446SOL     OW 4472   2.086   1.365   2.768
 1446SOL    HW1 4473   2.077   1.440   2.826
 1446SOL    HW2 4474   2.023   1.301   2.800
 1447SOL     OW 4475   0.056   2.127   2.640
 1447SOL    HW1 4476   0.084   2.036   2.645
 1447SOL    HW2 4477   0.131   2.173   2.602
 1448SOL     OW 4478   1.367   3.512   1.484
 1448SOL    HW1 4479   1.429   3.571   1.441
 1448SOL    HW2 4480   1.403   3.498   1.572
 1449SOL     OW 4481   1.716   1.798   0.074
 1449SOL    HW1 4482   1.797   1.814   0.025
 1449SOL    HW2 4483   1.720   1.704   0.095
 1450SOL     OW 4484   3.144   0.888   2.418
 1450SOL    HW1 4485   3.062   0.901   2.370
 1450SOL    HW2 4486   3.199   0.962   2.393
 1451SOL     OW 4487   3.187   1.843   3.071
 1451SOL    HW1 4488   3.222   1.764   3.030
 1451SOL    HW2 4489   3.129   1.811   3.140
 1452SOL     OW 4490   3.198   3.709   3.384
 1452SOL    HW1 4491   3.168   3.779   3.442
 1452SOL    HW2 4492   3.130   3.702   3.318
 1453SOL     OW 4493   1.967   1.120   0.989
 1453SOL    HW1 4494   1.962   1.054   1.059
 1453SOL    HW2 4495   1.998   1.199   1.033
 1454SOL     OW 4496   3.336   0.264   2.911
 1454SOL    HW1 4497   3.293   0.345   2.884
 1454SOL    HW2 4498   3.408   0.292   2.968
 1455SOL     OW 4499   2.756   1.333   0.958
 1455SOL    HW1 4500   2.673   1.302   0.994
 1455SOL    HW2 4501   2.744   1.328   0.863
 1456SOL     OW 4502   2.912   3.398   3.134
 1456SOL    HW1 4503   2.832   3.347   3.118
 1456SOL    HW2 4504   2.983   3.342   3.101
 1457SOL     OW 4505   3.796   2.739   3.343
 1457SOL    HW1 4506   3.737   2.778   3.280
 1457SOL    HW2 4507   3.759   2.652   3.360
 1458SOL     OW 4508   1.018   2.134   3.241
 1458SOL    HW1 4509   0.937   2.081   3.239
 1458SOL    HW2 4510   1.007   2.190   3.318
 1459SOL     OW 4511   1.267   0.514   0.569
 1459SOL    HW1 4512   1.284   0.591   0.624
 1459SOL    HW2 4513   1.354   0.476   0.555
 1460SOL     OW 4514   2.327   0.246   3.738
 1460SOL    HW1 4515   2.309   0.209   3.824
 1460SOL    HW2 4516   2.411   0.290   3.749
 1461SOL     OW 4517   1.656   1.527   0.097
 1461SOL    HW1 4518   1.715   1.453   0.079
 1461SOL    HW2 4519   1.589   1.522   0.029
 1462SOL     OW 4520   3.371   1.568   3.901
 1462SOL    HW1 4521   3.388   1.537   3.991
 1462SOL    HW2 4522   3.346   1.659   3.912
 1463SOL     OW 4523   3.379   2.373   0.751
 1463SOL    HW1 4524   3.348   2.382   0.841
 1463SOL    HW2 4525   3.389   2.279   0.739
 1464SOL     OW 4526   0.202   1.479   3.515
 1464SOL    HW1 4527   0.129   1.521   3.561
 1464SOL    HW2 4528   0.276   1.539   3.527
 1465SOL     OW 4529   0.627   1.313   3.604
 1465SOL    HW1 4530   0.546   1.277   3.640
 1465SOL    HW2 4531   0.673   1.347   3.681
 1466SOL     OW 4532   2.099   3.886   3.870
 1466SOL    HW1 4533   2.034   3.951   3.846
 1466SOL    HW2 4534   2.154   3.929   3.935
 1467SOL     OW 4535   2.642   3.210   2.678
 1467SOL    HW1 4536   2.563   3.265   2.674
 1467SOL    HW2 4537   2.619   3.132   2.627
 1468SOL     OW 4538   0.876   1.590   3.021
 1468SOL    HW1 4539   0.950   1.572   3.080
 1468SOL    HW2 4540   0.908   1.562   2.935
 1469SOL     OW 4541   3.129   3.034   2.484
 1469SOL    HW1 4542   3.058   3.096   2.469
 1469SOL    HW2 4543   3.105   2.989   2.565
 1470SOL     OW 4544   3.932   2.759   2.832
 1470SOL    HW1 4545   4.025   2.778   2.823
 1470SOL    HW2 4546   3.893   2.787   2.749
 1471SOL     OW 4547   0.977   0.394   2.424
 1471SOL    HW1 4548   1.021   0.479   2.418
 1471SOL    HW2 4549   0.918   0.404   2.499
 1472SOL     OW 4550   2.461   2.812   3.033
 1472SOL    HW1 4551   2.411   2.828   3.114
 1472SOL    HW2 4552   2.396   2.813   2.964
 1473SOL     OW 4553   1.476   3.031   1.836
 1473SOL    HW1 4554   1.421   3.050   1.760
 1473SOL    HW2 4555   1.434   2.957   1.878
 1474SOL     OW 4556   3.195   0.061   0.621
 1474SOL    HW1 4557   3.259   0.022   0.680
 1474SOL    HW2 4558   3.118   0.006   0.629
 1475SOL     OW 4559   2.326   1.779   3.646
 1475SOL    HW1 4560   2.418   1.755   3.655
 1475SOL    HW2 4561   2.283   1.734   3.720
 1476SOL     OW 4562   1.850   0.638   0.551
 1476SOL    HW1 4563   1.926   0.683   0.515
 1476SOL    HW2 4564   1.807   0.600   0.474
 1477SOL     OW 4565   2.533   2.896   1.534
 1477SOL    HW1 4566   2.578   2.817   1.564
 1477SOL    HW2 4567   2.531   2.953   1.610
 1478SOL     OW 4568   3.246   2.628   0.037
 1478SOL    HW1 4569   3.327   2.578   0.048
 1478SOL    HW2 4570   3.208   2.632   0.125
 1479SOL     OW 4571   1.171   0.918   0.835
 1479SOL    HW1 4572   1.188   0.993   0.892
 1479SOL    HW2 4573   1.191   0.950   0.747
 1480SOL     OW 4574   0.996   3.005   2.399
 1480SOL    HW1 4575   0.975   2.935   2.338
 1480SOL    HW2 4576   1.078   3.042   2.367
 1481SOL     OW 4577   3.834   1.011   1.832
 1481SOL    HW1 4578   3.753   1.020   1.883
 1481SOL    HW2 4579   3.903   1.000   1.898
 1482SOL     OW 4580   0.305   3.691   2.948
 1482SOL    HW1 4581   0.317   3.739   3.030
 1482SOL    HW2 4582   0.385   3.641   2.937
 1483SOL     OW 4583   2.128   1.859   1.507
 1483SOL    HW1 4584   2.181   1.914   1.449
 1483SOL    HW2 4585   2.058   1.826   1.451
 1484SOL     OW 4586   2.862   1.528   0.147
 1484SOL    HW1 4587   2.803   1.568   0.211
 1484SOL    HW2 4588   2.899   1.602   0.099
 1485SOL     OW 4589   0.552   1.223   1.801
 1485SOL    HW1 4590   0.627   1.169   1.775
 1485SOL    HW2 4591   0.591   1.306   1.828
 1486SOL     OW 4592   3.468   3.143   1.668
 1486SOL    HW1 4593   3.531   3.171   1.601
 1486SOL    HW2 4594   3.461   3.048   1.655
 1487SOL     OW 4595   3.366   3.739   2.868
 1487SOL    HW1 4596   3.423   3.773   2.937
 1487SOL    HW2 4597   3.411   3.761   2.787
 1488SOL     OW 4598   1.894   3.098   1.214
 1488SOL    HW1 4599   1.955   3.067   1.281
 1488SOL    HW2 4600   1.833   3.156   1.262
 1489SOL     OW 4601   0.975   1.046   2.232
 1489SOL    HW1 4602   0.957   1.080   2.320
 1489SOL    HW2 4603   0.974   1.123   2.176
 1490SOL     OW 4604   3.904   2.899   0.565
 1490SOL    HW1 4605   3.810   2.914   0.564
 1490SOL    HW2 4606   3.913   2.803   0.561
 1491SOL     OW 4607   0.355   3.051   3.130
 1491SOL    HW1 4608   0.412   3.044   3.053
 1491SOL    HW2 4609   0.277   3.096   3.098
 1492SOL     OW 4610   3.812   1.947   1.402
 1492SOL    HW1 4611   3.725   1.986   1.400
 1492SOL    HW2 4612   3.818   1.905   1.488
 1493SOL     OW 4613   2.295   1.195   3.646
 1493SOL    HW1 4614   2.240   1.165   3.719
 1493SOL    HW2 4615   2.342   1.271   3.681
 1494SOL     OW 4616   1.373   2.984   0.156
 1494SOL    HW1 4617   1.306   3.048   0.178
 1494SOL    HW2 4618   1.333   2.929   0.089
 1495SOL     OW 4619   3.280   1.833   3.893
 1495SOL    HW1 4620   3.269   1.882   3.974
 1495SOL    HW2 4621   3.315   1.898   3.831
 1496SOL     OW 4622   2.638   2.180   0.490
 1496SOL    HW1 4623   2.725   2.153   0.520
 1496SOL    HW2 4624   2.652   2.266   0.451
 1497SOL     OW 4625   3.779   3.778   3.148
 1497SOL    HW1 4626   3.706   3.805   3.204
 1497SOL    HW2 4627   3.853   3.830   3.178
 1498SOL     OW 4628   2.197   0.893   0.198
 1498SOL    HW1 4629   2.269   0.938   0.155
 1498SOL    HW2 4630   2.118   0.930   0.157
 1499SOL     OW 4631   1.982   0.859   3.541
 1499SOL    HW1 4632   2.021   0.788   3.489
 1499SOL    HW2 4633   1.968   0.819   3.627
 1500SOL     OW 4634   1.383   1.913   0.596
 1500SOL    HW1 4635   1.417   1.998   0.625
 1500SOL    HW2 4636   1.359   1.927   0.504
 1501SOL     OW 4637   1.187   0.903   3.385
 1501SOL    HW1 4638   1.126   0.885   3.314
 1501SOL    HW2 4639   1.242   0.974   3.352
 1502SOL     OW 4640   3.452   0.634   2.353
 1502SOL    HW1 4641   3.377   0.577   2.371
 1502SOL    HW2 4642   3.495   0.643   2.438
 1503SOL     OW 4643   3.014   2.128   1.153
 1503SOL    HW1 4644   2.965   2.209   1.144
 1503SOL    HW2 4645   3.011   2.107   1.246
 1504SOL     OW 4646   1.197   3.813   0.240
 1504SOL    HW1 4647   1.282   3.851   0.262
 1504SOL    HW2 4648   1.217   3.741   0.180
 1505SOL     OW 4649   1.686   2.308  -0.002
 1505SOL    HW1 4650   1.636   2.320   0.078
 1505SOL    HW2 4651   1.650   2.228  -0.041
 1506SOL     OW 4652   3.141   1.027   3.160
 1506SOL    HW1 4653   3.114   1.073   3.081
 1506SOL    HW2 4654   3.060   0.985   3.192
 1507SOL     OW 4655   1.534   2.683   1.217
 1507SOL    HW1 4656   1.595   2.734   1.164
 1507SOL    HW2 4657   1.455   2.737   1.221
 1508SOL     OW 4658   2.579   2.727   2.553
 1508SOL    HW1 4659   2.626   2.751   2.633
 1508SOL    HW2 4660   2.588   2.631   2.548
 1509SOL     OW 4661   1.453   1.364   0.295
 1509SOL    HW1 4662   1.545   1.336   0.291
 1509SOL    HW2 4663   1.417   1.336   0.210
 1510SOL     OW 4664   1.542   0.830   2.809
 1510SOL    HW1 4665   1.631   0.864   2.810
 1510SOL    HW2 4666   1.544   0.755   2.868
 1511SOL     OW 4667   2.026   3.346   1.424
 1511SOL    HW1 4668   2.027   3.392   1.339
 1511SOL    HW2 4669   2.118   3.322   1.439
 1512SOL     OW 4670   0.624   2.658   1.074
 1512SOL    HW1 4671   0.676   2.708   1.011
 1512SOL    HW2 4672   0.600   2.722   1.141
 1513SOL     OW 4673   1.133   1.457   3.442
 1513SOL    HW1 4674   1.121   1.408   3.361
 1513SOL    HW2 4675   1.046   1.488   3.465
 1514SOL     OW 4676   2.840   0.109   3.624
 1514SOL    HW1 4677   2.935   0.111   3.632
 1514SOL    HW2 4678   2.815   0.201   3.614
 1515SOL     OW 4679   2.557   0.296   2.364
 1515SOL    HW1 4680   2.635   0.303   2.420
 1515SOL    HW2 4681   2.508   0.222   2.400
 1516SOL     OW 4682   0.069   1.519   2.532
 1516SOL    HW1 4683   0.000   1.453   2.536
 1516SOL    HW2 4684   0.035   1.592   2.584
 1517SOL     OW 4685   0.593   1.710   0.586
 1517SOL    HW1 4686   0.657   1.709   0.657
 1517SOL    HW2 4687   0.640   1.751   0.513
 1518SOL     OW 4688   3.041   0.553   3.788
 1518SOL    HW1 4689   3.051   0.561   3.693
 1518SOL    HW2 4690   3.120   0.507   3.816
 1519SOL     OW 4691   3.271   3.817   3.797
 1519SOL    HW1 4692   3.332   3.808   3.724
 1519SOL    HW2 4693   3.250   3.727   3.822
 1520SOL     OW 4694   3.200   0.750   2.656
 1520SOL    HW1 4695   3.199   0.800   2.574
 1520SOL    HW2 4696   3.273   0.788   2.706
 1521SOL     OW 4697   2.666   3.705   2.160
 1521SOL    HW1 4698   2.716   3.721   2.240
 1521SOL    HW2 4699   2.675   3.611   2.145
 1522SOL     OW 4700   2.049   3.099   2.912
 1522SOL    HW1 4701   2.002   3.112   2.830
 1522SOL    HW2 4702   2.022   3.173   2.966
 1523SOL     OW 4703   2.318   2.036   2.177
 1523SOL    HW1 4704   2.286   2.126   2.173
 1523SOL    HW2 4705   2.258   1.991   2.236
 1524SOL     OW 4706   3.379   1.609   0.607
 1524SOL    HW1 4707   3.396   1.584   0.698
 1524SOL    HW2 4708   3.340   1.531   0.568
 1525SOL     OW 4709   2.173   2.624   1.931
 1525SOL    HW1 4710   2.175   2.698   1.870
 1525SOL    HW2 4711   2.231   2.650   2.002
 1526SOL     OW 4712   2.665   1.344   0.517
 1526SOL    HW1 4713   2.674   1.282   0.590
 1526SOL    HW2 4714   2.684   1.292   0.439
 1527SOL     OW 4715   2.825   1.808   1.360
 1527SOL    HW1 4716   2.847   1.849   1.443
 1527SOL    HW2 4717   2.734   1.833   1.344
 1528SOL     OW 4718   3.444   0.422   2.617
 1528SOL    HW1 4719   3.496   0.492   2.656
 1528SOL    HW2 4720   3.355   0.438   2.650
 1529SOL     OW 4721   0.487   2.212   2.374
 1529SOL    HW1 4722   0.466   2.241   2.463
 1529SOL    HW2 4723   0.479   2.291   2.321
 1530SOL     OW 4724   0.852   0.128   3.271
 1530SOL    HW1 4725   0.938   0.170   3.279
 1530SOL    HW2 4726   0.804   0.186   3.212
 1531SOL     OW 4727   2.383   2.028   3.211
 1531SOL    HW1 4728   2.435   1.996   3.284
 1531SOL    HW2 4729   2.297   1.985   3.223
 1532SOL     OW 4730   1.492   0.833   3.837
 1532SOL    HW1 4731   1.521   0.886   3.763
 1532SOL    HW2 4732   1.404   0.865   3.858
 1533SOL     OW 4733   1.897   1.399   3.076
 1533SOL    HW1 4734   1.918   1.394   3.170
 1533SOL    HW2 4735   1.865   1.488   3.063
 1534SOL     OW 4736   3.863   2.966   3.032
 1534SOL    HW1 4737   3.928   3.027   2.997
 1534SOL    HW2 4738   3.872   2.888   2.978
 1535SOL     OW 4739   0.155   1.200   2.377
 1535SOL    HW1 4740   0.091   1.141   2.417
 1535SOL    HW2 4741   0.115   1.287   2.383
 1536SOL     OW 4742   0.705   3.126   1.006
 1536SOL    HW1 4743   0.668   3.126   0.917
 1536SOL    HW2 4744   0.798   3.144   0.993
 1537SOL     OW 4745   3.436   2.950   3.316
 1537SOL    HW1 4746   3.395   2.962   3.230
 1537SOL    HW2 4747   3.513   2.896   3.298
 1538SOL     OW 4748   0.999   3.095   0.977
 1538SOL    HW1 4749   1.048   3.025   1.021
 1538SOL    HW2 4750   1.020   3.174   1.027
 1539SOL     OW 4751   2.218   0.855   0.894
 1539SOL    HW1 4752   2.210   0.875   0.987
 1539SOL    HW2 4753   2.138   0.809   0.872
 1540SOL     OW 4754   1.349   2.886   3.553
 1540SOL    HW1 4755   1.300   2.879   3.635
 1540SOL    HW2 4756   1.284   2.869   3.485
 1541SOL     OW 4757   0.593   0.963   2.135
 1541SOL    HW1 4758   0.656   0.997   2.072
 1541SOL    HW2 4759   0.508   0.981   2.096
 1542SOL     OW 4760   0.270   3.697   0.349
 1542SOL    HW1 4761   0.362   3.718   0.366
 1542SOL    HW2 4762   0.273   3.624   0.287
 1543SOL     OW 4763   2.626   3.389   1.652
 1543SOL    HW1 4764   2.708   3.353   1.685
 1543SOL    HW2 4765   2.567   3.314   1.649
 1544SOL     OW 4766   0.162   1.385   0.064
 1544SOL    HW1 4767   0.091   1.449   0.063
 1544SOL    HW2 4768   0.202   1.391  -0.023
 1545SOL     OW 4769   3.369   2.429   1.370
 1545SOL    HW1 4770   3.295   2.430   1.309
 1545SOL    HW2 4771   3.423   2.504   1.344
 1546SOL     OW 4772   0.401   2.109   3.852
 1546SOL    HW1 4773   0.363   2.196   3.844
 1546SOL    HW2 4774   0.326   2.050   3.850
 1547SOL     OW 4775   1.023   3.485   1.395
 1547SOL    HW1 4776   1.071   3.510   1.317
 1547SOL    HW2 4777   0.978   3.565   1.424
 1548SOL     OW 4778   0.763   0.089   2.512
 1548SOL    HW1 4779   0.806   0.009   2.543
 1548SOL    HW2 4780   0.817   0.160   2.548
 1549SOL     OW 4781   3.094   3.217   0.357
 1549SOL    HW1 4782   3.025   3.283   0.344
 1549SOL    HW2 4783   3.166   3.247   0.303
 1550SOL     OW 4784   2.485   0.956   0.154
 1550SOL    HW1 4785   2.500   1.013   0.078
 1550SOL    HW2 4786   2.570   0.953   0.198
 1551SOL     OW 4787   3.608   2.308   2.452
 1551SOL    HW1 4788   3.682   2.247   2.455
 1551SOL    HW2 4789   3.538   2.263   2.499
 1552SOL     OW 4790   2.182   1.607   2.939
 1552SOL    HW1 4791   2.218   1.521   2.917
 1552SOL    HW2 4792   2.260   1.662   2.953
 1553SOL     OW 4793   0.052   3.420   3.268
 1553SOL    HW1 4794   0.018   3.488   3.327
 1553SOL    HW2 4795   0.029   3.451   3.180
 1554SOL     OW 4796   2.945   3.686   2.863
 1554SOL    HW1 4797   2.852   3.701   2.873
 1554SOL    HW2 4798   2.963   3.703   2.770
 1555SOL     OW 4799   1.327   3.498   0.755
 1555SOL    HW1 4800   1.257   3.557   0.730
 1555SOL    HW2 4801   1.283   3.418   0.783
 1556SOL     OW 4802   3.471   3.630   3.203
 1556SOL    HW1 4803   3.498   3.538   3.197
 1556SOL    HW2 4804   3.376   3.628   3.201
 1557SOL     OW 4805   0.267   2.876   0.169
 1557SOL    HW1 4806   0.357   2.902   0.186
 1557SOL    HW2 4807   0.224   2.957   0.142
 1558SOL     OW 4808   3.496   3.657   1.658
 1558SOL    HW1 4809   3.556   3.725   1.685
 1558SOL    HW2 4810   3.410   3.699   1.657
 1559SOL     OW 4811   1.572   1.369   0.717
 1559SOL    HW1 4812   1.603   1.459   0.710
 1559SOL    HW2 4813   1.575   1.336   0.627
 1560SOL     OW 4814   2.492   0.245   3.220
 1560SOL    HW1 4815   2.465   0.186   3.290
 1560SOL    HW2 4816   2.579   0.275   3.246
 1561SOL     OW 4817   2.959   1.450   1.516
 1561SOL    HW1 4818   2.991   1.466   1.605
 1561SOL    HW2 4819   2.996   1.365   1.493
 1562SOL     OW 4820   0.131   2.211   2.134
 1562SOL    HW1 4821   0.093   2.294   2.160
 1562SOL    HW2 4822   0.104   2.199   2.043
 1563SOL     OW 4823   2.387   1.413   0.785
 1563SOL    HW1 4824   2.312   1.356   0.800
 1563SOL    HW2 4825   2.457   1.375   0.839
 1564SOL     OW 4826   0.882   2.738   1.906
 1564SOL    HW1 4827   0.867   2.832   1.919
 1564SOL    HW2 4828   0.969   2.722   1.942
 1565SOL     OW 4829   2.574   1.825   0.593
 1565SOL    HW1 4830   2.565   1.912   0.631
 1565SOL    HW2 4831   2.495   1.814   0.539
 1566SOL     OW 4832   2.547   1.816   1.315
 1566SOL    HW1 4833   2.534   1.806   1.221
 1566SOL    HW2 4834   2.537   1.728   1.351
 1567SOL     OW 4835   3.223   1.713   1.136
 1567SOL    HW1 4836   3.149   1.735   1.080
 1567SOL    HW2 4837   3.184   1.670   1.212
 1568SOL     OW 4838   3.646   0.349   0.800
 1568SOL    HW1 4839   3.580   0.407   0.838
 1568SOL    HW2 4840   3.707   0.409   0.755
 1569SOL     OW 4841   3.898   2.464   3.835
 1569SOL    HW1 4842   3.916   2.557   3.820
 1569SOL    HW2 4843   3.805   2.454   3.812
 1570SOL     OW 4844   3.171   0.658   1.750
 1570SOL    HW1 4845   3.194   0.603   1.675
 1570SOL    HW2 4846   3.113   0.725   1.714
 1571SOL     OW 4847   1.215   0.600   2.337
 1571SOL    HW1 4848   1.174   0.616   2.252
 1571SOL    HW2 4849   1.306   0.627   2.325
 1572SOL     OW 4850   2.519   1.255   1.035
 1572SOL    HW1 4851   2.470   1.179   1.004
 1572SOL    HW2 4852   2.529   1.240   1.129
 1573SOL     OW 4853   2.345   2.734   2.788
 1573SOL    HW1 4854   2.263   2.767   2.752
 1573SOL    HW2 4855   2.384   2.684   2.716
 1574SOL     OW 4856   3.900   0.091   0.642
 1574SOL    HW1 4857   3.982   0.042   0.632
 1574SOL    HW2 4858   3.891   0.103   0.737
 1575SOL     OW 4859   2.703   2.771   2.132
 1575SOL    HW1 4860   2.647   2.714   2.080
 1575SOL    HW2 4861   2.668   2.766   2.221
 1576SOL     OW 4862   1.259   0.270   0.874
 1576SOL    HW1 4863   1.325   0.219   0.920
 1576SOL    HW2 4864   1.287   0.361   0.885
 1577SOL     OW 4865   0.232   0.185   0.647
 1577SOL    HW1 4866   0.238   0.193   0.742
 1577SOL    HW2 4867   0.298   0.119   0.624
 1578SOL     OW 4868   2.472   3.331   0.347
 1578SOL    HW1 4869   2.452   3.331   0.440
 1578SOL    HW2 4870   2.500   3.421   0.328
 1579SOL     OW 4871   0.863   3.430   0.856
 1579SOL    HW1 4872   0.892   3.402   0.943
 1579SOL    HW2 4873   0.768   3.440   0.865
 1580SOL     OW 4874   1.395   2.802   0.379
 1580SOL    HW1 4875   1.306   2.791   0.414
 1580SOL    HW2 4876   1.382   2.853   0.299
 1581SOL     OW 4877   3.311   3.289   2.500
 1581SOL    HW1 4878   3.263   3.221   2.452
 1581SOL    HW2 4879   3.370   3.326   2.435
 1582SOL     OW 4880   3.230   0.239   0.865
 1582SOL    HW1 4881   3.270   0.314   0.822
 1582SOL    HW2 4882   3.289   0.166   0.847
 1583SOL     OW 4883   2.988   3.158   1.037
 1583SOL    HW1 4884   3.004   3.179   1.129
 1583SOL    HW2 4885   3.019   3.236   0.990
 1584SOL     OW 4886   3.822   0.667   0.153
 1584SOL    HW1 4887   3.850   0.599   0.215
 1584SOL    HW2 4888   3.864   0.747   0.185
 1585SOL     OW 4889   0.948   3.344   1.108
 1585SOL    HW1 4890   0.895   3.319   1.184
 1585SOL    HW2 4891   1.009   3.409   1.142
 1586SOL     OW 4892   0.236   1.952   1.997
 1586SOL    HW1 4893   0.224   2.008   2.074
 1586SOL    HW2 4894   0.198   2.002   1.925
 1587SOL     OW 4895   3.005   1.433   2.440
 1587SOL    HW1 4896   3.046   1.411   2.357
 1587SOL    HW2 4897   2.912   1.418   2.426
 1588SOL     OW 4898   0.674   3.857   1.808
 1588SOL    HW1 4899   0.683   3.762   1.811
 1588SOL    HW2 4900   0.673   3.884   1.900
 1589SOL     OW 4901   0.391   0.758   1.850
 1589SOL    HW1 4902   0.476   0.800   1.837
 1589SOL    HW2 4903   0.328   0.817   1.808
 1590SOL     OW 4904   1.553   3.653   1.330
 1590SOL    HW1 4905   1.584   3.571   1.293
 1590SOL    HW2 4906   1.630   3.710   1.332
 1591SOL     OW 4907   0.570   1.321   0.677
 1591SOL    HW1 4908   0.638   1.365   0.626
 1591SOL    HW2 4909   0.516   1.276   0.613
 1592SOL     OW 4910   1.828   2.030   0.350
 1592SOL    HW1 4911   1.882   2.104   0.321
 1592SOL    HW2 4912   1.864   1.955   0.303
 1593SOL     OW 4913   2.354   3.050   0.545
 1593SOL    HW1 4914   2.449   3.057   0.554
 1593SOL    HW2 4915   2.322   3.139   0.562
 1594SOL     OW 4916   2.092   2.796   3.713
 1594SOL    HW1 4917   2.051   2.739   3.778
 1594SOL    HW2 4918   2.120   2.872   3.763
 1595SOL     OW 4919   0.113   0.130   0.358
 1595SOL    HW1 4920   0.132   0.210   0.308
 1595SOL    HW2 4921   0.110   0.159   0.449
 1596SOL     OW 4922   1.297   1.805   1.440
 1596SOL    HW1 4923   1.272   1.788   1.349
 1596SOL    HW2 4924   1.222   1.853   1.476
 1597SOL     OW 4925   1.964   3.789   2.395
 1597SOL    HW1 4926   1.910   3.739   2.456
 1597SOL    HW2 4927   2.002   3.723   2.337
 1598SOL     OW 4928   0.143   3.037   2.953
 1598SOL    HW1 4929   0.194   2.968   2.910
 1598SOL    HW2 4930   0.189   3.118   2.933
 1599SOL     OW 4931   1.368   1.292   1.970
 1599SOL    HW1 4932   1.321   1.365   2.010
 1599SOL    HW2 4933   1.363   1.309   1.876
 1600SOL     OW 4934   3.031   1.192   0.516
 1600SOL    HW1 4935   3.006   1.195   0.423
 1600SOL    HW2 4936   3.044   1.284   0.540
 1601SOL     OW 4937   0.638   3.415   1.528
 1601SOL    HW1 4938   0.640   3.413   1.432
 1601SOL    HW2 4939   0.550   3.446   1.550
 1602SOL     OW 4940   2.045   2.977   1.583
 1602SOL    HW1 4941   2.074   3.018   1.502
 1602SOL    HW2 4942   1.978   2.914   1.556
 1603SOL     OW 4943   3.593   1.450   2.055
 1603SOL    HW1 4944   3.578   1.382   2.121
 1603SOL    HW2 4945   3.670   1.419   2.006
 1604SOL     OW 4946   0.257   1.808   1.255
 1604SOL    HW1 4947   0.273   1.839   1.344
 1604SOL    HW2 4948   0.211   1.725   1.266
 1605SOL     OW 4949   3.393   3.351   1.203
 1605SOL    HW1 4950   3.407   3.438   1.239
 1605SOL    HW2 4951   3.301   3.332   1.220
 1606SOL     OW 4952   0.144   3.353   2.117
 1606SOL    HW1 4953   0.079   3.410   2.156
 1606SOL    HW2 4954   0.169   3.293   2.187
 1607SOL     OW 4955   2.563   0.290   0.176
 1607SOL    HW1 4956   2.485   0.260   0.222
 1607SOL    HW2 4957   2.589   0.216   0.121
 1608SOL     OW 4958   0.800   2.534   2.796
 1608SOL    HW1 4959   0.766   2.514   2.709
 1608SOL    HW2 4960   0.856   2.459   2.818
 1609SOL     OW 4961   3.048   0.710   1.243
 1609SOL    HW1 4962   2.993   0.685   1.317
 1609SOL    HW2 4963   3.038   0.638   1.180
 1610SOL     OW 4964   0.089   2.807   2.045
 1610SOL    HW1 4965   0.020   2.767   1.993
 1610SOL    HW2 4966   0.058   2.895   2.063
 1611SOL     OW 4967   0.628   0.444   0.498
 1611SOL    HW1 4968   0.657   0.424   0.587
 1611SOL    HW2 4969   0.533   0.440   0.502
 1612SOL     OW 4970   1.409   2.373   1.960
 1612SOL    HW1 4971   1.416   2.465   1.987
 1612SOL    HW2 4972   1.496   2.337   1.977
 1613SOL     OW 4973   3.083   3.285   1.261
 1613SOL    HW1 4974   2.992   3.313   1.278
 1613SOL    HW2 4975   3.126   3.290   1.346
 1614SOL     OW 4976   0.201   0.428   0.535
 1614SOL    HW1 4977   0.223   0.343   0.573
 1614SOL    HW2 4978   0.272   0.447   0.474
 1615SOL     OW 4979   2.066   3.657   3.276
 1615SOL    HW1 4980   2.151   3.700   3.267
 1615SOL    HW2 4981   2.004   3.729   3.292
 1616SOL     OW 4982   0.278   3.957   1.078
 1616SOL    HW1 4983   0.206   4.010   1.112
 1616SOL    HW2 4984   0.281   3.881   1.135
 1617SOL     OW 4985   1.408   0.041   2.107
 1617SOL    HW1 4986   1.489   0.063   2.153
 1617SOL    HW2 4987   1.379  -0.041   2.147
 1618SOL     OW 4988   3.176   3.605   0.794
 1618SOL    HW1 4989   3.193   3.678   0.854
 1618SOL    HW2 4990   3.186   3.643   0.707
 1619SOL     OW 4991   3.662   1.501   3.752
 1619SOL    HW1 4992   3.654   1.472   3.843
 1619SOL    HW2 4993   3.607   1.442   3.702
 1620SOL     OW 4994   3.413   0.603   3.859
 1620SOL    HW1 4995   3.373   0.687   3.836
 1620SOL    HW2 4996   3.430   0.561   3.775
 1621SOL     OW 4997   2.634   0.021   0.688
 1621SOL    HW1 4998   2.669   0.067   0.764
 1621SOL    HW2 4999   2.664  -0.069   0.698
 1622SOL     OW 5000   1.687   2.877   0.190
 1622SOL    HW1 5001   1.595   2.867   0.168
 1622SOL    HW2 5002   1.733   2.866   0.107
 1623SOL     OW 5003   1.531   2.007   1.700
 1623SOL    HW1 5004   1.498   2.050   1.779
 1623SOL    HW2 5005   1.456   2.006   1.640
 1624SOL     OW 5006   3.593   0.572   0.268
 1624SOL    HW1 5007   3.664   0.568   0.204
 1624SOL    HW2 5008   3.517   0.602   0.218
 1625SOL     OW 5009   1.235   3.670   3.936
 1625SOL    HW1 5010   1.224   3.762   3.909
 1625SOL    HW2 5011   1.221   3.620   3.856
 1626SOL     OW 5012   1.529   3.609   0.903
 1626SOL    HW1 5013   1.445   3.576   0.871
 1626SOL    HW2 5014   1.538   3.696   0.864
 1627SOL     OW 5015   3.573   3.602   0.273
 1627SOL    HW1 5016   3.599   3.594   0.182
 1627SOL    HW2 5017   3.586   3.514   0.309
 1628SOL     OW 5018   2.241   0.566   3.604
 1628SOL    HW1 5019   2.263   0.644   3.655
 1628SOL    HW2 5020   2.317   0.508   3.614
 1629SOL     OW 5021   3.351   0.600   1.533
 1629SOL    HW1 5022   3.405   0.531   1.572
 1629SOL    HW2 5023   3.396   0.623   1.452
 1630SOL     OW 5024   1.441   2.622   2.277
 1630SOL    HW1 5025   1.526   2.648   2.242
 1630SOL    HW2 5026   1.384   2.697   2.260
 1631SOL     OW 5027   3.784   0.757   1.744
 1631SOL    HW1 5028   3.804   0.831   1.801
 1631SOL    HW2 5029   3.708   0.785   1.694
 1632SOL     OW 5030   2.928   3.822   1.145
 1632SOL    HW1 5031   2.996   3.760   1.171
 1632SOL    HW2 5032   2.953   3.850   1.057
 1633SOL     OW 5033   1.189   2.125   0.062
 1633SOL    HW1 5034   1.123   2.194   0.066
 1633SOL    HW2 5035   1.230   2.136  -0.024
 1634SOL     OW 5036   0.116   3.606   3.793
 1634SOL    HW1 5037   0.067   3.559   3.861
 1634SOL    HW2 5038   0.196   3.554   3.782
 1635SOL     OW 5039   1.754   3.376   2.758
 1635SOL    HW1 5040   1.798   3.294   2.734
 1635SOL    HW2 5041   1.705   3.401   2.680
 1636SOL     OW 5042   3.855   3.006   0.030
 1636SOL    HW1 5043   3.891   3.046   0.109
 1636SOL    HW2 5044   3.854   3.077  -0.034
 1637SOL     OW 5045   3.077   2.115   1.442
 1637SOL    HW1 5046   3.016   2.081   1.508
 1637SOL    HW2 5047   3.159   2.127   1.489
 1638SOL     OW 5048   1.189   2.651   1.415
 1638SOL    HW1 5049   1.136   2.724   1.449
 1638SOL    HW2 5050   1.248   2.692   1.352
 1639SOL     OW 5051   2.923   1.902   3.654
 1639SOL    HW1 5052   2.932   1.883   3.747
 1639SOL    HW2 5053   2.845   1.958   3.648
 1640SOL     OW 5054   2.209   3.665   3.722
 1640SOL    HW1 5055   2.256   3.707   3.650
 1640SOL    HW2 5056   2.183   3.737   3.779
 1641SOL     OW 5057   0.052   1.157   3.786
 1641SOL    HW1 5058  -0.039   1.181   3.771
 1641SOL    HW2 5059   0.099   1.197   3.713
 1642SOL     OW 5060   1.975   0.490   1.719
 1642SOL    HW1 5061   1.905   0.426   1.714
 1642SOL    HW2 5062   1.956   0.541   1.797
 1643SOL     OW 5063  -0.016   0.684   3.479
 1643SOL    HW1 5064   0.040   0.607   3.472
 1643SOL    HW2 5065  -0.002   0.732   3.397
 1644SOL     OW 5066   1.757   0.550   0.326
 1644SOL    HW1 5067   1.797   0.617   0.270
 1644SOL    HW2 5068   1.807   0.471   0.307
 1645SOL     OW 5069   2.452   3.102   2.888
 1645SOL    HW1 5070   2.400   3.105   2.968
 1645SOL    HW2 5071   2.528   3.157   2.906
 1646SOL     OW 5072   3.471   3.484   3.580
 1646SOL    HW1 5073   3.431   3.413   3.531
 1646SOL    HW2 5074   3.516   3.442   3.653
 1647SOL     OW 5075   3.854   0.174   0.930
 1647SOL    HW1 5076   3.771   0.220   0.915
 1647SOL    HW2 5077   3.847   0.141   1.020
 1648SOL     OW 5078   0.621   0.910   0.315
 1648SOL    HW1 5079   0.599   0.997   0.281
 1648SOL    HW2 5080   0.671   0.927   0.395
 1649SOL     OW 5081   0.752   0.957   3.219
 1649SOL    HW1 5082   0.728   1.023   3.154
 1649SOL    HW2 5083   0.668   0.930   3.257
 1650SOL     OW 5084   2.766   2.183   2.564
 1650SOL    HW1 5085   2.809   2.107   2.525
 1650SOL    HW2 5086   2.768   2.165   2.658
 1651SOL     OW 5087   0.197   3.596   2.633
 1651SOL    HW1 5088   0.186   3.690   2.619
 1651SOL    HW2 5089   0.262   3.590   2.703
 1652SOL     OW 5090   2.855   3.396   1.377
 1652SOL    HW1 5091   2.878   3.478   1.421
 1652SOL    HW2 5092   2.763   3.407   1.351
 1653SOL     OW 5093   1.321   2.374   0.751
 1653SOL    HW1 5094   1.406   2.415   0.768
 1653SOL    HW2 5095   1.309   2.383   0.657
 1654SOL     OW 5096   1.017   0.557   1.913
 1654SOL    HW1 5097   0.944   0.612   1.941
 1654SOL    HW2 5098   1.095   0.601   1.948
 1655SOL     OW 5099   1.551   2.048   0.384
 1655SOL    HW1 5100   1.643   2.025   0.375
 1655SOL    HW2 5101   1.551   2.133   0.429
 1656SOL     OW 5102   1.182   2.301   3.050
 1656SOL    HW1 5103   1.241   2.256   2.990
 1656SOL    HW2 5104   1.160   2.235   3.116
 1657SOL     OW 5105   2.812   3.046   3.790
 1657SOL    HW1 5106   2.856   2.972   3.751
 1657SOL    HW2 5107   2.880   3.114   3.797
 1658SOL     OW 5108   2.722   2.463   2.532
 1658SOL    HW1 5109   2.756   2.383   2.571
 1658SOL    HW2 5110   2.756   2.463   2.443
 1659SOL     OW 5111   0.254   2.593   2.943
 1659SOL    HW1 5112   0.244   2.515   2.998
 1659SOL    HW2 5113   0.300   2.656   2.999
 1660SOL     OW 5114   3.919   1.064   2.577
 1660SOL    HW1 5115   3.854   0.999   2.604
 1660SOL    HW2 5116   3.990   1.055   2.641
 1661SOL     OW 5117   1.344   1.874   3.617
 1661SOL    HW1 5118   1.413   1.814   3.645
 1661SOL    HW2 5119   1.365   1.894   3.526
 1662SOL     OW 5120   3.839   1.295   1.003
 1662SOL    HW1 5121   3.746   1.310   0.988
 1662SOL    HW2 5122   3.880   1.315   0.919
 1663SOL     OW 5123   2.474   1.171   3.265
 1663SOL    HW1 5124   2.441   1.148   3.178
 1663SOL    HW2 5125   2.484   1.088   3.310
 1664SOL     OW 5126   0.147   2.243   1.240
 1664SOL    HW1 5127   0.182   2.235   1.151
 1664SOL    HW2 5128   0.200   2.313   1.279
 1665SOL     OW 5129   1.539   0.100   3.662
 1665SOL    HW1 5130   1.554   0.015   3.621
 1665SOL    HW2 5131   1.475   0.143   3.604
 1666SOL     OW 5132   2.795   0.179   2.869
 1666SOL    HW1 5133   2.772   0.132   2.949
 1666SOL    HW2 5134   2.890   0.176   2.866
 1667SOL     OW 5135   1.896   0.455   2.049
 1667SOL    HW1 5136   1.825   0.433   2.109
 1667SOL    HW2 5137   1.945   0.374   2.039
 1668SOL     OW 5138   2.118   2.873   2.146
 1668SOL    HW1 5139   2.091   2.951   2.194
 1668SOL    HW2 5140   2.123   2.902   2.054
 1669SOL     OW 5141   0.301   3.834   3.203
 1669SOL    HW1 5142   0.319   3.927   3.221
 1669SOL    HW2 5143   0.217   3.818   3.245
 1670SOL     OW 5144   0.692   2.767   3.316
 1670SOL    HW1 5145   0.602   2.737   3.330
 1670SOL    HW2 5146   0.723   2.791   3.403
 1671SOL     OW 5147   2.434   2.331   1.893
 1671SOL    HW1 5148   2.446   2.351   1.986
 1671SOL    HW2 5149   2.426   2.417   1.851
 1672SOL     OW 5150   3.353   1.249   0.644
 1672SOL    HW1 5151   3.316   1.265   0.730
 1672SOL    HW2 5152   3.418   1.180   0.658
 1673SOL     OW 5153   3.759   1.960   0.462
 1673SOL    HW1 5154   3.679   1.941   0.510
 1673SOL    HW2 5155   3.827   1.913   0.510
 1674SOL     OW 5156   0.604   1.949   1.442
 1674SOL    HW1 5157   0.663   1.991   1.379
 1674SOL    HW2 5158   0.663   1.913   1.508
 1675SOL     OW 5159   3.813   2.581   0.486
 1675SOL    HW1 5160   3.861   2.567   0.405
 1675SOL    HW2 5161   3.726   2.609   0.458
 1676SOL     OW 5162   1.119   3.309   2.205
 1676SOL    HW1 5163   1.055   3.355   2.149
 1676SOL    HW2 5164   1.114   3.354   2.289
 1677SOL     OW 5165   3.811   3.372   1.370
 1677SOL    HW1 5166   3.878   3.387   1.436
 1677SOL    HW2 5167   3.749   3.444   1.381
 1678SOL     OW 5168   1.932   3.469   0.288
 1678SOL    HW1 5169   1.938   3.378   0.259
 1678SOL    HW2 5170   1.891   3.464   0.374
 1679SOL     OW 5171   1.863   1.744   0.823
 1679SOL    HW1 5172   1.944   1.790   0.846
 1679SOL    HW2 5173   1.804   1.812   0.793
 1680SOL     OW 5174   0.615   0.115   0.939
 1680SOL    HW1 5175   0.554   0.053   0.978
 1680SOL    HW2 5176   0.636   0.176   1.010
 1681SOL     OW 5177   2.404   1.383   2.994
 1681SOL    HW1 5178   2.397   1.314   2.929
 1681SOL    HW2 5179   2.329   1.369   3.052
 1682SOL     OW 5180   1.682   3.384   3.360
 1682SOL    HW1 5181   1.730   3.319   3.412
 1682SOL    HW2 5182   1.641   3.333   3.290
 1683SOL     OW 5183   2.764   2.172   0.203
 1683SOL    HW1 5184   2.728   2.250   0.245
 1683SOL    HW2 5185   2.697   2.105   0.215
 1684SOL     OW 5186   3.708   0.477   1.889
 1684SOL    HW1 5187   3.736   0.550   1.833
 1684SOL    HW2 5188   3.790   0.438   1.919
 1685SOL     OW 5189   3.010   1.203   0.966
 1685SOL    HW1 5190   3.015   1.210   1.061
 1685SOL    HW2 5191   2.980   1.288   0.937
 1686SOL     OW 5192   2.200   3.111   0.825
 1686SOL    HW1 5193   2.214   3.127   0.918
 1686SOL    HW2 5194   2.264   3.167   0.781
 1687SOL     OW 5195   2.618   2.394   2.954
 1687SOL    HW1 5196   2.675   2.378   2.879
 1687SOL    HW2 5197   2.553   2.323   2.950
 1688SOL     OW 5198   2.126   2.294   1.305
 1688SOL    HW1 5199   2.111   2.386   1.327
 1688SOL    HW2 5200   2.069   2.245   1.364
 1689SOL     OW 5201   0.937   0.754   0.301
 1689SOL    HW1 5202   0.977   0.829   0.345
 1689SOL    HW2 5203   0.848   0.782   0.280
 1690SOL     OW 5204   3.476   0.428   3.075
 1690SOL    HW1 5205   3.479   0.477   3.157
 1690SOL    HW2 5206   3.537   0.474   3.017
 1691SOL     OW 5207   2.267   1.501   3.240
 1691SOL    HW1 5208   2.300   1.581   3.281
 1691SOL    HW2 5209   2.194   1.529   3.186
 1692SOL     OW 5210   2.182   0.012   2.255
 1692SOL    HW1 5211   2.095  -0.026   2.265
 1692SOL    HW2 5212   2.171   0.105   2.276
 1693SOL     OW 5213   0.768   0.705   2.023
 1693SOL    HW1 5214   0.688   0.667   2.058
 1693SOL    HW2 5215   0.820   0.727   2.100
 1694SOL     OW 5216   2.562   1.653   0.815
 1694SOL    HW1 5217   2.562   1.710   0.738
 1694SOL    HW2 5218   2.506   1.579   0.790
 1695SOL     OW 5219   2.617   3.022   2.503
 1695SOL    HW1 5220   2.702   3.036   2.459
 1695SOL    HW2 5221   2.595   2.931   2.480
 1696SOL     OW 5222   2.694   1.209   0.290
 1696SOL    HW1 5223   2.693   1.127   0.239
 1696SOL    HW2 5224   2.780   1.247   0.272
 1697SOL     OW 5225   0.878   0.102   0.809
 1697SOL    HW1 5226   0.887   0.016   0.767
 1697SOL    HW2 5227   0.787   0.104   0.839
 1698SOL     OW 5228   2.362   2.885   3.521
 1698SOL    HW1 5229   2.271   2.915   3.522
 1698SOL    HW2 5230   2.406   2.937   3.588
 1699SOL     OW 5231   3.282   1.820   2.162
 1699SOL    HW1 5232   3.220   1.886   2.129
 1699SOL    HW2 5233   3.265   1.816   2.256
 1700SOL     OW 5234   2.170   2.214   3.512
 1700SOL    HW1 5235   2.141   2.134   3.556
 1700SOL    HW2 5236   2.093   2.270   3.509
 1701SOL     OW 5237   2.585   0.831   0.503
 1701SOL    HW1 5238   2.513   0.783   0.544
 1701SOL    HW2 5239   2.620   0.887   0.572
 1702SOL     OW 5240   3.380   1.119   1.973
 1702SOL    HW1 5241   3.351   1.111   2.064
 1702SOL    HW2 5242   3.368   1.212   1.953
 1703SOL     OW 5243   0.930   1.260   1.750
 1703SOL    HW1 5244   0.961   1.301   1.669
 1703SOL    HW2 5245   0.899   1.174   1.722
 1704SOL     OW 5246   1.332   2.121   3.730
 1704SOL    HW1 5247   1.315   2.049   3.668
 1704SOL    HW2 5248   1.285   2.195   3.693
 1705SOL     OW 5249   2.673   3.960   2.398
 1705SOL    HW1 5250   2.593   3.933   2.353
 1705SOL    HW2 5251   2.733   3.987   2.329
 1706SOL     OW 5252   0.945   3.770   0.375
 1706SOL    HW1 5253   0.959   3.676   0.385
 1706SOL    HW2 5254   1.030   3.803   0.344
 1707SOL     OW 5255   2.741   1.244   3.038
 1707SOL    HW1 5256   2.821   1.295   3.054
 1707SOL    HW2 5257   2.670   1.300   3.070
 1708SOL     OW 5258   2.214   0.739   1.418
 1708SOL    HW1 5259   2.273   0.665   1.406
 1708SOL    HW2 5260   2.202   0.745   1.513
 1709SOL     OW 5261   0.101   2.624   2.533
 1709SOL    HW1 5262   0.071   2.607   2.443
 1709SOL    HW2 5263   0.022   2.653   2.579
 1710SOL     OW 5264   3.064   1.221   3.974
 1710SOL    HW1 5265   3.113   1.139   3.969
 1710SOL    HW2 5266   3.097   1.272   3.900
 1711SOL     OW 5267   0.233   2.809   2.788
 1711SOL    HW1 5268   0.232   2.717   2.813
 1711SOL    HW2 5269   0.319   2.823   2.749
 1712SOL     OW 5270   3.325   2.758   0.317
 1712SOL    HW1 5271   3.350   2.821   0.250
 1712SOL    HW2 5272   3.283   2.811   0.386
 1713SOL     OW 5273   3.019   2.942   2.770
 1713SOL    HW1 5274   2.953   3.004   2.802
 1713SOL    HW2 5275   2.971   2.861   2.755
 1714SOL     OW 5276   2.947   1.744   1.106
 1714SOL    HW1 5277   2.903   1.749   1.191
 1714SOL    HW2 5278   2.951   1.834   1.076
 1715SOL     OW 5279   2.316   2.617   3.536
 1715SOL    HW1 5280   2.352   2.705   3.545
 1715SOL    HW2 5281   2.284   2.613   3.446
 1716SOL     OW 5282   3.103   1.628   0.325
 1716SOL    HW1 5283   3.055   1.635   0.407
 1716SOL    HW2 5284   3.161   1.552   0.338
 1717SOL     OW 5285   1.649   2.264   3.642
 1717SOL    HW1 5286   1.574   2.298   3.591
 1717SOL    HW2 5287   1.697   2.342   3.668
 1718SOL     OW 5288   2.387   2.078   3.691
 1718SOL    HW1 5289   2.368   1.986   3.678
 1718SOL    HW2 5290   2.305   2.123   3.669
 1719SOL     OW 5291   2.475   2.477   2.619
 1719SOL    HW1 5292   2.449   2.385   2.628
 1719SOL    HW2 5293   2.567   2.473   2.593
 1720SOL     OW 5294   0.314   0.771   2.874
 1720SOL    HW1 5295   0.406   0.798   2.876
 1720SOL    HW2 5296   0.304   0.712   2.949
 1721SOL     OW 5297   1.265   1.474   2.451
 1721SOL    HW1 5298   1.314   1.393   2.464
 1721SOL    HW2 5299   1.316   1.540   2.500
 1722SOL     OW 5300   2.169   3.558   2.940
 1722SOL    HW1 5301   2.253   3.590   2.972
 1722SOL    HW2 5302   2.119   3.540   3.019
 1723SOL     OW 5303   3.803   0.004   0.401
 1723SOL    HW1 5304   3.840   0.079   0.355
 1723SOL    HW2 5305   3.827   0.016   0.492
 1724SOL     OW 5306   0.958   1.037   3.997
 1724SOL    HW1 5307   0.967   0.952   3.952
 1724SOL    HW2 5308   0.975   1.102   3.929
 1725SOL     OW 5309   3.865   3.090   2.543
 1725SOL    HW1 5310   3.925   3.165   2.541
 1725SOL    HW2 5311   3.791   3.121   2.596
 1726SOL     OW 5312   1.802   1.894   2.342
 1726SOL    HW1 5313   1.843   1.808   2.347
 1726SOL    HW2 5314   1.845   1.937   2.268
 1727SOL     OW 5315   3.834   0.026   2.558
 1727SOL    HW1 5316   3.841   0.041   2.464
 1727SOL    HW2 5317   3.924   0.030   2.590
 1728SOL     OW 5318   0.100   3.870   0.240
 1728SOL    HW1 5319   0.109   3.949   0.293
 1728SOL    HW2 5320   0.136   3.801   0.295
 1729SOL     OW 5321   1.799   3.655   1.965
 1729SOL    HW1 5322   1.805   3.559   1.964
 1729SOL    HW2 5323   1.890   3.684   1.963
 1730SOL     OW 5324   2.601   2.529   3.399
 1730SOL    HW1 5325   2.603   2.574   3.315
 1730SOL    HW2 5326   2.511   2.539   3.430
 1731SOL     OW 5327   0.146   0.701   2.656
 1731SOL    HW1 5328   0.219   0.739   2.705
 1731SOL    HW2 5329   0.186   0.671   2.574
 1732SOL     OW 5330   3.490   0.847   3.405
 1732SOL    HW1 5331   3.456   0.929   3.443
 1732SOL    HW2 5332   3.570   0.830   3.455
 1733SOL     OW 5333   1.818   0.764   2.566
 1733SOL    HW1 5334   1.751   0.701   2.537
 1733SOL    HW2 5335   1.885   0.759   2.498
 1734SOL     OW 5336   3.716   3.685   1.050
 1734SOL    HW1 5337   3.658   3.676   0.975
 1734SOL    HW2 5338   3.696   3.609   1.105
 1735SOL     OW 5339   2.189   3.296   0.505
 1735SOL    HW1 5340   2.183   3.336   0.592
 1735SOL    HW2 5341   2.113   3.237   0.500
 1736SOL     OW 5342   1.631   1.630   3.389
 1736SOL    HW1 5343   1.564   1.562   3.386
 1736SOL    HW2 5344   1.660   1.638   3.299
 1737SOL     OW 5345   0.063   0.618   1.637
 1737SOL    HW1 5346  -0.015   0.661   1.673
 1737SOL    HW2 5347   0.097   0.680   1.573
 1738SOL     OW 5348   2.986   1.354   3.244
 1738SOL    HW1 5349   2.982   1.271   3.291
 1738SOL    HW2 5350   3.079   1.367   3.225
 1739SOL     OW 5351   2.562   3.276   1.087
 1739SOL    HW1 5352   2.544   3.246   1.176
 1739SOL    HW2 5353   2.506   3.222   1.031
 1740SOL     OW 5354   3.134   2.067   2.105
 1740SOL    HW1 5355   3.039   2.068   2.110
 1740SOL    HW2 5356   3.163   2.108   2.187
 1741SOL     OW 5357   0.673   3.094   1.656
 1741SOL    HW1 5358   0.670   3.157   1.584
 1741SOL    HW2 5359   0.581   3.076   1.676
 1742SOL     OW 5360   2.505   0.302   1.587
 1742SOL    HW1 5361   2.420   0.331   1.553
 1742SOL    HW2 5362   2.495   0.303   1.682
 1743SOL     OW 5363   1.535   0.082   1.667
 1743SOL    HW1 5364   1.440   0.090   1.673
 1743SOL    HW2 5365   1.550   0.011   1.605
 1744SOL     OW 5366   1.105   3.775   3.363
 1744SOL    HW1 5367   1.130   3.839   3.297
 1744SOL    HW2 5368   1.010   3.785   3.371
 1745SOL     OW 5369   3.746   2.091   2.534
 1745SOL    HW1 5370   3.810   2.084   2.604
 1745SOL    HW2 5371   3.678   2.028   2.557
 1746SOL     OW 5372   1.404   0.361   1.592
 1746SOL    HW1 5373   1.449   0.307   1.655
 1746SOL    HW2 5374   1.317   0.322   1.585
 1747SOL     OW 5375   2.410   0.687   3.876
 1747SOL    HW1 5376   2.485   0.736   3.908
 1747SOL    HW2 5377   2.346   0.753   3.851
 1748SOL     OW 5378   0.465   1.239   0.283
 1748SOL    HW1 5379   0.520   1.266   0.210
 1748SOL    HW2 5380   0.386   1.204   0.242
 1749SOL     OW 5381   2.891   2.393   2.774
 1749SOL    HW1 5382   2.953   2.412   2.703
 1749SOL    HW2 5383   2.846   2.476   2.789
 1750SOL     OW 5384   2.204   2.758   0.137
 1750SOL    HW1 5385   2.127   2.744   0.083
 1750SOL    HW2 5386   2.177   2.824   0.201
 1751SOL     OW 5387   3.236   3.822   1.361
 1751SOL    HW1 5388   3.168   3.880   1.395
 1751SOL    HW2 5389   3.301   3.881   1.322
 1752SOL     OW 5390   1.862   0.554   2.815
 1752SOL    HW1 5391   1.862   0.649   2.824
 1752SOL    HW2 5392   1.948   0.527   2.847
 1753SOL     OW 5393   3.906   2.346   0.984
 1753SOL    HW1 5394   3.857   2.371   1.063
 1753SOL    HW2 5395   3.994   2.327   1.015
 1754SOL     OW 5396   0.886   0.564   1.409
 1754SOL    HW1 5397   0.895   0.592   1.317
 1754SOL    HW2 5398   0.925   0.477   1.411
 1755SOL     OW 5399   2.127   1.978   3.621
 1755SOL    HW1 5400   2.047   1.953   3.668
 1755SOL    HW2 5401   2.178   1.897   3.615
 1756SOL     OW 5402   2.231   0.884   3.841
 1756SOL    HW1 5403   2.277   0.957   3.882
 1756SOL    HW2 5404   2.145   0.883   3.882
 1757SOL     OW 5405   3.387   0.597   3.599
 1757SOL    HW1 5406   3.401   0.688   3.575
 1757SOL    HW2 5407   3.292   0.584   3.590
 1758SOL     OW 5408   3.105   1.695   1.396
 1758SOL    HW1 5409   3.077   1.613   1.438
 1758SOL    HW2 5410   3.025   1.748   1.391
 1759SOL     OW 5411   3.660   3.921   2.766
 1759SOL    HW1 5412   3.707   3.974   2.701
 1759SOL    HW2 5413   3.693   3.953   2.850
 1760SOL     OW 5414   0.705   2.735   2.960
 1760SOL    HW1 5415   0.739   2.747   3.049
 1760SOL    HW2 5416   0.751   2.658   2.927
 1761SOL     OW 5417   3.904   1.737   0.532
 1761SOL    HW1 5418   3.828   1.694   0.571
 1761SOL    HW2 5419   3.975   1.719   0.594
 1762SOL     OW 5420   3.616   2.346   0.198
 1762SOL    HW1 5421   3.547   2.333   0.263
 1762SOL    HW2 5422   3.697   2.322   0.243
 1763SOL     OW 5423   3.650   2.438   3.770
 1763SOL    HW1 5424   3.666   2.365   3.709
 1763SOL    HW2 5425   3.572   2.412   3.819
 1764SOL     OW 5426   1.388   1.677   2.626
 1764SOL    HW1 5427   1.337   1.757   2.643
 1764SOL    HW2 5428   1.457   1.706   2.567
 1765SOL     OW 5429   3.392   3.073   2.838
 1765SOL    HW1 5430   3.406   3.166   2.856
 1765SOL    HW2 5431   3.385   3.068   2.743
 1766SOL     OW 5432   1.259   3.822   3.596
 1766SOL    HW1 5433   1.207   3.803   3.517
 1766SOL    HW2 5434   1.350   3.805   3.569
 1767SOL     OW 5435   2.609   3.904   3.562
 1767SOL    HW1 5436   2.691   3.939   3.597
 1767SOL    HW2 5437   2.628   3.811   3.547
 1768SOL     OW 5438   3.856   2.796   2.575
 1768SOL    HW1 5439   3.768   2.803   2.539
 1768SOL    HW2 5440   3.890   2.885   2.573
 1769SOL     OW 5441   2.251   0.784   2.772
 1769SOL    HW1 5442   2.246   0.707   2.716
 1769SOL    HW2 5443   2.288   0.852   2.716
 1770SOL     OW 5444   1.296   0.479   0.007
 1770SOL    HW1 5445   1.226   0.469   0.071
 1770SOL    HW2 5446   1.376   0.482   0.060
 1771SOL     OW 5447   2.235   0.217   3.043
 1771SOL    HW1 5448   2.149   0.250   3.071
 1771SOL    HW2 5449   2.293   0.236   3.118
 1772SOL     OW 5450   0.208   2.264   0.959
 1772SOL    HW1 5451   0.233   2.205   0.888
 1772SOL    HW2 5452   0.242   2.350   0.933
 1773SOL     OW 5453   2.885   0.868   3.941
 1773SOL    HW1 5454   2.889   0.850   3.847
 1773SOL    HW2 5455   2.837   0.794   3.978
 1774SOL     OW 5456   0.500   2.737   0.446
 1774SOL    HW1 5457   0.573   2.691   0.404
 1774SOL    HW2 5458   0.467   2.675   0.511
 1775SOL     OW 5459   3.759   1.745   3.002
 1775SOL    HW1 5460   3.846   1.784   3.011
 1775SOL    HW2 5461   3.772   1.653   3.027
 1776SOL     OW 5462   2.230   0.123   1.009
 1776SOL    HW1 5463   2.319   0.106   1.040
 1776SOL    HW2 5464   2.206   0.207   1.049
 1777SOL     OW 5465   1.015   2.401   3.810
 1777SOL    HW1 5466   1.006   2.403   3.905
 1777SOL    HW2 5467   0.925   2.405   3.777
 1778SOL     OW 5468   0.591   1.034   0.781
 1778SOL    HW1 5469   0.567   1.110   0.727
 1778SOL    HW2 5470   0.667   1.064   0.831
 1779SOL     OW 5471   2.688   2.041   3.609
 1779SOL    HW1 5472   2.659   2.133   3.606
 1779SOL    HW2 5473   2.637   2.002   3.679
 1780SOL     OW 5474   0.574   0.668   2.727
 1780SOL    HW1 5475   0.590   0.648   2.635
 1780SOL    HW2 5476   0.556   0.762   2.729
 1781SOL     OW 5477   0.073   3.779   2.311
 1781SOL    HW1 5478   0.002   3.717   2.295
 1781SOL    HW2 5479   0.132   3.769   2.236
 1782SOL     OW 5480   0.256   2.052   0.779
 1782SOL    HW1 5481   0.192   1.995   0.823
 1782SOL    HW2 5482   0.340   2.010   0.794
 1783SOL     OW 5483   1.110   3.263   0.441
 1783SOL    HW1 5484   1.038   3.282   0.500
 1783SOL    HW2 5485   1.153   3.187   0.480
 1784SOL     OW 5486   1.049   2.909   3.407
 1784SOL    HW1 5487   1.071   2.991   3.363
 1784SOL    HW2 5488   0.970   2.929   3.457
 1785SOL     OW 5489   3.961   2.279   0.515
 1785SOL    HW1 5490   3.868   2.272   0.490
 1785SOL    HW2 5491   3.962   2.257   0.608
 1786SOL     OW 5492   0.557   3.562   2.967
 1786SOL    HW1 5493   0.568   3.519   3.053
 1786SOL    HW2 5494   0.603   3.645   2.975
 1787SOL     OW 5495   2.729   0.689   1.141
 1787SOL    HW1 5496   2.685   0.718   1.220
 1787SOL    HW2 5497   2.794   0.626   1.172
 1788SOL     OW 5498   2.844   1.740   3.458
 1788SOL    HW1 5499   2.766   1.686   3.468
 1788SOL    HW2 5500   2.854   1.784   3.542
 1789SOL     OW 5501   0.460   0.701   1.566
 1789SOL    HW1 5502   0.400   0.761   1.521
 1789SOL    HW2 5503   0.500   0.755   1.634
 1790SOL     OW 5504   3.197   2.470   0.447
 1790SOL    HW1 5505   3.159   2.529   0.383
 1790SOL    HW2 5506   3.204   2.523   0.527
 1791SOL     OW 5507   1.962   2.384   3.153
 1791SOL    HW1 5508   1.978   2.461   3.207
 1791SOL    HW2 5509   2.048   2.345   3.140
 1792SOL     OW 5510   1.188   1.802   0.040
 1792SOL    HW1 5511   1.272   1.841   0.065
 1792SOL    HW2 5512   1.126   1.874   0.044
 1793SOL     OW 5513   3.305   0.102   2.646
 1793SOL    HW1 5514   3.331   0.171   2.707
 1793SOL    HW2 5515   3.256   0.040   2.699
 1794SOL     OW 5516   0.218   2.765   1.712
 1794SOL    HW1 5517   0.166   2.700   1.759
 1794SOL    HW2 5518   0.214   2.736   1.620
 1795SOL     OW 5519   3.020   0.379   1.245
 1795SOL    HW1 5520   3.096   0.343   1.290
 1795SOL    HW2 5521   2.975   0.430   1.311
 1796SOL     OW 5522   3.376   3.908   2.249
 1796SOL    HW1 5523   3.399   4.001   2.238
 1796SOL    HW2 5524   3.442   3.874   2.308
 1797SOL     OW 5525   0.204   1.102   1.120
 1797SOL    HW1 5526   0.115   1.069   1.132
 1797SOL    HW2 5527   0.231   1.067   1.036
 1798SOL     OW 5528   1.357   2.366   2.366
 1798SOL    HW1 5529   1.373   2.449   2.321
 1798SOL    HW2 5530   1.432   2.356   2.425
 1799SOL     OW 5531   3.598   3.912   3.683
 1799SOL    HW1 5532   3.559   3.835   3.640
 1799SOL    HW2 5533   3.683   3.881   3.714
 1800SOL     OW 5534   0.535   3.819   0.056
 1800SOL    HW1 5535   0.603   3.806  -0.011
 1800SOL    HW2 5536   0.584   3.833   0.137
 1801SOL     OW 5537   2.779   0.613   1.850
 1801SOL    HW1 5538   2.794   0.670   1.774
 1801SOL    HW2 5539   2.843   0.642   1.914
 1802SOL     OW 5540   0.874   3.799   2.598
 1802SOL    HW1 5541   0.919   3.743   2.661
 1802SOL    HW2 5542   0.842   3.739   2.531
 1803SOL     OW 5543   0.203   3.706   2.089
 1803SOL    HW1 5544   0.272   3.647   2.059
 1803SOL    HW2 5545   0.135   3.699   2.022
 1804SOL     OW 5546   2.864   2.675   2.756
 1804SOL    HW1 5547   2.875   2.713   2.669
 1804SOL    HW2 5548   2.792   2.724   2.795
 1805SOL     OW 5549   2.269   0.616   2.373
 1805SOL    HW1 5550   2.294   0.540   2.321
 1805SOL    HW2 5551   2.352   0.655   2.401
 1806SOL     OW 5552   0.145   1.679   0.684
 1806SOL    HW1 5553   0.228   1.632   0.690
 1806SOL    HW2 5554   0.102   1.663   0.768
 1807SOL     OW 5555   2.000   3.366   0.760
 1807SOL    HW1 5556   1.946   3.445   0.765
 1807SOL    HW2 5557   1.954   3.310   0.697
 1808SOL     OW 5558   3.166   2.131   3.081
 1808SOL    HW1 5559   3.089   2.170   3.122
 1808SOL    HW2 5560   3.150   2.037   3.084
 1809SOL     OW 5561   0.576   0.276   0.086
 1809SOL    HW1 5562   0.509   0.304   0.024
 1809SOL    HW2 5563   0.528   0.254   0.166
 1810SOL     OW 5564   0.489   1.924   0.759
 1810SOL    HW1 5565   0.444   1.860   0.813
 1810SOL    HW2 5566   0.505   1.880   0.676
 1811SOL     OW 5567   3.169   0.156   3.322
 1811SOL    HW1 5568   3.211   0.117   3.246
 1811SOL    HW2 5569   3.098   0.095   3.344
 1812SOL     OW 5570   1.948   0.372   0.389
 1812SOL    HW1 5571   1.936   0.325   0.472
 1812SOL    HW2 5572   1.983   0.306   0.329
 1813SOL     OW 5573   0.459   0.239   3.120
 1813SOL    HW1 5574   0.404   0.209   3.192
 1813SOL    HW2 5575   0.397   0.265   3.051
 1814SOL     OW 5576   1.040   2.014   3.618
 1814SOL    HW1 5577   1.120   2.032   3.569
 1814SOL    HW2 5578   1.063   1.941   3.676
 1815SOL     OW 5579   3.057   1.171   2.959
 1815SOL    HW1 5580   3.151   1.169   2.941
 1815SOL    HW2 5581   3.016   1.146   2.876
 1816SOL     OW 5582   1.996   0.172   0.226
 1816SOL    HW1 5583   2.059   0.138   0.289
 1816SOL    HW2 5584   1.927   0.106   0.223
 1817SOL     OW 5585   3.405   1.971   1.230
 1817SOL    HW1 5586   3.474   1.973   1.164
 1817SOL    HW2 5587   3.340   2.035   1.200
 1818SOL     OW 5588   0.309   2.774   3.127
 1818SOL    HW1 5589   0.312   2.863   3.159
 1818SOL    HW2 5590   0.220   2.744   3.144
 1819SOL     OW 5591   3.611   2.340   2.187
 1819SOL    HW1 5592   3.616   2.349   2.283
 1819SOL    HW2 5593   3.562   2.259   2.173
 1820SOL     OW 5594   2.131   3.065   3.548
 1820SOL    HW1 5595   2.169   3.124   3.613
 1820SOL    HW2 5596   2.059   3.022   3.594
 1821SOL     OW 5597   0.478   2.565   1.722
 1821SOL    HW1 5598   0.490   2.631   1.654
 1821SOL    HW2 5599   0.502   2.610   1.803
 1822SOL     OW 5600   2.639   1.772   0.243
 1822SOL    HW1 5601   2.694   1.754   0.320
 1822SOL    HW2 5602   2.603   1.859   0.259
 1823SOL     OW 5603   1.121   3.554   1.158
 1823SOL    HW1 5604   1.092   3.646   1.157
 1823SOL    HW2 5605   1.209   3.557   1.120
 1824SOL     OW 5606   2.177   3.360   2.719
 1824SOL    HW1 5607   2.154   3.401   2.802
 1824SOL    HW2 5608   2.118   3.399   2.655
 1825SOL     OW 5609   0.597   0.215   1.936
 1825SOL    HW1 5610   0.551   0.280   1.989
 1825SOL    HW2 5611   0.681   0.257   1.915
 1826SOL     OW 5612   2.084   1.075   2.867
 1826SOL    HW1 5613   2.091   1.011   2.796
 1826SOL    HW2 5614   2.172   1.079   2.905
 1827SOL     OW 5615   0.288   2.454   1.368
 1827SOL    HW1 5616   0.334   2.449   1.284
 1827SOL    HW2 5617   0.324   2.532   1.410
 1828SOL     OW 5618   1.107   2.842   1.644
 1828SOL    HW1 5619   1.017   2.875   1.635
 1828SOL    HW2 5620   1.104   2.787   1.722
 1829SOL     OW 5621   0.998   2.291   1.631
 1829SOL    HW1 5622   1.069   2.315   1.691
 1829SOL    HW2 5623   0.921   2.333   1.668
 1830SOL     OW 5624   3.803   1.062   0.705
 1830SOL    HW1 5625   3.708   1.055   0.715
 1830SOL    HW2 5626   3.824   0.998   0.637
 1831SOL     OW 5627   3.646   3.152   2.670
 1831SOL    HW1 5628   3.607   3.236   2.645
 1831SOL    HW2 5629   3.683   3.168   2.757
 1832SOL     OW 5630   0.420   0.433   3.658
 1832SOL    HW1 5631   0.489   0.367   3.648
 1832SOL    HW2 5632   0.465   0.516   3.644
 1833SOL     OW 5633   1.965   3.344   2.455
 1833SOL    HW1 5634   1.974   3.430   2.414
 1833SOL    HW2 5635   1.878   3.314   2.429
 1834SOL     OW 5636   2.098   0.219   3.588
 1834SOL    HW1 5637   2.170   0.223   3.651
 1834SOL    HW2 5638   2.036   0.156   3.625
 1835SOL     OW 5639   3.961   2.555   0.731
 1835SOL    HW1 5640   3.910   2.552   0.650
 1835SOL    HW2 5641   3.942   2.472   0.775
 1836SOL     OW 5642   1.610   2.419   1.343
 1836SOL    HW1 5643   1.693   2.451   1.379
 1836SOL    HW2 5644   1.579   2.490   1.288
 1837SOL     OW 5645   0.740   2.124   3.241
 1837SOL    HW1 5646   0.765   2.075   3.319
 1837SOL    HW2 5647   0.645   2.116   3.236
 1838SOL     OW 5648   3.798   0.341   0.495
 1838SOL    HW1 5649   3.839   0.408   0.441
 1838SOL    HW2 5650   3.862   0.323   0.563
 1839SOL     OW 5651   2.526   0.417   3.853
 1839SOL    HW1 5652   2.556   0.420   3.944
 1839SOL    HW2 5653   2.485   0.502   3.839
 1840SOL     OW 5654   2.140   1.085   1.352
 1840SOL    HW1 5655   2.173   1.036   1.276
 1840SOL    HW2 5656   2.098   1.162   1.314
 1841SOL     OW 5657   1.567   1.841   2.025
 1841SOL    HW1 5658   1.540   1.784   1.953
 1841SOL    HW2 5659   1.565   1.784   2.103
 1842SOL     OW 5660   0.663   1.460   1.881
 1842SOL    HW1 5661   0.581   1.507   1.894
 1842SOL    HW2 5662   0.720   1.491   1.952
 1843SOL     OW 5663   2.681   0.577   2.978
 1843SOL    HW1 5664   2.692   0.622   2.894
 1843SOL    HW2 5665   2.763   0.529   2.990
 1844SOL     OW 5666   2.972   1.263   1.219
 1844SOL    HW1 5667   3.022   1.245   1.299
 1844SOL    HW2 5668   2.884   1.230   1.238
 1845SOL     OW 5669   2.786   1.043   2.856
 1845SOL    HW1 5670   2.756   1.070   2.769
 1845SOL    HW2 5671   2.746   1.107   2.916
 1846SOL     OW 5672   2.609   2.856   3.940
 1846SOL    HW1 5673   2.661   2.914   3.884
 1846SOL    HW2 5674   2.665   2.780   3.956
 1847SOL     OW 5675   2.345   0.738   3.130
 1847SOL    HW1 5676   2.340   0.672   3.061
 1847SOL    HW2 5677   2.417   0.795   3.103
 1848SOL     OW 5678   3.847   2.919   3.554
 1848SOL    HW1 5679   3.823   2.850   3.493
 1848SOL    HW2 5680   3.830   3.000   3.506
 1849SOL     OW 5681   1.573   0.469   3.446
 1849SOL    HW1 5682   1.516   0.445   3.519
 1849SOL    HW2 5683   1.558   0.401   3.380
 1850SOL     OW 5684   1.125   3.481   0.141
 1850SOL    HW1 5685   1.036   3.475   0.107
 1850SOL    HW2 5686   1.171   3.538   0.079
 1851SOL     OW 5687   1.852   2.520   1.424
 1851SOL    HW1 5688   1.914   2.459   1.464
 1851SOL    HW2 5689   1.861   2.600   1.476
 1852SOL     OW 5690   3.058   0.229   0.033
 1852SOL    HW1 5691   3.136   0.248  -0.018
 1852SOL    HW2 5692   3.065   0.136   0.054
 1853SOL     OW 5693   3.706   3.774   2.134
 1853SOL    HW1 5694   3.625   3.738   2.171
 1853SOL    HW2 5695   3.677   3.850   2.083
 1854SOL     OW 5696   0.336   2.484   0.842
 1854SOL    HW1 5697   0.319   2.449   0.755
 1854SOL    HW2 5698   0.383   2.566   0.827
 1855SOL     OW 5699   0.738   1.380   3.891
 1855SOL    HW1 5700   0.757   1.293   3.926
 1855SOL    HW2 5701   0.808   1.435   3.925
 1856SOL     OW 5702   1.554   2.683   1.881
 1856SOL    HW1 5703   1.601   2.613   1.836
 1856SOL    HW2 5704   1.507   2.729   1.812
 1857SOL     OW 5705   1.598   0.598   2.933
 1857SOL    HW1 5706   1.640   0.517   2.964
 1857SOL    HW2 5707   1.600   0.591   2.838
 1858SOL     OW 5708   0.472   3.525   1.954
 1858SOL    HW1 5709   0.552   3.547   1.907
 1858SOL    HW2 5710   0.459   3.432   1.936
 1859SOL     OW 5711   3.310   1.598   2.991
 1859SOL    HW1 5712   3.218   1.577   2.974
 1859SOL    HW2 5713   3.341   1.528   3.049
 1860SOL     OW 5714   1.054   1.227   2.490
 1860SOL    HW1 5715   1.089   1.235   2.579
 1860SOL    HW2 5716   1.114   1.280   2.437
 1861SOL     OW 5717   3.514   0.606   0.921
 1861SOL    HW1 5718   3.456   0.683   0.916
 1861SOL    HW2 5719   3.602   0.641   0.907
 1862SOL     OW 5720   0.363   2.467   3.833
 1862SOL    HW1 5721   0.270   2.448   3.826
 1862SOL    HW2 5722   0.373   2.557   3.801
 1863SOL     OW 5723   3.846   0.022   1.814
 1863SOL    HW1 5724   3.764   0.063   1.787
 1863SOL    HW2 5725   3.895   0.010   1.732
 1864SOL     OW 5726   1.648   0.047   0.486
 1864SOL    HW1 5727   1.617   0.137   0.485
 1864SOL    HW2 5728   1.744   0.055   0.480
 1865SOL     OW 5729   0.952   1.757   1.495
 1865SOL    HW1 5730   1.006   1.831   1.520
 1865SOL    HW2 5731   0.912   1.727   1.577
 1866SOL     OW 5732   0.016   3.078   0.261
 1866SOL    HW1 5733   0.032   2.997   0.310
 1866SOL    HW2 5734  -0.039   3.131   0.319
 1867SOL     OW 5735   0.417   1.142   0.537
 1867SOL    HW1 5736   0.443   1.180   0.454
 1867SOL    HW2 5737   0.375   1.060   0.514
 1868SOL     OW 5738   0.834   2.069   0.147
 1868SOL    HW1 5739   0.749   2.113   0.142
 1868SOL    HW2 5740   0.824   1.990   0.094
 1869SOL     OW 5741   3.152   3.115   0.728
 1869SOL    HW1 5742   3.234   3.114   0.779
 1869SOL    HW2 5743   3.145   3.026   0.693
 1870SOL     OW 5744   2.918   0.121   2.222
 1870SOL    HW1 5745   3.003   0.147   2.259
 1870SOL    HW2 5746   2.909   0.175   2.143
 1871SOL     OW 5747   0.478   1.529   3.476
 1871SOL    HW1 5748   0.538   1.456   3.492
 1871SOL    HW2 5749   0.527   1.607   3.503
 1872SOL     OW 5750   3.787   1.167   2.169
 1872SOL    HW1 5751   3.762   1.152   2.260
 1872SOL    HW2 5752   3.723   1.118   2.118
 1873SOL     OW 5753   2.787   2.224   2.118
 1873SOL    HW1 5754   2.808   2.159   2.051
 1873SOL    HW2 5755   2.704   2.263   2.089
 1874SOL     OW 5756   0.818   1.347   0.497
 1874SOL    HW1 5757   0.835   1.279   0.432
 1874SOL    HW2 5758   0.874   1.325   0.571
 1875SOL     OW 5759   2.811   3.116   2.056
 1875SOL    HW1 5760   2.801   3.072   1.971
 1875SOL    HW2 5761   2.886   3.073   2.097
 1876SOL     OW 5762   2.826   2.450   1.462
 1876SOL    HW1 5763   2.760   2.443   1.393
 1876SOL    HW2 5764   2.890   2.512   1.428
 1877SOL     OW 5765   1.782   2.018   2.086
 1877SOL    HW1 5766   1.840   2.007   2.010
 1877SOL    HW2 5767   1.701   1.975   2.060
 1878SOL     OW 5768   2.466   3.610   0.340
 1878SOL    HW1 5769   2.371   3.601   0.341
 1878SOL    HW2 5770   2.485   3.666   0.416
 1879SOL     OW 5771   2.296   3.729   1.330
 1879SOL    HW1 5772   2.306   3.804   1.389
 1879SOL    HW2 5773   2.366   3.669   1.356
 1880SOL     OW 5774   3.201   2.573   3.636
 1880SOL    HW1 5775   3.147   2.590   3.558
 1880SOL    HW2 5776   3.222   2.661   3.669
 1881SOL     OW 5777   1.255   2.795   2.310
 1881SOL    HW1 5778   1.162   2.776   2.298
 1881SOL    HW2 5779   1.258   2.888   2.334
 1882SOL     OW 5780   2.199   2.592   1.568
 1882SOL    HW1 5781   2.136   2.659   1.542
 1882SOL    HW2 5782   2.164   2.556   1.649
 1883SOL     OW 5783   2.152   1.962   1.781
 1883SOL    HW1 5784   2.140   1.885   1.725
 1883SOL    HW2 5785   2.236   1.946   1.825
 1884SOL     OW 5786   0.726   2.297   3.038
 1884SOL    HW1 5787   0.770   2.381   3.052
 1884SOL    HW2 5788   0.733   2.252   3.122
 1885SOL     OW 5789   2.783   2.862   3.302
 1885SOL    HW1 5790   2.819   2.820   3.223
 1885SOL    HW2 5791   2.797   2.798   3.371
 1886SOL     OW 5792   2.625   2.462   0.334
 1886SOL    HW1 5793   2.578   2.517   0.397
 1886SOL    HW2 5794   2.580   2.477   0.251
 1887SOL     OW 5795   0.919   3.901   2.109
 1887SOL    HW1 5796   0.960   3.984   2.133
 1887SOL    HW2 5797   0.826   3.913   2.128
 1888SOL     OW 5798   3.405   1.451   2.691
 1888SOL    HW1 5799   3.432   1.511   2.622
 1888SOL    HW2 5800   3.311   1.443   2.681
 1889SOL     OW 5801   3.109   2.846   3.261
 1889SOL    HW1 5802   3.180   2.892   3.216
 1889SOL    HW2 5803   3.039   2.841   3.196
 1890SOL     OW 5804   2.845   2.344   1.154
 1890SOL    HW1 5805   2.838   2.413   1.089
 1890SOL    HW2 5806   2.757   2.334   1.189
 1891SOL     OW 5807   2.000   0.016   2.726
 1891SOL    HW1 5808   1.998   0.089   2.789
 1891SOL    HW2 5809   2.042   0.053   2.649
 1892SOL     OW 5810   0.984   1.597   0.760
 1892SOL    HW1 5811   1.080   1.591   0.769
 1892SOL    HW2 5812   0.970   1.614   0.667
 1893SOL     OW 5813   2.784   1.823   3.154
 1893SOL    HW1 5814   2.837   1.786   3.083
 1893SOL    HW2 5815   2.779   1.754   3.219
 1894SOL     OW 5816   3.744   0.456   2.546
 1894SOL    HW1 5817   3.650   0.446   2.560
 1894SOL    HW2 5818   3.779   0.367   2.554
 1895SOL     OW 5819   1.569   1.808   1.341
 1895SOL    HW1 5820   1.486   1.822   1.386
 1895SOL    HW2 5821   1.544   1.788   1.250
 1896SOL     OW 5822   3.874   2.040   0.164
 1896SOL    HW1 5823   3.797   2.069   0.214
 1896SOL    HW2 5824   3.921   1.984   0.225
 1897SOL     OW 5825   2.296   1.130   3.919
 1897SOL    HW1 5826   2.213   1.178   3.908
 1897SOL    HW2 5827   2.345   1.182   3.983
 1898SOL     OW 5828   1.759   3.118   0.957
 1898SOL    HW1 5829   1.740   3.212   0.953
 1898SOL    HW2 5830   1.832   3.111   1.018
 1899SOL     OW 5831   2.860   1.935   1.655
 1899SOL    HW1 5832   2.923   1.867   1.677
 1899SOL    HW2 5833   2.783   1.915   1.709
 1900SOL     OW 5834   0.637   0.513   1.496
 1900SOL    HW1 5835   0.703   0.580   1.479
 1900SOL    HW2 5836   0.557   0.563   1.516
 1901SOL     OW 5837   3.449  -0.022   0.371
 1901SOL    HW1 5838   3.404   0.041   0.427
 1901SOL    HW2 5839   3.531   0.023   0.348
 1902SOL     OW 5840   1.455   2.471   3.825
 1902SOL    HW1 5841   1.457   2.536   3.895
 1902SOL    HW2 5842   1.535   2.421   3.837
 1903SOL     OW 5843   1.498   1.744   3.787
 1903SOL    HW1 5844   1.479   1.652   3.805
 1903SOL    HW2 5845   1.547   1.773   3.864
 1904SOL     OW 5846   2.044   3.704   0.495
 1904SOL    HW1 5847   2.085   3.732   0.577
 1904SOL    HW2 5848   1.953   3.689   0.518
 1905SOL     OW 5849   1.813   3.855   3.191
 1905SOL    HW1 5850   1.798   3.765   3.161
 1905SOL    HW2 5851   1.730   3.899   3.177
 1906SOL     OW 5852   0.572   0.433   0.998
 1906SOL    HW1 5853   0.647   0.387   1.035
 1906SOL    HW2 5854   0.569   0.516   1.046
 1907SOL     OW 5855   0.996   2.279   3.469
 1907SOL    HW1 5856   1.028   2.358   3.514
 1907SOL    HW2 5857   0.999   2.211   3.535
 1908SOL     OW 5858   0.825   0.099   3.836
 1908SOL    HW1 5859   0.745   0.109   3.888
 1908SOL    HW2 5860   0.895   0.094   3.902
 1909SOL     OW 5861   3.153   2.837   3.877
 1909SOL    HW1 5862   3.089   2.821   3.808
 1909SOL    HW2 5863   3.169   2.751   3.916
 1910SOL     OW 5864   1.191   0.137   2.418
 1910SOL    HW1 5865   1.266   0.092   2.456
 1910SOL    HW2 5866   1.199   0.227   2.450
 1911SOL     OW 5867  -0.004   0.204   3.168
 1911SOL    HW1 5868   0.052   0.239   3.099
 1911SOL    HW2 5869   0.030   0.243   3.249
 1912SOL     OW 5870   1.817   2.621   2.406
 1912SOL    HW1 5871   1.884   2.623   2.338
 1912SOL    HW2 5872   1.781   2.532   2.402
 1913SOL     OW 5873   1.839   0.415   1.221
 1913SOL    HW1 5874   1.753   0.457   1.213
 1913SOL    HW2 5875   1.822   0.335   1.269
 1914SOL     OW 5876   0.414   3.737   1.230
 1914SOL    HW1 5877   0.480   3.801   1.257
 1914SOL    HW2 5878   0.386   3.696   1.312
 1915SOL     OW 5879   2.811   1.042   3.235
 1915SOL    HW1 5880   2.766   1.105   3.179
 1915SOL    HW2 5881   2.768   1.050   3.320
 1916SOL     OW 5882   0.004   3.776   1.425
 1916SOL    HW1 5883   0.057   3.771   1.505
 1916SOL    HW2 5884   0.065   3.753   1.355
 1917SOL     OW 5885   3.352   1.777   1.880
 1917SOL    HW1 5886   3.284   1.814   1.824
 1917SOL    HW2 5887   3.324   1.798   1.969
 1918NA      NA 5888   3.008   0.982   0.931
 1919NA      NA 5889   1.578   1.937   2.388
   3.96100   3.96100   3.96100   0.00000   0.00000   0.00000   0.00000   0.00000   0.00000
