Generated with MDTraj, t= 2940.0
 5889
    1TYR      N    1   2.077   0.799   2.013
    1TYR     H1    2   2.099   0.722   2.079
    1TYR     H2    3   1.997   0.856   2.048
    1TYR     H3    4   2.049   0.768   1.917
    1TYR     CA    5   2.193   0.881   2.001
    1TYR     HA    6   2.202   0.898   2.107
    1TYR     CB    7   2.314   0.781   1.943
    1TYR    HB1    8   2.305   0.671   1.956
    1TYR    HB2    9   2.319   0.801   1.834
    1TYR     CG   10   2.445   0.812   2.006
    1TYR    CD1   11   2.483   0.751   2.125
    1TYR    HD1   12   2.436   0.661   2.163
    1TYR    CE1   13   2.592   0.797   2.193
    1TYR    HE1   14   2.628   0.739   2.276
    1TYR     CZ   15   2.674   0.894   2.143
    1TYR     OH   16   2.782   0.920   2.226
    1TYR     HH   17   2.830   1.000   2.204
    1TYR    CD2   18   2.532   0.914   1.946
    1TYR    HD2   19   2.507   0.952   1.848
    1TYR    CE2   20   2.648   0.957   2.012
    1TYR    HE2   21   2.708   1.033   1.966
    1TYR      C   22   2.169   1.000   1.909
    1TYR      O   23   2.082   1.004   1.823
    2TYR      N   24   2.247   1.105   1.932
    2TYR     HN   25   2.308   1.115   2.010
    2TYR     CA   26   2.262   1.217   1.836
    2TYR     HA   27   2.338   1.283   1.874
    2TYR     CB   28   2.313   1.166   1.701
    2TYR    HB1   29   2.382   1.080   1.717
    2TYR    HB2   30   2.229   1.138   1.635
    2TYR     CG   31   2.411   1.259   1.627
    2TYR    CD1   32   2.549   1.251   1.648
    2TYR    HD1   33   2.582   1.190   1.731
    2TYR    CE1   34   2.636   1.338   1.579
    2TYR    HE1   35   2.740   1.323   1.603
    2TYR     CZ   36   2.585   1.421   1.480
    2TYR     OH   37   2.662   1.502   1.395
    2TYR     HH   38   2.597   1.540   1.336
    2TYR    CD2   39   2.368   1.343   1.529
    2TYR    HD2   40   2.265   1.365   1.504
    2TYR    CE2   41   2.457   1.426   1.458
    2TYR    HE2   42   2.420   1.489   1.379
    2TYR      C   43   2.136   1.315   1.829
    2TYR      O   44   2.097   1.369   1.719
    3ASP      N   45   2.075   1.343   1.945
    3ASP     HN   46   2.111   1.323   2.036
    3ASP     CA   47   1.954   1.425   1.966
    3ASP     HA   48   1.894   1.411   1.878
    3ASP     CB   49   1.874   1.365   2.082
    3ASP    HB1   50   1.945   1.336   2.163
    3ASP    HB2   51   1.811   1.446   2.123
    3ASP     CG   52   1.794   1.239   2.075
    3ASP    OD1   53   1.719   1.234   1.981
    3ASP    OD2   54   1.798   1.146   2.163
    3ASP      C   55   1.997   1.570   1.982
    3ASP      O   56   2.090   1.591   2.054
    4PRO      N   57   1.933   1.675   1.917
    4PRO     CD   58   1.884   1.656   1.777
    4PRO    HD1   59   1.776   1.631   1.779
    4PRO    HD2   60   1.933   1.571   1.725
    4PRO     CA   61   1.990   1.809   1.930
    4PRO     HA   62   2.098   1.809   1.929
    4PRO     CB   63   1.939   1.882   1.808
    4PRO    HB1   64   1.836   1.914   1.834
    4PRO    HB2   65   1.998   1.972   1.778
    4PRO     CG   66   1.905   1.785   1.697
    4PRO    HG1   67   1.818   1.814   1.634
    4PRO    HG2   68   1.998   1.770   1.637
    4PRO      C   69   1.960   1.860   2.067
    4PRO      O   70   2.050   1.919   2.124
    5GLU      N   71   1.839   1.844   2.119
    5GLU     HN   72   1.775   1.789   2.067
    5GLU     CA   73   1.785   1.889   2.252
    5GLU     HA   74   1.807   1.995   2.249
    5GLU     CB   75   1.630   1.861   2.274
    5GLU    HB1   76   1.586   1.901   2.180
    5GLU    HB2   77   1.613   1.752   2.273
    5GLU     CG   78   1.571   1.946   2.389
    5GLU    HG1   79   1.641   1.920   2.471
    5GLU    HG2   80   1.564   2.056   2.373
    5GLU     CD   81   1.427   1.909   2.417
    5GLU    OE1   82   1.390   1.867   2.528
    5GLU    OE2   83   1.350   1.936   2.318
    5GLU      C   84   1.876   1.836   2.360
    5GLU      O   85   1.898   1.908   2.453
    6THR      N   86   1.922   1.711   2.349
    6THR     HN   87   1.903   1.664   2.263
    6THR     CA   88   2.012   1.650   2.458
    6THR     HA   89   1.979   1.684   2.555
    6THR     CB   90   1.986   1.503   2.481
    6THR     HB   91   2.029   1.446   2.396
    6THR    OG1   92   1.851   1.472   2.477
    6THR    HG1   93   1.812   1.523   2.549
    6THR    CG2   94   2.047   1.460   2.617
    6THR   HG21   95   2.035   1.350   2.620
    6THR   HG22   96   2.157   1.465   2.599
    6THR   HG23   97   2.008   1.527   2.696
    6THR      C   98   2.166   1.664   2.440
    6THR      O   99   2.242   1.699   2.532
    7GLY      N  100   2.206   1.662   2.312
    7GLY     HN  101   2.144   1.638   2.238
    7GLY     CA  102   2.343   1.689   2.265
    7GLY    HA1  103   2.335   1.703   2.158
    7GLY    HA2  104   2.388   1.768   2.322
    7GLY      C  105   2.420   1.561   2.289
    7GLY      O  106   2.533   1.555   2.340
    8THR      N  107   2.353   1.452   2.249
    8THR     HN  108   2.260   1.452   2.215
    8THR     CA  109   2.410   1.327   2.263
    8THR     HA  110   2.467   1.331   2.355
    8THR     CB  111   2.307   1.217   2.298
    8THR     HB  112   2.357   1.125   2.261
    8THR    OG1  113   2.190   1.251   2.232
    8THR    HG1  114   2.132   1.178   2.255
    8THR    CG2  115   2.279   1.208   2.450
    8THR   HG21  116   2.377   1.199   2.502
    8THR   HG22  117   2.219   1.291   2.494
    8THR   HG23  118   2.226   1.111   2.465
    8THR      C  119   2.503   1.285   2.154
    8THR      O  120   2.479   1.190   2.081
    9TRP      N  121   2.625   1.348   2.152
    9TRP     HN  122   2.641   1.424   2.215
    9TRP     CA  123   2.717   1.337   2.040
    9TRP     HA  124   2.664   1.303   1.953
    9TRP     CB  125   2.785   1.471   2.017
    9TRP    HB1  126   2.864   1.493   2.091
    9TRP    HB2  127   2.843   1.483   1.923
    9TRP     CG  128   2.686   1.589   2.023
    9TRP    CD1  129   2.704   1.702   2.101
    9TRP    HD1  130   2.787   1.703   2.171
    9TRP    NE1  131   2.603   1.794   2.081
    9TRP    HE1  132   2.613   1.883   2.120
    9TRP    CE2  133   2.511   1.735   1.990
    9TRP    CD2  134   2.563   1.604   1.956
    9TRP    CE3  135   2.488   1.523   1.868
    9TRP    HE3  136   2.529   1.428   1.838
    9TRP    CZ3  137   2.376   1.583   1.800
    9TRP    HZ3  138   2.338   1.518   1.723
    9TRP    CZ2  139   2.393   1.781   1.930
    9TRP    HZ2  140   2.370   1.885   1.944
    9TRP    CH2  141   2.333   1.711   1.823
    9TRP    HH2  142   2.252   1.751   1.764
    9TRP      C  143   2.834   1.248   2.068
    9TRP      O  144   2.845   1.188   2.177
   10TYR      N  145   2.917   1.213   1.962
   10TYR     HN  146   2.917   1.254   1.871
   10TYR     CA  147   3.031   1.116   1.982
   10TYR     HA  148   3.011   1.055   2.069
   10TYR     CB  149   3.066   1.043   1.851
   10TYR    HB1  150   3.067   1.111   1.764
   10TYR    HB2  151   3.163   0.989   1.861
   10TYR     CG  152   2.970   0.930   1.826
   10TYR    CD1  153   2.895   0.935   1.707
   10TYR    HD1  154   2.914   1.014   1.637
   10TYR    CE1  155   2.801   0.831   1.685
   10TYR    HE1  156   2.752   0.829   1.589
   10TYR     CZ  157   2.788   0.727   1.776
   10TYR     OH  158   2.676   0.639   1.753
   10TYR     HH  159   2.663   0.593   1.836
   10TYR    CD2  160   2.946   0.832   1.927
   10TYR    HD2  161   3.001   0.832   2.019
   10TYR    CE2  162   2.857   0.721   1.895
   10TYR    HE2  163   2.835   0.646   1.970
   10TYR      C  164   3.160   1.191   2.021
   10TYR    OT1  165   3.196   1.287   1.950
   10TYR    OT2  166   3.228   1.158   2.124
   11SOL     OW  167   1.777   2.177   3.411
   11SOL    HW1  168   1.692   2.215   3.389
   11SOL    HW2  169   1.768   2.084   3.392
   12SOL     OW  170   0.689   0.386   3.973
   12SOL    HW1  171   0.708   0.297   3.944
   12SOL    HW2  172   0.647   0.427   3.897
   13SOL     OW  173   1.418   2.003   1.283
   13SOL    HW1  174   1.501   2.003   1.235
   13SOL    HW2  175   1.401   1.911   1.302
   14SOL     OW  176   2.647   1.426   0.252
   14SOL    HW1  177   2.637   1.500   0.311
   14SOL    HW2  178   2.576   1.436   0.188
   15SOL     OW  179   1.484   3.526   3.473
   15SOL    HW1  180   1.409   3.560   3.522
   15SOL    HW2  181   1.511   3.448   3.522
   16SOL     OW  182   2.672   3.434   1.933
   16SOL    HW1  183   2.604   3.390   1.984
   16SOL    HW2  184   2.724   3.481   1.997
   17SOL     OW  185   0.167   0.541   1.764
   17SOL    HW1  186   0.097   0.492   1.721
   17SOL    HW2  187   0.135   0.556   1.852
   18SOL     OW  188   1.132   0.272   0.653
   18SOL    HW1  189   1.062   0.223   0.696
   18SOL    HW2  190   1.091   0.309   0.575
   19SOL     OW  191   2.813   1.152   0.908
   19SOL    HW1  192   2.811   1.062   0.877
   19SOL    HW2  193   2.721   1.180   0.908
   20SOL     OW  194   0.359   0.378   0.442
   20SOL    HW1  195   0.423   0.424   0.388
   20SOL    HW2  196   0.341   0.437   0.515
   21SOL     OW  197   0.657   1.221   2.210
   21SOL    HW1  198   0.581   1.242   2.156
   21SOL    HW2  199   0.656   1.286   2.280
   22SOL     OW  200   0.733   3.345   1.092
   22SOL    HW1  201   0.784   3.389   1.160
   22SOL    HW2  202   0.657   3.311   1.137
   23SOL     OW  203   2.425   0.614   2.664
   23SOL    HW1  204   2.361   0.674   2.627
   23SOL    HW2  205   2.402   0.609   2.757
   24SOL     OW  206   2.845   0.496   3.479
   24SOL    HW1  207   2.918   0.435   3.492
   24SOL    HW2  208   2.779   0.445   3.431
   25SOL     OW  209   3.027   2.543   2.191
   25SOL    HW1  210   3.086   2.609   2.155
   25SOL    HW2  211   2.940   2.583   2.186
   26SOL     OW  212   0.430   0.152   2.596
   26SOL    HW1  213   0.492   0.084   2.625
   26SOL    HW2  214   0.378   0.109   2.528
   27SOL     OW  215   3.697   2.419   1.592
   27SOL    HW1  216   3.632   2.487   1.574
   27SOL    HW2  217   3.756   2.459   1.656
   28SOL     OW  218   1.042   1.260   2.652
   28SOL    HW1  219   0.963   1.224   2.611
   28SOL    HW2  220   1.041   1.353   2.630
   29SOL     OW  221   1.316   2.546   2.031
   29SOL    HW1  222   1.346   2.621   2.084
   29SOL    HW2  223   1.358   2.470   2.072
   30SOL     OW  224   3.923   0.453   2.818
   30SOL    HW1  225   3.991   0.471   2.882
   30SOL    HW2  226   3.889   0.367   2.842
   31SOL     OW  227   1.425   3.004   2.927
   31SOL    HW1  228   1.418   3.014   2.832
   31SOL    HW2  229   1.334   2.990   2.956
   32SOL     OW  230   3.218   0.288   1.420
   32SOL    HW1  231   3.126   0.259   1.422
   32SOL    HW2  232   3.213   0.381   1.398
   33SOL     OW  233   1.757   3.990   1.384
   33SOL    HW1  234   1.780   3.905   1.422
   33SOL    HW2  235   1.668   3.978   1.351
   34SOL     OW  236   0.142   3.032   2.465
   34SOL    HW1  237   0.075   2.974   2.429
   34SOL    HW2  238   0.098   3.079   2.536
   35SOL     OW  239   1.463   0.698   2.380
   35SOL    HW1  240   1.526   0.670   2.447
   35SOL    HW2  241   1.380   0.707   2.428
   36SOL     OW  242   0.291   3.212   2.260
   36SOL    HW1  243   0.278   3.146   2.328
   36SOL    HW2  244   0.202   3.232   2.231
   37SOL     OW  245   0.935   3.839   1.299
   37SOL    HW1  246   0.888   3.868   1.377
   37SOL    HW2  247   1.026   3.835   1.325
   38SOL     OW  248   0.557   0.849   3.526
   38SOL    HW1  249   0.565   0.756   3.547
   38SOL    HW2  250   0.630   0.867   3.466
   39SOL     OW  251   3.636   0.736   2.332
   39SOL    HW1  252   3.586   0.690   2.400
   39SOL    HW2  253   3.597   0.823   2.330
   40SOL     OW  254   2.462   3.160   1.185
   40SOL    HW1  255   2.510   3.152   1.268
   40SOL    HW2  256   2.473   3.252   1.160
   41SOL     OW  257   1.294   2.574   1.644
   41SOL    HW1  258   1.255   2.573   1.731
   41SOL    HW2  259   1.369   2.516   1.650
   42SOL     OW  260   3.785   1.833   3.517
   42SOL    HW1  261   3.709   1.804   3.467
   42SOL    HW2  262   3.747   1.877   3.594
   43SOL     OW  263   0.701   1.616   0.298
   43SOL    HW1  264   0.794   1.594   0.291
   43SOL    HW2  265   0.678   1.649   0.212
   44SOL     OW  266   1.203   2.389   2.699
   44SOL    HW1  267   1.208   2.312   2.643
   44SOL    HW2  268   1.293   2.405   2.726
   45SOL     OW  269   2.330   0.015   2.615
   45SOL    HW1  270   2.292  -0.037   2.544
   45SOL    HW2  271   2.272   0.091   2.623
   46SOL     OW  272   0.986   3.165   0.493
   46SOL    HW1  273   0.969   3.154   0.587
   46SOL    HW2  274   1.078   3.189   0.488
   47SOL     OW  275   2.159   3.235   1.208
   47SOL    HW1  276   2.163   3.330   1.197
   47SOL    HW2  277   2.177   3.200   1.121
   48SOL     OW  278   1.056   0.275   3.631
   48SOL    HW1  279   1.130   0.299   3.686
   48SOL    HW2  280   1.066   0.328   3.552
   49SOL     OW  281   3.658   1.697   2.941
   49SOL    HW1  282   3.673   1.683   3.035
   49SOL    HW2  283   3.593   1.768   2.938
   50SOL     OW  284   3.326   1.148   1.042
   50SOL    HW1  285   3.304   1.061   1.076
   50SOL    HW2  286   3.339   1.202   1.120
   51SOL     OW  287   1.990   1.785   0.414
   51SOL    HW1  288   1.970   1.691   0.419
   51SOL    HW2  289   1.951   1.822   0.492
   52SOL     OW  290   1.749   1.962   1.374
   52SOL    HW1  291   1.702   1.938   1.294
   52SOL    HW2  292   1.817   1.895   1.382
   53SOL     OW  293   3.131   2.216   1.586
   53SOL    HW1  294   3.084   2.300   1.587
   53SOL    HW2  295   3.220   2.239   1.558
   54SOL     OW  296   1.775   2.517   3.730
   54SOL    HW1  297   1.793   2.557   3.645
   54SOL    HW2  298   1.832   2.440   3.733
   55SOL     OW  299   1.228   0.578   2.699
   55SOL    HW1  300   1.242   0.659   2.651
   55SOL    HW2  301   1.269   0.593   2.785
   56SOL     OW  302   0.707   0.251   0.548
   56SOL    HW1  303   0.783   0.309   0.539
   56SOL    HW2  304   0.676   0.237   0.459
   57SOL     OW  305   2.912   2.025   0.971
   57SOL    HW1  306   2.836   2.084   0.973
   57SOL    HW2  307   2.950   2.038   0.884
   58SOL     OW  308   3.420   3.076   2.956
   58SOL    HW1  309   3.406   3.164   2.922
   58SOL    HW2  310   3.419   3.086   3.052
   59SOL     OW  311   0.274   1.462   3.415
   59SOL    HW1  312   0.253   1.434   3.326
   59SOL    HW2  313   0.240   1.392   3.471
   60SOL     OW  314   0.434   3.294   0.368
   60SOL    HW1  315   0.358   3.236   0.368
   60SOL    HW2  316   0.426   3.344   0.449
   61SOL     OW  317   3.030   1.349   0.571
   61SOL    HW1  318   3.073   1.435   0.567
   61SOL    HW2  319   3.072   1.299   0.500
   62SOL     OW  320   2.862   0.623   2.275
   62SOL    HW1  321   2.925   0.658   2.339
   62SOL    HW2  322   2.912   0.617   2.194
   63SOL     OW  323   1.279   2.811   2.427
   63SOL    HW1  324   1.304   2.725   2.462
   63SOL    HW2  325   1.187   2.820   2.449
   64SOL     OW  326   3.459   2.762   0.698
   64SOL    HW1  327   3.487   2.845   0.736
   64SOL    HW2  328   3.529   2.701   0.722
   65SOL     OW  329   3.008   3.187   0.660
   65SOL    HW1  330   2.963   3.223   0.737
   65SOL    HW2  331   3.097   3.171   0.690
   66SOL     OW  332   0.082   1.478   2.864
   66SOL    HW1  333   0.087   1.524   2.948
   66SOL    HW2  334   0.096   1.386   2.886
   67SOL     OW  335   3.417   1.675   2.641
   67SOL    HW1  336   3.369   1.642   2.717
   67SOL    HW2  337   3.454   1.597   2.600
   68SOL     OW  338   1.418   2.515   3.946
   68SOL    HW1  339   1.487   2.456   3.976
   68SOL    HW2  340   1.425   2.512   3.850
   69SOL     OW  341   3.169   0.156   0.095
   69SOL    HW1  342   3.083   0.187   0.126
   69SOL    HW2  343   3.228   0.176   0.167
   70SOL     OW  344   1.491   3.841   3.429
   70SOL    HW1  345   1.525   3.854   3.341
   70SOL    HW2  346   1.488   3.746   3.440
   71SOL     OW  347   0.833   0.126   3.609
   71SOL    HW1  348   0.775   0.179   3.665
   71SOL    HW2  349   0.917   0.171   3.613
   72SOL     OW  350   0.266   0.640   3.364
   72SOL    HW1  351   0.208   0.564   3.360
   72SOL    HW2  352   0.326   0.628   3.290
   73SOL     OW  353   0.015   0.170   2.152
   73SOL    HW1  354   0.013   0.181   2.247
   73SOL    HW2  355   0.108   0.171   2.129
   74SOL     OW  356   1.163   0.731   1.996
   74SOL    HW1  357   1.083   0.773   1.964
   74SOL    HW2  358   1.233   0.768   1.942
   75SOL     OW  359   0.389   0.316   1.575
   75SOL    HW1  360   0.444   0.389   1.604
   75SOL    HW2  361   0.309   0.358   1.543
   76SOL     OW  362   2.703   0.904   0.860
   76SOL    HW1  363   2.672   0.897   0.951
   76SOL    HW2  364   2.673   0.823   0.819
   77SOL     OW  365   3.767   3.899   3.929
   77SOL    HW1  366   3.675   3.874   3.937
   77SOL    HW2  367   3.815   3.826   3.969
   78SOL     OW  368   0.256   3.797   2.714
   78SOL    HW1  369   0.281   3.759   2.798
   78SOL    HW2  370   0.249   3.891   2.732
   79SOL     OW  371   2.123   3.521   3.360
   79SOL    HW1  372   2.197   3.580   3.345
   79SOL    HW2  373   2.136   3.451   3.296
   80SOL     OW  374   2.074   1.275   3.689
   80SOL    HW1  375   2.161   1.310   3.667
   80SOL    HW2  376   2.017   1.309   3.620
   81SOL     OW  377   0.477   2.581   3.564
   81SOL    HW1  378   0.528   2.559   3.642
   81SOL    HW2  379   0.540   2.574   3.492
   82SOL     OW  380   3.513   2.059   0.139
   82SOL    HW1  381   3.474   2.144   0.119
   82SOL    HW2  382   3.462   2.025   0.212
   83SOL     OW  383   2.264   0.189   1.562
   83SOL    HW1  384   2.342   0.181   1.506
   83SOL    HW2  385   2.286   0.257   1.625
   84SOL     OW  386   2.481   2.618   1.505
   84SOL    HW1  387   2.574   2.595   1.502
   84SOL    HW2  388   2.464   2.661   1.422
   85SOL     OW  389   0.536   1.577   1.289
   85SOL    HW1  390   0.603   1.633   1.249
   85SOL    HW2  391   0.550   1.588   1.384
   86SOL     OW  392   3.494   2.323   0.224
   86SOL    HW1  393   3.469   2.380   0.297
   86SOL    HW2  394   3.549   2.256   0.263
   87SOL     OW  395   0.815   0.576   1.620
   87SOL    HW1  396   0.848   0.660   1.589
   87SOL    HW2  397   0.879   0.511   1.590
   88SOL     OW  398   3.190   1.478   3.565
   88SOL    HW1  399   3.247   1.505   3.637
   88SOL    HW2  400   3.106   1.458   3.606
   89SOL     OW  401   3.723   1.569   0.404
   89SOL    HW1  402   3.691   1.490   0.449
   89SOL    HW2  403   3.802   1.594   0.452
   90SOL     OW  404   2.576   2.863   2.608
   90SOL    HW1  405   2.498   2.860   2.664
   90SOL    HW2  406   2.544   2.848   2.520
   91SOL     OW  407   2.245   3.292   0.172
   91SOL    HW1  408   2.160   3.256   0.196
   91SOL    HW2  409   2.231   3.386   0.167
   92SOL     OW  410   0.900   1.096   0.824
   92SOL    HW1  411   0.838   1.158   0.788
   92SOL    HW2  412   0.859   1.010   0.812
   93SOL     OW  413   3.403   2.113   2.512
   93SOL    HW1  414   3.418   2.088   2.604
   93SOL    HW2  415   3.484   2.090   2.467
   94SOL     OW  416   0.803   2.912   0.505
   94SOL    HW1  417   0.735   2.966   0.546
   94SOL    HW2  418   0.884   2.961   0.519
   95SOL     OW  419   2.023   2.757   1.260
   95SOL    HW1  420   2.062   2.826   1.314
   95SOL    HW2  421   2.032   2.678   1.313
   96SOL     OW  422   3.770   0.860   3.570
   96SOL    HW1  423   3.702   0.846   3.503
   96SOL    HW2  424   3.741   0.937   3.618
   97SOL     OW  425   3.851   0.457   0.485
   97SOL    HW1  426   3.756   0.448   0.491
   97SOL    HW2  427   3.881   0.372   0.454
   98SOL     OW  428   0.582   2.649   0.556
   98SOL    HW1  429   0.642   2.724   0.551
   98SOL    HW2  430   0.560   2.631   0.464
   99SOL     OW  431   0.003   2.524   1.082
   99SOL    HW1  432   0.019   2.452   1.021
   99SOL    HW2  433   0.068   2.590   1.059
  100SOL     OW  434   0.512   0.579   1.515
  100SOL    HW1  435   0.582   0.551   1.574
  100SOL    HW2  436   0.535   0.541   1.430
  101SOL     OW  437   1.948   1.327   2.910
  101SOL    HW1  438   1.987   1.299   2.993
  101SOL    HW2  439   1.920   1.417   2.926
  102SOL     OW  440   2.745   0.088   3.198
  102SOL    HW1  441   2.706   0.039   3.271
  102SOL    HW2  442   2.792   0.022   3.147
  103SOL     OW  443   1.413   3.715   0.908
  103SOL    HW1  444   1.506   3.711   0.889
  103SOL    HW2  445   1.371   3.684   0.828
  104SOL     OW  446   1.598   2.957   1.374
  104SOL    HW1  447   1.672   2.965   1.314
  104SOL    HW2  448   1.570   2.866   1.365
  105SOL     OW  449   3.820   3.586   3.050
  105SOL    HW1  450   3.880   3.522   3.013
  105SOL    HW2  451   3.852   3.602   3.138
  106SOL     OW  452   2.537   0.486   1.524
  106SOL    HW1  453   2.617   0.518   1.564
  106SOL    HW2  454   2.480   0.464   1.598
  107SOL     OW  455   0.334   2.465   2.731
  107SOL    HW1  456   0.301   2.384   2.770
  107SOL    HW2  457   0.328   2.529   2.802
  108SOL     OW  458   0.750   2.247   0.219
  108SOL    HW1  459   0.683   2.308   0.188
  108SOL    HW2  460   0.719   2.161   0.189
  109SOL     OW  461   0.474   2.803   0.938
  109SOL    HW1  462   0.397   2.855   0.917
  109SOL    HW2  463   0.513   2.846   1.014
  110SOL     OW  464   2.916   2.188   3.723
  110SOL    HW1  465   2.946   2.124   3.787
  110SOL    HW2  466   2.882   2.136   3.650
  111SOL     OW  467   0.244   1.167   2.713
  111SOL    HW1  468   0.320   1.109   2.711
  111SOL    HW2  469   0.255   1.222   2.635
  112SOL     OW  470   1.679   0.619   1.576
  112SOL    HW1  471   1.623   0.547   1.547
  112SOL    HW2  472   1.720   0.587   1.656
  113SOL     OW  473   2.493   3.160   0.247
  113SOL    HW1  474   2.512   3.155   0.154
  113SOL    HW2  475   2.406   3.198   0.253
  114SOL     OW  476   1.968   1.487   0.143
  114SOL    HW1  477   1.928   1.569   0.116
  114SOL    HW2  478   1.952   1.426   0.071
  115SOL     OW  479   3.795   3.179   1.061
  115SOL    HW1  480   3.855   3.116   1.023
  115SOL    HW2  481   3.842   3.263   1.059
  116SOL     OW  482   2.563   2.298   0.578
  116SOL    HW1  483   2.539   2.270   0.667
  116SOL    HW2  484   2.657   2.315   0.583
  117SOL     OW  485   1.244   3.252   0.470
  117SOL    HW1  486   1.324   3.299   0.447
  117SOL    HW2  487   1.265   3.208   0.552
  118SOL     OW  488   3.782   1.727   2.193
  118SOL    HW1  489   3.760   1.813   2.157
  118SOL    HW2  490   3.819   1.746   2.279
  119SOL     OW  491   2.748   2.675   2.474
  119SOL    HW1  492   2.691   2.717   2.539
  119SOL    HW2  493   2.687   2.637   2.410
  120SOL     OW  494   2.892   1.474   0.175
  120SOL    HW1  495   2.848   1.458   0.092
  120SOL    HW2  496   2.825   1.457   0.242
  121SOL     OW  497   1.949   3.545   3.892
  121SOL    HW1  498   1.930   3.638   3.895
  121SOL    HW2  499   2.032   3.539   3.844
  122SOL     OW  500   1.885   1.041   2.888
  122SOL    HW1  501   1.911   1.133   2.895
  122SOL    HW2  502   1.820   1.029   2.957
  123SOL     OW  503   2.297   2.495   1.143
  123SOL    HW1  504   2.372   2.554   1.135
  123SOL    HW2  505   2.221   2.553   1.143
  124SOL     OW  506   1.861   2.164   1.047
  124SOL    HW1  507   1.954   2.187   1.056
  124SOL    HW2  508   1.851   2.143   0.954
  125SOL     OW  509   0.705   0.867   3.013
  125SOL    HW1  510   0.762   0.798   2.980
  125SOL    HW2  511   0.730   0.876   3.105
  126SOL     OW  512   3.856   0.811   1.715
  126SOL    HW1  513   3.765   0.838   1.723
  126SOL    HW2  514   3.890   0.813   1.804
  127SOL     OW  515   0.805   2.940   1.237
  127SOL    HW1  516   0.824   2.982   1.321
  127SOL    HW2  517   0.711   2.950   1.225
  128SOL     OW  518   0.921   3.284   3.707
  128SOL    HW1  519   0.956   3.339   3.777
  128SOL    HW2  520   0.938   3.194   3.736
  129SOL     OW  521   2.108   2.657   2.900
  129SOL    HW1  522   2.018   2.625   2.889
  129SOL    HW2  523   2.098   2.748   2.928
  130SOL     OW  524   1.384   3.318   2.870
  130SOL    HW1  525   1.293   3.299   2.891
  130SOL    HW2  526   1.433   3.245   2.908
  131SOL     OW  527   1.509   1.000   2.736
  131SOL    HW1  528   1.416   1.011   2.716
  131SOL    HW2  529   1.545   1.089   2.736
  132SOL     OW  530   3.108   3.545   0.484
  132SOL    HW1  531   3.033   3.504   0.441
  132SOL    HW2  532   3.089   3.538   0.577
  133SOL     OW  533   0.463   1.270   0.243
  133SOL    HW1  534   0.550   1.287   0.279
  133SOL    HW2  535   0.447   1.343   0.184
  134SOL     OW  536   0.985   0.999   2.452
  134SOL    HW1  537   1.058   1.052   2.482
  134SOL    HW2  538   1.019   0.949   2.378
  135SOL     OW  539   1.629   0.292   2.331
  135SOL    HW1  540   1.689   0.317   2.402
  135SOL    HW2  541   1.664   0.209   2.299
  136SOL     OW  542   0.623   1.126   3.216
  136SOL    HW1  543   0.626   1.212   3.175
  136SOL    HW2  544   0.682   1.072   3.163
  137SOL     OW  545   2.256   2.686   2.049
  137SOL    HW1  546   2.351   2.680   2.036
  137SOL    HW2  547   2.219   2.629   1.982
  138SOL     OW  548   3.376   0.472   3.771
  138SOL    HW1  549   3.387   0.564   3.746
  138SOL    HW2  550   3.283   0.463   3.794
  139SOL     OW  551   1.876   0.524   3.178
  139SOL    HW1  552   1.801   0.467   3.165
  139SOL    HW2  553   1.880   0.577   3.099
  140SOL     OW  554   1.968   1.379   1.379
  140SOL    HW1  555   1.990   1.323   1.453
  140SOL    HW2  556   1.905   1.442   1.415
  141SOL     OW  557   2.548   2.293   1.051
  141SOL    HW1  558   2.571   2.383   1.029
  141SOL    HW2  559   2.613   2.240   1.005
  142SOL     OW  560   1.740   1.696   3.250
  142SOL    HW1  561   1.650   1.711   3.279
  142SOL    HW2  562   1.782   1.782   3.257
  143SOL     OW  563   0.230   1.436   0.419
  143SOL    HW1  564   0.277   1.460   0.339
  143SOL    HW2  565   0.181   1.357   0.395
  144SOL     OW  566   1.817   0.483   0.950
  144SOL    HW1  567   1.724   0.463   0.943
  144SOL    HW2  568   1.821   0.578   0.954
  145SOL     OW  569   1.359   1.529   1.584
  145SOL    HW1  570   1.265   1.516   1.575
  145SOL    HW2  571   1.396   1.441   1.578
  146SOL     OW  572   2.023   3.555   0.573
  146SOL    HW1  573   2.030   3.573   0.667
  146SOL    HW2  574   2.009   3.641   0.533
  147SOL     OW  575   1.113   1.521   1.763
  147SOL    HW1  576   1.183   1.479   1.812
  147SOL    HW2  577   1.032   1.482   1.796
  148SOL     OW  578   2.370   3.130   3.698
  148SOL    HW1  579   2.445   3.188   3.703
  148SOL    HW2  580   2.350   3.108   3.789
  149SOL     OW  581   3.349   3.983   0.628
  149SOL    HW1  582   3.351   3.959   0.536
  149SOL    HW2  583   3.374   3.904   0.675
  150SOL     OW  584   0.331   1.078   2.382
  150SOL    HW1  585   0.365   1.161   2.414
  150SOL    HW2  586   0.405   1.017   2.391
  151SOL     OW  587   1.571   0.843   0.534
  151SOL    HW1  588   1.502   0.867   0.595
  151SOL    HW2  589   1.551   0.753   0.509
  152SOL     OW  590   2.116   2.521   1.883
  152SOL    HW1  591   2.031   2.490   1.850
  152SOL    HW2  592   2.175   2.511   1.809
  153SOL     OW  593   3.089   2.320   0.310
  153SOL    HW1  594   3.111   2.344   0.220
  153SOL    HW2  595   3.174   2.304   0.352
  154SOL     OW  596   1.447   1.818   0.964
  154SOL    HW1  597   1.428   1.900   0.918
  154SOL    HW2  598   1.363   1.773   0.968
  155SOL     OW  599   0.745   1.312   0.725
  155SOL    HW1  600   0.697   1.361   0.792
  155SOL    HW2  601   0.723   1.357   0.643
  156SOL     OW  602   1.222   3.427   2.149
  156SOL    HW1  603   1.310   3.391   2.133
  156SOL    HW2  604   1.182   3.431   2.062
  157SOL     OW  605   1.764   3.824   0.645
  157SOL    HW1  606   1.760   3.772   0.726
  157SOL    HW2  607   1.821   3.773   0.587
  158SOL     OW  608   1.932   3.430   1.942
  158SOL    HW1  609   1.980   3.390   2.015
  158SOL    HW2  610   1.886   3.504   1.981
  159SOL     OW  611   0.626   2.511   1.753
  159SOL    HW1  612   0.650   2.423   1.724
  159SOL    HW2  613   0.655   2.515   1.844
  160SOL     OW  614   3.176   3.640   2.114
  160SOL    HW1  615   3.197   3.547   2.104
  160SOL    HW2  616   3.161   3.671   2.025
  161SOL     OW  617   1.829   0.941   1.958
  161SOL    HW1  618   1.831   1.035   1.979
  161SOL    HW2  619   1.771   0.903   2.023
  162SOL     OW  620   0.064   0.299   3.730
  162SOL    HW1  621   0.073   0.215   3.775
  162SOL    HW2  622   0.148   0.342   3.742
  163SOL     OW  623   1.803   2.460   0.981
  163SOL    HW1  624   1.814   2.367   0.999
  163SOL    HW2  625   1.756   2.494   1.057
  164SOL     OW  626   1.757   1.383   1.680
  164SOL    HW1  627   1.793   1.355   1.764
  164SOL    HW2  628   1.780   1.312   1.620
  165SOL     OW  629   2.730   3.762   3.162
  165SOL    HW1  630   2.769   3.750   3.249
  165SOL    HW2  631   2.762   3.689   3.110
  166SOL     OW  632   2.344   2.297   3.287
  166SOL    HW1  633   2.352   2.201   3.292
  166SOL    HW2  634   2.255   2.315   3.318
  167SOL     OW  635   3.761   3.003   1.691
  167SOL    HW1  636   3.830   2.942   1.713
  167SOL    HW2  637   3.787   3.086   1.731
  168SOL     OW  638   3.135   3.145   2.293
  168SOL    HW1  639   3.069   3.131   2.225
  168SOL    HW2  640   3.145   3.240   2.296
  169SOL     OW  641   2.699   3.616   1.699
  169SOL    HW1  642   2.780   3.610   1.750
  169SOL    HW2  643   2.630   3.590   1.761
  170SOL     OW  644   1.088   3.822   2.979
  170SOL    HW1  645   1.039   3.798   3.057
  170SOL    HW2  646   1.143   3.746   2.961
  171SOL     OW  647   3.400   3.696   2.956
  171SOL    HW1  648   3.473   3.649   2.915
  171SOL    HW2  649   3.337   3.629   2.978
  172SOL     OW  650   3.703   0.082   0.724
  172SOL    HW1  651   3.692   0.175   0.743
  172SOL    HW2  652   3.798   0.071   0.712
  173SOL     OW  653   1.266   0.045   1.226
  173SOL    HW1  654   1.207   0.009   1.292
  173SOL    HW2  655   1.210   0.099   1.170
  174SOL     OW  656   2.972   3.386   3.330
  174SOL    HW1  657   2.908   3.407   3.398
  174SOL    HW2  658   2.939   3.306   3.291
  175SOL     OW  659   0.779   1.947   3.563
  175SOL    HW1  660   0.789   2.041   3.583
  175SOL    HW2  661   0.684   1.935   3.555
  176SOL     OW  662   2.780   0.943   2.524
  176SOL    HW1  663   2.733   0.904   2.450
  176SOL    HW2  664   2.841   1.005   2.483
  177SOL     OW  665   0.686   2.354   2.770
  177SOL    HW1  666   0.617   2.388   2.713
  177SOL    HW2  667   0.768   2.373   2.724
  178SOL     OW  668   3.884   1.405   0.047
  178SOL    HW1  669   3.880   1.384   0.140
  178SOL    HW2  670   3.966   1.365   0.016
  179SOL     OW  671   0.345   1.752   0.982
  179SOL    HW1  672   0.407   1.820   1.010
  179SOL    HW2  673   0.400   1.681   0.950
  180SOL     OW  674   2.417   2.770   2.828
  180SOL    HW1  675   2.504   2.731   2.832
  180SOL    HW2  676   2.357   2.697   2.844
  181SOL     OW  677   3.304   3.728   2.374
  181SOL    HW1  678   3.331   3.733   2.282
  181SOL    HW2  679   3.385   3.737   2.423
  182SOL     OW  680   3.563   3.488   3.102
  182SOL    HW1  681   3.637   3.533   3.062
  182SOL    HW2  682   3.551   3.409   3.049
  183SOL     OW  683   3.108   0.475   0.211
  183SOL    HW1  684   3.047   0.494   0.140
  183SOL    HW2  685   3.128   0.560   0.249
  184SOL     OW  686   0.621   2.201   3.226
  184SOL    HW1  687   0.709   2.181   3.259
  184SOL    HW2  688   0.590   2.118   3.189
  185SOL     OW  689   1.550   0.158   3.360
  185SOL    HW1  690   1.633   0.110   3.365
  185SOL    HW2  691   1.485   0.096   3.395
  186SOL     OW  692   2.065   0.461   0.164
  186SOL    HW1  693   2.035   0.551   0.163
  186SOL    HW2  694   2.150   0.464   0.207
  187SOL     OW  695   3.408   3.544   1.191
  187SOL    HW1  696   3.472   3.484   1.228
  187SOL    HW2  697   3.331   3.491   1.175
  188SOL     OW  698   1.072   3.859   3.906
  188SOL    HW1  699   1.099   3.897   3.823
  188SOL    HW2  700   1.021   3.928   3.949
  189SOL     OW  701   1.788   3.626   0.431
  189SOL    HW1  702   1.830   3.625   0.345
  189SOL    HW2  703   1.844   3.572   0.486
  190SOL     OW  704   0.983   1.587   0.629
  190SOL    HW1  705   1.000   1.512   0.686
  190SOL    HW2  706   0.888   1.597   0.629
  191SOL     OW  707   0.332   0.061   1.643
  191SOL    HW1  708   0.395   0.057   1.714
  191SOL    HW2  709   0.335   0.152   1.613
  192SOL     OW  710   0.613   0.710   2.752
  192SOL    HW1  711   0.678   0.755   2.698
  192SOL    HW2  712   0.662   0.641   2.796
  193SOL     OW  713   2.169   1.973   2.558
  193SOL    HW1  714   2.084   1.972   2.601
  193SOL    HW2  715   2.205   1.885   2.575
  194SOL     OW  716   2.756   3.366   1.148
  194SOL    HW1  717   2.738   3.354   1.054
  194SOL    HW2  718   2.819   3.297   1.169
  195SOL     OW  719   2.258   1.645   0.617
  195SOL    HW1  720   2.197   1.675   0.683
  195SOL    HW2  721   2.249   1.550   0.617
  196SOL     OW  722   0.309   1.992   3.787
  196SOL    HW1  723   0.372   2.008   3.716
  196SOL    HW2  724   0.226   1.977   3.742
  197SOL     OW  725   1.701   2.987   3.056
  197SOL    HW1  726   1.621   2.978   3.003
  197SOL    HW2  727   1.693   2.920   3.124
  198SOL     OW  728   1.278   3.293   3.743
  198SOL    HW1  729   1.276   3.321   3.835
  198SOL    HW2  730   1.287   3.197   3.747
  199SOL     OW  731   2.641   2.533   2.832
  199SOL    HW1  732   2.653   2.529   2.927
  199SOL    HW2  733   2.710   2.592   2.801
  200SOL     OW  734   2.861   0.507   0.575
  200SOL    HW1  735   2.778   0.536   0.537
  200SOL    HW2  736   2.880   0.424   0.531
  201SOL     OW  737   1.316   3.030   2.654
  201SOL    HW1  738   1.296   3.115   2.614
  201SOL    HW2  739   1.311   2.967   2.583
  202SOL     OW  740   1.863   3.459   3.567
  202SOL    HW1  741   1.904   3.376   3.540
  202SOL    HW2  742   1.872   3.516   3.491
  203SOL     OW  743   1.864   0.377   3.671
  203SOL    HW1  744   1.883   0.441   3.739
  203SOL    HW2  745   1.891   0.293   3.709
  204SOL     OW  746   0.546   1.540   1.569
  204SOL    HW1  747   0.562   1.625   1.609
  204SOL    HW2  748   0.473   1.503   1.618
  205SOL     OW  749   0.659   0.108   3.850
  205SOL    HW1  750   0.703   0.024   3.837
  205SOL    HW2  751   0.566   0.088   3.841
  206SOL     OW  752   2.321   0.224   0.974
  206SOL    HW1  753   2.378   0.182   1.039
  206SOL    HW2  754   2.314   0.160   0.903
  207SOL     OW  755   2.201   2.366   0.111
  207SOL    HW1  756   2.187   2.420   0.189
  207SOL    HW2  757   2.115   2.328   0.093
  208SOL     OW  758   3.533   2.986   3.245
  208SOL    HW1  759   3.550   2.998   3.338
  208SOL    HW2  760   3.580   2.905   3.223
  209SOL     OW  761   1.044   1.931   2.992
  209SOL    HW1  762   1.001   1.988   3.056
  209SOL    HW2  763   0.991   1.852   2.991
  210SOL     OW  764   1.714   0.767   3.812
  210SOL    HW1  765   1.665   0.697   3.856
  210SOL    HW2  766   1.805   0.752   3.837
  211SOL     OW  767   1.793   0.041   2.845
  211SOL    HW1  768   1.867  -0.019   2.858
  211SOL    HW2  769   1.735   0.023   2.920
  212SOL     OW  770   1.325   2.197   3.931
  212SOL    HW1  771   1.241   2.244   3.935
  212SOL    HW2  772   1.305   2.115   3.886
  213SOL     OW  773   0.807   0.837   0.757
  213SOL    HW1  774   0.855   0.756   0.744
  213SOL    HW2  775   0.724   0.810   0.797
  214SOL     OW  776   2.661   3.969   2.250
  214SOL    HW1  777   2.748   3.936   2.270
  214SOL    HW2  778   2.633   3.918   2.173
  215SOL     OW  779   1.873   1.688   1.394
  215SOL    HW1  780   1.795   1.680   1.448
  215SOL    HW2  781   1.847   1.655   1.308
  216SOL     OW  782   2.813   2.347   3.916
  216SOL    HW1  783   2.776   2.427   3.878
  216SOL    HW2  784   2.844   2.297   3.841
  217SOL     OW  785   2.849   3.530   3.015
  217SOL    HW1  786   2.906   3.529   2.938
  217SOL    HW2  787   2.908   3.516   3.089
  218SOL     OW  788   0.787   0.447   0.759
  218SOL    HW1  789   0.738   0.467   0.679
  218SOL    HW2  790   0.862   0.506   0.757
  219SOL     OW  791   0.088   3.578   2.131
  219SOL    HW1  792   0.016   3.610   2.077
  219SOL    HW2  793   0.068   3.486   2.146
  220SOL     OW  794   3.675   2.083   2.390
  220SOL    HW1  795   3.739   2.148   2.418
  220SOL    HW2  796   3.686   2.010   2.451
  221SOL     OW  797   1.250   1.019   2.716
  221SOL    HW1  798   1.223   0.968   2.792
  221SOL    HW2  799   1.192   1.095   2.717
  222SOL     OW  800   3.700   3.845   0.273
  222SOL    HW1  801   3.777   3.817   0.224
  222SOL    HW2  802   3.719   3.935   0.300
  223SOL     OW  803   1.276   0.601   0.741
  223SOL    HW1  804   1.369   0.613   0.758
  223SOL    HW2  805   1.245   0.544   0.812
  224SOL     OW  806   2.598   0.437   3.349
  224SOL    HW1  807   2.641   0.518   3.320
  224SOL    HW2  808   2.517   0.467   3.391
  225SOL     OW  809   2.465   3.277   1.589
  225SOL    HW1  810   2.427   3.327   1.661
  225SOL    HW2  811   2.542   3.329   1.563
  226SOL     OW  812   0.895   1.707   3.869
  226SOL    HW1  813   0.946   1.711   3.788
  226SOL    HW2  814   0.956   1.734   3.938
  227SOL     OW  815   2.110   3.607   1.761
  227SOL    HW1  816   2.038   3.547   1.775
  227SOL    HW2  817   2.071   3.694   1.765
  228SOL     OW  818   1.393   1.265   1.594
  228SOL    HW1  819   1.366   1.213   1.518
  228SOL    HW2  820   1.350   1.223   1.669
  229SOL     OW  821   0.075   0.387   1.533
  229SOL    HW1  822   0.039   0.394   1.445
  229SOL    HW2  823   0.050   0.299   1.562
  230SOL     OW  824   2.029   3.563   0.866
  230SOL    HW1  825   2.056   3.621   0.937
  230SOL    HW2  826   2.002   3.482   0.910
  231SOL     OW  827   0.960   2.017   0.965
  231SOL    HW1  828   1.045   2.060   0.976
  231SOL    HW2  829   0.924   2.011   1.053
  232SOL     OW  830   2.967   1.916   3.664
  232SOL    HW1  831   3.054   1.906   3.623
  232SOL    HW2  832   2.971   1.861   3.742
  233SOL     OW  833   1.417   0.678   2.888
  233SOL    HW1  834   1.471   0.754   2.906
  233SOL    HW2  835   1.430   0.620   2.963
  234SOL     OW  836   2.714   2.830   1.798
  234SOL    HW1  837   2.739   2.763   1.735
  234SOL    HW2  838   2.648   2.882   1.753
  235SOL     OW  839   1.708   0.746   0.789
  235SOL    HW1  840   1.626   0.793   0.778
  235SOL    HW2  841   1.776   0.814   0.780
  236SOL     OW  842   1.471   0.793   2.104
  236SOL    HW1  843   1.466   0.749   2.189
  236SOL    HW2  844   1.449   0.724   2.040
  237SOL     OW  845   3.640   3.432   1.890
  237SOL    HW1  846   3.676   3.496   1.829
  237SOL    HW2  847   3.664   3.347   1.854
  238SOL     OW  848   1.941   2.248   0.125
  238SOL    HW1  849   1.909   2.336   0.102
  238SOL    HW2  850   1.930   2.244   0.220
  239SOL     OW  851   2.865   2.503   3.507
  239SOL    HW1  852   2.864   2.596   3.487
  239SOL    HW2  853   2.791   2.467   3.458
  240SOL     OW  854   2.171   3.792   0.986
  240SOL    HW1  855   2.132   3.848   1.053
  240SOL    HW2  856   2.164   3.842   0.905
  241SOL     OW  857   2.502   3.252   2.123
  241SOL    HW1  858   2.595   3.260   2.144
  241SOL    HW2  859   2.461   3.220   2.203
  242SOL     OW  860   2.986   3.776   0.112
  242SOL    HW1  861   2.996   3.785   0.207
  242SOL    HW2  862   2.946   3.690   0.100
  243SOL     OW  863   2.253   1.005   3.228
  243SOL    HW1  864   2.161   0.980   3.219
  243SOL    HW2  865   2.271   1.060   3.152
  244SOL     OW  866   3.883   1.864   1.757
  244SOL    HW1  867   3.937   1.872   1.836
  244SOL    HW2  868   3.863   1.955   1.733
  245SOL     OW  869   1.663   0.818   3.558
  245SOL    HW1  870   1.659   0.797   3.651
  245SOL    HW2  871   1.703   0.740   3.518
  246SOL     OW  872   0.292   2.451   1.458
  246SOL    HW1  873   0.313   2.359   1.448
  246SOL    HW2  874   0.197   2.456   1.444
  247SOL     OW  875   2.547   0.728   1.376
  247SOL    HW1  876   2.640   0.737   1.355
  247SOL    HW2  877   2.538   0.637   1.406
  248SOL     OW  878   3.201   2.349   3.187
  248SOL    HW1  879   3.189   2.254   3.186
  248SOL    HW2  880   3.270   2.364   3.251
  249SOL     OW  881   0.139   3.421   0.691
  249SOL    HW1  882   0.184   3.432   0.775
  249SOL    HW2  883   0.047   3.410   0.713
  250SOL     OW  884   0.648   1.827   2.075
  250SOL    HW1  885   0.612   1.740   2.095
  250SOL    HW2  886   0.636   1.877   2.155
  251SOL     OW  887   3.616   0.496   2.772
  251SOL    HW1  888   3.565   0.517   2.850
  251SOL    HW2  889   3.703   0.472   2.805
  252SOL     OW  890   3.142   0.488   2.734
  252SOL    HW1  891   3.164   0.499   2.826
  252SOL    HW2  892   3.049   0.507   2.729
  253SOL     OW  893   3.607   3.094   1.249
  253SOL    HW1  894   3.647   3.140   1.323
  253SOL    HW2  895   3.670   3.104   1.177
  254SOL     OW  896   2.517   0.084   1.739
  254SOL    HW1  897   2.521   0.135   1.658
  254SOL    HW2  898   2.607   0.078   1.769
  255SOL     OW  899   0.464   2.955   1.880
  255SOL    HW1  900   0.384   2.985   1.836
  255SOL    HW2  901   0.535   2.976   1.819
  256SOL     OW  902   1.018   0.468   1.274
  256SOL    HW1  903   1.003   0.472   1.179
  256SOL    HW2  904   1.067   0.547   1.294
  257SOL     OW  905   3.626   2.986   0.764
  257SOL    HW1  906   3.592   3.075   0.771
  257SOL    HW2  907   3.611   2.946   0.849
  258SOL     OW  908   2.359   0.395   1.316
  258SOL    HW1  909   2.398   0.463   1.260
  258SOL    HW2  910   2.402   0.407   1.400
  259SOL     OW  911   1.572   2.939   0.538
  259SOL    HW1  912   1.613   2.867   0.585
  259SOL    HW2  913   1.556   2.905   0.450
  260SOL     OW  914   2.193   0.602   3.760
  260SOL    HW1  915   2.167   0.594   3.669
  260SOL    HW2  916   2.132   0.546   3.808
  261SOL     OW  917   3.154   1.971   1.206
  261SOL    HW1  918   3.124   1.881   1.217
  261SOL    HW2  919   3.120   1.997   1.120
  262SOL     OW  920   0.769   2.889   2.482
  262SOL    HW1  921   0.859   2.919   2.489
  262SOL    HW2  922   0.734   2.935   2.405
  263SOL     OW  923   0.118   3.051   3.940
  263SOL    HW1  924   0.132   2.973   3.993
  263SOL    HW2  925   0.201   3.065   3.895
  264SOL     OW  926   2.180   1.984  -0.027
  264SOL    HW1  927   2.145   2.056   0.024
  264SOL    HW2  928   2.139   1.906   0.010
  265SOL     OW  929   3.894   2.970   1.380
  265SOL    HW1  930   3.820   3.025   1.408
  265SOL    HW2  931   3.886   2.891   1.434
  266SOL     OW  932   0.372   2.900   3.255
  266SOL    HW1  933   0.304   2.872   3.194
  266SOL    HW2  934   0.341   2.869   3.341
  267SOL     OW  935   3.382   0.941   0.843
  267SOL    HW1  936   3.451   0.951   0.909
  267SOL    HW2  937   3.381   1.026   0.799
  268SOL     OW  938   1.100   1.271   3.472
  268SOL    HW1  939   1.193   1.294   3.479
  268SOL    HW2  940   1.064   1.290   3.558
  269SOL     OW  941   1.599   0.256   0.659
  269SOL    HW1  942   1.688   0.237   0.688
  269SOL    HW2  943   1.574   0.336   0.705
  270SOL     OW  944   3.416   0.245   2.297
  270SOL    HW1  945   3.384   0.278   2.381
  270SOL    HW2  946   3.474   0.314   2.265
  271SOL     OW  947   3.662   0.256   1.586
  271SOL    HW1  948   3.618   0.264   1.670
  271SOL    HW2  949   3.649   0.340   1.543
  272SOL     OW  950   1.401   0.016   3.962
  272SOL    HW1  951   1.406   0.071   3.884
  272SOL    HW2  952   1.317  -0.028   3.956
  273SOL     OW  953   3.569   2.932   2.595
  273SOL    HW1  954   3.535   2.925   2.684
  273SOL    HW2  955   3.514   2.999   2.553
  274SOL     OW  956   1.659   2.574   1.173
  274SOL    HW1  957   1.697   2.551   1.257
  274SOL    HW2  958   1.582   2.627   1.194
  275SOL     OW  959   1.460   0.002   1.644
  275SOL    HW1  960   1.466   0.094   1.669
  275SOL    HW2  961   1.524  -0.043   1.699
  276SOL     OW  962   0.754   0.241   1.611
  276SOL    HW1  963   0.708   0.306   1.663
  276SOL    HW2  964   0.832   0.286   1.579
  277SOL     OW  965   1.839   2.104   0.787
  277SOL    HW1  966   1.778   2.144   0.726
  277SOL    HW2  967   1.926   2.129   0.755
  278SOL     OW  968   1.627   3.774   0.043
  278SOL    HW1  969   1.557   3.775  -0.021
  278SOL    HW2  970   1.587   3.736   0.122
  279SOL     OW  971   1.207   2.004   1.106
  279SOL    HW1  972   1.291   1.997   1.152
  279SOL    HW2  973   1.184   2.097   1.113
  280SOL     OW  974   0.868   0.805   0.477
  280SOL    HW1  975   0.819   0.840   0.551
  280SOL    HW2  976   0.951   0.777   0.515
  281SOL     OW  977   3.054   2.429   3.674
  281SOL    HW1  978   3.039   2.338   3.699
  281SOL    HW2  979   2.976   2.454   3.624
  282SOL     OW  980   0.107   3.418   3.553
  282SOL    HW1  981   0.022   3.386   3.583
  282SOL    HW2  982   0.169   3.350   3.578
  283SOL     OW  983   0.220   1.108   2.141
  283SOL    HW1  984   0.157   1.045   2.107
  283SOL    HW2  985   0.213   1.100   2.236
  284SOL     OW  986   0.025   2.419   1.975
  284SOL    HW1  987   0.080   2.486   2.015
  284SOL    HW2  988  -0.028   2.385   2.047
  285SOL     OW  989   3.381   1.373   1.569
  285SOL    HW1  990   3.464   1.422   1.570
  285SOL    HW2  991   3.382   1.323   1.650
  286SOL     OW  992   1.644   1.954   1.124
  286SOL    HW1  993   1.708   1.977   1.056
  286SOL    HW2  994   1.596   1.880   1.088
  287SOL     OW  995   3.513   2.745   2.385
  287SOL    HW1  996   3.596   2.699   2.399
  287SOL    HW2  997   3.513   2.813   2.452
  288SOL     OW  998   0.180   2.573   3.306
  288SOL    HW1  999   0.126   2.537   3.377
  288SOL    HW2 1000   0.241   2.632   3.349
  289SOL     OW 1001   1.068   2.293   3.317
  289SOL    HW1 1002   1.117   2.296   3.234
  289SOL    HW2 1003   1.120   2.346   3.377
  290SOL     OW 1004   1.722   0.575   0.072
  290SOL    HW1 1005   1.729   0.492   0.119
  290SOL    HW2 1006   1.699   0.639   0.140
  291SOL     OW 1007   0.257   1.624   1.937
  291SOL    HW1 1008   0.176   1.604   1.983
  291SOL    HW2 1009   0.312   1.667   2.002
  292SOL     OW 1010   1.707   0.187  -0.002
  292SOL    HW1 1011   1.794   0.188  -0.042
  292SOL    HW2 1012   1.724   0.182   0.092
  293SOL     OW 1013   0.732   3.690   2.591
  293SOL    HW1 1014   0.752   3.652   2.676
  293SOL    HW2 1015   0.809   3.670   2.537
  294SOL     OW 1016   0.144   1.716   3.417
  294SOL    HW1 1017   0.171   1.718   3.509
  294SOL    HW2 1018   0.167   1.629   3.386
  295SOL     OW 1019   0.285   3.048   2.850
  295SOL    HW1 1020   0.257   3.120   2.793
  295SOL    HW2 1021   0.217   2.982   2.842
  296SOL     OW 1022   2.563   2.926   1.615
  296SOL    HW1 1023   2.494   2.978   1.574
  296SOL    HW2 1024   2.625   2.910   1.544
  297SOL     OW 1025   0.993   1.392   0.117
  297SOL    HW1 1026   0.993   1.471   0.171
  297SOL    HW2 1027   1.076   1.349   0.138
  298SOL     OW 1028   3.321   3.006   0.189
  298SOL    HW1 1029   3.362   2.948   0.124
  298SOL    HW2 1030   3.305   2.949   0.264
  299SOL     OW 1031   1.685   1.420   0.922
  299SOL    HW1 1032   1.595   1.399   0.896
  299SOL    HW2 1033   1.738   1.350   0.884
  300SOL     OW 1034   3.031   3.410   0.977
  300SOL    HW1 1035   2.947   3.365   0.973
  300SOL    HW2 1036   3.057   3.405   1.069
  301SOL     OW 1037   2.505   2.574   0.006
  301SOL    HW1 1038   2.461   2.509  -0.049
  301SOL    HW2 1039   2.527   2.527   0.086
  302SOL     OW 1040   2.753   1.767   0.562
  302SOL    HW1 1041   2.827   1.764   0.622
  302SOL    HW2 1042   2.677   1.781   0.619
  303SOL     OW 1043   1.551   0.294   0.386
  303SOL    HW1 1044   1.541   0.272   0.478
  303SOL    HW2 1045   1.523   0.216   0.339
  304SOL     OW 1046   1.085   2.484   3.834
  304SOL    HW1 1047   1.114   2.484   3.925
  304SOL    HW2 1048   1.164   2.502   3.783
  305SOL     OW 1049   1.232   2.872   3.190
  305SOL    HW1 1050   1.222   2.963   3.164
  305SOL    HW2 1051   1.143   2.843   3.210
  306SOL     OW 1052   0.355   1.339   2.127
  306SOL    HW1 1053   0.318   1.378   2.047
  306SOL    HW2 1054   0.294   1.268   2.148
  307SOL     OW 1055   1.895   2.498   0.035
  307SOL    HW1 1056   1.828   2.523  -0.029
  307SOL    HW2 1057   1.934   2.580   0.063
  308SOL     OW 1058   2.009   0.961   2.240
  308SOL    HW1 1059   1.954   1.039   2.250
  308SOL    HW2 1060   1.972   0.898   2.303
  309SOL     OW 1061   1.467   2.394   2.763
  309SOL    HW1 1062   1.498   2.397   2.672
  309SOL    HW2 1063   1.500   2.311   2.797
  310SOL     OW 1064   2.133   2.111   0.809
  310SOL    HW1 1065   2.227   2.116   0.795
  310SOL    HW2 1066   2.115   2.018   0.823
  311SOL     OW 1067   1.103   1.269   1.008
  311SOL    HW1 1068   1.045   1.195   0.985
  311SOL    HW2 1069   1.090   1.282   1.101
  312SOL     OW 1070   2.756   1.683   2.476
  312SOL    HW1 1071   2.760   1.626   2.399
  312SOL    HW2 1072   2.673   1.661   2.518
  313SOL     OW 1073   1.541   1.921   0.628
  313SOL    HW1 1074   1.614   1.863   0.604
  313SOL    HW2 1075   1.547   1.993   0.565
  314SOL     OW 1076   3.453   0.778   0.647
  314SOL    HW1 1077   3.438   0.844   0.714
  314SOL    HW2 1078   3.370   0.729   0.642
  315SOL     OW 1079   3.225   1.681   2.415
  315SOL    HW1 1080   3.318   1.694   2.432
  315SOL    HW2 1081   3.181   1.740   2.477
  316SOL     OW 1082   2.330   1.740   2.843
  316SOL    HW1 1083   2.299   1.674   2.782
  316SOL    HW2 1084   2.372   1.690   2.913
  317SOL     OW 1085   0.044   1.730   3.857
  317SOL    HW1 1086   0.081   1.656   3.810
  317SOL    HW2 1087  -0.046   1.703   3.879
  318SOL     OW 1088   3.887   3.823   2.640
  318SOL    HW1 1089   3.956   3.791   2.581
  318SOL    HW2 1090   3.824   3.866   2.583
  319SOL     OW 1091   1.297   1.025   2.081
  319SOL    HW1 1092   1.351   0.962   2.032
  319SOL    HW2 1093   1.358   1.071   2.138
  320SOL     OW 1094   2.256   1.687   3.395
  320SOL    HW1 1095   2.230   1.608   3.443
  320SOL    HW2 1096   2.225   1.672   3.306
  321SOL     OW 1097   1.359   0.173   0.776
  321SOL    HW1 1098   1.435   0.178   0.718
  321SOL    HW2 1099   1.288   0.214   0.726
  322SOL     OW 1100   0.115   0.553   0.119
  322SOL    HW1 1101   0.119   0.565   0.024
  322SOL    HW2 1102   0.198   0.590   0.151
  323SOL     OW 1103   1.021   2.286   1.399
  323SOL    HW1 1104   1.060   2.251   1.479
  323SOL    HW2 1105   1.064   2.371   1.387
  324SOL     OW 1106   0.279   0.192   1.293
  324SOL    HW1 1107   0.204   0.133   1.303
  324SOL    HW2 1108   0.355   0.134   1.300
  325SOL     OW 1109   3.295   0.006   1.147
  325SOL    HW1 1110   3.318   0.050   1.229
  325SOL    HW2 1111   3.342   0.054   1.080
  326SOL     OW 1112   2.948   0.466   1.403
  326SOL    HW1 1113   3.030   0.491   1.445
  326SOL    HW2 1114   2.930   0.379   1.436
  327SOL     OW 1115   1.244   1.076   2.453
  327SOL    HW1 1116   1.256   1.138   2.525
  327SOL    HW2 1117   1.311   1.100   2.389
  328SOL     OW 1118   1.343   3.034   0.657
  328SOL    HW1 1119   1.382   3.091   0.723
  328SOL    HW2 1120   1.416   2.982   0.624
  329SOL     OW 1121   0.066   3.927   3.817
  329SOL    HW1 1122  -0.012   3.923   3.873
  329SOL    HW2 1123   0.045   3.870   3.743
  330SOL     OW 1124   0.229   3.134   0.416
  330SOL    HW1 1125   0.148   3.183   0.404
  330SOL    HW2 1126   0.242   3.088   0.333
  331SOL     OW 1127   1.733   1.588   2.744
  331SOL    HW1 1128   1.644   1.621   2.755
  331SOL    HW2 1129   1.777   1.606   2.827
  332SOL     OW 1130   2.492   2.840   0.567
  332SOL    HW1 1131   2.519   2.929   0.545
  332SOL    HW2 1132   2.401   2.835   0.539
  333SOL     OW 1133   2.549   1.350   1.020
  333SOL    HW1 1134   2.502   1.416   1.071
  333SOL    HW2 1135   2.490   1.275   1.017
  334SOL     OW 1136   1.183   3.230   3.273
  334SOL    HW1 1137   1.190   3.289   3.348
  334SOL    HW2 1138   1.138   3.153   3.307
  335SOL     OW 1139   0.625   2.485   3.791
  335SOL    HW1 1140   0.664   2.490   3.879
  335SOL    HW2 1141   0.699   2.462   3.734
  336SOL     OW 1142   1.864   0.312   0.492
  336SOL    HW1 1143   1.839   0.400   0.519
  336SOL    HW2 1144   1.951   0.299   0.529
  337SOL     OW 1145   0.368   0.803   2.088
  337SOL    HW1 1146   0.343   0.873   2.148
  337SOL    HW2 1147   0.416   0.740   2.142
  338SOL     OW 1148   1.540   1.362   0.610
  338SOL    HW1 1149   1.448   1.337   0.614
  338SOL    HW2 1150   1.539   1.456   0.595
  339SOL     OW 1151   0.511   0.143   3.041
  339SOL    HW1 1152   0.434   0.139   3.099
  339SOL    HW2 1153   0.483   0.198   2.968
  340SOL     OW 1154   0.596   2.898   1.524
  340SOL    HW1 1155   0.641   2.821   1.559
  340SOL    HW2 1156   0.631   2.972   1.574
  341SOL     OW 1157   2.661   1.640   3.621
  341SOL    HW1 1158   2.739   1.585   3.617
  341SOL    HW2 1159   2.621   1.618   3.706
  342SOL     OW 1160   1.593   3.244   1.227
  342SOL    HW1 1161   1.650   3.317   1.206
  342SOL    HW2 1162   1.639   3.167   1.193
  343SOL     OW 1163   3.077   0.109   0.371
  343SOL    HW1 1164   3.087   0.018   0.343
  343SOL    HW2 1165   3.166   0.137   0.393
  344SOL     OW 1166   0.370   1.787   2.961
  344SOL    HW1 1167   0.285   1.770   2.920
  344SOL    HW2 1168   0.429   1.806   2.889
  345SOL     OW 1169   3.543   0.841   2.828
  345SOL    HW1 1170   3.592   0.771   2.871
  345SOL    HW2 1171   3.451   0.813   2.836
  346SOL     OW 1172   0.201   2.658   2.107
  346SOL    HW1 1173   0.276   2.715   2.091
  346SOL    HW2 1174   0.234   2.591   2.167
  347SOL     OW 1175   2.244   3.527   3.088
  347SOL    HW1 1176   2.325   3.517   3.138
  347SOL    HW2 1177   2.194   3.448   3.109
  348SOL     OW 1178   1.932   0.883   0.469
  348SOL    HW1 1179   1.913   0.977   0.471
  348SOL    HW2 1180   2.006   0.872   0.528
  349SOL     OW 1181   3.277   1.903   3.851
  349SOL    HW1 1182   3.192   1.932   3.883
  349SOL    HW2 1183   3.340   1.934   3.916
  350SOL     OW 1184   2.446   0.119   3.465
  350SOL    HW1 1185   2.529   0.071   3.470
  350SOL    HW2 1186   2.389   0.063   3.412
  351SOL     OW 1187   2.111   3.082   0.433
  351SOL    HW1 1188   2.081   3.171   0.452
  351SOL    HW2 1189   2.110   3.075   0.338
  352SOL     OW 1190   3.477   2.737   3.883
  352SOL    HW1 1191   3.560   2.767   3.846
  352SOL    HW2 1192   3.418   2.730   3.808
  353SOL     OW 1193   2.601   1.215   3.041
  353SOL    HW1 1194   2.686   1.182   3.010
  353SOL    HW2 1195   2.541   1.198   2.969
  354SOL     OW 1196   0.682   1.608   0.576
  354SOL    HW1 1197   0.695   1.611   0.481
  354SOL    HW2 1198   0.607   1.549   0.587
  355SOL     OW 1199   2.917   0.641   0.079
  355SOL    HW1 1200   2.865   0.699   0.136
  355SOL    HW2 1201   2.853   0.596   0.025
  356SOL     OW 1202   1.522   1.163   2.210
  356SOL    HW1 1203   1.601   1.197   2.168
  356SOL    HW2 1204   1.554   1.094   2.269
  357SOL     OW 1205   3.703   2.280   0.701
  357SOL    HW1 1206   3.726   2.190   0.680
  357SOL    HW2 1207   3.757   2.333   0.643
  358SOL     OW 1208   0.923   1.867   0.376
  358SOL    HW1 1209   0.914   1.913   0.459
  358SOL    HW2 1210   0.935   1.936   0.311
  359SOL     OW 1211   2.534   2.430   1.882
  359SOL    HW1 1212   2.451   2.398   1.917
  359SOL    HW2 1213   2.527   2.417   1.787
  360SOL     OW 1214   1.775   0.391   1.250
  360SOL    HW1 1215   1.818   0.339   1.182
  360SOL    HW2 1216   1.716   0.449   1.203
  361SOL     OW 1217   2.384   1.536   0.196
  361SOL    HW1 1218   2.297   1.510   0.226
  361SOL    HW2 1219   2.439   1.530   0.274
  362SOL     OW 1220   1.288   0.759   0.291
  362SOL    HW1 1221   1.250   0.739   0.376
  362SOL    HW2 1222   1.322   0.676   0.260
  363SOL     OW 1223   0.468   1.171   0.595
  363SOL    HW1 1224   0.521   1.129   0.662
  363SOL    HW2 1225   0.444   1.101   0.534
  364SOL     OW 1226   2.518   0.181   1.436
  364SOL    HW1 1227   2.605   0.179   1.396
  364SOL    HW2 1228   2.466   0.236   1.378
  365SOL     OW 1229   1.742   2.689   2.423
  365SOL    HW1 1230   1.659   2.648   2.445
  365SOL    HW2 1231   1.806   2.618   2.427
  366SOL     OW 1232   2.020   3.343   0.400
  366SOL    HW1 1233   2.023   3.401   0.476
  366SOL    HW2 1234   1.964   3.388   0.338
  367SOL     OW 1235   1.877   2.560   0.745
  367SOL    HW1 1236   1.835   2.512   0.817
  367SOL    HW2 1237   1.969   2.566   0.772
  368SOL     OW 1238   2.745   1.099   2.740
  368SOL    HW1 1239   2.828   1.089   2.787
  368SOL    HW2 1240   2.747   1.033   2.671
  369SOL     OW 1241   2.610   0.795   3.771
  369SOL    HW1 1242   2.627   0.831   3.684
  369SOL    HW2 1243   2.668   0.719   3.778
  370SOL     OW 1244   3.919   2.146   2.123
  370SOL    HW1 1245   3.934   2.196   2.043
  370SOL    HW2 1246   3.830   2.113   2.115
  371SOL     OW 1247   2.437   0.979   1.353
  371SOL    HW1 1248   2.410   1.001   1.442
  371SOL    HW2 1249   2.479   0.893   1.361
  372SOL     OW 1250   1.578   2.110   0.421
  372SOL    HW1 1251   1.533   2.097   0.337
  372SOL    HW2 1252   1.536   2.187   0.459
  373SOL     OW 1253   0.227   3.713   0.038
  373SOL    HW1 1254   0.264   3.763   0.110
  373SOL    HW2 1255   0.225   3.775  -0.036
  374SOL     OW 1256   2.582   3.110   0.516
  374SOL    HW1 1257   2.532   3.135   0.439
  374SOL    HW2 1258   2.579   3.187   0.573
  375SOL     OW 1259   0.317   0.793   0.469
  375SOL    HW1 1260   0.302   0.753   0.384
  375SOL    HW2 1261   0.409   0.819   0.467
  376SOL     OW 1262   0.228   3.827   2.147
  376SOL    HW1 1263   0.289   3.758   2.123
  376SOL    HW2 1264   0.141   3.790   2.128
  377SOL     OW 1265   2.138   0.310   0.501
  377SOL    HW1 1266   2.191   0.276   0.429
  377SOL    HW2 1267   2.126   0.402   0.480
  378SOL     OW 1268   0.133   1.905   2.402
  378SOL    HW1 1269   0.201   1.930   2.465
  378SOL    HW2 1270   0.054   1.900   2.455
  379SOL     OW 1271   3.754   3.678   3.492
  379SOL    HW1 1272   3.720   3.763   3.521
  379SOL    HW2 1273   3.677   3.631   3.460
  380SOL     OW 1274   0.166   2.753   3.107
  380SOL    HW1 1275   0.075   2.780   3.113
  380SOL    HW2 1276   0.174   2.681   3.170
  381SOL     OW 1277   0.137   3.701   0.347
  381SOL    HW1 1278   0.155   3.795   0.350
  381SOL    HW2 1279   0.195   3.667   0.279
  382SOL     OW 1280   1.965   0.977   3.271
  382SOL    HW1 1281   1.922   0.934   3.344
  382SOL    HW2 1282   1.894   1.001   3.212
  383SOL     OW 1283   0.101   1.696   1.131
  383SOL    HW1 1284   0.106   1.608   1.167
  383SOL    HW2 1285   0.190   1.713   1.098
  384SOL     OW 1286   0.664   3.616   2.098
  384SOL    HW1 1287   0.595   3.680   2.083
  384SOL    HW2 1288   0.741   3.653   2.055
  385SOL     OW 1289   1.776   3.295   0.659
  385SOL    HW1 1290   1.858   3.284   0.706
  385SOL    HW2 1291   1.721   3.346   0.718
  386SOL     OW 1292   3.659   1.871   0.054
  386SOL    HW1 1293   3.592   1.937   0.073
  386SOL    HW2 1294   3.626   1.791   0.093
  387SOL     OW 1295   3.110   1.568   0.980
  387SOL    HW1 1296   3.060   1.641   0.945
  387SOL    HW2 1297   3.058   1.491   0.962
  388SOL     OW 1298   1.162   2.776   1.479
  388SOL    HW1 1299   1.211   2.722   1.542
  388SOL    HW2 1300   1.076   2.734   1.473
  389SOL     OW 1301   2.234   2.209   3.025
  389SOL    HW1 1302   2.261   2.236   3.112
  389SOL    HW2 1303   2.306   2.235   2.968
  390SOL     OW 1304   3.031   2.664   2.944
  390SOL    HW1 1305   3.089   2.702   2.878
  390SOL    HW2 1306   3.078   2.672   3.026
  391SOL     OW 1307   1.060   0.624   3.250
  391SOL    HW1 1308   1.155   0.614   3.252
  391SOL    HW2 1309   1.037   0.659   3.336
  392SOL     OW 1310   2.891   1.540   3.172
  392SOL    HW1 1311   2.931   1.578   3.094
  392SOL    HW2 1312   2.928   1.452   3.178
  393SOL     OW 1313   3.759   0.668   2.973
  393SOL    HW1 1314   3.810   0.706   2.902
  393SOL    HW2 1315   3.812   0.682   3.051
  394SOL     OW 1316   3.924   3.402   1.386
  394SOL    HW1 1317   3.990   3.409   1.317
  394SOL    HW2 1318   3.934   3.483   1.437
  395SOL     OW 1319   2.320   2.959   2.129
  395SOL    HW1 1320   2.334   2.997   2.042
  395SOL    HW2 1321   2.240   2.907   2.119
  396SOL     OW 1322   2.741   2.758   3.277
  396SOL    HW1 1323   2.650   2.735   3.297
  396SOL    HW2 1324   2.778   2.785   3.361
  397SOL     OW 1325  -0.033   2.689   3.738
  397SOL    HW1 1326   0.051   2.728   3.715
  397SOL    HW2 1327  -0.010   2.610   3.787
  398SOL     OW 1328   1.063   3.854   2.095
  398SOL    HW1 1329   1.044   3.944   2.069
  398SOL    HW2 1330   1.116   3.862   2.174
  399SOL     OW 1331   0.451   3.183   3.255
  399SOL    HW1 1332   0.447   3.255   3.317
  399SOL    HW2 1333   0.386   3.120   3.286
  400SOL     OW 1334   3.737   0.579   3.410
  400SOL    HW1 1335   3.824   0.617   3.421
  400SOL    HW2 1336   3.744   0.524   3.332
  401SOL     OW 1337   2.575   2.166   3.145
  401SOL    HW1 1338   2.558   2.075   3.169
  401SOL    HW2 1339   2.571   2.214   3.228
  402SOL     OW 1340   3.031   3.615   3.194
  402SOL    HW1 1341   3.014   3.557   3.269
  402SOL    HW2 1342   3.113   3.583   3.157
  403SOL     OW 1343   2.931   3.596   1.822
  403SOL    HW1 1344   3.016   3.625   1.789
  403SOL    HW2 1345   2.947   3.508   1.857
  404SOL     OW 1346   2.592   2.336   1.593
  404SOL    HW1 1347   2.601   2.252   1.638
  404SOL    HW2 1348   2.583   2.313   1.500
  405SOL     OW 1349   0.095   2.057   0.595
  405SOL    HW1 1350   0.119   2.103   0.674
  405SOL    HW2 1351   0.149   2.095   0.526
  406SOL     OW 1352   0.252   0.279   1.924
  406SOL    HW1 1353   0.218   0.268   1.835
  406SOL    HW2 1354   0.309   0.355   1.920
  407SOL     OW 1355   1.863   2.637   0.474
  407SOL    HW1 1356   1.871   2.618   0.568
  407SOL    HW2 1357   1.902   2.724   0.465
  408SOL     OW 1358   2.601   1.983   1.338
  408SOL    HW1 1359   2.569   1.966   1.427
  408SOL    HW2 1360   2.653   2.063   1.347
  409SOL     OW 1361   1.869   2.259   1.788
  409SOL    HW1 1362   1.851   2.216   1.703
  409SOL    HW2 1363   1.830   2.346   1.779
  410SOL     OW 1364   0.502   1.925   3.503
  410SOL    HW1 1365   0.430   1.923   3.439
  410SOL    HW2 1366   0.522   1.833   3.519
  411SOL     OW 1367   1.280   3.095   0.196
  411SOL    HW1 1368   1.245   3.126   0.279
  411SOL    HW2 1369   1.260   3.001   0.195
  412SOL     OW 1370   0.452   3.914   0.803
  412SOL    HW1 1371   0.485   3.995   0.841
  412SOL    HW2 1372   0.467   3.923   0.709
  413SOL     OW 1373   0.299   1.317   2.944
  413SOL    HW1 1374   0.392   1.314   2.968
  413SOL    HW2 1375   0.286   1.240   2.889
  414SOL     OW 1376   0.360   3.117   3.867
  414SOL    HW1 1377   0.352   3.213   3.872
  414SOL    HW2 1378   0.453   3.100   3.887
  415SOL     OW 1379   3.450   2.802   1.387
  415SOL    HW1 1380   3.378   2.787   1.325
  415SOL    HW2 1381   3.525   2.823   1.332
  416SOL     OW 1382   3.015   0.700   1.003
  416SOL    HW1 1383   3.100   0.673   1.036
  416SOL    HW2 1384   2.970   0.738   1.079
  417SOL     OW 1385   0.994   0.170   0.871
  417SOL    HW1 1386   0.983   0.234   0.942
  417SOL    HW2 1387   1.064   0.112   0.902
  418SOL     OW 1388   3.497   0.530   1.995
  418SOL    HW1 1389   3.549   0.538   2.076
  418SOL    HW2 1390   3.419   0.482   2.021
  419SOL     OW 1391   2.300   3.030   2.837
  419SOL    HW1 1392   2.336   2.941   2.839
  419SOL    HW2 1393   2.357   3.079   2.897
  420SOL     OW 1394   3.145   3.333   3.536
  420SOL    HW1 1395   3.169   3.416   3.579
  420SOL    HW2 1396   3.115   3.358   3.449
  421SOL     OW 1397   2.811   2.141   3.454
  421SOL    HW1 1398   2.884   2.204   3.459
  421SOL    HW2 1399   2.734   2.196   3.437
  422SOL     OW 1400   0.712   0.136   0.795
  422SOL    HW1 1401   0.731   0.174   0.709
  422SOL    HW2 1402   0.797   0.134   0.839
  423SOL     OW 1403   2.735   3.515   2.480
  423SOL    HW1 1404   2.717   3.431   2.523
  423SOL    HW2 1405   2.696   3.581   2.538
  424SOL     OW 1406   3.717   2.574   3.033
  424SOL    HW1 1407   3.657   2.552   2.962
  424SOL    HW2 1408   3.693   2.514   3.104
  425SOL     OW 1409   2.247   2.989   1.069
  425SOL    HW1 1410   2.180   3.005   1.136
  425SOL    HW2 1411   2.324   3.037   1.100
  426SOL     OW 1412   2.904   0.190   1.434
  426SOL    HW1 1413   2.884   0.102   1.404
  426SOL    HW2 1414   2.910   0.183   1.529
  427SOL     OW 1415   0.693   2.274   1.650
  427SOL    HW1 1416   0.742   2.221   1.712
  427SOL    HW2 1417   0.723   2.244   1.564
  428SOL     OW 1418   0.587   1.925   2.361
  428SOL    HW1 1419   0.662   1.948   2.416
  428SOL    HW2 1420   0.534   1.867   2.416
  429SOL     OW 1421   0.176   0.785   2.905
  429SOL    HW1 1422   0.253   0.819   2.952
  429SOL    HW2 1423   0.144   0.860   2.855
  430SOL     OW 1424   1.085   3.449   2.399
  430SOL    HW1 1425   1.148   3.438   2.328
  430SOL    HW2 1426   1.000   3.458   2.355
  431SOL     OW 1427   1.663   3.983   2.263
  431SOL    HW1 1428   1.594   3.990   2.197
  431SOL    HW2 1429   1.680   3.889   2.268
  432SOL     OW 1430   1.778   1.203   3.819
  432SOL    HW1 1431   1.703   1.189   3.761
  432SOL    HW2 1432   1.779   1.297   3.835
  433SOL     OW 1433   3.552   3.632   3.331
  433SOL    HW1 1434   3.557   3.572   3.256
  433SOL    HW2 1435   3.468   3.678   3.319
  434SOL     OW 1436   2.845   2.706   2.734
  434SOL    HW1 1437   2.898   2.719   2.656
  434SOL    HW2 1438   2.905   2.669   2.798
  435SOL     OW 1439   3.400   3.344   2.859
  435SOL    HW1 1440   3.369   3.423   2.814
  435SOL    HW2 1441   3.485   3.325   2.819
  436SOL     OW 1442   2.793   0.860   0.209
  436SOL    HW1 1443   2.736   0.848   0.285
  436SOL    HW2 1444   2.771   0.947   0.176
  437SOL     OW 1445   3.655   1.426   1.552
  437SOL    HW1 1446   3.710   1.450   1.627
  437SOL    HW2 1447   3.654   1.504   1.497
  438SOL     OW 1448   3.923   0.250   1.024
  438SOL    HW1 1449   3.830   0.265   1.006
  438SOL    HW2 1450   3.948   0.322   1.081
  439SOL     OW 1451   0.390   2.456   1.202
  439SOL    HW1 1452   0.353   2.481   1.287
  439SOL    HW2 1453   0.447   2.530   1.178
  440SOL     OW 1454   3.131   3.255   0.409
  440SOL    HW1 1455   3.074   3.218   0.341
  440SOL    HW2 1456   3.086   3.235   0.491
  441SOL     OW 1457   0.693   2.556   0.799
  441SOL    HW1 1458   0.746   2.632   0.825
  441SOL    HW2 1459   0.650   2.583   0.718
  442SOL     OW 1460   1.426   3.572   2.379
  442SOL    HW1 1461   1.480   3.647   2.403
  442SOL    HW2 1462   1.448   3.504   2.443
  443SOL     OW 1463   3.379   3.094   1.925
  443SOL    HW1 1464   3.348   3.183   1.942
  443SOL    HW2 1465   3.424   3.101   1.840
  444SOL     OW 1466   2.971   1.454   3.824
  444SOL    HW1 1467   2.877   1.441   3.837
  444SOL    HW2 1468   3.009   1.367   3.839
  445SOL     OW 1469   2.590   1.642   3.362
  445SOL    HW1 1470   2.635   1.639   3.447
  445SOL    HW2 1471   2.497   1.638   3.384
  446SOL     OW 1472   1.379   0.349   2.635
  446SOL    HW1 1473   1.320   0.420   2.661
  446SOL    HW2 1474   1.357   0.331   2.544
  447SOL     OW 1475   0.868   3.761   1.935
  447SOL    HW1 1476   0.932   3.802   1.993
  447SOL    HW2 1477   0.857   3.824   1.864
  448SOL     OW 1478   1.522   2.901   0.242
  448SOL    HW1 1479   1.616   2.913   0.237
  448SOL    HW2 1480   1.485   2.989   0.228
  449SOL     OW 1481   0.043   1.005   2.779
  449SOL    HW1 1482   0.039   0.968   2.691
  449SOL    HW2 1483   0.121   1.061   2.778
  450SOL     OW 1484   0.921   2.637   1.410
  450SOL    HW1 1485   0.866   2.691   1.467
  450SOL    HW2 1486   0.860   2.579   1.364
  451SOL     OW 1487   1.727   1.018   3.141
  451SOL    HW1 1488   1.657   1.064   3.187
  451SOL    HW2 1489   1.698   0.926   3.140
  452SOL     OW 1490   2.849   2.114   2.560
  452SOL    HW1 1491   2.840   2.210   2.555
  452SOL    HW2 1492   2.940   2.097   2.536
  453SOL     OW 1493   1.581   0.338   1.470
  453SOL    HW1 1494   1.649   0.355   1.405
  453SOL    HW2 1495   1.561   0.245   1.460
  454SOL     OW 1496   1.565   0.793   3.135
  454SOL    HW1 1497   1.567   0.697   3.142
  454SOL    HW2 1498   1.502   0.820   3.201
  455SOL     OW 1499   2.700   0.249   1.244
  455SOL    HW1 1500   2.716   0.325   1.188
  455SOL    HW2 1501   2.784   0.232   1.286
  456SOL     OW 1502   0.824   0.567   1.997
  456SOL    HW1 1503   0.820   0.554   2.092
  456SOL    HW2 1504   0.846   0.480   1.962
  457SOL     OW 1505   3.572   3.780   1.310
  457SOL    HW1 1506   3.604   3.866   1.283
  457SOL    HW2 1507   3.599   3.771   1.401
  458SOL     OW 1508   0.197   0.515   2.556
  458SOL    HW1 1509   0.181   0.443   2.617
  458SOL    HW2 1510   0.240   0.582   2.608
  459SOL     OW 1511   3.757   2.630   0.106
  459SOL    HW1 1512   3.777   2.557   0.164
  459SOL    HW2 1513   3.727   2.700   0.165
  460SOL     OW 1514   0.986   3.184   0.215
  460SOL    HW1 1515   0.949   3.135   0.288
  460SOL    HW2 1516   1.016   3.266   0.254
  461SOL     OW 1517   2.205   2.084   1.689
  461SOL    HW1 1518   2.116   2.107   1.661
  461SOL    HW2 1519   2.227   2.006   1.638
  462SOL     OW 1520  -0.002   2.701   2.724
  462SOL    HW1 1521   0.068   2.689   2.659
  462SOL    HW2 1522   0.016   2.786   2.764
  463SOL     OW 1523   0.041   1.128   1.795
  463SOL    HW1 1524   0.080   1.067   1.858
  463SOL    HW2 1525   0.097   1.120   1.717
  464SOL     OW 1526   3.628   0.402   3.850
  464SOL    HW1 1527   3.670   0.376   3.768
  464SOL    HW2 1528   3.546   0.443   3.823
  465SOL     OW 1529   1.181   3.050   1.580
  465SOL    HW1 1530   1.271   3.074   1.602
  465SOL    HW2 1531   1.185   2.956   1.565
  466SOL     OW 1532   3.744   3.109   2.052
  466SOL    HW1 1533   3.790   3.031   2.023
  466SOL    HW2 1534   3.657   3.102   2.013
  467SOL     OW 1535   3.460   1.778   0.428
  467SOL    HW1 1536   3.445   1.711   0.360
  467SOL    HW2 1537   3.532   1.744   0.480
  468SOL     OW 1538   3.083   3.582   2.843
  468SOL    HW1 1539   3.091   3.677   2.853
  468SOL    HW2 1540   3.161   3.557   2.794
  469SOL     OW 1541   2.816   3.441   0.417
  469SOL    HW1 1542   2.850   3.369   0.470
  469SOL    HW2 1543   2.803   3.402   0.330
  470SOL     OW 1544   2.499   0.510   0.875
  470SOL    HW1 1545   2.435   0.558   0.927
  470SOL    HW2 1546   2.521   0.434   0.929
  471SOL     OW 1547   0.483   0.158   1.043
  471SOL    HW1 1548   0.441   0.103   1.109
  471SOL    HW2 1549   0.466   0.248   1.073
  472SOL     OW 1550   3.039   2.528   1.577
  472SOL    HW1 1551   3.073   2.568   1.657
  472SOL    HW2 1552   3.096   2.562   1.508
  473SOL     OW 1553   0.979   2.718   2.402
  473SOL    HW1 1554   0.909   2.688   2.345
  473SOL    HW2 1555   0.953   2.690   2.489
  474SOL     OW 1556   2.929   3.175   1.147
  474SOL    HW1 1557   2.947   3.122   1.225
  474SOL    HW2 1558   2.944   3.116   1.073
  475SOL     OW 1559   3.893   2.522   0.697
  475SOL    HW1 1560   3.947   2.532   0.618
  475SOL    HW2 1561   3.946   2.466   0.755
  476SOL     OW 1562   3.924   0.074   1.892
  476SOL    HW1 1563   3.959   0.118   1.969
  476SOL    HW2 1564   3.832   0.059   1.913
  477SOL     OW 1565   1.782   3.152   0.110
  477SOL    HW1 1566   1.723   3.188   0.176
  477SOL    HW2 1567   1.829   3.082   0.155
  478SOL     OW 1568   2.646   2.035   1.851
  478SOL    HW1 1569   2.645   1.946   1.885
  478SOL    HW2 1570   2.633   2.090   1.929
  479SOL     OW 1571   0.377   2.610   2.971
  479SOL    HW1 1572   0.375   2.525   3.016
  479SOL    HW2 1573   0.310   2.662   3.015
  480SOL     OW 1574   2.401   0.584   3.950
  480SOL    HW1 1575   2.435   0.671   3.927
  480SOL    HW2 1576   2.346   0.559   3.876
  481SOL     OW 1577   0.753   2.086   0.480
  481SOL    HW1 1578   0.764   2.066   0.387
  481SOL    HW2 1579   0.703   2.168   0.482
  482SOL     OW 1580   0.774   2.435   1.282
  482SOL    HW1 1581   0.800   2.345   1.302
  482SOL    HW2 1582   0.679   2.436   1.291
  483SOL     OW 1583   1.055   0.389   0.015
  483SOL    HW1 1584   1.148   0.372  -0.001
  483SOL    HW2 1585   1.016   0.303   0.025
  484SOL     OW 1586   2.920   3.143   1.650
  484SOL    HW1 1587   2.982   3.170   1.718
  484SOL    HW2 1588   2.950   3.056   1.623
  485SOL     OW 1589   3.712   3.007   2.922
  485SOL    HW1 1590   3.621   3.015   2.951
  485SOL    HW2 1591   3.721   2.915   2.898
  486SOL     OW 1592   0.558   2.986   2.635
  486SOL    HW1 1593   0.635   2.967   2.583
  486SOL    HW2 1594   0.580   2.957   2.723
  487SOL     OW 1595   3.780   3.402   3.589
  487SOL    HW1 1596   3.728   3.373   3.514
  487SOL    HW2 1597   3.715   3.431   3.653
  488SOL     OW 1598   3.727   0.597   0.795
  488SOL    HW1 1599   3.668   0.567   0.726
  488SOL    HW2 1600   3.809   0.550   0.779
  489SOL     OW 1601   1.452   2.122   2.917
  489SOL    HW1 1602   1.431   2.046   2.862
  489SOL    HW2 1603   1.378   2.127   2.979
  490SOL     OW 1604   3.828   3.064   0.322
  490SOL    HW1 1605   3.855   3.142   0.371
  490SOL    HW2 1606   3.741   3.044   0.357
  491SOL     OW 1607   0.443   3.274   1.268
  491SOL    HW1 1608   0.360   3.281   1.219
  491SOL    HW2 1609   0.457   3.362   1.303
  492SOL     OW 1610   2.974   1.580   2.299
  492SOL    HW1 1611   3.064   1.553   2.281
  492SOL    HW2 1612   2.982   1.638   2.375
  493SOL     OW 1613   2.306   2.439   2.856
  493SOL    HW1 1614   2.352   2.475   2.932
  493SOL    HW2 1615   2.222   2.485   2.854
  494SOL     OW 1616   2.352   0.053   1.972
  494SOL    HW1 1617   2.399   0.075   1.891
  494SOL    HW2 1618   2.331  -0.040   1.964
  495SOL     OW 1619   0.353   3.147   0.676
  495SOL    HW1 1620   0.327   3.056   0.690
  495SOL    HW2 1621   0.351   3.158   0.581
  496SOL     OW 1622   1.858   1.238   3.461
  496SOL    HW1 1623   1.813   1.318   3.490
  496SOL    HW2 1624   1.799   1.167   3.486
  497SOL     OW 1625   3.260   0.304   2.562
  497SOL    HW1 1626   3.349   0.297   2.597
  497SOL    HW2 1627   3.251   0.397   2.540
  498SOL     OW 1628   0.668   1.935   0.241
  498SOL    HW1 1629   0.731   1.872   0.276
  498SOL    HW2 1630   0.583   1.897   0.259
  499SOL     OW 1631   1.323   0.429   1.616
  499SOL    HW1 1632   1.387   0.366   1.650
  499SOL    HW2 1633   1.238   0.390   1.636
  500SOL     OW 1634   2.088   3.620   2.239
  500SOL    HW1 1635   2.041   3.662   2.167
  500SOL    HW2 1636   2.049   3.533   2.246
  501SOL     OW 1637   0.753   2.322   2.318
  501SOL    HW1 1638   0.671   2.290   2.356
  501SOL    HW2 1639   0.755   2.285   2.230
  502SOL     OW 1640   2.047   0.725   3.542
  502SOL    HW1 1641   2.119   0.777   3.508
  502SOL    HW2 1642   2.016   0.773   3.618
  503SOL     OW 1643   0.065   2.229   3.630
  503SOL    HW1 1644   0.037   2.157   3.574
  503SOL    HW2 1645   0.050   2.198   3.719
  504SOL     OW 1646   2.194   3.483   3.775
  504SOL    HW1 1647   2.284   3.474   3.742
  504SOL    HW2 1648   2.146   3.411   3.736
  505SOL     OW 1649   2.151   0.866   3.925
  505SOL    HW1 1650   2.143   0.771   3.915
  505SOL    HW2 1651   2.246   0.882   3.923
  506SOL     OW 1652   2.074   1.941   3.414
  506SOL    HW1 1653   2.099   1.988   3.494
  506SOL    HW2 1654   2.033   1.861   3.444
  507SOL     OW 1655   3.378   0.804   1.651
  507SOL    HW1 1656   3.403   0.895   1.631
  507SOL    HW2 1657   3.441   0.751   1.602
  508SOL     OW 1658   1.239   0.810   2.527
  508SOL    HW1 1659   1.252   0.875   2.596
  508SOL    HW2 1660   1.201   0.859   2.454
  509SOL     OW 1661   0.729   3.205   0.848
  509SOL    HW1 1662   0.773   3.280   0.888
  509SOL    HW2 1663   0.673   3.170   0.918
  510SOL     OW 1664   3.063   0.626   0.737
  510SOL    HW1 1665   2.990   0.589   0.687
  510SOL    HW2 1666   3.048   0.595   0.827
  511SOL     OW 1667   1.461   3.638   2.785
  511SOL    HW1 1668   1.493   3.614   2.871
  511SOL    HW2 1669   1.493   3.569   2.727
  512SOL     OW 1670   3.795   1.469   0.993
  512SOL    HW1 1671   3.729   1.417   1.038
  512SOL    HW2 1672   3.875   1.455   1.043
  513SOL     OW 1673   1.129   1.809   0.699
  513SOL    HW1 1674   1.058   1.872   0.699
  513SOL    HW2 1675   1.087   1.726   0.674
  514SOL     OW 1676   2.772   2.398   1.996
  514SOL    HW1 1677   2.842   2.456   1.965
  514SOL    HW2 1678   2.697   2.418   1.939
  515SOL     OW 1679   0.228   3.840   3.520
  515SOL    HW1 1680   0.158   3.782   3.551
  515SOL    HW2 1681   0.309   3.799   3.550
  516SOL     OW 1682   2.168   2.076   1.358
  516SOL    HW1 1683   2.239   2.025   1.318
  516SOL    HW2 1684   2.211   2.156   1.388
  517SOL     OW 1685   1.548   3.324   3.637
  517SOL    HW1 1686   1.609   3.373   3.693
  517SOL    HW2 1687   1.486   3.286   3.699
  518SOL     OW 1688   1.908   1.276   0.572
  518SOL    HW1 1689   1.847   1.233   0.512
  518SOL    HW2 1690   1.916   1.216   0.646
  519SOL     OW 1691   0.583   1.712   0.067
  519SOL    HW1 1692   0.633   1.700  -0.013
  519SOL    HW2 1693   0.561   1.805   0.069
  520SOL     OW 1694   3.256   0.525   3.466
  520SOL    HW1 1695   3.238   0.434   3.486
  520SOL    HW2 1696   3.337   0.523   3.415
  521SOL     OW 1697   1.773   0.052   0.976
  521SOL    HW1 1698   1.747  -0.025   1.025
  521SOL    HW2 1699   1.836   0.097   1.033
  522SOL     OW 1700   3.867   3.645   2.370
  522SOL    HW1 1701   3.900   3.708   2.305
  522SOL    HW2 1702   3.946   3.610   2.412
  523SOL     OW 1703   2.183   2.137   2.084
  523SOL    HW1 1704   2.126   2.061   2.096
  523SOL    HW2 1705   2.168   2.191   2.161
  524SOL     OW 1706   2.182   2.828   3.580
  524SOL    HW1 1707   2.129   2.765   3.531
  524SOL    HW2 1708   2.192   2.903   3.521
  525SOL     OW 1709   3.373   3.734   1.939
  525SOL    HW1 1710   3.344   3.777   1.859
  525SOL    HW2 1711   3.350   3.795   2.009
  526SOL     OW 1712   2.155   1.220   3.410
  526SOL    HW1 1713   2.190   1.132   3.395
  526SOL    HW2 1714   2.069   1.204   3.451
  527SOL     OW 1715   3.742   1.074   2.299
  527SOL    HW1 1716   3.742   1.115   2.386
  527SOL    HW2 1717   3.653   1.086   2.266
  528SOL     OW 1718   0.539   0.501   1.252
  528SOL    HW1 1719   0.581   0.416   1.262
  528SOL    HW2 1720   0.507   0.503   1.162
  529SOL     OW 1721   0.417   0.960   1.373
  529SOL    HW1 1722   0.359   0.971   1.297
  529SOL    HW2 1723   0.383   0.883   1.418
  530SOL     OW 1724   0.134   3.934   1.489
  530SOL    HW1 1725   0.218   3.953   1.529
  530SOL    HW2 1726   0.072   3.991   1.533
  531SOL     OW 1727   2.088   3.255   0.748
  531SOL    HW1 1728   2.136   3.312   0.689
  531SOL    HW2 1729   2.093   3.168   0.707
  532SOL     OW 1730   3.889   2.073   3.441
  532SOL    HW1 1731   3.829   2.110   3.376
  532SOL    HW2 1732   3.850   1.989   3.465
  533SOL     OW 1733   1.867   3.721   2.019
  533SOL    HW1 1734   1.854   3.770   2.101
  533SOL    HW2 1735   1.872   3.788   1.951
  534SOL     OW 1736   1.135   2.920   3.684
  534SOL    HW1 1737   1.084   2.951   3.758
  534SOL    HW2 1738   1.213   2.881   3.724
  535SOL     OW 1739   2.990   3.833   2.556
  535SOL    HW1 1740   3.063   3.887   2.585
  535SOL    HW2 1741   2.944   3.810   2.637
  536SOL     OW 1742   2.462   0.993   0.752
  536SOL    HW1 1743   2.552   0.995   0.786
  536SOL    HW2 1744   2.427   1.079   0.776
  537SOL     OW 1745   1.325   3.164   1.246
  537SOL    HW1 1746   1.327   3.153   1.151
  537SOL    HW2 1747   1.415   3.152   1.274
  538SOL     OW 1748   2.714   1.389   3.890
  538SOL    HW1 1749   2.693   1.339   3.811
  538SOL    HW2 1750   2.632   1.433   3.913
  539SOL     OW 1751   1.799   1.478   3.552
  539SOL    HW1 1752   1.742   1.467   3.476
  539SOL    HW2 1753   1.775   1.563   3.589
  540SOL     OW 1754   3.102   0.998   0.357
  540SOL    HW1 1755   3.035   0.988   0.289
  540SOL    HW2 1756   3.052   1.008   0.438
  541SOL     OW 1757   0.996   0.296   2.327
  541SOL    HW1 1758   1.032   0.212   2.357
  541SOL    HW2 1759   0.937   0.323   2.398
  542SOL     OW 1760   0.137   0.882   0.036
  542SOL    HW1 1761   0.162   0.945   0.105
  542SOL    HW2 1762   0.053   0.847   0.065
  543SOL     OW 1763   1.891   3.809   3.913
  543SOL    HW1 1764   1.889   3.851   3.827
  543SOL    HW2 1765   1.799   3.806   3.940
  544SOL     OW 1766   1.759   3.053   1.147
  544SOL    HW1 1767   1.846   3.081   1.118
  544SOL    HW2 1768   1.747   2.967   1.106
  545SOL     OW 1769   0.747   2.864   3.055
  545SOL    HW1 1770   0.679   2.851   2.989
  545SOL    HW2 1771   0.730   2.951   3.091
  546SOL     OW 1772   3.543   0.672   3.606
  546SOL    HW1 1773   3.611   0.641   3.546
  546SOL    HW2 1774   3.494   0.736   3.555
  547SOL     OW 1775   1.727   0.021   1.884
  547SOL    HW1 1776   1.758   0.073   1.958
  547SOL    HW2 1777   1.753   0.071   1.806
  548SOL     OW 1778   3.650   3.414   1.220
  548SOL    HW1 1779   3.745   3.423   1.211
  548SOL    HW2 1780   3.628   3.338   1.166
  549SOL     OW 1781   1.702   3.820   3.643
  549SOL    HW1 1782   1.622   3.854   3.601
  549SOL    HW2 1783   1.705   3.728   3.617
  550SOL     OW 1784   2.108   2.257   1.122
  550SOL    HW1 1785   2.187   2.312   1.125
  550SOL    HW2 1786   2.130   2.182   1.178
  551SOL     OW 1787   2.041   1.781   3.075
  551SOL    HW1 1788   2.062   1.705   3.128
  551SOL    HW2 1789   2.122   1.831   3.070
  552SOL     OW 1790   0.890   2.719   1.108
  552SOL    HW1 1791   0.862   2.805   1.138
  552SOL    HW2 1792   0.939   2.683   1.182
  553SOL     OW 1793   1.129   3.078   3.906
  553SOL    HW1 1794   1.207   3.100   3.956
  553SOL    HW2 1795   1.056   3.111   3.959
  554SOL     OW 1796   0.160   2.992   1.263
  554SOL    HW1 1797   0.203   3.062   1.312
  554SOL    HW2 1798   0.081   2.973   1.313
  555SOL     OW 1799   3.578   0.964   1.030
  555SOL    HW1 1800   3.591   0.912   1.110
  555SOL    HW2 1801   3.583   1.055   1.059
  556SOL     OW 1802   0.025   3.331   0.458
  556SOL    HW1 1803   0.086   3.352   0.529
  556SOL    HW2 1804  -0.007   3.417   0.429
  557SOL     OW 1805   1.746   2.252   1.275
  557SOL    HW1 1806   1.706   2.185   1.332
  557SOL    HW2 1807   1.777   2.202   1.199
  558SOL     OW 1808   0.510   3.341   1.598
  558SOL    HW1 1809   0.473   3.253   1.596
  558SOL    HW2 1810   0.598   3.329   1.634
  559SOL     OW 1811   3.639   3.272   3.324
  559SOL    HW1 1812   3.571   3.205   3.336
  559SOL    HW2 1813   3.594   3.342   3.276
  560SOL     OW 1814   1.030   2.015   2.724
  560SOL    HW1 1815   1.039   1.982   2.814
  560SOL    HW2 1816   1.114   2.057   2.705
  561SOL     OW 1817   3.683   2.756   3.229
  561SOL    HW1 1818   3.768   2.780   3.265
  561SOL    HW2 1819   3.701   2.676   3.178
  562SOL     OW 1820   3.522   3.980   0.941
  562SOL    HW1 1821   3.588   3.965   0.872
  562SOL    HW2 1822   3.487   3.893   0.959
  563SOL     OW 1823   0.907   3.474   1.245
  563SOL    HW1 1824   0.970   3.416   1.288
  563SOL    HW2 1825   0.913   3.556   1.293
  564SOL     OW 1826   3.627   2.399   1.011
  564SOL    HW1 1827   3.673   2.361   1.086
  564SOL    HW2 1828   3.605   2.325   0.956
  565SOL     OW 1829   2.010   1.527   0.886
  565SOL    HW1 1830   2.031   1.446   0.931
  565SOL    HW2 1831   1.940   1.567   0.939
  566SOL     OW 1832   1.924   3.144   3.188
  566SOL    HW1 1833   1.895   3.171   3.275
  566SOL    HW2 1834   1.842   3.125   3.141
  567SOL     OW 1835   3.248   3.089   3.474
  567SOL    HW1 1836   3.332   3.106   3.517
  567SOL    HW2 1837   3.206   3.175   3.470
  568SOL     OW 1838   0.623   0.432   1.730
  568SOL    HW1 1839   0.697   0.492   1.732
  568SOL    HW2 1840   0.576   0.448   1.813
  569SOL     OW 1841   0.937   2.869   0.131
  569SOL    HW1 1842   0.944   2.774   0.138
  569SOL    HW2 1843   1.027   2.900   0.129
  570SOL     OW 1844   0.007   1.559   0.575
  570SOL    HW1 1845   0.062   1.599   0.643
  570SOL    HW2 1846   0.067   1.503   0.526
  571SOL     OW 1847   0.335   0.333   2.903
  571SOL    HW1 1848   0.307   0.267   2.840
  571SOL    HW2 1849   0.297   0.304   2.986
  572SOL     OW 1850   1.145   0.245   0.307
  572SOL    HW1 1851   1.218   0.204   0.355
  572SOL    HW2 1852   1.144   0.201   0.223
  573SOL     OW 1853   0.897   1.962   0.705
  573SOL    HW1 1854   0.863   2.032   0.649
  573SOL    HW2 1855   0.901   2.002   0.792
  574SOL     OW 1856   2.094  -0.001   3.401
  574SOL    HW1 1857   2.134  -0.057   3.334
  574SOL    HW2 1858   2.109   0.088   3.370
  575SOL     OW 1859   3.387   0.586   0.155
  575SOL    HW1 1860   3.357   0.657   0.212
  575SOL    HW2 1861   3.309   0.534   0.138
  576SOL     OW 1862   3.915   3.712   0.083
  576SOL    HW1 1863   4.010   3.705   0.080
  576SOL    HW2 1864   3.883   3.626   0.055
  577SOL     OW 1865   1.980   2.447   2.616
  577SOL    HW1 1866   2.032   2.371   2.643
  577SOL    HW2 1867   1.980   2.505   2.692
  578SOL     OW 1868   0.412   0.507   1.933
  578SOL    HW1 1869   0.364   0.578   1.891
  578SOL    HW2 1870   0.403   0.525   2.027
  579SOL     OW 1871   2.070   0.268   0.743
  579SOL    HW1 1872   2.099   0.293   0.655
  579SOL    HW2 1873   1.999   0.206   0.728
  580SOL     OW 1874   2.687   0.669   3.214
  580SOL    HW1 1875   2.624   0.725   3.168
  580SOL    HW2 1876   2.759   0.658   3.153
  581SOL     OW 1877   0.336   2.844   2.565
  581SOL    HW1 1878   0.414   2.890   2.592
  581SOL    HW2 1879   0.291   2.905   2.506
  582SOL     OW 1880   2.531   0.270   3.143
  582SOL    HW1 1881   2.578   0.187   3.156
  582SOL    HW2 1882   2.554   0.323   3.219
  583SOL     OW 1883   3.687   2.275   1.263
  583SOL    HW1 1884   3.637   2.205   1.221
  583SOL    HW2 1885   3.678   2.257   1.357
  584SOL     OW 1886   0.318   1.431   1.202
  584SOL    HW1 1887   0.339   1.446   1.110
  584SOL    HW2 1888   0.384   1.482   1.250
  585SOL     OW 1889   2.286   0.212   3.665
  585SOL    HW1 1890   2.351   0.188   3.599
  585SOL    HW2 1891   2.237   0.285   3.626
  586SOL     OW 1892   3.064   1.932   0.701
  586SOL    HW1 1893   3.046   1.848   0.743
  586SOL    HW2 1894   3.147   1.919   0.656
  587SOL     OW 1895   3.057   1.342   3.263
  587SOL    HW1 1896   3.060   1.256   3.222
  587SOL    HW2 1897   3.121   1.337   3.334
  588SOL     OW 1898   1.009   2.047   0.048
  588SOL    HW1 1899   0.977   2.097  -0.027
  588SOL    HW2 1900   1.071   1.985   0.011
  589SOL     OW 1901   1.126   3.885   2.668
  589SOL    HW1 1902   1.065   3.851   2.733
  589SOL    HW2 1903   1.202   3.828   2.674
  590SOL     OW 1904   0.790   3.396   1.647
  590SOL    HW1 1905   0.815   3.409   1.739
  590SOL    HW2 1906   0.859   3.438   1.597
  591SOL     OW 1907   2.405   0.423   2.213
  591SOL    HW1 1908   2.436   0.338   2.246
  591SOL    HW2 1909   2.394   0.477   2.290
  592SOL     OW 1910   0.765   1.264   0.290
  592SOL    HW1 1911   0.822   1.231   0.359
  592SOL    HW2 1912   0.823   1.310   0.230
  593SOL     OW 1913   0.911   2.082   3.184
  593SOL    HW1 1914   0.869   1.999   3.207
  593SOL    HW2 1915   0.942   2.117   3.267
  594SOL     OW 1916   2.527   1.370   2.608
  594SOL    HW1 1917   2.529   1.454   2.563
  594SOL    HW2 1918   2.595   1.318   2.565
  595SOL     OW 1919   1.434   2.286   1.326
  595SOL    HW1 1920   1.521   2.280   1.286
  595SOL    HW2 1921   1.385   2.213   1.288
  596SOL     OW 1922   2.280   3.471   0.691
  596SOL    HW1 1923   2.191   3.488   0.721
  596SOL    HW2 1924   2.314   3.557   0.666
  597SOL     OW 1925   3.560   2.850   0.981
  597SOL    HW1 1926   3.599   2.837   1.067
  597SOL    HW2 1927   3.594   2.777   0.928
  598SOL     OW 1928   1.901   2.941   2.285
  598SOL    HW1 1929   1.935   2.935   2.196
  598SOL    HW2 1930   1.906   2.851   2.318
  599SOL     OW 1931   3.561   0.030   2.248
  599SOL    HW1 1932   3.501   0.103   2.261
  599SOL    HW2 1933   3.590   0.039   2.157
  600SOL     OW 1934   0.450   3.419   3.442
  600SOL    HW1 1935   0.431   3.496   3.389
  600SOL    HW2 1936   0.523   3.445   3.498
  601SOL     OW 1937   1.332   2.609   0.297
  601SOL    HW1 1938   1.380   2.593   0.378
  601SOL    HW2 1939   1.365   2.544   0.236
  602SOL     OW 1940   0.995   1.541   2.563
  602SOL    HW1 1941   1.038   1.558   2.479
  602SOL    HW2 1942   0.928   1.609   2.569
  603SOL     OW 1943   2.399   2.564   0.425
  603SOL    HW1 1944   2.320   2.588   0.376
  603SOL    HW2 1945   2.365   2.514   0.499
  604SOL     OW 1946   1.437   2.058   0.839
  604SOL    HW1 1947   1.476   2.012   0.765
  604SOL    HW2 1948   1.474   2.147   0.834
  605SOL     OW 1949   1.960   3.540   1.387
  605SOL    HW1 1950   1.935   3.604   1.454
  605SOL    HW2 1951   1.976   3.460   1.437
  606SOL     OW 1952   0.014   2.023   0.249
  606SOL    HW1 1953   0.009   1.954   0.316
  606SOL    HW2 1954   0.097   2.006   0.204
  607SOL     OW 1955   3.493   0.613   1.461
  607SOL    HW1 1956   3.545   0.582   1.536
  607SOL    HW2 1957   3.558   0.648   1.400
  608SOL     OW 1958   0.948   3.125   2.554
  608SOL    HW1 1959   0.973   3.120   2.462
  608SOL    HW2 1960   0.881   3.194   2.557
  609SOL     OW 1961   3.730   1.557   3.866
  609SOL    HW1 1962   3.790   1.506   3.920
  609SOL    HW2 1963   3.750   1.531   3.776
  610SOL     OW 1964   2.673   3.106   2.456
  610SOL    HW1 1965   2.656   3.023   2.501
  610SOL    HW2 1966   2.587   3.135   2.426
  611SOL     OW 1967   3.930   2.104   0.939
  611SOL    HW1 1968   3.980   2.034   0.981
  611SOL    HW2 1969   3.859   2.058   0.894
  612SOL     OW 1970   1.988   0.080   0.134
  612SOL    HW1 1971   1.968   0.002   0.083
  612SOL    HW2 1972   1.936   0.071   0.213
  613SOL     OW 1973   1.874   2.315   0.600
  613SOL    HW1 1974   1.867   2.375   0.674
  613SOL    HW2 1975   1.824   2.356   0.530
  614SOL     OW 1976   3.512   1.028   1.609
  614SOL    HW1 1977   3.564   1.066   1.539
  614SOL    HW2 1978   3.486   1.104   1.663
  615SOL     OW 1979   0.315   3.648   1.886
  615SOL    HW1 1980   0.352   3.626   1.801
  615SOL    HW2 1981   0.362   3.593   1.948
  616SOL     OW 1982   2.922   0.322   0.340
  616SOL    HW1 1983   2.986   0.388   0.312
  616SOL    HW2 1984   2.960   0.239   0.312
  617SOL     OW 1985   0.827   1.481   1.122
  617SOL    HW1 1986   0.758   1.533   1.162
  617SOL    HW2 1987   0.904   1.497   1.177
  618SOL     OW 1988   0.295   3.225   3.550
  618SOL    HW1 1989   0.358   3.168   3.595
  618SOL    HW2 1990   0.346   3.302   3.525
  619SOL     OW 1991   1.162   3.693   1.633
  619SOL    HW1 1992   1.215   3.738   1.698
  619SOL    HW2 1993   1.219   3.626   1.597
  620SOL     OW 1994   3.948   2.457   2.914
  620SOL    HW1 1995   3.879   2.481   2.975
  620SOL    HW2 1996   3.941   2.520   2.842
  621SOL     OW 1997   2.682   1.201   3.718
  621SOL    HW1 1998   2.705   1.179   3.628
  621SOL    HW2 1999   2.735   1.141   3.771
  622SOL     OW 2000   3.011   0.966   0.603
  622SOL    HW1 2001   3.051   0.883   0.629
  622SOL    HW2 2002   3.041   1.029   0.669
  623SOL     OW 2003   0.126   2.572   0.105
  623SOL    HW1 2004   0.036   2.554   0.135
  623SOL    HW2 2005   0.137   2.515   0.029
  624SOL     OW 2006   1.835   3.740   1.511
  624SOL    HW1 2007   1.905   3.747   1.576
  624SOL    HW2 2008   1.754   3.753   1.561
  625SOL     OW 2009   3.103   0.360   3.826
  625SOL    HW1 2010   3.044   0.286   3.809
  625SOL    HW2 2011   3.171   0.324   3.882
  626SOL     OW 2012   0.293   3.002   1.018
  626SOL    HW1 2013   0.249   3.073   0.972
  626SOL    HW2 2014   0.245   2.993   1.100
  627SOL     OW 2015   3.102   0.431   3.212
  627SOL    HW1 2016   3.081   0.431   3.306
  627SOL    HW2 2017   3.098   0.338   3.187
  628SOL     OW 2018   2.511   1.365   3.295
  628SOL    HW1 2019   2.558   1.330   3.219
  628SOL    HW2 2020   2.580   1.399   3.351
  629SOL     OW 2021   2.775   3.297   0.173
  629SOL    HW1 2022   2.734   3.279   0.089
  629SOL    HW2 2023   2.788   3.210   0.212
  630SOL     OW 2024   3.900   2.957   0.731
  630SOL    HW1 2025   3.853   2.913   0.802
  630SOL    HW2 2026   3.860   2.923   0.651
  631SOL     OW 2027   3.174   2.343   2.280
  631SOL    HW1 2028   3.122   2.412   2.239
  631SOL    HW2 2029   3.226   2.388   2.346
  632SOL     OW 2030   0.081   0.797   0.969
  632SOL    HW1 2031   0.122   0.882   0.980
  632SOL    HW2 2032  -0.004   0.816   0.930
  633SOL     OW 2033   2.986   3.368   1.967
  633SOL    HW1 2034   2.917   3.306   1.943
  633SOL    HW2 2035   2.999   3.354   2.061
  634SOL     OW 2036   3.844   3.129   3.132
  634SOL    HW1 2037   3.776   3.156   3.194
  634SOL    HW2 2038   3.795   3.089   3.059
  635SOL     OW 2039   1.429   2.694   2.221
  635SOL    HW1 2040   1.438   2.708   2.315
  635SOL    HW2 2041   1.496   2.750   2.182
  636SOL     OW 2042   3.757   1.109   2.615
  636SOL    HW1 2043   3.787   1.132   2.703
  636SOL    HW2 2044   3.706   1.185   2.587
  637SOL     OW 2045   0.831   3.017   3.481
  637SOL    HW1 2046   0.782   3.085   3.529
  637SOL    HW2 2047   0.763   2.956   3.451
  638SOL     OW 2048   2.050   3.408   2.650
  638SOL    HW1 2049   2.111   3.338   2.626
  638SOL    HW2 2050   2.104   3.474   2.692
  639SOL     OW 2051   0.751   3.814   0.667
  639SOL    HW1 2052   0.701   3.892   0.693
  639SOL    HW2 2053   0.734   3.751   0.737
  640SOL     OW 2054   0.594   2.645   1.118
  640SOL    HW1 2055   0.566   2.674   1.032
  640SOL    HW2 2056   0.690   2.643   1.114
  641SOL     OW 2057   0.998   0.366   2.705
  641SOL    HW1 2058   0.918   0.374   2.653
  641SOL    HW2 2059   1.064   0.412   2.653
  642SOL     OW 2060   3.183   2.666   3.743
  642SOL    HW1 2061   3.158   2.669   3.835
  642SOL    HW2 2062   3.147   2.583   3.711
  643SOL     OW 2063   1.570   1.036   0.885
  643SOL    HW1 2064   1.518   1.110   0.917
  643SOL    HW2 2065   1.651   1.075   0.853
  644SOL     OW 2066   0.009   0.786   3.120
  644SOL    HW1 2067   0.024   0.863   3.175
  644SOL    HW2 2068   0.077   0.791   3.053
  645SOL     OW 2069   0.413   1.768   1.739
  645SOL    HW1 2070   0.352   1.701   1.769
  645SOL    HW2 2071   0.360   1.848   1.734
  646SOL     OW 2072   2.223   3.812   3.205
  646SOL    HW1 2073   2.294   3.872   3.183
  646SOL    HW2 2074   2.250   3.728   3.166
  647SOL     OW 2075   1.520   1.997   1.572
  647SOL    HW1 2076   1.435   2.017   1.534
  647SOL    HW2 2077   1.577   1.980   1.496
  648SOL     OW 2078   1.231   2.129   2.566
  648SOL    HW1 2079   1.239   2.187   2.490
  648SOL    HW2 2080   1.253   2.043   2.532
  649SOL     OW 2081   3.933   2.963   2.778
  649SOL    HW1 2082   3.982   3.042   2.758
  649SOL    HW2 2083   3.851   2.994   2.817
  650SOL     OW 2084   0.270   2.787   1.583
  650SOL    HW1 2085   0.318   2.814   1.504
  650SOL    HW2 2086   0.331   2.730   1.629
  651SOL     OW 2087   3.334   2.103   0.858
  651SOL    HW1 2088   3.302   2.190   0.833
  651SOL    HW2 2089   3.274   2.042   0.815
  652SOL     OW 2090   3.850   3.115   3.549
  652SOL    HW1 2091   3.809   3.198   3.572
  652SOL    HW2 2092   3.866   3.071   3.633
  653SOL     OW 2093   1.563   0.626   2.630
  653SOL    HW1 2094   1.626   0.692   2.658
  653SOL    HW2 2095   1.516   0.602   2.710
  654SOL     OW 2096   3.296   3.731   1.416
  654SOL    HW1 2097   3.354   3.804   1.393
  654SOL    HW2 2098   3.319   3.662   1.354
  655SOL     OW 2099   2.928   1.489   2.831
  655SOL    HW1 2100   2.937   1.412   2.774
  655SOL    HW2 2101   2.834   1.502   2.839
  656SOL     OW 2102   2.295   2.355   0.879
  656SOL    HW1 2103   2.376   2.371   0.928
  656SOL    HW2 2104   2.230   2.335   0.947
  657SOL     OW 2105   0.518   1.011   0.388
  657SOL    HW1 2106   0.547   1.098   0.361
  657SOL    HW2 2107   0.519   0.960   0.308
  658SOL     OW 2108   2.479   2.140   0.383
  658SOL    HW1 2109   2.435   2.085   0.448
  658SOL    HW2 2110   2.503   2.219   0.431
  659SOL     OW 2111   2.153   1.699   0.041
  659SOL    HW1 2112   2.094   1.629   0.069
  659SOL    HW2 2113   2.190   1.667  -0.042
  660SOL     OW 2114   3.593   0.290   0.920
  660SOL    HW1 2115   3.591   0.200   0.953
  660SOL    HW2 2116   3.526   0.292   0.852
  661SOL     OW 2117   1.487   1.847   3.712
  661SOL    HW1 2118   1.510   1.918   3.773
  661SOL    HW2 2119   1.469   1.891   3.629
  662SOL     OW 2120   1.622   1.598   1.540
  662SOL    HW1 2121   1.664   1.535   1.599
  662SOL    HW2 2122   1.529   1.578   1.548
  663SOL     OW 2123   0.318   2.777   1.274
  663SOL    HW1 2124   0.382   2.798   1.342
  663SOL    HW2 2125   0.271   2.859   1.259
  664SOL     OW 2126   2.314   0.670   1.012
  664SOL    HW1 2127   2.257   0.600   0.982
  664SOL    HW2 2128   2.257   0.726   1.065
  665SOL     OW 2129   3.261   3.491   3.074
  665SOL    HW1 2130   3.208   3.411   3.066
  665SOL    HW2 2131   3.350   3.463   3.053
  666SOL     OW 2132   3.115   0.914   2.418
  666SOL    HW1 2133   3.174   0.897   2.344
  666SOL    HW2 2134   3.168   0.963   2.480
  667SOL     OW 2135   2.317   2.987   3.139
  667SOL    HW1 2136   2.310   2.994   3.234
  667SOL    HW2 2137   2.343   3.075   3.110
  668SOL     OW 2138   2.211   1.584   3.749
  668SOL    HW1 2139   2.147   1.550   3.686
  668SOL    HW2 2140   2.275   1.630   3.695
  669SOL     OW 2141   3.541   0.566   1.013
  669SOL    HW1 2142   3.598   0.614   0.953
  669SOL    HW2 2143   3.562   0.474   0.998
  670SOL     OW 2144   2.786   2.729   2.147
  670SOL    HW1 2145   2.710   2.673   2.163
  670SOL    HW2 2146   2.749   2.812   2.117
  671SOL     OW 2147   2.130   1.374   0.703
  671SOL    HW1 2148   2.077   1.441   0.746
  671SOL    HW2 2149   2.069   1.331   0.642
  672SOL     OW 2150   3.125   2.735   0.273
  672SOL    HW1 2151   3.176   2.711   0.351
  672SOL    HW2 2152   3.034   2.730   0.302
  673SOL     OW 2153   3.685   1.466   2.253
  673SOL    HW1 2154   3.722   1.552   2.229
  673SOL    HW2 2155   3.672   1.422   2.169
  674SOL     OW 2156   2.268   3.763   1.947
  674SOL    HW1 2157   2.313   3.732   2.026
  674SOL    HW2 2158   2.242   3.682   1.902
  675SOL     OW 2159   2.099   3.332   2.173
  675SOL    HW1 2160   2.172   3.346   2.234
  675SOL    HW2 2161   2.058   3.251   2.203
  676SOL     OW 2162   0.010   0.671   3.524
  676SOL    HW1 2163  -0.048   0.743   3.548
  676SOL    HW2 2164   0.057   0.651   3.605
  677SOL     OW 2165   0.874   2.714   3.544
  677SOL    HW1 2166   0.869   2.750   3.633
  677SOL    HW2 2167   0.859   2.788   3.487
  678SOL     OW 2168   0.204   2.003   1.683
  678SOL    HW1 2169   0.134   2.052   1.725
  678SOL    HW2 2170   0.222   2.050   1.602
  679SOL     OW 2171   3.009   2.534   3.204
  679SOL    HW1 2172   3.068   2.462   3.181
  679SOL    HW2 2173   3.065   2.612   3.202
  680SOL     OW 2174   2.786   0.949   3.158
  680SOL    HW1 2175   2.847   0.954   3.084
  680SOL    HW2 2176   2.840   0.919   3.231
  681SOL     OW 2177   2.223   2.770   0.905
  681SOL    HW1 2178   2.172   2.701   0.947
  681SOL    HW2 2179   2.229   2.839   0.972
  682SOL     OW 2180   2.730   2.532   3.103
  682SOL    HW1 2181   2.695   2.606   3.153
  682SOL    HW2 2182   2.823   2.530   3.126
  683SOL     OW 2183   3.605   3.015   0.482
  683SOL    HW1 2184   3.511   3.013   0.466
  683SOL    HW2 2185   3.613   3.004   0.577
  684SOL     OW 2186   2.320   1.900   3.544
  684SOL    HW1 2187   2.320   1.871   3.636
  684SOL    HW2 2188   2.313   1.819   3.494
  685SOL     OW 2189   0.067   2.409   2.263
  685SOL    HW1 2190   0.043   2.319   2.284
  685SOL    HW2 2191   0.162   2.411   2.271
  686SOL     OW 2192   0.355   2.223   0.359
  686SOL    HW1 2193   0.308   2.174   0.292
  686SOL    HW2 2194   0.382   2.158   0.423
  687SOL     OW 2195   2.655   3.444   1.495
  687SOL    HW1 2196   2.675   3.505   1.566
  687SOL    HW2 2197   2.607   3.496   1.431
  688SOL     OW 2198   3.062   3.577   2.434
  688SOL    HW1 2199   3.136   3.628   2.400
  688SOL    HW2 2200   3.025   3.631   2.503
  689SOL     OW 2201   1.549   1.723   0.045
  689SOL    HW1 2202   1.530   1.816   0.031
  689SOL    HW2 2203   1.642   1.722   0.069
  690SOL     OW 2204   1.115   0.559   2.261
  690SOL    HW1 2205   1.155   0.537   2.176
  690SOL    HW2 2206   1.031   0.513   2.260
  691SOL     OW 2207   0.418   2.274   1.676
  691SOL    HW1 2208   0.508   2.285   1.647
  691SOL    HW2 2209   0.424   2.221   1.755
  692SOL     OW 2210   1.248   2.035   3.721
  692SOL    HW1 2211   1.286   1.948   3.731
  692SOL    HW2 2212   1.172   2.022   3.665
  693SOL     OW 2213   0.169   3.890   0.813
  693SOL    HW1 2214   0.263   3.910   0.807
  693SOL    HW2 2215   0.166   3.797   0.838
  694SOL     OW 2216   3.096   0.841   3.033
  694SOL    HW1 2217   3.028   0.777   3.055
  694SOL    HW2 2218   3.176   0.788   3.026
  695SOL     OW 2219   1.247   1.179   1.831
  695SOL    HW1 2220   1.253   1.087   1.856
  695SOL    HW2 2221   1.204   1.222   1.905
  696SOL     OW 2222   0.509   1.557   2.864
  696SOL    HW1 2223   0.496   1.639   2.912
  696SOL    HW2 2224   0.420   1.524   2.851
  697SOL     OW 2225   2.017   3.814   0.546
  697SOL    HW1 2226   1.985   3.899   0.514
  697SOL    HW2 2227   2.067   3.836   0.624
  698SOL     OW 2228   1.406   3.909   2.431
  698SOL    HW1 2229   1.440   3.980   2.376
  698SOL    HW2 2230   1.475   3.894   2.496
  699SOL     OW 2231   3.623   3.413   0.263
  699SOL    HW1 2232   3.554   3.357   0.296
  699SOL    HW2 2233   3.684   3.423   0.336
  700SOL     OW 2234   3.298   2.186   0.456
  700SOL    HW1 2235   3.292   2.210   0.548
  700SOL    HW2 2236   3.384   2.145   0.447
  701SOL     OW 2237   2.337   3.061   1.823
  701SOL    HW1 2238   2.426   3.097   1.824
  701SOL    HW2 2239   2.341   2.990   1.759
  702SOL     OW 2240   3.464   2.813   2.048
  702SOL    HW1 2241   3.398   2.882   2.039
  702SOL    HW2 2242   3.514   2.837   2.126
  703SOL     OW 2243   1.603   3.987   0.223
  703SOL    HW1 2244   1.567   3.899   0.227
  703SOL    HW2 2245   1.636   3.995   0.133
  704SOL     OW 2246   1.356   1.915   2.782
  704SOL    HW1 2247   1.285   1.853   2.791
  704SOL    HW2 2248   1.374   1.918   2.688
  705SOL     OW 2249   2.255   1.941   3.049
  705SOL    HW1 2250   2.335   1.915   3.003
  705SOL    HW2 2251   2.255   2.037   3.045
  706SOL     OW 2252   3.101   0.666   1.697
  706SOL    HW1 2253   3.066   0.739   1.749
  706SOL    HW2 2254   3.193   0.689   1.683
  707SOL     OW 2255   0.742   3.886   2.369
  707SOL    HW1 2256   0.834   3.863   2.376
  707SOL    HW2 2257   0.713   3.901   2.459
  708SOL     OW 2258   2.369   3.514   0.427
  708SOL    HW1 2259   2.361   3.596   0.477
  708SOL    HW2 2260   2.376   3.446   0.494
  709SOL     OW 2261   1.499   3.166   3.884
  709SOL    HW1 2262   1.493   3.213   3.967
  709SOL    HW2 2263   1.592   3.146   3.875
  710SOL     OW 2264   2.923   1.846   1.760
  710SOL    HW1 2265   2.997   1.874   1.705
  710SOL    HW2 2266   2.961   1.833   1.847
  711SOL     OW 2267   3.192   3.548   0.049
  711SOL    HW1 2268   3.112   3.515   0.008
  711SOL    HW2 2269   3.162   3.617   0.107
  712SOL     OW 2270   0.459   2.588   0.275
  712SOL    HW1 2271   0.501   2.512   0.235
  712SOL    HW2 2272   0.391   2.613   0.212
  713SOL     OW 2273   1.867   2.120   0.365
  713SOL    HW1 2274   1.889   2.166   0.445
  713SOL    HW2 2275   1.772   2.108   0.369
  714SOL     OW 2276   2.766   3.821   2.731
  714SOL    HW1 2277   2.735   3.905   2.766
  714SOL    HW2 2278   2.702   3.799   2.663
  715SOL     OW 2279   1.562   2.775   3.696
  715SOL    HW1 2280   1.630   2.769   3.763
  715SOL    HW2 2281   1.609   2.800   3.616
  716SOL     OW 2282   3.515   3.802   0.060
  716SOL    HW1 2283   3.500   3.708   0.051
  716SOL    HW2 2284   3.563   3.811   0.143
  717SOL     OW 2285   0.643   2.079   2.829
  717SOL    HW1 2286   0.739   2.087   2.831
  717SOL    HW2 2287   0.612   2.168   2.815
  718SOL     OW 2288   0.102   3.191   2.697
  718SOL    HW1 2289   0.173   3.218   2.639
  718SOL    HW2 2290   0.068   3.274   2.733
  719SOL     OW 2291   3.618   1.658   3.228
  719SOL    HW1 2292   3.557   1.598   3.272
  719SOL    HW2 2293   3.569   1.740   3.220
  720SOL     OW 2294   1.814   0.578   3.442
  720SOL    HW1 2295   1.886   0.607   3.497
  720SOL    HW2 2296   1.855   0.553   3.359
  721SOL     OW 2297   0.502   0.015   1.838
  721SOL    HW1 2298   0.505  -0.065   1.890
  721SOL    HW2 2299   0.565   0.073   1.880
  722SOL     OW 2300   0.690   2.940   0.243
  722SOL    HW1 2301   0.706   2.914   0.334
  722SOL    HW2 2302   0.774   2.925   0.198
  723SOL     OW 2303   2.033   3.916   1.199
  723SOL    HW1 2304   2.079   3.861   1.263
  723SOL    HW2 2305   1.989   3.982   1.252
  724SOL     OW 2306   2.844   0.518   2.824
  724SOL    HW1 2307   2.814   0.429   2.845
  724SOL    HW2 2308   2.790   0.543   2.749
  725SOL     OW 2309   1.311   0.282   3.219
  725SOL    HW1 2310   1.388   0.234   3.249
  725SOL    HW2 2311   1.273   0.226   3.151
  726SOL     OW 2312   1.374   1.310   3.591
  726SOL    HW1 2313   1.392   1.398   3.558
  726SOL    HW2 2314   1.434   1.300   3.665
  727SOL     OW 2315   0.806   1.171   1.170
  727SOL    HW1 2316   0.825   1.265   1.167
  727SOL    HW2 2317   0.733   1.159   1.109
  728SOL     OW 2318   3.403   1.881   1.812
  728SOL    HW1 2319   3.486   1.836   1.800
  728SOL    HW2 2320   3.408   1.918   1.900
  729SOL     OW 2321   1.249   1.035   3.087
  729SOL    HW1 2322   1.204   1.017   3.170
  729SOL    HW2 2323   1.321   1.093   3.110
  730SOL     OW 2324   0.657   3.716   3.454
  730SOL    HW1 2325   0.603   3.704   3.375
  730SOL    HW2 2326   0.702   3.633   3.466
  731SOL     OW 2327   3.763   0.159   3.113
  731SOL    HW1 2328   3.833   0.109   3.154
  731SOL    HW2 2329   3.708   0.093   3.071
  732SOL     OW 2330   1.814   2.157   2.635
  732SOL    HW1 2331   1.869   2.155   2.713
  732SOL    HW2 2332   1.872   2.128   2.564
  733SOL     OW 2333   0.259   1.074   1.631
  733SOL    HW1 2334   0.310   1.065   1.551
  733SOL    HW2 2335   0.270   0.990   1.676
  734SOL     OW 2336   1.383   1.578   3.553
  734SOL    HW1 2337   1.412   1.669   3.555
  734SOL    HW2 2338   1.309   1.575   3.613
  735SOL     OW 2339   3.759   3.324   2.409
  735SOL    HW1 2340   3.766   3.419   2.415
  735SOL    HW2 2341   3.704   3.309   2.332
  736SOL     OW 2342   1.381   3.425   0.680
  736SOL    HW1 2343   1.397   3.363   0.751
  736SOL    HW2 2344   1.308   3.478   0.711
  737SOL     OW 2345   1.261   1.287   0.685
  737SOL    HW1 2346   1.197   1.292   0.757
  737SOL    HW2 2347   1.214   1.242   0.615
  738SOL     OW 2348   1.828   1.868   3.841
  738SOL    HW1 2349   1.804   1.956   3.869
  738SOL    HW2 2350   1.852   1.822   3.921
  739SOL     OW 2351   1.811   1.094   1.286
  739SOL    HW1 2352   1.737   1.153   1.295
  739SOL    HW2 2353   1.788   1.017   1.339
  740SOL     OW 2354   0.786   1.851   3.210
  740SOL    HW1 2355   0.797   1.778   3.271
  740SOL    HW2 2356   0.691   1.860   3.200
  741SOL     OW 2357   3.968   3.573   3.337
  741SOL    HW1 2358   3.901   3.628   3.379
  741SOL    HW2 2359   3.997   3.513   3.406
  742SOL     OW 2360   3.489   0.644   2.552
  742SOL    HW1 2361   3.500   0.671   2.644
  742SOL    HW2 2362   3.396   0.657   2.535
  743SOL     OW 2363   3.540   3.023   3.517
  743SOL    HW1 2364   3.539   2.942   3.568
  743SOL    HW2 2365   3.578   3.089   3.576
  744SOL     OW 2366   0.971   2.585   2.660
  744SOL    HW1 2367   1.059   2.551   2.676
  744SOL    HW2 2368   0.921   2.510   2.627
  745SOL     OW 2369   1.422   0.668   1.808
  745SOL    HW1 2370   1.352   0.677   1.744
  745SOL    HW2 2371   1.503   0.670   1.756
  746SOL     OW 2372   2.830   3.207   2.751
  746SOL    HW1 2373   2.798   3.117   2.751
  746SOL    HW2 2374   2.926   3.199   2.751
  747SOL     OW 2375   3.685   3.834   3.033
  747SOL    HW1 2376   3.606   3.807   3.078
  747SOL    HW2 2377   3.753   3.775   3.066
  748SOL     OW 2378   1.514   1.643   0.589
  748SOL    HW1 2379   1.537   1.664   0.679
  748SOL    HW2 2380   1.421   1.666   0.582
  749SOL     OW 2381   2.049   2.595   1.009
  749SOL    HW1 2382   1.987   2.543   0.958
  749SOL    HW2 2383   1.999   2.628   1.083
  750SOL     OW 2384   0.513   0.575   3.500
  750SOL    HW1 2385   0.430   0.574   3.452
  750SOL    HW2 2386   0.580   0.564   3.433
  751SOL     OW 2387   3.706   0.997   0.245
  751SOL    HW1 2388   3.780   0.953   0.202
  751SOL    HW2 2389   3.671   1.055   0.177
  752SOL     OW 2390   3.879   1.751   3.194
  752SOL    HW1 2391   3.945   1.788   3.253
  752SOL    HW2 2392   3.797   1.758   3.243
  753SOL     OW 2393   0.989   3.043   0.739
  753SOL    HW1 2394   0.982   3.120   0.795
  753SOL    HW2 2395   1.083   3.023   0.737
  754SOL     OW 2396   3.953   0.214   2.410
  754SOL    HW1 2397   3.956   0.305   2.382
  754SOL    HW2 2398   3.859   0.193   2.413
  755SOL     OW 2399   2.031   0.673   1.785
  755SOL    HW1 2400   2.069   0.627   1.711
  755SOL    HW2 2401   1.937   0.653   1.781
  756SOL     OW 2402   3.166   0.034   3.504
  756SOL    HW1 2403   3.236   0.079   3.553
  756SOL    HW2 2404   3.146  -0.043   3.557
  757SOL     OW 2405   3.738   1.093   0.722
  757SOL    HW1 2406   3.761   1.015   0.773
  757SOL    HW2 2407   3.650   1.117   0.752
  758SOL     OW 2408   0.910   0.643   2.840
  758SOL    HW1 2409   0.981   0.704   2.861
  758SOL    HW2 2410   0.919   0.628   2.746
  759SOL     OW 2411   0.782   2.780   3.802
  759SOL    HW1 2412   0.810   2.792   3.893
  759SOL    HW2 2413   0.771   2.685   3.793
  760SOL     OW 2414   1.785   0.362   0.227
  760SOL    HW1 2415   1.872   0.393   0.251
  760SOL    HW2 2416   1.742   0.344   0.310
  761SOL     OW 2417   2.279   2.781   0.062
  761SOL    HW1 2418   2.221   2.761  -0.011
  761SOL    HW2 2419   2.354   2.723   0.051
  762SOL     OW 2420   3.234   3.480   2.631
  762SOL    HW1 2421   3.207   3.389   2.639
  762SOL    HW2 2422   3.187   3.512   2.554
  763SOL     OW 2423   1.582   2.599   2.927
  763SOL    HW1 2424   1.501   2.593   2.875
  763SOL    HW2 2425   1.552   2.622   3.015
  764SOL     OW 2426   3.389   2.819   3.625
  764SOL    HW1 2427   3.299   2.794   3.647
  764SOL    HW2 2428   3.397   2.803   3.532
  765SOL     OW 2429   1.306   1.605   2.994
  765SOL    HW1 2430   1.302   1.623   2.900
  765SOL    HW2 2431   1.215   1.606   3.024
  766SOL     OW 2432   2.389   3.603   2.454
  766SOL    HW1 2433   2.330   3.678   2.453
  766SOL    HW2 2434   2.443   3.617   2.532
  767SOL     OW 2435   0.372   0.041   3.846
  767SOL    HW1 2436   0.331   0.006   3.767
  767SOL    HW2 2437   0.301   0.049   3.909
  768SOL     OW 2438   0.730   0.191   2.245
  768SOL    HW1 2439   0.819   0.221   2.264
  768SOL    HW2 2440   0.714   0.121   2.309
  769SOL     OW 2441   0.792   0.048   0.231
  769SOL    HW1 2442   0.713   0.058   0.284
  769SOL    HW2 2443   0.812  -0.045   0.235
  770SOL     OW 2444   3.307   0.363   1.999
  770SOL    HW1 2445   3.265   0.289   2.043
  770SOL    HW2 2446   3.238   0.399   1.942
  771SOL     OW 2447   2.446   2.499   3.116
  771SOL    HW1 2448   2.442   2.589   3.147
  771SOL    HW2 2449   2.420   2.446   3.191
  772SOL     OW 2450   3.508   0.127   2.774
  772SOL    HW1 2451   3.584   0.179   2.803
  772SOL    HW2 2452   3.528   0.105   2.683
  773SOL     OW 2453   3.385   2.358   0.676
  773SOL    HW1 2454   3.414   2.408   0.599
  773SOL    HW2 2455   3.465   2.322   0.713
  774SOL     OW 2456   2.899   1.405   0.839
  774SOL    HW1 2457   2.939   1.388   0.753
  774SOL    HW2 2458   2.868   1.319   0.868
  775SOL     OW 2459   3.534   3.968   3.256
  775SOL    HW1 2460   3.482   3.983   3.177
  775SOL    HW2 2461   3.485   3.903   3.306
  776SOL     OW 2462   1.759   2.867   2.778
  776SOL    HW1 2463   1.844   2.899   2.809
  776SOL    HW2 2464   1.746   2.785   2.826
  777SOL     OW 2465   0.715   3.095   3.179
  777SOL    HW1 2466   0.759   3.106   3.263
  777SOL    HW2 2467   0.627   3.129   3.194
  778SOL     OW 2468   0.779   2.719   1.657
  778SOL    HW1 2469   0.807   2.753   1.742
  778SOL    HW2 2470   0.738   2.635   1.677
  779SOL     OW 2471   1.568   2.594   0.494
  779SOL    HW1 2472   1.647   2.632   0.532
  779SOL    HW2 2473   1.594   2.568   0.405
  780SOL     OW 2474   1.221   2.762   0.496
  780SOL    HW1 2475   1.256   2.731   0.413
  780SOL    HW2 2476   1.296   2.800   0.542
  781SOL     OW 2477   2.989   1.742   2.577
  781SOL    HW1 2478   2.904   1.739   2.535
  781SOL    HW2 2479   2.970   1.740   2.671
  782SOL     OW 2480   3.582   0.439   0.543
  782SOL    HW1 2481   3.536   0.366   0.584
  782SOL    HW2 2482   3.523   0.468   0.473
  783SOL     OW 2483   0.080   0.196   0.790
  783SOL    HW1 2484   0.081   0.253   0.867
  783SOL    HW2 2485   0.107   0.110   0.823
  784SOL     OW 2486   3.314   2.573   0.829
  784SOL    HW1 2487   3.325   2.502   0.766
  784SOL    HW2 2488   3.404   2.597   0.854
  785SOL     OW 2489   1.892   1.548   0.520
  785SOL    HW1 2490   1.806   1.584   0.498
  785SOL    HW2 2491   1.875   1.456   0.541
  786SOL     OW 2492   2.953   1.724   3.866
  786SOL    HW1 2493   2.973   1.632   3.850
  786SOL    HW2 2494   2.981   1.739   3.956
  787SOL     OW 2495   2.160   3.829   3.883
  787SOL    HW1 2496   2.140   3.796   3.796
  787SOL    HW2 2497   2.076   3.832   3.928
  788SOL     OW 2498   1.707   1.698   3.671
  788SOL    HW1 2499   1.634   1.758   3.660
  788SOL    HW2 2500   1.772   1.748   3.720
  789SOL     OW 2501   3.783   0.864   0.882
  789SOL    HW1 2502   3.770   0.803   0.809
  789SOL    HW2 2503   3.701   0.862   0.931
  790SOL     OW 2504   2.937   2.400   2.928
  790SOL    HW1 2505   2.980   2.484   2.945
  790SOL    HW2 2506   2.849   2.411   2.965
  791SOL     OW 2507   0.396   2.615   0.751
  791SOL    HW1 2508   0.447   2.641   0.828
  791SOL    HW2 2509   0.449   2.644   0.676
  792SOL     OW 2510   3.269   2.188   2.924
  792SOL    HW1 2511   3.203   2.124   2.950
  792SOL    HW2 2512   3.246   2.268   2.970
  793SOL     OW 2513   3.935   1.283   0.316
  793SOL    HW1 2514   3.976   1.208   0.360
  793SOL    HW2 2515   3.845   1.285   0.350
  794SOL     OW 2516   2.298   0.504   0.305
  794SOL    HW1 2517   2.370   0.465   0.255
  794SOL    HW2 2518   2.315   0.598   0.303
  795SOL     OW 2519   3.799   1.243   1.947
  795SOL    HW1 2520   3.781   1.167   2.002
  795SOL    HW2 2521   3.868   1.214   1.887
  796SOL     OW 2522   0.336   3.435   3.113
  796SOL    HW1 2523   0.248   3.408   3.135
  796SOL    HW2 2524   0.380   3.355   3.084
  797SOL     OW 2525   2.813   2.966   3.091
  797SOL    HW1 2526   2.798   2.881   3.133
  797SOL    HW2 2527   2.776   2.956   3.003
  798SOL     OW 2528   0.057   3.665   3.654
  798SOL    HW1 2529   0.102   3.582   3.667
  798SOL    HW2 2530  -0.034   3.641   3.636
  799SOL     OW 2531   0.517   1.650   3.499
  799SOL    HW1 2532   0.541   1.604   3.580
  799SOL    HW2 2533   0.430   1.616   3.477
  800SOL     OW 2534   2.730   3.537   3.852
  800SOL    HW1 2535   2.795   3.468   3.858
  800SOL    HW2 2536   2.738   3.586   3.934
  801SOL     OW 2537   3.292   0.609   3.078
  801SOL    HW1 2538   3.258   0.527   3.113
  801SOL    HW2 2539   3.353   0.640   3.145
  802SOL     OW 2540   2.717   1.752   3.099
  802SOL    HW1 2541   2.739   1.835   3.140
  802SOL    HW2 2542   2.749   1.685   3.159
  803SOL     OW 2543   2.062   1.116   3.980
  803SOL    HW1 2544   2.129   1.050   3.963
  803SOL    HW2 2545   2.028   1.138   3.894
  804SOL     OW 2546   1.379   0.789   1.525
  804SOL    HW1 2547   1.319   0.855   1.560
  804SOL    HW2 2548   1.464   0.833   1.522
  805SOL     OW 2549   2.939   2.124   0.392
  805SOL    HW1 2550   3.019   2.166   0.359
  805SOL    HW2 2551   2.956   2.030   0.381
  806SOL     OW 2552   3.279   3.654   3.770
  806SOL    HW1 2553   3.375   3.653   3.765
  806SOL    HW2 2554   3.259   3.619   3.857
  807SOL     OW 2555   2.773   0.593   3.748
  807SOL    HW1 2556   2.736   0.533   3.684
  807SOL    HW2 2557   2.867   0.592   3.731
  808SOL     OW 2558   0.025   3.661   1.484
  808SOL    HW1 2559   0.051   3.677   1.393
  808SOL    HW2 2560   0.050   3.740   1.530
  809SOL     OW 2561   3.196   0.204   1.713
  809SOL    HW1 2562   3.152   0.279   1.672
  809SOL    HW2 2563   3.124   0.153   1.751
  810SOL     OW 2564   0.140   0.364   3.341
  810SOL    HW1 2565   0.067   0.341   3.398
  810SOL    HW2 2566   0.216   0.319   3.379
  811SOL     OW 2567   2.647   2.294   2.275
  811SOL    HW1 2568   2.741   2.282   2.260
  811SOL    HW2 2569   2.605   2.226   2.222
  812SOL     OW 2570   2.800   2.871   3.800
  812SOL    HW1 2571   2.888   2.908   3.806
  812SOL    HW2 2572   2.813   2.777   3.808
  813SOL     OW 2573   2.681   2.159   0.854
  813SOL    HW1 2574   2.613   2.096   0.827
  813SOL    HW2 2575   2.731   2.176   0.775
  814SOL     OW 2576   0.486   2.177   3.610
  814SOL    HW1 2577   0.501   2.097   3.559
  814SOL    HW2 2578   0.532   2.245   3.561
  815SOL     OW 2579   2.607   2.348   1.319
  815SOL    HW1 2580   2.571   2.319   1.235
  815SOL    HW2 2581   2.698   2.319   1.316
  816SOL     OW 2582   0.987   0.143   2.007
  816SOL    HW1 2583   0.949   0.215   1.956
  816SOL    HW2 2584   1.032   0.186   2.079
  817SOL     OW 2585   2.528   2.289   3.781
  817SOL    HW1 2586   2.527   2.222   3.712
  817SOL    HW2 2587   2.526   2.240   3.863
  818SOL     OW 2588   3.327   2.323   3.591
  818SOL    HW1 2589   3.244   2.332   3.639
  818SOL    HW2 2590   3.394   2.343   3.656
  819SOL     OW 2591   3.042   0.182   1.012
  819SOL    HW1 2592   3.030   0.259   1.067
  819SOL    HW2 2593   3.060   0.218   0.925
  820SOL     OW 2594   1.027   1.512   3.163
  820SOL    HW1 2595   1.015   1.448   3.234
  820SOL    HW2 2596   0.994   1.467   3.085
  821SOL     OW 2597   3.666   0.121   1.964
  821SOL    HW1 2598   3.624   0.180   1.901
  821SOL    HW2 2599   3.641   0.033   1.935
  822SOL     OW 2600   0.229   1.217   3.547
  822SOL    HW1 2601   0.167   1.149   3.573
  822SOL    HW2 2602   0.315   1.183   3.573
  823SOL     OW 2603   3.097   2.306   1.198
  823SOL    HW1 2604   3.049   2.249   1.258
  823SOL    HW2 2605   3.186   2.271   1.197
  824SOL     OW 2606   2.880   3.884   1.341
  824SOL    HW1 2607   2.931   3.869   1.261
  824SOL    HW2 2608   2.908   3.814   1.400
  825SOL     OW 2609   1.894   0.550   2.348
  825SOL    HW1 2610   1.864   0.512   2.430
  825SOL    HW2 2611   1.853   0.636   2.344
  826SOL     OW 2612   2.385   2.017   3.295
  826SOL    HW1 2613   2.372   1.978   3.382
  826SOL    HW2 2614   2.319   1.975   3.240
  827SOL     OW 2615   0.615   2.283   0.994
  827SOL    HW1 2616   0.533   2.328   0.975
  827SOL    HW2 2617   0.658   2.274   0.909
  828SOL     OW 2618   3.878   1.458   3.165
  828SOL    HW1 2619   3.798   1.427   3.209
  828SOL    HW2 2620   3.869   1.553   3.163
  829SOL     OW 2621   1.058   0.940   1.766
  829SOL    HW1 2622   0.995   0.931   1.838
  829SOL    HW2 2623   1.021   1.006   1.709
  830SOL     OW 2624   1.651   2.775   0.732
  830SOL    HW1 2625   1.737   2.765   0.773
  830SOL    HW2 2626   1.590   2.742   0.798
  831SOL     OW 2627   3.771   0.165   2.831
  831SOL    HW1 2628   3.783   0.074   2.805
  831SOL    HW2 2629   3.825   0.175   2.910
  832SOL     OW 2630   1.284   2.115   1.841
  832SOL    HW1 2631   1.355   2.090   1.782
  832SOL    HW2 2632   1.308   2.078   1.926
  833SOL     OW 2633   2.881   0.792   3.442
  833SOL    HW1 2634   2.833   0.710   3.441
  833SOL    HW2 2635   2.968   0.769   3.473
  834SOL     OW 2636   3.454   3.803   0.433
  834SOL    HW1 2637   3.538   3.833   0.399
  834SOL    HW2 2638   3.473   3.773   0.522
  835SOL     OW 2639   2.345   1.811   0.927
  835SOL    HW1 2640   2.341   1.736   0.987
  835SOL    HW2 2641   2.254   1.824   0.900
  836SOL     OW 2642   1.071   3.510   0.397
  836SOL    HW1 2643   1.122   3.447   0.448
  836SOL    HW2 2644   1.137   3.567   0.357
  837SOL     OW 2645   3.326   1.553   1.205
  837SOL    HW1 2646   3.255   1.604   1.243
  837SOL    HW2 2647   3.284   1.503   1.135
  838SOL     OW 2648   1.352   1.990   2.050
  838SOL    HW1 2649   1.405   1.927   2.002
  838SOL    HW2 2650   1.348   1.956   2.139
  839SOL     OW 2651   2.353   2.440   2.288
  839SOL    HW1 2652   2.283   2.435   2.224
  839SOL    HW2 2653   2.393   2.353   2.287
  840SOL     OW 2654   1.476   3.358   1.453
  840SOL    HW1 2655   1.512   3.425   1.396
  840SOL    HW2 2656   1.461   3.283   1.395
  841SOL     OW 2657   1.936   3.285   3.896
  841SOL    HW1 2658   1.939   3.381   3.899
  841SOL    HW2 2659   1.867   3.262   3.958
  842SOL     OW 2660   3.333   3.083   1.308
  842SOL    HW1 2661   3.414   3.093   1.259
  842SOL    HW2 2662   3.358   3.038   1.388
  843SOL     OW 2663   1.569   1.004   1.499
  843SOL    HW1 2664   1.639   1.013   1.564
  843SOL    HW2 2665   1.609   0.959   1.425
  844SOL     OW 2666   2.652   3.110   0.976
  844SOL    HW1 2667   2.670   3.035   0.920
  844SOL    HW2 2668   2.605   3.073   1.051
  845SOL     OW 2669   1.813   3.462   2.390
  845SOL    HW1 2670   1.825   3.389   2.329
  845SOL    HW2 2671   1.798   3.420   2.474
  846SOL     OW 2672   1.587   0.969   0.053
  846SOL    HW1 2673   1.617   1.042   0.107
  846SOL    HW2 2674   1.667   0.929   0.020
  847SOL     OW 2675   2.707   1.719   2.811
  847SOL    HW1 2676   2.735   1.757   2.894
  847SOL    HW2 2677   2.677   1.631   2.833
  848SOL     OW 2678   0.656   0.217   1.966
  848SOL    HW1 2679   0.609   0.300   1.956
  848SOL    HW2 2680   0.670   0.208   2.060
  849SOL     OW 2681   1.016   3.747   3.229
  849SOL    HW1 2682   1.035   3.654   3.241
  849SOL    HW2 2683   1.005   3.781   3.318
  850SOL     OW 2684   0.724   3.354   2.015
  850SOL    HW1 2685   0.671   3.427   2.050
  850SOL    HW2 2686   0.791   3.397   1.962
  851SOL     OW 2687   2.318   0.783   3.402
  851SOL    HW1 2688   2.302   0.828   3.319
  851SOL    HW2 2689   2.403   0.816   3.432
  852SOL     OW 2690   3.076   1.747   2.989
  852SOL    HW1 2691   3.052   1.691   2.916
  852SOL    HW2 2692   3.144   1.698   3.035
  853SOL     OW 2693   0.469   3.773   3.637
  853SOL    HW1 2694   0.544   3.762   3.578
  853SOL    HW2 2695   0.508   3.792   3.723
  854SOL     OW 2696   0.968   0.679   2.524
  854SOL    HW1 2697   1.056   0.708   2.550
  854SOL    HW2 2698   0.978   0.652   2.433
  855SOL     OW 2699   3.498   3.608   1.693
  855SOL    HW1 2700   3.465   3.568   1.773
  855SOL    HW2 2701   3.539   3.535   1.646
  856SOL     OW 2702   2.797   2.148   0.158
  856SOL    HW1 2703   2.799   2.235   0.120
  856SOL    HW2 2704   2.843   2.157   0.241
  857SOL     OW 2705   0.366   0.749   0.785
  857SOL    HW1 2706   0.372   0.838   0.752
  857SOL    HW2 2707   0.312   0.756   0.864
  858SOL     OW 2708   3.804   1.520   2.650
  858SOL    HW1 2709   3.825   1.452   2.714
  858SOL    HW2 2710   3.738   1.574   2.694
  859SOL     OW 2711   1.215   2.311   0.654
  859SOL    HW1 2712   1.125   2.342   0.645
  859SOL    HW2 2713   1.211   2.244   0.723
  860SOL     OW 2714   1.687   1.090   0.505
  860SOL    HW1 2715   1.602   1.134   0.509
  860SOL    HW2 2716   1.673   1.007   0.549
  861SOL     OW 2717   2.496   3.557   3.707
  861SOL    HW1 2718   2.547   3.620   3.758
  861SOL    HW2 2719   2.532   3.472   3.732
  862SOL     OW 2720   0.433   2.764   2.072
  862SOL    HW1 2721   0.429   2.819   1.994
  862SOL    HW2 2722   0.504   2.801   2.124
  863SOL     OW 2723   0.031   0.517   2.328
  863SOL    HW1 2724   0.098   0.536   2.394
  863SOL    HW2 2725  -0.049   0.555   2.364
  864SOL     OW 2726   3.973   2.409   1.462
  864SOL    HW1 2727   3.941   2.374   1.546
  864SOL    HW2 2728   3.895   2.444   1.420
  865SOL     OW 2729   3.786   2.022   0.620
  865SOL    HW1 2730   3.756   1.931   0.624
  865SOL    HW2 2731   3.875   2.017   0.587
  866SOL     OW 2732   3.687   0.170   2.451
  866SOL    HW1 2733   3.621   0.227   2.488
  866SOL    HW2 2734   3.643   0.125   2.379
  867SOL     OW 2735   1.969   0.187   3.834
  867SOL    HW1 2736   1.984   0.104   3.789
  867SOL    HW2 2737   2.023   0.181   3.913
  868SOL     OW 2738   1.992   1.269   3.176
  868SOL    HW1 2739   1.899   1.270   3.200
  868SOL    HW2 2740   2.028   1.196   3.226
  869SOL     OW 2741   1.570   1.937   1.862
  869SOL    HW1 2742   1.566   1.841   1.860
  869SOL    HW2 2743   1.583   1.962   1.771
  870SOL     OW 2744   3.189   2.723   3.145
  870SOL    HW1 2745   3.281   2.702   3.130
  870SOL    HW2 2746   3.189   2.815   3.172
  871SOL     OW 2747   0.891   1.751   2.739
  871SOL    HW1 2748   0.855   1.756   2.828
  871SOL    HW2 2749   0.867   1.834   2.699
  872SOL     OW 2750   2.507   0.355   2.610
  872SOL    HW1 2751   2.441   0.333   2.675
  872SOL    HW2 2752   2.520   0.449   2.619
  873SOL     OW 2753   0.959   0.377   1.839
  873SOL    HW1 2754   0.939   0.444   1.774
  873SOL    HW2 2755   1.035   0.410   1.886
  874SOL     OW 2756   1.142   0.160   2.837
  874SOL    HW1 2757   1.099   0.238   2.801
  874SOL    HW2 2758   1.152   0.102   2.762
  875SOL     OW 2759   1.091   3.027   3.450
  875SOL    HW1 2760   1.109   3.037   3.543
  875SOL    HW2 2761   1.002   2.991   3.446
  876SOL     OW 2762   3.864   3.280   1.728
  876SOL    HW1 2763   3.940   3.273   1.786
  876SOL    HW2 2764   3.868   3.369   1.694
  877SOL     OW 2765   2.065   0.080   1.901
  877SOL    HW1 2766   1.988   0.101   1.955
  877SOL    HW2 2767   2.133   0.059   1.965
  878SOL     OW 2768   3.018   2.921   0.049
  878SOL    HW1 2769   3.069   2.866   0.109
  878SOL    HW2 2770   2.930   2.883   0.052
  879SOL     OW 2771   2.355   3.438   1.773
  879SOL    HW1 2772   2.342   3.437   1.868
  879SOL    HW2 2773   2.327   3.526   1.747
  880SOL     OW 2774   0.082   2.300   1.746
  880SOL    HW1 2775   0.163   2.332   1.706
  880SOL    HW2 2776   0.077   2.347   1.829
  881SOL     OW 2777   1.497   2.168   3.662
  881SOL    HW1 2778   1.403   2.151   3.675
  881SOL    HW2 2779   1.520   2.229   3.733
  882SOL     OW 2780   3.448   1.441   0.741
  882SOL    HW1 2781   3.428   1.523   0.786
  882SOL    HW2 2782   3.423   1.456   0.650
  883SOL     OW 2783   1.152   0.960   0.831
  883SOL    HW1 2784   1.072   1.010   0.815
  883SOL    HW2 2785   1.139   0.920   0.917
  884SOL     OW 2786   3.908   2.919   1.959
  884SOL    HW1 2787   3.954   2.835   1.955
  884SOL    HW2 2788   3.975   2.981   1.988
  885SOL     OW 2789   2.854   2.695   0.394
  885SOL    HW1 2790   2.814   2.634   0.333
  885SOL    HW2 2791   2.786   2.713   0.459
  886SOL     OW 2792   3.053   0.265   2.360
  886SOL    HW1 2793   2.983   0.268   2.426
  886SOL    HW2 2794   3.132   0.287   2.409
  887SOL     OW 2795   3.640   0.646   0.064
  887SOL    HW1 2796   3.546   0.635   0.079
  887SOL    HW2 2797   3.664   0.575   0.005
  888SOL     OW 2798   0.732   2.478   3.015
  888SOL    HW1 2799   0.697   2.564   2.992
  888SOL    HW2 2800   0.711   2.422   2.940
  889SOL     OW 2801   2.521   3.303   2.644
  889SOL    HW1 2802   2.565   3.377   2.686
  889SOL    HW2 2803   2.591   3.253   2.603
  890SOL     OW 2804   3.885   0.770   0.195
  890SOL    HW1 2805   3.921   0.682   0.207
  890SOL    HW2 2806   3.791   0.756   0.187
  891SOL     OW 2807   3.839   2.568   1.765
  891SOL    HW1 2808   3.795   2.643   1.805
  891SOL    HW2 2809   3.900   2.538   1.832
  892SOL     OW 2810   1.669   1.357   0.324
  892SOL    HW1 2811   1.644   1.286   0.382
  892SOL    HW2 2812   1.735   1.319   0.266
  893SOL     OW 2813   2.364   1.833   3.804
  893SOL    HW1 2814   2.384   1.761   3.864
  893SOL    HW2 2815   2.336   1.904   3.860
  894SOL     OW 2816   2.270   3.856   3.612
  894SOL    HW1 2817   2.182   3.862   3.574
  894SOL    HW2 2818   2.269   3.919   3.685
  895SOL     OW 2819   0.488   1.037   2.741
  895SOL    HW1 2820   0.583   1.024   2.741
  895SOL    HW2 2821   0.458   0.996   2.822
  896SOL     OW 2822   3.578   1.188   0.106
  896SOL    HW1 2823   3.520   1.149   0.041
  896SOL    HW2 2824   3.520   1.216   0.176
  897SOL     OW 2825   3.909   3.462   1.064
  897SOL    HW1 2826   3.841   3.529   1.058
  897SOL    HW2 2827   3.991   3.510   1.054
  898SOL     OW 2828   2.758   2.961   2.797
  898SOL    HW1 2829   2.782   2.871   2.775
  898SOL    HW2 2830   2.691   2.984   2.732
  899SOL     OW 2831   0.702   0.826   2.207
  899SOL    HW1 2832   0.632   0.844   2.270
  899SOL    HW2 2833   0.733   0.912   2.180
  900SOL     OW 2834   2.487   0.216   2.376
  900SOL    HW1 2835   2.556   0.150   2.373
  900SOL    HW2 2836   2.509   0.271   2.451
  901SOL     OW 2837   3.806   1.850   1.235
  901SOL    HW1 2838   3.779   1.911   1.166
  901SOL    HW2 2839   3.883   1.806   1.200
  902SOL     OW 2840   1.010   1.387   0.798
  902SOL    HW1 2841   1.030   1.358   0.886
  902SOL    HW2 2842   0.917   1.367   0.787
  903SOL     OW 2843   0.635   3.403   3.910
  903SOL    HW1 2844   0.631   3.488   3.954
  903SOL    HW2 2845   0.545   3.387   3.880
  904SOL     OW 2846   1.923   2.444   2.329
  904SOL    HW1 2847   1.960   2.402   2.406
  904SOL    HW2 2848   1.994   2.443   2.265
  905SOL     OW 2849   1.284   2.499   1.361
  905SOL    HW1 2850   1.282   2.515   1.456
  905SOL    HW2 2851   1.363   2.447   1.347
  906SOL     OW 2852   1.245   2.011   0.470
  906SOL    HW1 2853   1.249   1.968   0.555
  906SOL    HW2 2854   1.152   2.032   0.459
  907SOL     OW 2855   3.701   1.282   0.474
  907SOL    HW1 2856   3.711   1.212   0.539
  907SOL    HW2 2857   3.607   1.285   0.457
  908SOL     OW 2858   0.652   0.702   0.930
  908SOL    HW1 2859   0.582   0.687   0.994
  908SOL    HW2 2860   0.732   0.672   0.974
  909SOL     OW 2861   1.061   2.939   2.717
  909SOL    HW1 2862   1.015   3.009   2.671
  909SOL    HW2 2863   1.150   2.974   2.731
  910SOL     OW 2864   0.837   0.718   3.908
  910SOL    HW1 2865   0.831   0.694   4.000
  910SOL    HW2 2866   0.826   0.813   3.908
  911SOL     OW 2867   0.238   3.295   1.121
  911SOL    HW1 2868   0.187   3.375   1.109
  911SOL    HW2 2869   0.215   3.240   1.046
  912SOL     OW 2870   2.449   3.225   3.059
  912SOL    HW1 2871   2.540   3.237   3.032
  912SOL    HW2 2872   2.411   3.313   3.055
  913SOL     OW 2873   1.522   3.917   0.555
  913SOL    HW1 2874   1.502   3.980   0.624
  913SOL    HW2 2875   1.608   3.882   0.578
  914SOL     OW 2876   3.769   0.155   0.310
  914SOL    HW1 2877   3.842   0.209   0.278
  914SOL    HW2 2878   3.697   0.217   0.322
  915SOL     OW 2879   1.060   1.954   3.536
  915SOL    HW1 2880   1.092   1.868   3.509
  915SOL    HW2 2881   0.966   1.943   3.547
  916SOL     OW 2882   3.639   2.600   0.840
  916SOL    HW1 2883   3.726   2.590   0.801
  916SOL    HW2 2884   3.640   2.541   0.915
  917SOL     OW 2885   2.433   2.751   3.202
  917SOL    HW1 2886   2.380   2.800   3.139
  917SOL    HW2 2887   2.413   2.792   3.286
  918SOL     OW 2888   1.494   2.952   2.291
  918SOL    HW1 2889   1.406   2.917   2.302
  918SOL    HW2 2890   1.534   2.945   2.378
  919SOL     OW 2891   0.977   3.936   0.587
  919SOL    HW1 2892   0.967   4.029   0.567
  919SOL    HW2 2893   0.889   3.905   0.606
  920SOL     OW 2894   0.528   0.073   0.357
  920SOL    HW1 2895   0.527   0.019   0.436
  920SOL    HW2 2896   0.462   0.140   0.373
  921SOL     OW 2897   0.223   0.921   1.871
  921SOL    HW1 2898   0.312   0.938   1.900
  921SOL    HW2 2899   0.177   0.896   1.951
  922SOL     OW 2900   1.750   3.275   2.943
  922SOL    HW1 2901   1.738   3.180   2.947
  922SOL    HW2 2902   1.727   3.298   2.853
  923SOL     OW 2903   0.364   2.565   1.691
  923SOL    HW1 2904   0.329   2.522   1.613
  923SOL    HW2 2905   0.457   2.546   1.689
  924SOL     OW 2906   2.518   2.082   3.618
  924SOL    HW1 2907   2.587   2.021   3.644
  924SOL    HW2 2908   2.451   2.027   3.578
  925SOL     OW 2909   3.754   2.366   3.632
  925SOL    HW1 2910   3.837   2.321   3.645
  925SOL    HW2 2911   3.708   2.357   3.715
  926SOL     OW 2912   1.850   1.225   0.862
  926SOL    HW1 2913   1.880   1.137   0.840
  926SOL    HW2 2914   1.881   1.240   0.951
  927SOL     OW 2915   3.699   0.545   1.643
  927SOL    HW1 2916   3.784   0.586   1.630
  927SOL    HW2 2917   3.702   0.512   1.733
  928SOL     OW 2918   3.318   3.776   3.370
  928SOL    HW1 2919   3.252   3.735   3.314
  928SOL    HW2 2920   3.271   3.847   3.414
  929SOL     OW 2921   0.217   2.133   2.239
  929SOL    HW1 2922   0.133   2.130   2.192
  929SOL    HW2 2923   0.223   2.048   2.283
  930SOL     OW 2924   2.329   1.789   1.373
  930SOL    HW1 2925   2.351   1.872   1.414
  930SOL    HW2 2926   2.264   1.750   1.430
  931SOL     OW 2927   3.358   0.187   3.617
  931SOL    HW1 2928   3.350   0.134   3.697
  931SOL    HW2 2929   3.382   0.274   3.648
  932SOL     OW 2930   0.965   3.770   2.445
  932SOL    HW1 2931   1.043   3.745   2.396
  932SOL    HW2 2932   0.998   3.821   2.519
  933SOL     OW 2933   2.786   3.292   0.805
  933SOL    HW1 2934   2.713   3.353   0.796
  933SOL    HW2 2935   2.745   3.208   0.825
  934SOL     OW 2936   3.634   1.877   2.614
  934SOL    HW1 2937   3.570   1.806   2.618
  934SOL    HW2 2938   3.600   1.943   2.674
  935SOL     OW 2939   2.670   3.754   2.052
  935SOL    HW1 2940   2.581   3.727   2.073
  935SOL    HW2 2941   2.726   3.689   2.096
  936SOL     OW 2942   2.109   1.787   1.167
  936SOL    HW1 2943   2.042   1.783   1.235
  936SOL    HW2 2944   2.192   1.787   1.216
  937SOL     OW 2945   1.942   0.597   0.504
  937SOL    HW1 2946   1.946   0.682   0.461
  937SOL    HW2 2947   1.905   0.615   0.590
  938SOL     OW 2948   1.778   2.804   1.084
  938SOL    HW1 2949   1.823   2.792   1.168
  938SOL    HW2 2950   1.719   2.729   1.078
  939SOL     OW 2951   1.959   1.177   1.552
  939SOL    HW1 2952   2.024   1.120   1.594
  939SOL    HW2 2953   1.917   1.122   1.486
  940SOL     OW 2954   3.491   0.951   0.414
  940SOL    HW1 2955   3.570   0.967   0.362
  940SOL    HW2 2956   3.514   0.877   0.470
  941SOL     OW 2957   0.523   1.916   1.114
  941SOL    HW1 2958   0.486   2.005   1.120
  941SOL    HW2 2959   0.509   1.878   1.201
  942SOL     OW 2960   3.975   1.933   2.649
  942SOL    HW1 2961   3.943   1.894   2.730
  942SOL    HW2 2962   3.955   2.026   2.657
  943SOL     OW 2963   0.758   1.835   1.527
  943SOL    HW1 2964   0.850   1.809   1.523
  943SOL    HW2 2965   0.741   1.852   1.620
  944SOL     OW 2966   2.723   1.813   1.541
  944SOL    HW1 2967   2.731   1.731   1.491
  944SOL    HW2 2968   2.797   1.810   1.602
  945SOL     OW 2969   2.730   1.295   2.444
  945SOL    HW1 2970   2.726   1.251   2.359
  945SOL    HW2 2971   2.815   1.271   2.479
  946SOL     OW 2972   3.778   2.148   3.159
  946SOL    HW1 2973   3.744   2.193   3.082
  946SOL    HW2 2974   3.867   2.122   3.135
  947SOL     OW 2975   2.944   0.797   1.252
  947SOL    HW1 2976   2.928   0.887   1.224
  947SOL    HW2 2977   2.994   0.806   1.333
  948SOL     OW 2978   3.521   1.304   3.589
  948SOL    HW1 2979   3.454   1.321   3.524
  948SOL    HW2 2980   3.591   1.259   3.540
  949SOL     OW 2981   0.754   1.594   3.308
  949SOL    HW1 2982   0.680   1.582   3.368
  949SOL    HW2 2983   0.794   1.507   3.302
  950SOL     OW 2984   3.288   3.367   1.938
  950SOL    HW1 2985   3.305   3.373   1.844
  950SOL    HW2 2986   3.199   3.332   1.944
  951SOL     OW 2987   3.545   2.495   2.808
  951SOL    HW1 2988   3.515   2.451   2.729
  951SOL    HW2 2989   3.566   2.584   2.780
  952SOL     OW 2990   2.709   1.915   3.671
  952SOL    HW1 2991   2.805   1.915   3.665
  952SOL    HW2 2992   2.685   1.823   3.659
  953SOL     OW 2993   2.141   0.795   2.851
  953SOL    HW1 2994   2.222   0.752   2.879
  953SOL    HW2 2995   2.152   0.887   2.875
  954SOL     OW 2996   2.625   3.922   3.788
  954SOL    HW1 2997   2.675   3.936   3.869
  954SOL    HW2 2998   2.537   3.953   3.809
  955SOL     OW 2999   0.702   0.297   3.452
  955SOL    HW1 3000   0.754   0.332   3.379
  955SOL    HW2 3001   0.747   0.216   3.477
  956SOL     OW 3002   0.074   0.961   3.340
  956SOL    HW1 3003   0.169   0.960   3.355
  956SOL    HW2 3004   0.036   0.940   3.426
  957SOL     OW 3005   0.444   2.934   3.670
  957SOL    HW1 3006   0.370   2.969   3.718
  957SOL    HW2 3007   0.475   2.861   3.723
  958SOL     OW 3008   1.474   1.544   3.821
  958SOL    HW1 3009   1.485   1.577   3.732
  958SOL    HW2 3010   1.483   1.621   3.876
  959SOL     OW 3011   3.286   2.485   2.074
  959SOL    HW1 3012   3.204   2.436   2.070
  959SOL    HW2 3013   3.321   2.466   2.161
  960SOL     OW 3014   1.213   3.726   1.907
  960SOL    HW1 3015   1.227   3.632   1.916
  960SOL    HW2 3016   1.168   3.752   1.987
  961SOL     OW 3017   1.214   2.325   1.107
  961SOL    HW1 3018   1.119   2.327   1.094
  961SOL    HW2 3019   1.229   2.381   1.183
  962SOL     OW 3020   2.838   2.409   0.547
  962SOL    HW1 3021   2.868   2.397   0.457
  962SOL    HW2 3022   2.867   2.498   0.569
  963SOL     OW 3023   3.048   2.927   3.662
  963SOL    HW1 3024   3.116   2.980   3.621
  963SOL    HW2 3025   3.097   2.861   3.712
  964SOL     OW 3026   0.835   3.516   0.263
  964SOL    HW1 3027   0.904   3.496   0.327
  964SOL    HW2 3028   0.762   3.460   0.288
  965SOL     OW 3029   1.719   0.844   1.373
  965SOL    HW1 3030   1.690   0.794   1.297
  965SOL    HW2 3031   1.738   0.777   1.440
  966SOL     OW 3032   2.876   2.695   1.234
  966SOL    HW1 3033   2.928   2.673   1.311
  966SOL    HW2 3034   2.931   2.670   1.160
  967SOL     OW 3035   1.104   1.020   3.316
  967SOL    HW1 3036   1.142   1.105   3.337
  967SOL    HW2 3037   1.103   0.972   3.399
  968SOL     OW 3038   0.275   2.149   0.087
  968SOL    HW1 3039   0.280   2.072   0.031
  968SOL    HW2 3040   0.273   2.223   0.026
  969SOL     OW 3041   0.080   0.910   0.625
  969SOL    HW1 3042   0.155   0.889   0.570
  969SOL    HW2 3043   0.020   0.957   0.568
  970SOL     OW 3044   2.659   1.842   1.105
  970SOL    HW1 3045   2.619   1.759   1.130
  970SOL    HW2 3046   2.656   1.895   1.185
  971SOL     OW 3047   3.911   0.875   2.534
  971SOL    HW1 3048   3.857   0.807   2.494
  971SOL    HW2 3049   3.850   0.945   2.555
  972SOL     OW 3050   2.518   2.986   3.385
  972SOL    HW1 3051   2.610   2.990   3.412
  972SOL    HW2 3052   2.519   3.014   3.294
  973SOL     OW 3053   3.006   3.376   2.241
  973SOL    HW1 3054   2.952   3.451   2.216
  973SOL    HW2 3055   3.025   3.390   2.334
  974SOL     OW 3056   3.425   2.733   3.027
  974SOL    HW1 3057   3.513   2.755   3.057
  974SOL    HW2 3058   3.419   2.771   2.939
  975SOL     OW 3059   3.417   0.132   1.401
  975SOL    HW1 3060   3.478   0.157   1.471
  975SOL    HW2 3061   3.339   0.186   1.418
  976SOL     OW 3062   1.356   1.088   0.367
  976SOL    HW1 3063   1.381   0.997   0.379
  976SOL    HW2 3064   1.309   1.090   0.283
  977SOL     OW 3065   2.992   1.157   2.498
  977SOL    HW1 3066   3.063   1.187   2.555
  977SOL    HW2 3067   3.035   1.104   2.431
  978SOL     OW 3068   3.465   1.247   2.223
  978SOL    HW1 3069   3.475   1.323   2.165
  978SOL    HW2 3070   3.391   1.199   2.186
  979SOL     OW 3071   1.946   3.028   3.817
  979SOL    HW1 3072   1.861   3.055   3.782
  979SOL    HW2 3073   1.989   3.110   3.841
  980SOL     OW 3074   2.311   1.204   0.882
  980SOL    HW1 3075   2.229   1.223   0.835
  980SOL    HW2 3076   2.284   1.191   0.973
  981SOL     OW 3077   3.196   0.657   0.466
  981SOL    HW1 3078   3.149   0.690   0.542
  981SOL    HW2 3079   3.254   0.729   0.441
  982SOL     OW 3080   0.425   2.161   1.989
  982SOL    HW1 3081   0.516   2.174   2.017
  982SOL    HW2 3082   0.373   2.184   2.067
  983SOL     OW 3083   2.735   3.291   2.985
  983SOL    HW1 3084   2.766   3.381   2.994
  983SOL    HW2 3085   2.762   3.264   2.898
  984SOL     OW 3086   1.463   3.800   1.417
  984SOL    HW1 3087   1.413   3.872   1.378
  984SOL    HW2 3088   1.478   3.828   1.508
  985SOL     OW 3089   0.492   0.846   2.466
  985SOL    HW1 3090   0.431   0.786   2.509
  985SOL    HW2 3091   0.574   0.836   2.516
  986SOL     OW 3092   0.257   3.797   3.228
  986SOL    HW1 3093   0.250   3.832   3.317
  986SOL    HW2 3094   0.324   3.729   3.235
  987SOL     OW 3095   0.640   3.101   0.615
  987SOL    HW1 3096   0.557   3.077   0.658
  987SOL    HW2 3097   0.697   3.127   0.687
  988SOL     OW 3098   1.788   2.808   1.674
  988SOL    HW1 3099   1.824   2.847   1.754
  988SOL    HW2 3100   1.858   2.819   1.609
  989SOL     OW 3101   0.519   3.540   1.346
  989SOL    HW1 3102   0.560   3.624   1.323
  989SOL    HW2 3103   0.569   3.509   1.422
  990SOL     OW 3104   2.266   0.112   2.210
  990SOL    HW1 3105   2.304   0.083   2.128
  990SOL    HW2 3106   2.341   0.123   2.269
  991SOL     OW 3107   3.051   0.303   3.476
  991SOL    HW1 3108   3.052   0.214   3.442
  991SOL    HW2 3109   3.039   0.293   3.570
  992SOL     OW 3110   0.911   2.030   1.337
  992SOL    HW1 3111   0.820   2.043   1.362
  992SOL    HW2 3112   0.951   2.116   1.345
  993SOL     OW 3113   2.475   3.858   2.819
  993SOL    HW1 3114   2.413   3.893   2.755
  993SOL    HW2 3115   2.556   3.907   2.804
  994SOL     OW 3116   0.873   2.356   2.564
  994SOL    HW1 3117   0.845   2.362   2.472
  994SOL    HW2 3118   0.931   2.281   2.567
  995SOL     OW 3119   3.150   0.890   1.465
  995SOL    HW1 3120   3.116   0.973   1.499
  995SOL    HW2 3121   3.201   0.854   1.537
  996SOL     OW 3122   0.011   3.395   2.930
  996SOL    HW1 3123   0.077   3.422   2.866
  996SOL    HW2 3124   0.061   3.347   2.996
  997SOL     OW 3125   0.222   3.573   1.092
  997SOL    HW1 3126   0.284   3.610   1.028
  997SOL    HW2 3127   0.230   3.630   1.168
  998SOL     OW 3128   1.198   3.691   0.696
  998SOL    HW1 3129   1.110   3.661   0.721
  998SOL    HW2 3130   1.185   3.780   0.664
  999SOL     OW 3131   3.335   2.924   0.513
  999SOL    HW1 3132   3.350   2.845   0.566
  999SOL    HW2 3133   3.285   2.982   0.570
 1000SOL     OW 3134   3.092   2.124   2.443
 1000SOL    HW1 3135   3.186   2.106   2.443
 1000SOL    HW2 3136   3.083   2.209   2.400
 1001SOL     OW 3137   1.265   0.366   2.408
 1001SOL    HW1 3138   1.188   0.314   2.429
 1001SOL    HW2 3139   1.230   0.448   2.373
 1002SOL     OW 3140   2.853   2.145   0.664
 1002SOL    HW1 3141   2.920   2.080   0.684
 1002SOL    HW2 3142   2.859   2.157   0.569
 1003SOL     OW 3143   3.740   1.059   2.898
 1003SOL    HW1 3144   3.832   1.031   2.897
 1003SOL    HW2 3145   3.694   0.989   2.852
 1004SOL     OW 3146   2.659   3.935   3.500
 1004SOL    HW1 3147   2.716   3.862   3.476
 1004SOL    HW2 3148   2.635   3.918   3.591
 1005SOL     OW 3149   1.139   3.811   0.360
 1005SOL    HW1 3150   1.061   3.797   0.306
 1005SOL    HW2 3151   1.106   3.848   0.442
 1006SOL     OW 3152   1.526   3.654   1.202
 1006SOL    HW1 3153   1.496   3.695   1.284
 1006SOL    HW2 3154   1.467   3.690   1.135
 1007SOL     OW 3155   3.680   1.284   3.050
 1007SOL    HW1 3156   3.774   1.304   3.051
 1007SOL    HW2 3157   3.673   1.205   2.996
 1008SOL     OW 3158   2.523   2.421   0.222
 1008SOL    HW1 3159   2.540   2.335   0.262
 1008SOL    HW2 3160   2.488   2.474   0.294
 1009SOL     OW 3161   1.763   2.148   3.902
 1009SOL    HW1 3162   1.817   2.183   3.972
 1009SOL    HW2 3163   1.809   2.172   3.822
 1010SOL     OW 3164   3.159   2.397   0.058
 1010SOL    HW1 3165   3.105   2.464   0.017
 1010SOL    HW2 3166   3.247   2.413   0.024
 1011SOL     OW 3167   3.536   0.306   3.388
 1011SOL    HW1 3168   3.559   0.278   3.477
 1011SOL    HW2 3169   3.540   0.226   3.336
 1012SOL     OW 3170   0.931   3.617   1.522
 1012SOL    HW1 3171   0.873   3.693   1.518
 1012SOL    HW2 3172   1.019   3.654   1.534
 1013SOL     OW 3173   2.290   0.560   2.415
 1013SOL    HW1 3174   2.313   0.495   2.481
 1013SOL    HW2 3175   2.248   0.631   2.464
 1014SOL     OW 3176   3.853   1.019   0.481
 1014SOL    HW1 3177   3.805   1.004   0.563
 1014SOL    HW2 3178   3.786   1.009   0.413
 1015SOL     OW 3179   2.641   1.940   2.627
 1015SOL    HW1 3180   2.690   1.858   2.626
 1015SOL    HW2 3181   2.707   2.007   2.611
 1016SOL     OW 3182   0.223   1.700   2.755
 1016SOL    HW1 3183   0.154   1.761   2.730
 1016SOL    HW2 3184   0.176   1.622   2.785
 1017SOL     OW 3185   3.177   3.588   1.706
 1017SOL    HW1 3186   3.273   3.589   1.711
 1017SOL    HW2 3187   3.158   3.539   1.626
 1018SOL     OW 3188   0.547   0.806   0.127
 1018SOL    HW1 3189   0.637   0.798   0.160
 1018SOL    HW2 3190   0.558   0.828   0.034
 1019SOL     OW 3191   0.629   3.931   2.691
 1019SOL    HW1 3192   0.674   3.926   2.776
 1019SOL    HW2 3193   0.630   3.841   2.659
 1020SOL     OW 3194   1.473   1.152   3.824
 1020SOL    HW1 3195   1.461   1.232   3.876
 1020SOL    HW2 3196   1.478   1.082   3.889
 1021SOL     OW 3197   2.573   0.819   0.439
 1021SOL    HW1 3198   2.554   0.753   0.506
 1021SOL    HW2 3199   2.615   0.891   0.486
 1022SOL     OW 3200   3.437   1.931   1.257
 1022SOL    HW1 3201   3.343   1.937   1.241
 1022SOL    HW2 3202   3.445   1.896   1.346
 1023SOL     OW 3203   3.918   2.888   3.260
 1023SOL    HW1 3204   3.898   2.967   3.211
 1023SOL    HW2 3205   3.976   2.917   3.331
 1024SOL     OW 3206   0.146   3.256   1.842
 1024SOL    HW1 3207   0.216   3.249   1.907
 1024SOL    HW2 3208   0.165   3.188   1.778
 1025SOL     OW 3209   0.121   1.508   3.663
 1025SOL    HW1 3210   0.115   1.426   3.713
 1025SOL    HW2 3211   0.208   1.505   3.622
 1026SOL     OW 3212   1.037   1.724   1.574
 1026SOL    HW1 3213   1.054   1.789   1.642
 1026SOL    HW2 3214   1.057   1.640   1.614
 1027SOL     OW 3215   3.350   3.746   0.977
 1027SOL    HW1 3216   3.320   3.791   1.055
 1027SOL    HW2 3217   3.377   3.659   1.008
 1028SOL     OW 3218   1.867   2.281   3.662
 1028SOL    HW1 3219   1.815   2.258   3.585
 1028SOL    HW2 3220   1.943   2.327   3.626
 1029SOL     OW 3221   0.361   2.165   0.745
 1029SOL    HW1 3222   0.348   2.238   0.806
 1029SOL    HW2 3223   0.456   2.153   0.742
 1030SOL     OW 3224   1.006   1.607   0.305
 1030SOL    HW1 3225   1.058   1.577   0.379
 1030SOL    HW2 3226   0.989   1.699   0.323
 1031SOL     OW 3227   1.961   2.108   3.058
 1031SOL    HW1 3228   1.886   2.117   2.998
 1031SOL    HW2 3229   2.031   2.072   3.004
 1032SOL     OW 3230   2.145   3.304   3.209
 1032SOL    HW1 3231   2.195   3.252   3.272
 1032SOL    HW2 3232   2.062   3.257   3.198
 1033SOL     OW 3233   0.299   2.760   3.460
 1033SOL    HW1 3234   0.265   2.814   3.532
 1033SOL    HW2 3235   0.338   2.684   3.504
 1034SOL     OW 3236   2.824   0.244   2.540
 1034SOL    HW1 3237   2.832   0.208   2.628
 1034SOL    HW2 3238   2.747   0.301   2.544
 1035SOL     OW 3239   0.968   3.088   2.277
 1035SOL    HW1 3240   0.898   3.095   2.213
 1035SOL    HW2 3241   1.009   3.003   2.258
 1036SOL     OW 3242   3.164   1.274   3.964
 1036SOL    HW1 3243   3.165   1.180   3.948
 1036SOL    HW2 3244   3.227   1.310   3.903
 1037SOL     OW 3245   1.926   1.281   1.127
 1037SOL    HW1 3246   1.860   1.224   1.166
 1037SOL    HW2 3247   1.958   1.334   1.200
 1038SOL     OW 3248   1.709   1.276   2.782
 1038SOL    HW1 3249   1.792   1.303   2.820
 1038SOL    HW2 3250   1.678   1.353   2.734
 1039SOL     OW 3251   0.034   1.242   0.787
 1039SOL    HW1 3252  -0.053   1.214   0.757
 1039SOL    HW2 3253   0.055   1.182   0.859
 1040SOL     OW 3254   0.476   2.178   2.365
 1040SOL    HW1 3255   0.501   2.086   2.351
 1040SOL    HW2 3256   0.390   2.185   2.323
 1041SOL     OW 3257   3.858   0.566   1.876
 1041SOL    HW1 3258   3.835   0.491   1.932
 1041SOL    HW2 3259   3.820   0.642   1.920
 1042SOL     OW 3260   2.531   1.659   2.635
 1042SOL    HW1 3261   2.590   1.700   2.698
 1042SOL    HW2 3262   2.463   1.725   2.620
 1043SOL     OW 3263   2.352   0.410   1.716
 1043SOL    HW1 3264   2.292   0.485   1.712
 1043SOL    HW2 3265   2.334   0.370   1.801
 1044SOL     OW 3266   0.323   0.702   2.679
 1044SOL    HW1 3267   0.413   0.698   2.711
 1044SOL    HW2 3268   0.274   0.744   2.751
 1045SOL     OW 3269   2.536   1.603   0.443
 1045SOL    HW1 3270   2.605   1.664   0.469
 1045SOL    HW2 3271   2.463   1.623   0.502
 1046SOL     OW 3272   0.842   0.598   3.094
 1046SOL    HW1 3273   0.917   0.619   3.150
 1046SOL    HW2 3274   0.874   0.609   3.005
 1047SOL     OW 3275   1.532   0.245   1.724
 1047SOL    HW1 3276   1.566   0.252   1.813
 1047SOL    HW2 3277   1.608   0.252   1.668
 1048SOL     OW 3278   0.421   0.895   2.963
 1048SOL    HW1 3279   0.505   0.852   2.981
 1048SOL    HW2 3280   0.405   0.948   3.041
 1049SOL     OW 3281   0.640   3.750   1.172
 1049SOL    HW1 3282   0.734   3.767   1.176
 1049SOL    HW2 3283   0.625   3.717   1.083
 1050SOL     OW 3284   0.981   3.406  -0.013
 1050SOL    HW1 3285   1.000   3.457   0.066
 1050SOL    HW2 3286   0.893   3.372   0.001
 1051SOL     OW 3287   1.800   3.354   2.680
 1051SOL    HW1 3288   1.892   3.367   2.657
 1051SOL    HW2 3289   1.772   3.281   2.625
 1052SOL     OW 3290   0.954   0.408   0.484
 1052SOL    HW1 3291   0.986   0.337   0.428
 1052SOL    HW2 3292   0.958   0.486   0.427
 1053SOL     OW 3293   2.603   3.832   2.504
 1053SOL    HW1 3294   2.640   3.889   2.437
 1053SOL    HW2 3295   2.514   3.815   2.474
 1054SOL     OW 3296   2.756   0.592   1.267
 1054SOL    HW1 3297   2.800   0.668   1.228
 1054SOL    HW2 3298   2.826   0.546   1.313
 1055SOL     OW 3299   0.149   1.024   3.753
 1055SOL    HW1 3300   0.243   1.005   3.754
 1055SOL    HW2 3301   0.113   0.968   3.821
 1056SOL     OW 3302   0.347   2.487   2.266
 1056SOL    HW1 3303   0.410   2.550   2.231
 1056SOL    HW2 3304   0.385   2.458   2.349
 1057SOL     OW 3305   0.946   2.400   1.032
 1057SOL    HW1 3306   0.888   2.430   1.102
 1057SOL    HW2 3307   0.890   2.347   0.975
 1058SOL     OW 3308   1.746   3.467   1.203
 1058SOL    HW1 3309   1.825   3.505   1.241
 1058SOL    HW2 3310   1.676   3.527   1.228
 1059SOL     OW 3311   3.357   2.044   3.451
 1059SOL    HW1 3312   3.263   2.038   3.436
 1059SOL    HW2 3313   3.370   2.128   3.494
 1060SOL     OW 3314   1.438   3.937   2.114
 1060SOL    HW1 3315   1.367   4.000   2.130
 1060SOL    HW2 3316   1.442   3.930   2.018
 1061SOL     OW 3317   3.634   3.352   2.176
 1061SOL    HW1 3318   3.553   3.401   2.164
 1061SOL    HW2 3319   3.677   3.356   2.091
 1062SOL     OW 3320   0.536   1.381   3.138
 1062SOL    HW1 3321   0.564   1.470   3.117
 1062SOL    HW2 3322   0.477   1.392   3.212
 1063SOL     OW 3323   3.241   1.036   3.431
 1063SOL    HW1 3324   3.190   1.055   3.352
 1063SOL    HW2 3325   3.223   0.944   3.450
 1064SOL     OW 3326   1.553   3.708   0.362
 1064SOL    HW1 3327   1.526   3.770   0.430
 1064SOL    HW2 3328   1.630   3.665   0.398
 1065SOL     OW 3329   0.274   1.469   1.570
 1065SOL    HW1 3330   0.290   1.436   1.482
 1065SOL    HW2 3331   0.251   1.561   1.557
 1066SOL     OW 3332   2.919   3.823   2.268
 1066SOL    HW1 3333   2.916   3.829   2.363
 1066SOL    HW2 3334   3.012   3.817   2.247
 1067SOL     OW 3335   1.590   0.516   0.712
 1067SOL    HW1 3336   1.628   0.596   0.749
 1067SOL    HW2 3337   1.599   0.528   0.617
 1068SOL     OW 3338   3.131   0.327   0.682
 1068SOL    HW1 3339   3.097   0.416   0.674
 1068SOL    HW2 3340   3.054   0.271   0.673
 1069SOL     OW 3341   1.178   1.841   3.945
 1069SOL    HW1 3342   1.206   1.820   4.034
 1069SOL    HW2 3343   1.214   1.770   3.891
 1070SOL     OW 3344   2.046   2.265   3.270
 1070SOL    HW1 3345   1.990   2.214   3.328
 1070SOL    HW2 3346   2.050   2.214   3.189
 1071SOL     OW 3347   3.015   3.674   1.480
 1071SOL    HW1 3348   3.109   3.694   1.478
 1071SOL    HW2 3349   3.009   3.592   1.530
 1072SOL     OW 3350   2.328   3.426   2.037
 1072SOL    HW1 3351   2.370   3.351   2.079
 1072SOL    HW2 3352   2.244   3.434   2.081
 1073SOL     OW 3353   1.244   2.111   3.077
 1073SOL    HW1 3354   1.200   2.043   3.026
 1073SOL    HW2 3355   1.208   2.194   3.044
 1074SOL     OW 3356   0.385   0.459  -0.011
 1074SOL    HW1 3357   0.383   0.419   0.076
 1074SOL    HW2 3358   0.471   0.501  -0.016
 1075SOL     OW 3359   3.646   0.713   1.222
 1075SOL    HW1 3360   3.585   0.680   1.156
 1075SOL    HW2 3361   3.712   0.644   1.230
 1076SOL     OW 3362   2.170   0.442   0.970
 1076SOL    HW1 3363   2.221   0.362   0.986
 1076SOL    HW2 3364   2.121   0.425   0.890
 1077SOL     OW 3365   3.061   1.999   3.351
 1077SOL    HW1 3366   2.966   1.999   3.353
 1077SOL    HW2 3367   3.084   1.970   3.263
 1078SOL     OW 3368   2.257   0.355   1.971
 1078SOL    HW1 3369   2.244   0.388   2.060
 1078SOL    HW2 3370   2.279   0.262   1.984
 1079SOL     OW 3371   1.256   2.446   3.447
 1079SOL    HW1 3372   1.234   2.539   3.453
 1079SOL    HW2 3373   1.326   2.434   3.512
 1080SOL     OW 3374   1.776   2.495   1.397
 1080SOL    HW1 3375   1.784   2.406   1.362
 1080SOL    HW2 3376   1.865   2.516   1.428
 1081SOL     OW 3377   3.666   2.768   1.248
 1081SOL    HW1 3378   3.728   2.700   1.274
 1081SOL    HW2 3379   3.719   2.848   1.243
 1082SOL     OW 3380   1.843   2.550   2.922
 1082SOL    HW1 3381   1.752   2.579   2.925
 1082SOL    HW2 3382   1.848   2.482   2.990
 1083SOL     OW 3383   3.590   3.323   2.653
 1083SOL    HW1 3384   3.651   3.322   2.579
 1083SOL    HW2 3385   3.562   3.415   2.660
 1084SOL     OW 3386   3.777   2.153   0.125
 1084SOL    HW1 3387   3.835   2.096   0.176
 1084SOL    HW2 3388   3.694   2.106   0.120
 1085SOL     OW 3389   1.635   3.506   2.980
 1085SOL    HW1 3390   1.708   3.551   2.937
 1085SOL    HW2 3391   1.663   3.415   2.987
 1086SOL     OW 3392   1.268   1.467   1.986
 1086SOL    HW1 3393   1.293   1.489   2.076
 1086SOL    HW2 3394   1.350   1.437   1.945
 1087SOL     OW 3395   1.174   3.418   1.834
 1087SOL    HW1 3396   1.220   3.347   1.878
 1087SOL    HW2 3397   1.227   3.438   1.757
 1088SOL     OW 3398   1.999   1.969   2.802
 1088SOL    HW1 3399   2.065   1.924   2.855
 1088SOL    HW2 3400   1.919   1.918   2.814
 1089SOL     OW 3401   2.119   3.502   1.148
 1089SOL    HW1 3402   2.080   3.520   1.233
 1089SOL    HW2 3403   2.148   3.588   1.117
 1090SOL     OW 3404   1.384   0.911   0.737
 1090SOL    HW1 3405   1.438   0.932   0.814
 1090SOL    HW2 3406   1.294   0.920   0.768
 1091SOL     OW 3407   0.999   2.134   0.301
 1091SOL    HW1 3408   1.012   2.113   0.209
 1091SOL    HW2 3409   0.929   2.199   0.301
 1092SOL     OW 3410   2.122   1.412   0.372
 1092SOL    HW1 3411   2.066   1.425   0.296
 1092SOL    HW2 3412   2.078   1.461   0.442
 1093SOL     OW 3413   1.004   3.445   3.184
 1093SOL    HW1 3414   1.070   3.376   3.194
 1093SOL    HW2 3415   0.932   3.402   3.139
 1094SOL     OW 3416   0.584   0.587   3.216
 1094SOL    HW1 3417   0.660   0.563   3.163
 1094SOL    HW2 3418   0.518   0.612   3.152
 1095SOL     OW 3419   1.421   1.866   3.447
 1095SOL    HW1 3420   1.412   1.808   3.371
 1095SOL    HW2 3421   1.368   1.942   3.425
 1096SOL     OW 3422   1.459   0.354   3.952
 1096SOL    HW1 3423   1.538   0.317   3.991
 1096SOL    HW2 3424   1.430   0.288   3.889
 1097SOL     OW 3425   1.275   2.676   2.693
 1097SOL    HW1 3426   1.189   2.711   2.670
 1097SOL    HW2 3427   1.275   2.671   2.789
 1098SOL     OW 3428   1.728   2.210   2.037
 1098SOL    HW1 3429   1.773   2.221   1.953
 1098SOL    HW2 3430   1.762   2.128   2.072
 1099SOL     OW 3431   3.697   1.102   3.802
 1099SOL    HW1 3432   3.631   1.032   3.809
 1099SOL    HW2 3433   3.721   1.120   3.892
 1100SOL     OW 3434   0.104   1.927   3.638
 1100SOL    HW1 3435   0.035   1.881   3.687
 1100SOL    HW2 3436   0.083   1.909   3.547
 1101SOL     OW 3437   3.073   2.075   0.001
 1101SOL    HW1 3438   3.002   2.052   0.062
 1101SOL    HW2 3439   3.101   2.162   0.030
 1102SOL     OW 3440   3.101   1.955   1.539
 1102SOL    HW1 3441   3.190   1.945   1.506
 1102SOL    HW2 3442   3.093   2.049   1.556
 1103SOL     OW 3443   1.550   0.275   0.989
 1103SOL    HW1 3444   1.476   0.276   0.928
 1103SOL    HW2 3445   1.592   0.190   0.973
 1104SOL     OW 3446   1.478   3.405   2.631
 1104SOL    HW1 3447   1.545   3.349   2.591
 1104SOL    HW2 3448   1.457   3.361   2.713
 1105SOL     OW 3449   2.562   2.590   2.216
 1105SOL    HW1 3450   2.612   2.509   2.204
 1105SOL    HW2 3451   2.474   2.560   2.237
 1106SOL     OW 3452   3.424   2.682   3.359
 1106SOL    HW1 3453   3.434   2.591   3.387
 1106SOL    HW2 3454   3.513   2.712   3.342
 1107SOL     OW 3455   1.072   1.710   3.370
 1107SOL    HW1 3456   1.011   1.674   3.306
 1107SOL    HW2 3457   1.158   1.680   3.341
 1108SOL     OW 3458   3.015   3.875   1.081
 1108SOL    HW1 3459   3.103   3.874   1.119
 1108SOL    HW2 3460   3.005   3.964   1.047
 1109SOL     OW 3461   1.619   2.350   2.534
 1109SOL    HW1 3462   1.634   2.328   2.442
 1109SOL    HW2 3463   1.682   2.298   2.582
 1110SOL     OW 3464   0.013   2.211   2.747
 1110SOL    HW1 3465  -0.012   2.279   2.810
 1110SOL    HW2 3466   0.109   2.211   2.748
 1111SOL     OW 3467   2.560   2.249   2.900
 1111SOL    HW1 3468   2.595   2.249   2.989
 1111SOL    HW2 3469   2.551   2.156   2.877
 1112SOL     OW 3470   2.119   0.566   3.298
 1112SOL    HW1 3471   2.043   0.542   3.246
 1112SOL    HW2 3472   2.122   0.662   3.292
 1113SOL     OW 3473   0.684   3.609   0.908
 1113SOL    HW1 3474   0.655   3.532   0.959
 1113SOL    HW2 3475   0.779   3.608   0.917
 1114SOL     OW 3476   0.990   1.487   2.160
 1114SOL    HW1 3477   1.055   1.456   2.224
 1114SOL    HW2 3478   1.012   1.579   2.146
 1115SOL     OW 3479   1.091   0.371   3.376
 1115SOL    HW1 3480   1.159   0.324   3.327
 1115SOL    HW2 3481   1.071   0.447   3.322
 1116SOL     OW 3482   2.174   0.001   0.738
 1116SOL    HW1 3483   2.130   0.086   0.730
 1116SOL    HW2 3484   2.261   0.016   0.701
 1117SOL     OW 3485   1.715   3.064   3.680
 1117SOL    HW1 3486   1.673   3.115   3.610
 1117SOL    HW2 3487   1.700   2.973   3.655
 1118SOL     OW 3488   1.575   2.139   3.198
 1118SOL    HW1 3489   1.529   2.140   3.282
 1118SOL    HW2 3490   1.507   2.158   3.133
 1119SOL     OW 3491   1.104   0.137   1.627
 1119SOL    HW1 3492   1.186   0.093   1.650
 1119SOL    HW2 3493   1.039   0.099   1.685
 1120SOL     OW 3494   1.875   0.133   2.095
 1120SOL    HW1 3495   1.799   0.114   2.151
 1120SOL    HW2 3496   1.930   0.192   2.149
 1121SOL     OW 3497   2.271   2.243   2.595
 1121SOL    HW1 3498   2.303   2.157   2.623
 1121SOL    HW2 3499   2.216   2.273   2.667
 1122SOL     OW 3500   3.622   3.831   1.825
 1122SOL    HW1 3501   3.638   3.784   1.743
 1122SOL    HW2 3502   3.561   3.774   1.872
 1123SOL     OW 3503   0.253   2.116   1.442
 1123SOL    HW1 3504   0.206   2.120   1.359
 1123SOL    HW2 3505   0.345   2.123   1.418
 1124SOL     OW 3506   3.407   1.319   1.296
 1124SOL    HW1 3507   3.385   1.408   1.269
 1124SOL    HW2 3508   3.378   1.314   1.387
 1125SOL     OW 3509   0.186   2.605   2.556
 1125SOL    HW1 3510   0.237   2.686   2.567
 1125SOL    HW2 3511   0.241   2.537   2.594
 1126SOL     OW 3512   0.679   1.520   0.912
 1126SOL    HW1 3513   0.747   1.496   0.975
 1126SOL    HW2 3514   0.702   1.608   0.883
 1127SOL     OW 3515   1.752   1.472   3.893
 1127SOL    HW1 3516   1.695   1.481   3.969
 1127SOL    HW2 3517   1.720   1.536   3.830
 1128SOL     OW 3518   0.054   1.612   2.101
 1128SOL    HW1 3519   0.008   1.528   2.101
 1128SOL    HW2 3520  -0.011   1.675   2.132
 1129SOL     OW 3521   2.097   2.723   2.304
 1129SOL    HW1 3522   2.095   2.711   2.209
 1129SOL    HW2 3523   2.117   2.636   2.339
 1130SOL     OW 3524   0.593   0.490   3.738
 1130SOL    HW1 3525   0.540   0.479   3.659
 1130SOL    HW2 3526   0.679   0.516   3.705
 1131SOL     OW 3527   0.768   2.301   0.754
 1131SOL    HW1 3528   0.853   2.318   0.715
 1131SOL    HW2 3529   0.733   2.387   0.774
 1132SOL     OW 3530   3.326   0.673   2.796
 1132SOL    HW1 3531   3.275   0.606   2.751
 1132SOL    HW2 3532   3.336   0.640   2.885
 1133SOL     OW 3533   0.136   0.676   2.069
 1133SOL    HW1 3534   0.124   0.638   2.156
 1133SOL    HW2 3535   0.227   0.706   2.068
 1134SOL     OW 3536   0.474   2.025   0.492
 1134SOL    HW1 3537   0.565   1.998   0.498
 1134SOL    HW2 3538   0.434   1.994   0.574
 1135SOL     OW 3539   1.799   2.977   0.330
 1135SOL    HW1 3540   1.871   2.943   0.383
 1135SOL    HW2 3541   1.766   3.052   0.378
 1136SOL     OW 3542   3.690   2.835   0.261
 1136SOL    HW1 3543   3.645   2.868   0.339
 1136SOL    HW2 3544   3.774   2.882   0.260
 1137SOL     OW 3545   0.504   0.309   0.765
 1137SOL    HW1 3546   0.505   0.295   0.670
 1137SOL    HW2 3547   0.569   0.248   0.799
 1138SOL     OW 3548   2.762   3.843   0.957
 1138SOL    HW1 3549   2.835   3.847   1.019
 1138SOL    HW2 3550   2.803   3.846   0.871
 1139SOL     OW 3551   3.306   1.507   0.185
 1139SOL    HW1 3552   3.388   1.522   0.138
 1139SOL    HW2 3553   3.277   1.421   0.155
 1140SOL     OW 3554   0.316   0.495   3.661
 1140SOL    HW1 3555   0.343   0.410   3.626
 1140SOL    HW2 3556   0.329   0.488   3.756
 1141SOL     OW 3557   0.699   3.907   3.088
 1141SOL    HW1 3558   0.755   3.946   3.021
 1141SOL    HW2 3559   0.634   3.974   3.108
 1142SOL     OW 3560   1.523   0.131   1.241
 1142SOL    HW1 3561   1.561   0.169   1.162
 1142SOL    HW2 3562   1.435   0.104   1.216
 1143SOL     OW 3563   3.110   3.167  -0.021
 1143SOL    HW1 3564   3.070   3.084   0.006
 1143SOL    HW2 3565   3.198   3.165   0.017
 1144SOL     OW 3566   1.548   0.968   2.415
 1144SOL    HW1 3567   1.569   0.981   2.507
 1144SOL    HW2 3568   1.483   0.897   2.415
 1145SOL     OW 3569   1.431   3.001   3.435
 1145SOL    HW1 3570   1.386   3.074   3.393
 1145SOL    HW2 3571   1.368   2.929   3.432
 1146SOL     OW 3572   1.202   2.184   0.879
 1146SOL    HW1 3573   1.273   2.119   0.877
 1146SOL    HW2 3574   1.224   2.240   0.953
 1147SOL     OW 3575   0.305   3.408   3.888
 1147SOL    HW1 3576   0.306   3.503   3.876
 1147SOL    HW2 3577   0.221   3.390   3.931
 1148SOL     OW 3578   0.892   3.466   2.793
 1148SOL    HW1 3579   0.970   3.515   2.820
 1148SOL    HW2 3580   0.846   3.449   2.875
 1149SOL     OW 3581   2.884   0.114   2.047
 1149SOL    HW1 3582   2.817   0.143   2.108
 1149SOL    HW2 3583   2.846   0.038   2.003
 1150SOL     OW 3584   1.928   0.825   0.153
 1150SOL    HW1 3585   1.977   0.851   0.231
 1150SOL    HW2 3586   1.948   0.894   0.089
 1151SOL     OW 3587   3.153   1.627   1.533
 1151SOL    HW1 3588   3.198   1.543   1.528
 1151SOL    HW2 3589   3.181   1.665   1.616
 1152SOL     OW 3590   3.613   1.200   1.182
 1152SOL    HW1 3591   3.663   1.179   1.261
 1152SOL    HW2 3592   3.532   1.241   1.215
 1153SOL     OW 3593   1.669   0.741   1.120
 1153SOL    HW1 3594   1.600   0.675   1.109
 1153SOL    HW2 3595   1.630   0.822   1.085
 1154SOL     OW 3596   3.349   0.216   0.285
 1154SOL    HW1 3597   3.436   0.189   0.254
 1154SOL    HW2 3598   3.364   0.302   0.324
 1155SOL     OW 3599   0.659   2.119   1.417
 1155SOL    HW1 3600   0.644   2.045   1.474
 1155SOL    HW2 3601   0.579   2.124   1.363
 1156SOL     OW 3602   0.155   3.184   0.883
 1156SOL    HW1 3603   0.071   3.198   0.839
 1156SOL    HW2 3604   0.215   3.159   0.812
 1157SOL     OW 3605   2.519   0.046   0.480
 1157SOL    HW1 3606   2.506   0.066   0.573
 1157SOL    HW2 3607   2.457   0.103   0.435
 1158SOL     OW 3608   3.573   1.611   0.171
 1158SOL    HW1 3609   3.627   1.597   0.249
 1158SOL    HW2 3610   3.627   1.581   0.098
 1159SOL     OW 3611   2.014   0.335   1.730
 1159SOL    HW1 3612   2.041   0.297   1.647
 1159SOL    HW2 3613   2.020   0.263   1.793
 1160SOL     OW 3614   2.006   1.106   0.308
 1160SOL    HW1 3615   2.084   1.135   0.354
 1160SOL    HW2 3616   2.025   1.120   0.215
 1161SOL     OW 3617   1.598   0.559   0.457
 1161SOL    HW1 3618   1.660   0.609   0.404
 1161SOL    HW2 3619   1.567   0.489   0.399
 1162SOL     OW 3620   3.402   2.843   1.653
 1162SOL    HW1 3621   3.391   2.834   1.558
 1162SOL    HW2 3622   3.411   2.754   1.685
 1163SOL     OW 3623   2.185   0.254   2.618
 1163SOL    HW1 3624   2.169   0.275   2.710
 1163SOL    HW2 3625   2.098   0.251   2.578
 1164SOL     OW 3626   3.827   2.342   2.481
 1164SOL    HW1 3627   3.892   2.373   2.545
 1164SOL    HW2 3628   3.836   2.402   2.407
 1165SOL     OW 3629   2.406   1.082   0.164
 1165SOL    HW1 3630   2.366   1.003   0.199
 1165SOL    HW2 3631   2.402   1.145   0.236
 1166SOL     OW 3632   0.777   3.481   2.335
 1166SOL    HW1 3633   0.729   3.464   2.254
 1166SOL    HW2 3634   0.745   3.566   2.364
 1167SOL     OW 3635   1.885   0.695   2.980
 1167SOL    HW1 3636   1.817   0.745   2.936
 1167SOL    HW2 3637   1.966   0.722   2.937
 1168SOL     OW 3638   3.416   1.993   2.043
 1168SOL    HW1 3639   3.363   1.940   2.103
 1168SOL    HW2 3640   3.428   2.076   2.088
 1169SOL     OW 3641   3.257   1.032   2.601
 1169SOL    HW1 3642   3.342   1.041   2.646
 1169SOL    HW2 3643   3.192   1.047   2.670
 1170SOL     OW 3644   3.883   3.859   2.195
 1170SOL    HW1 3645   3.815   3.925   2.205
 1170SOL    HW2 3646   3.870   3.823   2.108
 1171SOL     OW 3647   2.721   1.117   0.122
 1171SOL    HW1 3648   2.646   1.093   0.175
 1171SOL    HW2 3649   2.716   1.213   0.116
 1172SOL     OW 3650   2.266   1.133   1.161
 1172SOL    HW1 3651   2.193   1.072   1.170
 1172SOL    HW2 3652   2.332   1.102   1.224
 1173SOL     OW 3653   1.602   1.793   2.913
 1173SOL    HW1 3654   1.626   1.822   3.001
 1173SOL    HW2 3655   1.512   1.823   2.902
 1174SOL     OW 3656   3.504   3.099   1.664
 1174SOL    HW1 3657   3.473   3.011   1.645
 1174SOL    HW2 3658   3.595   3.087   1.693
 1175SOL     OW 3659   2.703   2.086   1.592
 1175SOL    HW1 3660   2.720   2.053   1.680
 1175SOL    HW2 3661   2.751   2.027   1.534
 1176SOL     OW 3662   2.921   0.629   3.062
 1176SOL    HW1 3663   2.956   0.553   3.107
 1176SOL    HW2 3664   2.920   0.605   2.969
 1177SOL     OW 3665   2.915   0.172   1.711
 1177SOL    HW1 3666   2.918   0.250   1.766
 1177SOL    HW2 3667   2.852   0.115   1.755
 1178SOL     OW 3668   0.247   2.217   3.336
 1178SOL    HW1 3669   0.209   2.268   3.407
 1178SOL    HW2 3670   0.314   2.275   3.298
 1179SOL     OW 3671   3.385   2.656   1.848
 1179SOL    HW1 3672   3.335   2.593   1.900
 1179SOL    HW2 3673   3.413   2.722   1.912
 1180SOL     OW 3674   1.865   3.721   3.362
 1180SOL    HW1 3675   1.800   3.679   3.305
 1180SOL    HW2 3676   1.949   3.701   3.321
 1181SOL     OW 3677   2.623   2.319   2.544
 1181SOL    HW1 3678   2.609   2.305   2.450
 1181SOL    HW2 3679   2.707   2.365   2.549
 1182SOL     OW 3680   0.921   3.772   0.189
 1182SOL    HW1 3681   0.879   3.698   0.232
 1182SOL    HW2 3682   0.972   3.733   0.118
 1183SOL     OW 3683   3.074   3.859   3.818
 1183SOL    HW1 3684   3.170   3.861   3.818
 1183SOL    HW2 3685   3.052   3.841   3.910
 1184SOL     OW 3686   1.351   1.740   1.387
 1184SOL    HW1 3687   1.256   1.727   1.389
 1184SOL    HW2 3688   1.385   1.676   1.450
 1185SOL     OW 3689   2.645   3.607   0.764
 1185SOL    HW1 3690   2.677   3.658   0.838
 1185SOL    HW2 3691   2.687   3.647   0.687
 1186SOL     OW 3692   1.017   2.018   2.147
 1186SOL    HW1 3693   1.092   2.062   2.189
 1186SOL    HW2 3694   1.043   2.010   2.055
 1187SOL     OW 3695   3.088   0.987   0.904
 1187SOL    HW1 3696   3.088   0.906   0.954
 1187SOL    HW2 3697   3.177   0.996   0.872
 1188SOL     OW 3698   2.331   2.799   1.686
 1188SOL    HW1 3699   2.400   2.769   1.745
 1188SOL    HW2 3700   2.354   2.760   1.601
 1189SOL     OW 3701   3.227   1.111   3.710
 1189SOL    HW1 3702   3.320   1.111   3.732
 1189SOL    HW2 3703   3.225   1.093   3.616
 1190SOL     OW 3704   1.434   1.297   0.917
 1190SOL    HW1 3705   1.389   1.298   1.001
 1190SOL    HW2 3706   1.364   1.287   0.853
 1191SOL     OW 3707   0.076   3.532   1.789
 1191SOL    HW1 3708   0.128   3.599   1.833
 1191SOL    HW2 3709   0.110   3.449   1.824
 1192SOL     OW 3710   1.019   1.964   1.737
 1192SOL    HW1 3711   1.099   2.008   1.710
 1192SOL    HW2 3712   0.951   2.002   1.682
 1193SOL     OW 3713   2.127   2.419   2.139
 1193SOL    HW1 3714   2.116   2.496   2.083
 1193SOL    HW2 3715   2.081   2.349   2.092
 1194SOL     OW 3716   0.475   3.305   2.678
 1194SOL    HW1 3717   0.475   3.263   2.764
 1194SOL    HW2 3718   0.567   3.314   2.656
 1195SOL     OW 3719   2.353   2.540   2.582
 1195SOL    HW1 3720   2.308   2.619   2.552
 1195SOL    HW2 3721   2.369   2.490   2.502
 1196SOL     OW 3722   3.847   3.574   0.398
 1196SOL    HW1 3723   3.935   3.578   0.361
 1196SOL    HW2 3724   3.800   3.647   0.357
 1197SOL     OW 3725   1.069   0.824   1.036
 1197SOL    HW1 3726   1.013   0.873   1.097
 1197SOL    HW2 3727   1.129   0.775   1.093
 1198SOL     OW 3728   3.825   0.222   3.949
 1198SOL    HW1 3729   3.800   0.131   3.934
 1198SOL    HW2 3730   3.747   0.273   3.928
 1199SOL     OW 3731   2.927   0.137   0.634
 1199SOL    HW1 3732   2.952   0.049   0.665
 1199SOL    HW2 3733   2.973   0.146   0.551
 1200SOL     OW 3734   1.783   0.032   3.332
 1200SOL    HW1 3735   1.796   0.018   3.238
 1200SOL    HW2 3736   1.831  -0.039   3.374
 1201SOL     OW 3737   1.698   0.757   0.288
 1201SOL    HW1 3738   1.767   0.787   0.230
 1201SOL    HW2 3739   1.679   0.833   0.344
 1202SOL     OW 3740   3.692   3.878   1.542
 1202SOL    HW1 3741   3.755   3.950   1.538
 1202SOL    HW2 3742   3.613   3.918   1.578
 1203SOL     OW 3743   1.357   3.495   1.659
 1203SOL    HW1 3744   1.431   3.527   1.711
 1203SOL    HW2 3745   1.396   3.462   1.579
 1204SOL     OW 3746   1.242   0.407   1.930
 1204SOL    HW1 3747   1.267   0.499   1.940
 1204SOL    HW2 3748   1.284   0.379   1.848
 1205SOL     OW 3749   0.947   0.128   0.016
 1205SOL    HW1 3750   0.864   0.123  -0.031
 1205SOL    HW2 3751   0.925   0.103   0.106
 1206SOL     OW 3752   0.034   3.948   3.150
 1206SOL    HW1 3753   0.054   3.934   3.058
 1206SOL    HW2 3754   0.075   3.874   3.196
 1207SOL     OW 3755   1.777   1.164   0.173
 1207SOL    HW1 3756   1.819   1.176   0.088
 1207SOL    HW2 3757   1.826   1.093   0.214
 1208SOL     OW 3758   0.741   0.194   1.126
 1208SOL    HW1 3759   0.668   0.163   1.072
 1208SOL    HW2 3760   0.704   0.198   1.215
 1209SOL     OW 3761   2.966   2.885   0.592
 1209SOL    HW1 3762   2.966   2.980   0.584
 1209SOL    HW2 3763   2.943   2.853   0.505
 1210SOL     OW 3764   0.601   0.505   0.404
 1210SOL    HW1 3765   0.657   0.556   0.346
 1210SOL    HW2 3766   0.581   0.565   0.477
 1211SOL     OW 3767   1.333   0.607   3.312
 1211SOL    HW1 3768   1.364   0.687   3.355
 1211SOL    HW2 3769   1.396   0.540   3.337
 1212SOL     OW 3770   3.117   3.053   1.905
 1212SOL    HW1 3771   3.210   3.071   1.921
 1212SOL    HW2 3772   3.117   2.972   1.855
 1213SOL     OW 3773   0.800   1.445   1.764
 1213SOL    HW1 3774   0.767   1.358   1.788
 1213SOL    HW2 3775   0.800   1.494   1.846
 1214SOL     OW 3776   0.746   3.824   1.535
 1214SOL    HW1 3777   0.769   3.864   1.619
 1214SOL    HW2 3778   0.650   3.829   1.532
 1215SOL     OW 3779   3.902   2.517   3.461
 1215SOL    HW1 3780   3.838   2.467   3.513
 1215SOL    HW2 3781   3.898   2.605   3.497
 1216SOL     OW 3782   0.073   1.833   0.439
 1216SOL    HW1 3783   0.084   1.744   0.474
 1216SOL    HW2 3784   0.095   1.890   0.512
 1217SOL     OW 3785   1.243   0.219   2.158
 1217SOL    HW1 3786   1.258   0.269   2.238
 1217SOL    HW2 3787   1.239   0.284   2.088
 1218SOL     OW 3788   1.758   2.633   2.111
 1218SOL    HW1 3789   1.704   2.709   2.093
 1218SOL    HW2 3790   1.731   2.604   2.198
 1219SOL     OW 3791   1.655   3.749   1.732
 1219SOL    HW1 3792   1.628   3.672   1.782
 1219SOL    HW2 3793   1.673   3.816   1.798
 1220SOL     OW 3794   2.922   2.138   1.359
 1220SOL    HW1 3795   2.935   2.064   1.299
 1220SOL    HW2 3796   2.974   2.115   1.436
 1221SOL     OW 3797   0.841   2.214   3.505
 1221SOL    HW1 3798   0.907   2.234   3.438
 1221SOL    HW2 3799   0.862   2.272   3.578
 1222SOL     OW 3800   1.152   0.836   0.550
 1222SOL    HW1 3801   1.221   0.806   0.610
 1222SOL    HW2 3802   1.142   0.929   0.571
 1223SOL     OW 3803   3.416   2.411  -0.005
 1223SOL    HW1 3804   3.438   2.373   0.080
 1223SOL    HW2 3805   3.480   2.481  -0.017
 1224SOL     OW 3806   2.947   1.046   2.912
 1224SOL    HW1 3807   3.010   0.976   2.929
 1224SOL    HW2 3808   2.988   1.098   2.843
 1225SOL     OW 3809   2.643   2.354   3.336
 1225SOL    HW1 3810   2.654   2.392   3.249
 1225SOL    HW2 3811   2.574   2.406   3.377
 1226SOL     OW 3812   1.477   3.290   0.178
 1226SOL    HW1 3813   1.394   3.247   0.160
 1226SOL    HW2 3814   1.479   3.300   0.273
 1227SOL     OW 3815   2.262   1.175   0.437
 1227SOL    HW1 3816   2.348   1.192   0.475
 1227SOL    HW2 3817   2.231   1.262   0.411
 1228SOL     OW 3818   3.695   2.735   1.907
 1228SOL    HW1 3819   3.653   2.812   1.871
 1228SOL    HW2 3820   3.651   2.720   1.991
 1229SOL     OW 3821   2.398   1.324   3.622
 1229SOL    HW1 3822   2.471   1.273   3.658
 1229SOL    HW2 3823   2.407   1.314   3.527
 1230SOL     OW 3824   0.795   0.572   2.267
 1230SOL    HW1 3825   0.791   0.662   2.236
 1230SOL    HW2 3826   0.728   0.566   2.335
 1231SOL     OW 3827   2.416   1.998   2.780
 1231SOL    HW1 3828   2.391   1.910   2.806
 1231SOL    HW2 3829   2.497   1.988   2.731
 1232SOL     OW 3830   2.447   1.657   3.097
 1232SOL    HW1 3831   2.444   1.583   3.157
 1232SOL    HW2 3832   2.530   1.700   3.115
 1233SOL     OW 3833   2.093   1.502   3.515
 1233SOL    HW1 3834   2.069   1.465   3.430
 1233SOL    HW2 3835   2.010   1.512   3.561
 1234SOL     OW 3836   1.293   0.470   3.655
 1234SOL    HW1 3837   1.313   0.482   3.563
 1234SOL    HW2 3838   1.357   0.406   3.686
 1235SOL     OW 3839   0.524   0.381   2.684
 1235SOL    HW1 3840   0.493   0.395   2.774
 1235SOL    HW2 3841   0.493   0.294   2.661
 1236SOL     OW 3842   1.519   1.384   1.924
 1236SOL    HW1 3843   1.601   1.346   1.954
 1236SOL    HW2 3844   1.517   1.367   1.830
 1237SOL     OW 3845   3.687   1.171   1.456
 1237SOL    HW1 3846   3.683   1.260   1.491
 1237SOL    HW2 3847   3.763   1.132   1.499
 1238SOL     OW 3848   1.652   1.462   3.326
 1238SOL    HW1 3849   1.700   1.540   3.298
 1238SOL    HW2 3850   1.656   1.403   3.250
 1239SOL     OW 3851   3.089   0.520   1.922
 1239SOL    HW1 3852   3.005   0.475   1.936
 1239SOL    HW2 3853   3.079   0.564   1.838
 1240SOL     OW 3854   3.778   2.061   2.845
 1240SOL    HW1 3855   3.853   2.097   2.799
 1240SOL    HW2 3856   3.808   1.977   2.879
 1241SOL     OW 3857   2.560   3.818   1.593
 1241SOL    HW1 3858   2.622   3.751   1.622
 1241SOL    HW2 3859   2.565   3.886   1.660
 1242SOL     OW 3860   0.166   1.754   0.725
 1242SOL    HW1 3861   0.182   1.670   0.767
 1242SOL    HW2 3862   0.203   1.818   0.786
 1243SOL     OW 3863   0.504   3.603   3.252
 1243SOL    HW1 3864   0.476   3.532   3.194
 1243SOL    HW2 3865   0.580   3.641   3.208
 1244SOL     OW 3866   2.076   1.541   3.204
 1244SOL    HW1 3867   2.122   1.472   3.156
 1244SOL    HW2 3868   1.984   1.518   3.199
 1245SOL     OW 3869   3.448   2.485   2.312
 1245SOL    HW1 3870   3.468   2.579   2.304
 1245SOL    HW2 3871   3.495   2.458   2.391
 1246SOL     OW 3872   1.205   1.200   0.142
 1246SOL    HW1 3873   1.238   1.115   0.113
 1246SOL    HW2 3874   1.261   1.264   0.098
 1247SOL     OW 3875   2.827   1.470   3.472
 1247SOL    HW1 3876   2.856   1.526   3.401
 1247SOL    HW2 3877   2.843   1.381   3.441
 1248SOL     OW 3878   3.656   2.272   2.943
 1248SOL    HW1 3879   3.615   2.331   2.880
 1248SOL    HW2 3880   3.685   2.197   2.891
 1249SOL     OW 3881   3.411   1.548   3.397
 1249SOL    HW1 3882   3.337   1.529   3.455
 1249SOL    HW2 3883   3.422   1.643   3.403
 1250SOL     OW 3884   1.269   2.077   3.333
 1250SOL    HW1 3885   1.180   2.079   3.368
 1250SOL    HW2 3886   1.258   2.078   3.238
 1251SOL     OW 3887   0.426   2.376   3.228
 1251SOL    HW1 3888   0.475   2.455   3.254
 1251SOL    HW2 3889   0.490   2.306   3.231
 1252SOL     OW 3890   0.976   0.617   0.700
 1252SOL    HW1 3891   1.063   0.617   0.740
 1252SOL    HW2 3892   0.988   0.573   0.616
 1253SOL     OW 3893   3.763   1.482   1.792
 1253SOL    HW1 3894   3.768   1.399   1.840
 1253SOL    HW2 3895   3.855   1.508   1.782
 1254SOL     OW 3896   1.171   3.897   3.644
 1254SOL    HW1 3897   1.222   3.825   3.605
 1254SOL    HW2 3898   1.085   3.891   3.601
 1255SOL     OW 3899   0.201   2.717   1.022
 1255SOL    HW1 3900   0.224   2.747   1.110
 1255SOL    HW2 3901   0.285   2.702   0.979
 1256SOL     OW 3902   0.189   0.920   1.208
 1256SOL    HW1 3903   0.096   0.908   1.230
 1256SOL    HW2 3904   0.226   0.831   1.213
 1257SOL     OW 3905   0.721   0.801   3.301
 1257SOL    HW1 3906   0.797   0.751   3.331
 1257SOL    HW2 3907   0.655   0.734   3.281
 1258SOL     OW 3908   1.182   0.838   2.907
 1258SOL    HW1 3909   1.210   0.906   2.968
 1258SOL    HW2 3910   1.256   0.777   2.902
 1259SOL     OW 3911   0.727   3.631   3.124
 1259SOL    HW1 3912   0.809   3.631   3.172
 1259SOL    HW2 3913   0.709   3.724   3.106
 1260SOL     OW 3914   3.074   1.216   1.526
 1260SOL    HW1 3915   3.104   1.287   1.583
 1260SOL    HW2 3916   3.074   1.253   1.438
 1261SOL     OW 3917   2.228   3.782   1.345
 1261SOL    HW1 3918   2.311   3.828   1.332
 1261SOL    HW2 3919   2.203   3.804   1.435
 1262SOL     OW 3920   3.536   2.067   1.052
 1262SOL    HW1 3921   3.511   2.006   1.121
 1262SOL    HW2 3922   3.465   2.062   0.988
 1263SOL     OW 3923   0.122   0.545   3.129
 1263SOL    HW1 3924   0.057   0.616   3.130
 1263SOL    HW2 3925   0.087   0.480   3.190
 1264SOL     OW 3926   0.360   0.578   3.060
 1264SOL    HW1 3927   0.363   0.531   2.977
 1264SOL    HW2 3928   0.267   0.582   3.083
 1265SOL     OW 3929   1.531   3.927   2.985
 1265SOL    HW1 3930   1.512   3.881   2.903
 1265SOL    HW2 3931   1.448   3.924   3.033
 1266SOL     OW 3932   0.084   0.633   3.806
 1266SOL    HW1 3933   0.057   0.717   3.842
 1266SOL    HW2 3934   0.172   0.649   3.772
 1267SOL     OW 3935   1.056   1.855   2.373
 1267SOL    HW1 3936   1.032   1.881   2.284
 1267SOL    HW2 3937   1.148   1.881   2.382
 1268SOL     OW 3938   3.773   0.735   0.494
 1268SOL    HW1 3939   3.852   0.760   0.445
 1268SOL    HW2 3940   3.779   0.640   0.503
 1269SOL     OW 3941   3.152   0.774   3.521
 1269SOL    HW1 3942   3.182   0.697   3.473
 1269SOL    HW2 3943   3.152   0.747   3.613
 1270SOL     OW 3944   1.953   0.549   3.880
 1270SOL    HW1 3945   1.866   0.559   3.920
 1270SOL    HW2 3946   1.992   0.475   3.926
 1271SOL     OW 3947   3.185   3.778   0.333
 1271SOL    HW1 3948   3.175   3.697   0.383
 1271SOL    HW2 3949   3.278   3.798   0.337
 1272SOL     OW 3950   3.094   1.208   2.758
 1272SOL    HW1 3951   3.124   1.281   2.703
 1272SOL    HW2 3952   3.127   1.230   2.845
 1273SOL     OW 3953   1.397   2.896   3.851
 1273SOL    HW1 3954   1.419   2.986   3.828
 1273SOL    HW2 3955   1.461   2.843   3.803
 1274SOL     OW 3956   1.202   2.859   1.978
 1274SOL    HW1 3957   1.201   2.954   1.971
 1274SOL    HW2 3958   1.285   2.839   2.022
 1275SOL     OW 3959   1.297   1.300   1.304
 1275SOL    HW1 3960   1.204   1.280   1.314
 1275SOL    HW2 3961   1.299   1.374   1.243
 1276SOL     OW 3962   2.000   2.959   2.882
 1276SOL    HW1 3963   2.083   3.007   2.878
 1276SOL    HW2 3964   1.954   2.998   2.956
 1277SOL     OW 3965   0.596   3.900   2.100
 1277SOL    HW1 3966   0.549   3.853   2.168
 1277SOL    HW2 3967   0.643   3.970   2.146
 1278SOL     OW 3968   0.476   3.197   2.982
 1278SOL    HW1 3969   0.413   3.144   2.933
 1278SOL    HW2 3970   0.462   3.173   3.074
 1279SOL     OW 3971   2.207   2.897   1.363
 1279SOL    HW1 3972   2.290   2.854   1.343
 1279SOL    HW2 3973   2.232   2.974   1.414
 1280SOL     OW 3974   0.419   2.984   0.234
 1280SOL    HW1 3975   0.508   2.954   0.249
 1280SOL    HW2 3976   0.417   3.008   0.141
 1281SOL     OW 3977   2.514   3.821   1.315
 1281SOL    HW1 3978   2.518   3.836   1.409
 1281SOL    HW2 3979   2.572   3.747   1.299
 1282SOL     OW 3980   2.069   2.254   2.812
 1282SOL    HW1 3981   2.093   2.272   2.903
 1282SOL    HW2 3982   2.043   2.162   2.812
 1283SOL     OW 3983   0.868   2.541   1.956
 1283SOL    HW1 3984   0.943   2.600   1.945
 1283SOL    HW2 3985   0.899   2.457   1.922
 1284SOL     OW 3986   0.953   2.678   0.432
 1284SOL    HW1 3987   0.896   2.748   0.461
 1284SOL    HW2 3988   1.038   2.698   0.472
 1285SOL     OW 3989   0.607   3.142   0.054
 1285SOL    HW1 3990   0.598   3.130   0.149
 1285SOL    HW2 3991   0.645   3.230   0.045
 1286SOL     OW 3992   3.145   2.790   1.814
 1286SOL    HW1 3993   3.097   2.748   1.886
 1286SOL    HW2 3994   3.198   2.720   1.777
 1287SOL     OW 3995   1.212   1.735   0.944
 1287SOL    HW1 3996   1.204   1.754   0.850
 1287SOL    HW2 3997   1.192   1.819   0.987
 1288SOL     OW 3998   3.009   3.705   3.578
 1288SOL    HW1 3999   3.027   3.768   3.648
 1288SOL    HW2 4000   3.070   3.633   3.595
 1289SOL     OW 4001   0.031   1.257   3.770
 1289SOL    HW1 4002   0.079   1.176   3.785
 1289SOL    HW2 4003  -0.012   1.245   3.686
 1290SOL     OW 4004   2.527   0.917   3.047
 1290SOL    HW1 4005   2.607   0.944   3.091
 1290SOL    HW2 4006   2.468   0.993   3.056
 1291SOL     OW 4007   1.659   1.299   3.080
 1291SOL    HW1 4008   1.682   1.262   2.994
 1291SOL    HW2 4009   1.563   1.290   3.084
 1292SOL     OW 4010   3.157   0.193   2.122
 1292SOL    HW1 4011   3.069   0.171   2.091
 1292SOL    HW2 4012   3.145   0.226   2.211
 1293SOL     OW 4013   0.871   2.819   0.821
 1293SOL    HW1 4014   0.919   2.893   0.783
 1293SOL    HW2 4015   0.822   2.858   0.894
 1294SOL     OW 4016   1.536   1.649   1.192
 1294SOL    HW1 4017   1.489   1.682   1.268
 1294SOL    HW2 4018   1.470   1.647   1.122
 1295SOL     OW 4019   0.840   1.316   3.321
 1295SOL    HW1 4020   0.831   1.236   3.269
 1295SOL    HW2 4021   0.892   1.290   3.397
 1296SOL     OW 4022   3.122   2.406   0.957
 1296SOL    HW1 4023   3.204   2.456   0.953
 1296SOL    HW2 4024   3.123   2.365   1.043
 1297SOL     OW 4025   1.743   0.413   2.570
 1297SOL    HW1 4026   1.762   0.375   2.656
 1297SOL    HW2 4027   1.663   0.464   2.584
 1298SOL     OW 4028   2.294   3.113   1.468
 1298SOL    HW1 4029   2.364   3.163   1.512
 1298SOL    HW2 4030   2.254   3.176   1.408
 1299SOL     OW 4031   2.434   3.827   0.922
 1299SOL    HW1 4032   2.359   3.789   0.967
 1299SOL    HW2 4033   2.505   3.822   0.986
 1300SOL     OW 4034   2.405   3.119   2.333
 1300SOL    HW1 4035   2.342   3.088   2.398
 1300SOL    HW2 4036   2.379   3.075   2.252
 1301SOL     OW 4037   1.374   0.153   3.736
 1301SOL    HW1 4038   1.451   0.186   3.689
 1301SOL    HW2 4039   1.336   0.089   3.676
 1302SOL     OW 4040   2.420   3.454   1.272
 1302SOL    HW1 4041   2.341   3.425   1.317
 1302SOL    HW2 4042   2.397   3.540   1.237
 1303SOL     OW 4043   2.768   3.605   0.146
 1303SOL    HW1 4044   2.756   3.680   0.205
 1303SOL    HW2 4045   2.700   3.543   0.171
 1304SOL     OW 4046   0.440   0.492   0.997
 1304SOL    HW1 4047   0.384   0.557   0.954
 1304SOL    HW2 4048   0.483   0.446   0.925
 1305SOL     OW 4049   0.337   0.589   2.287
 1305SOL    HW1 4050   0.318   0.652   2.356
 1305SOL    HW2 4051   0.312   0.505   2.324
 1306SOL     OW 4052   0.896   1.717   3.005
 1306SOL    HW1 4053   0.826   1.742   3.065
 1306SOL    HW2 4054   0.932   1.637   3.044
 1307SOL     OW 4055   1.619   2.926   2.548
 1307SOL    HW1 4056   1.627   2.912   2.643
 1307SOL    HW2 4057   1.684   2.868   2.509
 1308SOL     OW 4058   0.685   3.067   1.767
 1308SOL    HW1 4059   0.745   3.062   1.841
 1308SOL    HW2 4060   0.726   3.127   1.706
 1309SOL     OW 4061   3.068   1.870   0.354
 1309SOL    HW1 4062   3.080   1.807   0.425
 1309SOL    HW2 4063   3.077   1.818   0.274
 1310SOL     OW 4064   2.210   3.530   0.082
 1310SOL    HW1 4065   2.261   3.596   0.129
 1310SOL    HW2 4066   2.222   3.552  -0.010
 1311SOL     OW 4067   0.580   0.533   2.459
 1311SOL    HW1 4068   0.504   0.539   2.401
 1311SOL    HW2 4069   0.550   0.482   2.534
 1312SOL     OW 4070   2.386   0.508   3.132
 1312SOL    HW1 4071   2.367   0.531   3.223
 1312SOL    HW2 4072   2.456   0.443   3.137
 1313SOL     OW 4073   3.190   2.660   1.384
 1313SOL    HW1 4074   3.283   2.663   1.406
 1313SOL    HW2 4075   3.186   2.685   1.292
 1314SOL     OW 4076   3.295   2.614   2.753
 1314SOL    HW1 4077   3.332   2.698   2.726
 1314SOL    HW2 4078   3.353   2.585   2.824
 1315SOL     OW 4079   1.190   2.147   1.600
 1315SOL    HW1 4080   1.242   2.216   1.558
 1315SOL    HW2 4081   1.212   2.155   1.693
 1316SOL     OW 4082   0.543   3.083   1.103
 1316SOL    HW1 4083   0.462   3.052   1.064
 1316SOL    HW2 4084   0.518   3.162   1.151
 1317SOL     OW 4085   3.413   1.451   2.049
 1317SOL    HW1 4086   3.384   1.542   2.052
 1317SOL    HW2 4087   3.338   1.403   2.013
 1318SOL     OW 4088   0.999   1.797   1.225
 1318SOL    HW1 4089   1.087   1.811   1.190
 1318SOL    HW2 4090   0.977   1.878   1.270
 1319SOL     OW 4091   3.423   2.514   0.386
 1319SOL    HW1 4092   3.453   2.571   0.315
 1319SOL    HW2 4093   3.347   2.560   0.423
 1320SOL     OW 4094   3.179   1.590   2.024
 1320SOL    HW1 4095   3.133   1.650   2.082
 1320SOL    HW2 4096   3.135   1.506   2.036
 1321SOL     OW 4097   1.184   0.708   3.719
 1321SOL    HW1 4098   1.204   0.714   3.812
 1321SOL    HW2 4099   1.192   0.615   3.698
 1322SOL     OW 4100   2.450   3.571   3.232
 1322SOL    HW1 4101   2.542   3.588   3.212
 1322SOL    HW2 4102   2.433   3.618   3.313
 1323SOL     OW 4103   1.691   2.830   0.014
 1323SOL    HW1 4104   1.741   2.902  -0.024
 1323SOL    HW2 4105   1.604   2.866   0.029
 1324SOL     OW 4106   3.706   0.763   1.991
 1324SOL    HW1 4107   3.612   0.774   1.975
 1324SOL    HW2 4108   3.713   0.763   2.087
 1325SOL     OW 4109   1.533   0.510   1.126
 1325SOL    HW1 4110   1.494   0.506   1.213
 1325SOL    HW2 4111   1.531   0.420   1.095
 1326SOL     OW 4112   1.073   1.202   1.628
 1326SOL    HW1 4113   1.115   1.204   1.714
 1326SOL    HW2 4114   0.981   1.182   1.647
 1327SOL     OW 4115   3.934   1.093   1.032
 1327SOL    HW1 4116   3.878   1.053   0.966
 1327SOL    HW2 4117   3.922   1.039   1.110
 1328SOL     OW 4118   1.152   0.404   0.896
 1328SOL    HW1 4119   1.080   0.403   0.959
 1328SOL    HW2 4120   1.115   0.366   0.817
 1329SOL     OW 4121   2.213   0.246   3.315
 1329SOL    HW1 4122   2.184   0.300   3.389
 1329SOL    HW2 4123   2.300   0.280   3.293
 1330SOL     OW 4124   3.778   0.421   3.159
 1330SOL    HW1 4125   3.753   0.470   3.082
 1330SOL    HW2 4126   3.784   0.330   3.129
 1331SOL     OW 4127   1.253   1.532   1.124
 1331SOL    HW1 4128   1.240   1.592   1.051
 1331SOL    HW2 4129   1.174   1.542   1.178
 1332SOL     OW 4130   3.045   2.686   0.991
 1332SOL    HW1 4131   3.119   2.635   1.025
 1332SOL    HW2 4132   3.051   2.676   0.896
 1333SOL     OW 4133   3.198   3.348   1.240
 1333SOL    HW1 4134   3.231   3.258   1.249
 1333SOL    HW2 4135   3.161   3.368   1.326
 1334SOL     OW 4136   0.774   0.356   2.536
 1334SOL    HW1 4137   0.710   0.418   2.501
 1334SOL    HW2 4138   0.723   0.294   2.588
 1335SOL     OW 4139   2.541   3.473   0.197
 1335SOL    HW1 4140   2.485   3.516   0.261
 1335SOL    HW2 4141   2.533   3.380   0.218
 1336SOL     OW 4142   1.505   3.463   2.136
 1336SOL    HW1 4143   1.520   3.551   2.171
 1336SOL    HW2 4144   1.529   3.404   2.207
 1337SOL     OW 4145   3.835   0.890   1.226
 1337SOL    HW1 4146   3.752   0.844   1.214
 1337SOL    HW2 4147   3.882   0.838   1.291
 1338SOL     OW 4148   0.417   1.087  -0.003
 1338SOL    HW1 4149   0.478   1.159   0.014
 1338SOL    HW2 4150   0.381   1.065   0.083
 1339SOL     OW 4151   2.916   0.150   3.756
 1339SOL    HW1 4152   2.966   0.078   3.796
 1339SOL    HW2 4153   2.826   0.134   3.784
 1340SOL     OW 4154   2.931   3.038   2.082
 1340SOL    HW1 4155   2.863   3.100   2.056
 1340SOL    HW2 4156   2.987   3.030   2.004
 1341SOL     OW 4157  -0.008   0.438   0.718
 1341SOL    HW1 4158  -0.028   0.451   0.625
 1341SOL    HW2 4159   0.037   0.353   0.720
 1342SOL     OW 4160   3.938   3.280   2.198
 1342SOL    HW1 4161   3.885   3.229   2.136
 1342SOL    HW2 4162   3.878   3.301   2.269
 1343SOL     OW 4163   2.332   2.246   1.860
 1343SOL    HW1 4164   2.310   2.173   1.802
 1343SOL    HW2 4165   2.299   2.220   1.945
 1344SOL     OW 4166   3.695   2.728   2.739
 1344SOL    HW1 4167   3.689   2.796   2.672
 1344SOL    HW2 4168   3.788   2.708   2.745
 1345SOL     OW 4169   0.784   0.792   0.223
 1345SOL    HW1 4170   0.785   0.841   0.305
 1345SOL    HW2 4171   0.843   0.718   0.238
 1346SOL     OW 4172   1.016   2.741   2.911
 1346SOL    HW1 4173   1.003   2.809   2.844
 1346SOL    HW2 4174   0.930   2.730   2.951
 1347SOL     OW 4175   3.139   0.654   2.192
 1347SOL    HW1 4176   3.187   0.736   2.204
 1347SOL    HW2 4177   3.175   0.618   2.110
 1348SOL     OW 4178   3.679   1.016   3.245
 1348SOL    HW1 4179   3.692   1.109   3.227
 1348SOL    HW2 4180   3.757   0.974   3.209
 1349SOL     OW 4181   2.062   0.535   1.293
 1349SOL    HW1 4182   2.006   0.511   1.220
 1349SOL    HW2 4183   2.107   0.454   1.316
 1350SOL     OW 4184   3.660   1.734   1.440
 1350SOL    HW1 4185   3.689   1.780   1.361
 1350SOL    HW2 4186   3.731   1.749   1.503
 1351SOL     OW 4187   0.289   1.321   1.819
 1351SOL    HW1 4188   0.254   1.377   1.750
 1351SOL    HW2 4189   0.249   1.235   1.803
 1352SOL     OW 4190   3.617   3.400   3.818
 1352SOL    HW1 4191   3.561   3.434   3.888
 1352SOL    HW2 4192   3.621   3.306   3.834
 1353SOL     OW 4193   3.374   1.451   0.429
 1353SOL    HW1 4194   3.331   1.496   0.356
 1353SOL    HW2 4195   3.384   1.361   0.399
 1354SOL     OW 4196   3.228   1.290   2.991
 1354SOL    HW1 4197   3.299   1.260   2.935
 1354SOL    HW2 4198   3.225   1.385   2.978
 1355SOL     OW 4199   0.851   0.040   1.745
 1355SOL    HW1 4200   0.821   0.064   1.833
 1355SOL    HW2 4201   0.822   0.112   1.689
 1356SOL     OW 4202   3.346   2.880   2.793
 1356SOL    HW1 4203   3.341   2.959   2.847
 1356SOL    HW2 4204   3.288   2.898   2.719
 1357SOL     OW 4205   2.786   3.907   1.827
 1357SOL    HW1 4206   2.849   3.858   1.774
 1357SOL    HW2 4207   2.767   3.850   1.901
 1358SOL     OW 4208   3.304   3.915   2.112
 1358SOL    HW1 4209   3.284   4.008   2.106
 1358SOL    HW2 4210   3.259   3.886   2.192
 1359SOL     OW 4211   1.484   0.053   2.698
 1359SOL    HW1 4212   1.407   0.109   2.704
 1359SOL    HW2 4213   1.551   0.109   2.659
 1360SOL     OW 4214   3.366   3.318   1.678
 1360SOL    HW1 4215   3.407   3.360   1.602
 1360SOL    HW2 4216   3.393   3.227   1.672
 1361SOL     OW 4217   1.959   3.921   3.647
 1361SOL    HW1 4218   1.868   3.906   3.621
 1361SOL    HW2 4219   2.007   3.922   3.564
 1362SOL     OW 4220   1.164   3.925   0.888
 1362SOL    HW1 4221   1.226   3.996   0.870
 1362SOL    HW2 4222   1.216   3.860   0.935
 1363SOL     OW 4223   3.370   0.089   3.863
 1363SOL    HW1 4224   3.449   0.078   3.916
 1363SOL    HW2 4225   3.300   0.105   3.927
 1364SOL     OW 4226   1.618   2.604   0.206
 1364SOL    HW1 4227   1.551   2.601   0.137
 1364SOL    HW2 4228   1.647   2.695   0.208
 1365SOL     OW 4229   2.438   3.338  -0.025
 1365SOL    HW1 4230   2.353   3.327   0.018
 1365SOL    HW2 4231   2.480   3.409   0.024
 1366SOL     OW 4232   0.226   2.884   0.688
 1366SOL    HW1 4233   0.133   2.901   0.677
 1366SOL    HW2 4234   0.237   2.794   0.658
 1367SOL     OW 4235   3.899  -0.004   1.151
 1367SOL    HW1 4236   3.841   0.049   1.207
 1367SOL    HW2 4237   3.930   0.058   1.085
 1368SOL     OW 4238   1.433   3.245   0.883
 1368SOL    HW1 4239   1.341   3.231   0.905
 1368SOL    HW2 4240   1.480   3.180   0.936
 1369SOL     OW 4241   1.495   2.289   3.420
 1369SOL    HW1 4242   1.495   2.244   3.505
 1369SOL    HW2 4243   1.404   2.284   3.391
 1370SOL     OW 4244   1.766   3.170   2.263
 1370SOL    HW1 4245   1.761   3.164   2.168
 1370SOL    HW2 4246   1.791   3.081   2.291
 1371SOL     OW 4247   1.452   2.729   1.277
 1371SOL    HW1 4248   1.386   2.790   1.242
 1371SOL    HW2 4249   1.402   2.670   1.334
 1372SOL     OW 4250   3.478   0.579   3.329
 1372SOL    HW1 4251   3.509   0.488   3.323
 1372SOL    HW2 4252   3.556   0.629   3.354
 1373SOL     OW 4253   1.915   0.976   0.809
 1373SOL    HW1 4254   1.893   0.968   0.902
 1373SOL    HW2 4255   2.009   0.957   0.805
 1374SOL     OW 4256   0.689   1.581   3.741
 1374SOL    HW1 4257   0.703   1.496   3.783
 1374SOL    HW2 4258   0.771   1.628   3.756
 1375SOL     OW 4259   2.678   2.642   0.633
 1375SOL    HW1 4260   2.598   2.692   0.613
 1375SOL    HW2 4261   2.649   2.551   0.634
 1376SOL     OW 4262   3.856   1.753   2.473
 1376SOL    HW1 4263   3.839   1.675   2.526
 1376SOL    HW2 4264   3.861   1.824   2.537
 1377SOL     OW 4265   2.838   0.370   1.915
 1377SOL    HW1 4266   2.756   0.399   1.955
 1377SOL    HW2 4267   2.860   0.289   1.961
 1378SOL     OW 4268   2.863   2.416   0.841
 1378SOL    HW1 4269   2.948   2.439   0.880
 1378SOL    HW2 4270   2.886   2.360   0.766
 1379SOL     OW 4271   1.826   1.586   1.119
 1379SOL    HW1 4272   1.743   1.629   1.141
 1379SOL    HW2 4273   1.802   1.495   1.104
 1380SOL     OW 4274   0.273   3.050   1.695
 1380SOL    HW1 4275   0.310   3.060   1.608
 1380SOL    HW2 4276   0.218   2.972   1.689
 1381SOL     OW 4277   2.961   3.427   0.009
 1381SOL    HW1 4278   2.889   3.412   0.071
 1381SOL    HW2 4279   3.001   3.342  -0.003
 1382SOL     OW 4280   1.433   0.840   3.415
 1382SOL    HW1 4281   1.511   0.812   3.462
 1382SOL    HW2 4282   1.368   0.858   3.484
 1383SOL     OW 4283   3.027   3.291   3.038
 1383SOL    HW1 4284   2.999   3.309   2.948
 1383SOL    HW2 4285   3.022   3.196   3.046
 1384SOL     OW 4286   1.963   0.919   3.706
 1384SOL    HW1 4287   1.931   1.008   3.716
 1384SOL    HW2 4288   2.017   0.903   3.783
 1385SOL     OW 4289   3.544   0.381   2.540
 1385SOL    HW1 4290   3.510   0.463   2.502
 1385SOL    HW2 4291   3.590   0.409   2.619
 1386SOL     OW 4292   3.204   2.610   0.506
 1386SOL    HW1 4293   3.163   2.531   0.543
 1386SOL    HW2 4294   3.235   2.658   0.583
 1387SOL     OW 4295   0.302   0.764   3.700
 1387SOL    HW1 4296   0.391   0.796   3.685
 1387SOL    HW2 4297   0.303   0.673   3.671
 1388SOL     OW 4298   2.667   2.537   0.981
 1388SOL    HW1 4299   2.739   2.487   0.944
 1388SOL    HW2 4300   2.709   2.605   1.034
 1389SOL     OW 4301   1.366   2.430   3.026
 1389SOL    HW1 4302   1.401   2.401   2.941
 1389SOL    HW2 4303   1.273   2.443   3.010
 1390SOL     OW 4304   0.670   2.865   2.197
 1390SOL    HW1 4305   0.705   2.888   2.111
 1390SOL    HW2 4306   0.711   2.781   2.217
 1391SOL     OW 4307   3.508   1.201   0.825
 1391SOL    HW1 4308   3.466   1.190   0.910
 1391SOL    HW2 4309   3.484   1.290   0.798
 1392SOL     OW 4310   3.848   0.546   1.304
 1392SOL    HW1 4311   3.888   0.604   1.369
 1392SOL    HW2 4312   3.915   0.482   1.283
 1393SOL     OW 4313   1.730   3.046   1.590
 1393SOL    HW1 4314   1.690   2.973   1.637
 1393SOL    HW2 4315   1.695   3.039   1.501
 1394SOL     OW 4316   3.334   1.841   0.781
 1394SOL    HW1 4317   3.410   1.831   0.723
 1394SOL    HW2 4318   3.353   1.783   0.855
 1395SOL     OW 4319   3.064   1.721   1.247
 1395SOL    HW1 4320   3.009   1.653   1.208
 1395SOL    HW2 4321   3.070   1.696   1.340
 1396SOL     OW 4322   3.765   1.747   0.653
 1396SOL    HW1 4323   3.782   1.653   0.652
 1396SOL    HW2 4324   3.770   1.771   0.746
 1397SOL     OW 4325   2.268   3.843   1.591
 1397SOL    HW1 4326   2.300   3.933   1.579
 1397SOL    HW2 4327   2.346   3.793   1.615
 1398SOL     OW 4328   2.791   3.715   3.418
 1398SOL    HW1 4329   2.873   3.742   3.459
 1398SOL    HW2 4330   2.788   3.620   3.433
 1399SOL     OW 4331   0.932   3.131   2.993
 1399SOL    HW1 4332   0.890   3.092   2.916
 1399SOL    HW2 4333   0.859   3.167   3.044
 1400SOL     OW 4334   3.553   1.751   3.756
 1400SOL    HW1 4335   3.590   1.663   3.769
 1400SOL    HW2 4336   3.607   1.808   3.811
 1401SOL     OW 4337   3.430   1.864   1.525
 1401SOL    HW1 4338   3.435   1.880   1.619
 1401SOL    HW2 4339   3.513   1.821   1.503
 1402SOL     OW 4340   3.476   1.813   3.483
 1402SOL    HW1 4341   3.415   1.886   3.485
 1402SOL    HW2 4342   3.486   1.787   3.575
 1403SOL     OW 4343   1.485   2.989   1.076
 1403SOL    HW1 4344   1.494   2.908   1.027
 1403SOL    HW2 4345   1.553   2.985   1.143
 1404SOL     OW 4346   2.680   2.909   0.780
 1404SOL    HW1 4347   2.768   2.911   0.742
 1404SOL    HW2 4348   2.626   2.865   0.714
 1405SOL     OW 4349   1.030   1.226   1.368
 1405SOL    HW1 4350   0.958   1.288   1.356
 1405SOL    HW2 4351   1.055   1.236   1.460
 1406SOL     OW 4352   2.379   0.518   3.451
 1406SOL    HW1 4353   2.311   0.503   3.517
 1406SOL    HW2 4354   2.382   0.613   3.440
 1407SOL     OW 4355   2.455   2.784   1.298
 1407SOL    HW1 4356   2.526   2.844   1.321
 1407SOL    HW2 4357   2.449   2.789   1.202
 1408SOL     OW 4358   3.593   3.071   2.308
 1408SOL    HW1 4359   3.503   3.101   2.306
 1408SOL    HW2 4360   3.639   3.127   2.245
 1409SOL     OW 4361   1.183   2.712   3.471
 1409SOL    HW1 4362   1.219   2.729   3.384
 1409SOL    HW2 4363   1.108   2.772   3.478
 1410SOL     OW 4364   3.851   3.245   0.769
 1410SOL    HW1 4365   3.838   3.153   0.792
 1410SOL    HW2 4366   3.764   3.275   0.742
 1411SOL     OW 4367   3.205   1.547   3.140
 1411SOL    HW1 4368   3.280   1.551   3.198
 1411SOL    HW2 4369   3.149   1.479   3.176
 1412SOL     OW 4370   2.734   1.910   3.323
 1412SOL    HW1 4371   2.739   1.973   3.394
 1412SOL    HW2 4372   2.679   1.839   3.356
 1413SOL     OW 4373   3.382   3.419   2.213
 1413SOL    HW1 4374   3.361   3.422   2.120
 1413SOL    HW2 4375   3.361   3.507   2.246
 1414SOL     OW 4376   2.180   1.406   1.175
 1414SOL    HW1 4377   2.120   1.445   1.239
 1414SOL    HW2 4378   2.190   1.316   1.204
 1415SOL     OW 4379   3.315   3.366   0.671
 1415SOL    HW1 4380   3.251   3.429   0.704
 1415SOL    HW2 4381   3.359   3.412   0.599
 1416SOL     OW 4382   2.484   0.086   1.143
 1416SOL    HW1 4383   2.567   0.134   1.145
 1416SOL    HW2 4384   2.499   0.009   1.198
 1417SOL     OW 4385   2.375   3.720   0.597
 1417SOL    HW1 4386   2.416   3.731   0.683
 1417SOL    HW2 4387   2.381   3.806   0.556
 1418SOL     OW 4388   1.219   2.891   1.237
 1418SOL    HW1 4389   1.197   2.821   1.298
 1418SOL    HW2 4390   1.211   2.972   1.288
 1419SOL     OW 4391   0.477   2.475   2.507
 1419SOL    HW1 4392   0.560   2.520   2.526
 1419SOL    HW2 4393   0.436   2.462   2.593
 1420SOL     OW 4394   2.668   0.216   0.723
 1420SOL    HW1 4395   2.746   0.163   0.704
 1420SOL    HW2 4396   2.699   0.306   0.716
 1421SOL     OW 4397   0.264   0.739   1.564
 1421SOL    HW1 4398   0.213   0.692   1.630
 1421SOL    HW2 4399   0.332   0.676   1.537
 1422SOL     OW 4400   2.829   1.106   3.420
 1422SOL    HW1 4401   2.895   1.040   3.443
 1422SOL    HW2 4402   2.794   1.077   3.336
 1423SOL     OW 4403   0.578   1.063   0.806
 1423SOL    HW1 4404   0.511   1.021   0.860
 1423SOL    HW2 4405   0.617   1.129   0.863
 1424SOL     OW 4406   3.461   3.522   0.068
 1424SOL    HW1 4407   3.511   3.470   0.130
 1424SOL    HW2 4408   3.370   3.500   0.086
 1425SOL     OW 4409   2.759   3.228   2.236
 1425SOL    HW1 4410   2.841   3.271   2.261
 1425SOL    HW2 4411   2.730   3.182   2.314
 1426SOL     OW 4412   3.907   2.758   0.938
 1426SOL    HW1 4413   4.003   2.762   0.939
 1426SOL    HW2 4414   3.886   2.669   0.968
 1427SOL     OW 4415   0.751   2.115   2.104
 1427SOL    HW1 4416   0.712   2.027   2.106
 1427SOL    HW2 4417   0.840   2.102   2.138
 1428SOL     OW 4418   2.425   2.025   0.769
 1428SOL    HW1 4419   2.418   1.972   0.847
 1428SOL    HW2 4420   2.458   1.965   0.702
 1429SOL     OW 4421   1.478   2.738   0.947
 1429SOL    HW1 4422   1.447   2.648   0.951
 1429SOL    HW2 4423   1.409   2.786   0.902
 1430SOL     OW 4424   3.872   3.742   1.930
 1430SOL    HW1 4425   3.797   3.706   1.884
 1430SOL    HW2 4426   3.914   3.800   1.865
 1431SOL     OW 4427   2.969   2.144   2.870
 1431SOL    HW1 4428   2.967   2.239   2.883
 1431SOL    HW2 4429   2.936   2.131   2.781
 1432SOL     OW 4430   3.509   2.384   2.579
 1432SOL    HW1 4431   3.431   2.329   2.575
 1432SOL    HW2 4432   3.580   2.326   2.550
 1433SOL     OW 4433   0.551   3.441   0.712
 1433SOL    HW1 4434   0.591   3.355   0.724
 1433SOL    HW2 4435   0.614   3.503   0.749
 1434SOL     OW 4436   1.597   0.292   1.987
 1434SOL    HW1 4437   1.688   0.309   2.013
 1434SOL    HW2 4438   1.545   0.343   2.049
 1435SOL     OW 4439   0.871   0.022   2.872
 1435SOL    HW1 4440   0.937   0.091   2.873
 1435SOL    HW2 4441   0.918  -0.055   2.905
 1436SOL     OW 4442   2.053   2.817   1.578
 1436SOL    HW1 4443   2.106   2.818   1.658
 1436SOL    HW2 4444   2.113   2.844   1.509
 1437SOL     OW 4445   2.398   0.698   2.933
 1437SOL    HW1 4446   2.457   0.767   2.965
 1437SOL    HW2 4447   2.389   0.639   3.008
 1438SOL     OW 4448   3.824   0.816   3.863
 1438SOL    HW1 4449   3.748   0.768   3.894
 1438SOL    HW2 4450   3.818   0.812   3.767
 1439SOL     OW 4451   1.025   0.192   1.189
 1439SOL    HW1 4452   1.041   0.263   1.251
 1439SOL    HW2 4453   0.932   0.200   1.167
 1440SOL     OW 4454   3.629  -0.035   3.590
 1440SOL    HW1 4455   3.662   0.035   3.646
 1440SOL    HW2 4456   3.576   0.010   3.524
 1441SOL     OW 4457   0.133   3.778   1.275
 1441SOL    HW1 4458   0.086   3.836   1.215
 1441SOL    HW2 4459   0.131   3.823   1.359
 1442SOL     OW 4460   0.705   1.036   1.912
 1442SOL    HW1 4461   0.751   1.097   1.969
 1442SOL    HW2 4462   0.613   1.062   1.918
 1443SOL     OW 4463   3.434   1.847   2.973
 1443SOL    HW1 4464   3.466   1.901   3.045
 1443SOL    HW2 4465   3.339   1.854   2.978
 1444SOL     OW 4466   2.041   2.539   1.441
 1444SOL    HW1 4467   2.085   2.585   1.512
 1444SOL    HW2 4468   2.020   2.453   1.478
 1445SOL     OW 4469   0.845   1.957   2.504
 1445SOL    HW1 4470   0.905   1.923   2.438
 1445SOL    HW2 4471   0.901   2.000   2.568
 1446SOL     OW 4472   0.986   2.768   3.263
 1446SOL    HW1 4473   0.943   2.821   3.196
 1446SOL    HW2 4474   0.963   2.678   3.241
 1447SOL     OW 4475   1.036   2.606   0.852
 1447SOL    HW1 4476   1.030   2.542   0.923
 1447SOL    HW2 4477   0.978   2.677   0.878
 1448SOL     OW 4478   1.980   3.086   0.970
 1448SOL    HW1 4479   2.025   3.008   0.939
 1448SOL    HW2 4480   2.009   3.156   0.912
 1449SOL     OW 4481   1.016   0.976   0.264
 1449SOL    HW1 4482   1.086   0.937   0.213
 1449SOL    HW2 4483   1.002   0.915   0.336
 1450SOL     OW 4484   1.796   3.750   3.031
 1450SOL    HW1 4485   1.800   3.660   3.063
 1450SOL    HW2 4486   1.703   3.764   3.011
 1451SOL     OW 4487   3.527   3.247   0.784
 1451SOL    HW1 4488   3.456   3.284   0.732
 1451SOL    HW2 4489   3.560   3.321   0.835
 1452SOL     OW 4490   3.736   2.830   3.855
 1452SOL    HW1 4491   3.794   2.768   3.810
 1452SOL    HW2 4492   3.722   2.791   3.942
 1453SOL     OW 4493   0.238   0.194   3.124
 1453SOL    HW1 4494   0.202   0.106   3.112
 1453SOL    HW2 4495   0.164   0.246   3.156
 1454SOL     OW 4496   3.257   3.098   0.757
 1454SOL    HW1 4497   3.297   3.185   0.751
 1454SOL    HW2 4498   3.293   3.061   0.838
 1455SOL     OW 4499   0.125   1.514   0.821
 1455SOL    HW1 4500   0.069   1.446   0.785
 1455SOL    HW2 4501   0.127   1.497   0.915
 1456SOL     OW 4502   0.247   0.036   2.398
 1456SOL    HW1 4503   0.213  -0.054   2.396
 1456SOL    HW2 4504   0.226   0.071   2.311
 1457SOL     OW 4505   3.289   0.398   0.468
 1457SOL    HW1 4506   3.227   0.347   0.520
 1457SOL    HW2 4507   3.259   0.488   0.477
 1458SOL     OW 4508   2.457   2.793   2.386
 1458SOL    HW1 4509   2.391   2.853   2.353
 1458SOL    HW2 4510   2.521   2.786   2.315
 1459SOL     OW 4511   3.360   2.222   1.278
 1459SOL    HW1 4512   3.358   2.250   1.369
 1459SOL    HW2 4513   3.378   2.128   1.283
 1460SOL     OW 4514   2.902   2.241   2.177
 1460SOL    HW1 4515   2.840   2.268   2.108
 1460SOL    HW2 4516   2.983   2.287   2.155
 1461SOL     OW 4517   1.692   1.630   0.353
 1461SOL    HW1 4518   1.629   1.626   0.425
 1461SOL    HW2 4519   1.708   1.538   0.330
 1462SOL     OW 4520   2.688   1.576   0.856
 1462SOL    HW1 4521   2.623   1.515   0.890
 1462SOL    HW2 4522   2.771   1.530   0.865
 1463SOL     OW 4523   1.188   3.878   1.451
 1463SOL    HW1 4524   1.194   3.801   1.508
 1463SOL    HW2 4525   1.165   3.950   1.510
 1464SOL     OW 4526   0.167   1.746   1.537
 1464SOL    HW1 4527   0.139   1.822   1.588
 1464SOL    HW2 4528   0.195   1.782   1.453
 1465SOL     OW 4529   3.583   2.379   3.197
 1465SOL    HW1 4530   3.567   2.350   3.107
 1465SOL    HW2 4531   3.639   2.311   3.235
 1466SOL     OW 4532   2.477   2.506   3.474
 1466SOL    HW1 4533   2.486   2.600   3.492
 1466SOL    HW2 4534   2.388   2.485   3.501
 1467SOL     OW 4535   3.313   0.829   0.242
 1467SOL    HW1 4536   3.384   0.879   0.283
 1467SOL    HW2 4537   3.234   0.879   0.260
 1468SOL     OW 4538   3.436   2.231   2.200
 1468SOL    HW1 4539   3.345   2.256   2.218
 1468SOL    HW2 4540   3.470   2.203   2.285
 1469SOL     OW 4541   1.765   2.408   0.380
 1469SOL    HW1 4542   1.721   2.423   0.297
 1469SOL    HW2 4543   1.790   2.495   0.411
 1470SOL     OW 4544   3.802   3.564   1.681
 1470SOL    HW1 4545   3.882   3.562   1.734
 1470SOL    HW2 4546   3.825   3.615   1.604
 1471SOL     OW 4547   0.676   1.852   1.794
 1471SOL    HW1 4548   0.587   1.818   1.788
 1471SOL    HW2 4549   0.695   1.852   1.888
 1472SOL     OW 4550   1.449   3.439   0.431
 1472SOL    HW1 4551   1.500   3.520   0.429
 1472SOL    HW2 4552   1.421   3.431   0.522
 1473SOL     OW 4553   1.919   3.314   1.583
 1473SOL    HW1 4554   1.971   3.281   1.656
 1473SOL    HW2 4555   1.873   3.237   1.550
 1474SOL     OW 4556   3.239   0.567   2.443
 1474SOL    HW1 4557   3.167   0.569   2.507
 1474SOL    HW2 4558   3.199   0.596   2.361
 1475SOL     OW 4559   2.494   2.753   1.024
 1475SOL    HW1 4560   2.469   2.824   0.964
 1475SOL    HW2 4561   2.528   2.685   0.966
 1476SOL     OW 4562   1.091   2.350   2.956
 1476SOL    HW1 4563   1.008   2.395   2.970
 1476SOL    HW2 4564   1.108   2.360   2.863
 1477SOL     OW 4565   0.897   0.817   1.932
 1477SOL    HW1 4566   0.880   0.724   1.948
 1477SOL    HW2 4567   0.816   0.850   1.894
 1478SOL     OW 4568   2.136   0.821   1.263
 1478SOL    HW1 4569   2.121   0.734   1.300
 1478SOL    HW2 4570   2.057   0.840   1.212
 1479SOL     OW 4571   1.414   2.311   0.465
 1479SOL    HW1 4572   1.329   2.302   0.507
 1479SOL    HW2 4573   1.444   2.398   0.490
 1480SOL     OW 4574   1.349   2.609   3.684
 1480SOL    HW1 4575   1.280   2.657   3.638
 1480SOL    HW2 4576   1.422   2.670   3.688
 1481SOL     OW 4577   2.917   3.210   3.714
 1481SOL    HW1 4578   2.956   3.157   3.784
 1481SOL    HW2 4579   2.986   3.215   3.647
 1482SOL     OW 4580   2.382   2.087   1.164
 1482SOL    HW1 4581   2.412   2.163   1.113
 1482SOL    HW2 4582   2.462   2.046   1.195
 1483SOL     OW 4583   0.887   0.546   3.689
 1483SOL    HW1 4584   0.898   0.605   3.763
 1483SOL    HW2 4585   0.935   0.466   3.715
 1484SOL     OW 4586   1.492   2.590   3.201
 1484SOL    HW1 4587   1.444   2.565   3.280
 1484SOL    HW2 4588   1.456   2.534   3.132
 1485SOL     OW 4589   0.696   1.766   0.792
 1485SOL    HW1 4590   0.777   1.809   0.819
 1485SOL    HW2 4591   0.700   1.764   0.697
 1486SOL     OW 4592   1.655   1.100   3.579
 1486SOL    HW1 4593   1.684   1.009   3.584
 1486SOL    HW2 4594   1.599   1.111   3.656
 1487SOL     OW 4595   3.095   2.759   2.502
 1487SOL    HW1 4596   3.136   2.686   2.456
 1487SOL    HW2 4597   3.024   2.787   2.444
 1488SOL     OW 4598   2.915   1.958   2.168
 1488SOL    HW1 4599   2.911   2.044   2.124
 1488SOL    HW2 4600   2.914   1.979   2.261
 1489SOL     OW 4601   1.146   1.795   1.984
 1489SOL    HW1 4602   1.091   1.776   1.907
 1489SOL    HW2 4603   1.195   1.873   1.960
 1490SOL     OW 4604   1.126   3.366   3.534
 1490SOL    HW1 4605   1.198   3.332   3.588
 1490SOL    HW2 4606   1.047   3.332   3.576
 1491SOL     OW 4607   2.227   2.429   1.653
 1491SOL    HW1 4608   2.284   2.413   1.578
 1491SOL    HW2 4609   2.234   2.349   1.706
 1492SOL     OW 4610   0.929   0.807   1.481
 1492SOL    HW1 4611   0.932   0.840   1.391
 1492SOL    HW2 4612   0.851   0.849   1.518
 1493SOL     OW 4613   2.530   1.200   0.520
 1493SOL    HW1 4614   2.588   1.152   0.578
 1493SOL    HW2 4615   2.584   1.272   0.486
 1494SOL     OW 4616   1.379   1.682   1.804
 1494SOL    HW1 4617   1.357   1.651   1.716
 1494SOL    HW2 4618   1.303   1.659   1.857
 1495SOL     OW 4619   2.251   2.714   0.645
 1495SOL    HW1 4620   2.248   2.742   0.736
 1495SOL    HW2 4621   2.278   2.622   0.649
 1496SOL     OW 4622   0.945   3.127   1.093
 1496SOL    HW1 4623   0.876   3.194   1.094
 1496SOL    HW2 4624   0.911   3.058   1.150
 1497SOL     OW 4625   0.370   1.536   0.215
 1497SOL    HW1 4626   0.455   1.578   0.227
 1497SOL    HW2 4627   0.312   1.607   0.187
 1498SOL     OW 4628   0.406   3.417   2.415
 1498SOL    HW1 4629   0.431   3.359   2.487
 1498SOL    HW2 4630   0.402   3.360   2.339
 1499SOL     OW 4631   3.699   1.980   2.127
 1499SOL    HW1 4632   3.618   1.975   2.078
 1499SOL    HW2 4633   3.674   2.017   2.212
 1500SOL     OW 4634   1.412   1.326   0.047
 1500SOL    HW1 4635   1.451   1.359   0.128
 1500SOL    HW2 4636   1.418   1.400  -0.014
 1501SOL     OW 4637   2.936   2.766   3.492
 1501SOL    HW1 4638   2.942   2.840   3.552
 1501SOL    HW2 4639   3.027   2.747   3.468
 1502SOL     OW 4640   1.205   1.807   0.243
 1502SOL    HW1 4641   1.183   1.733   0.300
 1502SOL    HW2 4642   1.236   1.875   0.303
 1503SOL     OW 4643   1.197   0.688   1.256
 1503SOL    HW1 4644   1.273   0.633   1.273
 1503SOL    HW2 4645   1.209   0.764   1.313
 1504SOL     OW 4646   0.660   1.214   0.014
 1504SOL    HW1 4647   0.710   1.132   0.003
 1504SOL    HW2 4648   0.681   1.243   0.102
 1505SOL     OW 4649   1.694   3.175   3.388
 1505SOL    HW1 4650   1.649   3.243   3.439
 1505SOL    HW2 4651   1.627   3.108   3.375
 1506SOL     OW 4652   0.331   3.657   0.860
 1506SOL    HW1 4653   0.375   3.740   0.877
 1506SOL    HW2 4654   0.361   3.631   0.773
 1507SOL     OW 4655   0.612   2.046   0.788
 1507SOL    HW1 4656   0.706   2.064   0.793
 1507SOL    HW2 4657   0.601   1.959   0.826
 1508SOL     OW 4658   3.878   3.451   3.926
 1508SOL    HW1 4659   3.886   3.365   3.967
 1508SOL    HW2 4660   3.797   3.447   3.876
 1509SOL     OW 4661   1.549   1.998   3.928
 1509SOL    HW1 4662   1.498   2.029   4.003
 1509SOL    HW2 4663   1.607   2.072   3.907
 1510SOL     OW 4664   0.989   3.095   1.804
 1510SOL    HW1 4665   1.071   3.098   1.854
 1510SOL    HW2 4666   1.016   3.114   1.714
 1511SOL     OW 4667   1.710   2.788   3.230
 1511SOL    HW1 4668   1.778   2.721   3.219
 1511SOL    HW2 4669   1.628   2.742   3.215
 1512SOL     OW 4670   0.821   1.464   1.475
 1512SOL    HW1 4671   0.830   1.442   1.567
 1512SOL    HW2 4672   0.727   1.460   1.458
 1513SOL     OW 4673   2.541   0.646   0.635
 1513SOL    HW1 4674   2.496   0.581   0.582
 1513SOL    HW2 4675   2.516   0.626   0.725
 1514SOL     OW 4676   2.106   2.375   3.590
 1514SOL    HW1 4677   2.138   2.286   3.576
 1514SOL    HW2 4678   2.172   2.416   3.646
 1515SOL     OW 4679   1.252   0.057   3.064
 1515SOL    HW1 4680   1.247   0.106   2.982
 1515SOL    HW2 4681   1.187  -0.013   3.055
 1516SOL     OW 4682   3.075   1.387   1.729
 1516SOL    HW1 4683   3.080   1.476   1.765
 1516SOL    HW2 4684   3.128   1.334   1.788
 1517SOL     OW 4685   3.196   1.849   2.181
 1517SOL    HW1 4686   3.118   1.904   2.175
 1517SOL    HW2 4687   3.179   1.791   2.255
 1518SOL     OW 4688   0.531   1.577   2.106
 1518SOL    HW1 4689   0.551   1.545   2.194
 1518SOL    HW2 4690   0.495   1.501   2.060
 1519SOL     OW 4691   1.883   0.417   2.056
 1519SOL    HW1 4692   1.898   0.411   2.151
 1519SOL    HW2 4693   1.965   0.385   2.017
 1520SOL     OW 4694   3.684   2.388   2.078
 1520SOL    HW1 4695   3.687   2.463   2.018
 1520SOL    HW2 4696   3.590   2.370   2.088
 1521SOL     OW 4697   1.499   1.099   3.312
 1521SOL    HW1 4698   1.478   1.007   3.329
 1521SOL    HW2 4699   1.508   1.138   3.399
 1522SOL     OW 4700   2.089   1.836   0.861
 1522SOL    HW1 4701   2.055   1.857   0.948
 1522SOL    HW2 4702   2.042   1.757   0.835
 1523SOL     OW 4703   1.275   2.703   2.952
 1523SOL    HW1 4704   1.181   2.721   2.948
 1523SOL    HW2 4705   1.301   2.733   3.039
 1524SOL     OW 4706   2.750   2.583   1.656
 1524SOL    HW1 4707   2.678   2.522   1.638
 1524SOL    HW2 4708   2.828   2.537   1.626
 1525SOL     OW 4709   1.589   3.527   1.851
 1525SOL    HW1 4710   1.646   3.450   1.843
 1525SOL    HW2 4711   1.562   3.528   1.943
 1526SOL     OW 4712   2.598   0.447   2.029
 1526SOL    HW1 4713   2.507   0.477   2.030
 1526SOL    HW2 4714   2.612   0.410   2.116
 1527SOL     OW 4715   1.482   2.608   2.506
 1527SOL    HW1 4716   1.504   2.519   2.534
 1527SOL    HW2 4717   1.442   2.648   2.583
 1528SOL     OW 4718   0.969   0.368   1.527
 1528SOL    HW1 4719   1.031   0.295   1.535
 1528SOL    HW2 4720   0.993   0.411   1.444
 1529SOL     OW 4721   3.855   2.112   1.680
 1529SOL    HW1 4722   3.915   2.187   1.688
 1529SOL    HW2 4723   3.774   2.150   1.647
 1530SOL     OW 4724   1.397   1.666   3.258
 1530SOL    HW1 4725   1.434   1.594   3.310
 1530SOL    HW2 4726   1.395   1.633   3.168
 1531SOL     OW 4727   3.374   1.630   0.932
 1531SOL    HW1 4728   3.282   1.607   0.945
 1531SOL    HW2 4729   3.412   1.626   1.020
 1532SOL     OW 4730   1.940   0.281   2.773
 1532SOL    HW1 4731   1.889   0.361   2.777
 1532SOL    HW2 4732   1.879   0.212   2.799
 1533SOL     OW 4733   1.028   1.397   3.765
 1533SOL    HW1 4734   1.023   1.436   3.852
 1533SOL    HW2 4735   0.975   1.318   3.772
 1534SOL     OW 4736   2.786   3.453   3.536
 1534SOL    HW1 4737   2.826   3.471   3.622
 1534SOL    HW2 4738   2.697   3.426   3.557
 1535SOL     OW 4739   0.287   0.221   0.205
 1535SOL    HW1 4740   0.322   0.277   0.275
 1535SOL    HW2 4741   0.232   0.279   0.153
 1536SOL     OW 4742   2.457   1.942   1.595
 1536SOL    HW1 4743   2.505   1.860   1.606
 1536SOL    HW2 4744   2.511   2.007   1.641
 1537SOL     OW 4745   2.603   0.842   1.106
 1537SOL    HW1 4746   2.620   0.929   1.142
 1537SOL    HW2 4747   2.575   0.790   1.181
 1538SOL     OW 4748   0.156   0.863   2.342
 1538SOL    HW1 4749   0.225   0.928   2.355
 1538SOL    HW2 4750   0.097   0.876   2.416
 1539SOL     OW 4751   0.858   0.545   0.162
 1539SOL    HW1 4752   0.805   0.493   0.102
 1539SOL    HW2 4753   0.947   0.513   0.149
 1540SOL     OW 4754   1.664   2.575   1.642
 1540SOL    HW1 4755   1.695   2.666   1.648
 1540SOL    HW2 4756   1.706   2.541   1.563
 1541SOL     OW 4757   1.174   3.171   0.952
 1541SOL    HW1 4758   1.098   3.172   1.009
 1541SOL    HW2 4759   1.189   3.078   0.933
 1542SOL     OW 4760   2.301   0.117   3.920
 1542SOL    HW1 4761   2.284   0.162   3.837
 1542SOL    HW2 4762   2.254   0.034   3.912
 1543SOL     OW 4763   0.097   2.439   3.819
 1543SOL    HW1 4764   0.014   2.424   3.865
 1543SOL    HW2 4765   0.100   2.370   3.753
 1544SOL     OW 4766   2.619   3.145   3.900
 1544SOL    HW1 4767   2.576   3.231   3.893
 1544SOL    HW2 4768   2.560   3.085   3.854
 1545SOL     OW 4769   1.739   2.152   2.905
 1545SOL    HW1 4770   1.661   2.191   2.944
 1545SOL    HW2 4771   1.706   2.109   2.826
 1546SOL     OW 4772   3.174   1.603   0.580
 1546SOL    HW1 4773   3.206   1.629   0.666
 1546SOL    HW2 4774   3.253   1.577   0.532
 1547SOL     OW 4775   1.686   2.323   2.280
 1547SOL    HW1 4776   1.774   2.355   2.299
 1547SOL    HW2 4777   1.695   2.272   2.200
 1548SOL     OW 4778   2.662   1.077   1.229
 1548SOL    HW1 4779   2.681   1.171   1.224
 1548SOL    HW2 4780   2.585   1.071   1.286
 1549SOL     OW 4781   0.163   2.340   3.086
 1549SOL    HW1 4782   0.198   2.398   3.154
 1549SOL    HW2 4783   0.085   2.384   3.054
 1550SOL     OW 4784   2.289   2.338   1.393
 1550SOL    HW1 4785   2.278   2.415   1.337
 1550SOL    HW2 4786   2.383   2.318   1.388
 1551SOL     OW 4787   1.036   1.537   1.326
 1551SOL    HW1 4788   0.970   1.499   1.385
 1551SOL    HW2 4789   1.009   1.628   1.315
 1552SOL     OW 4790   2.242   3.840   2.382
 1552SOL    HW1 4791   2.250   3.925   2.339
 1552SOL    HW2 4792   2.194   3.786   2.321
 1553SOL     OW 4793   2.991   0.675   2.535
 1553SOL    HW1 4794   3.021   0.763   2.516
 1553SOL    HW2 4795   2.897   0.685   2.552
 1554SOL     OW 4796   3.201   0.019   2.676
 1554SOL    HW1 4797   3.208   0.109   2.644
 1554SOL    HW2 4798   3.279   0.007   2.731
 1555SOL     OW 4799   2.756   2.595   3.750
 1555SOL    HW1 4800   2.662   2.576   3.756
 1555SOL    HW2 4801   2.780   2.569   3.661
 1556SOL     OW 4802   0.153   3.631   2.483
 1556SOL    HW1 4803   0.236   3.602   2.446
 1556SOL    HW2 4804   0.177   3.699   2.546
 1557SOL     OW 4805   0.242   2.649   3.728
 1557SOL    HW1 4806   0.200   2.571   3.767
 1557SOL    HW2 4807   0.327   2.618   3.698
 1558SOL     OW 4808   2.806   0.986   3.869
 1558SOL    HW1 4809   2.740   0.920   3.846
 1558SOL    HW2 4810   2.783   1.011   3.959
 1559SOL     OW 4811   1.195   3.150   3.018
 1559SOL    HW1 4812   1.215   3.192   3.102
 1559SOL    HW2 4813   1.100   3.140   3.018
 1560SOL     OW 4814   0.415   1.425   3.677
 1560SOL    HW1 4815   0.446   1.335   3.685
 1560SOL    HW2 4816   0.445   1.467   3.758
 1561SOL     OW 4817   0.922   1.086   3.123
 1561SOL    HW1 4818   0.967   1.091   3.038
 1561SOL    HW2 4819   0.985   1.044   3.181
 1562SOL     OW 4820   1.095   2.309   1.954
 1562SOL    HW1 4821   1.112   2.386   2.009
 1562SOL    HW2 4822   1.182   2.272   1.939
 1563SOL     OW 4823   2.535   3.368   0.637
 1563SOL    HW1 4824   2.561   3.460   0.643
 1563SOL    HW2 4825   2.455   3.362   0.689
 1564SOL     OW 4826   1.714   0.836   2.799
 1564SOL    HW1 4827   1.632   0.884   2.801
 1564SOL    HW2 4828   1.782   0.904   2.806
 1565SOL     OW 4829   1.176   2.880   0.966
 1565SOL    HW1 4830   1.212   2.871   1.054
 1565SOL    HW2 4831   1.110   2.811   0.960
 1566SOL     OW 4832   2.956   2.944   0.970
 1566SOL    HW1 4833   2.989   2.917   0.884
 1566SOL    HW2 4834   2.951   2.863   1.020
 1567SOL     OW 4835   3.404   3.957   3.005
 1567SOL    HW1 4836   3.422   4.002   2.923
 1567SOL    HW2 4837   3.403   3.864   2.982
 1568SOL     OW 4838   2.717   3.873   0.325
 1568SOL    HW1 4839   2.654   3.917   0.381
 1568SOL    HW2 4840   2.719   3.925   0.245
 1569SOL     OW 4841   0.727   3.058   3.762
 1569SOL    HW1 4842   0.719   3.085   3.854
 1569SOL    HW2 4843   0.726   2.962   3.765
 1570SOL     OW 4844   2.733   0.989   0.592
 1570SOL    HW1 4845   2.824   0.967   0.570
 1570SOL    HW2 4846   2.741   1.041   0.672
 1571SOL     OW 4847   3.404   2.223   1.827
 1571SOL    HW1 4848   3.426   2.130   1.823
 1571SOL    HW2 4849   3.424   2.248   1.918
 1572SOL     OW 4850   3.376   3.048   0.988
 1572SOL    HW1 4851   3.424   2.965   0.992
 1572SOL    HW2 4852   3.430   3.109   1.038
 1573SOL     OW 4853   0.338   1.089   1.068
 1573SOL    HW1 4854   0.273   1.058   1.130
 1573SOL    HW2 4855   0.289   1.108   0.988
 1574SOL     OW 4856   3.140   2.466   2.577
 1574SOL    HW1 4857   3.143   2.398   2.644
 1574SOL    HW2 4858   3.187   2.540   2.616
 1575SOL     OW 4859   1.362   1.601   2.442
 1575SOL    HW1 4860   1.446   1.613   2.397
 1575SOL    HW2 4861   1.352   1.680   2.495
 1576SOL     OW 4862   2.506   2.086   2.091
 1576SOL    HW1 4863   2.410   2.087   2.089
 1576SOL    HW2 4864   2.528   2.047   2.176
 1577SOL     OW 4865   3.087   1.297   0.297
 1577SOL    HW1 4866   3.105   1.235   0.227
 1577SOL    HW2 4867   3.028   1.361   0.258
 1578SOL     OW 4868   0.274   1.077   0.231
 1578SOL    HW1 4869   0.328   1.153   0.251
 1578SOL    HW2 4870   0.282   1.021   0.308
 1579SOL     OW 4871   1.207   0.931   3.566
 1579SOL    HW1 4872   1.197   0.857   3.627
 1579SOL    HW2 4873   1.173   1.006   3.614
 1580SOL     OW 4874   0.396   3.086   1.435
 1580SOL    HW1 4875   0.440   3.132   1.364
 1580SOL    HW2 4876   0.453   3.011   1.454
 1581SOL     OW 4877   0.492   2.194   1.215
 1581SOL    HW1 4878   0.434   2.269   1.227
 1581SOL    HW2 4879   0.545   2.217   1.139
 1582SOL     OW 4880   2.944   1.012   1.126
 1582SOL    HW1 4881   2.851   1.022   1.143
 1582SOL    HW2 4882   2.955   1.041   1.035
 1583SOL     OW 4883   2.474   2.756   3.555
 1583SOL    HW1 4884   2.416   2.776   3.628
 1583SOL    HW2 4885   2.494   2.841   3.516
 1584SOL     OW 4886   3.412   1.202   1.799
 1584SOL    HW1 4887   3.469   1.208   1.875
 1584SOL    HW2 4888   3.324   1.193   1.835
 1585SOL     OW 4889   0.399   3.618   2.172
 1585SOL    HW1 4890   0.328   3.557   2.194
 1585SOL    HW2 4891   0.434   3.645   2.257
 1586SOL     OW 4892   2.541   1.782   0.739
 1586SOL    HW1 4893   2.596   1.715   0.780
 1586SOL    HW2 4894   2.462   1.784   0.793
 1587SOL     OW 4895   0.884   2.179   1.839
 1587SOL    HW1 4896   0.959   2.223   1.879
 1587SOL    HW2 4897   0.854   2.117   1.905
 1588SOL     OW 4898   2.168   0.745   2.554
 1588SOL    HW1 4899   2.142   0.837   2.558
 1588SOL    HW2 4900   2.140   0.709   2.639
 1589SOL     OW 4901   0.144   2.755   1.869
 1589SOL    HW1 4902   0.205   2.746   1.796
 1589SOL    HW2 4903   0.171   2.687   1.931
 1590SOL     OW 4904   3.073   3.022   3.005
 1590SOL    HW1 4905   2.989   2.983   3.031
 1590SOL    HW2 4906   3.120   3.035   3.088
 1591SOL     OW 4907   1.537   1.061   1.911
 1591SOL    HW1 4908   1.622   1.103   1.922
 1591SOL    HW2 4909   1.473   1.127   1.938
 1592SOL     OW 4910   3.780   1.922   3.773
 1592SOL    HW1 4911   3.833   1.998   3.795
 1592SOL    HW2 4912   3.764   1.879   3.857
 1593SOL     OW 4913   2.725   0.397   2.260
 1593SOL    HW1 4914   2.764   0.484   2.247
 1593SOL    HW2 4915   2.768   0.364   2.339
 1594SOL     OW 4916   0.773   0.852   2.549
 1594SOL    HW1 4917   0.812   0.930   2.509
 1594SOL    HW2 4918   0.836   0.781   2.530
 1595SOL     OW 4919   2.684   2.918   1.381
 1595SOL    HW1 4920   2.721   2.874   1.305
 1595SOL    HW2 4921   2.725   3.004   1.382
 1596SOL     OW 4922   0.280   0.107   3.395
 1596SOL    HW1 4923   0.256   0.101   3.303
 1596SOL    HW2 4924   0.257   0.022   3.433
 1597SOL     OW 4925   2.440   3.694   3.476
 1597SOL    HW1 4926   2.484   3.652   3.549
 1597SOL    HW2 4927   2.382   3.758   3.516
 1598SOL     OW 4928   1.918   3.540   0.206
 1598SOL    HW1 4929   1.878   3.539   0.119
 1598SOL    HW2 4930   2.011   3.526   0.189
 1599SOL     OW 4931   3.571   2.065   0.443
 1599SOL    HW1 4932   3.646   2.060   0.501
 1599SOL    HW2 4933   3.557   1.975   0.413
 1600SOL     OW 4934   2.932   2.639   1.926
 1600SOL    HW1 4935   2.907   2.673   2.011
 1600SOL    HW2 4936   2.862   2.667   1.867
 1601SOL     OW 4937   3.329   1.608   3.740
 1601SOL    HW1 4938   3.268   1.657   3.795
 1601SOL    HW2 4939   3.405   1.665   3.733
 1602SOL     OW 4940   0.107   3.266   3.165
 1602SOL    HW1 4941   0.014   3.258   3.185
 1602SOL    HW2 4942   0.142   3.177   3.173
 1603SOL     OW 4943   0.269   1.773   0.098
 1603SOL    HW1 4944   0.329   1.825   0.045
 1603SOL    HW2 4945   0.194   1.758   0.041
 1604SOL     OW 4946   1.138   2.627   1.865
 1604SOL    HW1 4947   1.125   2.715   1.900
 1604SOL    HW2 4948   1.212   2.592   1.914
 1605SOL     OW 4949   1.941   1.917   0.196
 1605SOL    HW1 4950   1.925   2.006   0.228
 1605SOL    HW2 4951   1.973   1.869   0.272
 1606SOL     OW 4952   0.315   3.579   1.629
 1606SOL    HW1 4953   0.227   3.556   1.601
 1606SOL    HW2 4954   0.370   3.506   1.599
 1607SOL     OW 4955   3.883   1.664   1.595
 1607SOL    HW1 4956   3.976   1.667   1.572
 1607SOL    HW2 4957   3.871   1.736   1.656
 1608SOL     OW 4958   1.306   0.944   0.118
 1608SOL    HW1 4959   1.398   0.945   0.091
 1608SOL    HW2 4960   1.298   0.865   0.171
 1609SOL     OW 4961   2.123   0.406   3.521
 1609SOL    HW1 4962   2.104   0.443   3.434
 1609SOL    HW2 4963   2.038   0.408   3.566
 1610SOL     OW 4964   0.917   2.529   3.206
 1610SOL    HW1 4965   0.851   2.513   3.138
 1610SOL    HW2 4966   0.934   2.443   3.244
 1611SOL     OW 4967   3.399   2.266   1.551
 1611SOL    HW1 4968   3.423   2.256   1.643
 1611SOL    HW2 4969   3.436   2.351   1.525
 1612SOL     OW 4970   1.229   2.850   0.116
 1612SOL    HW1 4971   1.265   2.765   0.141
 1612SOL    HW2 4972   1.276   2.873   0.035
 1613SOL     OW 4973   1.573   0.444   3.368
 1613SOL    HW1 4974   1.648   0.471   3.421
 1613SOL    HW2 4975   1.570   0.349   3.375
 1614SOL     OW 4976   2.637   2.964   0.135
 1614SOL    HW1 4977   2.634   3.032   0.068
 1614SOL    HW2 4978   2.548   2.929   0.138
 1615SOL     OW 4979   0.676   1.025   1.395
 1615SOL    HW1 4980   0.690   1.079   1.317
 1615SOL    HW2 4981   0.581   1.013   1.400
 1616SOL     OW 4982   0.281   2.223   2.874
 1616SOL    HW1 4983   0.264   2.291   2.940
 1616SOL    HW2 4984   0.260   2.141   2.918
 1617SOL     OW 4985   3.123   3.894   1.698
 1617SOL    HW1 4986   3.085   3.855   1.619
 1617SOL    HW2 4987   3.178   3.966   1.664
 1618SOL     OW 4988   0.411   3.858   0.544
 1618SOL    HW1 4989   0.400   3.765   0.563
 1618SOL    HW2 4990   0.331   3.883   0.498
 1619SOL     OW 4991   1.874   1.580   3.004
 1619SOL    HW1 4992   1.808   1.572   3.073
 1619SOL    HW2 4993   1.904   1.671   3.010
 1620SOL     OW 4994   3.269   0.682   1.096
 1620SOL    HW1 4995   3.357   0.653   1.071
 1620SOL    HW2 4996   3.277   0.777   1.106
 1621SOL     OW 4997   0.422   2.339   3.845
 1621SOL    HW1 4998   0.422   2.273   3.776
 1621SOL    HW2 4999   0.489   2.401   3.818
 1622SOL     OW 5000   3.589   3.759   2.427
 1622SOL    HW1 5001   3.664   3.709   2.392
 1622SOL    HW2 5002   3.592   3.842   2.379
 1623SOL     OW 5003   2.265   1.339   3.149
 1623SOL    HW1 5004   2.350   1.358   3.189
 1623SOL    HW2 5005   2.215   1.295   3.218
 1624SOL     OW 5006   1.163   1.710   2.738
 1624SOL    HW1 5007   1.088   1.764   2.712
 1624SOL    HW2 5008   1.161   1.635   2.679
 1625SOL     OW 5009   2.774   3.180   1.431
 1625SOL    HW1 5010   2.828   3.162   1.509
 1625SOL    HW2 5011   2.759   3.274   1.433
 1626SOL     OW 5012   1.717   0.419   2.886
 1626SOL    HW1 5013   1.693   0.358   2.957
 1626SOL    HW2 5014   1.700   0.505   2.923
 1627SOL     OW 5015   3.809   2.382   3.909
 1627SOL    HW1 5016   3.773   2.298   3.938
 1627SOL    HW2 5017   3.763   2.447   3.962
 1628SOL     OW 5018   0.844   1.010   0.034
 1628SOL    HW1 5019   0.913   1.066   0.071
 1628SOL    HW2 5020   0.816   0.955   0.108
 1629SOL     OW 5021   1.984   2.626   3.479
 1629SOL    HW1 5022   1.969   2.636   3.385
 1629SOL    HW2 5023   2.017   2.537   3.489
 1630SOL     OW 5024   1.339   0.044   0.387
 1630SOL    HW1 5025   1.403   0.011   0.449
 1630SOL    HW2 5026   1.274  -0.027   0.380
 1631SOL     OW 5027   1.097   0.872   2.238
 1631SOL    HW1 5028   1.140   0.789   2.218
 1631SOL    HW2 5029   1.132   0.933   2.173
 1632SOL     OW 5030   1.658   3.421   0.947
 1632SOL    HW1 5031   1.667   3.453   1.037
 1632SOL    HW2 5032   1.580   3.364   0.950
 1633SOL     OW 5033   2.314   3.055  -0.012
 1633SOL    HW1 5034   2.268   3.088   0.064
 1633SOL    HW2 5035   2.314   2.960  -0.001
 1634SOL     OW 5036   2.242   1.873   0.468
 1634SOL    HW1 5037   2.264   1.794   0.517
 1634SOL    HW2 5038   2.147   1.883   0.481
 1635SOL     OW 5039   0.905   3.835   3.526
 1635SOL    HW1 5040   0.831   3.790   3.486
 1635SOL    HW2 5041   0.875   3.925   3.538
 1636SOL     OW 5042   1.793   0.466   1.806
 1636SOL    HW1 5043   1.869   0.423   1.768
 1636SOL    HW2 5044   1.813   0.474   1.899
 1637SOL     OW 5045   2.767   3.194   3.249
 1637SOL    HW1 5046   2.780   3.106   3.213
 1637SOL    HW2 5047   2.750   3.249   3.173
 1638SOL     OW 5048   1.162   0.110   2.448
 1638SOL    HW1 5049   1.234   0.062   2.408
 1638SOL    HW2 5050   1.112   0.045   2.497
 1639SOL     OW 5051  -0.006   0.764   1.451
 1639SOL    HW1 5052  -0.050   0.766   1.536
 1639SOL    HW2 5053   0.087   0.769   1.472
 1640SOL     OW 5054   2.865   2.418   2.518
 1640SOL    HW1 5055   2.946   2.436   2.566
 1640SOL    HW2 5056   2.857   2.490   2.456
 1641SOL     OW 5057   2.164   2.981   2.415
 1641SOL    HW1 5058   2.131   2.893   2.396
 1641SOL    HW2 5059   2.115   3.009   2.492
 1642SOL     OW 5060   1.374   0.524   0.194
 1642SOL    HW1 5061   1.401   0.503   0.105
 1642SOL    HW2 5062   1.384   0.441   0.242
 1643SOL     OW 5063   1.418   2.287   2.140
 1643SOL    HW1 5064   1.494   2.301   2.197
 1643SOL    HW2 5065   1.450   2.227   2.073
 1644SOL     OW 5066   2.411   0.908   3.908
 1644SOL    HW1 5067   2.442   0.982   3.959
 1644SOL    HW2 5068   2.489   0.875   3.864
 1645SOL     OW 5069   0.015   0.308   0.227
 1645SOL    HW1 5070   0.049   0.395   0.205
 1645SOL    HW2 5071  -0.025   0.277   0.147
 1646SOL     OW 5072   3.133   0.162   3.026
 1646SOL    HW1 5073   3.092   0.087   2.983
 1646SOL    HW2 5074   3.227   0.140   3.026
 1647SOL     OW 5075   3.836   3.158   0.038
 1647SOL    HW1 5076   3.823   3.119   0.125
 1647SOL    HW2 5077   3.927   3.138   0.016
 1648SOL     OW 5078   2.300   2.458   3.800
 1648SOL    HW1 5079   2.251   2.440   3.880
 1648SOL    HW2 5080   2.348   2.377   3.783
 1649SOL     OW 5081   3.134   3.193   2.740
 1649SOL    HW1 5082   3.165   3.145   2.817
 1649SOL    HW2 5083   3.171   3.146   2.666
 1650SOL     OW 5084   2.957   0.408   1.132
 1650SOL    HW1 5085   2.931   0.492   1.096
 1650SOL    HW2 5086   3.001   0.430   1.214
 1651SOL     OW 5087   1.830   0.070   0.364
 1651SOL    HW1 5088   1.743   0.064   0.327
 1651SOL    HW2 5089   1.824   0.139   0.430
 1652SOL     OW 5090   3.027   2.915   1.539
 1652SOL    HW1 5091   3.070   2.856   1.477
 1652SOL    HW2 5092   3.048   2.880   1.625
 1653SOL     OW 5093   1.064   1.664   3.656
 1653SOL    HW1 5094   1.032   1.663   3.566
 1653SOL    HW2 5095   1.044   1.577   3.690
 1654SOL     OW 5096   3.206   2.861   1.190
 1654SOL    HW1 5097   3.238   2.945   1.221
 1654SOL    HW2 5098   3.192   2.873   1.096
 1655SOL     OW 5099   1.983   0.274   1.466
 1655SOL    HW1 5100   1.923   0.300   1.395
 1655SOL    HW2 5101   2.054   0.228   1.422
 1656SOL     OW 5102   3.010   2.650   0.716
 1656SOL    HW1 5103   3.017   2.711   0.642
 1656SOL    HW2 5104   2.920   2.619   0.713
 1657SOL     OW 5105   0.899   0.391   1.025
 1657SOL    HW1 5106   0.840   0.330   1.070
 1657SOL    HW2 5107   0.871   0.390   0.934
 1658SOL     OW 5108   0.954   1.423   2.856
 1658SOL    HW1 5109   0.967   1.492   2.791
 1658SOL    HW2 5110   0.963   1.341   2.808
 1659SOL     OW 5111   0.189   1.445   3.165
 1659SOL    HW1 5112   0.225   1.397   3.091
 1659SOL    HW2 5113   0.099   1.415   3.173
 1660SOL     OW 5114   3.198   1.392   2.285
 1660SOL    HW1 5115   3.184   1.309   2.239
 1660SOL    HW2 5116   3.293   1.402   2.288
 1661SOL     OW 5117   3.101   1.001   3.925
 1661SOL    HW1 5118   3.131   1.041   3.844
 1661SOL    HW2 5119   3.018   0.959   3.902
 1662SOL     OW 5120   2.129   1.616   1.494
 1662SOL    HW1 5121   2.050   1.645   1.448
 1662SOL    HW2 5122   2.096   1.560   1.564
 1663SOL     OW 5123   1.924   2.124   1.521
 1663SOL    HW1 5124   1.874   2.062   1.467
 1663SOL    HW2 5125   2.013   2.121   1.485
 1664SOL     OW 5126   2.326   1.541   0.978
 1664SOL    HW1 5127   2.263   1.504   1.041
 1664SOL    HW2 5128   2.352   1.466   0.925
 1665SOL     OW 5129   0.962   1.294   1.959
 1665SOL    HW1 5130   0.930   1.224   2.016
 1665SOL    HW2 5131   0.974   1.368   2.018
 1666SOL     OW 5132   1.830   2.521   1.872
 1666SOL    HW1 5133   1.759   2.558   1.821
 1666SOL    HW2 5134   1.805   2.537   1.963
 1667SOL     OW 5135   1.758   3.805   1.141
 1667SOL    HW1 5136   1.723   3.769   1.223
 1667SOL    HW2 5137   1.846   3.835   1.164
 1668SOL     OW 5138   1.200   1.432   2.303
 1668SOL    HW1 5139   1.255   1.508   2.320
 1668SOL    HW2 5140   1.223   1.369   2.372
 1669SOL     OW 5141   2.327   0.786   0.327
 1669SOL    HW1 5142   2.288   0.818   0.408
 1669SOL    HW2 5143   2.418   0.813   0.331
 1670SOL     OW 5144   3.802   1.245   3.564
 1670SOL    HW1 5145   3.775   1.337   3.567
 1670SOL    HW2 5146   3.763   1.206   3.643
 1671SOL     OW 5147   2.480   2.697   1.892
 1671SOL    HW1 5148   2.565   2.740   1.905
 1671SOL    HW2 5149   2.501   2.604   1.892
 1672SOL     OW 5150   3.545   3.394   1.504
 1672SOL    HW1 5151   3.582   3.459   1.444
 1672SOL    HW2 5152   3.579   3.310   1.473
 1673SOL     OW 5153   0.737   1.728   1.171
 1673SOL    HW1 5154   0.702   1.807   1.129
 1673SOL    HW2 5155   0.830   1.747   1.183
 1674SOL     OW 5156   3.846   1.727   0.906
 1674SOL    HW1 5157   3.935   1.697   0.884
 1674SOL    HW2 5158   3.805   1.652   0.949
 1675SOL     OW 5159   2.470   3.912   3.121
 1675SOL    HW1 5160   2.484   3.901   3.027
 1675SOL    HW2 5161   2.549   3.875   3.161
 1676SOL     OW 5162   0.250   3.437   2.765
 1676SOL    HW1 5163   0.266   3.531   2.751
 1676SOL    HW2 5164   0.318   3.393   2.714
 1677SOL     OW 5165   0.906   1.146   3.714
 1677SOL    HW1 5166   0.856   1.118   3.637
 1677SOL    HW2 5167   0.859   1.109   3.788
 1678SOL     OW 5168   1.484   0.494   2.190
 1678SOL    HW1 5169   1.472   0.557   2.261
 1678SOL    HW2 5170   1.535   0.423   2.229
 1679SOL     OW 5171   2.117   2.190   2.355
 1679SOL    HW1 5172   2.130   2.100   2.385
 1679SOL    HW2 5173   2.186   2.240   2.398
 1680SOL     OW 5174   0.420   1.123   1.934
 1680SOL    HW1 5175   0.410   1.194   1.870
 1680SOL    HW2 5176   0.351   1.140   1.999
 1681SOL     OW 5177   2.935   1.418   1.368
 1681SOL    HW1 5178   2.958   1.470   1.445
 1681SOL    HW2 5179   2.841   1.431   1.357
 1682SOL     OW 5180   1.581   1.279   1.362
 1682SOL    HW1 5181   1.497   1.296   1.321
 1682SOL    HW2 5182   1.560   1.221   1.436
 1683SOL     OW 5183   3.518   0.910   3.784
 1683SOL    HW1 5184   3.565   0.839   3.742
 1683SOL    HW2 5185   3.482   0.872   3.864
 1684SOL     OW 5186   0.111   2.440   0.419
 1684SOL    HW1 5187   0.134   2.532   0.436
 1684SOL    HW2 5188   0.195   2.398   0.400
 1685SOL     OW 5189   1.407   3.496  -0.019
 1685SOL    HW1 5190   1.414   3.441   0.058
 1685SOL    HW2 5191   1.330   3.552  -0.003
 1686SOL     OW 5192   0.490   1.877   2.738
 1686SOL    HW1 5193   0.534   1.961   2.754
 1686SOL    HW2 5194   0.525   1.848   2.654
 1687SOL     OW 5195   3.092   0.630   3.743
 1687SOL    HW1 5196   3.094   0.535   3.739
 1687SOL    HW2 5197   3.094   0.650   3.837
 1688SOL     OW 5198   2.594   2.924   2.138
 1688SOL    HW1 5199   2.615   3.017   2.130
 1688SOL    HW2 5200   2.500   2.923   2.157
 1689SOL     OW 5201   3.770   0.338   3.635
 1689SOL    HW1 5202   3.861   0.329   3.665
 1689SOL    HW2 5203   3.777   0.391   3.556
 1690SOL     OW 5204   3.366   3.252   0.268
 1690SOL    HW1 5205   3.286   3.275   0.316
 1690SOL    HW2 5206   3.346   3.167   0.229
 1691SOL     OW 5207   3.107   2.003   3.054
 1691SOL    HW1 5208   3.051   2.061   3.003
 1691SOL    HW2 5209   3.076   1.915   3.034
 1692SOL     OW 5210   2.588   3.589   2.757
 1692SOL    HW1 5211   2.665   3.593   2.815
 1692SOL    HW2 5212   2.529   3.655   2.791
 1693SOL     OW 5213   0.181   0.018   0.371
 1693SOL    HW1 5214   0.142   0.087   0.424
 1693SOL    HW2 5215   0.220   0.063   0.296
 1694SOL     OW 5216   1.785   2.408   3.157
 1694SOL    HW1 5217   1.765   2.316   3.141
 1694SOL    HW2 5218   1.704   2.445   3.192
 1695SOL     OW 5219   0.491   1.889   3.170
 1695SOL    HW1 5220   0.432   1.895   3.245
 1695SOL    HW2 5221   0.438   1.848   3.101
 1696SOL     OW 5222   1.558   2.318   0.871
 1696SOL    HW1 5223   1.615   2.351   0.941
 1696SOL    HW2 5224   1.488   2.383   0.864
 1697SOL     OW 5225   1.205   2.167   2.276
 1697SOL    HW1 5226   1.271   2.100   2.294
 1697SOL    HW2 5227   1.254   2.237   2.233
 1698SOL     OW 5228   3.638   1.754   1.771
 1698SOL    HW1 5229   3.642   1.661   1.751
 1698SOL    HW2 5230   3.729   1.783   1.770
 1699SOL     OW 5231   1.433   3.161   1.627
 1699SOL    HW1 5232   1.524   3.163   1.597
 1699SOL    HW2 5233   1.403   3.252   1.618
 1700SOL     OW 5234   3.179   1.093   3.166
 1700SOL    HW1 5235   3.178   1.009   3.120
 1700SOL    HW2 5236   3.182   1.158   3.097
 1701SOL     OW 5237   0.062   2.079   3.082
 1701SOL    HW1 5238   0.104   2.001   3.119
 1701SOL    HW2 5239   0.125   2.150   3.098
 1702SOL     OW 5240   0.573   2.608   3.284
 1702SOL    HW1 5241   0.649   2.576   3.236
 1702SOL    HW2 5242   0.570   2.702   3.267
 1703SOL     OW 5243   2.428   3.645   2.171
 1703SOL    HW1 5244   2.425   3.637   2.266
 1703SOL    HW2 5245   2.427   3.554   2.139
 1704SOL     OW 5246   0.815   1.070   1.651
 1704SOL    HW1 5247   0.776   1.011   1.715
 1704SOL    HW2 5248   0.755   1.067   1.576
 1705SOL     OW 5249   0.139   0.531   0.957
 1705SOL    HW1 5250   0.095   0.506   0.876
 1705SOL    HW2 5251   0.107   0.619   0.975
 1706SOL     OW 5252   0.911   3.516   1.858
 1706SOL    HW1 5253   0.890   3.609   1.856
 1706SOL    HW2 5254   1.004   3.512   1.835
 1707SOL     OW 5255   2.070   2.768   3.845
 1707SOL    HW1 5256   2.123   2.743   3.770
 1707SOL    HW2 5257   2.032   2.853   3.821
 1708SOL     OW 5258   2.634   1.459   2.847
 1708SOL    HW1 5259   2.575   1.457   2.772
 1708SOL    HW2 5260   2.593   1.400   2.911
 1709SOL     OW 5261   0.224   1.551   2.345
 1709SOL    HW1 5262   0.132   1.555   2.371
 1709SOL    HW2 5263   0.227   1.597   2.261
 1710SOL     OW 5264   1.946   0.228   1.096
 1710SOL    HW1 5265   2.028   0.204   1.139
 1710SOL    HW2 5266   1.971   0.293   1.031
 1711SOL     OW 5267   2.963   2.865   2.305
 1711SOL    HW1 5268   2.977   2.944   2.254
 1711SOL    HW2 5269   2.900   2.814   2.255
 1712SOL     OW 5270   0.405   1.702   2.514
 1712SOL    HW1 5271   0.364   1.628   2.468
 1712SOL    HW2 5272   0.365   1.701   2.601
 1713SOL     OW 5273   3.737   3.660   1.086
 1713SOL    HW1 5274   3.673   3.685   1.153
 1713SOL    HW2 5275   3.809   3.723   1.097
 1714SOL     OW 5276   0.418   3.844   0.153
 1714SOL    HW1 5277   0.452   3.923   0.110
 1714SOL    HW2 5278   0.412   3.868   0.246
 1715SOL     OW 5279   3.409   2.705   0.179
 1715SOL    HW1 5280   3.453   2.713   0.095
 1715SOL    HW2 5281   3.323   2.743   0.165
 1716SOL     OW 5282   3.859   2.989   2.341
 1716SOL    HW1 5283   3.838   3.076   2.375
 1716SOL    HW2 5284   3.788   2.968   2.281
 1717SOL     OW 5285   1.796   3.626   2.756
 1717SOL    HW1 5286   1.818   3.538   2.724
 1717SOL    HW2 5287   1.880   3.669   2.768
 1718SOL     OW 5288   3.265   2.984   3.232
 1718SOL    HW1 5289   3.274   2.986   3.328
 1718SOL    HW2 5290   3.353   2.965   3.200
 1719SOL     OW 5291   1.391   2.071   0.210
 1719SOL    HW1 5292   1.339   2.084   0.290
 1719SOL    HW2 5293   1.354   2.134   0.147
 1720SOL     OW 5294   3.093   3.597   0.759
 1720SOL    HW1 5295   3.079   3.523   0.818
 1720SOL    HW2 5296   3.145   3.660   0.809
 1721SOL     OW 5297   1.634   3.627   3.231
 1721SOL    HW1 5298   1.605   3.562   3.166
 1721SOL    HW2 5299   1.591   3.599   3.313
 1722SOL     OW 5300   2.018   3.808   2.895
 1722SOL    HW1 5301   1.943   3.799   2.953
 1722SOL    HW2 5302   2.092   3.823   2.953
 1723SOL     OW 5303   0.876   2.463   3.657
 1723SOL    HW1 5304   0.896   2.539   3.602
 1723SOL    HW2 5305   0.954   2.452   3.711
 1724SOL     OW 5306  -0.012   2.733   1.551
 1724SOL    HW1 5307   0.077   2.746   1.584
 1724SOL    HW2 5308  -0.038   2.649   1.588
 1725SOL     OW 5309   2.944   3.900   2.995
 1725SOL    HW1 5310   2.885   3.855   2.935
 1725SOL    HW2 5311   2.954   3.840   3.069
 1726SOL     OW 5312   1.784   1.979   3.237
 1726SOL    HW1 5313   1.722   2.041   3.199
 1726SOL    HW2 5314   1.870   2.015   3.215
 1727SOL     OW 5315   3.414   1.337   3.852
 1727SOL    HW1 5316   3.504   1.303   3.845
 1727SOL    HW2 5317   3.401   1.386   3.771
 1728SOL     OW 5318   2.778   3.188   1.894
 1728SOL    HW1 5319   2.719   3.260   1.873
 1728SOL    HW2 5320   2.789   3.141   1.812
 1729SOL     OW 5321   1.261   3.601   3.638
 1729SOL    HW1 5322   1.246   3.574   3.729
 1729SOL    HW2 5323   1.190   3.560   3.589
 1730SOL     OW 5324   2.958   3.847   0.689
 1730SOL    HW1 5325   2.907   3.808   0.619
 1730SOL    HW2 5326   3.000   3.773   0.733
 1731SOL     OW 5327   1.624   2.857   2.075
 1731SOL    HW1 5328   1.648   2.938   2.029
 1731SOL    HW2 5329   1.604   2.885   2.164
 1732SOL     OW 5330   2.425   2.168   0.039
 1732SOL    HW1 5331   2.350   2.130  -0.005
 1732SOL    HW2 5332   2.396   2.255   0.066
 1733SOL     OW 5333   2.658   0.432   0.314
 1733SOL    HW1 5334   2.614   0.382   0.245
 1733SOL    HW2 5335   2.751   0.418   0.299
 1734SOL     OW 5336   0.111   2.159   1.203
 1734SOL    HW1 5337   0.068   2.157   1.117
 1734SOL    HW2 5338   0.045   2.196   1.261
 1735SOL     OW 5339   3.349   1.207   0.307
 1735SOL    HW1 5340   3.371   1.125   0.352
 1735SOL    HW2 5341   3.254   1.212   0.311
 1736SOL     OW 5342   0.518   2.833   2.885
 1736SOL    HW1 5343   0.482   2.746   2.903
 1736SOL    HW2 5344   0.441   2.889   2.875
 1737SOL     OW 5345   1.761   0.791   2.232
 1737SOL    HW1 5346   1.681   0.768   2.185
 1737SOL    HW2 5347   1.732   0.855   2.297
 1738SOL     OW 5348   1.721   3.213   0.407
 1738SOL    HW1 5349   1.750   3.237   0.495
 1738SOL    HW2 5350   1.669   3.287   0.377
 1739SOL     OW 5351   2.204   3.550   2.798
 1739SOL    HW1 5352   2.224   3.549   2.892
 1739SOL    HW2 5353   2.153   3.630   2.786
 1740SOL     OW 5354   0.653   3.419   3.618
 1740SOL    HW1 5355   0.723   3.358   3.596
 1740SOL    HW2 5356   0.653   3.424   3.713
 1741SOL     OW 5357   1.234   0.031   1.854
 1741SOL    HW1 5358   1.202   0.090   1.923
 1741SOL    HW2 5359   1.193  -0.053   1.874
 1742SOL     OW 5360   3.270   0.767   3.937
 1742SOL    HW1 5361   3.235   0.853   3.913
 1742SOL    HW2 5362   3.283   0.772   4.032
 1743SOL     OW 5363   2.676   3.611   1.257
 1743SOL    HW1 5364   2.764   3.589   1.287
 1743SOL    HW2 5365   2.643   3.532   1.215
 1744SOL     OW 5366   2.285   3.369   2.352
 1744SOL    HW1 5367   2.295   3.298   2.416
 1744SOL    HW2 5368   2.328   3.444   2.393
 1745SOL     OW 5369   2.486   1.200   2.813
 1745SOL    HW1 5370   2.559   1.146   2.784
 1745SOL    HW2 5371   2.482   1.271   2.749
 1746SOL     OW 5372   0.820   3.076   2.055
 1746SOL    HW1 5373   0.883   3.082   1.983
 1746SOL    HW2 5374   0.774   3.160   2.053
 1747SOL     OW 5375   3.421   2.458   1.188
 1747SOL    HW1 5376   3.420   2.363   1.197
 1747SOL    HW2 5377   3.472   2.474   1.108
 1748SOL     OW 5378   1.588   3.762   2.579
 1748SOL    HW1 5379   1.664   3.717   2.617
 1748SOL    HW2 5380   1.519   3.752   2.645
 1749SOL     OW 5381   3.523   0.917   3.435
 1749SOL    HW1 5382   3.450   0.977   3.448
 1749SOL    HW2 5383   3.560   0.941   3.350
 1750SOL     OW 5384   2.424   0.339   0.099
 1750SOL    HW1 5385   2.397   0.290   0.022
 1750SOL    HW2 5386   2.424   0.430   0.071
 1751SOL     OW 5387   0.343   3.595   0.587
 1751SOL    HW1 5388   0.269   3.541   0.615
 1751SOL    HW2 5389   0.418   3.536   0.591
 1752SOL     OW 5390   1.856   1.845   0.647
 1752SOL    HW1 5391   1.859   1.925   0.700
 1752SOL    HW2 5392   1.807   1.782   0.700
 1753SOL     OW 5393   0.284   1.944   3.341
 1753SOL    HW1 5394   0.261   2.037   3.343
 1753SOL    HW2 5395   0.201   1.899   3.358
 1754SOL     OW 5396   2.271   3.210   2.620
 1754SOL    HW1 5397   2.343   3.272   2.636
 1754SOL    HW2 5398   2.273   3.151   2.695
 1755SOL     OW 5399   0.935   3.844   1.013
 1755SOL    HW1 5400   0.921   3.893   1.094
 1755SOL    HW2 5401   1.008   3.889   0.970
 1756SOL     OW 5402   3.208   1.687   1.790
 1756SOL    HW1 5403   3.226   1.631   1.865
 1756SOL    HW2 5404   3.264   1.763   1.802
 1757SOL     OW 5405   3.304   0.919   2.199
 1757SOL    HW1 5406   3.338   0.906   2.111
 1757SOL    HW2 5407   3.258   1.003   2.195
 1758SOL     OW 5408   2.117   0.543   1.560
 1758SOL    HW1 5409   2.088   0.535   1.469
 1758SOL    HW2 5410   2.086   0.463   1.602
 1759SOL     OW 5411   1.252   3.127   1.916
 1759SOL    HW1 5412   1.293   3.106   1.832
 1759SOL    HW2 5413   1.326   3.143   1.976
 1760SOL     OW 5414   1.173   3.554   2.813
 1760SOL    HW1 5415   1.150   3.504   2.735
 1760SOL    HW2 5416   1.258   3.593   2.793
 1761SOL     OW 5417   1.678   1.700   0.820
 1761SOL    HW1 5418   1.687   1.611   0.855
 1761SOL    HW2 5419   1.610   1.740   0.874
 1762SOL     OW 5420   3.087   1.681   0.140
 1762SOL    HW1 5421   3.176   1.646   0.142
 1762SOL    HW2 5422   3.033   1.607   0.168
 1763SOL     OW 5423   0.621   1.585   2.384
 1763SOL    HW1 5424   0.649   1.535   2.461
 1763SOL    HW2 5425   0.542   1.630   2.412
 1764SOL     OW 5426   1.341   1.680   2.154
 1764SOL    HW1 5427   1.281   1.703   2.083
 1764SOL    HW2 5428   1.317   1.739   2.226
 1765SOL     OW 5429   2.574   0.047   0.112
 1765SOL    HW1 5430   2.553   0.131   0.152
 1765SOL    HW2 5431   2.495   0.021   0.065
 1766SOL     OW 5432   1.638   0.250   3.701
 1766SOL    HW1 5433   1.711   0.294   3.657
 1766SOL    HW2 5434   1.662   0.249   3.793
 1767SOL     OW 5435   3.428   0.271   0.696
 1767SOL    HW1 5436   3.341   0.310   0.696
 1767SOL    HW2 5437   3.414   0.179   0.674
 1768SOL     OW 5438   2.460   1.500   3.829
 1768SOL    HW1 5439   2.434   1.439   3.760
 1768SOL    HW2 5440   2.385   1.500   3.889
 1769SOL     OW 5441   3.435   0.796   1.941
 1769SOL    HW1 5442   3.450   0.701   1.939
 1769SOL    HW2 5443   3.410   0.817   1.851
 1770SOL     OW 5444   1.768   3.624   0.816
 1770SOL    HW1 5445   1.858   3.600   0.839
 1770SOL    HW2 5446   1.714   3.557   0.858
 1771SOL     OW 5447   1.256   3.218   2.452
 1771SOL    HW1 5448   1.164   3.243   2.442
 1771SOL    HW2 5449   1.293   3.285   2.509
 1772SOL     OW 5450   1.739   3.736   2.361
 1772SOL    HW1 5451   1.772   3.648   2.379
 1772SOL    HW2 5452   1.706   3.766   2.446
 1773SOL     OW 5453   0.515   2.345   0.132
 1773SOL    HW1 5454   0.475   2.295   0.202
 1773SOL    HW2 5455   0.480   2.306   0.052
 1774SOL     OW 5456   3.745   2.614   2.444
 1774SOL    HW1 5457   3.825   2.658   2.417
 1774SOL    HW2 5458   3.770   2.561   2.520
 1775SOL     OW 5459   2.674   1.908   0.343
 1775SOL    HW1 5460   2.682   1.887   0.436
 1775SOL    HW2 5461   2.758   1.882   0.305
 1776SOL     OW 5462   2.169   0.222   1.255
 1776SOL    HW1 5463   2.228   0.176   1.195
 1776SOL    HW2 5464   2.220   0.298   1.285
 1777SOL     OW 5465   1.010   0.990   1.248
 1777SOL    HW1 5466   1.036   1.062   1.306
 1777SOL    HW2 5467   0.920   1.011   1.222
 1778SOL     OW 5468   2.734   3.053   3.597
 1778SOL    HW1 5469   2.805   3.112   3.622
 1778SOL    HW2 5470   2.732   2.987   3.666
 1779SOL     OW 5471   3.116   2.232   1.909
 1779SOL    HW1 5472   3.181   2.266   1.848
 1779SOL    HW2 5473   3.074   2.160   1.863
 1780SOL     OW 5474   0.397   3.902   1.239
 1780SOL    HW1 5475   0.491   3.886   1.229
 1780SOL    HW2 5476   0.367   3.829   1.293
 1781SOL     OW 5477   3.654   0.098   1.229
 1781SOL    HW1 5478   3.617   0.128   1.146
 1781SOL    HW2 5479   3.582   0.102   1.290
 1782SOL     OW 5480   0.105   0.420   1.208
 1782SOL    HW1 5481   0.109   0.475   1.130
 1782SOL    HW2 5482   0.170   0.351   1.192
 1783SOL     OW 5483   3.587   3.464   0.942
 1783SOL    HW1 5484   3.519   3.467   1.008
 1783SOL    HW2 5485   3.650   3.531   0.970
 1784SOL     OW 5486   2.291   1.119   2.997
 1784SOL    HW1 5487   2.280   1.208   3.031
 1784SOL    HW2 5488   2.329   1.131   2.910
 1785SOL     OW 5489   2.009   3.855   1.693
 1785SOL    HW1 5490   2.027   3.905   1.773
 1785SOL    HW2 5491   2.089   3.865   1.641
 1786SOL     OW 5492   0.497   1.822   1.471
 1786SOL    HW1 5493   0.452   1.801   1.553
 1786SOL    HW2 5494   0.589   1.824   1.494
 1787SOL     OW 5495   3.938   0.980   2.081
 1787SOL    HW1 5496   3.949   0.886   2.090
 1787SOL    HW2 5497   3.899   1.008   2.163
 1788SOL     OW 5498   0.789   2.498   0.040
 1788SOL    HW1 5499   0.883   2.509   0.026
 1788SOL    HW2 5500   0.783   2.460   0.128
 1789SOL     OW 5501   0.920   1.039   2.073
 1789SOL    HW1 5502   0.907   0.970   2.007
 1789SOL    HW2 5503   0.959   0.993   2.148
 1790SOL     OW 5504   3.608   1.301   2.455
 1790SOL    HW1 5505   3.542   1.293   2.386
 1790SOL    HW2 5506   3.669   1.366   2.422
 1791SOL     OW 5507   0.652   1.434   2.639
 1791SOL    HW1 5508   0.656   1.343   2.669
 1791SOL    HW2 5509   0.627   1.484   2.716
 1792SOL     OW 5510   1.211   3.752   2.330
 1792SOL    HW1 5511   1.239   3.661   2.319
 1792SOL    HW2 5512   1.288   3.798   2.363
 1793SOL     OW 5513   0.717   3.295   0.387
 1793SOL    HW1 5514   0.624   3.296   0.367
 1793SOL    HW2 5515   0.724   3.238   0.464
 1794SOL     OW 5516   3.815   0.408   2.091
 1794SOL    HW1 5517   3.900   0.441   2.121
 1794SOL    HW2 5518   3.817   0.315   2.110
 1795SOL     OW 5519   0.582   0.662   0.626
 1795SOL    HW1 5520   0.492   0.686   0.647
 1795SOL    HW2 5521   0.617   0.627   0.708
 1796SOL     OW 5522   3.776   2.535   1.315
 1796SOL    HW1 5523   3.860   2.528   1.270
 1796SOL    HW2 5524   3.730   2.454   1.294
 1797SOL     OW 5525   2.884   0.265   2.954
 1797SOL    HW1 5526   2.971   0.234   2.978
 1797SOL    HW2 5527   2.831   0.253   3.033
 1798SOL     OW 5528   1.953   1.005   2.602
 1798SOL    HW1 5529   1.954   1.031   2.695
 1798SOL    HW2 5530   1.878   1.050   2.565
 1799SOL     OW 5531   0.937   2.475   0.607
 1799SOL    HW1 5532   0.971   2.532   0.676
 1799SOL    HW2 5533   0.931   2.530   0.530
 1800SOL     OW 5534   2.782   3.705   0.538
 1800SOL    HW1 5535   2.784   3.615   0.505
 1800SOL    HW2 5536   2.731   3.753   0.473
 1801SOL     OW 5537   2.583   1.973   2.311
 1801SOL    HW1 5538   2.584   2.015   2.397
 1801SOL    HW2 5539   2.575   1.880   2.330
 1802SOL     OW 5540   1.107   0.695   1.693
 1802SOL    HW1 5541   1.105   0.789   1.713
 1802SOL    HW2 5542   1.058   0.687   1.611
 1803SOL     OW 5543   2.985   2.610   3.924
 1803SOL    HW1 5544   2.907   2.601   3.869
 1803SOL    HW2 5545   2.952   2.636   4.009
 1804SOL     OW 5546   2.094   2.971   0.141
 1804SOL    HW1 5547   2.049   2.958   0.057
 1804SOL    HW2 5548   2.138   2.887   0.158
 1805SOL     OW 5549   3.495   3.579   2.707
 1805SOL    HW1 5550   3.400   3.592   2.709
 1805SOL    HW2 5551   3.527   3.644   2.645
 1806SOL     OW 5552   0.058   2.343   0.875
 1806SOL    HW1 5553   0.151   2.340   0.895
 1806SOL    HW2 5554   0.027   2.253   0.889
 1807SOL     OW 5555   2.674   0.135   2.817
 1807SOL    HW1 5556   2.608   0.203   2.802
 1807SOL    HW2 5557   2.751   0.183   2.848
 1808SOL     OW 5558   2.648   1.954   3.955
 1808SOL    HW1 5559   2.729   1.996   3.987
 1808SOL    HW2 5560   2.660   1.951   3.860
 1809SOL     OW 5561   3.756   3.198   1.461
 1809SOL    HW1 5562   3.818   3.264   1.431
 1809SOL    HW2 5563   3.766   3.197   1.556
 1810SOL     OW 5564   3.894   1.820   2.903
 1810SOL    HW1 5565   3.810   1.775   2.898
 1810SOL    HW2 5566   3.917   1.819   2.995
 1811SOL     OW 5567   0.732   3.826   3.783
 1811SOL    HW1 5568   0.823   3.837   3.756
 1811SOL    HW2 5569   0.733   3.746   3.836
 1812SOL     OW 5570   0.238   1.051   0.791
 1812SOL    HW1 5571   0.203   0.976   0.742
 1812SOL    HW2 5572   0.218   1.127   0.736
 1813SOL     OW 5573   2.807   3.556   2.221
 1813SOL    HW1 5574   2.767   3.535   2.305
 1813SOL    HW2 5575   2.858   3.635   2.238
 1814SOL     OW 5576   3.586   0.450   2.246
 1814SOL    HW1 5577   3.611   0.535   2.281
 1814SOL    HW2 5578   3.664   0.419   2.199
 1815SOL     OW 5579   2.435   0.303   2.869
 1815SOL    HW1 5580   2.410   0.390   2.899
 1815SOL    HW2 5581   2.449   0.253   2.949
 1816SOL     OW 5582   1.328   2.480   0.899
 1816SOL    HW1 5583   1.302   2.396   0.935
 1816SOL    HW2 5584   1.260   2.500   0.834
 1817SOL     OW 5585   2.581   3.279   3.539
 1817SOL    HW1 5586   2.568   3.284   3.444
 1817SOL    HW2 5587   2.616   3.191   3.554
 1818SOL     OW 5588   0.061   1.373   1.162
 1818SOL    HW1 5589   0.153   1.371   1.187
 1818SOL    HW2 5590   0.036   1.280   1.156
 1819SOL     OW 5591   1.972   2.587   3.217
 1819SOL    HW1 5592   2.055   2.589   3.170
 1819SOL    HW2 5593   1.931   2.504   3.192
 1820SOL     OW 5594   0.373   0.337   2.368
 1820SOL    HW1 5595   0.378   0.268   2.302
 1820SOL    HW2 5596   0.359   0.291   2.451
 1821SOL     OW 5597   1.735   0.972   1.710
 1821SOL    HW1 5598   1.806   0.945   1.768
 1821SOL    HW2 5599   1.656   0.963   1.763
 1822SOL     OW 5600   0.597   0.231   1.374
 1822SOL    HW1 5601   0.521   0.250   1.428
 1822SOL    HW2 5602   0.671   0.235   1.434
 1823SOL     OW 5603   2.174   2.132   3.623
 1823SOL    HW1 5604   2.122   2.091   3.692
 1823SOL    HW2 5605   2.235   2.063   3.595
 1824SOL     OW 5606   3.575   1.985   3.194
 1824SOL    HW1 5607   3.541   2.010   3.280
 1824SOL    HW2 5608   3.645   2.048   3.176
 1825SOL     OW 5609   0.004   1.081   3.102
 1825SOL    HW1 5610   0.078   1.109   3.048
 1825SOL    HW2 5611   0.042   1.058   3.186
 1826SOL     OW 5612   1.701   3.264   1.767
 1826SOL    HW1 5613   1.786   3.307   1.752
 1826SOL    HW2 5614   1.705   3.184   1.714
 1827SOL     OW 5615   3.615   3.109   3.818
 1827SOL    HW1 5616   3.683   3.111   3.886
 1827SOL    HW2 5617   3.564   3.031   3.839
 1828SOL     OW 5618   2.190   0.471   2.936
 1828SOL    HW1 5619   2.234   0.463   3.021
 1828SOL    HW2 5620   2.097   0.476   2.958
 1829SOL     OW 5621   2.177   0.917   0.855
 1829SOL    HW1 5622   2.211   0.936   0.767
 1829SOL    HW2 5623   2.235   0.848   0.888
 1830SOL     OW 5624   1.244   1.471   0.353
 1830SOL    HW1 5625   1.334   1.459   0.385
 1830SOL    HW2 5626   1.212   1.382   0.339
 1831SOL     OW 5627   3.113   1.436   2.546
 1831SOL    HW1 5628   3.113   1.532   2.545
 1831SOL    HW2 5629   3.125   1.411   2.455
 1832SOL     OW 5630   0.476   1.424   0.561
 1832SOL    HW1 5631   0.388   1.453   0.537
 1832SOL    HW2 5632   0.468   1.329   0.569
 1833SOL     OW 5633   2.451   0.059   0.738
 1833SOL    HW1 5634   2.451  -0.005   0.810
 1833SOL    HW2 5635   2.530   0.110   0.752
 1834SOL     OW 5636   2.092   2.505   0.370
 1834SOL    HW1 5637   2.109   2.479   0.461
 1834SOL    HW2 5638   1.997   2.506   0.363
 1835SOL     OW 5639   0.656   2.640   2.602
 1835SOL    HW1 5640   0.635   2.703   2.533
 1835SOL    HW2 5641   0.722   2.685   2.656
 1836SOL     OW 5642   3.827   0.598   2.535
 1836SOL    HW1 5643   3.737   0.596   2.569
 1836SOL    HW2 5644   3.882   0.581   2.611
 1837SOL     OW 5645   0.425   1.315   2.440
 1837SOL    HW1 5646   0.429   1.375   2.365
 1837SOL    HW2 5647   0.412   1.373   2.515
 1838SOL     OW 5648   0.204   2.820   0.105
 1838SOL    HW1 5649   0.299   2.814   0.116
 1838SOL    HW2 5650   0.173   2.730   0.111
 1839SOL     OW 5651   0.369   1.069   3.153
 1839SOL    HW1 5652   0.462   1.075   3.173
 1839SOL    HW2 5653   0.330   1.032   3.232
 1840SOL     OW 5654   1.795   1.699   0.124
 1840SOL    HW1 5655   1.760   1.677   0.211
 1840SOL    HW2 5656   1.844   1.781   0.137
 1841SOL     OW 5657   1.982   3.201   3.565
 1841SOL    HW1 5658   1.888   3.189   3.553
 1841SOL    HW2 5659   1.999   3.166   3.653
 1842SOL     OW 5660   0.911   0.719   3.473
 1842SOL    HW1 5661   0.886   0.647   3.530
 1842SOL    HW2 5662   0.968   0.774   3.527
 1843SOL     OW 5663   3.418   1.154   2.827
 1843SOL    HW1 5664   3.444   1.232   2.778
 1843SOL    HW2 5665   3.489   1.091   2.811
 1844SOL     OW 5666   0.577   1.244   1.023
 1844SOL    HW1 5667   0.507   1.184   1.049
 1844SOL    HW2 5668   0.540   1.331   1.041
 1845SOL     OW 5669   2.132   0.591   2.176
 1845SOL    HW1 5670   2.209   0.570   2.228
 1845SOL    HW2 5671   2.060   0.545   2.220
 1846SOL     OW 5672   3.233   0.553   1.377
 1846SOL    HW1 5673   3.235   0.622   1.310
 1846SOL    HW2 5674   3.321   0.554   1.415
 1847SOL     OW 5675   2.801   3.065   0.344
 1847SOL    HW1 5676   2.759   3.011   0.277
 1847SOL    HW2 5677   2.732   3.085   0.406
 1848SOL     OW 5678   3.400   3.523   0.450
 1848SOL    HW1 5679   3.442   3.574   0.382
 1848SOL    HW2 5680   3.309   3.515   0.422
 1849SOL     OW 5681   3.210   3.013   2.536
 1849SOL    HW1 5682   3.190   3.047   2.449
 1849SOL    HW2 5683   3.179   2.922   2.534
 1850SOL     OW 5684   0.731   1.090   3.494
 1850SOL    HW1 5685   0.660   1.135   3.540
 1850SOL    HW2 5686   0.710   1.102   3.401
 1851SOL     OW 5687   2.289   0.068   0.220
 1851SOL    HW1 5688   2.303   0.109   0.134
 1851SOL    HW2 5689   2.194   0.065   0.231
 1852SOL     OW 5690   0.335   0.909   3.385
 1852SOL    HW1 5691   0.408   0.893   3.445
 1852SOL    HW2 5692   0.302   0.822   3.362
 1853SOL     OW 5693   3.678   3.317   2.910
 1853SOL    HW1 5694   3.700   3.317   2.817
 1853SOL    HW2 5695   3.761   3.303   2.954
 1854SOL     OW 5696  -0.003   2.109   3.853
 1854SOL    HW1 5697  -0.018   2.117   3.948
 1854SOL    HW2 5698   0.079   2.060   3.846
 1855SOL     OW 5699   2.574   0.900   3.481
 1855SOL    HW1 5700   2.561   0.992   3.458
 1855SOL    HW2 5701   2.663   0.881   3.453
 1856SOL     OW 5702   0.456   1.130   3.687
 1856SOL    HW1 5703   0.490   1.050   3.647
 1856SOL    HW2 5704   0.431   1.104   3.776
 1857SOL     OW 5705   1.625   0.245   3.070
 1857SOL    HW1 5706   1.614   0.156   3.036
 1857SOL    HW2 5707   1.610   0.237   3.164
 1858SOL     OW 5708   1.815   1.190   2.444
 1858SOL    HW1 5709   1.840   1.282   2.456
 1858SOL    HW2 5710   1.770   1.189   2.360
 1859SOL     OW 5711   0.589   2.907   3.435
 1859SOL    HW1 5712   0.530   2.926   3.507
 1859SOL    HW2 5713   0.533   2.905   3.357
 1860SOL     OW 5714   1.411   1.325   2.442
 1860SOL    HW1 5715   1.409   1.417   2.470
 1860SOL    HW2 5716   1.462   1.326   2.361
 1861SOL     OW 5717   2.252   3.111   3.400
 1861SOL    HW1 5718   2.346   3.104   3.413
 1861SOL    HW2 5719   2.220   3.155   3.479
 1862SOL     OW 5720   2.240   0.944   0.572
 1862SOL    HW1 5721   2.245   1.029   0.528
 1862SOL    HW2 5722   2.320   0.939   0.624
 1863SOL     OW 5723   0.148   0.215   2.643
 1863SOL    HW1 5724   0.197   0.183   2.567
 1863SOL    HW2 5725   0.058   0.225   2.611
 1864SOL     OW 5726   1.105   3.260   1.429
 1864SOL    HW1 5727   1.144   3.200   1.492
 1864SOL    HW2 5728   1.151   3.242   1.347
 1865SOL     OW 5729   3.016   3.410   1.520
 1865SOL    HW1 5730   2.927   3.414   1.486
 1865SOL    HW2 5731   3.009   3.358   1.601
 1866SOL     OW 5732   1.742   3.115   1.983
 1866SOL    HW1 5733   1.710   3.181   1.922
 1866SOL    HW2 5734   1.800   3.059   1.931
 1867SOL     OW 5735   1.195   0.533   2.995
 1867SOL    HW1 5736   1.141   0.566   3.066
 1867SOL    HW2 5737   1.140   0.466   2.953
 1868SOL     OW 5738   1.938   2.824   1.998
 1868SOL    HW1 5739   1.869   2.765   2.027
 1868SOL    HW2 5740   1.990   2.773   1.937
 1869SOL     OW 5741   0.324   3.672   2.955
 1869SOL    HW1 5742   0.347   3.584   2.985
 1869SOL    HW2 5743   0.259   3.702   3.019
 1870SOL     OW 5744   3.455   2.060   2.761
 1870SOL    HW1 5745   3.402   2.128   2.804
 1870SOL    HW2 5746   3.439   1.981   2.811
 1871SOL     OW 5747   0.771   3.320   2.587
 1871SOL    HW1 5748   0.814   3.372   2.655
 1871SOL    HW2 5749   0.746   3.383   2.520
 1872SOL     OW 5750   2.052   0.278   2.259
 1872SOL    HW1 5751   2.129   0.224   2.239
 1872SOL    HW2 5752   2.079   0.330   2.334
 1873SOL     OW 5753   2.749   2.704   0.100
 1873SOL    HW1 5754   2.679   2.666   0.046
 1873SOL    HW2 5755   2.733   2.798   0.097
 1874SOL     OW 5756   3.464   1.433   2.911
 1874SOL    HW1 5757   3.515   1.370   2.962
 1874SOL    HW2 5758   3.485   1.518   2.949
 1875SOL     OW 5759   1.031   2.539   0.192
 1875SOL    HW1 5760   0.975   2.599   0.241
 1875SOL    HW2 5761   1.100   2.516   0.254
 1876SOL     OW 5762   0.648   3.643   0.068
 1876SOL    HW1 5763   0.717   3.616   0.129
 1876SOL    HW2 5764   0.584   3.689   0.122
 1877SOL     OW 5765   3.211   0.959   1.184
 1877SOL    HW1 5766   3.127   0.992   1.152
 1877SOL    HW2 5767   3.207   0.970   1.279
 1878SOL     OW 5768   3.841   2.417   0.235
 1878SOL    HW1 5769   3.830   2.323   0.219
 1878SOL    HW2 5770   3.897   2.422   0.313
 1879SOL     OW 5771   0.000   2.676   2.332
 1879SOL    HW1 5772   0.010   2.632   2.248
 1879SOL    HW2 5773   0.081   2.656   2.380
 1880SOL     OW 5774   2.013   2.848   0.535
 1880SOL    HW1 5775   2.090   2.797   0.562
 1880SOL    HW2 5776   2.047   2.936   0.520
 1881SOL     OW 5777   1.481   2.378   1.725
 1881SOL    HW1 5778   1.526   2.346   1.803
 1881SOL    HW2 5779   1.537   2.449   1.692
 1882SOL     OW 5780   1.478   3.149   2.072
 1882SOL    HW1 5781   1.470   3.126   2.164
 1882SOL    HW2 5782   1.572   3.156   2.057
 1883SOL     OW 5783   2.186   2.379   0.616
 1883SOL    HW1 5784   2.124   2.311   0.588
 1883SOL    HW2 5785   2.209   2.355   0.706
 1884SOL     OW 5786   0.285   0.115   2.146
 1884SOL    HW1 5787   0.272   0.021   2.150
 1884SOL    HW2 5788   0.303   0.133   2.054
 1885SOL     OW 5789   2.479   1.633   1.201
 1885SOL    HW1 5790   2.420   1.671   1.266
 1885SOL    HW2 5791   2.432   1.641   1.118
 1886SOL     OW 5792   0.969   3.591   0.954
 1886SOL    HW1 5793   0.978   3.538   1.033
 1886SOL    HW2 5794   0.972   3.681   0.986
 1887SOL     OW 5795   3.459   0.283   1.794
 1887SOL    HW1 5796   3.426   0.311   1.879
 1887SOL    HW2 5797   3.388   0.229   1.758
 1888SOL     OW 5798   0.328   0.697   0.201
 1888SOL    HW1 5799   0.272   0.748   0.143
 1888SOL    HW2 5800   0.414   0.739   0.195
 1889SOL     OW 5801   0.824   3.157   1.460
 1889SOL    HW1 5802   0.918   3.170   1.444
 1889SOL    HW2 5803   0.799   3.229   1.517
 1890SOL     OW 5804   1.848   0.113   0.720
 1890SOL    HW1 5805   1.828   0.103   0.814
 1890SOL    HW2 5806   1.830   0.026   0.683
 1891SOL     OW 5807   0.395   3.225   2.001
 1891SOL    HW1 5808   0.480   3.183   1.993
 1891SOL    HW2 5809   0.379   3.231   2.095
 1892SOL     OW 5810   2.077   3.176   1.757
 1892SOL    HW1 5811   2.098   3.256   1.806
 1892SOL    HW2 5812   2.161   3.130   1.751
 1893SOL     OW 5813   2.945   1.760   0.865
 1893SOL    HW1 5814   2.920   1.839   0.914
 1893SOL    HW2 5815   2.863   1.711   0.855
 1894SOL     OW 5816   0.409   1.457   0.929
 1894SOL    HW1 5817   0.378   1.439   0.840
 1894SOL    HW2 5818   0.495   1.498   0.917
 1895SOL     OW 5819   0.144   3.036   3.462
 1895SOL    HW1 5820   0.053   3.064   3.473
 1895SOL    HW2 5821   0.195   3.112   3.490
 1896SOL     OW 5822   0.767   2.599   2.271
 1896SOL    HW1 5823   0.798   2.516   2.233
 1896SOL    HW2 5824   0.714   2.572   2.346
 1897SOL     OW 5825   0.314   2.384   0.905
 1897SOL    HW1 5826   0.306   2.419   0.994
 1897SOL    HW2 5827   0.309   2.461   0.848
 1898SOL     OW 5828   3.935   3.862   2.912
 1898SOL    HW1 5829   3.939   3.844   2.818
 1898SOL    HW2 5830   3.842   3.852   2.934
 1899SOL     OW 5831   1.658   3.203   2.515
 1899SOL    HW1 5832   1.611   3.121   2.528
 1899SOL    HW2 5833   1.701   3.194   2.430
 1900SOL     OW 5834   1.864   0.918   1.095
 1900SOL    HW1 5835   1.817   0.836   1.113
 1900SOL    HW2 5836   1.855   0.969   1.175
 1901SOL     OW 5837   3.470   2.501   1.437
 1901SOL    HW1 5838   3.449   2.480   1.345
 1901SOL    HW2 5839   3.523   2.580   1.431
 1902SOL     OW 5840   2.708   0.612   2.575
 1902SOL    HW1 5841   2.705   0.598   2.480
 1902SOL    HW2 5842   2.635   0.671   2.592
 1903SOL     OW 5843   1.297   3.613   0.226
 1903SOL    HW1 5844   1.383   3.595   0.265
 1903SOL    HW2 5845   1.270   3.695   0.265
 1904SOL     OW 5846   1.610   1.632   2.049
 1904SOL    HW1 5847   1.584   1.562   1.990
 1904SOL    HW2 5848   1.532   1.650   2.102
 1905SOL     OW 5849   0.771   3.361   3.039
 1905SOL    HW1 5850   0.728   3.442   3.065
 1905SOL    HW2 5851   0.707   3.292   3.058
 1906SOL     OW 5852   3.486   3.720   0.709
 1906SOL    HW1 5853   3.429   3.719   0.786
 1906SOL    HW2 5854   3.545   3.645   0.721
 1907SOL     OW 5855   1.573   0.522   3.127
 1907SOL    HW1 5856   1.559   0.447   3.069
 1907SOL    HW2 5857   1.566   0.486   3.215
 1908SOL     OW 5858   3.817   1.542   3.588
 1908SOL    HW1 5859   3.804   1.635   3.567
 1908SOL    HW2 5860   3.911   1.535   3.606
 1909SOL     OW 5861   0.485   3.791   1.565
 1909SOL    HW1 5862   0.461   3.851   1.636
 1909SOL    HW2 5863   0.432   3.713   1.581
 1910SOL     OW 5864   1.788   0.139   1.643
 1910SOL    HW1 5865   1.857   0.205   1.642
 1910SOL    HW2 5866   1.788   0.104   1.554
 1911SOL     OW 5867   0.449   0.304   3.532
 1911SOL    HW1 5868   0.539   0.296   3.501
 1911SOL    HW2 5869   0.401   0.236   3.485
 1912SOL     OW 5870   0.305   0.679   1.247
 1912SOL    HW1 5871   0.238   0.613   1.266
 1912SOL    HW2 5872   0.388   0.634   1.264
 1913SOL     OW 5873   1.782   2.830   3.512
 1913SOL    HW1 5874   1.767   2.840   3.418
 1913SOL    HW2 5875   1.864   2.781   3.518
 1914SOL     OW 5876   2.372   1.888   0.232
 1914SOL    HW1 5877   2.359   1.802   0.192
 1914SOL    HW2 5878   2.306   1.893   0.301
 1915SOL     OW 5879   1.404   0.549   1.366
 1915SOL    HW1 5880   1.383   0.475   1.423
 1915SOL    HW2 5881   1.420   0.622   1.427
 1916SOL     OW 5882   3.912   0.138   1.624
 1916SOL    HW1 5883   3.823   0.171   1.618
 1916SOL    HW2 5884   3.924   0.117   1.717
 1917SOL     OW 5885   3.551   0.358   0.164
 1917SOL    HW1 5886   3.517   0.444   0.190
 1917SOL    HW2 5887   3.574   0.369   0.072
 1918NA      NA 5888   2.526   2.045   0.193
 1919NA      NA 5889   2.485   2.382   2.725
   3.96100   3.96100   3.96100   0.00000   0.00000   0.00000   0.00000   0.00000   0.00000
