Generated with MDTraj, t= 40959.0
 5889
    1TYR      N    1   2.797   3.618   1.311
    1TYR     H1    2   2.730   3.579   1.380
    1TYR     H2    3   2.860   3.693   1.345
    1TYR     H3    4   2.740   3.660   1.235
    1TYR     CA    5   2.869   3.501   1.257
    1TYR     HA    6   2.888   3.430   1.336
    1TYR     CB    7   2.788   3.419   1.154
    1TYR    HB1    8   2.686   3.397   1.193
    1TYR    HB2    9   2.776   3.470   1.056
    1TYR     CG   10   2.848   3.278   1.135
    1TYR    CD1   11   2.879   3.238   1.003
    1TYR    HD1   12   2.851   3.290   0.913
    1TYR    CE1   13   2.938   3.115   0.985
    1TYR    HE1   14   2.952   3.079   0.884
    1TYR     CZ   15   2.995   3.044   1.091
    1TYR     OH   16   3.060   2.920   1.062
    1TYR     HH   17   3.086   2.881   1.146
    1TYR    CD2   18   2.891   3.201   1.244
    1TYR    HD2   19   2.870   3.227   1.347
    1TYR    CE2   20   2.966   3.087   1.224
    1TYR    HE2   21   2.991   3.020   1.305
    1TYR      C   22   3.003   3.534   1.197
    1TYR      O   23   3.112   3.526   1.257
    2TYR      N   24   3.009   3.589   1.074
    2TYR     HN   25   2.931   3.606   1.015
    2TYR     CA   26   3.137   3.633   1.016
    2TYR     HA   27   3.206   3.550   1.015
    2TYR     CB   28   3.131   3.670   0.869
    2TYR    HB1   29   3.082   3.769   0.859
    2TYR    HB2   30   3.228   3.694   0.821
    2TYR     CG   31   3.069   3.559   0.793
    2TYR    CD1   32   3.140   3.434   0.792
    2TYR    HD1   33   3.237   3.428   0.837
    2TYR    CE1   34   3.097   3.334   0.699
    2TYR    HE1   35   3.153   3.242   0.696
    2TYR     CZ   36   2.978   3.345   0.628
    2TYR     OH   37   2.928   3.236   0.552
    2TYR     HH   38   3.001   3.173   0.544
    2TYR    CD2   39   2.949   3.572   0.717
    2TYR    HD2   40   2.897   3.666   0.733
    2TYR    CE2   41   2.904   3.462   0.651
    2TYR    HE2   42   2.810   3.482   0.602
    2TYR      C   43   3.202   3.748   1.094
    2TYR      O   44   3.133   3.838   1.145
    3ASP      N   45   3.336   3.746   1.101
    3ASP     HN   46   3.388   3.665   1.075
    3ASP     CA   47   3.403   3.842   1.181
    3ASP     HA   48   3.348   3.867   1.270
    3ASP     CB   49   3.535   3.772   1.215
    3ASP    HB1   50   3.527   3.676   1.270
    3ASP    HB2   51   3.590   3.759   1.118
    3ASP     CG   52   3.624   3.865   1.304
    3ASP    OD1   53   3.736   3.892   1.264
    3ASP    OD2   54   3.583   3.906   1.415
    3ASP      C   55   3.436   3.968   1.100
    3ASP      O   56   3.511   3.952   1.007
    4PRO      N   57   3.382   4.087   1.125
    4PRO     CD   58   3.296   4.120   1.243
    4PRO    HD1   59   3.341   4.077   1.336
    4PRO    HD2   60   3.197   4.076   1.220
    4PRO     CA   61   3.408   4.200   1.039
    4PRO     HA   62   3.379   4.186   0.936
    4PRO     CB   63   3.313   4.305   1.103
    4PRO    HB1   64   3.345   4.412   1.105
    4PRO    HB2   65   3.216   4.295   1.050
    4PRO     CG   66   3.281   4.269   1.248
    4PRO    HG1   67   3.362   4.313   1.309
    4PRO    HG2   68   3.178   4.300   1.277
    4PRO      C   69   3.557   4.240   1.039
    4PRO      O   70   3.599   4.290   0.936
    5GLU      N   71   3.635   4.224   1.145
    5GLU     HN   72   3.591   4.210   1.234
    5GLU     CA   73   3.781   4.256   1.148
    5GLU     HA   74   3.785   4.360   1.120
    5GLU     CB   75   3.832   4.227   1.295
    5GLU    HB1   76   3.846   4.119   1.317
    5GLU    HB2   77   3.935   4.268   1.307
    5GLU     CG   78   3.747   4.289   1.409
    5GLU    HG1   79   3.716   4.391   1.376
    5GLU    HG2   80   3.651   4.233   1.416
    5GLU     CD   81   3.814   4.293   1.544
    5GLU    OE1   82   3.779   4.387   1.621
    5GLU    OE2   83   3.891   4.198   1.588
    5GLU      C   84   3.868   4.172   1.062
    5GLU      O   85   3.965   4.221   1.007
    6THR      N   86   3.818   4.053   1.039
    6THR     HN   87   3.746   4.008   1.089
    6THR     CA   88   3.892   3.970   0.949
    6THR     HA   89   3.995   4.002   0.936
    6THR     CB   90   3.903   3.816   0.985
    6THR     HB   91   3.815   3.750   0.970
    6THR    OG1   92   3.932   3.806   1.120
    6THR    HG1   93   3.856   3.836   1.170
    6THR    CG2   94   4.020   3.747   0.913
    6THR   HG21   95   3.996   3.732   0.806
    6THR   HG22   96   4.106   3.817   0.911
    6THR   HG23   97   4.048   3.648   0.956
    6THR      C   98   3.835   3.974   0.807
    6THR      O   99   3.908   3.955   0.712
    7GLY      N  100   3.705   4.013   0.795
    7GLY     HN  101   3.655   4.044   0.876
    7GLY     CA  102   3.640   4.050   0.667
    7GLY    HA1  103   3.555   4.109   0.698
    7GLY    HA2  104   3.717   4.095   0.606
    7GLY      C  105   3.590   3.937   0.590
    7GLY      O  106   3.592   3.933   0.469
    8THR      N  107   3.548   3.831   0.662
    8THR     HN  108   3.541   3.835   0.762
    8THR     CA  109   3.506   3.701   0.610
    8THR     HA  110   3.557   3.664   0.522
    8THR     CB  111   3.526   3.587   0.719
    8THR     HB  112   3.472   3.494   0.691
    8THR    OG1  113   3.485   3.631   0.852
    8THR    HG1  114   3.519   3.561   0.908
    8THR    CG2  115   3.680   3.567   0.730
    8THR   HG21  116   3.718   3.659   0.780
    8THR   HG22  117   3.704   3.474   0.787
    8THR   HG23  118   3.726   3.551   0.630
    8THR      C  119   3.367   3.702   0.555
    8THR      O  120   3.313   3.601   0.530
    9TRP      N  121   3.297   3.818   0.542
    9TRP     HN  122   3.354   3.898   0.555
    9TRP     CA  123   3.155   3.841   0.502
    9TRP     HA  124   3.090   3.771   0.552
    9TRP     CB  125   3.095   3.975   0.543
    9TRP    HB1  126   3.141   4.059   0.487
    9TRP    HB2  127   2.986   3.966   0.523
    9TRP     CG  128   3.100   4.009   0.692
    9TRP    CD1  129   3.213   4.008   0.777
    9TRP    HD1  130   3.316   4.011   0.747
    9TRP    NE1  131   3.172   4.048   0.903
    9TRP    HE1  132   3.223   4.047   0.986
    9TRP    CE2  133   3.033   4.062   0.905
    9TRP    CD2  134   2.986   4.037   0.771
    9TRP    CE3  135   2.853   4.045   0.741
    9TRP    HE3  136   2.821   4.030   0.639
    9TRP    CZ3  137   2.760   4.067   0.843
    9TRP    HZ3  138   2.654   4.055   0.829
    9TRP    CZ2  139   2.943   4.097   1.003
    9TRP    HZ2  140   2.993   4.119   1.096
    9TRP    CH2  141   2.803   4.091   0.977
    9TRP    HH2  142   2.727   4.124   1.047
    9TRP      C  143   3.145   3.820   0.359
    9TRP      O  144   3.248   3.845   0.287
   10TYR      N  145   3.021   3.780   0.313
   10TYR     HN  146   2.948   3.777   0.381
   10TYR     CA  147   2.992   3.766   0.171
   10TYR     HA  148   3.080   3.791   0.114
   10TYR     CB  149   2.945   3.625   0.155
   10TYR    HB1  150   2.850   3.598   0.206
   10TYR    HB2  151   2.924   3.616   0.047
   10TYR     CG  152   3.054   3.517   0.167
   10TYR    CD1  153   3.142   3.486   0.064
   10TYR    HD1  154   3.132   3.538  -0.030
   10TYR    CE1  155   3.238   3.388   0.079
   10TYR    HE1  156   3.310   3.379  -0.001
   10TYR     CZ  157   3.257   3.329   0.202
   10TYR     OH  158   3.362   3.240   0.227
   10TYR     HH  159   3.418   3.223   0.151
   10TYR    CD2  160   3.063   3.444   0.283
   10TYR    HD2  161   2.983   3.453   0.356
   10TYR    CE2  162   3.156   3.346   0.305
   10TYR    HE2  163   3.161   3.282   0.392
   10TYR      C  164   2.893   3.868   0.111
   10TYR    OT1  165   2.799   3.821   0.041
   10TYR    OT2  166   2.901   3.988   0.142
   11SOL     OW  167   0.735   0.524   3.081
   11SOL    HW1  168   0.813   0.536   3.025
   11SOL    HW2  169   0.741   0.595   3.145
   12SOL     OW  170   0.816   1.175   3.343
   12SOL    HW1  171   0.734   1.225   3.337
   12SOL    HW2  172   0.789   1.084   3.329
   13SOL     OW  173   1.625   1.556   3.830
   13SOL    HW1  174   1.637   1.462   3.813
   13SOL    HW2  175   1.578   1.588   3.753
   14SOL     OW  176   0.115   0.949   3.102
   14SOL    HW1  177   0.137   0.915   3.016
   14SOL    HW2  178   0.120   0.873   3.160
   15SOL     OW  179   0.726   1.900   1.456
   15SOL    HW1  180   0.687   1.981   1.489
   15SOL    HW2  181   0.763   1.858   1.534
   16SOL     OW  182   2.303   2.271   1.589
   16SOL    HW1  183   2.217   2.309   1.605
   16SOL    HW2  184   2.328   2.301   1.502
   17SOL     OW  185   3.062   2.292   2.219
   17SOL    HW1  186   3.045   2.352   2.146
   17SOL    HW2  187   3.107   2.346   2.284
   18SOL     OW  188   3.077   1.027   0.166
   18SOL    HW1  189   3.044   0.993   0.249
   18SOL    HW2  190   3.154   0.973   0.147
   19SOL     OW  191   1.610   2.437   2.362
   19SOL    HW1  192   1.646   2.500   2.425
   19SOL    HW2  193   1.652   2.459   2.279
   20SOL     OW  194   0.370   0.866   0.544
   20SOL    HW1  195   0.380   0.891   0.635
   20SOL    HW2  196   0.309   0.792   0.546
   21SOL     OW  197   3.749   0.705   1.038
   21SOL    HW1  198   3.761   0.642   0.967
   21SOL    HW2  199   3.659   0.737   1.027
   22SOL     OW  200   3.236   0.719   0.448
   22SOL    HW1  201   3.171   0.668   0.401
   22SOL    HW2  202   3.320   0.691   0.411
   23SOL     OW  203   2.727   2.899   0.992
   23SOL    HW1  204   2.789   2.884   1.063
   23SOL    HW2  205   2.755   2.841   0.922
   24SOL     OW  206   0.658   3.143   2.530
   24SOL    HW1  207   0.684   3.235   2.527
   24SOL    HW2  208   0.623   3.124   2.443
   25SOL     OW  209   1.354   2.549   2.239
   25SOL    HW1  210   1.411   2.473   2.246
   25SOL    HW2  211   1.292   2.539   2.311
   26SOL     OW  212   3.659   1.456   2.520
   26SOL    HW1  213   3.649   1.526   2.455
   26SOL    HW2  214   3.700   1.384   2.471
   27SOL     OW  215   2.684   0.838   2.550
   27SOL    HW1  216   2.592   0.838   2.522
   27SOL    HW2  217   2.728   0.896   2.487
   28SOL     OW  218   2.095   1.669   2.035
   28SOL    HW1  219   2.121   1.604   2.100
   28SOL    HW2  220   2.163   1.736   2.040
   29SOL     OW  221   3.512   3.020   0.807
   29SOL    HW1  222   3.470   3.056   0.729
   29SOL    HW2  223   3.441   3.009   0.869
   30SOL     OW  224   3.846   2.651   2.546
   30SOL    HW1  225   3.894   2.595   2.607
   30SOL    HW2  226   3.789   2.705   2.602
   31SOL     OW  227   1.702   3.652   1.391
   31SOL    HW1  228   1.748   3.678   1.311
   31SOL    HW2  229   1.614   3.689   1.382
   32SOL     OW  230   0.786   0.903   2.176
   32SOL    HW1  231   0.810   0.812   2.161
   32SOL    HW2  232   0.847   0.954   2.122
   33SOL     OW  233   2.738   3.733   1.006
   33SOL    HW1  234   2.752   3.821   0.970
   33SOL    HW2  235   2.644   3.731   1.026
   34SOL     OW  236   0.084   1.794   3.547
   34SOL    HW1  237  -0.006   1.784   3.515
   34SOL    HW2  238   0.077   1.856   3.620
   35SOL     OW  239   3.776   2.710   3.606
   35SOL    HW1  240   3.775   2.681   3.515
   35SOL    HW2  241   3.789   2.804   3.600
   36SOL     OW  242   3.566   2.516   3.633
   36SOL    HW1  243   3.595   2.465   3.557
   36SOL    HW2  244   3.635   2.581   3.646
   37SOL     OW  245   3.447   2.902   2.963
   37SOL    HW1  246   3.395   2.918   3.042
   37SOL    HW2  247   3.401   2.831   2.918
   38SOL     OW  248   3.005   3.050   3.521
   38SOL    HW1  249   2.953   3.045   3.440
   38SOL    HW2  250   2.961   3.117   3.573
   39SOL     OW  251   2.705   3.096   3.876
   39SOL    HW1  252   2.697   3.179   3.922
   39SOL    HW2  253   2.757   3.116   3.798
   40SOL     OW  254   2.069   1.372   0.009
   40SOL    HW1  255   2.053   1.460  -0.026
   40SOL    HW2  256   2.027   1.372   0.095
   41SOL     OW  257   1.728   3.726   3.296
   41SOL    HW1  258   1.655   3.741   3.357
   41SOL    HW2  259   1.747   3.633   3.304
   42SOL     OW  260   2.576   1.527   0.544
   42SOL    HW1  261   2.496   1.474   0.539
   42SOL    HW2  262   2.618   1.499   0.625
   43SOL     OW  263   0.358   1.991   1.421
   43SOL    HW1  264   0.449   2.011   1.445
   43SOL    HW2  265   0.334   1.917   1.477
   44SOL     OW  266   0.418   1.996   3.732
   44SOL    HW1  267   0.481   1.974   3.801
   44SOL    HW2  268   0.347   1.934   3.745
   45SOL     OW  269   1.234   2.303   1.670
   45SOL    HW1  270   1.320   2.261   1.667
   45SOL    HW2  271   1.197   2.287   1.583
   46SOL     OW  272   1.314   0.657   0.133
   46SOL    HW1  273   1.332   0.632   0.223
   46SOL    HW2  274   1.242   0.721   0.140
   47SOL     OW  275   2.907   3.231   3.694
   47SOL    HW1  276   2.986   3.260   3.740
   47SOL    HW2  277   2.866   3.311   3.663
   48SOL     OW  278   0.445   3.613   0.494
   48SOL    HW1  279   0.401   3.638   0.575
   48SOL    HW2  280   0.515   3.678   0.483
   49SOL     OW  281   2.597   3.221   2.674
   49SOL    HW1  282   2.690   3.228   2.654
   49SOL    HW2  283   2.555   3.286   2.617
   50SOL     OW  284   3.641   1.732   2.831
   50SOL    HW1  285   3.637   1.748   2.737
   50SOL    HW2  286   3.643   1.820   2.870
   51SOL     OW  287   3.357   1.208   3.565
   51SOL    HW1  288   3.319   1.150   3.500
   51SOL    HW2  289   3.342   1.164   3.649
   52SOL     OW  290   0.459   1.979   2.226
   52SOL    HW1  291   0.372   1.943   2.244
   52SOL    HW2  292   0.516   1.903   2.223
   53SOL     OW  293   0.021   0.491   2.670
   53SOL    HW1  294   0.060   0.425   2.612
   53SOL    HW2  295  -0.074   0.481   2.656
   54SOL     OW  296   0.986   0.092   3.324
   54SOL    HW1  297   0.895   0.119   3.334
   54SOL    HW2  298   1.003   0.035   3.400
   55SOL     OW  299   3.000   1.115   3.377
   55SOL    HW1  300   2.965   1.071   3.454
   55SOL    HW2  301   3.071   1.058   3.347
   56SOL     OW  302   3.541   1.075   2.259
   56SOL    HW1  303   3.470   1.091   2.320
   56SOL    HW2  304   3.507   1.104   2.174
   57SOL     OW  305   3.160   1.096   3.739
   57SOL    HW1  306   3.088   1.048   3.699
   57SOL    HW2  307   3.119   1.172   3.779
   58SOL     OW  308   3.601   3.384   1.996
   58SOL    HW1  309   3.544   3.346   1.929
   58SOL    HW2  310   3.680   3.411   1.949
   59SOL     OW  311   1.726   2.519   2.644
   59SOL    HW1  312   1.655   2.454   2.644
   59SOL    HW2  313   1.685   2.599   2.611
   60SOL     OW  314   0.530   3.261   3.788
   60SOL    HW1  315   0.561   3.350   3.803
   60SOL    HW2  316   0.439   3.271   3.760
   61SOL     OW  317   1.515   3.699   3.897
   61SOL    HW1  318   1.433   3.746   3.882
   61SOL    HW2  319   1.489   3.616   3.937
   62SOL     OW  320   3.354   3.176   3.147
   62SOL    HW1  321   3.428   3.126   3.180
   62SOL    HW2  322   3.312   3.211   3.225
   63SOL     OW  323   3.348   0.608   3.487
   63SOL    HW1  324   3.397   0.679   3.528
   63SOL    HW2  325   3.333   0.637   3.397
   64SOL     OW  326   0.828   0.774   0.324
   64SOL    HW1  327   0.854   0.692   0.366
   64SOL    HW2  328   0.905   0.830   0.330
   65SOL     OW  329   2.227   1.488   1.753
   65SOL    HW1  330   2.190   1.576   1.763
   65SOL    HW2  331   2.272   1.471   1.836
   66SOL     OW  332   1.761   2.803   3.762
   66SOL    HW1  333   1.712   2.827   3.683
   66SOL    HW2  334   1.830   2.745   3.730
   67SOL     OW  335   2.300   2.060   0.245
   67SOL    HW1  336   2.229   2.114   0.212
   67SOL    HW2  337   2.259   1.975   0.262
   68SOL     OW  338   0.105   2.043   3.413
   68SOL    HW1  339   0.125   1.970   3.471
   68SOL    HW2  340   0.039   2.094   3.461
   69SOL     OW  341   2.829   3.918   1.754
   69SOL    HW1  342   2.880   3.984   1.801
   69SOL    HW2  343   2.784   3.869   1.823
   70SOL     OW  344   0.674   2.800   0.917
   70SOL    HW1  345   0.675   2.709   0.889
   70SOL    HW2  346   0.673   2.796   1.012
   71SOL     OW  347   2.239   3.314   2.021
   71SOL    HW1  348   2.267   3.299   2.112
   71SOL    HW2  349   2.268   3.403   2.002
   72SOL     OW  350   3.864   1.643   0.713
   72SOL    HW1  351   3.907   1.641   0.798
   72SOL    HW2  352   3.810   1.722   0.715
   73SOL     OW  353   0.446   1.574   0.975
   73SOL    HW1  354   0.400   1.574   0.890
   73SOL    HW2  355   0.482   1.662   0.982
   74SOL     OW  356   1.107   1.944   0.884
   74SOL    HW1  357   1.022   1.980   0.858
   74SOL    HW2  358   1.093   1.914   0.974
   75SOL     OW  359   2.415   2.381   0.678
   75SOL    HW1  360   2.397   2.375   0.584
   75SOL    HW2  361   2.410   2.291   0.709
   76SOL     OW  362   1.289   1.327   0.687
   76SOL    HW1  363   1.234   1.310   0.765
   76SOL    HW2  364   1.293   1.422   0.681
   77SOL     OW  365   1.810   2.155   2.955
   77SOL    HW1  366   1.840   2.236   2.915
   77SOL    HW2  367   1.724   2.175   2.990
   78SOL     OW  368   0.855   2.442   0.385
   78SOL    HW1  369   0.854   2.482   0.472
   78SOL    HW2  370   0.903   2.360   0.398
   79SOL     OW  371   0.745   0.726   2.456
   79SOL    HW1  372   0.778   0.782   2.386
   79SOL    HW2  373   0.705   0.652   2.410
   80SOL     OW  374   0.975   3.484   1.104
   80SOL    HW1  375   1.034   3.421   1.062
   80SOL    HW2  376   0.956   3.446   1.190
   81SOL     OW  377   1.331   2.176   2.684
   81SOL    HW1  378   1.322   2.176   2.779
   81SOL    HW2  379   1.341   2.084   2.660
   82SOL     OW  380   1.475   3.152   0.093
   82SOL    HW1  381   1.549   3.091   0.094
   82SOL    HW2  382   1.460   3.173   0.185
   83SOL     OW  383   1.808   2.267   1.572
   83SOL    HW1  384   1.838   2.183   1.537
   83SOL    HW2  385   1.795   2.251   1.666
   84SOL     OW  386   3.006   0.436   1.825
   84SOL    HW1  387   3.062   0.375   1.871
   84SOL    HW2  388   2.922   0.433   1.872
   85SOL     OW  389   0.793   3.851   3.484
   85SOL    HW1  390   0.844   3.908   3.541
   85SOL    HW2  391   0.835   3.765   3.493
   86SOL     OW  392   3.208   2.739   3.156
   86SOL    HW1  393   3.194   2.661   3.209
   86SOL    HW2  394   3.176   2.716   3.069
   87SOL     OW  395   3.633   2.779   1.406
   87SOL    HW1  396   3.654   2.790   1.314
   87SOL    HW2  397   3.624   2.868   1.440
   88SOL     OW  398   0.497   3.344   2.063
   88SOL    HW1  399   0.507   3.262   2.015
   88SOL    HW2  400   0.437   3.396   2.010
   89SOL     OW  401   3.226   1.486   0.845
   89SOL    HW1  402   3.206   1.569   0.887
   89SOL    HW2  403   3.320   1.490   0.827
   90SOL     OW  404   2.825   2.112   0.919
   90SOL    HW1  405   2.860   2.188   0.872
   90SOL    HW2  406   2.779   2.150   0.994
   91SOL     OW  407   3.317   3.059   1.458
   91SOL    HW1  408   3.408   3.078   1.435
   91SOL    HW2  409   3.271   3.141   1.440
   92SOL     OW  410   0.577   2.106   3.554
   92SOL    HW1  411   0.535   2.192   3.559
   92SOL    HW2  412   0.511   2.045   3.587
   93SOL     OW  413   1.921   2.674   3.076
   93SOL    HW1  414   1.889   2.618   3.006
   93SOL    HW2  415   1.975   2.739   3.032
   94SOL     OW  416   0.576   2.123   1.462
   94SOL    HW1  417   0.629   2.183   1.515
   94SOL    HW2  418   0.550   2.176   1.386
   95SOL     OW  419   3.779   3.014   0.683
   95SOL    HW1  420   3.686   2.992   0.688
   95SOL    HW2  421   3.809   2.977   0.600
   96SOL     OW  422   3.111   3.079   1.887
   96SOL    HW1  423   3.038   3.019   1.872
   96SOL    HW2  424   3.178   3.053   1.823
   97SOL     OW  425   0.401   0.831   0.092
   97SOL    HW1  426   0.491   0.802   0.074
   97SOL    HW2  427   0.407   0.878   0.175
   98SOL     OW  428   0.199   1.343   3.469
   98SOL    HW1  429   0.132   1.394   3.515
   98SOL    HW2  430   0.154   1.265   3.437
   99SOL     OW  431   2.038   3.739   0.322
   99SOL    HW1  432   2.000   3.809   0.268
   99SOL    HW2  433   1.965   3.678   0.336
  100SOL     OW  434   3.724   0.425   2.652
  100SOL    HW1  435   3.693   0.335   2.663
  100SOL    HW2  436   3.651   0.471   2.611
  101SOL     OW  437   1.805   3.290   0.399
  101SOL    HW1  438   1.772   3.214   0.446
  101SOL    HW2  439   1.838   3.254   0.316
  102SOL     OW  440   0.245   2.663   0.721
  102SOL    HW1  441   0.165   2.674   0.670
  102SOL    HW2  442   0.230   2.713   0.801
  103SOL     OW  443   2.839   1.940   2.549
  103SOL    HW1  444   2.836   1.930   2.454
  103SOL    HW2  445   2.911   2.000   2.564
  104SOL     OW  446   2.953   1.575   0.638
  104SOL    HW1  447   2.986   1.647   0.586
  104SOL    HW2  448   3.031   1.535   0.677
  105SOL     OW  449   2.449   2.111   0.752
  105SOL    HW1  450   2.514   2.126   0.820
  105SOL    HW2  451   2.500   2.087   0.675
  106SOL     OW  452   1.344   0.067   3.476
  106SOL    HW1  453   1.309   0.155   3.470
  106SOL    HW2  454   1.432   0.073   3.437
  107SOL     OW  455   1.561   3.700   0.436
  107SOL    HW1  456   1.549   3.640   0.510
  107SOL    HW2  457   1.472   3.723   0.409
  108SOL     OW  458   3.265   0.979   0.543
  108SOL    HW1  459   3.245   0.897   0.498
  108SOL    HW2  460   3.359   0.975   0.561
  109SOL     OW  461   1.075   1.379   1.987
  109SOL    HW1  462   1.103   1.392   1.896
  109SOL    HW2  463   1.155   1.352   2.033
  110SOL     OW  464   1.236   1.734  -0.008
  110SOL    HW1  465   1.182   1.670   0.039
  110SOL    HW2  466   1.190   1.817   0.001
  111SOL     OW  467   3.922   2.694   1.084
  111SOL    HW1  468   3.844   2.707   1.031
  111SOL    HW2  469   3.994   2.726   1.030
  112SOL     OW  470   3.709   3.531   3.270
  112SOL    HW1  471   3.789   3.527   3.322
  112SOL    HW2  472   3.687   3.624   3.267
  113SOL     OW  473   1.640   1.617   0.151
  113SOL    HW1  474   1.623   1.613   0.057
  113SOL    HW2  475   1.559   1.589   0.192
  114SOL     OW  476   0.962   2.248   3.696
  114SOL    HW1  477   1.057   2.236   3.694
  114SOL    HW2  478   0.950   2.342   3.685
  115SOL     OW  479   1.403   3.349   2.525
  115SOL    HW1  480   1.430   3.393   2.444
  115SOL    HW2  481   1.308   3.338   2.515
  116SOL     OW  482   3.939   0.408   3.265
  116SOL    HW1  483   3.950   0.313   3.278
  116SOL    HW2  484   3.894   0.416   3.182
  117SOL     OW  485   3.018   1.082   2.462
  117SOL    HW1  486   3.010   0.990   2.488
  117SOL    HW2  487   3.111   1.101   2.470
  118SOL     OW  488   1.604   0.508   3.293
  118SOL    HW1  489   1.673   0.497   3.358
  118SOL    HW2  490   1.542   0.568   3.334
  119SOL     OW  491   3.154   1.405   1.140
  119SOL    HW1  492   3.215   1.433   1.071
  119SOL    HW2  493   3.088   1.474   1.143
  120SOL     OW  494   2.380   2.880   0.514
  120SOL    HW1  495   2.414   2.793   0.534
  120SOL    HW2  496   2.317   2.866   0.443
  121SOL     OW  497   3.137   0.434   2.585
  121SOL    HW1  498   3.102   0.494   2.519
  121SOL    HW2  499   3.186   0.490   2.645
  122SOL     OW  500   1.139   3.719   1.052
  122SOL    HW1  501   1.070   3.667   1.093
  122SOL    HW2  502   1.109   3.810   1.061
  123SOL     OW  503   0.073   1.976   3.744
  123SOL    HW1  504   0.038   1.937   3.824
  123SOL    HW2  505   0.022   2.057   3.732
  124SOL     OW  506   0.398   0.507   2.761
  124SOL    HW1  507   0.313   0.464   2.757
  124SOL    HW2  508   0.384   0.593   2.720
  125SOL     OW  509   2.625   1.772   1.918
  125SOL    HW1  510   2.641   1.718   1.841
  125SOL    HW2  511   2.710   1.809   1.940
  126SOL     OW  512   2.660   1.176   0.217
  126SOL    HW1  513   2.693   1.228   0.144
  126SOL    HW2  514   2.637   1.240   0.284
  127SOL     OW  515   0.200   2.642   2.452
  127SOL    HW1  516   0.195   2.733   2.422
  127SOL    HW2  517   0.132   2.597   2.402
  128SOL     OW  518   3.526   3.477   1.463
  128SOL    HW1  519   3.599   3.418   1.448
  128SOL    HW2  520   3.555   3.535   1.533
  129SOL     OW  521   0.018   3.253   0.196
  129SOL    HW1  522   0.076   3.297   0.135
  129SOL    HW2  523   0.075   3.221   0.265
  130SOL     OW  524   1.410   3.805   1.347
  130SOL    HW1  525   1.462   3.869   1.395
  130SOL    HW2  526   1.420   3.829   1.255
  131SOL     OW  527   1.394   1.592   1.634
  131SOL    HW1  528   1.435   1.511   1.603
  131SOL    HW2  529   1.460   1.659   1.618
  132SOL     OW  530   1.325   3.248   2.949
  132SOL    HW1  531   1.405   3.206   2.982
  132SOL    HW2  532   1.295   3.303   3.021
  133SOL     OW  533   2.948   0.625   1.569
  133SOL    HW1  534   2.866   0.663   1.537
  133SOL    HW2  535   2.945   0.534   1.539
  134SOL     OW  536   3.596   0.637   3.267
  134SOL    HW1  537   3.541   0.700   3.220
  134SOL    HW2  538   3.609   0.676   3.353
  135SOL     OW  539   3.103   2.695   1.859
  135SOL    HW1  540   3.142   2.663   1.778
  135SOL    HW2  541   3.172   2.748   1.900
  136SOL     OW  542   3.471   2.299   3.484
  136SOL    HW1  543   3.508   2.279   3.570
  136SOL    HW2  544   3.470   2.215   3.439
  137SOL     OW  545   2.604   0.370   3.745
  137SOL    HW1  546   2.553   0.449   3.724
  137SOL    HW2  547   2.567   0.302   3.688
  138SOL     OW  548   1.180   3.048   3.673
  138SOL    HW1  549   1.198   2.956   3.694
  138SOL    HW2  550   1.222   3.098   3.744
  139SOL     OW  551   2.994   3.177   2.371
  139SOL    HW1  552   2.986   3.218   2.456
  139SOL    HW2  553   2.906   3.182   2.332
  140SOL     OW  554   0.082   3.666   3.079
  140SOL    HW1  555  -0.006   3.636   3.104
  140SOL    HW2  556   0.140   3.626   3.143
  141SOL     OW  557   2.499   1.735   2.156
  141SOL    HW1  558   2.415   1.780   2.149
  141SOL    HW2  559   2.544   1.755   2.074
  142SOL     OW  560   0.483   3.617   3.458
  142SOL    HW1  561   0.500   3.711   3.464
  142SOL    HW2  562   0.390   3.608   3.478
  143SOL     OW  563   0.280   3.503   2.020
  143SOL    HW1  564   0.266   3.573   1.957
  143SOL    HW2  565   0.278   3.546   2.106
  144SOL     OW  566   2.498   3.186   0.289
  144SOL    HW1  567   2.579   3.152   0.250
  144SOL    HW2  568   2.431   3.168   0.223
  145SOL     OW  569   1.216   1.051   1.268
  145SOL    HW1  570   1.122   1.064   1.254
  145SOL    HW2  571   1.250   1.030   1.181
  146SOL     OW  572   1.927   1.853   2.145
  146SOL    HW1  573   1.972   1.791   2.087
  146SOL    HW2  574   1.838   1.818   2.150
  147SOL     OW  575   1.300   0.985  -0.001
  147SOL    HW1  576   1.317   1.079   0.010
  147SOL    HW2  577   1.222   0.968   0.051
  148SOL     OW  578   3.562   3.740   3.232
  148SOL    HW1  579   3.651   3.771   3.243
  148SOL    HW2  580   3.507   3.810   3.267
  149SOL     OW  581   2.500   3.918   1.072
  149SOL    HW1  582   2.550   3.929   1.153
  149SOL    HW2  583   2.443   3.994   1.067
  150SOL     OW  584   1.053   3.531   0.147
  150SOL    HW1  585   1.045   3.477   0.068
  150SOL    HW2  586   1.023   3.474   0.218
  151SOL     OW  587   0.440   3.359   0.724
  151SOL    HW1  588   0.441   3.284   0.664
  151SOL    HW2  589   0.348   3.372   0.744
  152SOL     OW  590   2.215   0.921   0.825
  152SOL    HW1  591   2.129   0.959   0.809
  152SOL    HW2  592   2.276   0.987   0.792
  153SOL     OW  593   2.907   1.198   1.434
  153SOL    HW1  594   2.900   1.159   1.347
  153SOL    HW2  595   2.844   1.149   1.487
  154SOL     OW  596   2.824   2.487   0.773
  154SOL    HW1  597   2.799   2.458   0.685
  154SOL    HW2  598   2.799   2.579   0.776
  155SOL     OW  599   1.671   3.006   0.524
  155SOL    HW1  600   1.704   2.916   0.530
  155SOL    HW2  601   1.578   2.996   0.503
  156SOL     OW  602   0.966   0.459   3.482
  156SOL    HW1  603   0.990   0.535   3.429
  156SOL    HW2  604   0.970   0.490   3.573
  157SOL     OW  605   2.696   2.459   0.529
  157SOL    HW1  606   2.766   2.475   0.466
  157SOL    HW2  607   2.657   2.376   0.502
  158SOL     OW  608   3.583   0.858   2.838
  158SOL    HW1  609   3.662   0.804   2.844
  158SOL    HW2  610   3.616   0.944   2.812
  159SOL     OW  611   1.494   0.273   0.709
  159SOL    HW1  612   1.421   0.286   0.769
  159SOL    HW2  613   1.455   0.228   0.633
  160SOL     OW  614   1.766   2.934   1.475
  160SOL    HW1  615   1.759   2.984   1.556
  160SOL    HW2  616   1.695   2.871   1.479
  161SOL     OW  617   2.915   2.097   1.279
  161SOL    HW1  618   2.945   2.114   1.368
  161SOL    HW2  619   2.943   2.174   1.229
  162SOL     OW  620   0.643   0.864   2.690
  162SOL    HW1  621   0.585   0.916   2.634
  162SOL    HW2  622   0.691   0.808   2.629
  163SOL     OW  623   1.312   1.552   2.730
  163SOL    HW1  624   1.260   1.499   2.670
  163SOL    HW2  625   1.403   1.536   2.703
  164SOL     OW  626   0.688   0.718   0.014
  164SOL    HW1  627   0.714   0.698   0.104
  164SOL    HW2  628   0.766   0.756  -0.026
  165SOL     OW  629   3.371   0.882   1.920
  165SOL    HW1  630   3.308   0.813   1.900
  165SOL    HW2  631   3.445   0.866   1.860
  166SOL     OW  632   1.826   3.098   3.765
  166SOL    HW1  633   1.876   3.075   3.686
  166SOL    HW2  634   1.812   3.014   3.809
  167SOL     OW  635   1.951   0.191   0.066
  167SOL    HW1  636   1.938   0.106   0.109
  167SOL    HW2  637   1.931   0.175  -0.026
  168SOL     OW  638   3.443   1.385   3.363
  168SOL    HW1  639   3.434   1.339   3.447
  168SOL    HW2  640   3.409   1.473   3.381
  169SOL     OW  641   0.880   3.570   3.501
  169SOL    HW1  642   0.878   3.486   3.548
  169SOL    HW2  643   0.859   3.547   3.411
  170SOL     OW  644   1.252   1.137   1.894
  170SOL    HW1  645   1.296   1.130   1.809
  170SOL    HW2  646   1.160   1.149   1.873
  171SOL     OW  647   3.544   3.668   3.875
  171SOL    HW1  648   3.520   3.579   3.850
  171SOL    HW2  649   3.463   3.706   3.910
  172SOL     OW  650   0.844   0.127   0.363
  172SOL    HW1  651   0.869   0.059   0.301
  172SOL    HW2  652   0.778   0.087   0.418
  173SOL     OW  653   1.183   3.323   1.347
  173SOL    HW1  654   1.189   3.275   1.264
  173SOL    HW2  655   1.200   3.414   1.323
  174SOL     OW  656   3.412   0.568   0.667
  174SOL    HW1  657   3.344   0.502   0.682
  174SOL    HW2  658   3.371   0.631   0.608
  175SOL     OW  659   2.160   0.226   0.278
  175SOL    HW1  660   2.211   0.307   0.272
  175SOL    HW2  661   2.088   0.248   0.337
  176SOL     OW  662   3.970   1.339   0.826
  176SOL    HW1  663   3.883   1.328   0.865
  176SOL    HW2  664   4.005   1.250   0.821
  177SOL     OW  665   2.759   1.456   1.525
  177SOL    HW1  666   2.807   1.374   1.515
  177SOL    HW2  667   2.673   1.439   1.488
  178SOL     OW  668   1.623   1.857   3.371
  178SOL    HW1  669   1.698   1.889   3.320
  178SOL    HW2  670   1.654   1.859   3.462
  179SOL     OW  671   2.054   3.508   2.444
  179SOL    HW1  672   2.053   3.505   2.539
  179SOL    HW2  673   2.002   3.584   2.421
  180SOL     OW  674   0.462   0.762   3.047
  180SOL    HW1  675   0.514   0.708   3.106
  180SOL    HW2  676   0.518   0.837   3.027
  181SOL     OW  677   3.467   2.705   3.259
  181SOL    HW1  678   3.372   2.712   3.247
  181SOL    HW2  679   3.486   2.760   3.335
  182SOL     OW  680   2.744   2.199   0.019
  182SOL    HW1  681   2.663   2.150   0.025
  182SOL    HW2  682   2.726   2.282   0.064
  183SOL     OW  683   0.608   1.177   3.620
  183SOL    HW1  684   0.611   1.230   3.541
  183SOL    HW2  685   0.526   1.128   3.614
  184SOL     OW  686   1.155   2.585   0.893
  184SOL    HW1  687   1.234   2.635   0.877
  184SOL    HW2  688   1.184   2.494   0.893
  185SOL     OW  689   1.523   0.667   2.743
  185SOL    HW1  690   1.453   0.718   2.702
  185SOL    HW2  691   1.603   0.710   2.715
  186SOL     OW  692   1.687   1.701   2.041
  186SOL    HW1  693   1.604   1.656   2.059
  186SOL    HW2  694   1.731   1.645   1.978
  187SOL     OW  695   3.329   2.841   1.908
  187SOL    HW1  696   3.358   2.916   1.856
  187SOL    HW2  697   3.405   2.782   1.909
  188SOL     OW  698   2.886   3.419   1.780
  188SOL    HW1  699   2.796   3.388   1.767
  188SOL    HW2  700   2.886   3.458   1.867
  189SOL     OW  701   1.852   2.474   3.869
  189SOL    HW1  702   1.757   2.472   3.852
  189SOL    HW2  703   1.889   2.504   3.786
  190SOL     OW  704   3.773   2.894   0.420
  190SOL    HW1  705   3.737   2.813   0.384
  190SOL    HW2  706   3.802   2.943   0.343
  191SOL     OW  707   1.496   2.401   0.809
  191SOL    HW1  708   1.409   2.397   0.849
  191SOL    HW2  709   1.483   2.453   0.730
  192SOL     OW  710   2.886   2.887   1.881
  192SOL    HW1  711   2.946   2.814   1.869
  192SOL    HW2  712   2.800   2.847   1.891
  193SOL     OW  713   0.374   3.181   1.793
  193SOL    HW1  714   0.407   3.227   1.716
  193SOL    HW2  715   0.287   3.218   1.808
  194SOL     OW  716   0.038   1.498   3.606
  194SOL    HW1  717  -0.033   1.498   3.670
  194SOL    HW2  718   0.062   1.590   3.596
  195SOL     OW  719   1.908   2.739   3.353
  195SOL    HW1  720   1.901   2.706   3.263
  195SOL    HW2  721   1.998   2.770   3.361
  196SOL     OW  722   1.430   1.606   0.873
  196SOL    HW1  723   1.418   1.699   0.854
  196SOL    HW2  724   1.386   1.561   0.800
  197SOL     OW  725   0.595   1.929   3.938
  197SOL    HW1  726   0.680   1.889   3.918
  197SOL    HW2  727   0.571   1.893   4.023
  198SOL     OW  728   2.399   3.017   1.533
  198SOL    HW1  729   2.433   2.928   1.540
  198SOL    HW2  730   2.411   3.041   1.441
  199SOL     OW  731   1.454   3.173   3.187
  199SOL    HW1  732   1.379   3.123   3.219
  199SOL    HW2  733   1.524   3.109   3.178
  200SOL     OW  734   3.190   0.360   0.674
  200SOL    HW1  735   3.131   0.415   0.623
  200SOL    HW2  736   3.137   0.284   0.698
  201SOL     OW  737   0.833   1.481   1.841
  201SOL    HW1  738   0.859   1.570   1.867
  201SOL    HW2  739   0.880   1.424   1.902
  202SOL     OW  740   1.034   0.967   1.501
  202SOL    HW1  741   1.058   0.907   1.572
  202SOL    HW2  742   1.117   0.985   1.457
  203SOL     OW  743   3.451   2.215   2.301
  203SOL    HW1  744   3.527   2.272   2.289
  203SOL    HW2  745   3.410   2.212   2.215
  204SOL     OW  746   0.095   3.194   2.544
  204SOL    HW1  747   0.074   3.282   2.576
  204SOL    HW2  748   0.013   3.160   2.511
  205SOL     OW  749   0.411   1.439   2.608
  205SOL    HW1  750   0.331   1.459   2.656
  205SOL    HW2  751   0.381   1.407   2.523
  206SOL     OW  752   1.086   3.779   2.328
  206SOL    HW1  753   1.075   3.863   2.371
  206SOL    HW2  754   1.172   3.784   2.287
  207SOL     OW  755   0.208  -0.030   1.672
  207SOL    HW1  756   0.215   0.038   1.605
  207SOL    HW2  757   0.172   0.016   1.749
  208SOL     OW  758   0.554   1.823   0.212
  208SOL    HW1  759   0.522   1.737   0.184
  208SOL    HW2  760   0.640   1.806   0.250
  209SOL     OW  761   2.383   3.517   3.545
  209SOL    HW1  762   2.432   3.518   3.463
  209SOL    HW2  763   2.298   3.480   3.522
  210SOL     OW  764   0.864   0.640   2.146
  210SOL    HW1  765   0.855   0.576   2.217
  210SOL    HW2  766   0.952   0.625   2.112
  211SOL     OW  767   2.666   2.028   1.414
  211SOL    HW1  768   2.750   2.034   1.368
  211SOL    HW2  769   2.611   2.095   1.372
  212SOL     OW  770   1.061   2.021   0.347
  212SOL    HW1  771   1.086   1.956   0.412
  212SOL    HW2  772   0.967   2.010   0.336
  213SOL     OW  773   0.236   3.656   3.608
  213SOL    HW1  774   0.155   3.623   3.647
  213SOL    HW2  775   0.270   3.719   3.672
  214SOL     OW  776   3.868   2.182   0.332
  214SOL    HW1  777   3.848   2.154   0.243
  214SOL    HW2  778   3.879   2.101   0.381
  215SOL     OW  779   2.716   0.131   1.557
  215SOL    HW1  780   2.725   0.077   1.635
  215SOL    HW2  781   2.666   0.208   1.585
  216SOL     OW  782   0.935   0.656   3.773
  216SOL    HW1  783   0.864   0.636   3.712
  216SOL    HW2  784   0.921   0.749   3.795
  217SOL     OW  785   0.716   2.680   3.926
  217SOL    HW1  786   0.675   2.594   3.926
  217SOL    HW2  787   0.731   2.701   4.018
  218SOL     OW  788   3.540   2.484   3.055
  218SOL    HW1  789   3.517   2.562   3.104
  218SOL    HW2  790   3.497   2.495   2.970
  219SOL     OW  791   1.270   0.433   0.521
  219SOL    HW1  792   1.189   0.463   0.562
  219SOL    HW2  793   1.304   0.510   0.475
  220SOL     OW  794   2.920   2.190   2.857
  220SOL    HW1  795   3.011   2.202   2.830
  220SOL    HW2  796   2.916   2.229   2.944
  221SOL     OW  797   3.622   3.065   1.429
  221SOL    HW1  798   3.663   3.139   1.386
  221SOL    HW2  799   3.649   3.072   1.520
  222SOL     OW  800   2.602   2.087   2.350
  222SOL    HW1  801   2.574   2.153   2.287
  222SOL    HW2  802   2.662   2.030   2.301
  223SOL     OW  803   3.004   1.623   2.167
  223SOL    HW1  804   3.032   1.607   2.077
  223SOL    HW2  805   2.917   1.584   2.173
  224SOL     OW  806   3.765   2.328   3.025
  224SOL    HW1  807   3.732   2.409   3.063
  224SOL    HW2  808   3.855   2.322   3.056
  225SOL     OW  809   2.609   0.130   0.445
  225SOL    HW1  810   2.517   0.102   0.442
  225SOL    HW2  811   2.605   0.222   0.472
  226SOL     OW  812   2.428   3.660   3.899
  226SOL    HW1  813   2.464   3.664   3.988
  226SOL    HW2  814   2.381   3.743   3.889
  227SOL     OW  815   1.783   3.504   3.767
  227SOL    HW1  816   1.851   3.445   3.802
  227SOL    HW2  817   1.703   3.452   3.769
  228SOL     OW  818   2.141   1.726   1.695
  228SOL    HW1  819   2.110   1.811   1.727
  228SOL    HW2  820   2.179   1.744   1.610
  229SOL     OW  821   1.494   3.079   3.753
  229SOL    HW1  822   1.399   3.074   3.749
  229SOL    HW2  823   1.523   3.049   3.667
  230SOL     OW  824   2.613   3.424   0.808
  230SOL    HW1  825   2.570   3.452   0.727
  230SOL    HW2  826   2.658   3.343   0.785
  231SOL     OW  827   3.340   3.082   2.350
  231SOL    HW1  828   3.282   3.058   2.277
  231SOL    HW2  829   3.281   3.092   2.424
  232SOL     OW  830   2.051   2.942   3.613
  232SOL    HW1  831   2.123   2.989   3.656
  232SOL    HW2  832   2.086   2.918   3.527
  233SOL     OW  833   2.029   0.302   1.617
  233SOL    HW1  834   1.956   0.334   1.671
  233SOL    HW2  835   2.099   0.365   1.631
  234SOL     OW  836   0.468   0.965   0.317
  234SOL    HW1  837   0.442   0.952   0.408
  234SOL    HW2  838   0.524   1.042   0.318
  235SOL     OW  839   3.119   3.925   2.912
  235SOL    HW1  840   3.075   3.998   2.955
  235SOL    HW2  841   3.068   3.909   2.833
  236SOL     OW  842   3.836   3.486   1.176
  236SOL    HW1  843   3.843   3.435   1.095
  236SOL    HW2  844   3.764   3.547   1.160
  237SOL     OW  845   0.714   1.295   0.953
  237SOL    HW1  846   0.742   1.254   1.035
  237SOL    HW2  847   0.629   1.256   0.935
  238SOL     OW  848   1.453   3.313   0.526
  238SOL    HW1  849   1.482   3.250   0.592
  238SOL    HW2  850   1.534   3.340   0.482
  239SOL     OW  851   1.866   1.293   1.146
  239SOL    HW1  852   1.937   1.304   1.210
  239SOL    HW2  853   1.833   1.205   1.161
  240SOL     OW  854   1.909   0.687   0.340
  240SOL    HW1  855   1.972   0.651   0.277
  240SOL    HW2  856   1.871   0.762   0.295
  241SOL     OW  857   3.722   1.224   1.228
  241SOL    HW1  858   3.790   1.249   1.291
  241SOL    HW2  859   3.640   1.229   1.277
  242SOL     OW  860   3.461   2.622   0.490
  242SOL    HW1  861   3.522   2.607   0.418
  242SOL    HW2  862   3.487   2.707   0.526
  243SOL     OW  863   1.006   3.612   2.566
  243SOL    HW1  864   0.994   3.523   2.533
  243SOL    HW2  865   1.050   3.658   2.495
  244SOL     OW  866   2.461   2.716   0.941
  244SOL    HW1  867   2.547   2.746   0.912
  244SOL    HW2  868   2.402   2.789   0.921
  245SOL     OW  869   1.092   1.999   1.424
  245SOL    HW1  870   1.158   1.954   1.372
  245SOL    HW2  871   1.088   1.950   1.507
  246SOL     OW  872   2.425   1.466   2.907
  246SOL    HW1  873   2.364   1.505   2.845
  246SOL    HW2  874   2.512   1.485   2.871
  247SOL     OW  875   2.943   1.893   1.071
  247SOL    HW1  876   2.925   1.944   0.992
  247SOL    HW2  877   2.923   1.953   1.143
  248SOL     OW  878   0.072   2.876   2.387
  248SOL    HW1  879   0.039   2.943   2.448
  248SOL    HW2  880   0.085   2.923   2.305
  249SOL     OW  881   0.500   0.886   0.804
  249SOL    HW1  882   0.579   0.860   0.850
  249SOL    HW2  883   0.429   0.841   0.851
  250SOL     OW  884   1.133   3.154   1.564
  250SOL    HW1  885   1.182   3.081   1.527
  250SOL    HW2  886   1.136   3.222   1.496
  251SOL     OW  887   3.482   1.400   1.851
  251SOL    HW1  888   3.456   1.312   1.879
  251SOL    HW2  889   3.406   1.433   1.802
  252SOL     OW  890   3.902   0.929   2.747
  252SOL    HW1  891   3.816   0.920   2.705
  252SOL    HW2  892   3.949   0.990   2.691
  253SOL     OW  893   3.404   0.275   2.189
  253SOL    HW1  894   3.411   0.339   2.119
  253SOL    HW2  895   3.358   0.201   2.149
  254SOL     OW  896   3.367   1.220   3.148
  254SOL    HW1  897   3.404   1.258   3.228
  254SOL    HW2  898   3.437   1.229   3.083
  255SOL     OW  899   2.997   0.682   3.399
  255SOL    HW1  900   3.045   0.634   3.332
  255SOL    HW2  901   3.060   0.694   3.470
  256SOL     OW  902   2.336   0.177   3.424
  256SOL    HW1  903   2.271   0.107   3.430
  256SOL    HW2  904   2.378   0.179   3.510
  257SOL     OW  905   1.222   2.794   3.707
  257SOL    HW1  906   1.240   2.732   3.777
  257SOL    HW2  907   1.154   2.751   3.654
  258SOL     OW  908   3.522   0.460   1.681
  258SOL    HW1  909   3.517   0.554   1.667
  258SOL    HW2  910   3.615   0.439   1.679
  259SOL     OW  911   2.465   3.313   3.691
  259SOL    HW1  912   2.415   3.393   3.678
  259SOL    HW2  913   2.541   3.322   3.634
  260SOL     OW  914   0.877   2.983   1.344
  260SOL    HW1  915   0.928   3.026   1.276
  260SOL    HW2  916   0.870   3.048   1.414
  261SOL     OW  917   2.332   3.211   1.029
  261SOL    HW1  918   2.370   3.298   1.020
  261SOL    HW2  919   2.270   3.220   1.102
  262SOL     OW  920   2.863   1.900   2.256
  262SOL    HW1  921   2.951   1.862   2.256
  262SOL    HW2  922   2.805   1.826   2.277
  263SOL     OW  923   3.230   2.485   3.757
  263SOL    HW1  924   3.309   2.446   3.719
  263SOL    HW2  925   3.250   2.578   3.763
  264SOL     OW  926   3.413   3.038   1.727
  264SOL    HW1  927   3.356   3.036   1.650
  264SOL    HW2  928   3.467   3.116   1.714
  265SOL     OW  929   1.978   1.071   0.590
  265SOL    HW1  930   1.886   1.048   0.603
  265SOL    HW2  931   1.994   1.055   0.498
  266SOL     OW  932   1.000   0.506   2.915
  266SOL    HW1  933   1.071   0.497   2.979
  266SOL    HW2  934   1.027   0.579   2.860
  267SOL     OW  935   2.800   3.177   2.968
  267SOL    HW1  936   2.892   3.198   2.958
  267SOL    HW2  937   2.754   3.258   2.946
  268SOL     OW  938   1.875   0.386   1.130
  268SOL    HW1  939   1.898   0.476   1.108
  268SOL    HW2  940   1.792   0.393   1.177
  269SOL     OW  941   2.387   1.982   3.873
  269SOL    HW1  942   2.340   2.065   3.886
  269SOL    HW2  943   2.328   1.929   3.820
  270SOL     OW  944   2.802   0.464   0.303
  270SOL    HW1  945   2.834   0.373   0.308
  270SOL    HW2  946   2.718   0.462   0.349
  271SOL     OW  947   3.739   1.978   3.285
  271SOL    HW1  948   3.810   1.973   3.221
  271SOL    HW2  949   3.676   2.040   3.246
  272SOL     OW  950   3.061   0.802   0.670
  272SOL    HW1  951   3.152   0.794   0.643
  272SOL    HW2  952   3.042   0.721   0.717
  273SOL     OW  953   3.942   3.196   1.748
  273SOL    HW1  954   3.999   3.272   1.738
  273SOL    HW2  955   3.917   3.197   1.840
  274SOL     OW  956   2.981   0.196   2.581
  274SOL    HW1  957   2.953   0.187   2.490
  274SOL    HW2  958   3.042   0.269   2.580
  275SOL     OW  959   0.718   0.378   0.958
  275SOL    HW1  960   0.646   0.373   0.895
  275SOL    HW2  961   0.735   0.286   0.981
  276SOL     OW  962   2.350  -0.010   1.315
  276SOL    HW1  963   2.379   0.052   1.382
  276SOL    HW2  964   2.306   0.045   1.250
  277SOL     OW  965   3.329   0.647   2.240
  277SOL    HW1  966   3.239   0.666   2.266
  277SOL    HW2  967   3.322   0.618   2.149
  278SOL     OW  968   1.750   2.668   1.684
  278SOL    HW1  969   1.757   2.613   1.763
  278SOL    HW2  970   1.657   2.690   1.679
  279SOL     OW  971   1.522   2.581   3.703
  279SOL    HW1  972   1.459   2.649   3.725
  279SOL    HW2  973   1.578   2.572   3.780
  280SOL     OW  974   0.704   0.087   2.790
  280SOL    HW1  975   0.691   0.094   2.885
  280SOL    HW2  976   0.798   0.104   2.778
  281SOL     OW  977   0.802   3.160   0.643
  281SOL    HW1  978   0.819   3.132   0.552
  281SOL    HW2  979   0.791   3.255   0.637
  282SOL     OW  980   0.475   1.160   0.859
  282SOL    HW1  981   0.420   1.133   0.933
  282SOL    HW2  982   0.498   1.079   0.815
  283SOL     OW  983   3.760   3.304   1.348
  283SOL    HW1  984   3.762   3.368   1.277
  283SOL    HW2  985   3.798   3.350   1.423
  284SOL     OW  986   0.066   2.329   3.856
  284SOL    HW1  987   0.124   2.318   3.931
  284SOL    HW2  988  -0.007   2.382   3.889
  285SOL     OW  989   1.748   2.943   2.505
  285SOL    HW1  990   1.727   2.866   2.453
  285SOL    HW2  991   1.688   3.011   2.472
  286SOL     OW  992   3.505   1.629   2.348
  286SOL    HW1  993   3.435   1.642   2.412
  286SOL    HW2  994   3.480   1.682   2.273
  287SOL     OW  995   1.601   2.669   1.946
  287SOL    HW1  996   1.632   2.667   2.037
  287SOL    HW2  997   1.521   2.720   1.948
  288SOL     OW  998   2.465   1.278   2.652
  288SOL    HW1  999   2.531   1.234   2.705
  288SOL    HW2 1000   2.400   1.308   2.716
  289SOL     OW 1001   0.954   0.572   0.628
  289SOL    HW1 1002   0.915   0.496   0.586
  289SOL    HW2 1003   0.968   0.545   0.719
  290SOL     OW 1004   1.919   1.695   0.162
  290SOL    HW1 1005   1.947   1.667   0.075
  290SOL    HW2 1006   1.823   1.695   0.159
  291SOL     OW 1007   0.681   0.579   1.172
  291SOL    HW1 1008   0.589   0.554   1.167
  291SOL    HW2 1009   0.721   0.538   1.096
  292SOL     OW 1010   0.570   2.816   1.803
  292SOL    HW1 1011   0.540   2.876   1.735
  292SOL    HW2 1012   0.651   2.855   1.835
  293SOL     OW 1013   0.222   0.321   3.518
  293SOL    HW1 1014   0.171   0.275   3.585
  293SOL    HW2 1015   0.302   0.268   3.509
  294SOL     OW 1016   1.136   3.642   3.447
  294SOL    HW1 1017   1.128   3.736   3.431
  294SOL    HW2 1018   1.046   3.610   3.453
  295SOL     OW 1019   2.562   2.937   0.091
  295SOL    HW1 1020   2.589   2.848   0.068
  295SOL    HW2 1021   2.593   2.991   0.019
  296SOL     OW 1022   0.276   3.549   2.541
  296SOL    HW1 1023   0.325   3.493   2.601
  296SOL    HW2 1024   0.340   3.578   2.477
  297SOL     OW 1025   1.155   0.210   0.121
  297SOL    HW1 1026   1.238   0.248   0.093
  297SOL    HW2 1027   1.163   0.202   0.216
  298SOL     OW 1028   0.409   0.575   1.173
  298SOL    HW1 1029   0.363   0.505   1.126
  298SOL    HW2 1030   0.415   0.544   1.263
  299SOL     OW 1031   1.544   3.146   1.333
  299SOL    HW1 1032   1.500   3.116   1.413
  299SOL    HW2 1033   1.539   3.242   1.338
  300SOL     OW 1034   3.765   1.640   0.104
  300SOL    HW1 1035   3.737   1.639   0.013
  300SOL    HW2 1036   3.712   1.708   0.145
  301SOL     OW 1037   1.414   1.913   0.316
  301SOL    HW1 1038   1.473   1.918   0.241
  301SOL    HW2 1039   1.468   1.937   0.391
  302SOL     OW 1040   3.032   3.400   3.039
  302SOL    HW1 1041   3.098   3.457   3.001
  302SOL    HW2 1042   3.058   3.311   3.014
  303SOL     OW 1043   0.142   3.394   1.762
  303SOL    HW1 1044   0.216   3.408   1.704
  303SOL    HW2 1045   0.119   3.482   1.793
  304SOL     OW 1046   0.700   1.752   0.618
  304SOL    HW1 1047   0.751   1.786   0.691
  304SOL    HW2 1048   0.760   1.693   0.572
  305SOL     OW 1049   2.879   1.962   0.356
  305SOL    HW1 1050   2.819   1.888   0.348
  305SOL    HW2 1051   2.825   2.035   0.385
  306SOL     OW 1052   1.184   0.142   2.137
  306SOL    HW1 1053   1.210   0.052   2.119
  306SOL    HW2 1054   1.215   0.159   2.226
  307SOL     OW 1055   2.906   1.246   0.763
  307SOL    HW1 1056   2.956   1.251   0.682
  307SOL    HW2 1057   2.972   1.241   0.832
  308SOL     OW 1058   3.933   1.854   0.031
  308SOL    HW1 1059   4.001   1.840   0.097
  308SOL    HW2 1060   3.860   1.799   0.060
  309SOL     OW 1061   3.632   1.599   0.476
  309SOL    HW1 1062   3.693   1.554   0.418
  309SOL    HW2 1063   3.681   1.615   0.556
  310SOL     OW 1064   2.133   2.552   1.967
  310SOL    HW1 1065   2.101   2.630   1.923
  310SOL    HW2 1066   2.133   2.575   2.060
  311SOL     OW 1067   2.779   2.444   3.028
  311SOL    HW1 1068   2.704   2.390   3.054
  311SOL    HW2 1069   2.781   2.437   2.932
  312SOL     OW 1070   0.694   0.431   2.654
  312SOL    HW1 1071   0.606   0.436   2.691
  312SOL    HW2 1072   0.745   0.384   2.720
  313SOL     OW 1073   3.581   0.317   0.339
  313SOL    HW1 1074   3.573   0.228   0.303
  313SOL    HW2 1075   3.491   0.344   0.355
  314SOL     OW 1076   0.672   1.163   1.205
  314SOL    HW1 1077   0.650   1.248   1.242
  314SOL    HW2 1078   0.588   1.122   1.186
  315SOL     OW 1079   3.134   2.486   1.528
  315SOL    HW1 1080   3.124   2.430   1.451
  315SOL    HW2 1081   3.228   2.506   1.531
  316SOL     OW 1082   1.331   3.481   2.263
  316SOL    HW1 1083   1.417   3.468   2.224
  316SOL    HW2 1084   1.303   3.567   2.232
  317SOL     OW 1085   3.321   0.371   0.390
  317SOL    HW1 1086   3.259   0.322   0.336
  317SOL    HW2 1087   3.290   0.357   0.480
  318SOL     OW 1088   3.899   2.658   1.460
  318SOL    HW1 1089   3.815   2.690   1.427
  318SOL    HW2 1090   3.964   2.717   1.422
  319SOL     OW 1091   2.525   3.043   1.827
  319SOL    HW1 1092   2.554   2.971   1.883
  319SOL    HW2 1093   2.510   3.003   1.741
  320SOL     OW 1094   1.298   1.996   3.789
  320SOL    HW1 1095   1.271   2.081   3.824
  320SOL    HW2 1096   1.238   1.980   3.716
  321SOL     OW 1097   2.615   3.643   0.171
  321SOL    HW1 1098   2.601   3.648   0.265
  321SOL    HW2 1099   2.681   3.709   0.153
  322SOL     OW 1100   0.904   2.151   2.762
  322SOL    HW1 1101   0.929   2.182   2.849
  322SOL    HW2 1102   0.873   2.230   2.717
  323SOL     OW 1103   3.047   0.539   3.098
  323SOL    HW1 1104   3.082   0.578   3.017
  323SOL    HW2 1105   2.977   0.481   3.067
  324SOL     OW 1106   3.328   3.664   1.768
  324SOL    HW1 1107   3.271   3.639   1.695
  324SOL    HW2 1108   3.367   3.581   1.797
  325SOL     OW 1109   0.493   1.215   2.702
  325SOL    HW1 1110   0.495   1.295   2.649
  325SOL    HW2 1111   0.400   1.196   2.713
  326SOL     OW 1112   1.098   1.531   3.306
  326SOL    HW1 1113   1.126   1.607   3.356
  326SOL    HW2 1114   1.018   1.559   3.262
  327SOL     OW 1115   3.087   0.588   2.107
  327SOL    HW1 1116   3.009   0.640   2.128
  327SOL    HW2 1117   3.097   0.529   2.181
  328SOL     OW 1118   1.469   0.429   2.828
  328SOL    HW1 1119   1.483   0.519   2.798
  328SOL    HW2 1120   1.531   0.418   2.900
  329SOL     OW 1121   0.513   2.738   0.574
  329SOL    HW1 1122   0.430   2.742   0.621
  329SOL    HW2 1123   0.500   2.670   0.507
  330SOL     OW 1124   3.721   3.727   0.093
  330SOL    HW1 1125   3.660   3.735   0.019
  330SOL    HW2 1126   3.665   3.706   0.168
  331SOL     OW 1127   3.593   1.020   1.020
  331SOL    HW1 1128   3.595   1.094   0.959
  331SOL    HW2 1129   3.613   1.059   1.105
  332SOL     OW 1130   3.256   2.142   3.036
  332SOL    HW1 1131   3.290   2.182   2.956
  332SOL    HW2 1132   3.162   2.163   3.036
  333SOL     OW 1133   2.450   2.333   3.957
  333SOL    HW1 1134   2.358   2.323   3.934
  333SOL    HW2 1135   2.485   2.395   3.892
  334SOL     OW 1136   3.737   2.795   0.900
  334SOL    HW1 1137   3.770   2.881   0.873
  334SOL    HW2 1138   3.672   2.815   0.967
  335SOL     OW 1139   3.135   3.589   3.321
  335SOL    HW1 1140   3.217   3.568   3.277
  335SOL    HW2 1141   3.072   3.602   3.250
  336SOL     OW 1142   0.945   0.552   0.088
  336SOL    HW1 1143   0.962   0.546  -0.006
  336SOL    HW2 1144   0.888   0.629   0.097
  337SOL     OW 1145   2.707   1.663   3.067
  337SOL    HW1 1146   2.779   1.628   3.015
  337SOL    HW2 1147   2.750   1.717   3.133
  338SOL     OW 1148   1.106   3.096   0.195
  338SOL    HW1 1149   1.112   3.007   0.229
  338SOL    HW2 1150   1.143   3.151   0.264
  339SOL     OW 1151   2.022   2.679   1.610
  339SOL    HW1 1152   1.928   2.688   1.629
  339SOL    HW2 1153   2.060   2.763   1.634
  340SOL     OW 1154   1.919   3.888   3.480
  340SOL    HW1 1155   1.889   3.855   3.395
  340SOL    HW2 1156   1.878   3.830   3.544
  341SOL     OW 1157   2.463   1.415   1.550
  341SOL    HW1 1158   2.460   1.346   1.616
  341SOL    HW2 1159   2.381   1.405   1.501
  342SOL     OW 1160   1.449   3.754   3.385
  342SOL    HW1 1161   1.397   3.825   3.424
  342SOL    HW2 1162   1.401   3.674   3.406
  343SOL     OW 1163   3.118   0.155   3.933
  343SOL    HW1 1164   3.046   0.119   3.984
  343SOL    HW2 1165   3.125   0.098   3.857
  344SOL     OW 1166   2.623   1.213   2.411
  344SOL    HW1 1167   2.707   1.258   2.420
  344SOL    HW2 1168   2.575   1.235   2.491
  345SOL     OW 1169   0.602   3.673   1.358
  345SOL    HW1 1170   0.683   3.724   1.365
  345SOL    HW2 1171   0.532   3.737   1.370
  346SOL     OW 1172   3.117   1.676   1.668
  346SOL    HW1 1173   3.062   1.645   1.596
  346SOL    HW2 1174   3.164   1.751   1.631
  347SOL     OW 1175   0.301   0.506   0.240
  347SOL    HW1 1176   0.304   0.535   0.149
  347SOL    HW2 1177   0.219   0.459   0.248
  348SOL     OW 1178   2.302   0.163   1.532
  348SOL    HW1 1179   2.303   0.092   1.597
  348SOL    HW2 1180   2.328   0.241   1.581
  349SOL     OW 1181   1.507   2.012   1.515
  349SOL    HW1 1182   1.580   1.988   1.572
  349SOL    HW2 1183   1.495   2.106   1.529
  350SOL     OW 1184   1.869   0.490   1.752
  350SOL    HW1 1185   1.824   0.515   1.671
  350SOL    HW2 1186   1.799   0.486   1.818
  351SOL     OW 1187   1.258   0.056   2.970
  351SOL    HW1 1188   1.275  -0.038   2.970
  351SOL    HW2 1189   1.244   0.078   3.062
  352SOL     OW 1190   2.705   0.520   1.066
  352SOL    HW1 1191   2.761   0.492   1.137
  352SOL    HW2 1192   2.628   0.464   1.072
  353SOL     OW 1193   1.614   1.672   1.515
  353SOL    HW1 1194   1.581   1.670   1.425
  353SOL    HW2 1195   1.683   1.606   1.517
  354SOL     OW 1196   0.161   2.307   1.015
  354SOL    HW1 1197   0.073   2.342   1.030
  354SOL    HW2 1198   0.198   2.364   0.948
  355SOL     OW 1199   2.918   1.302   2.582
  355SOL    HW1 1200   2.923   1.224   2.528
  355SOL    HW2 1201   3.008   1.320   2.607
  356SOL     OW 1202   1.362   2.037   2.935
  356SOL    HW1 1203   1.299   1.989   2.988
  356SOL    HW2 1204   1.409   2.092   2.998
  357SOL     OW 1205   2.132   2.021   3.385
  357SOL    HW1 1206   2.101   2.071   3.309
  357SOL    HW2 1207   2.159   1.937   3.349
  358SOL     OW 1208   0.743   1.031   1.491
  358SOL    HW1 1209   0.708   0.944   1.472
  358SOL    HW2 1210   0.831   1.030   1.453
  359SOL     OW 1211   2.328   0.457   0.227
  359SOL    HW1 1212   2.409   0.423   0.189
  359SOL    HW2 1213   2.357   0.519   0.294
  360SOL     OW 1214   3.618   3.703   1.618
  360SOL    HW1 1215   3.707   3.723   1.648
  360SOL    HW2 1216   3.600   3.769   1.552
  361SOL     OW 1217   1.143   2.589   2.997
  361SOL    HW1 1218   1.206   2.632   3.054
  361SOL    HW2 1219   1.065   2.644   3.001
  362SOL     OW 1220   1.304   1.157   2.346
  362SOL    HW1 1221   1.237   1.122   2.287
  362SOL    HW2 1222   1.257   1.219   2.402
  363SOL     OW 1223   1.640   1.895   3.652
  363SOL    HW1 1224   1.731   1.901   3.682
  363SOL    HW2 1225   1.588   1.909   3.731
  364SOL     OW 1226   0.621   1.849   1.901
  364SOL    HW1 1227   0.635   1.933   1.858
  364SOL    HW2 1228   0.707   1.808   1.902
  365SOL     OW 1229   3.433   1.462   2.789
  365SOL    HW1 1230   3.452   1.552   2.815
  365SOL    HW2 1231   3.451   1.460   2.695
  366SOL     OW 1232   1.742   0.619   3.635
  366SOL    HW1 1233   1.819   0.650   3.683
  366SOL    HW2 1234   1.669   0.635   3.694
  367SOL     OW 1235   2.684   0.668   1.460
  367SOL    HW1 1236   2.683   0.739   1.396
  367SOL    HW2 1237   2.653   0.592   1.412
  368SOL     OW 1238   3.215   1.291   1.395
  368SOL    HW1 1239   3.184   1.327   1.312
  368SOL    HW2 1240   3.142   1.240   1.429
  369SOL     OW 1241   0.651   3.034   2.995
  369SOL    HW1 1242   0.688   2.998   3.075
  369SOL    HW2 1243   0.639   2.958   2.938
  370SOL     OW 1244   3.466   1.242   0.881
  370SOL    HW1 1245   3.428   1.213   0.798
  370SOL    HW2 1246   3.404   1.308   0.913
  371SOL     OW 1247   1.226   1.595   2.467
  371SOL    HW1 1248   1.303   1.644   2.496
  371SOL    HW2 1249   1.220   1.612   2.373
  372SOL     OW 1250   0.660   1.447   1.314
  372SOL    HW1 1251   0.754   1.438   1.330
  372SOL    HW2 1252   0.646   1.542   1.308
  373SOL     OW 1253   2.360   2.102   3.500
  373SOL    HW1 1254   2.278   2.097   3.451
  373SOL    HW2 1255   2.386   2.010   3.512
  374SOL     OW 1256   0.560   0.330   3.011
  374SOL    HW1 1257   0.629   0.387   3.046
  374SOL    HW2 1258   0.518   0.383   2.943
  375SOL     OW 1259   3.548   0.945   3.262
  375SOL    HW1 1260   3.566   1.037   3.281
  375SOL    HW2 1261   3.489   0.947   3.186
  376SOL     OW 1262   2.445   2.006   1.077
  376SOL    HW1 1263   2.423   1.955   0.999
  376SOL    HW2 1264   2.416   1.951   1.150
  377SOL     OW 1265   2.880   2.893   0.100
  377SOL    HW1 1266   2.799   2.944   0.098
  377SOL    HW2 1267   2.889   2.859   0.011
  378SOL     OW 1268   0.375   2.230   0.704
  378SOL    HW1 1269   0.321   2.165   0.660
  378SOL    HW2 1270   0.424   2.272   0.633
  379SOL     OW 1271   0.763   2.536   3.195
  379SOL    HW1 1272   0.695   2.490   3.145
  379SOL    HW2 1273   0.720   2.616   3.225
  380SOL     OW 1274   2.617   3.718   2.496
  380SOL    HW1 1275   2.606   3.747   2.587
  380SOL    HW2 1276   2.586   3.792   2.444
  381SOL     OW 1277   3.372   2.081   1.278
  381SOL    HW1 1278   3.315   2.112   1.208
  381SOL    HW2 1279   3.384   2.157   1.335
  382SOL     OW 1280   1.731   1.489   1.251
  382SOL    HW1 1281   1.791   1.445   1.191
  382SOL    HW2 1282   1.687   1.418   1.298
  383SOL     OW 1283   3.483   0.484   2.516
  383SOL    HW1 1284   3.437   0.402   2.498
  383SOL    HW2 1285   3.482   0.531   2.433
  384SOL     OW 1286   1.631   3.532   3.502
  384SOL    HW1 1287   1.644   3.438   3.489
  384SOL    HW2 1288   1.555   3.554   3.448
  385SOL     OW 1289   3.315   1.126   2.447
  385SOL    HW1 1290   3.324   1.221   2.457
  385SOL    HW2 1291   3.339   1.091   2.533
  386SOL     OW 1292   2.454   3.786   0.793
  386SOL    HW1 1293   2.481   3.843   0.865
  386SOL    HW2 1294   2.360   3.797   0.788
  387SOL     OW 1295   0.915   0.919   3.938
  387SOL    HW1 1296   0.914   0.972   3.859
  387SOL    HW2 1297   0.880   0.976   4.006
  388SOL     OW 1298   0.125   3.329   2.254
  388SOL    HW1 1299   0.101   3.340   2.346
  388SOL    HW2 1300   0.202   3.272   2.257
  389SOL     OW 1301   0.353   2.546   0.121
  389SOL    HW1 1302   0.366   2.564   0.028
  389SOL    HW2 1303   0.271   2.498   0.125
  390SOL     OW 1304   3.496   0.146   2.879
  390SOL    HW1 1305   3.527   0.197   2.954
  390SOL    HW2 1306   3.525   0.197   2.803
  391SOL     OW 1307   0.256   3.909   0.286
  391SOL    HW1 1308   0.235   3.938   0.375
  391SOL    HW2 1309   0.187   3.947   0.232
  392SOL     OW 1310   0.891   1.581   3.594
  392SOL    HW1 1311   0.969   1.632   3.569
  392SOL    HW2 1312   0.907   1.494   3.557
  393SOL     OW 1313   3.466   1.600   2.066
  393SOL    HW1 1314   3.494   1.548   1.991
  393SOL    HW2 1315   3.383   1.560   2.093
  394SOL     OW 1316   1.850   2.982   2.085
  394SOL    HW1 1317   1.889   2.947   2.166
  394SOL    HW2 1318   1.775   3.032   2.115
  395SOL     OW 1319   2.474   0.320   1.902
  395SOL    HW1 1320   2.397   0.336   1.956
  395SOL    HW2 1321   2.485   0.225   1.902
  396SOL     OW 1322   3.747   3.353   0.039
  396SOL    HW1 1323   3.827   3.334   0.089
  396SOL    HW2 1324   3.764   3.438  -0.002
  397SOL     OW 1325   0.084   3.640   2.808
  397SOL    HW1 1326   0.082   3.650   2.903
  397SOL    HW2 1327   0.157   3.581   2.791
  398SOL     OW 1328   2.335   1.342   1.990
  398SOL    HW1 1329   2.252   1.357   2.035
  398SOL    HW2 1330   2.401   1.349   2.059
  399SOL     OW 1331   0.120   0.581   2.044
  399SOL    HW1 1332   0.184   0.538   1.987
  399SOL    HW2 1333   0.048   0.604   1.986
  400SOL     OW 1334   0.591   3.765   3.746
  400SOL    HW1 1335   0.558   3.831   3.685
  400SOL    HW2 1336   0.646   3.709   3.693
  401SOL     OW 1337   3.015   1.076   2.945
  401SOL    HW1 1338   3.073   1.136   2.991
  401SOL    HW2 1339   2.938   1.069   3.001
  402SOL     OW 1340   1.896   1.807   1.833
  402SOL    HW1 1341   1.873   1.840   1.919
  402SOL    HW2 1342   1.961   1.739   1.849
  403SOL     OW 1343   3.288   0.244   3.239
  403SOL    HW1 1344   3.319   0.261   3.328
  403SOL    HW2 1345   3.368   0.228   3.189
  404SOL     OW 1346   3.127   0.226   0.273
  404SOL    HW1 1347   3.038   0.259   0.261
  404SOL    HW2 1348   3.120   0.131   0.260
  405SOL     OW 1349   1.388   0.853   1.405
  405SOL    HW1 1350   1.335   0.915   1.356
  405SOL    HW2 1351   1.337   0.772   1.406
  406SOL     OW 1352   3.762   2.577   2.026
  406SOL    HW1 1353   3.797   2.632   2.097
  406SOL    HW2 1354   3.715   2.637   1.969
  407SOL     OW 1355   2.688   1.425   0.776
  407SOL    HW1 1356   2.749   1.353   0.760
  407SOL    HW2 1357   2.738   1.486   0.831
  408SOL     OW 1358   0.945   0.186   2.031
  408SOL    HW1 1359   1.029   0.157   2.068
  408SOL    HW2 1360   0.905   0.238   2.101
  409SOL     OW 1361   2.036   2.311   1.876
  409SOL    HW1 1362   2.082   2.382   1.922
  409SOL    HW2 1363   2.055   2.326   1.784
  410SOL     OW 1364   2.156   0.440   2.363
  410SOL    HW1 1365   2.183   0.508   2.425
  410SOL    HW2 1366   2.060   0.444   2.363
  411SOL     OW 1367   1.898   2.596   3.618
  411SOL    HW1 1368   1.937   2.543   3.549
  411SOL    HW2 1369   1.813   2.622   3.584
  412SOL     OW 1370   1.418   0.912   3.512
  412SOL    HW1 1371   1.439   0.836   3.457
  412SOL    HW2 1372   1.428   0.880   3.602
  413SOL     OW 1373   3.155   1.894   0.427
  413SOL    HW1 1374   3.062   1.905   0.409
  413SOL    HW2 1375   3.162   1.898   0.522
  414SOL     OW 1376   3.419   3.150   0.586
  414SOL    HW1 1377   3.401   3.112   0.500
  414SOL    HW2 1378   3.423   3.245   0.570
  415SOL     OW 1379   1.025   0.672   2.541
  415SOL    HW1 1380   1.033   0.679   2.637
  415SOL    HW2 1381   0.932   0.656   2.525
  416SOL     OW 1382   1.738   1.819   2.374
  416SOL    HW1 1383   1.817   1.820   2.428
  416SOL    HW2 1384   1.666   1.812   2.436
  417SOL     OW 1385   0.259   3.362   0.042
  417SOL    HW1 1386   0.337   3.307   0.035
  417SOL    HW2 1387   0.293   3.448   0.067
  418SOL     OW 1388   2.236   2.329   2.239
  418SOL    HW1 1389   2.176   2.379   2.183
  418SOL    HW2 1390   2.297   2.395   2.272
  419SOL     OW 1391   0.075   0.225   1.803
  419SOL    HW1 1392   0.025   0.220   1.722
  419SOL    HW2 1393   0.070   0.317   1.829
  420SOL     OW 1394   0.256   2.138   2.608
  420SOL    HW1 1395   0.282   2.209   2.550
  420SOL    HW2 1396   0.316   2.066   2.588
  421SOL     OW 1397   2.813   0.369   1.264
  421SOL    HW1 1398   2.732   0.320   1.253
  421SOL    HW2 1399   2.867   0.315   1.322
  422SOL     OW 1400   3.557   0.413   3.002
  422SOL    HW1 1401   3.486   0.474   3.019
  422SOL    HW2 1402   3.607   0.453   2.931
  423SOL     OW 1403   1.980   2.923   1.830
  423SOL    HW1 1404   2.052   2.986   1.836
  423SOL    HW2 1405   1.932   2.934   1.913
  424SOL     OW 1406   2.051   3.378   3.198
  424SOL    HW1 1407   2.087   3.465   3.181
  424SOL    HW2 1408   2.062   3.331   3.116
  425SOL     OW 1409   0.255   1.331   0.552
  425SOL    HW1 1410   0.222   1.243   0.570
  425SOL    HW2 1411   0.177   1.387   0.556
  426SOL     OW 1412   3.516   0.515   0.086
  426SOL    HW1 1413   3.564   0.434   0.070
  426SOL    HW2 1414   3.454   0.521   0.014
  427SOL     OW 1415   1.138   1.192   0.066
  427SOL    HW1 1416   1.173   1.253   0.132
  427SOL    HW2 1417   1.045   1.187   0.086
  428SOL     OW 1418   0.238   3.868   2.662
  428SOL    HW1 1419   0.245   3.801   2.730
  428SOL    HW2 1420   0.314   3.852   2.605
  429SOL     OW 1421   2.731   1.463   2.688
  429SOL    HW1 1422   2.792   1.395   2.661
  429SOL    HW2 1423   2.772   1.504   2.764
  430SOL     OW 1424   3.789   1.593   3.118
  430SOL    HW1 1425   3.846   1.538   3.173
  430SOL    HW2 1426   3.845   1.664   3.089
  431SOL     OW 1427   2.871   1.461   2.939
  431SOL    HW1 1428   2.884   1.381   2.990
  431SOL    HW2 1429   2.959   1.486   2.910
  432SOL     OW 1430   0.629   3.783   2.495
  432SOL    HW1 1431   0.684   3.848   2.451
  432SOL    HW2 1432   0.539   3.811   2.477
  433SOL     OW 1433   1.055   0.938   2.457
  433SOL    HW1 1434   1.064   0.843   2.458
  433SOL    HW2 1435   1.013   0.960   2.540
  434SOL     OW 1436   3.226   1.967   3.237
  434SOL    HW1 1437   3.137   1.931   3.244
  434SOL    HW2 1438   3.222   2.027   3.163
  435SOL     OW 1439   2.023   1.447   0.261
  435SOL    HW1 1440   1.999   1.538   0.277
  435SOL    HW2 1441   1.957   1.396   0.308
  436SOL     OW 1442   1.791   1.873   2.948
  436SOL    HW1 1443   1.807   1.967   2.947
  436SOL    HW2 1444   1.705   1.863   2.906
  437SOL     OW 1445   1.686   1.121   1.902
  437SOL    HW1 1446   1.758   1.091   1.957
  437SOL    HW2 1447   1.717   1.109   1.812
  438SOL     OW 1448   3.790   0.526   2.311
  438SOL    HW1 1449   3.771   0.518   2.217
  438SOL    HW2 1450   3.775   0.438   2.346
  439SOL     OW 1451   1.957   1.663   2.796
  439SOL    HW1 1452   1.896   1.729   2.829
  439SOL    HW2 1453   1.918   1.579   2.820
  440SOL     OW 1454   0.441   0.429   0.794
  440SOL    HW1 1455   0.415   0.384   0.714
  440SOL    HW2 1456   0.462   0.518   0.766
  441SOL     OW 1457   3.897   3.913   1.496
  441SOL    HW1 1458   3.876   4.006   1.507
  441SOL    HW2 1459   3.837   3.883   1.428
  442SOL     OW 1460   1.277   1.367   3.792
  442SOL    HW1 1461   1.263   1.318   3.711
  442SOL    HW2 1462   1.343   1.316   3.839
  443SOL     OW 1463   2.770   1.328   3.926
  443SOL    HW1 1464   2.782   1.394   3.858
  443SOL    HW2 1465   2.693   1.279   3.899
  444SOL     OW 1466   1.535   2.638   0.208
  444SOL    HW1 1467   1.556   2.719   0.161
  444SOL    HW2 1468   1.549   2.659   0.300
  445SOL     OW 1469   2.421   2.641   2.581
  445SOL    HW1 1470   2.417   2.702   2.655
  445SOL    HW2 1471   2.514   2.636   2.558
  446SOL     OW 1472   0.089   0.896   2.235
  446SOL    HW1 1473   0.159   0.862   2.181
  446SOL    HW2 1474   0.032   0.943   2.174
  447SOL     OW 1475   3.357   2.281   2.045
  447SOL    HW1 1476   3.439   2.269   1.997
  447SOL    HW2 1477   3.289   2.270   1.978
  448SOL     OW 1478   1.758   0.880   2.288
  448SOL    HW1 1479   1.757   0.893   2.193
  448SOL    HW2 1480   1.709   0.954   2.323
  449SOL     OW 1481   2.504   3.300   2.014
  449SOL    HW1 1482   2.410   3.289   2.001
  449SOL    HW2 1483   2.542   3.279   1.929
  450SOL     OW 1484   1.899   3.914   0.559
  450SOL    HW1 1485   1.829   3.905   0.495
  450SOL    HW2 1486   1.919   4.007   0.561
  451SOL     OW 1487   0.638   2.551   2.362
  451SOL    HW1 1488   0.725   2.515   2.374
  451SOL    HW2 1489   0.603   2.505   2.285
  452SOL     OW 1490   3.626   3.045   2.220
  452SOL    HW1 1491   3.612   2.972   2.280
  452SOL    HW2 1492   3.547   3.099   2.229
  453SOL     OW 1493   1.769   0.115   1.773
  453SOL    HW1 1494   1.778   0.119   1.678
  453SOL    HW2 1495   1.679   0.142   1.791
  454SOL     OW 1496   2.192   0.280   1.975
  454SOL    HW1 1497   2.102   0.253   1.992
  454SOL    HW2 1498   2.188   0.375   1.965
  455SOL     OW 1499   3.413   1.699   0.062
  455SOL    HW1 1500   3.414   1.710   0.157
  455SOL    HW2 1501   3.405   1.604   0.049
  456SOL     OW 1502   2.623   3.947   3.750
  456SOL    HW1 1503   2.700   3.974   3.700
  456SOL    HW2 1504   2.584   3.877   3.698
  457SOL     OW 1505   0.443   3.491   2.280
  457SOL    HW1 1506   0.489   3.465   2.360
  457SOL    HW2 1507   0.475   3.431   2.213
  458SOL     OW 1508   3.922   2.094   0.869
  458SOL    HW1 1509   3.958   2.169   0.917
  458SOL    HW2 1510   3.951   2.018   0.920
  459SOL     OW 1511   0.680   2.267   1.102
  459SOL    HW1 1512   0.656   2.190   1.050
  459SOL    HW2 1513   0.597   2.298   1.139
  460SOL     OW 1514   0.212   1.092   2.719
  460SOL    HW1 1515   0.196   1.064   2.629
  460SOL    HW2 1516   0.217   1.010   2.769
  461SOL     OW 1517   0.708   2.612   3.584
  461SOL    HW1 1518   0.700   2.685   3.523
  461SOL    HW2 1519   0.766   2.644   3.653
  462SOL     OW 1520   1.585   1.261   0.540
  462SOL    HW1 1521   1.508   1.257   0.597
  462SOL    HW2 1522   1.608   1.354   0.537
  463SOL     OW 1523   1.889   2.400   0.770
  463SOL    HW1 1524   1.833   2.456   0.716
  463SOL    HW2 1525   1.891   2.442   0.856
  464SOL     OW 1526   0.461   3.816   1.935
  464SOL    HW1 1527   0.399   3.760   1.887
  464SOL    HW2 1528   0.482   3.767   2.014
  465SOL     OW 1529   1.831   1.289   0.428
  465SOL    HW1 1530   1.822   1.359   0.492
  465SOL    HW2 1531   1.754   1.234   0.441
  466SOL     OW 1532   0.377   0.722   2.611
  466SOL    HW1 1533   0.303   0.713   2.552
  466SOL    HW2 1534   0.445   0.766   2.559
  467SOL     OW 1535   0.306   3.330   3.668
  467SOL    HW1 1536   0.350   3.310   3.586
  467SOL    HW2 1537   0.214   3.341   3.644
  468SOL     OW 1538   1.117   1.111   3.127
  468SOL    HW1 1539   1.172   1.185   3.152
  468SOL    HW2 1540   1.038   1.121   3.180
  469SOL     OW 1541   2.038   1.131   0.992
  469SOL    HW1 1542   2.023   1.212   1.040
  469SOL    HW2 1543   2.128   1.106   1.013
  470SOL     OW 1544   0.193   3.634   0.232
  470SOL    HW1 1545   0.260   3.571   0.259
  470SOL    HW2 1546   0.226   3.719   0.263
  471SOL     OW 1547   1.846   3.682   1.151
  471SOL    HW1 1548   1.868   3.747   1.084
  471SOL    HW2 1549   1.877   3.599   1.115
  472SOL     OW 1550   3.009   2.773   0.597
  472SOL    HW1 1551   2.920   2.771   0.630
  472SOL    HW2 1552   3.042   2.684   0.611
  473SOL     OW 1553   1.677   0.090   0.804
  473SOL    HW1 1554   1.738   0.077   0.731
  473SOL    HW2 1555   1.617   0.157   0.772
  474SOL     OW 1556   0.043   3.430   3.829
  474SOL    HW1 1557   0.006   3.491   3.893
  474SOL    HW2 1558   0.133   3.415   3.858
  475SOL     OW 1559   3.824   1.612   1.008
  475SOL    HW1 1560   3.904   1.604   1.059
  475SOL    HW2 1561   3.793   1.523   0.996
  476SOL     OW 1562   2.324   3.344   2.345
  476SOL    HW1 1563   2.403   3.390   2.374
  476SOL    HW2 1564   2.254   3.408   2.353
  477SOL     OW 1565   0.653   0.385   0.570
  477SOL    HW1 1566   0.703   0.388   0.488
  477SOL    HW2 1567   0.561   0.391   0.541
  478SOL     OW 1568   3.020   0.946   0.409
  478SOL    HW1 1569   3.070   0.988   0.480
  478SOL    HW2 1570   2.999   0.859   0.444
  479SOL     OW 1571   3.594   0.182   2.589
  479SOL    HW1 1572   3.623   0.091   2.583
  479SOL    HW2 1573   3.508   0.183   2.547
  480SOL     OW 1574   0.444   1.635   0.671
  480SOL    HW1 1575   0.452   1.541   0.688
  480SOL    HW2 1576   0.534   1.666   0.666
  481SOL     OW 1577   0.313   0.805   1.006
  481SOL    HW1 1578   0.238   0.749   1.025
  481SOL    HW2 1579   0.384   0.769   1.059
  482SOL     OW 1580   1.806   2.177   1.828
  482SOL    HW1 1581   1.739   2.226   1.876
  482SOL    HW2 1582   1.889   2.211   1.862
  483SOL     OW 1583   1.925   1.816   0.392
  483SOL    HW1 1584   1.932   1.774   0.307
  483SOL    HW2 1585   1.850   1.875   0.383
  484SOL     OW 1586   3.959   3.843   1.962
  484SOL    HW1 1587   3.923   3.914   2.015
  484SOL    HW2 1588   3.995   3.781   2.026
  485SOL     OW 1589   3.439   2.736   0.128
  485SOL    HW1 1590   3.457   2.733   0.034
  485SOL    HW2 1591   3.494   2.807   0.161
  486SOL     OW 1592   2.754   3.206   2.240
  486SOL    HW1 1593   2.762   3.160   2.156
  486SOL    HW2 1594   2.693   3.278   2.222
  487SOL     OW 1595   3.415   1.326   0.182
  487SOL    HW1 1596   3.329   1.284   0.174
  487SOL    HW2 1597   3.432   1.362   0.095
  488SOL     OW 1598   1.723   3.178   0.748
  488SOL    HW1 1599   1.783   3.126   0.800
  488SOL    HW2 1600   1.691   3.118   0.680
  489SOL     OW 1601   2.945   3.841   1.322
  489SOL    HW1 1602   3.008   3.837   1.250
  489SOL    HW2 1603   2.951   3.932   1.353
  490SOL     OW 1604   2.605   1.325   3.207
  490SOL    HW1 1605   2.614   1.336   3.302
  490SOL    HW2 1606   2.695   1.323   3.174
  491SOL     OW 1607   3.055   0.537   0.845
  491SOL    HW1 1608   3.112   0.569   0.915
  491SOL    HW2 1609   3.083   0.447   0.830
  492SOL     OW 1610   1.074   2.760   1.715
  492SOL    HW1 1611   1.164   2.734   1.732
  492SOL    HW2 1612   1.024   2.728   1.790
  493SOL     OW 1613   0.996   2.594   1.913
  493SOL    HW1 1614   1.049   2.514   1.907
  493SOL    HW2 1615   0.911   2.564   1.943
  494SOL     OW 1616   0.921   2.515   2.552
  494SOL    HW1 1617   0.833   2.477   2.551
  494SOL    HW2 1618   0.952   2.499   2.642
  495SOL     OW 1619   2.142   2.871   0.062
  495SOL    HW1 1620   2.132   2.810  -0.010
  495SOL    HW2 1621   2.226   2.849   0.102
  496SOL     OW 1622   2.931   2.880   2.290
  496SOL    HW1 1623   2.911   2.952   2.348
  496SOL    HW2 1624   3.018   2.900   2.255
  497SOL     OW 1625   3.195   3.011   3.893
  497SOL    HW1 1626   3.205   3.060   3.975
  497SOL    HW2 1627   3.181   3.079   3.827
  498SOL     OW 1628   1.669   1.456   0.855
  498SOL    HW1 1629   1.730   1.482   0.924
  498SOL    HW2 1630   1.587   1.501   0.876
  499SOL     OW 1631   1.223   3.264   0.382
  499SOL    HW1 1632   1.152   3.327   0.369
  499SOL    HW2 1633   1.267   3.294   0.462
  500SOL     OW 1634   1.764   2.558   1.403
  500SOL    HW1 1635   1.778   2.582   1.495
  500SOL    HW2 1636   1.853   2.553   1.366
  501SOL     OW 1637   2.444   3.928   3.213
  501SOL    HW1 1638   2.449   3.944   3.307
  501SOL    HW2 1639   2.534   3.937   3.182
  502SOL     OW 1640   0.381   0.362   0.482
  502SOL    HW1 1641   0.301   0.326   0.520
  502SOL    HW2 1642   0.350   0.431   0.423
  503SOL     OW 1643   2.821   0.397   3.030
  503SOL    HW1 1644   2.783   0.389   3.117
  503SOL    HW2 1645   2.748   0.424   2.974
  504SOL     OW 1646   3.342   0.029   1.992
  504SOL    HW1 1647   3.419  -0.016   2.028
  504SOL    HW2 1648   3.377   0.085   1.923
  505SOL     OW 1649   0.338   3.567   2.892
  505SOL    HW1 1650   0.394   3.643   2.903
  505SOL    HW2 1651   0.299   3.553   2.978
  506SOL     OW 1652   3.301   1.336   2.171
  506SOL    HW1 1653   3.362   1.277   2.127
  506SOL    HW2 1654   3.214   1.310   2.139
  507SOL     OW 1655   1.887   0.735   3.065
  507SOL    HW1 1656   1.889   0.796   3.139
  507SOL    HW2 1657   1.900   0.649   3.105
  508SOL     OW 1658   1.158   2.257   2.466
  508SOL    HW1 1659   1.139   2.346   2.498
  508SOL    HW2 1660   1.218   2.221   2.532
  509SOL     OW 1661   2.431   3.080   2.397
  509SOL    HW1 1662   2.440   3.017   2.326
  509SOL    HW2 1663   2.400   3.160   2.354
  510SOL     OW 1664   0.760   1.448   0.607
  510SOL    HW1 1665   0.674   1.431   0.645
  510SOL    HW2 1666   0.821   1.437   0.679
  511SOL     OW 1667   3.141   0.968   1.019
  511SOL    HW1 1668   3.206   0.983   1.087
  511SOL    HW2 1669   3.151   1.043   0.960
  512SOL     OW 1670   0.974   3.672   3.062
  512SOL    HW1 1671   0.998   3.757   3.099
  512SOL    HW2 1672   0.950   3.690   2.971
  513SOL     OW 1673   1.487   0.964   2.350
  513SOL    HW1 1674   1.416   1.013   2.308
  513SOL    HW2 1675   1.510   0.896   2.287
  514SOL     OW 1676   1.321   3.000   1.035
  514SOL    HW1 1677   1.379   2.936   1.077
  514SOL    HW2 1678   1.363   3.084   1.052
  515SOL     OW 1679   2.206   1.883   3.712
  515SOL    HW1 1680   2.195   1.790   3.732
  515SOL    HW2 1681   2.118   1.913   3.689
  516SOL     OW 1682   1.896   1.711   3.562
  516SOL    HW1 1683   1.838   1.654   3.512
  516SOL    HW2 1684   1.983   1.672   3.552
  517SOL     OW 1685   3.648   0.264   0.043
  517SOL    HW1 1686   3.631   0.272  -0.051
  517SOL    HW2 1687   3.591   0.192   0.072
  518SOL     OW 1688   1.831   3.655   2.361
  518SOL    HW1 1689   1.748   3.660   2.314
  518SOL    HW2 1690   1.808   3.665   2.453
  519SOL     OW 1691   2.418   1.650   0.021
  519SOL    HW1 1692   2.352   1.720   0.023
  519SOL    HW2 1693   2.447   1.643   0.112
  520SOL     OW 1694   2.785   2.413   1.181
  520SOL    HW1 1695   2.750   2.411   1.270
  520SOL    HW2 1696   2.737   2.344   1.135
  521SOL     OW 1697   3.160   2.450   2.862
  521SOL    HW1 1698   3.094   2.485   2.802
  521SOL    HW2 1699   3.170   2.359   2.837
  522SOL     OW 1700   0.731   2.742   1.182
  522SOL    HW1 1701   0.771   2.759   1.267
  522SOL    HW2 1702   0.802   2.705   1.129
  523SOL     OW 1703   2.628   3.869   1.376
  523SOL    HW1 1704   2.588   3.840   1.458
  523SOL    HW2 1705   2.650   3.961   1.390
  524SOL     OW 1706   3.505   2.418   2.660
  524SOL    HW1 1707   3.588   2.382   2.630
  524SOL    HW2 1708   3.441   2.385   2.596
  525SOL     OW 1709   1.453   1.196   3.937
  525SOL    HW1 1710   1.486   1.254   4.006
  525SOL    HW2 1711   1.515   1.206   3.865
  526SOL     OW 1712   2.022   0.449   0.484
  526SOL    HW1 1713   1.977   0.481   0.561
  526SOL    HW2 1714   1.956   0.449   0.415
  527SOL     OW 1715   1.380  -0.013   2.393
  527SOL    HW1 1716   1.369  -0.017   2.488
  527SOL    HW2 1717   1.329   0.063   2.366
  528SOL     OW 1718   1.230   1.778   1.968
  528SOL    HW1 1719   1.249   1.867   1.940
  528SOL    HW2 1720   1.306   1.727   1.938
  529SOL     OW 1721   1.962   1.989   0.021
  529SOL    HW1 1722   1.912   1.953  -0.052
  529SOL    HW2 1723   1.901   2.047   0.067
  530SOL     OW 1724   0.698   2.361   0.635
  530SOL    HW1 1725   0.617   2.363   0.585
  530SOL    HW2 1726   0.732   2.272   0.622
  531SOL     OW 1727   1.598   0.767   0.917
  531SOL    HW1 1728   1.666   0.813   0.869
  531SOL    HW2 1729   1.603   0.677   0.885
  532SOL     OW 1730   1.055   0.928   2.943
  532SOL    HW1 1731   1.137   0.879   2.948
  532SOL    HW2 1732   1.076   1.014   2.980
  533SOL     OW 1733   0.651   2.742   2.916
  533SOL    HW1 1734   0.613   2.659   2.945
  533SOL    HW2 1735   0.632   2.746   2.823
  534SOL     OW 1736   3.211   1.298   2.713
  534SOL    HW1 1737   3.302   1.311   2.740
  534SOL    HW2 1738   3.204   1.204   2.696
  535SOL     OW 1739   1.665   3.940   2.605
  535SOL    HW1 1740   1.583   3.910   2.645
  535SOL    HW2 1741   1.720   3.966   2.679
  536SOL     OW 1742   2.804   3.502   2.822
  536SOL    HW1 1743   2.892   3.510   2.857
  536SOL    HW2 1744   2.781   3.591   2.796
  537SOL     OW 1745   3.247   3.324   1.525
  537SOL    HW1 1746   3.212   3.311   1.613
  537SOL    HW2 1747   3.220   3.412   1.500
  538SOL     OW 1748   3.056   2.437   2.002
  538SOL    HW1 1749   3.073   2.440   1.908
  538SOL    HW2 1750   3.064   2.528   2.031
  539SOL     OW 1751   3.402   3.453   1.231
  539SOL    HW1 1752   3.440   3.487   1.312
  539SOL    HW2 1753   3.308   3.471   1.240
  540SOL     OW 1754   3.777   3.265   0.531
  540SOL    HW1 1755   3.762   3.300   0.443
  540SOL    HW2 1756   3.692   3.272   0.574
  541SOL     OW 1757   2.042   3.752   2.145
  541SOL    HW1 1758   1.955   3.720   2.170
  541SOL    HW2 1759   2.037   3.763   2.050
  542SOL     OW 1760   1.252   1.131   2.709
  542SOL    HW1 1761   1.213   1.171   2.786
  542SOL    HW2 1762   1.215   1.180   2.635
  543SOL     OW 1763   3.609   1.626   1.280
  543SOL    HW1 1764   3.576   1.671   1.202
  543SOL    HW2 1765   3.532   1.614   1.335
  544SOL     OW 1766   2.585   2.018   3.214
  544SOL    HW1 1767   2.539   1.934   3.211
  544SOL    HW2 1768   2.601   2.033   3.307
  545SOL     OW 1769   1.822   0.121   3.105
  545SOL    HW1 1770   1.769   0.089   3.032
  545SOL    HW2 1771   1.885   0.180   3.066
  546SOL     OW 1772   2.283   2.522   2.844
  546SOL    HW1 1773   2.333   2.566   2.913
  546SOL    HW2 1774   2.238   2.592   2.797
  547SOL     OW 1775   1.003   1.277   2.858
  547SOL    HW1 1776   0.974   1.285   2.949
  547SOL    HW2 1777   1.015   1.367   2.828
  548SOL     OW 1778   1.126   0.462   2.069
  548SOL    HW1 1779   1.151   0.372   2.089
  548SOL    HW2 1780   1.098   0.498   2.153
  549SOL     OW 1781   2.473   3.907   2.387
  549SOL    HW1 1782   2.398   3.901   2.446
  549SOL    HW2 1783   2.465   3.994   2.347
  550SOL     OW 1784   0.568   0.075   1.564
  550SOL    HW1 1785   0.585   0.082   1.658
  550SOL    HW2 1786   0.654   0.057   1.526
  551SOL     OW 1787   2.192   3.851   2.337
  551SOL    HW1 1788   2.134   3.789   2.293
  551SOL    HW2 1789   2.150   3.868   2.421
  552SOL     OW 1790   1.223   1.705   0.329
  552SOL    HW1 1791   1.285   1.776   0.313
  552SOL    HW2 1792   1.171   1.699   0.249
  553SOL     OW 1793   3.669   2.077   1.631
  553SOL    HW1 1794   3.713   2.023   1.565
  553SOL    HW2 1795   3.701   2.166   1.614
  554SOL     OW 1796   3.271   0.016   3.470
  554SOL    HW1 1797   3.329   0.035   3.543
  554SOL    HW2 1798   3.311   0.060   3.395
  555SOL     OW 1799   3.590   3.310   3.430
  555SOL    HW1 1800   3.604   3.384   3.370
  555SOL    HW2 1801   3.617   3.233   3.381
  556SOL     OW 1802   3.201   0.625   1.049
  556SOL    HW1 1803   3.213   0.719   1.030
  556SOL    HW2 1804   3.150   0.624   1.130
  557SOL     OW 1805   2.560   1.071   2.862
  557SOL    HW1 1806   2.622   1.007   2.896
  557SOL    HW2 1807   2.482   1.059   2.916
  558SOL     OW 1808   1.952   1.184   1.485
  558SOL    HW1 1809   2.034   1.152   1.522
  558SOL    HW2 1810   1.886   1.121   1.512
  559SOL     OW 1811   3.808   0.431   3.760
  559SOL    HW1 1812   3.817   0.454   3.668
  559SOL    HW2 1813   3.742   0.361   3.761
  560SOL     OW 1814   3.761   3.508   2.527
  560SOL    HW1 1815   3.726   3.493   2.439
  560SOL    HW2 1816   3.810   3.590   2.518
  561SOL     OW 1817   1.255   0.618   1.350
  561SOL    HW1 1818   1.180   0.598   1.294
  561SOL    HW2 1819   1.318   0.547   1.332
  562SOL     OW 1820   3.647   3.196   0.291
  562SOL    HW1 1821   3.718   3.138   0.266
  562SOL    HW2 1822   3.573   3.169   0.236
  563SOL     OW 1823   2.111   1.966   2.825
  563SOL    HW1 1824   2.023   1.986   2.795
  563SOL    HW2 1825   2.155   2.051   2.831
  564SOL     OW 1826   2.459   3.679   1.209
  564SOL    HW1 1827   2.503   3.742   1.267
  564SOL    HW2 1828   2.423   3.733   1.139
  565SOL     OW 1829   0.045   1.427   3.210
  565SOL    HW1 1830   0.114   1.397   3.269
  565SOL    HW2 1831   0.082   1.505   3.168
  566SOL     OW 1832   1.310   2.635   1.713
  566SOL    HW1 1833   1.262   2.597   1.639
  566SOL    HW2 1834   1.341   2.559   1.763
  567SOL     OW 1835   1.292   3.753   0.430
  567SOL    HW1 1836   1.249   3.757   0.515
  567SOL    HW2 1837   1.222   3.766   0.366
  568SOL     OW 1838   3.933   1.199   2.992
  568SOL    HW1 1839   3.956   1.254   3.066
  568SOL    HW2 1840   3.934   1.110   3.027
  569SOL     OW 1841   3.545   2.493   1.125
  569SOL    HW1 1842   3.562   2.520   1.035
  569SOL    HW2 1843   3.576   2.403   1.130
  570SOL     OW 1844   2.126   3.105   0.341
  570SOL    HW1 1845   2.216   3.112   0.310
  570SOL    HW2 1846   2.074   3.155   0.278
  571SOL     OW 1847   3.240   1.445   1.780
  571SOL    HW1 1848   3.180   1.380   1.743
  571SOL    HW2 1849   3.200   1.529   1.757
  572SOL     OW 1850   3.573   1.320   2.990
  572SOL    HW1 1851   3.518   1.356   2.921
  572SOL    HW2 1852   3.662   1.341   2.963
  573SOL     OW 1853   0.469   0.050   1.103
  573SOL    HW1 1854   0.482  -0.030   1.052
  573SOL    HW2 1855   0.473   0.021   1.194
  574SOL     OW 1856   3.482   1.141   1.971
  574SOL    HW1 1857   3.445   1.056   1.948
  574SOL    HW2 1858   3.576   1.131   1.958
  575SOL     OW 1859   0.265   1.420   0.264
  575SOL    HW1 1860   0.245   1.345   0.208
  575SOL    HW2 1861   0.266   1.384   0.353
  576SOL     OW 1862   1.875   1.954   1.421
  576SOL    HW1 1863   1.811   1.965   1.491
  576SOL    HW2 1864   1.835   1.997   1.345
  577SOL     OW 1865   1.051   2.095   2.041
  577SOL    HW1 1866   1.127   2.111   2.097
  577SOL    HW2 1867   0.988   2.051   2.098
  578SOL     OW 1868   0.980   2.462   1.278
  578SOL    HW1 1869   0.948   2.502   1.197
  578SOL    HW2 1870   0.997   2.537   1.336
  579SOL     OW 1871   1.599   1.851   0.526
  579SOL    HW1 1872   1.533   1.823   0.590
  579SOL    HW2 1873   1.682   1.825   0.564
  580SOL     OW 1874   3.061   3.615   2.865
  580SOL    HW1 1875   3.105   3.690   2.825
  580SOL    HW2 1876   3.059   3.635   2.959
  581SOL     OW 1877   1.525   1.835   2.847
  581SOL    HW1 1878   1.498   1.803   2.933
  581SOL    HW2 1879   1.488   1.923   2.841
  582SOL     OW 1880   0.192   2.407   2.158
  582SOL    HW1 1881   0.140   2.421   2.237
  582SOL    HW2 1882   0.174   2.315   2.134
  583SOL     OW 1883   1.557   1.503   2.677
  583SOL    HW1 1884   1.547   1.447   2.600
  583SOL    HW2 1885   1.620   1.457   2.732
  584SOL     OW 1886   2.512   1.225   3.878
  584SOL    HW1 1887   2.443   1.162   3.899
  584SOL    HW2 1888   2.464   1.304   3.853
  585SOL     OW 1889   3.806   3.834   3.125
  585SOL    HW1 1890   3.889   3.817   3.080
  585SOL    HW2 1891   3.808   3.928   3.142
  586SOL     OW 1892   0.257   1.710   3.272
  586SOL    HW1 1893   0.222   1.738   3.187
  586SOL    HW2 1894   0.182   1.715   3.331
  587SOL     OW 1895   2.012   1.114   1.822
  587SOL    HW1 1896   1.932   1.116   1.770
  587SOL    HW2 1897   2.074   1.168   1.772
  588SOL     OW 1898   2.139   2.760   0.705
  588SOL    HW1 1899   2.084   2.682   0.714
  588SOL    HW2 1900   2.225   2.726   0.682
  589SOL     OW 1901   3.167   3.858   2.218
  589SOL    HW1 1902   3.238   3.877   2.279
  589SOL    HW2 1903   3.208   3.861   2.131
  590SOL     OW 1904   3.039   2.394   1.258
  590SOL    HW1 1905   3.060   2.454   1.186
  590SOL    HW2 1906   2.946   2.375   1.246
  591SOL     OW 1907   1.309   1.810   1.420
  591SOL    HW1 1908   1.355   1.739   1.376
  591SOL    HW2 1909   1.376   1.879   1.428
  592SOL     OW 1910   0.395   2.218   1.174
  592SOL    HW1 1911   0.400   2.130   1.136
  592SOL    HW2 1912   0.329   2.262   1.122
  593SOL     OW 1913   2.032   1.800   3.238
  593SOL    HW1 1914   2.108   1.816   3.183
  593SOL    HW2 1915   1.980   1.880   3.232
  594SOL     OW 1916   1.055   1.577   0.150
  594SOL    HW1 1917   1.022   1.521   0.080
  594SOL    HW2 1918   1.004   1.552   0.227
  595SOL     OW 1919   2.275   3.167   3.212
  595SOL    HW1 1920   2.263   3.074   3.231
  595SOL    HW2 1921   2.210   3.187   3.145
  596SOL     OW 1922   0.405   3.170   3.450
  596SOL    HW1 1923   0.422   3.152   3.357
  596SOL    HW2 1924   0.425   3.087   3.494
  597SOL     OW 1925   1.000   1.329   3.502
  597SOL    HW1 1926   0.924   1.283   3.466
  597SOL    HW2 1927   1.037   1.376   3.427
  598SOL     OW 1928   0.106   2.866   1.382
  598SOL    HW1 1929   0.110   2.928   1.309
  598SOL    HW2 1930   0.068   2.916   1.454
  599SOL     OW 1931   1.419   1.798   3.107
  599SOL    HW1 1932   1.370   1.716   3.098
  599SOL    HW2 1933   1.482   1.779   3.178
  600SOL     OW 1934   3.380   1.557   1.397
  600SOL    HW1 1935   3.350   1.628   1.341
  600SOL    HW2 1936   3.302   1.504   1.413
  601SOL     OW 1937   0.548   2.284   2.837
  601SOL    HW1 1938   0.523   2.339   2.763
  601SOL    HW2 1939   0.591   2.208   2.797
  602SOL     OW 1940   0.314   3.048   2.519
  602SOL    HW1 1941   0.233   3.099   2.525
  602SOL    HW2 1942   0.321   3.026   2.425
  603SOL     OW 1943   2.191   1.087   3.663
  603SOL    HW1 1944   2.246   1.023   3.710
  603SOL    HW2 1945   2.254   1.144   3.619
  604SOL     OW 1946   0.962   0.924   0.890
  604SOL    HW1 1947   0.878   0.911   0.934
  604SOL    HW2 1948   0.947   0.896   0.800
  605SOL     OW 1949   1.923   0.981   3.221
  605SOL    HW1 1950   2.014   0.980   3.191
  605SOL    HW2 1951   1.929   0.974   3.316
  606SOL     OW 1952   1.409   0.408   1.070
  606SOL    HW1 1953   1.329   0.394   1.120
  606SOL    HW2 1954   1.385   0.475   1.006
  607SOL     OW 1955   1.476   3.396   1.333
  607SOL    HW1 1956   1.437   3.463   1.278
  607SOL    HW2 1957   1.413   3.383   1.403
  608SOL     OW 1958   2.244   3.444   3.893
  608SOL    HW1 1959   2.293   3.520   3.860
  608SOL    HW2 1960   2.232   3.462   3.986
  609SOL     OW 1961   0.931   3.447   0.451
  609SOL    HW1 1962   0.909   3.355   0.437
  609SOL    HW2 1963   0.856   3.482   0.498
  610SOL     OW 1964   1.118   3.822   1.452
  610SOL    HW1 1965   1.153   3.745   1.496
  610SOL    HW2 1966   1.196   3.870   1.422
  611SOL     OW 1967   2.711   3.184   0.718
  611SOL    HW1 1968   2.806   3.188   0.713
  611SOL    HW2 1969   2.685   3.132   0.642
  612SOL     OW 1970   1.525   2.346   0.415
  612SOL    HW1 1971   1.520   2.440   0.433
  612SOL    HW2 1972   1.514   2.305   0.501
  613SOL     OW 1973   2.057   2.398   1.584
  613SOL    HW1 1974   2.055   2.490   1.609
  613SOL    HW2 1975   1.965   2.375   1.570
  614SOL     OW 1976   1.874   1.564   0.975
  614SOL    HW1 1977   1.877   1.643   1.029
  614SOL    HW2 1978   1.965   1.534   0.971
  615SOL     OW 1979   2.202   2.407   2.624
  615SOL    HW1 1980   2.262   2.408   2.550
  615SOL    HW2 1981   2.247   2.457   2.692
  616SOL     OW 1982   0.961   1.705   0.752
  616SOL    HW1 1983   1.031   1.737   0.808
  616SOL    HW2 1984   0.930   1.625   0.795
  617SOL     OW 1985   0.574   3.446   2.527
  617SOL    HW1 1986   0.607   3.502   2.597
  617SOL    HW2 1987   0.519   3.382   2.571
  618SOL     OW 1988   2.105   1.296   2.159
  618SOL    HW1 1989   2.060   1.255   2.234
  618SOL    HW2 1990   2.108   1.389   2.181
  619SOL     OW 1991   1.977   0.763   3.728
  619SOL    HW1 1992   2.053   0.768   3.785
  619SOL    HW2 1993   2.000   0.816   3.652
  620SOL     OW 1994   1.081   0.788   2.011
  620SOL    HW1 1995   1.104   0.829   2.094
  620SOL    HW2 1996   1.119   0.845   1.944
  621SOL     OW 1997   0.405   3.908   2.436
  621SOL    HW1 1998   0.336   3.948   2.384
  621SOL    HW2 1999   0.453   3.983   2.473
  622SOL     OW 2000   1.314   1.529   3.027
  622SOL    HW1 2001   1.325   1.540   2.932
  622SOL    HW2 2002   1.264   1.448   3.036
  623SOL     OW 2003   2.993   0.336   1.539
  623SOL    HW1 2004   2.956   0.355   1.625
  623SOL    HW2 2005   3.078   0.295   1.559
  624SOL     OW 2006   2.079   1.267   0.721
  624SOL    HW1 2007   2.033   1.204   0.666
  624SOL    HW2 2008   2.069   1.233   0.810
  625SOL     OW 2009   0.915   2.588   1.047
  625SOL    HW1 2010   0.998   2.578   1.002
  625SOL    HW2 2011   0.852   2.539   0.993
  626SOL     OW 2012   3.016   3.771   3.121
  626SOL    HW1 2013   2.962   3.821   3.183
  626SOL    HW2 2014   3.060   3.838   3.069
  627SOL     OW 2015   2.325   0.416   1.648
  627SOL    HW1 2016   2.363   0.377   1.727
  627SOL    HW2 2017   2.291   0.500   1.677
  628SOL     OW 2018   0.150   1.730   0.211
  628SOL    HW1 2019   0.131   1.638   0.190
  628SOL    HW2 2020   0.244   1.732   0.226
  629SOL     OW 2021   2.342   1.743   0.291
  629SOL    HW1 2022   2.395   1.811   0.333
  629SOL    HW2 2023   2.285   1.710   0.361
  630SOL     OW 2024  -0.004   3.622   3.396
  630SOL    HW1 2025   0.082   3.581   3.390
  630SOL    HW2 2026   0.003   3.681   3.471
  631SOL     OW 2027   3.758   3.804   3.619
  631SOL    HW1 2028   3.680   3.779   3.668
  631SOL    HW2 2029   3.794   3.721   3.587
  632SOL     OW 2030   0.917   1.568   1.264
  632SOL    HW1 2031   0.833   1.603   1.232
  632SOL    HW2 2032   0.952   1.519   1.189
  633SOL     OW 2033   3.803   3.083   2.669
  633SOL    HW1 2034   3.843   3.167   2.692
  633SOL    HW2 2035   3.780   3.043   2.753
  634SOL     OW 2036   2.469   2.052   2.865
  634SOL    HW1 2037   2.493   1.965   2.896
  634SOL    HW2 2038   2.553   2.095   2.846
  635SOL     OW 2039   2.480   2.244   2.129
  635SOL    HW1 2040   2.400   2.226   2.179
  635SOL    HW2 2041   2.463   2.327   2.085
  636SOL     OW 2042   0.370   0.717   3.670
  636SOL    HW1 2043   0.415   0.781   3.614
  636SOL    HW2 2044   0.344   0.647   3.611
  637SOL     OW 2045   1.942   3.487   0.957
  637SOL    HW1 2046   1.960   3.396   0.930
  637SOL    HW2 2047   2.014   3.537   0.918
  638SOL     OW 2048   1.443   0.669   3.418
  638SOL    HW1 2049   1.433   0.617   3.498
  638SOL    HW2 2050   1.365   0.650   3.367
  639SOL     OW 2051   0.295   1.265   2.932
  639SOL    HW1 2052   0.252   1.291   2.850
  639SOL    HW2 2053   0.229   1.212   2.977
  640SOL     OW 2054   1.336   0.973   2.088
  640SOL    HW1 2055   1.332   1.028   2.010
  640SOL    HW2 2056   1.276   1.014   2.150
  641SOL     OW 2057   0.860   1.494   0.877
  641SOL    HW1 2058   0.812   1.571   0.907
  641SOL    HW2 2059   0.811   1.419   0.913
  642SOL     OW 2060   1.065   1.867   3.166
  642SOL    HW1 2061   0.986   1.898   3.210
  642SOL    HW2 2062   1.132   1.931   3.189
  643SOL     OW 2063   3.780   1.476   2.865
  643SOL    HW1 2064   3.822   1.508   2.945
  643SOL    HW2 2065   3.736   1.553   2.829
  644SOL     OW 2066   0.403   1.884   0.812
  644SOL    HW1 2067   0.326   1.850   0.859
  644SOL    HW2 2068   0.423   1.816   0.748
  645SOL     OW 2069   0.071   2.285   0.681
  645SOL    HW1 2070   0.136   2.300   0.612
  645SOL    HW2 2071   0.091   2.198   0.715
  646SOL     OW 2072   2.667   2.182   1.933
  646SOL    HW1 2073   2.706   2.255   1.886
  646SOL    HW2 2074   2.709   2.185   2.020
  647SOL     OW 2075   0.093   1.152   1.114
  647SOL    HW1 2076   0.050   1.086   1.061
  647SOL    HW2 2077   0.025   1.183   1.174
  648SOL     OW 2078   2.238   0.436   3.368
  648SOL    HW1 2079   2.300   0.376   3.410
  648SOL    HW2 2080   2.181   0.380   3.315
  649SOL     OW 2081   0.209   0.146   2.292
  649SOL    HW1 2082   0.129   0.196   2.310
  649SOL    HW2 2083   0.219   0.151   2.197
  650SOL     OW 2084   3.111   3.012   0.517
  650SOL    HW1 2085   3.139   3.014   0.425
  650SOL    HW2 2086   3.093   2.920   0.534
  651SOL     OW 2087   1.288   3.555   2.714
  651SOL    HW1 2088   1.199   3.537   2.685
  651SOL    HW2 2089   1.344   3.514   2.647
  652SOL     OW 2090   1.729   3.472   3.045
  652SOL    HW1 2091   1.715   3.466   2.951
  652SOL    HW2 2092   1.786   3.398   3.065
  653SOL     OW 2093   2.717   2.601   1.680
  653SOL    HW1 2094   2.676   2.687   1.674
  653SOL    HW2 2095   2.795   2.608   1.625
  654SOL     OW 2096   0.715   3.901   3.082
  654SOL    HW1 2097   0.747   3.867   3.166
  654SOL    HW2 2098   0.767   3.853   3.017
  655SOL     OW 2099   1.208   0.291   3.461
  655SOL    HW1 2100   1.252   0.375   3.450
  655SOL    HW2 2101   1.117   0.308   3.437
  656SOL     OW 2102   3.920   2.248   3.600
  656SOL    HW1 2103   3.832   2.215   3.621
  656SOL    HW2 2104   3.942   2.307   3.672
  657SOL     OW 2105   3.796   0.555   3.069
  657SOL    HW1 2106   3.723   0.557   3.130
  657SOL    HW2 2107   3.778   0.625   3.007
  658SOL     OW 2108   0.290   0.554   3.917
  658SOL    HW1 2109   0.315   0.633   3.868
  658SOL    HW2 2110   0.372   0.505   3.927
  659SOL     OW 2111   1.384   0.469   3.568
  659SOL    HW1 2112   1.389   0.377   3.593
  659SOL    HW2 2113   1.315   0.505   3.624
  660SOL     OW 2114   2.820   0.616   2.182
  660SOL    HW1 2115   2.741   0.670   2.181
  660SOL    HW2 2116   2.805   0.549   2.115
  661SOL     OW 2117   1.771   3.293   2.540
  661SOL    HW1 2118   1.802   3.292   2.449
  661SOL    HW2 2119   1.679   3.268   2.534
  662SOL     OW 2120   2.872   2.709   1.167
  662SOL    HW1 2121   2.860   2.614   1.175
  662SOL    HW2 2122   2.960   2.725   1.199
  663SOL     OW 2123   0.519   2.008   0.449
  663SOL    HW1 2124   0.471   1.969   0.376
  663SOL    HW2 2125   0.488   1.961   0.526
  664SOL     OW 2126   3.761   0.015   2.173
  664SOL    HW1 2127   3.677  -0.026   2.196
  664SOL    HW2 2128   3.742   0.066   2.095
  665SOL     OW 2129   3.168   1.016   2.082
  665SOL    HW1 2130   3.097   0.953   2.099
  665SOL    HW2 2131   3.244   0.961   2.061
  666SOL     OW 2132   0.570   1.431   1.876
  666SOL    HW1 2133   0.663   1.437   1.897
  666SOL    HW2 2134   0.545   1.521   1.853
  667SOL     OW 2135   2.964   0.866   2.091
  667SOL    HW1 2136   2.883   0.862   2.142
  667SOL    HW2 2137   2.949   0.807   2.017
  668SOL     OW 2138   1.647   2.880   0.087
  668SOL    HW1 2139   1.734   2.880   0.128
  668SOL    HW2 2140   1.665   2.873  -0.007
  669SOL     OW 2141   3.782   1.191   3.603
  669SOL    HW1 2142   3.752   1.113   3.557
  669SOL    HW2 2143   3.875   1.177   3.617
  670SOL     OW 2144   3.626   3.714   2.906
  670SOL    HW1 2145   3.665   3.652   2.967
  670SOL    HW2 2146   3.541   3.736   2.945
  671SOL     OW 2147   2.006   0.197   0.591
  671SOL    HW1 2148   2.033   0.279   0.550
  671SOL    HW2 2149   1.986   0.220   0.681
  672SOL     OW 2150   2.961   2.262   0.729
  672SOL    HW1 2151   2.947   2.357   0.728
  672SOL    HW2 2152   2.953   2.235   0.637
  673SOL     OW 2153   1.551   3.630   2.566
  673SOL    HW1 2154   1.570   3.632   2.472
  673SOL    HW2 2155   1.482   3.694   2.579
  674SOL     OW 2156   3.957   2.969   1.597
  674SOL    HW1 2157   3.957   3.053   1.643
  674SOL    HW2 2158   3.905   2.911   1.652
  675SOL     OW 2159   0.418   1.722   2.808
  675SOL    HW1 2160   0.492   1.718   2.747
  675SOL    HW2 2161   0.434   1.650   2.869
  676SOL     OW 2162   0.867   0.382   1.720
  676SOL    HW1 2163   0.796   0.446   1.714
  676SOL    HW2 2164   0.944   0.433   1.743
  677SOL     OW 2165   3.803   0.228   3.076
  677SOL    HW1 2166   3.735   0.289   3.046
  677SOL    HW2 2167   3.841   0.194   2.995
  678SOL     OW 2168   0.681   1.138   1.945
  678SOL    HW1 2169   0.613   1.193   1.908
  678SOL    HW2 2170   0.636   1.056   1.968
  679SOL     OW 2171   3.233   1.994   1.737
  679SOL    HW1 2172   3.212   2.003   1.830
  679SOL    HW2 2173   3.327   1.977   1.736
  680SOL     OW 2174   3.778   2.963   1.888
  680SOL    HW1 2175   3.742   3.009   1.964
  680SOL    HW2 2176   3.862   2.929   1.920
  681SOL     OW 2177   2.670   1.605   1.735
  681SOL    HW1 2178   2.607   1.534   1.724
  681SOL    HW2 2179   2.749   1.575   1.691
  682SOL     OW 2180   0.660   3.325   1.685
  682SOL    HW1 2181   0.608   3.342   1.607
  682SOL    HW2 2182   0.648   3.403   1.740
  683SOL     OW 2183   3.640   0.706   1.827
  683SOL    HW1 2184   3.672   0.739   1.911
  683SOL    HW2 2185   3.700   0.743   1.762
  684SOL     OW 2186   3.841   1.715   2.089
  684SOL    HW1 2187   3.861   1.774   2.162
  684SOL    HW2 2188   3.869   1.762   2.011
  685SOL     OW 2189   2.226   1.782   1.107
  685SOL    HW1 2190   2.213   1.694   1.073
  685SOL    HW2 2191   2.207   1.840   1.034
  686SOL     OW 2192   1.418   0.618   0.388
  686SOL    HW1 2193   1.472   0.541   0.372
  686SOL    HW2 2194   1.480   0.689   0.399
  687SOL     OW 2195   1.384   3.477   3.362
  687SOL    HW1 2196   1.294   3.471   3.396
  687SOL    HW2 2197   1.396   3.398   3.311
  688SOL     OW 2198   1.662   0.380   2.181
  688SOL    HW1 2199   1.615   0.308   2.140
  688SOL    HW2 2200   1.724   0.338   2.241
  689SOL     OW 2201   2.123   3.714   1.850
  689SOL    HW1 2202   2.035   3.678   1.835
  689SOL    HW2 2203   2.179   3.637   1.861
  690SOL     OW 2204   2.964   1.698   0.253
  690SOL    HW1 2205   2.868   1.696   0.245
  690SOL    HW2 2206   2.988   1.609   0.277
  691SOL     OW 2207   3.480   3.967   3.722
  691SOL    HW1 2208   3.407   4.016   3.761
  691SOL    HW2 2209   3.483   3.885   3.771
  692SOL     OW 2210   3.150   0.808   1.549
  692SOL    HW1 2211   3.186   0.826   1.462
  692SOL    HW2 2212   3.098   0.729   1.538
  693SOL     OW 2213   1.842   0.288   2.779
  693SOL    HW1 2214   1.897   0.314   2.852
  693SOL    HW2 2215   1.752   0.289   2.814
  694SOL     OW 2216   1.853   0.063   1.512
  694SOL    HW1 2217   1.919   0.126   1.539
  694SOL    HW2 2218   1.904  -0.013   1.481
  695SOL     OW 2219   1.085   0.455   0.314
  695SOL    HW1 2220   1.071   0.498   0.229
  695SOL    HW2 2221   1.171   0.413   0.306
  696SOL     OW 2222   1.708   1.791   0.784
  696SOL    HW1 2223   1.706   1.710   0.834
  696SOL    HW2 2224   1.797   1.824   0.796
  697SOL     OW 2225   2.275   1.881   2.096
  697SOL    HW1 2226   2.264   1.912   2.186
  697SOL    HW2 2227   2.245   1.955   2.042
  698SOL     OW 2228   2.035   2.499   1.290
  698SOL    HW1 2229   2.068   2.454   1.212
  698SOL    HW2 2230   2.086   2.461   1.362
  699SOL     OW 2231   2.176   2.506   0.827
  699SOL    HW1 2232   2.221   2.497   0.743
  699SOL    HW2 2233   2.091   2.464   0.814
  700SOL     OW 2234   3.148   3.156   2.953
  700SOL    HW1 2235   3.236   3.156   2.992
  700SOL    HW2 2236   3.155   3.098   2.878
  701SOL     OW 2237   0.443   2.967   0.855
  701SOL    HW1 2238   0.440   3.046   0.909
  701SOL    HW2 2239   0.531   2.932   0.868
  702SOL     OW 2240   2.824   1.390   0.464
  702SOL    HW1 2241   2.885   1.436   0.522
  702SOL    HW2 2242   2.743   1.383   0.515
  703SOL     OW 2243   2.876   2.893   2.614
  703SOL    HW1 2244   2.823   2.902   2.534
  703SOL    HW2 2245   2.824   2.936   2.682
  704SOL     OW 2246   2.091   0.302   1.322
  704SOL    HW1 2247   2.005   0.342   1.338
  704SOL    HW2 2248   2.123   0.280   1.409
  705SOL     OW 2249   1.922   0.640   2.338
  705SOL    HW1 2250   1.859   0.706   2.367
  705SOL    HW2 2251   1.887   0.608   2.255
  706SOL     OW 2252   1.439   0.871   0.643
  706SOL    HW1 2253   1.378   0.870   0.717
  706SOL    HW2 2254   1.440   0.781   0.611
  707SOL     OW 2255   0.806   2.064   0.270
  707SOL    HW1 2256   0.724   2.029   0.234
  707SOL    HW2 2257   0.830   2.134   0.208
  708SOL     OW 2258   3.397   2.602   2.856
  708SOL    HW1 2259   3.414   2.541   2.785
  708SOL    HW2 2260   3.312   2.574   2.892
  709SOL     OW 2261   1.320   2.937   3.264
  709SOL    HW1 2262   1.230   2.930   3.295
  709SOL    HW2 2263   1.333   2.859   3.211
  710SOL     OW 2264   2.595   3.039   0.513
  710SOL    HW1 2265   2.583   3.119   0.461
  710SOL    HW2 2266   2.510   2.995   0.509
  711SOL     OW 2267   3.183   1.236   0.009
  711SOL    HW1 2268   3.209   1.182  -0.067
  711SOL    HW2 2269   3.143   1.174   0.070
  712SOL     OW 2270   3.550   2.121   0.549
  712SOL    HW1 2271   3.487   2.120   0.621
  712SOL    HW2 2272   3.497   2.131   0.470
  713SOL     OW 2273   0.827   2.641   0.200
  713SOL    HW1 2274   0.838   2.563   0.254
  713SOL    HW2 2275   0.762   2.693   0.247
  714SOL     OW 2276   0.064   1.802   1.637
  714SOL    HW1 2277   0.036   1.711   1.644
  714SOL    HW2 2278   0.092   1.811   1.546
  715SOL     OW 2279   3.757   0.509   0.855
  715SOL    HW1 2280   3.707   0.441   0.898
  715SOL    HW2 2281   3.761   0.483   0.763
  716SOL     OW 2282   2.348   1.162   0.484
  716SOL    HW1 2283   2.290   1.157   0.408
  716SOL    HW2 2284   2.342   1.253   0.512
  717SOL     OW 2285   0.962   3.302   3.927
  717SOL    HW1 2286   0.963   3.340   3.839
  717SOL    HW2 2287   1.036   3.241   3.927
  718SOL     OW 2288   1.524   1.168   2.657
  718SOL    HW1 2289   1.540   1.103   2.588
  718SOL    HW2 2290   1.434   1.151   2.685
  719SOL     OW 2291   1.368   2.706   3.077
  719SOL    HW1 2292   1.442   2.659   3.115
  719SOL    HW2 2293   1.393   2.720   2.986
  720SOL     OW 2294   0.859   1.511   3.926
  720SOL    HW1 2295   0.899   1.444   3.870
  720SOL    HW2 2296   0.863   1.591   3.874
  721SOL     OW 2297   0.310   3.115   2.250
  721SOL    HW1 2298   0.399   3.103   2.219
  721SOL    HW2 2299   0.258   3.051   2.202
  722SOL     OW 2300   2.043   2.176   3.173
  722SOL    HW1 2301   2.075   2.264   3.193
  722SOL    HW2 2302   2.070   2.160   3.083
  723SOL     OW 2303   0.265   2.801   1.008
  723SOL    HW1 2304   0.317   2.867   0.961
  723SOL    HW2 2305   0.317   2.781   1.086
  724SOL     OW 2306   3.674   3.190   1.683
  724SOL    HW1 2307   3.745   3.240   1.642
  724SOL    HW2 2308   3.713   3.152   1.761
  725SOL     OW 2309   0.578   2.099   0.891
  725SOL    HW1 2310   0.543   2.014   0.864
  725SOL    HW2 2311   0.515   2.163   0.857
  726SOL     OW 2312   3.535   1.901   1.775
  726SOL    HW1 2313   3.596   1.969   1.747
  726SOL    HW2 2314   3.524   1.844   1.699
  727SOL     OW 2315   0.806   2.959   3.212
  727SOL    HW1 2316   0.842   3.048   3.221
  727SOL    HW2 2317   0.746   2.950   3.286
  728SOL     OW 2318   2.339   3.290   1.689
  728SOL    HW1 2319   2.374   3.234   1.621
  728SOL    HW2 2320   2.246   3.299   1.668
  729SOL     OW 2321   1.098   0.841   0.151
  729SOL    HW1 2322   1.047   0.878   0.223
  729SOL    HW2 2323   1.039   0.845   0.076
  730SOL     OW 2324   0.688   1.220   2.308
  730SOL    HW1 2325   0.713   1.190   2.395
  730SOL    HW2 2326   0.683   1.140   2.255
  731SOL     OW 2327   1.253   3.784   0.010
  731SOL    HW1 2328   1.219   3.792   0.099
  731SOL    HW2 2329   1.226   3.697  -0.019
  732SOL     OW 2330   1.789   0.741   0.011
  732SOL    HW1 2331   1.696   0.764   0.008
  732SOL    HW2 2332   1.789   0.645   0.013
  733SOL     OW 2333   2.634   3.704   3.077
  733SOL    HW1 2334   2.611   3.796   3.094
  733SOL    HW2 2335   2.656   3.701   2.984
  734SOL     OW 2336   0.751   1.497   2.607
  734SOL    HW1 2337   0.833   1.516   2.651
  734SOL    HW2 2338   0.697   1.455   2.675
  735SOL     OW 2339   0.484   2.939   3.658
  735SOL    HW1 2340   0.415   2.873   3.661
  735SOL    HW2 2341   0.501   2.958   3.750
  736SOL     OW 2342   0.568   0.415   0.177
  736SOL    HW1 2343   0.617   0.393   0.256
  736SOL    HW2 2344   0.477   0.413   0.204
  737SOL     OW 2345   0.470   0.117   1.847
  737SOL    HW1 2346   0.427   0.155   1.923
  737SOL    HW2 2347   0.475   0.024   1.866
  738SOL     OW 2348   0.474   3.691   3.186
  738SOL    HW1 2349   0.468   3.786   3.196
  738SOL    HW2 2350   0.497   3.659   3.273
  739SOL     OW 2351   2.930   0.515   0.001
  739SOL    HW1 2352   3.025   0.523   0.006
  739SOL    HW2 2353   2.897   0.592   0.048
  740SOL     OW 2354   0.930   1.368   2.427
  740SOL    HW1 2355   0.858   1.396   2.483
  740SOL    HW2 2356   0.894   1.296   2.375
  741SOL     OW 2357   3.680   2.734   2.762
  741SOL    HW1 2358   3.700   2.783   2.842
  741SOL    HW2 2359   3.592   2.701   2.776
  742SOL     OW 2360   0.844   3.044   0.883
  742SOL    HW1 2361   0.778   2.975   0.881
  742SOL    HW2 2362   0.833   3.090   0.800
  743SOL     OW 2363   3.052   2.787   2.808
  743SOL    HW1 2364   2.990   2.831   2.749
  743SOL    HW2 2365   3.138   2.806   2.770
  744SOL     OW 2366   3.289   2.015   0.078
  744SOL    HW1 2367   3.254   1.927   0.092
  744SOL    HW2 2368   3.215   2.066   0.047
  745SOL     OW 2369   3.633   1.988   1.238
  745SOL    HW1 2370   3.547   2.020   1.263
  745SOL    HW2 2371   3.665   1.940   1.314
  746SOL     OW 2372   1.548   0.344   2.556
  746SOL    HW1 2373   1.641   0.339   2.538
  746SOL    HW2 2374   1.542   0.342   2.652
  747SOL     OW 2375   0.053   2.761   0.566
  747SOL    HW1 2376   0.112   2.835   0.556
  747SOL    HW2 2377  -0.022   2.782   0.510
  748SOL     OW 2378   2.569   3.755   3.575
  748SOL    HW1 2379   2.564   3.724   3.485
  748SOL    HW2 2380   2.540   3.681   3.628
  749SOL     OW 2381   2.992   0.652   0.342
  749SOL    HW1 2382   2.955   0.685   0.260
  749SOL    HW2 2383   2.934   0.581   0.368
  750SOL     OW 2384   1.861   3.658   1.647
  750SOL    HW1 2385   1.792   3.652   1.581
  750SOL    HW2 2386   1.938   3.686   1.598
  751SOL     OW 2387   1.637   3.258   3.519
  751SOL    HW1 2388   1.593   3.185   3.476
  751SOL    HW2 2389   1.705   3.217   3.572
  752SOL     OW 2390   1.561   3.033   2.196
  752SOL    HW1 2391   1.492   3.077   2.146
  752SOL    HW2 2392   1.523   2.949   2.220
  753SOL     OW 2393   0.407   0.328   1.663
  753SOL    HW1 2394   0.347   0.293   1.598
  753SOL    HW2 2395   0.423   0.255   1.723
  754SOL     OW 2396   3.020   2.800   3.627
  754SOL    HW1 2397   3.024   2.760   3.540
  754SOL    HW2 2398   2.996   2.891   3.610
  755SOL     OW 2399   3.343   0.291   3.519
  755SOL    HW1 2400   3.298   0.305   3.602
  755SOL    HW2 2401   3.369   0.379   3.491
  756SOL     OW 2402   3.611   0.243   3.699
  756SOL    HW1 2403   3.579   0.279   3.616
  756SOL    HW2 2404   3.596   0.149   3.692
  757SOL     OW 2405   1.164   0.007   1.142
  757SOL    HW1 2406   1.224   0.060   1.195
  757SOL    HW2 2407   1.083   0.057   1.140
  758SOL     OW 2408   2.450   3.660   2.769
  758SOL    HW1 2409   2.481   3.750   2.780
  758SOL    HW2 2410   2.355   3.666   2.770
  759SOL     OW 2411   2.215   1.755   1.385
  759SOL    HW1 2412   2.216   1.809   1.306
  759SOL    HW2 2413   2.131   1.710   1.382
  760SOL     OW 2414   0.074   3.051   3.356
  760SOL    HW1 2415   0.144   3.005   3.311
  760SOL    HW2 2416   0.031   3.104   3.288
  761SOL     OW 2417   2.444   0.721   2.904
  761SOL    HW1 2418   2.349   0.727   2.905
  761SOL    HW2 2419   2.472   0.797   2.852
  762SOL     OW 2420   0.112   3.957   0.524
  762SOL    HW1 2421   0.124   3.862   0.524
  762SOL    HW2 2422   0.052   3.974   0.595
  763SOL     OW 2423   1.526   1.352   1.621
  763SOL    HW1 2424   1.571   1.329   1.540
  763SOL    HW2 2425   1.593   1.343   1.689
  764SOL     OW 2426   0.399   3.319   2.677
  764SOL    HW1 2427   0.412   3.290   2.767
  764SOL    HW2 2428   0.346   3.250   2.637
  765SOL     OW 2429   3.625   2.125   0.879
  765SOL    HW1 2430   3.708   2.136   0.833
  765SOL    HW2 2431   3.642   2.155   0.969
  766SOL     OW 2432   1.921   0.224   1.967
  766SOL    HW1 2433   1.914   0.208   1.873
  766SOL    HW2 2434   1.837   0.196   2.003
  767SOL     OW 2435   3.786   2.923   3.887
  767SOL    HW1 2436   3.715   2.859   3.893
  767SOL    HW2 2437   3.751   2.994   3.833
  768SOL     OW 2438   1.561   2.426   1.825
  768SOL    HW1 2439   1.507   2.375   1.885
  768SOL    HW2 2440   1.578   2.508   1.872
  769SOL     OW 2441   2.275   2.825   2.384
  769SOL    HW1 2442   2.207   2.868   2.436
  769SOL    HW2 2443   2.287   2.740   2.426
  770SOL     OW 2444   1.202   0.574   3.295
  770SOL    HW1 2445   1.243   0.556   3.211
  770SOL    HW2 2446   1.125   0.626   3.275
  771SOL     OW 2447   1.890   1.509   2.228
  771SOL    HW1 2448   1.957   1.570   2.260
  771SOL    HW2 2449   1.822   1.510   2.295
  772SOL     OW 2450   1.074   2.621   3.561
  772SOL    HW1 2451   1.060   2.543   3.508
  772SOL    HW2 2452   1.010   2.613   3.633
  773SOL     OW 2453   2.411   2.311   1.849
  773SOL    HW1 2454   2.409   2.282   1.758
  773SOL    HW2 2455   2.488   2.268   1.886
  774SOL     OW 2456   1.089   1.925   2.669
  774SOL    HW1 2457   1.031   1.862   2.710
  774SOL    HW2 2458   1.032   2.000   2.648
  775SOL     OW 2459   3.733   0.154   1.939
  775SOL    HW1 2460   3.655   0.136   1.887
  775SOL    HW2 2461   3.788   0.208   1.882
  776SOL     OW 2462   0.583   2.392   3.083
  776SOL    HW1 2463   0.515   2.419   3.021
  776SOL    HW2 2464   0.621   2.313   3.045
  777SOL     OW 2465   0.521   2.925   0.335
  777SOL    HW1 2466   0.538   3.016   0.361
  777SOL    HW2 2467   0.568   2.915   0.252
  778SOL     OW 2468   2.808   0.485   3.494
  778SOL    HW1 2469   2.861   0.446   3.425
  778SOL    HW2 2470   2.863   0.482   3.572
  779SOL     OW 2471   1.935   3.410   1.433
  779SOL    HW1 2472   1.902   3.353   1.363
  779SOL    HW2 2473   1.859   3.460   1.461
  780SOL     OW 2474   0.626   3.674   0.225
  780SOL    HW1 2475   0.682   3.599   0.245
  780SOL    HW2 2476   0.640   3.734   0.298
  781SOL     OW 2477   0.648   0.774   1.410
  781SOL    HW1 2478   0.564   0.802   1.374
  781SOL    HW2 2479   0.678   0.705   1.352
  782SOL     OW 2480   0.425   3.468   0.277
  782SOL    HW1 2481   0.398   3.511   0.358
  782SOL    HW2 2482   0.477   3.534   0.231
  783SOL     OW 2483   0.227   0.674   2.376
  783SOL    HW1 2484   0.185   0.589   2.364
  783SOL    HW2 2485   0.172   0.735   2.327
  784SOL     OW 2486   2.828   3.472   3.204
  784SOL    HW1 2487   2.820   3.563   3.175
  784SOL    HW2 2488   2.885   3.431   3.139
  785SOL     OW 2489   3.134   2.948   0.252
  785SOL    HW1 2490   3.151   2.865   0.295
  785SOL    HW2 2491   3.061   2.931   0.193
  786SOL     OW 2492   1.591   1.412   3.093
  786SOL    HW1 2493   1.616   1.462   3.170
  786SOL    HW2 2494   1.504   1.445   3.069
  787SOL     OW 2495   1.705   0.864   2.903
  787SOL    HW1 2496   1.780   0.816   2.937
  787SOL    HW2 2497   1.663   0.902   2.981
  788SOL     OW 2498   2.615   0.046   3.001
  788SOL    HW1 2499   2.592   0.066   2.911
  788SOL    HW2 2500   2.579   0.119   3.052
  789SOL     OW 2501   3.483   0.593   0.367
  789SOL    HW1 2502   3.495   0.588   0.272
  789SOL    HW2 2503   3.429   0.517   0.388
  790SOL     OW 2504   2.440   2.978   2.673
  790SOL    HW1 2505   2.502   3.048   2.689
  790SOL    HW2 2506   2.403   2.998   2.587
  791SOL     OW 2507   1.435   2.565   0.565
  791SOL    HW1 2508   1.392   2.580   0.480
  791SOL    HW2 2509   1.418   2.646   0.614
  792SOL     OW 2510   1.176   2.856   0.314
  792SOL    HW1 2511   1.136   2.878   0.397
  792SOL    HW2 2512   1.194   2.762   0.320
  793SOL     OW 2513   0.475   3.547   3.848
  793SOL    HW1 2514   0.544   3.614   3.847
  793SOL    HW2 2515   0.411   3.577   3.783
  794SOL     OW 2516   0.705   0.620   3.639
  794SOL    HW1 2517   0.624   0.575   3.661
  794SOL    HW2 2518   0.684   0.713   3.647
  795SOL     OW 2519   2.809   1.921   0.697
  795SOL    HW1 2520   2.857   1.972   0.762
  795SOL    HW2 2521   2.875   1.866   0.655
  796SOL     OW 2522   3.470   1.779   3.760
  796SOL    HW1 2523   3.408   1.809   3.694
  796SOL    HW2 2524   3.416   1.762   3.837
  797SOL     OW 2525   3.550   1.019   3.934
  797SOL    HW1 2526   3.575   1.111   3.928
  797SOL    HW2 2527   3.619   0.978   3.985
  798SOL     OW 2528   1.064   2.640   0.609
  798SOL    HW1 2529   1.113   2.721   0.626
  798SOL    HW2 2530   1.098   2.578   0.673
  799SOL     OW 2531   2.617   2.784   1.935
  799SOL    HW1 2532   2.646   2.775   2.026
  799SOL    HW2 2533   2.542   2.724   1.928
  800SOL     OW 2534   1.114   1.710   3.505
  800SOL    HW1 2535   1.158   1.673   3.581
  800SOL    HW2 2536   1.130   1.804   3.511
  801SOL     OW 2537   1.284   3.570   1.225
  801SOL    HW1 2538   1.331   3.644   1.264
  801SOL    HW2 2539   1.242   3.607   1.147
  802SOL     OW 2540   1.914   2.052   2.644
  802SOL    HW1 2541   1.909   2.007   2.559
  802SOL    HW2 2542   1.830   2.098   2.652
  803SOL     OW 2543   0.673   1.729   1.278
  803SOL    HW1 2544   0.686   1.792   1.348
  803SOL    HW2 2545   0.595   1.759   1.232
  804SOL     OW 2546   2.684   0.977   0.591
  804SOL    HW1 2547   2.771   0.955   0.622
  804SOL    HW2 2548   2.699   1.037   0.518
  805SOL     OW 2549   2.122   2.295   0.137
  805SOL    HW1 2550   2.123   2.386   0.105
  805SOL    HW2 2551   2.103   2.243   0.060
  806SOL     OW 2552   1.990   3.371   3.865
  806SOL    HW1 2553   2.085   3.377   3.856
  806SOL    HW2 2554   1.968   3.285   3.828
  807SOL     OW 2555   1.996   3.384   1.887
  807SOL    HW1 2556   2.060   3.327   1.930
  807SOL    HW2 2557   1.981   3.343   1.802
  808SOL     OW 2558   3.637   2.196   3.698
  808SOL    HW1 2559   3.623   2.247   3.778
  808SOL    HW2 2560   3.687   2.120   3.726
  809SOL     OW 2561   2.901   1.332   2.298
  809SOL    HW1 2562   2.876   1.419   2.265
  809SOL    HW2 2563   2.902   1.342   2.393
  810SOL     OW 2564   3.839   1.028   2.107
  810SOL    HW1 2565   3.825   1.114   2.068
  810SOL    HW2 2566   3.816   1.040   2.199
  811SOL     OW 2567   2.755   2.536   0.067
  811SOL    HW1 2568   2.790   2.590  -0.004
  811SOL    HW2 2569   2.825   2.535   0.132
  812SOL     OW 2570   3.687   0.694   1.330
  812SOL    HW1 2571   3.712   0.685   1.238
  812SOL    HW2 2572   3.591   0.684   1.329
  813SOL     OW 2573   1.269   3.615   1.708
  813SOL    HW1 2574   1.314   3.535   1.680
  813SOL    HW2 2575   1.221   3.589   1.786
  814SOL     OW 2576   0.005   1.961   3.157
  814SOL    HW1 2577   0.032   2.024   3.090
  814SOL    HW2 2578   0.049   1.990   3.237
  815SOL     OW 2579   3.280   0.538   1.549
  815SOL    HW1 2580   3.294   0.603   1.617
  815SOL    HW2 2581   3.337   0.465   1.573
  816SOL     OW 2582   0.604   0.288   1.373
  816SOL    HW1 2583   0.533   0.352   1.363
  816SOL    HW2 2584   0.562   0.213   1.415
  817SOL     OW 2585   1.817   2.673   0.387
  817SOL    HW1 2586   1.898   2.716   0.414
  817SOL    HW2 2587   1.830   2.652   0.295
  818SOL     OW 2588   1.590   3.387   2.212
  818SOL    HW1 2589   1.680   3.393   2.243
  818SOL    HW2 2590   1.597   3.391   2.117
  819SOL     OW 2591   1.015   1.826   1.146
  819SOL    HW1 2592   1.019   1.786   1.233
  819SOL    HW2 2593   0.934   1.877   1.146
  820SOL     OW 2594   1.106   0.229   2.595
  820SOL    HW1 2595   1.086   0.159   2.656
  820SOL    HW2 2596   1.198   0.249   2.609
  821SOL     OW 2597   1.472   1.688   2.282
  821SOL    HW1 2598   1.566   1.676   2.298
  821SOL    HW2 2599   1.440   1.600   2.259
  822SOL     OW 2600   1.972   0.783   1.634
  822SOL    HW1 2601   1.957   0.774   1.728
  822SOL    HW2 2602   2.065   0.803   1.627
  823SOL     OW 2603   1.204   0.299   1.465
  823SOL    HW1 2604   1.158   0.241   1.525
  823SOL    HW2 2605   1.197   0.386   1.505
  824SOL     OW 2606   1.670   2.093   1.263
  824SOL    HW1 2607   1.586   2.085   1.308
  824SOL    HW2 2608   1.672   2.184   1.233
  825SOL     OW 2609   1.200   2.678   1.177
  825SOL    HW1 2610   1.115   2.689   1.220
  825SOL    HW2 2611   1.180   2.679   1.084
  826SOL     OW 2612   2.159   0.376   3.708
  826SOL    HW1 2613   2.099   0.302   3.716
  826SOL    HW2 2614   2.160   0.396   3.614
  827SOL     OW 2615   1.932   2.806   1.287
  827SOL    HW1 2616   1.881   2.832   1.363
  827SOL    HW2 2617   1.993   2.740   1.321
  828SOL     OW 2618   2.551   3.064   3.116
  828SOL    HW1 2619   2.508   3.140   3.076
  828SOL    HW2 2620   2.643   3.090   3.124
  829SOL     OW 2621   1.347   0.577   0.885
  829SOL    HW1 2622   1.303   0.662   0.875
  829SOL    HW2 2623   1.419   0.580   0.822
  830SOL     OW 2624   0.531   2.573   1.688
  830SOL    HW1 2625   0.510   2.663   1.713
  830SOL    HW2 2626   0.619   2.578   1.651
  831SOL     OW 2627   1.713   1.306   3.733
  831SOL    HW1 2628   1.673   1.285   3.648
  831SOL    HW2 2629   1.807   1.302   3.717
  832SOL     OW 2630   3.832   3.789   1.737
  832SOL    HW1 2631   3.886   3.819   1.810
  832SOL    HW2 2632   3.867   3.835   1.660
  833SOL     OW 2633   3.926   2.490   1.663
  833SOL    HW1 2634   3.917   2.560   1.598
  833SOL    HW2 2635   4.020   2.471   1.665
  834SOL     OW 2636   1.408   1.410   2.223
  834SOL    HW1 2637   1.454   1.389   2.141
  834SOL    HW2 2638   1.361   1.331   2.246
  835SOL     OW 2639   2.156   2.135   3.876
  835SOL    HW1 2640   2.125   2.141   3.785
  835SOL    HW2 2641   2.094   2.077   3.919
  836SOL     OW 2642   3.502   0.523   3.730
  836SOL    HW1 2643   3.509   0.432   3.701
  836SOL    HW2 2644   3.549   0.573   3.663
  837SOL     OW 2645   3.624   1.202   0.270
  837SOL    HW1 2646   3.657   1.252   0.345
  837SOL    HW2 2647   3.545   1.249   0.243
  838SOL     OW 2648   1.415   0.848   3.754
  838SOL    HW1 2649   1.489   0.906   3.774
  838SOL    HW2 2650   1.348   0.873   3.818
  839SOL     OW 2651   1.285   1.314   1.357
  839SOL    HW1 2652   1.229   1.353   1.424
  839SOL    HW2 2653   1.248   1.226   1.344
  840SOL     OW 2654   0.141   2.329   0.163
  840SOL    HW1 2655   0.064   2.306   0.215
  840SOL    HW2 2656   0.215   2.322   0.224
  841SOL     OW 2657   2.616   3.683   0.606
  841SOL    HW1 2658   2.588   3.692   0.697
  841SOL    HW2 2659   2.545   3.722   0.555
  842SOL     OW 2660   3.154   3.083   2.657
  842SOL    HW1 2661   3.143   3.178   2.661
  842SOL    HW2 2662   3.073   3.051   2.618
  843SOL     OW 2663   0.757   1.728   0.977
  843SOL    HW1 2664   0.680   1.738   1.033
  843SOL    HW2 2665   0.798   1.814   0.977
  844SOL     OW 2666   2.238   1.045   2.529
  844SOL    HW1 2667   2.171   1.075   2.468
  844SOL    HW2 2668   2.197   1.054   2.615
  845SOL     OW 2669   1.312   2.600   3.902
  845SOL    HW1 2670   1.332   2.624   3.993
  845SOL    HW2 2671   1.385   2.544   3.876
  846SOL     OW 2672   1.195   1.894   1.679
  846SOL    HW1 2673   1.178   1.806   1.712
  846SOL    HW2 2674   1.257   1.881   1.607
  847SOL     OW 2675   1.559   1.774   2.569
  847SOL    HW1 2676   1.549   1.739   2.657
  847SOL    HW2 2677   1.496   1.846   2.564
  848SOL     OW 2678   2.127   2.515   0.554
  848SOL    HW1 2679   2.072   2.460   0.498
  848SOL    HW2 2680   2.214   2.511   0.515
  849SOL     OW 2681   2.266   0.033   2.639
  849SOL    HW1 2682   2.234   0.123   2.646
  849SOL    HW2 2683   2.187  -0.020   2.629
  850SOL     OW 2684   1.398   1.055   1.032
  850SOL    HW1 2685   1.485   1.018   1.041
  850SOL    HW2 2686   1.413   1.142   0.994
  851SOL     OW 2687   1.119   3.714   0.790
  851SOL    HW1 2688   1.200   3.741   0.747
  851SOL    HW2 2689   1.137   3.726   0.884
  852SOL     OW 2690   2.630   1.837   2.698
  852SOL    HW1 2691   2.701   1.877   2.647
  852SOL    HW2 2692   2.599   1.765   2.643
  853SOL     OW 2693   2.169   1.500   2.521
  853SOL    HW1 2694   2.090   1.555   2.513
  853SOL    HW2 2695   2.180   1.488   2.616
  854SOL     OW 2696   2.361   0.795   0.599
  854SOL    HW1 2697   2.442   0.772   0.644
  854SOL    HW2 2698   2.296   0.806   0.668
  855SOL     OW 2699   0.756   2.095   0.545
  855SOL    HW1 2700   0.802   2.115   0.464
  855SOL    HW2 2701   0.675   2.053   0.518
  856SOL     OW 2702   1.530   2.170   3.766
  856SOL    HW1 2703   1.511   2.090   3.718
  856SOL    HW2 2704   1.616   2.155   3.805
  857SOL     OW 2705   0.341   0.552   3.445
  857SOL    HW1 2706   0.311   0.474   3.492
  857SOL    HW2 2707   0.310   0.539   3.356
  858SOL     OW 2708   3.630   1.405   1.588
  858SOL    HW1 2709   3.599   1.368   1.671
  858SOL    HW2 2710   3.600   1.342   1.522
  859SOL     OW 2711   0.105   0.622   1.482
  859SOL    HW1 2712   0.136   0.708   1.510
  859SOL    HW2 2713   0.009   0.630   1.483
  860SOL     OW 2714   2.631   0.833   3.551
  860SOL    HW1 2715   2.618   0.796   3.639
  860SOL    HW2 2716   2.646   0.926   3.567
  861SOL     OW 2717   3.266   3.926   1.511
  861SOL    HW1 2718   3.234   3.859   1.571
  861SOL    HW2 2719   3.356   3.901   1.491
  862SOL     OW 2720   2.659   1.703   0.344
  862SOL    HW1 2721   2.636   1.630   0.287
  862SOL    HW2 2722   2.631   1.674   0.431
  863SOL     OW 2723   3.632   1.812   2.552
  863SOL    HW1 2724   3.581   1.793   2.473
  863SOL    HW2 2725   3.670   1.898   2.535
  864SOL     OW 2726   2.706   2.992   2.410
  864SOL    HW1 2727   2.619   2.980   2.447
  864SOL    HW2 2728   2.704   3.079   2.370
  865SOL     OW 2729   3.042   1.549   3.238
  865SOL    HW1 2730   3.088   1.546   3.154
  865SOL    HW2 2731   3.100   1.598   3.296
  866SOL     OW 2732   0.205   3.030   1.166
  866SOL    HW1 2733   0.127   3.066   1.122
  866SOL    HW2 2734   0.197   2.935   1.155
  867SOL     OW 2735   2.180   0.769   2.921
  867SOL    HW1 2736   2.089   0.739   2.915
  867SOL    HW2 2737   2.184   0.817   3.003
  868SOL     OW 2738   2.149   2.647   3.753
  868SOL    HW1 2739   2.063   2.617   3.723
  868SOL    HW2 2740   2.181   2.703   3.683
  869SOL     OW 2741   0.732   0.832   1.059
  869SOL    HW1 2742   0.720   0.769   1.129
  869SOL    HW2 2743   0.677   0.907   1.084
  870SOL     OW 2744   3.958   3.925   3.766
  870SOL    HW1 2745   4.018   3.853   3.751
  870SOL    HW2 2746   3.881   3.904   3.713
  871SOL     OW 2747   3.429   3.380   1.773
  871SOL    HW1 2748   3.340   3.349   1.790
  871SOL    HW2 2749   3.432   3.390   1.677
  872SOL     OW 2750   0.067   3.407   0.523
  872SOL    HW1 2751  -0.015   3.371   0.490
  872SOL    HW2 2752   0.135   3.360   0.474
  873SOL     OW 2753   3.384   3.227   1.131
  873SOL    HW1 2754   3.467   3.181   1.122
  873SOL    HW2 2755   3.405   3.307   1.178
  874SOL     OW 2756   1.579   3.578   1.841
  874SOL    HW1 2757   1.669   3.604   1.821
  874SOL    HW2 2758   1.586   3.490   1.878
  875SOL     OW 2759   1.063   2.216   3.371
  875SOL    HW1 2760   0.995   2.279   3.349
  875SOL    HW2 2761   1.088   2.238   3.461
  876SOL     OW 2762   1.777   2.364   3.219
  876SOL    HW1 2763   1.771   2.384   3.126
  876SOL    HW2 2764   1.841   2.293   3.225
  877SOL     OW 2765   2.618   2.257   1.022
  877SOL    HW1 2766   2.546   2.318   1.010
  877SOL    HW2 2767   2.576   2.175   1.049
  878SOL     OW 2768   1.497   2.160   0.622
  878SOL    HW1 2769   1.568   2.173   0.686
  878SOL    HW2 2770   1.531   2.094   0.562
  879SOL     OW 2771   2.367   0.551   3.763
  879SOL    HW1 2772   2.332   0.623   3.815
  879SOL    HW2 2773   2.291   0.498   3.741
  880SOL     OW 2774   0.882   0.020   3.719
  880SOL    HW1 2775   0.959   0.071   3.744
  880SOL    HW2 2776   0.821   0.032   3.791
  881SOL     OW 2777   1.349   1.880   0.756
  881SOL    HW1 2778   1.364   1.971   0.731
  881SOL    HW2 2779   1.257   1.877   0.783
  882SOL     OW 2780   2.042   0.539   0.158
  882SOL    HW1 2781   2.001   0.454   0.143
  882SOL    HW2 2782   2.136   0.520   0.162
  883SOL     OW 2783   0.134   1.267   2.027
  883SOL    HW1 2784   0.215   1.216   2.021
  883SOL    HW2 2785   0.150   1.345   1.975
  884SOL     OW 2786   3.858   3.028   0.182
  884SOL    HW1 2787   3.914   3.105   0.193
  884SOL    HW2 2788   3.850   3.017   0.088
  885SOL     OW 2789   3.832   0.504   3.505
  885SOL    HW1 2790   3.748   0.468   3.477
  885SOL    HW2 2791   3.894   0.477   3.437
  886SOL     OW 2792   1.131   3.303   0.958
  886SOL    HW1 2793   1.226   3.293   0.957
  886SOL    HW2 2794   1.109   3.337   0.871
  887SOL     OW 2795   0.198   2.909   3.983
  887SOL    HW1 2796   0.160   2.970   3.920
  887SOL    HW2 2797   0.141   2.832   3.979
  888SOL     OW 2798   3.322   1.660   1.056
  888SOL    HW1 2799   3.408   1.701   1.043
  888SOL    HW2 2800   3.289   1.700   1.137
  889SOL     OW 2801   3.876   1.617   1.295
  889SOL    HW1 2802   3.902   1.529   1.320
  889SOL    HW2 2803   3.781   1.610   1.279
  890SOL     OW 2804   2.699   1.759   3.884
  890SOL    HW1 2805   2.679   1.851   3.868
  890SOL    HW2 2806   2.614   1.716   3.887
  891SOL     OW 2807   0.287   2.863   1.929
  891SOL    HW1 2808   0.320   2.806   1.999
  891SOL    HW2 2809   0.342   2.842   1.853
  892SOL     OW 2810   3.271   0.421   3.798
  892SOL    HW1 2811   3.237   0.478   3.868
  892SOL    HW2 2812   3.353   0.464   3.771
  893SOL     OW 2813   2.954   2.697   1.531
  893SOL    HW1 2814   2.987   2.614   1.495
  893SOL    HW2 2815   3.026   2.729   1.585
  894SOL     OW 2816   1.194   2.224   0.001
  894SOL    HW1 2817   1.215   2.267   0.084
  894SOL    HW2 2818   1.108   2.257  -0.023
  895SOL     OW 2819   1.526   1.582   3.312
  895SOL    HW1 2820   1.564   1.655   3.361
  895SOL    HW2 2821   1.467   1.540   3.374
  896SOL     OW 2822   0.748   0.878   2.939
  896SOL    HW1 2823   0.842   0.892   2.928
  896SOL    HW2 2824   0.716   0.862   2.851
  897SOL     OW 2825   2.432   0.063   1.975
  897SOL    HW1 2826   2.366   0.046   1.908
  897SOL    HW2 2827   2.414  -0.001   2.044
  898SOL     OW 2828   2.780   2.391   2.330
  898SOL    HW1 2829   2.868   2.359   2.313
  898SOL    HW2 2830   2.723   2.330   2.284
  899SOL     OW 2831   2.575   0.403   0.508
  899SOL    HW1 2832   2.609   0.436   0.591
  899SOL    HW2 2833   2.481   0.418   0.513
  900SOL     OW 2834   0.030   2.510   2.723
  900SOL    HW1 2835   0.033   2.524   2.818
  900SOL    HW2 2836   0.118   2.481   2.700
  901SOL     OW 2837   2.425   1.083   0.710
  901SOL    HW1 2838   2.508   1.036   0.699
  901SOL    HW2 2839   2.399   1.107   0.621
  902SOL     OW 2840   1.556   2.322   2.622
  902SOL    HW1 2841   1.471   2.280   2.637
  902SOL    HW2 2842   1.598   2.268   2.556
  903SOL     OW 2843   1.835   1.462   2.902
  903SOL    HW1 2844   1.840   1.425   2.813
  903SOL    HW2 2845   1.776   1.404   2.949
  904SOL     OW 2846   3.849   2.158   1.398
  904SOL    HW1 2847   3.921   2.166   1.336
  904SOL    HW2 2848   3.815   2.069   1.384
  905SOL     OW 2849   2.735   1.563   0.119
  905SOL    HW1 2850   2.759   1.495   0.055
  905SOL    HW2 2851   2.706   1.637   0.065
  906SOL     OW 2852   3.045   1.281   2.086
  906SOL    HW1 2853   3.072   1.192   2.064
  906SOL    HW2 2854   3.000   1.272   2.170
  907SOL     OW 2855   0.086   2.977   2.145
  907SOL    HW1 2856   0.126   2.927   2.074
  907SOL    HW2 2857   0.040   3.048   2.100
  908SOL     OW 2858   0.154   1.561   0.908
  908SOL    HW1 2859   0.203   1.508   0.971
  908SOL    HW2 2860   0.101   1.499   0.859
  909SOL     OW 2861   2.715   1.704   0.928
  909SOL    HW1 2862   2.630   1.746   0.936
  909SOL    HW2 2863   2.759   1.754   0.859
  910SOL     OW 2864   1.994   1.083   2.362
  910SOL    HW1 2865   1.951   1.053   2.442
  910SOL    HW2 2866   1.943   1.046   2.291
  911SOL     OW 2867   3.596   0.941   1.307
  911SOL    HW1 2868   3.617   0.848   1.313
  911SOL    HW2 2869   3.660   0.984   1.364
  912SOL     OW 2870   0.661   0.554   3.351
  912SOL    HW1 2871   0.720   0.586   3.419
  912SOL    HW2 2872   0.587   0.517   3.399
  913SOL     OW 2873   2.112   3.642   3.373
  913SOL    HW1 2874   2.049   3.596   3.428
  913SOL    HW2 2875   2.127   3.725   3.419
  914SOL     OW 2876   2.643   3.355   0.024
  914SOL    HW1 2877   2.576   3.381  -0.040
  914SOL    HW2 2878   2.692   3.435   0.041
  915SOL     OW 2879   2.663   1.101   3.644
  915SOL    HW1 2880   2.621   1.174   3.598
  915SOL    HW2 2881   2.641   1.113   3.736
  916SOL     OW 2882   3.923   3.215   2.030
  916SOL    HW1 2883   3.894   3.259   2.110
  916SOL    HW2 2884   4.005   3.258   2.007
  917SOL     OW 2885   1.833   1.016   3.928
  917SOL    HW1 2886   1.891   1.061   3.990
  917SOL    HW2 2887   1.845   0.923   3.947
  918SOL     OW 2888   0.091   2.534   3.578
  918SOL    HW1 2889   0.009   2.529   3.529
  918SOL    HW2 2890   0.143   2.460   3.546
  919SOL     OW 2891   3.319   0.873   0.087
  919SOL    HW1 2892   3.376   0.903   0.158
  919SOL    HW2 2893   3.356   0.914   0.008
  920SOL     OW 2894   1.997   1.923   2.398
  920SOL    HW1 2895   2.072   1.979   2.377
  920SOL    HW2 2896   1.972   1.884   2.314
  921SOL     OW 2897   0.450   1.585   0.143
  921SOL    HW1 2898   0.509   1.524   0.100
  921SOL    HW2 2899   0.373   1.532   0.166
  922SOL     OW 2900   2.036   2.873   2.919
  922SOL    HW1 2901   2.070   2.843   2.834
  922SOL    HW2 2902   1.999   2.959   2.900
  923SOL     OW 2903   2.292   2.729   1.692
  923SOL    HW1 2904   2.226   2.676   1.648
  923SOL    HW2 2905   2.359   2.745   1.625
  924SOL     OW 2906   2.360   0.208   2.305
  924SOL    HW1 2907   2.314   0.188   2.224
  924SOL    HW2 2908   2.323   0.292   2.333
  925SOL     OW 2909   1.192   2.968   1.339
  925SOL    HW1 2910   1.144   2.920   1.272
  925SOL    HW2 2911   1.280   2.979   1.303
  926SOL     OW 2912   2.363   1.293   3.563
  926SOL    HW1 2913   2.334   1.383   3.580
  926SOL    HW2 2914   2.451   1.302   3.527
  927SOL     OW 2915   3.330   3.623   2.683
  927SOL    HW1 2916   3.305   3.669   2.603
  927SOL    HW2 2917   3.350   3.692   2.746
  928SOL     OW 2918   0.008   2.746   1.868
  928SOL    HW1 2919   0.103   2.747   1.881
  928SOL    HW2 2920  -0.014   2.653   1.864
  929SOL     OW 2921   0.021   0.512   0.040
  929SOL    HW1 2922  -0.035   0.512  -0.038
  929SOL    HW2 2923   0.099   0.560   0.014
  930SOL     OW 2924   1.154   2.283   1.409
  930SOL    HW1 2925   1.079   2.326   1.368
  930SOL    HW2 2926   1.146   2.191   1.384
  931SOL     OW 2927   0.094   3.221   2.878
  931SOL    HW1 2928   0.044   3.267   2.811
  931SOL    HW2 2929   0.175   3.196   2.834
  932SOL     OW 2930   3.201   2.638   2.172
  932SOL    HW1 2931   3.279   2.614   2.122
  932SOL    HW2 2932   3.231   2.642   2.263
  933SOL     OW 2933   0.894   3.434   1.380
  933SOL    HW1 2934   0.887   3.353   1.431
  933SOL    HW2 2935   0.881   3.504   1.445
  934SOL     OW 2936   0.339   1.325   2.392
  934SOL    HW1 2937   0.249   1.338   2.360
  934SOL    HW2 2938   0.391   1.385   2.338
  935SOL     OW 2939   1.932   2.532   2.477
  935SOL    HW1 2940   1.950   2.445   2.440
  935SOL    HW2 2941   1.855   2.519   2.533
  936SOL     OW 2942   3.487   1.259   1.387
  936SOL    HW1 2943   3.465   1.352   1.377
  936SOL    HW2 2944   3.403   1.214   1.383
  937SOL     OW 2945   0.033   3.526   2.126
  937SOL    HW1 2946   0.087   3.459   2.168
  937SOL    HW2 2947   0.048   3.605   2.179
  938SOL     OW 2948   3.504   0.834   3.742
  938SOL    HW1 2949   3.512   0.901   3.810
  938SOL    HW2 2950   3.416   0.799   3.752
  939SOL     OW 2951   2.228   0.798   1.998
  939SOL    HW1 2952   2.296   0.801   1.931
  939SOL    HW2 2953   2.224   0.887   2.033
  940SOL     OW 2954   3.182   1.876   1.476
  940SOL    HW1 2955   3.167   1.969   1.492
  940SOL    HW2 2956   3.096   1.841   1.452
  941SOL     OW 2957   0.882   3.334   1.951
  941SOL    HW1 2958   0.834   3.384   1.886
  941SOL    HW2 2959   0.891   3.247   1.913
  942SOL     OW 2960   3.230   1.202   0.705
  942SOL    HW1 2961   3.211   1.273   0.643
  942SOL    HW2 2962   3.255   1.128   0.650
  943SOL     OW 2963   0.542   2.458   1.264
  943SOL    HW1 2964   0.500   2.465   1.350
  943SOL    HW2 2965   0.482   2.405   1.212
  944SOL     OW 2966   0.153   2.073   1.260
  944SOL    HW1 2967   0.164   2.168   1.266
  944SOL    HW2 2968   0.228   2.037   1.307
  945SOL     OW 2969   3.609   0.385   3.436
  945SOL    HW1 2970   3.611   0.450   3.366
  945SOL    HW2 2971   3.581   0.304   3.393
  946SOL     OW 2972   2.849   0.948   1.616
  946SOL    HW1 2973   2.932   0.958   1.663
  946SOL    HW2 2974   2.843   0.854   1.599
  947SOL     OW 2975   1.606   0.056   2.902
  947SOL    HW1 2976   1.511   0.060   2.913
  947SOL    HW2 2977   1.634  -0.015   2.958
  948SOL     OW 2978   3.527   3.170   3.989
  948SOL    HW1 2979   3.585   3.245   3.996
  948SOL    HW2 2980   3.520   3.154   3.895
  949SOL     OW 2981   2.316   1.214   2.974
  949SOL    HW1 2982   2.236   1.247   3.013
  949SOL    HW2 2983   2.382   1.280   2.995
  950SOL     OW 2984   0.495   2.926   1.449
  950SOL    HW1 2985   0.498   3.007   1.397
  950SOL    HW2 2986   0.415   2.934   1.501
  951SOL     OW 2987   1.005   0.064   2.758
  951SOL    HW1 2988   0.991   0.110   2.840
  951SOL    HW2 2989   1.013  -0.028   2.783
  952SOL     OW 2990   0.323   1.194   0.131
  952SOL    HW1 2991   0.297   1.110   0.168
  952SOL    HW2 2992   0.292   1.192   0.040
  953SOL     OW 2993   3.000   1.909   3.698
  953SOL    HW1 2994   3.025   1.902   3.790
  953SOL    HW2 2995   3.036   1.993   3.669
  954SOL     OW 2996   3.123   1.291   3.027
  954SOL    HW1 2997   3.129   1.323   2.937
  954SOL    HW2 2998   3.210   1.309   3.064
  955SOL     OW 2999   2.286   2.569   3.446
  955SOL    HW1 3000   2.305   2.564   3.352
  955SOL    HW2 3001   2.349   2.633   3.480
  956SOL     OW 3002   0.614   0.554   2.049
  956SOL    HW1 3003   0.704   0.586   2.061
  956SOL    HW2 3004   0.563   0.605   2.112
  957SOL     OW 3005   0.812   3.474   2.353
  957SOL    HW1 3006   0.738   3.500   2.408
  957SOL    HW2 3007   0.828   3.550   2.297
  958SOL     OW 3008   2.942   2.439   0.425
  958SOL    HW1 3009   2.944   2.514   0.366
  958SOL    HW2 3010   3.024   2.444   0.473
  959SOL     OW 3011   0.076   3.288   3.479
  959SOL    HW1 3012   0.116   3.211   3.438
  959SOL    HW2 3013  -0.018   3.271   3.476
  960SOL     OW 3014   3.745   1.924   3.719
  960SOL    HW1 3015   3.765   1.857   3.654
  960SOL    HW2 3016   3.664   1.895   3.761
  961SOL     OW 3017   2.226   0.826   1.536
  961SOL    HW1 3018   2.275   0.848   1.457
  961SOL    HW2 3019   2.291   0.820   1.605
  962SOL     OW 3020   2.608   2.678   3.739
  962SOL    HW1 3021   2.682   2.643   3.689
  962SOL    HW2 3022   2.544   2.703   3.673
  963SOL     OW 3023   0.442   2.756   1.201
  963SOL    HW1 3024   0.484   2.806   1.272
  963SOL    HW2 3025   0.506   2.689   1.178
  964SOL     OW 3026   3.519   2.438   1.732
  964SOL    HW1 3027   3.565   2.399   1.657
  964SOL    HW2 3028   3.489   2.364   1.783
  965SOL     OW 3029   2.561   0.756   2.208
  965SOL    HW1 3030   2.533   0.828   2.265
  965SOL    HW2 3031   2.510   0.681   2.238
  966SOL     OW 3032   3.824   2.719   2.266
  966SOL    HW1 3033   3.770   2.699   2.343
  966SOL    HW2 3034   3.897   2.770   2.301
  967SOL     OW 3035   3.774   3.457   1.601
  967SOL    HW1 3036   3.699   3.514   1.619
  967SOL    HW2 3037   3.833   3.470   1.676
  968SOL     OW 3038   1.982   2.291   2.796
  968SOL    HW1 3039   2.017   2.288   2.707
  968SOL    HW2 3040   2.059   2.290   2.852
  969SOL     OW 3041   0.872   1.325   1.583
  969SOL    HW1 3042   0.834   1.314   1.671
  969SOL    HW2 3043   0.841   1.249   1.534
  970SOL     OW 3044   0.929   0.285   2.314
  970SOL    HW1 3045   0.996   0.351   2.332
  970SOL    HW2 3046   0.848   0.324   2.346
  971SOL     OW 3047   0.677   3.355   3.078
  971SOL    HW1 3048   0.680   3.259   3.070
  971SOL    HW2 3049   0.720   3.386   2.998
  972SOL     OW 3050   3.670   1.616   3.816
  972SOL    HW1 3051   3.668   1.554   3.743
  972SOL    HW2 3052   3.606   1.683   3.794
  973SOL     OW 3053   3.352   2.533   0.748
  973SOL    HW1 3054   3.429   2.538   0.806
  973SOL    HW2 3055   3.387   2.550   0.661
  974SOL     OW 3056   1.256   1.625   3.722
  974SOL    HW1 3057   1.252   1.683   3.798
  974SOL    HW2 3058   1.252   1.537   3.759
  975SOL     OW 3059   2.704   2.783   0.401
  975SOL    HW1 3060   2.725   2.876   0.393
  975SOL    HW2 3061   2.785   2.738   0.378
  976SOL     OW 3062   2.466   1.236   1.763
  976SOL    HW1 3063   2.524   1.173   1.805
  976SOL    HW2 3064   2.422   1.280   1.836
  977SOL     OW 3065   2.176   3.060   0.606
  977SOL    HW1 3066   2.233   2.983   0.609
  977SOL    HW2 3067   2.173   3.084   0.513
  978SOL     OW 3068   0.220   0.205   1.230
  978SOL    HW1 3069   0.305   0.164   1.212
  978SOL    HW2 3070   0.202   0.258   1.153
  979SOL     OW 3071   0.055   0.686   3.257
  979SOL    HW1 3072   0.113   0.611   3.247
  979SOL    HW2 3073  -0.028   0.658   3.219
  980SOL     OW 3074   0.737   3.735   1.089
  980SOL    HW1 3075   0.782   3.737   1.174
  980SOL    HW2 3076   0.769   3.655   1.047
  981SOL     OW 3077   0.590   3.116   1.294
  981SOL    HW1 3078   0.610   3.190   1.352
  981SOL    HW2 3079   0.673   3.070   1.284
  982SOL     OW 3080   3.720   1.270   2.339
  982SOL    HW1 3081   3.653   1.211   2.305
  982SOL    HW2 3082   3.705   1.352   2.291
  983SOL     OW 3083   0.084   0.472   2.954
  983SOL    HW1 3084   0.063   0.475   2.860
  983SOL    HW2 3085   0.008   0.511   2.997
  984SOL     OW 3086   2.445   0.866   1.856
  984SOL    HW1 3087   2.404   0.950   1.836
  984SOL    HW2 3088   2.526   0.888   1.901
  985SOL     OW 3089   2.372   0.981   3.918
  985SOL    HW1 3090   2.299   0.960   3.976
  985SOL    HW2 3091   2.426   0.902   3.918
  986SOL     OW 3092   3.858   1.262   2.738
  986SOL    HW1 3093   3.820   1.341   2.776
  986SOL    HW2 3094   3.902   1.219   2.811
  987SOL     OW 3095   2.850   3.149   1.986
  987SOL    HW1 3096   2.941   3.150   1.957
  987SOL    HW2 3097   2.811   3.073   1.942
  988SOL     OW 3098   3.864   0.869   0.669
  988SOL    HW1 3099   3.797   0.804   0.649
  988SOL    HW2 3100   3.945   0.819   0.673
  989SOL     OW 3101   3.530   1.680   1.605
  989SOL    HW1 3102   3.548   1.600   1.655
  989SOL    HW2 3103   3.473   1.652   1.534
  990SOL     OW 3104   0.781   2.840   0.555
  990SOL    HW1 3105   0.686   2.845   0.545
  990SOL    HW2 3106   0.796   2.763   0.610
  991SOL     OW 3107   1.650   0.061   2.343
  991SOL    HW1 3108   1.642   0.017   2.428
  991SOL    HW2 3109   1.560   0.081   2.317
  992SOL     OW 3110   1.501   2.781   1.591
  992SOL    HW1 3111   1.426   2.751   1.643
  992SOL    HW2 3112   1.463   2.801   1.505
  993SOL     OW 3113   1.697   3.949   1.074
  993SOL    HW1 3114   1.674   4.012   1.005
  993SOL    HW2 3115   1.623   3.888   1.076
  994SOL     OW 3116   2.609   0.711   3.793
  994SOL    HW1 3117   2.544   0.641   3.782
  994SOL    HW2 3118   2.692   0.665   3.808
  995SOL     OW 3119   0.070   0.991   1.878
  995SOL    HW1 3120   0.106   1.080   1.878
  995SOL    HW2 3121   0.013   0.989   1.955
  996SOL     OW 3122   3.159   1.386   0.539
  996SOL    HW1 3123   3.244   1.416   0.508
  996SOL    HW2 3124   3.102   1.394   0.463
  997SOL     OW 3125   2.205   0.919   3.197
  997SOL    HW1 3126   2.220   0.836   3.243
  997SOL    HW2 3127   2.263   0.982   3.241
  998SOL     OW 3128   2.511   2.971   1.145
  998SOL    HW1 3129   2.451   3.038   1.114
  998SOL    HW2 3130   2.585   2.975   1.085
  999SOL     OW 3131   3.856   0.945   0.025
  999SOL    HW1 3132   3.798   0.870   0.013
  999SOL    HW2 3133   3.939   0.918  -0.013
 1000SOL     OW 3134   1.839   2.329   0.196
 1000SOL    HW1 3135   1.811   2.391   0.129
 1000SOL    HW2 3136   1.888   2.382   0.259
 1001SOL     OW 3137   3.561   2.783   3.849
 1001SOL    HW1 3138   3.512   2.860   3.823
 1001SOL    HW2 3139   3.527   2.713   3.793
 1002SOL     OW 3140   3.481   0.605   2.765
 1002SOL    HW1 3141   3.493   0.699   2.773
 1002SOL    HW2 3142   3.483   0.588   2.671
 1003SOL     OW 3143   3.908   2.972   3.599
 1003SOL    HW1 3144   3.951   2.999   3.517
 1003SOL    HW2 3145   3.969   2.999   3.668
 1004SOL     OW 3146   3.386   0.203   2.448
 1004SOL    HW1 3147   3.301   0.160   2.446
 1004SOL    HW2 3148   3.400   0.232   2.358
 1005SOL     OW 3149   0.991   2.740   1.401
 1005SOL    HW1 3150   1.044   2.735   1.480
 1005SOL    HW2 3151   0.957   2.829   1.400
 1006SOL     OW 3152   3.404   1.503   3.689
 1006SOL    HW1 3153   3.394   1.485   3.782
 1006SOL    HW2 3154   3.415   1.417   3.649
 1007SOL     OW 3155   3.315   2.994   1.014
 1007SOL    HW1 3156   3.292   3.081   1.046
 1007SOL    HW2 3157   3.233   2.945   1.014
 1008SOL     OW 3158   0.589   2.273   2.029
 1008SOL    HW1 3159   0.625   2.205   1.973
 1008SOL    HW2 3160   0.660   2.337   2.038
 1009SOL     OW 3161   0.297   2.804   2.882
 1009SOL    HW1 3162   0.212   2.834   2.850
 1009SOL    HW2 3163   0.361   2.857   2.835
 1010SOL     OW 3164   2.029   2.953   2.614
 1010SOL    HW1 3165   2.055   3.040   2.585
 1010SOL    HW2 3166   1.934   2.953   2.610
 1011SOL     OW 3167   1.686   3.789   3.036
 1011SOL    HW1 3168   1.684   3.791   3.132
 1011SOL    HW2 3169   1.670   3.698   3.013
 1012SOL     OW 3170   3.517   3.801   2.153
 1012SOL    HW1 3171   3.544   3.810   2.062
 1012SOL    HW2 3172   3.527   3.708   2.173
 1013SOL     OW 3173   0.854   1.531   0.348
 1013SOL    HW1 3174   0.817   1.461   0.294
 1013SOL    HW2 3175   0.820   1.513   0.436
 1014SOL     OW 3176   2.397   2.549   2.314
 1014SOL    HW1 3177   2.473   2.597   2.279
 1014SOL    HW2 3178   2.405   2.558   2.409
 1015SOL     OW 3179   3.436   2.538   2.107
 1015SOL    HW1 3180   3.518   2.553   2.059
 1015SOL    HW2 3181   3.415   2.446   2.089
 1016SOL     OW 3182   1.695   0.550   0.496
 1016SOL    HW1 3183   1.741   0.600   0.429
 1016SOL    HW2 3184   1.713   0.458   0.476
 1017SOL     OW 3185   3.058   2.599   3.393
 1017SOL    HW1 3186   3.010   2.629   3.315
 1017SOL    HW2 3187   3.086   2.510   3.371
 1018SOL     OW 3188   3.611   3.100   3.253
 1018SOL    HW1 3189   3.590   3.029   3.313
 1018SOL    HW2 3190   3.685   3.068   3.202
 1019SOL     OW 3191   2.228   1.515   3.376
 1019SOL    HW1 3192   2.303   1.518   3.316
 1019SOL    HW2 3193   2.154   1.493   3.320
 1020SOL     OW 3194   0.437   3.388   3.185
 1020SOL    HW1 3195   0.519   3.379   3.136
 1020SOL    HW2 3196   0.415   3.481   3.178
 1021SOL     OW 3197   1.821   0.258   2.413
 1021SOL    HW1 3198   1.765   0.183   2.389
 1021SOL    HW2 3199   1.901   0.218   2.446
 1022SOL     OW 3200   2.075   2.653   2.198
 1022SOL    HW1 3201   2.056   2.746   2.186
 1022SOL    HW2 3202   2.104   2.646   2.289
 1023SOL     OW 3203   1.488   0.917   1.642
 1023SOL    HW1 3204   1.417   0.872   1.689
 1023SOL    HW2 3205   1.479   0.888   1.551
 1024SOL     OW 3206   0.568   2.041   1.721
 1024SOL    HW1 3207   0.592   2.040   1.628
 1024SOL    HW2 3208   0.510   2.117   1.730
 1025SOL     OW 3209   2.227   1.216   0.209
 1025SOL    HW1 3210   2.193   1.303   0.188
 1025SOL    HW2 3211   2.255   1.180   0.125
 1026SOL     OW 3212   2.554   3.915   2.677
 1026SOL    HW1 3213   2.469   3.953   2.698
 1026SOL    HW2 3214   2.616   3.987   2.689
 1027SOL     OW 3215   2.600   2.024   0.544
 1027SOL    HW1 3216   2.660   1.972   0.598
 1027SOL    HW2 3217   2.657   2.084   0.496
 1028SOL     OW 3218   0.610   3.100   1.899
 1028SOL    HW1 3219   0.516   3.108   1.883
 1028SOL    HW2 3220   0.650   3.150   1.828
 1029SOL     OW 3221   1.078   3.445   0.727
 1029SOL    HW1 3222   1.021   3.445   0.650
 1029SOL    HW2 3223   1.106   3.536   0.736
 1030SOL     OW 3224   2.915   1.434   3.492
 1030SOL    HW1 3225   2.962   1.496   3.437
 1030SOL    HW2 3226   2.958   1.350   3.478
 1031SOL     OW 3227   0.390   0.073   0.715
 1031SOL    HW1 3228   0.404   0.059   0.809
 1031SOL    HW2 3229   0.302   0.110   0.708
 1032SOL     OW 3230   1.390   3.336   1.595
 1032SOL    HW1 3231   1.315   3.295   1.638
 1032SOL    HW2 3232   1.452   3.264   1.582
 1033SOL     OW 3233   2.728   1.752   1.337
 1033SOL    HW1 3234   2.659   1.687   1.322
 1033SOL    HW2 3235   2.733   1.801   1.255
 1034SOL     OW 3236   1.110   1.088   0.604
 1034SOL    HW1 3237   1.182   1.151   0.598
 1034SOL    HW2 3238   1.124   1.044   0.688
 1035SOL     OW 3239   2.866   1.233   3.158
 1035SOL    HW1 3240   2.894   1.161   3.215
 1035SOL    HW2 3241   2.942   1.292   3.156
 1036SOL     OW 3242   3.821   2.309   2.656
 1036SOL    HW1 3243   3.878   2.372   2.700
 1036SOL    HW2 3244   3.804   2.241   2.721
 1037SOL     OW 3245   0.858   3.783   1.365
 1037SOL    HW1 3246   0.837   3.721   1.435
 1037SOL    HW2 3247   0.952   3.801   1.377
 1038SOL     OW 3248   0.646   0.114   0.567
 1038SOL    HW1 3249   0.562   0.072   0.589
 1038SOL    HW2 3250   0.637   0.203   0.600
 1039SOL     OW 3251   2.131   0.677   1.069
 1039SOL    HW1 3252   2.058   0.740   1.067
 1039SOL    HW2 3253   2.193   0.711   1.005
 1040SOL     OW 3254   0.488   2.420   0.490
 1040SOL    HW1 3255   0.550   2.478   0.446
 1040SOL    HW2 3256   0.404   2.438   0.446
 1041SOL     OW 3257   0.214   1.796   1.025
 1041SOL    HW1 3258   0.184   1.724   0.970
 1041SOL    HW2 3259   0.142   1.859   1.024
 1042SOL     OW 3260   3.410   1.439   0.448
 1042SOL    HW1 3261   3.407   1.420   0.354
 1042SOL    HW2 3262   3.485   1.497   0.458
 1043SOL     OW 3263   2.180   0.162   3.140
 1043SOL    HW1 3264   2.122   0.095   3.175
 1043SOL    HW2 3265   2.268   0.131   3.160
 1044SOL     OW 3266   1.474   2.293   2.068
 1044SOL    HW1 3267   1.529   2.215   2.071
 1044SOL    HW2 3268   1.385   2.261   2.077
 1045SOL     OW 3269   0.424   1.810   1.190
 1045SOL    HW1 3270   0.382   1.848   1.267
 1045SOL    HW2 3271   0.352   1.769   1.141
 1046SOL     OW 3272   2.890   0.144   2.327
 1046SOL    HW1 3273   2.795   0.153   2.312
 1046SOL    HW2 3274   2.910   0.056   2.297
 1047SOL     OW 3275   2.924   1.627   1.113
 1047SOL    HW1 3276   2.851   1.615   1.051
 1047SOL    HW2 3277   2.952   1.717   1.099
 1048SOL     OW 3278   0.072   1.090   3.353
 1048SOL    HW1 3279   0.076   1.059   3.262
 1048SOL    HW2 3280   0.002   1.040   3.392
 1049SOL     OW 3281   0.672   0.084   3.899
 1049SOL    HW1 3282   0.605   0.142   3.936
 1049SOL    HW2 3283   0.621   0.018   3.851
 1050SOL     OW 3284   2.414   0.678   0.052
 1050SOL    HW1 3285   2.454   0.591   0.051
 1050SOL    HW2 3286   2.467   0.728   0.114
 1051SOL     OW 3287   0.491   2.432   3.540
 1051SOL    HW1 3288   0.563   2.483   3.575
 1051SOL    HW2 3289   0.447   2.395   3.616
 1052SOL     OW 3290   2.239   1.065   2.072
 1052SOL    HW1 3291   2.333   1.078   2.063
 1052SOL    HW2 3292   2.206   1.149   2.106
 1053SOL     OW 3293   0.264   2.546   3.166
 1053SOL    HW1 3294   0.269   2.477   3.231
 1053SOL    HW2 3295   0.320   2.516   3.094
 1054SOL     OW 3296   2.568   1.983   1.741
 1054SOL    HW1 3297   2.553   1.915   1.807
 1054SOL    HW2 3298   2.628   2.045   1.784
 1055SOL     OW 3299   0.130   2.168   2.029
 1055SOL    HW1 3300   0.058   2.179   1.968
 1055SOL    HW2 3301   0.189   2.106   1.986
 1056SOL     OW 3302   2.487   0.329   2.767
 1056SOL    HW1 3303   2.498   0.414   2.808
 1056SOL    HW2 3304   2.451   0.348   2.681
 1057SOL     OW 3305   3.645   2.746   1.822
 1057SOL    HW1 3306   3.640   2.738   1.727
 1057SOL    HW2 3307   3.721   2.802   1.838
 1058SOL     OW 3308   2.055   3.277   0.832
 1058SOL    HW1 3309   2.088   3.208   0.889
 1058SOL    HW2 3310   2.042   3.235   0.748
 1059SOL     OW 3311   3.559   0.170   3.232
 1059SOL    HW1 3312   3.622   0.104   3.262
 1059SOL    HW2 3313   3.608   0.223   3.168
 1060SOL     OW 3314   3.895   0.971   0.944
 1060SOL    HW1 3315   3.818   0.925   0.976
 1060SOL    HW2 3316   3.906   0.939   0.854
 1061SOL     OW 3317   3.206   0.870   2.817
 1061SOL    HW1 3318   3.159   0.809   2.760
 1061SOL    HW2 3319   3.137   0.922   2.858
 1062SOL     OW 3320   2.596   3.549   3.364
 1062SOL    HW1 3321   2.684   3.533   3.329
 1062SOL    HW2 3322   2.542   3.482   3.322
 1063SOL     OW 3323   2.664   2.204   2.690
 1063SOL    HW1 3324   2.671   2.160   2.606
 1063SOL    HW2 3325   2.739   2.171   2.741
 1064SOL     OW 3326   3.935   3.589   0.069
 1064SOL    HW1 3327   3.860   3.647   0.065
 1064SOL    HW2 3328   3.985   3.619   0.145
 1065SOL     OW 3329   0.989   0.432   0.909
 1065SOL    HW1 3330   0.905   0.420   0.952
 1065SOL    HW2 3331   1.054   0.421   0.978
 1066SOL     OW 3332   1.192   0.552   3.737
 1066SOL    HW1 3333   1.119   0.611   3.751
 1066SOL    HW2 3334   1.158   0.465   3.761
 1067SOL     OW 3335   3.846   2.253   1.797
 1067SOL    HW1 3336   3.758   2.273   1.828
 1067SOL    HW2 3337   3.871   2.329   1.745
 1068SOL     OW 3338   1.952   0.506   3.250
 1068SOL    HW1 3339   2.036   0.550   3.264
 1068SOL    HW2 3340   1.913   0.500   3.337
 1069SOL     OW 3341   2.982   3.976   2.036
 1069SOL    HW1 3342   2.895   3.970   2.074
 1069SOL    HW2 3343   3.038   3.927   2.096
 1070SOL     OW 3344   2.132   3.178   2.460
 1070SOL    HW1 3345   2.119   3.269   2.490
 1070SOL    HW2 3346   2.225   3.173   2.438
 1071SOL     OW 3347   3.426   0.178   1.796
 1071SOL    HW1 3348   3.445   0.271   1.811
 1071SOL    HW2 3349   3.494   0.150   1.735
 1072SOL     OW 3350   1.841   1.497   3.375
 1072SOL    HW1 3351   1.785   1.420   3.379
 1072SOL    HW2 3352   1.874   1.498   3.286
 1073SOL     OW 3353   1.909   2.953   0.135
 1073SOL    HW1 3354   1.984   2.913   0.089
 1073SOL    HW2 3355   1.922   2.930   0.227
 1074SOL     OW 3356   0.802   2.582   1.585
 1074SOL    HW1 3357   0.810   2.619   1.497
 1074SOL    HW2 3358   0.892   2.576   1.616
 1075SOL     OW 3359   3.194   0.643   0.029
 1075SOL    HW1 3360   3.261   0.711   0.039
 1075SOL    HW2 3361   3.156   0.634   0.116
 1076SOL     OW 3362   0.940   2.773   3.012
 1076SOL    HW1 3363   0.849   2.744   3.002
 1076SOL    HW2 3364   0.936   2.847   3.073
 1077SOL     OW 3365   2.571   2.307   3.156
 1077SOL    HW1 3366   2.599   2.319   3.247
 1077SOL    HW2 3367   2.534   2.219   3.154
 1078SOL     OW 3368   2.493   0.013   0.124
 1078SOL    HW1 3369   2.417  -0.019   0.077
 1078SOL    HW2 3370   2.460   0.035   0.211
 1079SOL     OW 3371   0.817   1.783   0.306
 1079SOL    HW1 3372   0.871   1.711   0.338
 1079SOL    HW2 3373   0.851   1.860   0.350
 1080SOL     OW 3374   2.158   1.528   0.996
 1080SOL    HW1 3375   2.161   1.483   1.081
 1080SOL    HW2 3376   2.239   1.503   0.953
 1081SOL     OW 3377   2.983   2.212   3.526
 1081SOL    HW1 3378   2.929   2.255   3.591
 1081SOL    HW2 3379   2.927   2.204   3.449
 1082SOL     OW 3380   0.047   3.638   2.414
 1082SOL    HW1 3381   0.122   3.596   2.457
 1082SOL    HW2 3382   0.032   3.718   2.464
 1083SOL     OW 3383   2.991   3.887   2.676
 1083SOL    HW1 3384   2.989   3.973   2.634
 1083SOL    HW2 3385   3.050   3.835   2.621
 1084SOL     OW 3386   1.090   3.355   2.496
 1084SOL    HW1 3387   1.085   3.322   2.585
 1084SOL    HW2 3388   1.108   3.277   2.443
 1085SOL     OW 3389   0.358   1.190   1.102
 1085SOL    HW1 3390   0.265   1.168   1.107
 1085SOL    HW2 3391   0.368   1.269   1.156
 1086SOL     OW 3392   1.854   3.156   2.826
 1086SOL    HW1 3393   1.817   3.187   2.744
 1086SOL    HW2 3394   1.791   3.182   2.893
 1087SOL     OW 3395   2.378   3.456   0.368
 1087SOL    HW1 3396   2.390   3.409   0.451
 1087SOL    HW2 3397   2.438   3.412   0.308
 1088SOL     OW 3398   3.355   1.812   1.290
 1088SOL    HW1 3399   3.377   1.893   1.245
 1088SOL    HW2 3400   3.309   1.840   1.369
 1089SOL     OW 3401   3.867   0.212   0.183
 1089SOL    HW1 3402   3.780   0.174   0.167
 1089SOL    HW2 3403   3.862   0.299   0.143
 1090SOL     OW 3404   0.389   1.441   1.244
 1090SOL    HW1 3405   0.394   1.470   1.153
 1090SOL    HW2 3406   0.468   1.476   1.284
 1091SOL     OW 3407   1.888   3.047   0.893
 1091SOL    HW1 3408   1.910   3.063   0.985
 1091SOL    HW2 3409   1.965   3.002   0.858
 1092SOL     OW 3410   1.375   2.769   0.731
 1092SOL    HW1 3411   1.335   2.840   0.782
 1092SOL    HW2 3412   1.443   2.734   0.788
 1093SOL     OW 3413   0.880   3.635   1.986
 1093SOL    HW1 3414   0.916   3.554   2.021
 1093SOL    HW2 3415   0.848   3.682   2.063
 1094SOL     OW 3416   0.047   0.744   1.077
 1094SOL    HW1 3417  -0.049   0.741   1.076
 1094SOL    HW2 3418   0.068   0.837   1.064
 1095SOL     OW 3419   2.425   0.369   0.853
 1095SOL    HW1 3420   2.431   0.301   0.785
 1095SOL    HW2 3421   2.332   0.388   0.859
 1096SOL     OW 3422   0.032   0.161   3.364
 1096SOL    HW1 3423   0.074   0.215   3.431
 1096SOL    HW2 3424   0.105   0.115   3.322
 1097SOL     OW 3425   0.222   2.074   0.543
 1097SOL    HW1 3426   0.156   2.062   0.474
 1097SOL    HW2 3427   0.255   1.986   0.560
 1098SOL     OW 3428   0.144   0.244   0.757
 1098SOL    HW1 3429   0.144   0.340   0.752
 1098SOL    HW2 3430   0.093   0.224   0.835
 1099SOL     OW 3431   0.151   3.881   1.362
 1099SOL    HW1 3432   0.117   3.902   1.275
 1099SOL    HW2 3433   0.075   3.884   1.420
 1100SOL     OW 3434   1.880   0.540   0.849
 1100SOL    HW1 3435   1.891   0.605   0.780
 1100SOL    HW2 3436   1.786   0.520   0.847
 1101SOL     OW 3437   2.318   0.162   1.105
 1101SOL    HW1 3438   2.268   0.231   1.148
 1101SOL    HW2 3439   2.282   0.159   1.016
 1102SOL     OW 3440   0.150   2.086   2.282
 1102SOL    HW1 3441   0.189   2.152   2.338
 1102SOL    HW2 3442   0.157   2.122   2.193
 1103SOL     OW 3443   3.039   2.503   1.006
 1103SOL    HW1 3444   3.077   2.590   1.002
 1103SOL    HW2 3445   2.966   2.505   0.945
 1104SOL     OW 3446   0.308   3.618   1.114
 1104SOL    HW1 3447   0.281   3.529   1.089
 1104SOL    HW2 3448   0.229   3.657   1.151
 1105SOL     OW 3449   2.168   2.696   1.030
 1105SOL    HW1 3450   2.169   2.765   0.964
 1105SOL    HW2 3451   2.191   2.617   0.981
 1106SOL     OW 3452   0.645   2.981   0.106
 1106SOL    HW1 3453   0.711   3.049   0.120
 1106SOL    HW2 3454   0.582   3.022   0.046
 1107SOL     OW 3455   3.767   1.076   0.493
 1107SOL    HW1 3456   3.803   1.052   0.407
 1107SOL    HW2 3457   3.796   1.006   0.551
 1108SOL     OW 3458   3.301   2.771   3.788
 1108SOL    HW1 3459   3.247   2.816   3.723
 1108SOL    HW2 3460   3.299   2.830   3.864
 1109SOL     OW 3461   0.315   3.826   3.814
 1109SOL    HW1 3462   0.322   3.804   3.906
 1109SOL    HW2 3463   0.356   3.912   3.807
 1110SOL     OW 3464   0.201   3.902   3.189
 1110SOL    HW1 3465   0.296   3.908   3.194
 1110SOL    HW2 3466   0.184   3.830   3.129
 1111SOL     OW 3467   3.460   0.925   0.306
 1111SOL    HW1 3468   3.543   0.959   0.274
 1111SOL    HW2 3469   3.443   0.974   0.386
 1112SOL     OW 3470   1.519   1.705   1.251
 1112SOL    HW1 3471   1.547   1.633   1.194
 1112SOL    HW2 3472   1.559   1.783   1.212
 1113SOL     OW 3473   3.519   1.944   2.322
 1113SOL    HW1 3474   3.549   1.934   2.231
 1113SOL    HW2 3475   3.508   2.039   2.333
 1114SOL     OW 3476   2.417   1.445   0.959
 1114SOL    HW1 3477   2.402   1.408   1.046
 1114SOL    HW2 3478   2.510   1.432   0.942
 1115SOL     OW 3479   1.372   0.060   0.552
 1115SOL    HW1 3480   1.303   0.077   0.488
 1115SOL    HW2 3481   1.326   0.034   0.632
 1116SOL     OW 3482   1.136   3.528   1.928
 1116SOL    HW1 3483   1.075   3.464   1.890
 1116SOL    HW2 3484   1.146   3.500   2.019
 1117SOL     OW 3485   2.376   2.401   3.680
 1117SOL    HW1 3486   2.311   2.458   3.637
 1117SOL    HW2 3487   2.394   2.332   3.617
 1118SOL     OW 3488   2.667   1.055   1.809
 1118SOL    HW1 3489   2.717   1.136   1.795
 1118SOL    HW2 3490   2.721   0.986   1.770
 1119SOL     OW 3491   1.162   1.438   1.744
 1119SOL    HW1 3492   1.254   1.460   1.736
 1119SOL    HW2 3493   1.120   1.481   1.669
 1120SOL     OW 3494   3.805   3.543   1.900
 1120SOL    HW1 3495   3.860   3.533   1.978
 1120SOL    HW2 3496   3.849   3.609   1.847
 1121SOL     OW 3497   0.689   1.372   2.833
 1121SOL    HW1 3498   0.627   1.394   2.903
 1121SOL    HW2 3499   0.638   1.320   2.772
 1122SOL     OW 3500  -0.027   2.458   3.187
 1122SOL    HW1 3501   0.035   2.433   3.255
 1122SOL    HW2 3502   0.016   2.531   3.142
 1123SOL     OW 3503   2.520   3.464   2.539
 1123SOL    HW1 3504   2.468   3.490   2.614
 1123SOL    HW2 3505   2.546   3.546   2.497
 1124SOL     OW 3506   2.813   0.961   2.329
 1124SOL    HW1 3507   2.773   1.029   2.275
 1124SOL    HW2 3508   2.897   0.998   2.356
 1125SOL     OW 3509   3.539   3.431   2.714
 1125SOL    HW1 3510   3.621   3.436   2.664
 1125SOL    HW2 3511   3.489   3.508   2.686
 1126SOL     OW 3512   2.757   3.760   2.768
 1126SOL    HW1 3513   2.689   3.815   2.728
 1126SOL    HW2 3514   2.840   3.801   2.740
 1127SOL     OW 3515   2.342   2.394   1.362
 1127SOL    HW1 3516   2.332   2.488   1.347
 1127SOL    HW2 3517   2.292   2.353   1.291
 1128SOL     OW 3518   1.989   0.950   3.520
 1128SOL    HW1 3519   1.929   1.023   3.503
 1128SOL    HW2 3520   2.064   0.990   3.564
 1129SOL     OW 3521   3.379   2.353   1.387
 1129SOL    HW1 3522   3.469   2.379   1.404
 1129SOL    HW2 3523   3.374   2.347   1.291
 1130SOL     OW 3524   1.801   1.973   3.209
 1130SOL    HW1 3525   1.818   1.903   3.145
 1130SOL    HW2 3526   1.848   2.049   3.174
 1131SOL     OW 3527   0.995   0.052   2.439
 1131SOL    HW1 3528   0.903   0.032   2.458
 1131SOL    HW2 3529   1.021   0.111   2.510
 1132SOL     OW 3530   1.284   0.993   0.365
 1132SOL    HW1 3531   1.206   0.945   0.392
 1132SOL    HW2 3532   1.346   0.979   0.437
 1133SOL     OW 3533   3.248   1.497  -0.008
 1133SOL    HW1 3534   3.204   1.413   0.001
 1133SOL    HW2 3535   3.180   1.562   0.014
 1134SOL     OW 3536   2.298   3.426   1.364
 1134SOL    HW1 3537   2.268   3.514   1.386
 1134SOL    HW2 3538   2.217   3.378   1.344
 1135SOL     OW 3539   2.808   1.757   3.573
 1135SOL    HW1 3540   2.726   1.802   3.587
 1135SOL    HW2 3541   2.872   1.805   3.625
 1136SOL     OW 3542   2.122   3.232   2.973
 1136SOL    HW1 3543   2.055   3.214   2.907
 1136SOL    HW2 3544   2.188   3.283   2.927
 1137SOL     OW 3545   1.931   1.672   1.321
 1137SOL    HW1 3546   1.843   1.635   1.327
 1137SOL    HW2 3547   1.918   1.766   1.322
 1138SOL     OW 3548   1.644   3.965   1.355
 1138SOL    HW1 3549   1.668   3.931   1.269
 1138SOL    HW2 3550   1.727   3.985   1.397
 1139SOL     OW 3551   1.040   1.548   2.775
 1139SOL    HW1 3552   0.996   1.620   2.820
 1139SOL    HW2 3553   1.128   1.580   2.756
 1140SOL     OW 3554   2.301   0.700   3.336
 1140SOL    HW1 3555   2.387   0.704   3.379
 1140SOL    HW2 3556   2.268   0.613   3.358
 1141SOL     OW 3557   1.912   1.394   1.986
 1141SOL    HW1 3558   1.897   1.450   2.063
 1141SOL    HW2 3559   1.978   1.331   2.014
 1142SOL     OW 3560   0.771   0.238   3.267
 1142SOL    HW1 3561   0.830   0.289   3.322
 1142SOL    HW2 3562   0.709   0.303   3.232
 1143SOL     OW 3563   1.925   0.864   1.014
 1143SOL    HW1 3564   1.968   0.946   0.993
 1143SOL    HW2 3565   1.852   0.889   1.071
 1144SOL     OW 3566   2.082   3.616   0.706
 1144SOL    HW1 3567   2.118   3.533   0.675
 1144SOL    HW2 3568   2.001   3.627   0.656
 1145SOL     OW 3569   1.584   1.536   0.538
 1145SOL    HW1 3570   1.577   1.597   0.465
 1145SOL    HW2 3571   1.673   1.549   0.571
 1146SOL     OW 3572   3.131   0.240   1.959
 1146SOL    HW1 3573   3.219   0.206   1.946
 1146SOL    HW2 3574   3.077   0.163   1.975
 1147SOL     OW 3575   1.852   0.330   0.269
 1147SOL    HW1 3576   1.902   0.274   0.210
 1147SOL    HW2 3577   1.790   0.377   0.212
 1148SOL     OW 3578   2.505   0.735   0.326
 1148SOL    HW1 3579   2.530   0.734   0.418
 1148SOL    HW2 3580   2.414   0.766   0.326
 1149SOL     OW 3581   3.089   3.912   3.741
 1149SOL    HW1 3582   3.025   3.844   3.721
 1149SOL    HW2 3583   3.108   3.953   3.656
 1150SOL     OW 3584   3.125   1.839   2.221
 1150SOL    HW1 3585   3.155   1.840   2.312
 1150SOL    HW2 3586   3.103   1.748   2.204
 1151SOL     OW 3587   0.584   3.405   1.393
 1151SOL    HW1 3588   0.610   3.387   1.303
 1151SOL    HW2 3589   0.585   3.501   1.399
 1152SOL     OW 3590   1.650   0.720   1.333
 1152SOL    HW1 3591   1.565   0.757   1.357
 1152SOL    HW2 3592   1.635   0.626   1.326
 1153SOL     OW 3593   3.263   3.103   3.495
 1153SOL    HW1 3594   3.268   3.179   3.438
 1153SOL    HW2 3595   3.171   3.075   3.489
 1154SOL     OW 3596   3.723   3.503   2.224
 1154SOL    HW1 3597   3.818   3.504   2.228
 1154SOL    HW2 3598   3.703   3.472   2.136
 1155SOL     OW 3599   1.306   2.323   0.247
 1155SOL    HW1 3600   1.385   2.313   0.300
 1155SOL    HW2 3601   1.234   2.318   0.310
 1156SOL     OW 3602   1.780   1.342   2.644
 1156SOL    HW1 3603   1.745   1.253   2.646
 1156SOL    HW2 3604   1.756   1.376   2.558
 1157SOL     OW 3605   0.948   1.515   2.191
 1157SOL    HW1 3606   0.999   1.470   2.124
 1157SOL    HW2 3607   0.965   1.466   2.272
 1158SOL     OW 3608   2.260   0.229   3.934
 1158SOL    HW1 3609   2.230   0.250   4.023
 1158SOL    HW2 3610   2.220   0.296   3.879
 1159SOL     OW 3611   2.174   3.368   3.470
 1159SOL    HW1 3612   2.088   3.383   3.432
 1159SOL    HW2 3613   2.214   3.302   3.413
 1160SOL     OW 3614   3.041   3.853   3.396
 1160SOL    HW1 3615   3.080   3.769   3.372
 1160SOL    HW2 3616   3.115   3.907   3.424
 1161SOL     OW 3617   3.401   1.736   0.344
 1161SOL    HW1 3618   3.461   1.720   0.417
 1161SOL    HW2 3619   3.326   1.780   0.383
 1162SOL     OW 3620   2.423   1.538   3.169
 1162SOL    HW1 3621   2.405   1.511   3.079
 1162SOL    HW2 3622   2.501   1.490   3.194
 1163SOL     OW 3623   1.233   3.040   2.323
 1163SOL    HW1 3624   1.144   3.011   2.301
 1163SOL    HW2 3625   1.224   3.084   2.408
 1164SOL     OW 3626   0.189   2.343   1.384
 1164SOL    HW1 3627   0.220   2.431   1.403
 1164SOL    HW2 3628   0.230   2.288   1.451
 1165SOL     OW 3629   3.305   1.688   2.973
 1165SOL    HW1 3630   3.320   1.764   2.916
 1165SOL    HW2 3631   3.381   1.686   3.030
 1166SOL     OW 3632   0.258   2.895   1.627
 1166SOL    HW1 3633   0.220   2.907   1.714
 1166SOL    HW2 3634   0.183   2.884   1.569
 1167SOL     OW 3635   2.721   0.405   2.028
 1167SOL    HW1 3636   2.669   0.398   2.109
 1167SOL    HW2 3637   2.657   0.397   1.958
 1168SOL     OW 3638   3.760   1.879   1.464
 1168SOL    HW1 3639   3.759   1.797   1.415
 1168SOL    HW2 3640   3.813   1.860   1.542
 1169SOL     OW 3641   3.807   3.761   2.720
 1169SOL    HW1 3642   3.743   3.729   2.783
 1169SOL    HW2 3643   3.892   3.735   2.756
 1170SOL     OW 3644   2.253   0.836   0.322
 1170SOL    HW1 3645   2.160   0.857   0.307
 1170SOL    HW2 3646   2.271   0.873   0.408
 1171SOL     OW 3647   2.468   1.844   3.479
 1171SOL    HW1 3648   2.441   1.836   3.388
 1171SOL    HW2 3649   2.444   1.760   3.519
 1172SOL     OW 3650   3.511   3.300   3.687
 1172SOL    HW1 3651   3.433   3.349   3.713
 1172SOL    HW2 3652   3.526   3.324   3.596
 1173SOL     OW 3653   1.943   0.992   2.057
 1173SOL    HW1 3654   1.975   1.049   1.987
 1173SOL    HW2 3655   2.019   0.939   2.081
 1174SOL     OW 3656   1.686   1.881   1.071
 1174SOL    HW1 3657   1.622   1.897   1.001
 1174SOL    HW2 3658   1.682   1.961   1.125
 1175SOL     OW 3659   2.644   0.858   1.294
 1175SOL    HW1 3660   2.573   0.922   1.289
 1175SOL    HW2 3661   2.713   0.893   1.238
 1176SOL     OW 3662   2.903   3.815   2.277
 1176SOL    HW1 3663   2.998   3.818   2.283
 1176SOL    HW2 3664   2.876   3.759   2.350
 1177SOL     OW 3665   1.105   0.524   2.333
 1177SOL    HW1 3666   1.057   0.557   2.409
 1177SOL    HW2 3667   1.197   0.525   2.359
 1178SOL     OW 3668   0.118   3.098   3.773
 1178SOL    HW1 3669   0.082   3.172   3.822
 1178SOL    HW2 3670   0.203   3.128   3.743
 1179SOL     OW 3671   2.013   2.060   0.519
 1179SOL    HW1 3672   2.084   2.022   0.571
 1179SOL    HW2 3673   2.010   2.005   0.440
 1180SOL     OW 3674   2.391   1.595   3.570
 1180SOL    HW1 3675   2.305   1.573   3.535
 1180SOL    HW2 3676   2.388   1.568   3.662
 1181SOL     OW 3677   3.410   0.463   1.984
 1181SOL    HW1 3678   3.340   0.474   1.919
 1181SOL    HW2 3679   3.469   0.536   1.968
 1182SOL     OW 3680   1.147   0.376   1.188
 1182SOL    HW1 3681   1.167   0.284   1.175
 1182SOL    HW2 3682   1.058   0.376   1.225
 1183SOL     OW 3683   1.676   3.949   3.847
 1183SOL    HW1 3684   1.697   3.897   3.770
 1183SOL    HW2 3685   1.629   3.889   3.905
 1184SOL     OW 3686   0.967   1.081   1.163
 1184SOL    HW1 3687   0.879   1.105   1.191
 1184SOL    HW2 3688   0.960   1.072   1.068
 1185SOL     OW 3689   1.972   1.274   3.620
 1185SOL    HW1 3690   1.913   1.215   3.574
 1185SOL    HW2 3691   2.044   1.218   3.650
 1186SOL     OW 3692   2.494   3.644   2.243
 1186SOL    HW1 3693   2.455   3.727   2.218
 1186SOL    HW2 3694   2.548   3.664   2.319
 1187SOL     OW 3695   3.208   2.830   1.570
 1187SOL    HW1 3696   3.241   2.898   1.511
 1187SOL    HW2 3697   3.286   2.778   1.591
 1188SOL     OW 3698   3.533   0.793   2.336
 1188SOL    HW1 3699   3.453   0.756   2.299
 1188SOL    HW2 3700   3.546   0.875   2.288
 1189SOL     OW 3701   2.371   3.326   0.614
 1189SOL    HW1 3702   2.403   3.317   0.703
 1189SOL    HW2 3703   2.276   3.317   0.621
 1190SOL     OW 3704   1.571   0.255   1.459
 1190SOL    HW1 3705   1.579   0.277   1.552
 1190SOL    HW2 3706   1.593   0.162   1.454
 1191SOL     OW 3707   1.796   3.306   1.204
 1191SOL    HW1 3708   1.716   3.254   1.201
 1191SOL    HW2 3709   1.767   3.395   1.185
 1192SOL     OW 3710   1.091   1.765   2.195
 1192SOL    HW1 3711   1.032   1.690   2.199
 1192SOL    HW2 3712   1.139   1.753   2.113
 1193SOL     OW 3713   3.746   0.049   3.382
 1193SOL    HW1 3714   3.830   0.093   3.371
 1193SOL    HW2 3715   3.750   0.011   3.469
 1194SOL     OW 3716   0.185   0.856   3.873
 1194SOL    HW1 3717   0.243   0.826   3.804
 1194SOL    HW2 3718   0.234   0.842   3.954
 1195SOL     OW 3719   0.980   3.051   2.836
 1195SOL    HW1 3720   0.969   3.001   2.917
 1195SOL    HW2 3721   0.906   3.026   2.781
 1196SOL     OW 3722   2.837   0.006   3.543
 1196SOL    HW1 3723   2.895  -0.021   3.472
 1196SOL    HW2 3724   2.772   0.063   3.501
 1197SOL     OW 3725   1.379   2.357   1.079
 1197SOL    HW1 3726   1.387   2.283   1.140
 1197SOL    HW2 3727   1.359   2.432   1.134
 1198SOL     OW 3728   1.219   2.560   0.356
 1198SOL    HW1 3729   1.149   2.511   0.400
 1198SOL    HW2 3730   1.258   2.497   0.296
 1199SOL     OW 3731   0.967   3.112   1.118
 1199SOL    HW1 3732   1.037   3.152   1.066
 1199SOL    HW2 3733   0.910   3.071   1.053
 1200SOL     OW 3734   0.391   2.547   2.912
 1200SOL    HW1 3735   0.358   2.637   2.909
 1200SOL    HW2 3736   0.387   2.516   2.821
 1201SOL     OW 3737   3.248   2.178   2.482
 1201SOL    HW1 3738   3.331   2.169   2.434
 1201SOL    HW2 3739   3.209   2.258   2.448
 1202SOL     OW 3740   2.682   2.767   2.218
 1202SOL    HW1 3741   2.630   2.847   2.213
 1202SOL    HW2 3742   2.772   2.799   2.225
 1203SOL     OW 3743   2.303   3.768   0.333
 1203SOL    HW1 3744   2.208   3.767   0.322
 1203SOL    HW2 3745   2.322   3.693   0.389
 1204SOL     OW 3746   3.114   3.631   1.554
 1204SOL    HW1 3747   3.024   3.663   1.563
 1204SOL    HW2 3748   3.149   3.676   1.478
 1205SOL     OW 3749   0.110   0.850   1.664
 1205SOL    HW1 3750   0.033   0.797   1.645
 1205SOL    HW2 3751   0.083   0.908   1.734
 1206SOL     OW 3752   2.449   3.225   1.312
 1206SOL    HW1 3753   2.473   3.250   1.223
 1206SOL    HW2 3754   2.388   3.294   1.341
 1207SOL     OW 3755   1.489   1.619   3.604
 1207SOL    HW1 3756   1.395   1.631   3.621
 1207SOL    HW2 3757   1.530   1.697   3.642
 1208SOL     OW 3758   1.812   0.998   1.639
 1208SOL    HW1 3759   1.723   0.984   1.607
 1208SOL    HW2 3760   1.859   0.917   1.619
 1209SOL     OW 3761   0.865   2.144   1.578
 1209SOL    HW1 3762   0.936   2.147   1.514
 1209SOL    HW2 3763   0.812   2.222   1.559
 1210SOL     OW 3764   0.068   0.228   3.724
 1210SOL    HW1 3765   0.033   0.142   3.747
 1210SOL    HW2 3766  -0.004   0.289   3.742
 1211SOL     OW 3767   1.658   2.192   0.948
 1211SOL    HW1 3768   1.698   2.179   0.862
 1211SOL    HW2 3769   1.578   2.241   0.931
 1212SOL     OW 3770   1.835   0.792   1.889
 1212SOL    HW1 3771   1.833   0.861   1.955
 1212SOL    HW2 3772   1.747   0.757   1.888
 1213SOL     OW 3773   0.557   1.271   3.367
 1213SOL    HW1 3774   0.509   1.351   3.345
 1213SOL    HW2 3775   0.511   1.202   3.320
 1214SOL     OW 3776   0.849   0.132   1.790
 1214SOL    HW1 3777   0.878   0.144   1.881
 1214SOL    HW2 3778   0.839   0.221   1.757
 1215SOL     OW 3779   2.516   1.631   2.575
 1215SOL    HW1 3780   2.558   1.549   2.549
 1215SOL    HW2 3781   2.426   1.606   2.595
 1216SOL     OW 3782   2.562   3.390   2.983
 1216SOL    HW1 3783   2.562   3.430   3.070
 1216SOL    HW2 3784   2.634   3.433   2.936
 1217SOL     OW 3785   0.738   1.770   3.440
 1217SOL    HW1 3786   0.772   1.698   3.494
 1217SOL    HW2 3787   0.789   1.846   3.466
 1218SOL     OW 3788   2.346   2.691   1.234
 1218SOL    HW1 3789   2.267   2.699   1.181
 1218SOL    HW2 3790   2.418   2.710   1.175
 1219SOL     OW 3791   0.131   1.596   2.338
 1219SOL    HW1 3792   0.057   1.614   2.396
 1219SOL    HW2 3793   0.114   1.508   2.305
 1220SOL     OW 3794   3.722   0.771   2.085
 1220SOL    HW1 3795   3.690   0.756   2.174
 1220SOL    HW2 3796   3.771   0.853   2.091
 1221SOL     OW 3797   3.622   3.107   1.074
 1221SOL    HW1 3798   3.638   3.108   0.980
 1221SOL    HW2 3799   3.607   3.015   1.095
 1222SOL     OW 3800   1.192   2.550   1.477
 1222SOL    HW1 3801   1.245   2.549   1.398
 1222SOL    HW2 3802   1.212   2.467   1.520
 1223SOL     OW 3803   0.963   1.764   2.922
 1223SOL    HW1 3804   1.018   1.760   3.001
 1223SOL    HW2 3805   0.883   1.807   2.951
 1224SOL     OW 3806   1.585   1.194   0.888
 1224SOL    HW1 3807   1.664   1.146   0.865
 1224SOL    HW2 3808   1.600   1.283   0.855
 1225SOL     OW 3809   1.593   0.869   3.176
 1225SOL    HW1 3810   1.678   0.868   3.220
 1225SOL    HW2 3811   1.540   0.929   3.228
 1226SOL     OW 3812   2.669   2.617   2.440
 1226SOL    HW1 3813   2.711   2.536   2.409
 1226SOL    HW2 3814   2.696   2.683   2.375
 1227SOL     OW 3815   1.132   0.521   1.796
 1227SOL    HW1 3816   1.106   0.499   1.885
 1227SOL    HW2 3817   1.222   0.488   1.788
 1228SOL     OW 3818   3.122   0.606   1.313
 1228SOL    HW1 3819   3.176   0.571   1.384
 1228SOL    HW2 3820   3.041   0.556   1.316
 1229SOL     OW 3821   1.980   3.813   3.809
 1229SOL    HW1 3822   1.898   3.807   3.761
 1229SOL    HW2 3823   1.980   3.736   3.866
 1230SOL     OW 3824   1.257   0.220   2.370
 1230SOL    HW1 3825   1.289   0.307   2.395
 1230SOL    HW2 3826   1.177   0.208   2.421
 1231SOL     OW 3827   0.480   3.776   0.968
 1231SOL    HW1 3828   0.568   3.757   1.000
 1231SOL    HW2 3829   0.423   3.718   1.020
 1232SOL     OW 3830   0.824   1.097   3.744
 1232SOL    HW1 3831   0.869   1.173   3.782
 1232SOL    HW2 3832   0.755   1.134   3.690
 1233SOL     OW 3833   0.744   0.006   2.299
 1233SOL    HW1 3834   0.674   0.072   2.288
 1233SOL    HW2 3835   0.825   0.056   2.288
 1234SOL     OW 3836   1.930   3.232   0.161
 1234SOL    HW1 3837   1.971   3.287   0.095
 1234SOL    HW2 3838   1.901   3.154   0.112
 1235SOL     OW 3839   0.549   1.799   3.249
 1235SOL    HW1 3840   0.466   1.764   3.281
 1235SOL    HW2 3841   0.609   1.788   3.323
 1236SOL     OW 3842   0.067   0.008   0.105
 1236SOL    HW1 3843   0.002  -0.047   0.061
 1236SOL    HW2 3844   0.021   0.089   0.124
 1237SOL     OW 3845   0.045   1.924   2.614
 1237SOL    HW1 3846   0.094   1.874   2.680
 1237SOL    HW2 3847   0.091   2.008   2.610
 1238SOL     OW 3848   1.239   0.432   3.061
 1238SOL    HW1 3849   1.228   0.350   3.110
 1238SOL    HW2 3850   1.294   0.407   2.987
 1239SOL     OW 3851   2.566   3.604   1.780
 1239SOL    HW1 3852   2.614   3.665   1.837
 1239SOL    HW2 3853   2.614   3.521   1.788
 1240SOL     OW 3854   0.797   2.129   1.886
 1240SOL    HW1 3855   0.878   2.121   1.937
 1240SOL    HW2 3856   0.825   2.163   1.801
 1241SOL     OW 3857   1.874   3.475   2.703
 1241SOL    HW1 3858   1.833   3.403   2.655
 1241SOL    HW2 3859   1.805   3.510   2.758
 1242SOL     OW 3860   3.531   3.085   2.595
 1242SOL    HW1 3861   3.498   3.169   2.562
 1242SOL    HW2 3862   3.613   3.108   2.639
 1243SOL     OW 3863   1.964   1.550   3.137
 1243SOL    HW1 3864   1.914   1.563   3.057
 1243SOL    HW2 3865   1.989   1.638   3.166
 1244SOL     OW 3866   1.530   0.819   0.101
 1244SOL    HW1 3867   1.448   0.770   0.106
 1244SOL    HW2 3868   1.503   0.907   0.075
 1245SOL     OW 3869   0.299   0.531   3.161
 1245SOL    HW1 3870   0.240   0.496   3.095
 1245SOL    HW2 3871   0.337   0.609   3.120
 1246SOL     OW 3872   0.083   3.402   1.376
 1246SOL    HW1 3873   0.132   3.355   1.307
 1246SOL    HW2 3874   0.018   3.453   1.328
 1247SOL     OW 3875   2.597   1.951   3.699
 1247SOL    HW1 3876   2.536   1.927   3.629
 1247SOL    HW2 3877   2.540   1.973   3.773
 1248SOL     OW 3878   2.285   0.646   2.501
 1248SOL    HW1 3879   2.219   0.695   2.550
 1248SOL    HW2 3880   2.366   0.697   2.511
 1249SOL     OW 3881   3.903   3.108   1.188
 1249SOL    HW1 3882   3.938   3.135   1.273
 1249SOL    HW2 3883   3.810   3.131   1.192
 1250SOL     OW 3884   2.329   1.880   2.693
 1250SOL    HW1 3885   2.392   1.946   2.720
 1250SOL    HW2 3886   2.256   1.889   2.754
 1251SOL     OW 3887   0.453   3.133   1.076
 1251SOL    HW1 3888   0.497   3.152   1.158
 1251SOL    HW2 3889   0.369   3.094   1.103
 1252SOL     OW 3890   0.183   1.091   0.607
 1252SOL    HW1 3891   0.120   1.051   0.666
 1252SOL    HW2 3892   0.200   1.023   0.541
 1253SOL     OW 3893   3.190   0.692   1.864
 1253SOL    HW1 3894   3.177   0.662   1.954
 1253SOL    HW2 3895   3.123   0.646   1.813
 1254SOL     OW 3896   1.240   2.187   3.565
 1254SOL    HW1 3897   1.320   2.236   3.549
 1254SOL    HW2 3898   1.259   2.098   3.534
 1255SOL     OW 3899   2.230   1.975   0.623
 1255SOL    HW1 3900   2.318   2.010   0.639
 1255SOL    HW2 3901   2.243   1.880   0.619
 1256SOL     OW 3902   1.099   1.036   2.200
 1256SOL    HW1 3903   1.082   0.997   2.286
 1256SOL    HW2 3904   1.016   1.074   2.173
 1257SOL     OW 3905   0.453   0.958   2.439
 1257SOL    HW1 3906   0.502   1.040   2.430
 1257SOL    HW2 3907   0.365   0.985   2.464
 1258SOL     OW 3908   2.003   2.312   0.436
 1258SOL    HW1 3909   2.002   2.294   0.342
 1258SOL    HW2 3910   2.000   2.225   0.477
 1259SOL     OW 3911   2.052   2.833   0.436
 1259SOL    HW1 3912   2.056   2.927   0.417
 1259SOL    HW2 3913   2.075   2.826   0.529
 1260SOL     OW 3914   2.100   1.282   3.114
 1260SOL    HW1 3915   2.070   1.373   3.111
 1260SOL    HW2 3916   2.026   1.231   3.079
 1261SOL     OW 3917   0.334   2.266   3.713
 1261SOL    HW1 3918   0.242   2.257   3.740
 1261SOL    HW2 3919   0.369   2.177   3.718
 1262SOL     OW 3920   1.932   0.068   1.192
 1262SOL    HW1 3921   1.848   0.036   1.159
 1262SOL    HW2 3922   1.914   0.158   1.220
 1263SOL     OW 3923   0.807   1.905   2.388
 1263SOL    HW1 3924   0.897   1.922   2.417
 1263SOL    HW2 3925   0.802   1.944   2.301
 1264SOL     OW 3926   3.607   2.194   1.917
 1264SOL    HW1 3927   3.653   2.148   1.987
 1264SOL    HW2 3928   3.629   2.146   1.838
 1265SOL     OW 3929   0.459   2.500   2.147
 1265SOL    HW1 3930   0.505   2.431   2.099
 1265SOL    HW2 3931   0.368   2.470   2.151
 1266SOL     OW 3932   2.899   3.335   2.640
 1266SOL    HW1 3933   2.856   3.392   2.703
 1266SOL    HW2 3934   2.987   3.371   2.630
 1267SOL     OW 3935   1.829   3.663   0.619
 1267SOL    HW1 3936   1.849   3.757   0.615
 1267SOL    HW2 3937   1.820   3.637   0.527
 1268SOL     OW 3938   2.748   2.464   2.762
 1268SOL    HW1 3939   2.709   2.532   2.706
 1268SOL    HW2 3940   2.724   2.382   2.719
 1269SOL     OW 3941   1.325   1.942   2.565
 1269SOL    HW1 3942   1.311   1.951   2.471
 1269SOL    HW2 3943   1.237   1.928   2.601
 1270SOL     OW 3944   0.077   1.712   3.052
 1270SOL    HW1 3945   0.036   1.798   3.067
 1270SOL    HW2 3946   0.140   1.729   2.982
 1271SOL     OW 3947   2.196   0.133   0.843
 1271SOL    HW1 3948   2.162   0.053   0.804
 1271SOL    HW2 3949   2.118   0.180   0.872
 1272SOL     OW 3950   1.550   3.135   2.452
 1272SOL    HW1 3951   1.534   3.097   2.366
 1272SOL    HW2 3952   1.463   3.161   2.483
 1273SOL     OW 3953   1.538   2.570   2.900
 1273SOL    HW1 3954   1.488   2.492   2.876
 1273SOL    HW2 3955   1.608   2.537   2.955
 1274SOL     OW 3956   1.048   2.766   0.095
 1274SOL    HW1 3957   1.095   2.796   0.172
 1274SOL    HW2 3958   0.970   2.722   0.129
 1275SOL     OW 3959   3.788   0.688   2.855
 1275SOL    HW1 3960   3.857   0.753   2.841
 1275SOL    HW2 3961   3.760   0.663   2.767
 1276SOL     OW 3962   1.710   0.050   2.062
 1276SOL    HW1 3963   1.782  -0.007   2.036
 1276SOL    HW2 3964   1.703   0.038   2.157
 1277SOL     OW 3965   0.551   3.714   2.163
 1277SOL    HW1 3966   0.627   3.716   2.220
 1277SOL    HW2 3967   0.491   3.653   2.206
 1278SOL     OW 3968   1.057   2.907   3.408
 1278SOL    HW1 3969   1.037   2.823   3.449
 1278SOL    HW2 3970   0.972   2.951   3.401
 1279SOL     OW 3971   0.753   1.167   2.548
 1279SOL    HW1 3972   0.829   1.133   2.595
 1279SOL    HW2 3973   0.695   1.199   2.618
 1280SOL     OW 3974   3.383   3.516   3.225
 1280SOL    HW1 3975   3.399   3.514   3.131
 1280SOL    HW2 3976   3.465   3.548   3.263
 1281SOL     OW 3977   2.841   0.716   1.851
 1281SOL    HW1 3978   2.755   0.687   1.880
 1281SOL    HW2 3979   2.867   0.651   1.785
 1282SOL     OW 3980   0.504   3.785   2.922
 1282SOL    HW1 3981   0.517   3.773   3.017
 1282SOL    HW2 3982   0.479   3.877   2.913
 1283SOL     OW 3983   0.580   3.953   0.228
 1283SOL    HW1 3984   0.562   3.860   0.242
 1283SOL    HW2 3985   0.493   3.993   0.221
 1284SOL     OW 3986   2.884   1.549   3.787
 1284SOL    HW1 3987   2.853   1.628   3.831
 1284SOL    HW2 3988   2.937   1.582   3.714
 1285SOL     OW 3989   2.015   2.267   2.367
 1285SOL    HW1 3990   1.989   2.219   2.288
 1285SOL    HW2 3991   2.110   2.263   2.367
 1286SOL     OW 3992   1.423   1.599   1.898
 1286SOL    HW1 3993   1.413   1.597   1.803
 1286SOL    HW2 3994   1.454   1.511   1.920
 1287SOL     OW 3995   1.417   3.853   1.086
 1287SOL    HW1 3996   1.347   3.799   1.048
 1287SOL    HW2 3997   1.380   3.942   1.088
 1288SOL     OW 3998   3.081   3.710   1.898
 1288SOL    HW1 3999   3.083   3.805   1.891
 1288SOL    HW2 4000   3.164   3.682   1.858
 1289SOL     OW 4001   0.331   0.961   1.512
 1289SOL    HW1 4002   0.353   1.041   1.559
 1289SOL    HW2 4003   0.260   0.921   1.563
 1290SOL     OW 4004   3.810   2.037   2.449
 1290SOL    HW1 4005   3.887   1.998   2.489
 1290SOL    HW2 4006   3.787   2.111   2.506
 1291SOL     OW 4007   3.331   3.512   2.974
 1291SOL    HW1 4008   3.321   3.561   2.892
 1291SOL    HW2 4009   3.306   3.423   2.952
 1292SOL     OW 4010   2.025   0.318   0.910
 1292SOL    HW1 4011   1.975   0.293   0.988
 1292SOL    HW2 4012   2.001   0.409   0.895
 1293SOL     OW 4013   3.015   2.253   3.144
 1293SOL    HW1 4014   2.973   2.175   3.180
 1293SOL    HW2 4015   3.070   2.286   3.216
 1294SOL     OW 4016   2.533   2.751   3.186
 1294SOL    HW1 4017   2.520   2.837   3.146
 1294SOL    HW2 4018   2.602   2.711   3.133
 1295SOL     OW 4019   2.463   0.951   2.373
 1295SOL    HW1 4020   2.526   1.021   2.355
 1295SOL    HW2 4021   2.385   0.997   2.403
 1296SOL     OW 4022   3.537   0.987   0.607
 1296SOL    HW1 4023   3.565   0.896   0.605
 1296SOL    HW2 4024   3.612   1.036   0.573
 1297SOL     OW 4025   2.467   2.824   2.895
 1297SOL    HW1 4026   2.408   2.862   2.829
 1297SOL    HW2 4027   2.554   2.853   2.869
 1298SOL     OW 4028   0.873   0.391   1.276
 1298SOL    HW1 4029   0.896   0.359   1.363
 1298SOL    HW2 4030   0.778   0.399   1.278
 1299SOL     OW 4031   0.109   2.859   2.693
 1299SOL    HW1 4032   0.076   2.801   2.625
 1299SOL    HW2 4033   0.189   2.897   2.656
 1300SOL     OW 4034   0.540   1.077   1.680
 1300SOL    HW1 4035   0.606   1.108   1.617
 1300SOL    HW2 4036   0.577   0.996   1.716
 1301SOL     OW 4037   0.337   0.736   1.790
 1301SOL    HW1 4038   0.412   0.752   1.732
 1301SOL    HW2 4039   0.264   0.780   1.748
 1302SOL     OW 4040   1.545   3.748   2.296
 1302SOL    HW1 4041   1.504   3.826   2.333
 1302SOL    HW2 4042   1.531   3.755   2.202
 1303SOL     OW 4043   1.633   2.067   2.046
 1303SOL    HW1 4044   1.607   2.006   2.115
 1303SOL    HW2 4045   1.613   2.021   1.964
 1304SOL     OW 4046   3.412   0.130   0.220
 1304SOL    HW1 4047   3.417   0.087   0.305
 1304SOL    HW2 4048   3.320   0.156   0.212
 1305SOL     OW 4049   2.772   3.858   0.432
 1305SOL    HW1 4050   2.737   3.947   0.425
 1305SOL    HW2 4051   2.729   3.822   0.510
 1306SOL     OW 4052   2.182   3.098   1.841
 1306SOL    HW1 4053   2.242   3.093   1.767
 1306SOL    HW2 4054   2.212   3.174   1.892
 1307SOL     OW 4055   1.687   2.787   3.509
 1307SOL    HW1 4056   1.750   2.786   3.437
 1307SOL    HW2 4057   1.646   2.701   3.506
 1308SOL     OW 4058   3.510   2.909   3.460
 1308SOL    HW1 4059   3.508   2.879   3.551
 1308SOL    HW2 4060   3.454   2.987   3.458
 1309SOL     OW 4061   3.607   3.442   1.042
 1309SOL    HW1 4062   3.643   3.355   1.031
 1309SOL    HW2 4063   3.537   3.432   1.106
 1310SOL     OW 4064   2.021   0.331   3.007
 1310SOL    HW1 4065   1.982   0.382   3.078
 1310SOL    HW2 4066   2.087   0.276   3.050
 1311SOL     OW 4067   1.708   2.094   0.005
 1311SOL    HW1 4068   1.713   2.145   0.086
 1311SOL    HW2 4069   1.632   2.038   0.017
 1312SOL     OW 4070   1.975   3.656   3.129
 1312SOL    HW1 4071   2.010   3.632   3.214
 1312SOL    HW2 4072   1.896   3.603   3.119
 1313SOL     OW 4073   0.539   2.627   0.308
 1313SOL    HW1 4074   0.468   2.605   0.248
 1313SOL    HW2 4075   0.529   2.722   0.322
 1314SOL     OW 4076   1.549   1.160   2.993
 1314SOL    HW1 4077   1.580   1.245   3.022
 1314SOL    HW2 4078   1.544   1.166   2.898
 1315SOL     OW 4079   1.747   3.642   0.070
 1315SOL    HW1 4080   1.778   3.574   0.010
 1315SOL    HW2 4081   1.675   3.684   0.023
 1316SOL     OW 4082   2.235   2.874   3.131
 1316SOL    HW1 4083   2.326   2.867   3.101
 1316SOL    HW2 4084   2.186   2.895   3.051
 1317SOL     OW 4085   2.373   0.195   0.658
 1317SOL    HW1 4086   2.351   0.135   0.587
 1317SOL    HW2 4087   2.316   0.169   0.731
 1318SOL     OW 4088   3.310   3.788   3.949
 1318SOL    HW1 4089   3.236   3.808   3.892
 1318SOL    HW2 4090   3.278   3.805   4.037
 1319SOL     OW 4091   3.942   1.266   0.136
 1319SOL    HW1 4092   3.966   1.178   0.107
 1319SOL    HW2 4093   3.851   1.276   0.108
 1320SOL     OW 4094   0.860   3.688   0.647
 1320SOL    HW1 4095   0.824   3.638   0.720
 1320SOL    HW2 4096   0.930   3.740   0.685
 1321SOL     OW 4097   1.548   3.332   2.802
 1321SOL    HW1 4098   1.461   3.353   2.836
 1321SOL    HW2 4099   1.537   3.329   2.707
 1322SOL     OW 4100   2.915   0.839   1.103
 1322SOL    HW1 4101   2.884   0.795   1.024
 1322SOL    HW2 4102   2.996   0.881   1.076
 1323SOL     OW 4103   3.139   2.041   2.019
 1323SOL    HW1 4104   3.119   1.980   2.091
 1323SOL    HW2 4105   3.179   2.116   2.062
 1324SOL     OW 4106   2.742   2.200   0.374
 1324SOL    HW1 4107   2.805   2.256   0.329
 1324SOL    HW2 4108   2.662   2.207   0.321
 1325SOL     OW 4109   2.557   0.422   0.066
 1325SOL    HW1 4110   2.644   0.456   0.087
 1325SOL    HW2 4111   2.570   0.369  -0.013
 1326SOL     OW 4112   0.976   3.088   2.535
 1326SOL    HW1 4113   1.027   3.030   2.592
 1326SOL    HW2 4114   0.885   3.062   2.552
 1327SOL     OW 4115   2.151   0.298   2.672
 1327SOL    HW1 4116   2.060   0.272   2.683
 1327SOL    HW2 4117   2.152   0.391   2.694
 1328SOL     OW 4118   2.597   3.482   1.465
 1328SOL    HW1 4119   2.571   3.462   1.555
 1328SOL    HW2 4120   2.521   3.457   1.413
 1329SOL     OW 4121   3.424   0.710   1.313
 1329SOL    HW1 4122   3.401   0.763   1.236
 1329SOL    HW2 4123   3.361   0.638   1.312
 1330SOL     OW 4124   2.936   0.581   2.464
 1330SOL    HW1 4125   2.923   0.556   2.373
 1330SOL    HW2 4126   2.850   0.612   2.493
 1331SOL     OW 4127   2.480   2.549   1.986
 1331SOL    HW1 4128   2.456   2.495   1.911
 1331SOL    HW2 4129   2.400   2.593   2.012
 1332SOL     OW 4130   3.135   3.728   2.510
 1332SOL    HW1 4131   3.181   3.726   2.426
 1332SOL    HW2 4132   3.072   3.656   2.504
 1333SOL     OW 4133   2.599   0.699   0.709
 1333SOL    HW1 4134   2.651   0.638   0.761
 1333SOL    HW2 4135   2.654   0.777   0.701
 1334SOL     OW 4136   1.013   3.920   3.092
 1334SOL    HW1 4137   1.027   3.993   3.032
 1334SOL    HW2 4138   0.955   3.956   3.160
 1335SOL     OW 4139   2.259   0.482   1.229
 1335SOL    HW1 4140   2.195   0.433   1.281
 1335SOL    HW2 4141   2.205   0.537   1.172
 1336SOL     OW 4142   0.468   1.075   2.976
 1336SOL    HW1 4143   0.506   1.069   2.888
 1336SOL    HW2 4144   0.408   1.150   2.971
 1337SOL     OW 4145   0.220   1.897   2.846
 1337SOL    HW1 4146   0.290   1.836   2.827
 1337SOL    HW2 4147   0.264   1.979   2.867
 1338SOL     OW 4148   1.017   0.763   3.288
 1338SOL    HW1 4149   0.951   0.821   3.250
 1338SOL    HW2 4150   1.057   0.816   3.358
 1339SOL     OW 4151   0.835   3.330   3.619
 1339SOL    HW1 4152   0.859   3.237   3.620
 1339SOL    HW2 4153   0.755   3.333   3.567
 1340SOL     OW 4154   1.766   1.373   1.779
 1340SOL    HW1 4155   1.820   1.353   1.855
 1340SOL    HW2 4156   1.812   1.446   1.736
 1341SOL     OW 4157   0.051   1.898   1.903
 1341SOL    HW1 4158   0.143   1.877   1.922
 1341SOL    HW2 4159   0.041   1.878   1.811
 1342SOL     OW 4160   3.863   1.588   1.636
 1342SOL    HW1 4161   3.848   1.538   1.716
 1342SOL    HW2 4162   3.783   1.577   1.585
 1343SOL     OW 4163   0.374   0.062   2.940
 1343SOL    HW1 4164   0.295   0.085   2.988
 1343SOL    HW2 4165   0.437   0.129   2.965
 1344SOL     OW 4166   1.243   3.138   3.914
 1344SOL    HW1 4167   1.325   3.152   3.962
 1344SOL    HW2 4168   1.177   3.129   3.983
 1345SOL     OW 4169   2.067   3.350   0.498
 1345SOL    HW1 4170   2.079   3.418   0.432
 1345SOL    HW2 4171   1.979   3.315   0.481
 1346SOL     OW 4172   0.066   1.585   0.483
 1346SOL    HW1 4173   0.012   1.577   0.562
 1346SOL    HW2 4174   0.008   1.558   0.412
 1347SOL     OW 4175   0.215   3.372   0.992
 1347SOL    HW1 4176   0.288   3.310   1.000
 1347SOL    HW2 4177   0.220   3.404   0.902
 1348SOL     OW 4178   3.361   1.076   2.732
 1348SOL    HW1 4179   3.456   1.072   2.730
 1348SOL    HW2 4180   3.334   1.000   2.783
 1349SOL     OW 4181   1.895   1.926   3.712
 1349SOL    HW1 4182   1.893   1.850   3.653
 1349SOL    HW2 4183   1.929   1.997   3.659
 1350SOL     OW 4184   0.791   0.382   0.353
 1350SOL    HW1 4185   0.866   0.423   0.310
 1350SOL    HW2 4186   0.812   0.288   0.352
 1351SOL     OW 4187   2.512   2.635   3.978
 1351SOL    HW1 4188   2.534   2.647   3.885
 1351SOL    HW2 4189   2.589   2.593   4.015
 1352SOL     OW 4190   1.281   1.891   2.292
 1352SOL    HW1 4191   1.202   1.848   2.258
 1352SOL    HW2 4192   1.348   1.823   2.292
 1353SOL     OW 4193   1.365   0.576   1.994
 1353SOL    HW1 4194   1.274   0.556   2.015
 1353SOL    HW2 4195   1.396   0.626   2.069
 1354SOL     OW 4196   1.124   3.281   2.774
 1354SOL    HW1 4197   1.174   3.294   2.855
 1354SOL    HW2 4198   1.081   3.196   2.786
 1355SOL     OW 4199   3.612   0.091   1.632
 1355SOL    HW1 4200   3.594   0.038   1.554
 1355SOL    HW2 4201   3.705   0.114   1.624
 1356SOL     OW 4202   3.522   2.233   2.903
 1356SOL    HW1 4203   3.483   2.271   2.825
 1356SOL    HW2 4204   3.575   2.302   2.941
 1357SOL     OW 4205   3.269   1.053   3.304
 1357SOL    HW1 4206   3.284   1.113   3.231
 1357SOL    HW2 4207   3.312   0.971   3.278
 1358SOL     OW 4208   0.553   0.905   1.988
 1358SOL    HW1 4209   0.476   0.849   1.980
 1358SOL    HW2 4210   0.600   0.871   2.064
 1359SOL     OW 4211   3.121   1.521   2.838
 1359SOL    HW1 4212   3.169   1.455   2.788
 1359SOL    HW2 4213   3.188   1.585   2.863
 1360SOL     OW 4214   2.595   0.578   3.377
 1360SOL    HW1 4215   2.675   0.541   3.415
 1360SOL    HW2 4216   2.580   0.658   3.427
 1361SOL     OW 4217   1.689   0.911   3.732
 1361SOL    HW1 4218   1.746   0.953   3.796
 1361SOL    HW2 4219   1.740   0.836   3.701
 1362SOL     OW 4220   0.905   0.238   0.017
 1362SOL    HW1 4221   0.827   0.194   0.051
 1362SOL    HW2 4222   0.966   0.241   0.091
 1363SOL     OW 4223   1.971   2.920   2.314
 1363SOL    HW1 4224   1.912   2.885   2.381
 1363SOL    HW2 4225   2.026   2.982   2.362
 1364SOL     OW 4226   3.849   2.430   0.421
 1364SOL    HW1 4227   3.806   2.412   0.504
 1364SOL    HW2 4228   3.874   2.344   0.388
 1365SOL     OW 4229   2.739   0.190   3.358
 1365SOL    HW1 4230   2.825   0.229   3.375
 1365SOL    HW2 4231   2.690   0.258   3.311
 1366SOL     OW 4232   0.227   2.826   0.294
 1366SOL    HW1 4233   0.214   2.861   0.206
 1366SOL    HW2 4234   0.296   2.880   0.332
 1367SOL     OW 4235   2.352   1.711   0.623
 1367SOL    HW1 4236   2.320   1.644   0.683
 1367SOL    HW2 4237   2.443   1.687   0.608
 1368SOL     OW 4238   1.535   0.301   1.722
 1368SOL    HW1 4239   1.560   0.373   1.780
 1368SOL    HW2 4240   1.453   0.268   1.759
 1369SOL     OW 4241   3.162   2.341   3.379
 1369SOL    HW1 4242   3.256   2.325   3.389
 1369SOL    HW2 4243   3.122   2.288   3.448
 1370SOL     OW 4244   1.118   2.275   0.441
 1370SOL    HW1 4245   1.142   2.286   0.533
 1370SOL    HW2 4246   1.103   2.182   0.431
 1371SOL     OW 4247   3.717   1.510   2.203
 1371SOL    HW1 4248   3.631   1.544   2.227
 1371SOL    HW2 4249   3.768   1.587   2.179
 1372SOL     OW 4250   0.861   2.417   3.462
 1372SOL    HW1 4251   0.799   2.464   3.519
 1372SOL    HW2 4252   0.836   2.443   3.373
 1373SOL     OW 4253   2.137   3.883   0.709
 1373SOL    HW1 4254   2.124   3.790   0.729
 1373SOL    HW2 4255   2.086   3.897   0.629
 1374SOL     OW 4256   0.582   2.082   3.197
 1374SOL    HW1 4257   0.591   2.076   3.292
 1374SOL    HW2 4258   0.561   1.992   3.169
 1375SOL     OW 4259   1.979   3.039   1.161
 1375SOL    HW1 4260   1.950   2.963   1.212
 1375SOL    HW2 4261   2.074   3.028   1.154
 1376SOL     OW 4262   3.766   1.256   1.978
 1376SOL    HW1 4263   3.697   1.320   1.997
 1376SOL    HW2 4264   3.843   1.309   1.961
 1377SOL     OW 4265   0.382   0.282   3.215
 1377SOL    HW1 4266   0.458   0.302   3.160
 1377SOL    HW2 4267   0.335   0.365   3.222
 1378SOL     OW 4268   2.263   3.912   3.911
 1378SOL    HW1 4269   2.170   3.891   3.920
 1378SOL    HW2 4270   2.266   4.008   3.908
 1379SOL     OW 4271   0.400   1.476   3.260
 1379SOL    HW1 4272   0.344   1.437   3.327
 1379SOL    HW2 4273   0.357   1.558   3.237
 1380SOL     OW 4274   3.641   0.734   0.590
 1380SOL    HW1 4275   3.643   0.740   0.494
 1380SOL    HW2 4276   3.618   0.643   0.607
 1381SOL     OW 4277   1.519   3.014   3.486
 1381SOL    HW1 4278   1.460   2.985   3.416
 1381SOL    HW2 4279   1.589   2.949   3.486
 1382SOL     OW 4280   2.095   2.165   0.814
 1382SOL    HW1 4281   2.016   2.213   0.791
 1382SOL    HW2 4282   2.137   2.146   0.730
 1383SOL     OW 4283   3.647   0.744   3.526
 1383SOL    HW1 4284   3.605   0.777   3.605
 1383SOL    HW2 4285   3.715   0.685   3.558
 1384SOL     OW 4286   3.726   2.356   0.663
 1384SOL    HW1 4287   3.814   2.337   0.694
 1384SOL    HW2 4288   3.692   2.271   0.634
 1385SOL     OW 4289   0.908   2.404   2.275
 1385SOL    HW1 4290   0.984   2.442   2.230
 1385SOL    HW2 4291   0.920   2.429   2.367
 1386SOL     OW 4292   3.793   2.089   2.136
 1386SOL    HW1 4293   3.804   2.078   2.231
 1386SOL    HW2 4294   3.839   2.013   2.099
 1387SOL     OW 4295   1.239   2.082   3.209
 1387SOL    HW1 4296   1.174   2.134   3.257
 1387SOL    HW2 4297   1.322   2.128   3.223
 1388SOL     OW 4298   1.926   1.003   2.615
 1388SOL    HW1 4299   1.863   0.955   2.669
 1388SOL    HW2 4300   1.983   1.047   2.679
 1389SOL     OW 4301   3.396   0.784   3.026
 1389SOL    HW1 4302   3.477   0.805   2.979
 1389SOL    HW2 4303   3.326   0.794   2.962
 1390SOL     OW 4304   0.398   2.776   2.163
 1390SOL    HW1 4305   0.453   2.698   2.173
 1390SOL    HW2 4306   0.363   2.792   2.251
 1391SOL     OW 4307   0.609   3.360   0.958
 1391SOL    HW1 4308   0.543   3.381   0.891
 1391SOL    HW2 4309   0.570   3.288   1.008
 1392SOL     OW 4310   1.711   0.458   3.969
 1392SOL    HW1 4311   1.738   0.370   3.942
 1392SOL    HW2 4312   1.647   0.484   3.903
 1393SOL     OW 4313   0.064   0.536   0.900
 1393SOL    HW1 4314   0.028   0.602   0.959
 1393SOL    HW2 4315  -0.003   0.468   0.895
 1394SOL     OW 4316   3.867   1.489   0.291
 1394SOL    HW1 4317   3.823   1.548   0.230
 1394SOL    HW2 4318   3.908   1.423   0.235
 1395SOL     OW 4319   2.150   1.860   0.857
 1395SOL    HW1 4320   2.151   1.955   0.846
 1395SOL    HW2 4321   2.115   1.827   0.773
 1396SOL     OW 4322   0.806   2.257   1.341
 1396SOL    HW1 4323   0.735   2.281   1.281
 1396SOL    HW2 4324   0.878   2.315   1.317
 1397SOL     OW 4325   2.025   3.917   3.167
 1397SOL    HW1 4326   2.009   3.831   3.129
 1397SOL    HW2 4327   1.939   3.958   3.171
 1398SOL     OW 4328   1.561   2.260   3.028
 1398SOL    HW1 4329   1.486   2.314   3.004
 1398SOL    HW2 4330   1.562   2.262   3.124
 1399SOL     OW 4331   0.288   0.800   2.040
 1399SOL    HW1 4332   0.239   0.719   2.054
 1399SOL    HW2 4333   0.309   0.799   1.947
 1400SOL     OW 4334   0.851   1.999   3.305
 1400SOL    HW1 4335   0.851   2.016   3.399
 1400SOL    HW2 4336   0.876   2.082   3.266
 1401SOL     OW 4337   3.150   3.426   2.585
 1401SOL    HW1 4338   3.198   3.495   2.632
 1401SOL    HW2 4339   3.185   3.428   2.496
 1402SOL     OW 4340   3.595   3.884   2.589
 1402SOL    HW1 4341   3.676   3.842   2.619
 1402SOL    HW2 4342   3.540   3.888   2.667
 1403SOL     OW 4343   0.222   1.588   1.960
 1403SOL    HW1 4344   0.291   1.554   2.017
 1403SOL    HW2 4345   0.243   1.681   1.949
 1404SOL     OW 4346   3.274   0.645   3.240
 1404SOL    HW1 4347   3.206   0.585   3.209
 1404SOL    HW2 4348   3.309   0.684   3.160
 1405SOL     OW 4349   0.929   2.535   3.778
 1405SOL    HW1 4350   0.846   2.567   3.813
 1405SOL    HW2 4351   0.989   2.537   3.852
 1406SOL     OW 4352   0.228   2.753   3.662
 1406SOL    HW1 4353   0.205   2.660   3.650
 1406SOL    HW2 4354   0.160   2.801   3.615
 1407SOL     OW 4355   1.439   2.621   1.265
 1407SOL    HW1 4356   1.357   2.657   1.231
 1407SOL    HW2 4357   1.500   2.694   1.265
 1408SOL     OW 4358   0.069   0.809   3.494
 1408SOL    HW1 4359   0.052   0.787   3.403
 1408SOL    HW2 4360   0.129   0.740   3.524
 1409SOL     OW 4361   3.097   0.374   2.270
 1409SOL    HW1 4362   3.036   0.308   2.303
 1409SOL    HW2 4363   3.132   0.336   2.189
 1410SOL     OW 4364   1.273   0.840   1.808
 1410SOL    HW1 4365   1.295   0.764   1.862
 1410SOL    HW2 4366   1.222   0.805   1.736
 1411SOL     OW 4367   2.662   0.377   1.658
 1411SOL    HW1 4368   2.664   0.463   1.617
 1411SOL    HW2 4369   2.614   0.391   1.740
 1412SOL     OW 4370   2.770   0.257   3.906
 1412SOL    HW1 4371   2.829   0.323   3.943
 1412SOL    HW2 4372   2.721   0.304   3.838
 1413SOL     OW 4373   0.818   3.540   3.246
 1413SOL    HW1 4374   0.881   3.590   3.194
 1413SOL    HW2 4375   0.782   3.476   3.185
 1414SOL     OW 4376   1.071   1.486   1.468
 1414SOL    HW1 4377   1.022   1.518   1.392
 1414SOL    HW2 4378   1.008   1.433   1.516
 1415SOL     OW 4379   1.756   3.751   3.663
 1415SOL    HW1 4380   1.668   3.741   3.628
 1415SOL    HW2 4381   1.769   3.674   3.719
 1416SOL     OW 4382   0.911   1.151   2.058
 1416SOL    HW1 4383   0.824   1.152   2.020
 1416SOL    HW2 4384   0.951   1.233   2.029
 1417SOL     OW 4385   2.071   3.266   1.623
 1417SOL    HW1 4386   2.030   3.331   1.566
 1417SOL    HW2 4387   2.019   3.187   1.611
 1418SOL     OW 4388   1.529   2.267   1.558
 1418SOL    HW1 4389   1.619   2.261   1.526
 1418SOL    HW2 4390   1.529   2.343   1.616
 1419SOL     OW 4391   2.579   0.351   3.226
 1419SOL    HW1 4392   2.574   0.435   3.271
 1419SOL    HW2 4393   2.506   0.354   3.163
 1420SOL     OW 4394   2.493   1.614   1.280
 1420SOL    HW1 4395   2.426   1.649   1.339
 1420SOL    HW2 4396   2.467   1.522   1.267
 1421SOL     OW 4397   1.934   2.178   1.088
 1421SOL    HW1 4398   1.975   2.116   1.027
 1421SOL    HW2 4399   1.840   2.165   1.076
 1422SOL     OW 4400   2.842   0.757   0.107
 1422SOL    HW1 4401   2.823   0.843   0.144
 1422SOL    HW2 4402   2.779   0.699   0.149
 1423SOL     OW 4403   2.708   0.134   2.725
 1423SOL    HW1 4404   2.676   0.202   2.785
 1423SOL    HW2 4405   2.799   0.159   2.707
 1424SOL     OW 4406   3.814   2.480   0.094
 1424SOL    HW1 4407   3.853   2.538   0.030
 1424SOL    HW2 4408   3.887   2.453   0.150
 1425SOL     OW 4409   2.642   0.558   2.542
 1425SOL    HW1 4410   2.638   0.650   2.569
 1425SOL    HW2 4411   2.654   0.509   2.624
 1426SOL     OW 4412   0.869   2.818   3.777
 1426SOL    HW1 4413   0.793   2.787   3.825
 1426SOL    HW2 4414   0.941   2.814   3.840
 1427SOL     OW 4415   2.832   2.702   2.951
 1427SOL    HW1 4416   2.912   2.719   2.901
 1427SOL    HW2 4417   2.818   2.607   2.943
 1428SOL     OW 4418   0.894   0.849   0.647
 1428SOL    HW1 4419   0.819   0.868   0.592
 1428SOL    HW2 4420   0.907   0.754   0.639
 1429SOL     OW 4421   3.041   2.124   1.534
 1429SOL    HW1 4422   3.028   2.087   1.621
 1429SOL    HW2 4423   3.025   2.218   1.545
 1430SOL     OW 4424   1.140   3.173   3.438
 1430SOL    HW1 4425   1.111   3.083   3.426
 1430SOL    HW2 4426   1.172   3.177   3.528
 1431SOL     OW 4427   2.436   3.393   3.220
 1431SOL    HW1 4428   2.399   3.306   3.228
 1431SOL    HW2 4429   2.365   3.447   3.184
 1432SOL     OW 4430   2.474   1.146   0.998
 1432SOL    HW1 4431   2.565   1.116   1.003
 1432SOL    HW2 4432   2.452   1.142   0.905
 1433SOL     OW 4433   1.810   2.591   2.151
 1433SOL    HW1 4434   1.835   2.566   2.062
 1433SOL    HW2 4435   1.893   2.591   2.200
 1434SOL     OW 4436   0.758   2.195   3.910
 1434SOL    HW1 4437   0.725   2.106   3.903
 1434SOL    HW2 4438   0.819   2.204   3.836
 1435SOL     OW 4439   2.717   1.118   2.109
 1435SOL    HW1 4440   2.668   1.115   2.026
 1435SOL    HW2 4441   2.809   1.119   2.082
 1436SOL     OW 4442   1.640   0.501   1.925
 1436SOL    HW1 4443   1.678   0.465   2.005
 1436SOL    HW2 4444   1.563   0.549   1.955
 1437SOL     OW 4445   1.820   2.474   2.944
 1437SOL    HW1 4446   1.896   2.435   2.901
 1437SOL    HW2 4447   1.747   2.457   2.884
 1438SOL     OW 4448   2.095   1.528   3.615
 1438SOL    HW1 4449   2.106   1.518   3.520
 1438SOL    HW2 4450   2.065   1.442   3.644
 1439SOL     OW 4451   2.950   2.081   1.787
 1439SOL    HW1 4452   3.028   2.076   1.843
 1439SOL    HW2 4453   2.903   2.158   1.818
 1440SOL     OW 4454   0.840   0.929   3.188
 1440SOL    HW1 4455   0.766   0.897   3.137
 1440SOL    HW2 4456   0.893   0.979   3.126
 1441SOL     OW 4457   2.867   1.789   3.315
 1441SOL    HW1 4458   2.855   1.782   3.410
 1441SOL    HW2 4459   2.910   1.708   3.290
 1442SOL     OW 4460   2.345   0.075   0.392
 1442SOL    HW1 4461   2.264   0.120   0.367
 1442SOL    HW2 4462   2.323  -0.018   0.387
 1443SOL     OW 4463   1.485   0.347   0.353
 1443SOL    HW1 4464   1.457   0.340   0.262
 1443SOL    HW2 4465   1.403   0.350   0.403
 1444SOL     OW 4466   1.429   3.267   1.015
 1444SOL    HW1 4467   1.505   3.305   0.970
 1444SOL    HW2 4468   1.428   3.309   1.100
 1445SOL     OW 4469   0.869   3.219   0.315
 1445SOL    HW1 4470   0.937   3.162   0.280
 1445SOL    HW2 4471   0.814   3.241   0.239
 1446SOL     OW 4472   0.239   3.681   1.825
 1446SOL    HW1 4473   0.281   3.645   1.747
 1446SOL    HW2 4474   0.213   3.770   1.800
 1447SOL     OW 4475   2.354   1.107   1.234
 1447SOL    HW1 4476   2.328   1.017   1.214
 1447SOL    HW2 4477   2.402   1.137   1.157
 1448SOL     OW 4478   1.529   2.652   0.915
 1448SOL    HW1 4479   1.598   2.703   0.958
 1448SOL    HW2 4480   1.567   2.564   0.906
 1449SOL     OW 4481   2.002   2.159   3.587
 1449SOL    HW1 4482   2.054   2.110   3.524
 1449SOL    HW2 4483   2.017   2.251   3.565
 1450SOL     OW 4484   1.344   2.387   2.915
 1450SOL    HW1 4485   1.270   2.426   2.962
 1450SOL    HW2 4486   1.308   2.365   2.829
 1451SOL     OW 4487   2.208   2.012   1.655
 1451SOL    HW1 4488   2.207   2.033   1.749
 1451SOL    HW2 4489   2.245   2.089   1.613
 1452SOL     OW 4490   1.555   1.282   1.358
 1452SOL    HW1 4491   1.467   1.318   1.349
 1452SOL    HW2 4492   1.550   1.194   1.321
 1453SOL     OW 4493   2.750   2.640   3.507
 1453SOL    HW1 4494   2.832   2.624   3.554
 1453SOL    HW2 4495   2.775   2.638   3.414
 1454SOL     OW 4496   3.595   2.864   2.469
 1454SOL    HW1 4497   3.660   2.842   2.536
 1454SOL    HW2 4498   3.539   2.930   2.511
 1455SOL     OW 4499   3.393   3.849   2.854
 1455SOL    HW1 4500   3.461   3.911   2.882
 1455SOL    HW2 4501   3.316   3.874   2.906
 1456SOL     OW 4502   0.491   1.657   1.770
 1456SOL    HW1 4503   0.554   1.719   1.806
 1456SOL    HW2 4504   0.441   1.708   1.706
 1457SOL     OW 4505   1.256   3.579   3.712
 1457SOL    HW1 4506   1.213   3.596   3.629
 1457SOL    HW2 4507   1.327   3.518   3.691
 1458SOL     OW 4508   2.750   1.142   0.985
 1458SOL    HW1 4509   2.828   1.123   1.037
 1458SOL    HW2 4510   2.784   1.154   0.896
 1459SOL     OW 4511   3.238   3.466   2.336
 1459SOL    HW1 4512   3.187   3.414   2.275
 1459SOL    HW2 4513   3.311   3.500   2.284
 1460SOL     OW 4514   2.476   3.834   1.604
 1460SOL    HW1 4515   2.501   3.767   1.668
 1460SOL    HW2 4516   2.416   3.892   1.653
 1461SOL     OW 4517   3.685   2.227   1.123
 1461SOL    HW1 4518   3.684   2.139   1.160
 1461SOL    HW2 4519   3.761   2.268   1.164
 1462SOL     OW 4520   2.194   3.525   0.185
 1462SOL    HW1 4521   2.249   3.496   0.258
 1462SOL    HW2 4522   2.159   3.610   0.214
 1463SOL     OW 4523   3.818   1.746   3.397
 1463SOL    HW1 4524   3.772   1.671   3.359
 1463SOL    HW2 4525   3.774   1.822   3.359
 1464SOL     OW 4526   1.922   3.506   3.520
 1464SOL    HW1 4527   1.828   3.513   3.505
 1464SOL    HW2 4528   1.933   3.517   3.614
 1465SOL     OW 4529   0.929   3.831   1.753
 1465SOL    HW1 4530   0.893   3.919   1.763
 1465SOL    HW2 4531   0.897   3.783   1.829
 1466SOL     OW 4532   1.178   1.489   1.055
 1466SOL    HW1 4533   1.233   1.529   0.988
 1466SOL    HW2 4534   1.224   1.508   1.137
 1467SOL     OW 4535   3.155   2.512   0.583
 1467SOL    HW1 4536   3.215   2.527   0.656
 1467SOL    HW2 4537   3.191   2.437   0.537
 1468SOL     OW 4538   1.203   2.845   2.686
 1468SOL    HW1 4539   1.295   2.818   2.680
 1468SOL    HW2 4540   1.182   2.836   2.779
 1469SOL     OW 4541   0.948   3.747   2.791
 1469SOL    HW1 4542   0.857   3.739   2.763
 1469SOL    HW2 4543   0.999   3.706   2.722
 1470SOL     OW 4544   1.278   3.091   2.588
 1470SOL    HW1 4545   1.262   3.016   2.646
 1470SOL    HW2 4546   1.307   3.161   2.647
 1471SOL     OW 4547   0.642   0.759   0.550
 1471SOL    HW1 4548   0.686   0.772   0.466
 1471SOL    HW2 4549   0.550   0.777   0.531
 1472SOL     OW 4550   2.188   3.010   0.894
 1472SOL    HW1 4551   2.182   3.023   0.800
 1472SOL    HW2 4552   2.257   3.069   0.923
 1473SOL     OW 4553   1.566   1.114   3.267
 1473SOL    HW1 4554   1.511   1.188   3.291
 1473SOL    HW2 4555   1.556   1.106   3.173
 1474SOL     OW 4556   3.801   0.090   2.841
 1474SOL    HW1 4557   3.782  -0.001   2.819
 1474SOL    HW2 4558   3.870   0.116   2.779
 1475SOL     OW 4559   0.035   0.108   2.651
 1475SOL    HW1 4560   0.099   0.175   2.629
 1475SOL    HW2 4561   0.083   0.025   2.644
 1476SOL     OW 4562   3.233   3.311   3.337
 1476SOL    HW1 4563   3.269   3.375   3.275
 1476SOL    HW2 4564   3.160   3.357   3.379
 1477SOL     OW 4565   3.220   0.743   3.721
 1477SOL    HW1 4566   3.154   0.812   3.712
 1477SOL    HW2 4567   3.192   0.693   3.798
 1478SOL     OW 4568   3.684   2.344   2.249
 1478SOL    HW1 4569   3.734   2.273   2.210
 1478SOL    HW2 4570   3.683   2.413   2.183
 1479SOL     OW 4571   3.774   0.970   3.417
 1479SOL    HW1 4572   3.719   0.998   3.344
 1479SOL    HW2 4573   3.737   0.887   3.445
 1480SOL     OW 4574   3.221   0.222   1.585
 1480SOL    HW1 4575   3.289   0.221   1.653
 1480SOL    HW2 4576   3.212   0.130   1.560
 1481SOL     OW 4577   3.585   3.795   1.904
 1481SOL    HW1 4578   3.522   3.748   1.849
 1481SOL    HW2 4579   3.668   3.787   1.857
 1482SOL     OW 4580   0.199   3.205   0.391
 1482SOL    HW1 4581   0.274   3.186   0.334
 1482SOL    HW2 4582   0.204   3.138   0.459
 1483SOL     OW 4583   2.176   2.537   0.039
 1483SOL    HW1 4584   2.235   2.594   0.089
 1483SOL    HW2 4585   2.190   2.563  -0.052
 1484SOL     OW 4586   0.661   1.503   2.257
 1484SOL    HW1 4587   0.670   1.418   2.300
 1484SOL    HW2 4588   0.747   1.519   2.218
 1485SOL     OW 4589   1.220   3.892   1.868
 1485SOL    HW1 4590   1.142   3.926   1.823
 1485SOL    HW2 4591   1.252   3.822   1.811
 1486SOL     OW 4592   1.331   1.150   1.649
 1486SOL    HW1 4593   1.387   1.226   1.639
 1486SOL    HW2 4594   1.386   1.076   1.621
 1487SOL     OW 4595   2.266   2.841   1.952
 1487SOL    HW1 4596   2.294   2.801   1.870
 1487SOL    HW2 4597   2.213   2.916   1.925
 1488SOL     OW 4598   3.278   1.649   3.367
 1488SOL    HW1 4599   3.312   1.697   3.291
 1488SOL    HW2 4600   3.285   1.710   3.440
 1489SOL     OW 4601   0.234   3.657   1.542
 1489SOL    HW1 4602   0.232   3.648   1.446
 1489SOL    HW2 4603   0.193   3.742   1.559
 1490SOL     OW 4604   0.725   1.568   1.560
 1490SOL    HW1 4605   0.713   1.500   1.493
 1490SOL    HW2 4606   0.787   1.529   1.622
 1491SOL     OW 4607   3.681   3.009   2.903
 1491SOL    HW1 4608   3.600   2.958   2.901
 1491SOL    HW2 4609   3.652   3.100   2.909
 1492SOL     OW 4610   2.427   2.782   3.477
 1492SOL    HW1 4611   2.444   2.861   3.529
 1492SOL    HW2 4612   2.513   2.758   3.441
 1493SOL     OW 4613   0.610   2.421   3.918
 1493SOL    HW1 4614   0.532   2.385   3.960
 1493SOL    HW2 4615   0.673   2.349   3.919
 1494SOL     OW 4616   3.000   0.824   2.596
 1494SOL    HW1 4617   2.952   0.796   2.674
 1494SOL    HW2 4618   2.993   0.750   2.535
 1495SOL     OW 4619   0.097   0.429   2.296
 1495SOL    HW1 4620   0.105   0.483   2.218
 1495SOL    HW2 4621   0.006   0.439   2.323
 1496SOL     OW 4622   0.894   1.742   1.907
 1496SOL    HW1 4623   0.981   1.764   1.939
 1496SOL    HW2 4624   0.883   1.796   1.828
 1497SOL     OW 4625   3.899   3.306   0.954
 1497SOL    HW1 4626   3.986   3.339   0.975
 1497SOL    HW2 4627   3.913   3.245   0.882
 1498SOL     OW 4628   0.239   0.302   2.594
 1498SOL    HW1 4629   0.314   0.247   2.618
 1498SOL    HW2 4630   0.248   0.314   2.499
 1499SOL     OW 4631   0.408   1.446   2.109
 1499SOL    HW1 4632   0.458   1.495   2.175
 1499SOL    HW2 4633   0.468   1.437   2.035
 1500SOL     OW 4634   0.905   1.884   1.684
 1500SOL    HW1 4635   0.876   1.965   1.642
 1500SOL    HW2 4636   1.000   1.893   1.692
 1501SOL     OW 4637   0.508   1.362   0.653
 1501SOL    HW1 4638   0.450   1.332   0.583
 1501SOL    HW2 4639   0.477   1.318   0.732
 1502SOL     OW 4640   2.560   0.303   1.212
 1502SOL    HW1 4641   2.521   0.373   1.264
 1502SOL    HW2 4642   2.486   0.264   1.164
 1503SOL     OW 4643   1.060   0.322   3.783
 1503SOL    HW1 4644   1.013   0.295   3.862
 1503SOL    HW2 4645   1.079   0.240   3.738
 1504SOL     OW 4646   2.739   2.795   0.715
 1504SOL    HW1 4647   2.708   2.884   0.735
 1504SOL    HW2 4648   2.686   2.767   0.641
 1505SOL     OW 4649   1.692   1.340   0.084
 1505SOL    HW1 4650   1.718   1.432   0.081
 1505SOL    HW2 4651   1.746   1.299   0.016
 1506SOL     OW 4652   1.361   0.186   2.760
 1506SOL    HW1 4653   1.311   0.158   2.836
 1506SOL    HW2 4654   1.411   0.262   2.791
 1507SOL     OW 4655   2.823   2.350   1.808
 1507SOL    HW1 4656   2.763   2.415   1.771
 1507SOL    HW2 4657   2.850   2.387   1.892
 1508SOL     OW 4658   1.107   0.718   1.627
 1508SOL    HW1 4659   1.071   0.677   1.548
 1508SOL    HW2 4660   1.108   0.647   1.692
 1509SOL     OW 4661   1.288   0.225   1.834
 1509SOL    HW1 4662   1.242   0.221   1.918
 1509SOL    HW2 4663   1.264   0.143   1.790
 1510SOL     OW 4664   2.843   3.580   2.434
 1510SOL    HW1 4665   2.773   3.633   2.473
 1510SOL    HW2 4666   2.816   3.490   2.449
 1511SOL     OW 4667   0.700   0.407   3.909
 1511SOL    HW1 4668   0.795   0.396   3.905
 1511SOL    HW2 4669   0.678   0.394   4.001
 1512SOL     OW 4670   1.745   1.972   1.651
 1512SOL    HW1 4671   1.756   2.045   1.712
 1512SOL    HW2 4672   1.780   1.896   1.697
 1513SOL     OW 4673   0.548   3.013   2.157
 1513SOL    HW1 4674   0.583   3.058   2.080
 1513SOL    HW2 4675   0.495   2.942   2.122
 1514SOL     OW 4676   2.283   3.597   3.151
 1514SOL    HW1 4677   2.270   3.613   3.245
 1514SOL    HW2 4678   2.342   3.667   3.123
 1515SOL     OW 4679   3.870   0.892   0.282
 1515SOL    HW1 4680   3.855   0.800   0.259
 1515SOL    HW2 4681   3.851   0.940   0.201
 1516SOL     OW 4682   1.791   2.154   0.696
 1516SOL    HW1 4683   1.870   2.120   0.653
 1516SOL    HW2 4684   1.810   2.247   0.710
 1517SOL     OW 4685   1.588   2.454   0.002
 1517SOL    HW1 4686   1.571   2.521   0.068
 1517SOL    HW2 4687   1.561   2.372   0.043
 1518SOL     OW 4688   0.391   1.013   3.233
 1518SOL    HW1 4689   0.430   1.027   3.147
 1518SOL    HW2 4690   0.299   0.995   3.215
 1519SOL     OW 4691   0.391   0.490   1.425
 1519SOL    HW1 4692   0.307   0.531   1.404
 1519SOL    HW2 4693   0.385   0.471   1.519
 1520SOL     OW 4694   3.003   0.315   3.340
 1520SOL    HW1 4695   3.018   0.305   3.434
 1520SOL    HW2 4696   3.089   0.334   3.303
 1521SOL     OW 4697   0.827   3.721   2.238
 1521SOL    HW1 4698   0.795   3.811   2.235
 1521SOL    HW2 4699   0.916   3.729   2.273
 1522SOL     OW 4700   2.826   0.181   0.326
 1522SOL    HW1 4701   2.859   0.105   0.279
 1522SOL    HW2 4702   2.750   0.147   0.374
 1523SOL     OW 4703   1.881   3.858   2.802
 1523SOL    HW1 4704   1.940   3.911   2.855
 1523SOL    HW2 4705   1.829   3.809   2.865
 1524SOL     OW 4706   0.241   1.819   2.223
 1524SOL    HW1 4707   0.185   1.889   2.257
 1524SOL    HW2 4708   0.220   1.743   2.277
 1525SOL     OW 4709   2.654   2.153   3.443
 1525SOL    HW1 4710   2.564   2.140   3.472
 1525SOL    HW2 4711   2.692   2.214   3.506
 1526SOL     OW 4712   2.302   0.549   0.509
 1526SOL    HW1 4713   2.216   0.521   0.476
 1526SOL    HW2 4714   2.287   0.639   0.539
 1527SOL     OW 4715   3.136   1.007   1.762
 1527SOL    HW1 4716   3.180   0.976   1.841
 1527SOL    HW2 4717   3.160   0.944   1.694
 1528SOL     OW 4718   2.440   1.764   0.915
 1528SOL    HW1 4719   2.415   1.717   0.995
 1528SOL    HW2 4720   2.363   1.758   0.859
 1529SOL     OW 4721   0.579   1.751   2.197
 1529SOL    HW1 4722   0.586   1.758   2.102
 1529SOL    HW2 4723   0.600   1.660   2.216
 1530SOL     OW 4724   1.722   2.582   0.644
 1530SOL    HW1 4725   1.628   2.577   0.625
 1530SOL    HW2 4726   1.763   2.597   0.559
 1531SOL     OW 4727   1.179   2.629   2.480
 1531SOL    HW1 4728   1.089   2.595   2.476
 1531SOL    HW2 4729   1.169   2.717   2.516
 1532SOL     OW 4730   2.626   0.534   2.891
 1532SOL    HW1 4731   2.557   0.600   2.899
 1532SOL    HW2 4732   2.702   0.582   2.859
 1533SOL     OW 4733   2.133   0.834   0.020
 1533SOL    HW1 4734   2.198   0.796   0.080
 1533SOL    HW2 4735   2.051   0.791   0.044
 1534SOL     OW 4736   1.911   1.475   0.643
 1534SOL    HW1 4737   1.855   1.468   0.720
 1534SOL    HW2 4738   1.986   1.419   0.663
 1535SOL     OW 4739   0.216   2.358   3.352
 1535SOL    HW1 4740   0.195   2.269   3.325
 1535SOL    HW2 4741   0.285   2.347   3.418
 1536SOL     OW 4742   2.198   3.917   3.393
 1536SOL    HW1 4743   2.104   3.933   3.406
 1536SOL    HW2 4744   2.205   3.896   3.300
 1537SOL     OW 4745   3.005   2.645   2.466
 1537SOL    HW1 4746   2.973   2.709   2.402
 1537SOL    HW2 4747   2.937   2.641   2.532
 1538SOL     OW 4748   2.227   1.542   2.236
 1538SOL    HW1 4749   2.220   1.548   2.332
 1538SOL    HW2 4750   2.302   1.597   2.215
 1539SOL     OW 4751   3.197   0.585   2.849
 1539SOL    HW1 4752   3.288   0.606   2.827
 1539SOL    HW2 4753   3.200   0.495   2.882
 1540SOL     OW 4754   0.520   3.114   0.596
 1540SOL    HW1 4755   0.614   3.105   0.612
 1540SOL    HW2 4756   0.480   3.042   0.644
 1541SOL     OW 4757   3.400   3.516   2.116
 1541SOL    HW1 4758   3.477   3.476   2.074
 1541SOL    HW2 4759   3.327   3.493   2.058
 1542SOL     OW 4760   1.142   3.417   3.050
 1542SOL    HW1 4761   1.079   3.375   3.108
 1542SOL    HW2 4762   1.101   3.500   3.025
 1543SOL     OW 4763   0.994   0.623   1.221
 1543SOL    HW1 4764   0.907   0.661   1.206
 1543SOL    HW2 4765   0.976   0.534   1.249
 1544SOL     OW 4766   2.705   0.054   2.043
 1544SOL    HW1 4767   2.707   0.137   2.091
 1544SOL    HW2 4768   2.615   0.047   2.012
 1545SOL     OW 4769   3.312   2.341   0.441
 1545SOL    HW1 4770   3.396   2.387   0.442
 1545SOL    HW2 4771   3.325   2.269   0.379
 1546SOL     OW 4772   2.017   0.566   2.638
 1546SOL    HW1 4773   2.007   0.602   2.550
 1546SOL    HW2 4774   1.939   0.513   2.651
 1547SOL     OW 4775   3.122   2.166   3.825
 1547SOL    HW1 4776   3.045   2.184   3.879
 1547SOL    HW2 4777   3.145   2.251   3.787
 1548SOL     OW 4778   2.499   1.767   2.935
 1548SOL    HW1 4779   2.553   1.770   2.856
 1548SOL    HW2 4780   2.548   1.711   2.995
 1549SOL     OW 4781   0.331   3.356   1.568
 1549SOL    HW1 4782   0.258   3.373   1.508
 1549SOL    HW2 4783   0.407   3.393   1.522
 1550SOL     OW 4784   2.291   1.916   2.375
 1550SOL    HW1 4785   2.283   1.848   2.442
 1550SOL    HW2 4786   2.369   1.965   2.400
 1551SOL     OW 4787   0.247   3.022   0.608
 1551SOL    HW1 4788   0.310   2.965   0.652
 1551SOL    HW2 4789   0.188   3.051   0.677
 1552SOL     OW 4790   0.335   2.304   2.401
 1552SOL    HW1 4791   0.415   2.287   2.352
 1552SOL    HW2 4792   0.278   2.349   2.338
 1553SOL     OW 4793   2.544   1.375   2.199
 1553SOL    HW1 4794   2.577   1.286   2.212
 1553SOL    HW2 4795   2.490   1.392   2.276
 1554SOL     OW 4796   0.251   2.609   1.395
 1554SOL    HW1 4797   0.184   2.673   1.372
 1554SOL    HW2 4798   0.332   2.644   1.357
 1555SOL     OW 4799   0.288   0.237   2.009
 1555SOL    HW1 4800   0.211   0.210   1.959
 1555SOL    HW2 4801   0.309   0.324   1.974
 1556SOL     OW 4802   0.200   3.513   0.747
 1556SOL    HW1 4803   0.224   3.605   0.742
 1556SOL    HW2 4804   0.158   3.495   0.662
 1557SOL     OW 4805   2.591   0.435   2.288
 1557SOL    HW1 4806   2.503   0.472   2.274
 1557SOL    HW2 4807   2.608   0.447   2.381
 1558SOL     OW 4808   0.847   3.047   3.571
 1558SOL    HW1 4809   0.774   3.013   3.520
 1558SOL    HW2 4810   0.842   3.002   3.655
 1559SOL     OW 4811   3.544   1.691   3.462
 1559SOL    HW1 4812   3.493   1.771   3.468
 1559SOL    HW2 4813   3.550   1.659   3.553
 1560SOL     OW 4814   1.600   3.649   0.768
 1560SOL    HW1 4815   1.673   3.682   0.717
 1560SOL    HW2 4816   1.632   3.568   0.807
 1561SOL     OW 4817   0.433   3.898   1.368
 1561SOL    HW1 4818   0.450   3.947   1.449
 1561SOL    HW2 4819   0.339   3.879   1.371
 1562SOL     OW 4820   1.379   1.188   3.487
 1562SOL    HW1 4821   1.417   1.102   3.506
 1562SOL    HW2 4822   1.298   1.191   3.537
 1563SOL     OW 4823   2.690   2.854   1.335
 1563SOL    HW1 4824   2.765   2.825   1.284
 1563SOL    HW2 4825   2.642   2.912   1.276
 1564SOL     OW 4826   0.275   1.802   0.508
 1564SOL    HW1 4827   0.187   1.770   0.493
 1564SOL    HW2 4828   0.325   1.725   0.534
 1565SOL     OW 4829   1.662   3.602   2.815
 1565SOL    HW1 4830   1.580   3.559   2.840
 1565SOL    HW2 4831   1.645   3.640   2.729
 1566SOL     OW 4832   1.506   1.343   1.959
 1566SOL    HW1 4833   1.592   1.306   1.940
 1566SOL    HW2 4834   1.444   1.274   1.935
 1567SOL     OW 4835   3.950   1.937   1.086
 1567SOL    HW1 4836   3.869   1.907   1.127
 1567SOL    HW2 4837   3.990   1.996   1.150
 1568SOL     OW 4838   0.276   2.948   3.149
 1568SOL    HW1 4839   0.254   3.032   3.110
 1568SOL    HW2 4840   0.291   2.890   3.074
 1569SOL     OW 4841   0.934   0.115   1.188
 1569SOL    HW1 4842   0.862   0.116   1.124
 1569SOL    HW2 4843   0.891   0.096   1.271
 1570SOL     OW 4844   1.845   3.917   0.178
 1570SOL    HW1 4845   1.824   3.833   0.137
 1570SOL    HW2 4846   1.769   3.938   0.232
 1571SOL     OW 4847   1.498   2.171   3.302
 1571SOL    HW1 4848   1.572   2.119   3.332
 1571SOL    HW2 4849   1.489   2.241   3.368
 1572SOL     OW 4850   3.043   1.278   1.700
 1572SOL    HW1 4851   2.989   1.263   1.622
 1572SOL    HW2 4852   3.077   1.191   1.722
 1573SOL     OW 4853   3.156   2.189   2.747
 1573SOL    HW1 4854   3.169   2.213   2.655
 1573SOL    HW2 4855   3.181   2.097   2.752
 1574SOL     OW 4856   0.849   3.629   1.585
 1574SOL    HW1 4857   0.782   3.630   1.653
 1574SOL    HW2 4858   0.918   3.687   1.618
 1575SOL     OW 4859   2.674   0.434   0.787
 1575SOL    HW1 4860   2.582   0.411   0.797
 1575SOL    HW2 4861   2.705   0.451   0.876
 1576SOL     OW 4862   2.145   0.552   1.890
 1576SOL    HW1 4863   2.060   0.513   1.869
 1576SOL    HW2 4864   2.124   0.628   1.944
 1577SOL     OW 4865   3.726   0.689   3.944
 1577SOL    HW1 4866   3.672   0.622   3.987
 1577SOL    HW2 4867   3.718   0.669   3.850
 1578SOL     OW 4868   2.919   0.374   0.583
 1578SOL    HW1 4869   2.882   0.302   0.532
 1578SOL    HW2 4870   2.844   0.412   0.628
 1579SOL     OW 4871   1.667   3.943   0.377
 1579SOL    HW1 4872   1.602   4.014   0.382
 1579SOL    HW2 4873   1.624   3.868   0.417
 1580SOL     OW 4874   2.443   2.921   2.171
 1580SOL    HW1 4875   2.379   2.851   2.189
 1580SOL    HW2 4876   2.436   2.935   2.077
 1581SOL     OW 4877   1.089   2.490   0.040
 1581SOL    HW1 4878   1.040   2.555   0.089
 1581SOL    HW2 4879   1.157   2.540  -0.006
 1582SOL     OW 4880   2.807   0.815   3.287
 1582SOL    HW1 4881   2.880   0.772   3.331
 1582SOL    HW2 4882   2.738   0.820   3.354
 1583SOL     OW 4883   3.093   2.516   3.100
 1583SOL    HW1 4884   3.115   2.498   3.009
 1583SOL    HW2 4885   3.068   2.431   3.136
 1584SOL     OW 4886   2.337   3.339   2.835
 1584SOL    HW1 4887   2.408   3.369   2.892
 1584SOL    HW2 4888   2.371   3.259   2.794
 1585SOL     OW 4889   0.588   1.259   3.895
 1585SOL    HW1 4890   0.590   1.255   3.799
 1585SOL    HW2 4891   0.500   1.232   3.918
 1586SOL     OW 4892   1.685   2.128   0.288
 1586SOL    HW1 4893   1.763   2.185   0.294
 1586SOL    HW2 4894   1.618   2.174   0.338
 1587SOL     OW 4895   3.372   2.634   2.387
 1587SOL    HW1 4896   3.431   2.696   2.429
 1587SOL    HW2 4897   3.422   2.601   2.312
 1588SOL     OW 4898   0.480   0.012   3.230
 1588SOL    HW1 4899   0.568   0.004   3.193
 1588SOL    HW2 4900   0.467   0.106   3.242
 1589SOL     OW 4901   1.523   2.876   1.216
 1589SOL    HW1 4902   1.594   2.856   1.155
 1589SOL    HW2 4903   1.565   2.926   1.286
 1590SOL     OW 4904   2.332   1.382   0.684
 1590SOL    HW1 4905   2.255   1.328   0.698
 1590SOL    HW2 4906   2.386   1.368   0.762
 1591SOL     OW 4907   3.157   2.953   2.140
 1591SOL    HW1 4908   3.208   2.873   2.131
 1591SOL    HW2 4909   3.172   3.000   2.058
 1592SOL     OW 4910   2.749   3.158   0.269
 1592SOL    HW1 4911   2.783   3.247   0.257
 1592SOL    HW2 4912   2.772   3.135   0.359
 1593SOL     OW 4913   1.316   3.023   1.990
 1593SOL    HW1 4914   1.249   2.955   2.004
 1593SOL    HW2 4915   1.282   3.100   2.036
 1594SOL     OW 4916   0.968   3.028   1.712
 1594SOL    HW1 4917   1.006   2.940   1.716
 1594SOL    HW2 4918   1.033   3.080   1.665
 1595SOL     OW 4919   0.536   1.715   2.550
 1595SOL    HW1 4920   0.478   1.641   2.533
 1595SOL    HW2 4921   0.623   1.683   2.528
 1596SOL     OW 4922   3.270   0.325   2.936
 1596SOL    HW1 4923   3.337   0.272   2.894
 1596SOL    HW2 4924   3.246   0.277   3.015
 1597SOL     OW 4925   0.735   1.355   0.145
 1597SOL    HW1 4926   0.775   1.427   0.096
 1597SOL    HW2 4927   0.684   1.307   0.080
 1598SOL     OW 4928   2.037   2.432   3.457
 1598SOL    HW1 4929   2.125   2.467   3.469
 1598SOL    HW2 4930   2.022   2.435   3.363
 1599SOL     OW 4931   2.635   3.312   1.698
 1599SOL    HW1 4932   2.669   3.255   1.629
 1599SOL    HW2 4933   2.566   3.262   1.740
 1600SOL     OW 4934   3.634   3.073   3.727
 1600SOL    HW1 4935   3.586   3.152   3.704
 1600SOL    HW2 4936   3.699   3.063   3.657
 1601SOL     OW 4937   2.191   1.235   1.657
 1601SOL    HW1 4938   2.284   1.212   1.665
 1601SOL    HW2 4939   2.183   1.318   1.704
 1602SOL     OW 4940   2.917   1.030   3.635
 1602SOL    HW1 4941   2.907   0.961   3.701
 1602SOL    HW2 4942   2.829   1.066   3.626
 1603SOL     OW 4943   3.728   0.447   0.543
 1603SOL    HW1 4944   3.664   0.442   0.472
 1603SOL    HW2 4945   3.778   0.365   0.535
 1604SOL     OW 4946   3.310   0.986   1.231
 1604SOL    HW1 4947   3.317   0.999   1.326
 1604SOL    HW2 4948   3.400   0.984   1.201
 1605SOL     OW 4949   2.025   1.727   0.626
 1605SOL    HW1 4950   1.991   1.747   0.539
 1605SOL    HW2 4951   2.008   1.633   0.637
 1606SOL     OW 4952   3.598   3.261   2.920
 1606SOL    HW1 4953   3.517   3.278   2.969
 1606SOL    HW2 4954   3.597   3.326   2.849
 1607SOL     OW 4955   1.582   0.833   0.374
 1607SOL    HW1 4956   1.567   0.927   0.365
 1607SOL    HW2 4957   1.580   0.799   0.284
 1608SOL     OW 4958   1.886   1.144   3.022
 1608SOL    HW1 4959   1.800   1.116   2.991
 1608SOL    HW2 4960   1.898   1.098   3.105
 1609SOL     OW 4961   2.670   3.146   1.486
 1609SOL    HW1 4962   2.652   3.053   1.503
 1609SOL    HW2 4963   2.607   3.171   1.419
 1610SOL     OW 4964   3.201   3.254   3.708
 1610SOL    HW1 4965   3.178   3.333   3.659
 1610SOL    HW2 4966   3.230   3.192   3.640
 1611SOL     OW 4967   0.369   0.173   3.790
 1611SOL    HW1 4968   0.280   0.208   3.795
 1611SOL    HW2 4969   0.422   0.245   3.756
 1612SOL     OW 4970   3.586   1.893   0.179
 1612SOL    HW1 4971   3.496   1.886   0.146
 1612SOL    HW2 4972   3.584   1.844   0.262
 1613SOL     OW 4973   0.618   0.216   2.121
 1613SOL    HW1 4974   0.689   0.280   2.132
 1613SOL    HW2 4975   0.598   0.219   2.027
 1614SOL     OW 4976   3.811   0.690   1.582
 1614SOL    HW1 4977   3.775   0.711   1.496
 1614SOL    HW2 4978   3.782   0.600   1.599
 1615SOL     OW 4979   2.923   1.090   1.193
 1615SOL    HW1 4980   2.982   1.142   1.139
 1615SOL    HW2 4981   2.931   1.001   1.157
 1616SOL     OW 4982   0.697   2.534   0.862
 1616SOL    HW1 4983   0.730   2.489   0.784
 1616SOL    HW2 4984   0.610   2.498   0.876
 1617SOL     OW 4985   1.880   3.307   2.281
 1617SOL    HW1 4986   1.926   3.278   2.203
 1617SOL    HW2 4987   1.915   3.393   2.300
 1618SOL     OW 4988   0.754   2.963   2.705
 1618SOL    HW1 4989   0.687   3.005   2.650
 1618SOL    HW2 4990   0.740   2.869   2.691
 1619SOL     OW 4991   0.458   0.162   2.679
 1619SOL    HW1 4992   0.408   0.126   2.752
 1619SOL    HW2 4993   0.544   0.121   2.686
 1620SOL     OW 4994   2.372   1.367   2.418
 1620SOL    HW1 4995   2.280   1.392   2.423
 1620SOL    HW2 4996   2.399   1.356   2.509
 1621SOL     OW 4997   3.942   0.294   0.453
 1621SOL    HW1 4998   3.980   0.213   0.488
 1621SOL    HW2 4999   3.902   0.269   0.371
 1622SOL     OW 5000   0.976   1.008   0.386
 1622SOL    HW1 5001   0.882   1.024   0.397
 1622SOL    HW2 5002   1.014   1.026   0.472
 1623SOL     OW 5003   1.473   3.540   3.069
 1623SOL    HW1 5004   1.442   3.564   3.157
 1623SOL    HW2 5005   1.557   3.497   3.085
 1624SOL     OW 5006   0.369   1.148   1.963
 1624SOL    HW1 5007   0.457   1.180   1.982
 1624SOL    HW2 5008   0.382   1.056   1.940
 1625SOL     OW 5009   1.154   0.782   3.566
 1625SOL    HW1 5010   1.210   0.851   3.530
 1625SOL    HW2 5011   1.211   0.731   3.623
 1626SOL     OW 5012   0.245   0.853   2.878
 1626SOL    HW1 5013   0.247   0.784   2.813
 1626SOL    HW2 5014   0.314   0.830   2.941
 1627SOL     OW 5015   0.572   2.223   2.313
 1627SOL    HW1 5016   0.509   2.151   2.306
 1627SOL    HW2 5017   0.636   2.206   2.244
 1628SOL     OW 5018   0.515   0.374   3.688
 1628SOL    HW1 5019   0.561   0.340   3.611
 1628SOL    HW2 5020   0.581   0.371   3.758
 1629SOL     OW 5021   2.969   0.271   3.632
 1629SOL    HW1 5022   2.915   0.195   3.653
 1629SOL    HW2 5023   3.028   0.280   3.706
 1630SOL     OW 5024   0.362   2.095   2.980
 1630SOL    HW1 5025   0.438   2.119   2.926
 1630SOL    HW2 5026   0.397   2.036   3.046
 1631SOL     OW 5027   3.845   2.968   3.100
 1631SOL    HW1 5028   3.893   2.887   3.085
 1631SOL    HW2 5029   3.791   2.980   3.022
 1632SOL     OW 5030   3.266   1.890   0.685
 1632SOL    HW1 5031   3.264   1.845   0.769
 1632SOL    HW2 5032   3.312   1.972   0.703
 1633SOL     OW 5033   3.435   2.130   0.288
 1633SOL    HW1 5034   3.522   2.092   0.278
 1633SOL    HW2 5035   3.386   2.098   0.212
 1634SOL     OW 5036   3.856   0.622   0.245
 1634SOL    HW1 5037   3.898   0.584   0.169
 1634SOL    HW2 5038   3.785   0.561   0.267
 1635SOL     OW 5039   2.233   1.852   3.043
 1635SOL    HW1 5040   2.181   1.879   2.967
 1635SOL    HW2 5041   2.319   1.829   3.006
 1636SOL     OW 5042   1.353   0.785   2.976
 1636SOL    HW1 5043   1.421   0.774   2.909
 1636SOL    HW2 5044   1.401   0.807   3.056
 1637SOL     OW 5045   2.735   3.745   1.961
 1637SOL    HW1 5046   2.778   3.676   2.012
 1637SOL    HW2 5047   2.728   3.819   2.022
 1638SOL     OW 5048   2.995   1.621   1.397
 1638SOL    HW1 5049   2.987   1.615   1.302
 1638SOL    HW2 5050   2.914   1.580   1.430
 1639SOL     OW 5051   2.372   2.510   3.181
 1639SOL    HW1 5052   2.424   2.590   3.192
 1639SOL    HW2 5053   2.436   2.442   3.162
 1640SOL     OW 5054   0.640   0.504   1.744
 1640SOL    HW1 5055   0.574   0.470   1.685
 1640SOL    HW2 5056   0.605   0.487   1.832
 1641SOL     OW 5057   1.174   1.111   3.661
 1641SOL    HW1 5058   1.166   1.111   3.757
 1641SOL    HW2 5059   1.087   1.135   3.630
 1642SOL     OW 5060   1.088   3.787   0.266
 1642SOL    HW1 5061   1.008   3.833   0.237
 1642SOL    HW2 5062   1.080   3.700   0.228
 1643SOL     OW 5063   0.686   3.816   0.479
 1643SOL    HW1 5064   0.761   3.766   0.512
 1643SOL    HW2 5065   0.697   3.903   0.517
 1644SOL     OW 5066   2.397   1.116   3.267
 1644SOL    HW1 5067   2.323   1.146   3.214
 1644SOL    HW2 5068   2.459   1.188   3.263
 1645SOL     OW 5069   2.217   3.143   3.723
 1645SOL    HW1 5070   2.268   3.194   3.786
 1645SOL    HW2 5071   2.188   3.208   3.659
 1646SOL     OW 5072   3.304   1.618   2.528
 1646SOL    HW1 5073   3.256   1.701   2.532
 1646SOL    HW2 5074   3.245   1.557   2.485
 1647SOL     OW 5075   3.192   2.269   0.873
 1647SOL    HW1 5076   3.217   2.361   0.870
 1647SOL    HW2 5077   3.122   2.260   0.808
 1648SOL     OW 5078   0.573   1.281   0.328
 1648SOL    HW1 5079   0.638   1.324   0.273
 1648SOL    HW2 5080   0.489   1.317   0.298
 1649SOL     OW 5081   1.717   3.371   1.973
 1649SOL    HW1 5082   1.805   3.393   1.943
 1649SOL    HW2 5083   1.705   3.279   1.948
 1650SOL     OW 5084   1.043   1.821   0.515
 1650SOL    HW1 5085   1.028   1.779   0.600
 1650SOL    HW2 5086   1.089   1.755   0.463
 1651SOL     OW 5087   2.182   2.264   1.197
 1651SOL    HW1 5088   2.231   2.220   1.127
 1651SOL    HW2 5089   2.091   2.237   1.183
 1652SOL     OW 5090   0.152   1.000   2.474
 1652SOL    HW1 5091   0.080   1.061   2.488
 1652SOL    HW2 5092   0.130   0.954   2.393
 1653SOL     OW 5093   3.448   2.630   1.568
 1653SOL    HW1 5094   3.518   2.660   1.511
 1653SOL    HW2 5095   3.490   2.569   1.628
 1654SOL     OW 5096   0.823   3.177   1.511
 1654SOL    HW1 5097   0.785   3.237   1.574
 1654SOL    HW2 5098   0.885   3.125   1.561
 1655SOL     OW 5099   1.376   3.777   0.711
 1655SOL    HW1 5100   1.436   3.818   0.649
 1655SOL    HW2 5101   1.431   3.719   0.763
 1656SOL     OW 5102   0.615   2.723   2.614
 1656SOL    HW1 5103   0.660   2.705   2.532
 1656SOL    HW2 5104   0.534   2.671   2.609
 1657SOL     OW 5105   3.517   3.387   0.461
 1657SOL    HW1 5106   3.568   3.323   0.411
 1657SOL    HW2 5107   3.448   3.415   0.401
 1658SOL     OW 5108   2.566   0.642   1.722
 1658SOL    HW1 5109   2.515   0.722   1.718
 1658SOL    HW2 5110   2.600   0.631   1.633
 1659SOL     OW 5111   0.322   1.906   1.967
 1659SOL    HW1 5112   0.343   1.910   2.060
 1659SOL    HW2 5113   0.405   1.887   1.924
 1660SOL     OW 5114   3.092   1.221   0.946
 1660SOL    HW1 5115   3.115   1.281   1.016
 1660SOL    HW2 5116   3.157   1.238   0.878
 1661SOL     OW 5117   1.727   1.551   2.462
 1661SOL    HW1 5118   1.799   1.612   2.471
 1661SOL    HW2 5119   1.661   1.582   2.524
 1662SOL     OW 5120   2.954   2.673   0.291
 1662SOL    HW1 5121   2.929   2.724   0.214
 1662SOL    HW2 5122   3.043   2.702   0.312
 1663SOL     OW 5123   1.032   2.919   0.544
 1663SOL    HW1 5124   1.036   2.968   0.625
 1663SOL    HW2 5125   0.939   2.901   0.531
 1664SOL     OW 5126   1.683   3.403   0.896
 1664SOL    HW1 5127   1.756   3.456   0.928
 1664SOL    HW2 5128   1.725   3.328   0.854
 1665SOL     OW 5129   1.089   3.904   3.537
 1665SOL    HW1 5130   1.082   3.920   3.631
 1665SOL    HW2 5131   1.167   3.952   3.510
 1666SOL     OW 5132   1.371   0.485   2.427
 1666SOL    HW1 5133   1.430   0.433   2.482
 1666SOL    HW2 5134   1.428   0.550   2.386
 1667SOL     OW 5135   3.618   2.585   0.835
 1667SOL    HW1 5136   3.671   2.658   0.866
 1667SOL    HW2 5137   3.671   2.546   0.764
 1668SOL     OW 5138   0.447   2.975   2.740
 1668SOL    HW1 5139   0.477   3.061   2.769
 1668SOL    HW2 5140   0.428   2.986   2.647
 1669SOL     OW 5141   1.858   3.554   0.346
 1669SOL    HW1 5142   1.800   3.563   0.270
 1669SOL    HW2 5143   1.854   3.461   0.369
 1670SOL     OW 5144   1.436   3.039   0.358
 1670SOL    HW1 5145   1.394   2.954   0.372
 1670SOL    HW2 5146   1.373   3.103   0.391
 1671SOL     OW 5147   2.856   3.673   1.608
 1671SOL    HW1 5148   2.819   3.749   1.652
 1671SOL    HW2 5149   2.856   3.604   1.675
 1672SOL     OW 5150   0.319   0.478   1.871
 1672SOL    HW1 5151   0.326   0.571   1.848
 1672SOL    HW2 5152   0.334   0.432   1.789
 1673SOL     OW 5153   0.444   0.891   1.273
 1673SOL    HW1 5154   0.403   0.927   1.352
 1673SOL    HW2 5155   0.396   0.931   1.200
 1674SOL     OW 5156   0.128   1.465   2.684
 1674SOL    HW1 5157   0.069   1.534   2.654
 1674SOL    HW2 5158   0.116   1.394   2.621
 1675SOL     OW 5159   1.667   2.729   2.358
 1675SOL    HW1 5160   1.588   2.755   2.311
 1675SOL    HW2 5161   1.721   2.684   2.293
 1676SOL     OW 5162   3.872   1.106   2.522
 1676SOL    HW1 5163   3.822   1.148   2.451
 1676SOL    HW2 5164   3.901   1.178   2.578
 1677SOL     OW 5165   2.911   0.119   1.389
 1677SOL    HW1 5166   2.972   0.166   1.446
 1677SOL    HW2 5167   2.835   0.100   1.445
 1678SOL     OW 5168   3.580   2.289  -0.007
 1678SOL    HW1 5169   3.656   2.295   0.052
 1678SOL    HW2 5170   3.504   2.299   0.051
 1679SOL     OW 5171   3.528   3.781   0.270
 1679SOL    HW1 5172   3.434   3.794   0.259
 1679SOL    HW2 5173   3.557   3.857   0.321
 1680SOL     OW 5174   0.071   3.173   0.732
 1680SOL    HW1 5175  -0.010   3.122   0.723
 1680SOL    HW2 5176   0.056   3.251   0.678
 1681SOL     OW 5177   1.726   2.153   2.448
 1681SOL    HW1 5178   1.803   2.188   2.403
 1681SOL    HW2 5179   1.674   2.111   2.379
 1682SOL     OW 5180   2.468   2.758   1.451
 1682SOL    HW1 5181   2.438   2.717   1.370
 1682SOL    HW2 5182   2.562   2.770   1.438
 1683SOL     OW 5183   1.278   3.724   2.109
 1683SOL    HW1 5184   1.367   3.758   2.099
 1683SOL    HW2 5185   1.254   3.695   2.021
 1684SOL     OW 5186   2.309   0.853   1.188
 1684SOL    HW1 5187   2.376   0.784   1.187
 1684SOL    HW2 5188   2.232   0.811   1.150
 1685SOL     OW 5189   2.984   0.152   3.029
 1685SOL    HW1 5190   2.931   0.149   3.109
 1685SOL    HW2 5191   2.960   0.234   2.987
 1686SOL     OW 5192   3.916   1.338   1.422
 1686SOL    HW1 5193   4.009   1.326   1.441
 1686SOL    HW2 5194   3.887   1.407   1.482
 1687SOL     OW 5195   2.957   2.690   3.881
 1687SOL    HW1 5196   2.966   2.715   3.789
 1687SOL    HW2 5197   3.047   2.672   3.909
 1688SOL     OW 5198   3.789   3.507   3.012
 1688SOL    HW1 5199   3.730   3.440   2.976
 1688SOL    HW2 5200   3.766   3.512   3.105
 1689SOL     OW 5201   0.592   3.371   3.482
 1689SOL    HW1 5202   0.581   3.465   3.463
 1689SOL    HW2 5203   0.503   3.339   3.499
 1690SOL     OW 5204   0.706   0.892   3.652
 1690SOL    HW1 5205   0.644   0.942   3.598
 1690SOL    HW2 5206   0.768   0.957   3.684
 1691SOL     OW 5207   0.208   2.478   0.414
 1691SOL    HW1 5208   0.242   2.567   0.400
 1691SOL    HW2 5209   0.134   2.490   0.473
 1692SOL     OW 5210   2.635   2.373   1.435
 1692SOL    HW1 5211   2.635   2.414   1.521
 1692SOL    HW2 5212   2.545   2.380   1.405
 1693SOL     OW 5213   3.896   1.614   2.533
 1693SOL    HW1 5214   3.892   1.699   2.577
 1693SOL    HW2 5215   3.810   1.574   2.548
 1694SOL     OW 5216   3.325   2.875   2.684
 1694SOL    HW1 5217   3.257   2.940   2.664
 1694SOL    HW2 5218   3.404   2.927   2.696
 1695SOL     OW 5219   0.530   2.657   3.330
 1695SOL    HW1 5220   0.514   2.590   3.397
 1695SOL    HW2 5221   0.466   2.638   3.262
 1696SOL     OW 5222   2.228   1.628   2.762
 1696SOL    HW1 5223   2.137   1.656   2.771
 1696SOL    HW2 5224   2.277   1.708   2.747
 1697SOL     OW 5225   1.555   0.633   2.299
 1697SOL    HW1 5226   1.617   0.703   2.280
 1697SOL    HW2 5227   1.605   0.552   2.286
 1698SOL     OW 5228   1.489   2.351   3.575
 1698SOL    HW1 5229   1.488   2.441   3.609
 1698SOL    HW2 5230   1.489   2.296   3.653
 1699SOL     OW 5231   2.239   1.356   1.214
 1699SOL    HW1 5232   2.181   1.386   1.284
 1699SOL    HW2 5233   2.275   1.273   1.246
 1700SOL     OW 5234   3.926   2.671   3.879
 1700SOL    HW1 5235   3.867   2.746   3.868
 1700SOL    HW2 5236   3.986   2.678   3.805
 1701SOL     OW 5237   3.228   2.685   0.300
 1701SOL    HW1 5238   3.283   2.679   0.222
 1701SOL    HW2 5239   3.282   2.649   0.370
 1702SOL     OW 5240   1.295   1.584   0.597
 1702SOL    HW1 5241   1.337   1.670   0.587
 1702SOL    HW2 5242   1.282   1.554   0.507
 1703SOL     OW 5243   3.175   1.476   2.367
 1703SOL    HW1 5244   3.086   1.470   2.332
 1703SOL    HW2 5245   3.230   1.438   2.299
 1704SOL     OW 5246   0.700   3.671   2.743
 1704SOL    HW1 5247   0.632   3.680   2.810
 1704SOL    HW2 5248   0.672   3.731   2.674
 1705SOL     OW 5249   3.969   2.389   2.391
 1705SOL    HW1 5250   3.936   2.371   2.479
 1705SOL    HW2 5251   3.892   2.385   2.335
 1706SOL     OW 5252   2.341   3.817   2.097
 1706SOL    HW1 5253   2.305   3.749   2.041
 1706SOL    HW2 5254   2.285   3.816   2.175
 1707SOL     OW 5255   2.392   2.416   1.044
 1707SOL    HW1 5256   2.352   2.497   1.076
 1707SOL    HW2 5257   2.344   2.395   0.964
 1708SOL     OW 5258   1.168   2.914   0.830
 1708SOL    HW1 5259   1.077   2.936   0.851
 1708SOL    HW2 5260   1.219   2.971   0.887
 1709SOL     OW 5261   1.058   0.116   1.593
 1709SOL    HW1 5262   0.991   0.128   1.661
 1709SOL    HW2 5263   1.037   0.033   1.552
 1710SOL     OW 5264   2.285   1.461   3.808
 1710SOL    HW1 5265   2.337   1.512   3.872
 1710SOL    HW2 5266   2.232   1.403   3.862
 1711SOL     OW 5267   2.173   2.842   3.389
 1711SOL    HW1 5268   2.176   2.876   3.299
 1711SOL    HW2 5269   2.261   2.807   3.404
 1712SOL     OW 5270   1.623   0.507   0.757
 1712SOL    HW1 5271   1.651   0.549   0.675
 1712SOL    HW2 5272   1.579   0.427   0.730
 1713SOL     OW 5273   2.803   1.652   2.434
 1713SOL    HW1 5274   2.710   1.644   2.456
 1713SOL    HW2 5275   2.848   1.605   2.504
 1714SOL     OW 5276   3.087   3.310   2.144
 1714SOL    HW1 5277   3.121   3.229   2.180
 1714SOL    HW2 5278   2.996   3.290   2.121
 1715SOL     OW 5279   3.517   1.666   3.129
 1715SOL    HW1 5280   3.538   1.722   3.203
 1715SOL    HW2 5281   3.599   1.624   3.105
 1716SOL     OW 5282   1.185   2.312   0.860
 1716SOL    HW1 5283   1.110   2.256   0.840
 1716SOL    HW2 5284   1.235   2.263   0.925
 1717SOL     OW 5285   0.063   0.559   0.491
 1717SOL    HW1 5286   0.031   0.592   0.407
 1717SOL    HW2 5287   0.004   0.487   0.512
 1718SOL     OW 5288   2.457   2.992   3.631
 1718SOL    HW1 5289   2.375   3.039   3.649
 1718SOL    HW2 5290   2.525   3.059   3.637
 1719SOL     OW 5291   0.807   1.995   1.132
 1719SOL    HW1 5292   0.800   2.089   1.113
 1719SOL    HW2 5293   0.777   1.988   1.223
 1720SOL     OW 5294   1.572   0.448   1.281
 1720SOL    HW1 5295   1.577   0.367   1.331
 1720SOL    HW2 5296   1.516   0.427   1.206
 1721SOL     OW 5297   2.414   0.180   3.686
 1721SOL    HW1 5298   2.445   0.090   3.692
 1721SOL    HW2 5299   2.370   0.196   3.769
 1722SOL     OW 5300   2.403   1.784   3.238
 1722SOL    HW1 5301   2.331   1.803   3.179
 1722SOL    HW2 5302   2.421   1.691   3.223
 1723SOL     OW 5303   2.877   2.036   3.215
 1723SOL    HW1 5304   2.787   2.019   3.184
 1723SOL    HW2 5305   2.897   1.961   3.271
 1724SOL     OW 5306   0.307   1.264   3.795
 1724SOL    HW1 5307   0.315   1.353   3.761
 1724SOL    HW2 5308   0.236   1.225   3.744
 1725SOL     OW 5309   0.108   1.820   1.373
 1725SOL    HW1 5310   0.128   1.885   1.306
 1725SOL    HW2 5311   0.061   1.751   1.326
 1726SOL     OW 5312   0.818   3.522   0.874
 1726SOL    HW1 5313   0.883   3.497   0.940
 1726SOL    HW2 5314   0.745   3.461   0.889
 1727SOL     OW 5315   1.942   0.687   0.623
 1727SOL    HW1 5316   1.960   0.681   0.529
 1727SOL    HW2 5317   1.941   0.781   0.641
 1728SOL     OW 5318   0.399   2.437   0.849
 1728SOL    HW1 5319   0.334   2.487   0.799
 1728SOL    HW2 5320   0.414   2.359   0.795
 1729SOL     OW 5321   3.574   1.764   1.047
 1729SOL    HW1 5322   3.595   1.857   1.049
 1729SOL    HW2 5323   3.657   1.721   1.024
 1730SOL     OW 5324   2.417   0.909   2.686
 1730SOL    HW1 5325   2.445   0.979   2.745
 1730SOL    HW2 5326   2.357   0.952   2.625
 1731SOL     OW 5327   2.276   3.962   1.749
 1731SOL    HW1 5328   2.239   3.880   1.783
 1731SOL    HW2 5329   2.200   4.018   1.735
 1732SOL     OW 5330   1.057   2.220   3.031
 1732SOL    HW1 5331   0.985   2.245   3.089
 1732SOL    HW2 5332   1.128   2.196   3.090
 1733SOL     OW 5333   0.700   0.448   2.375
 1733SOL    HW1 5334   0.706   0.442   2.470
 1733SOL    HW2 5335   0.606   0.455   2.357
 1734SOL     OW 5336   1.257   2.162   2.214
 1734SOL    HW1 5337   1.212   2.197   2.291
 1734SOL    HW2 5338   1.288   2.076   2.241
 1735SOL     OW 5339   2.744   2.989   3.349
 1735SOL    HW1 5340   2.799   2.964   3.274
 1735SOL    HW2 5341   2.660   2.947   3.332
 1736SOL     OW 5342   0.442   0.251   2.335
 1736SOL    HW1 5343   0.350   0.238   2.309
 1736SOL    HW2 5344   0.491   0.241   2.253
 1737SOL     OW 5345   3.743   0.770   2.562
 1737SOL    HW1 5346   3.837   0.754   2.554
 1737SOL    HW2 5347   3.708   0.752   2.474
 1738SOL     OW 5348   0.157   0.728   0.698
 1738SOL    HW1 5349   0.139   0.671   0.773
 1738SOL    HW2 5350   0.130   0.676   0.622
 1739SOL     OW 5351   2.465   0.468   1.413
 1739SOL    HW1 5352   2.396   0.483   1.348
 1739SOL    HW2 5353   2.420   0.427   1.487
 1740SOL     OW 5354   3.467   2.054   3.184
 1740SOL    HW1 5355   3.392   2.013   3.228
 1740SOL    HW2 5356   3.428   2.119   3.126
 1741SOL     OW 5357   0.909   3.197   3.287
 1741SOL    HW1 5358   0.849   3.268   3.310
 1741SOL    HW2 5359   0.980   3.205   3.350
 1742SOL     OW 5360   3.282   1.892   2.461
 1742SOL    HW1 5361   3.351   1.903   2.395
 1742SOL    HW2 5362   3.261   1.982   2.489
 1743SOL     OW 5363   0.016   1.942   0.421
 1743SOL    HW1 5364  -0.017   1.927   0.510
 1743SOL    HW2 5365   0.043   1.855   0.391
 1744SOL     OW 5366   2.799   2.655   3.235
 1744SOL    HW1 5367   2.817   2.739   3.192
 1744SOL    HW2 5368   2.790   2.593   3.163
 1745SOL     OW 5369   0.171   0.236   1.500
 1745SOL    HW1 5370   0.181   0.227   1.405
 1745SOL    HW2 5371   0.077   0.234   1.515
 1746SOL     OW 5372   3.268   2.269   1.129
 1746SOL    HW1 5373   3.254   2.272   1.035
 1746SOL    HW2 5374   3.188   2.304   1.167
 1747SOL     OW 5375   0.428   1.950   2.521
 1747SOL    HW1 5376   0.430   1.858   2.545
 1747SOL    HW2 5377   0.484   1.956   2.443
 1748SOL     OW 5378   1.724   1.093   3.493
 1748SOL    HW1 5379   1.666   1.073   3.420
 1748SOL    HW2 5380   1.703   1.027   3.559
 1749SOL     OW 5381   1.547   3.163   1.918
 1749SOL    HW1 5382   1.478   3.101   1.938
 1749SOL    HW2 5383   1.502   3.243   1.892
 1750SOL     OW 5384   2.352   0.549   2.197
 1750SOL    HW1 5385   2.280   0.525   2.255
 1750SOL    HW2 5386   2.315   0.613   2.137
 1751SOL     OW 5387   0.828   3.413   2.863
 1751SOL    HW1 5388   0.798   3.482   2.803
 1751SOL    HW2 5389   0.912   3.385   2.827
 1752SOL     OW 5390   2.455   2.632   0.585
 1752SOL    HW1 5391   2.447   2.567   0.655
 1752SOL    HW2 5392   2.524   2.597   0.528
 1753SOL     OW 5393   0.643   3.563   1.865
 1753SOL    HW1 5394   0.713   3.612   1.908
 1753SOL    HW2 5395   0.562   3.604   1.896
 1754SOL     OW 5396   2.993   0.894   3.885
 1754SOL    HW1 5397   2.944   0.830   3.937
 1754SOL    HW2 5398   3.001   0.970   3.941
 1755SOL     OW 5399   2.385   3.565   1.974
 1755SOL    HW1 5400   2.441   3.579   1.897
 1755SOL    HW2 5401   2.446   3.563   2.048
 1756SOL     OW 5402   0.486   0.714   2.273
 1756SOL    HW1 5403   0.391   0.700   2.268
 1756SOL    HW2 5404   0.495   0.796   2.321
 1757SOL     OW 5405   3.934   2.434   1.171
 1757SOL    HW1 5406   3.926   2.528   1.157
 1757SOL    HW2 5407   4.003   2.426   1.237
 1758SOL     OW 5408   1.491   3.776   1.641
 1758SOL    HW1 5409   1.546   3.714   1.689
 1758SOL    HW2 5410   1.410   3.728   1.623
 1759SOL     OW 5411   1.264   1.328   3.246
 1759SOL    HW1 5412   1.285   1.294   3.333
 1759SOL    HW2 5413   1.221   1.411   3.262
 1760SOL     OW 5414   0.203   3.468   3.326
 1760SOL    HW1 5415   0.272   3.425   3.276
 1760SOL    HW2 5416   0.177   3.404   3.392
 1761SOL     OW 5417   2.010   0.143   3.726
 1761SOL    HW1 5418   1.989   0.057   3.762
 1761SOL    HW2 5419   2.054   0.124   3.643
 1762SOL     OW 5420   2.850   0.697   0.886
 1762SOL    HW1 5421   2.803   0.658   0.960
 1762SOL    HW2 5422   2.903   0.625   0.851
 1763SOL     OW 5423   3.171   2.438   2.434
 1763SOL    HW1 5424   3.120   2.518   2.446
 1763SOL    HW2 5425   3.262   2.468   2.431
 1764SOL     OW 5426   0.843   3.894   0.169
 1764SOL    HW1 5427   0.844   3.862   0.079
 1764SOL    HW2 5428   0.755   3.930   0.181
 1765SOL     OW 5429   0.955   0.201   2.984
 1765SOL    HW1 5430   0.955   0.293   2.959
 1765SOL    HW2 5431   0.930   0.201   3.077
 1766SOL     OW 5432   0.729   3.263   0.065
 1766SOL    HW1 5433   0.674   3.302  -0.004
 1766SOL    HW2 5434   0.819   3.276   0.034
 1767SOL     OW 5435   2.192   2.111   1.955
 1767SOL    HW1 5436   2.280   2.146   1.968
 1767SOL    HW2 5437   2.138   2.188   1.938
 1768SOL     OW 5438   3.771   0.269   2.329
 1768SOL    HW1 5439   3.764   0.208   2.255
 1768SOL    HW2 5440   3.737   0.220   2.403
 1769SOL     OW 5441   0.337   3.750   0.712
 1769SOL    HW1 5442   0.327   3.843   0.692
 1769SOL    HW2 5443   0.391   3.748   0.791
 1770SOL     OW 5444   0.438   2.299   1.750
 1770SOL    HW1 5445   0.471   2.285   1.839
 1770SOL    HW2 5446   0.346   2.272   1.755
 1771SOL     OW 5447   3.793   1.928   0.685
 1771SOL    HW1 5448   3.717   1.985   0.677
 1771SOL    HW2 5449   3.856   1.980   0.735
 1772SOL     OW 5450   1.403   1.514   0.253
 1772SOL    HW1 5451   1.379   1.432   0.296
 1772SOL    HW2 5452   1.337   1.577   0.281
 1773SOL     OW 5453   0.957   1.902   0.074
 1773SOL    HW1 5454   1.010   1.953   0.136
 1773SOL    HW2 5455   0.905   1.845   0.130
 1774SOL     OW 5456   2.815   1.302   1.886
 1774SOL    HW1 5457   2.847   1.328   1.972
 1774SOL    HW2 5458   2.893   1.300   1.831
 1775SOL     OW 5459   2.446   1.732   1.566
 1775SOL    HW1 5460   2.392   1.664   1.605
 1775SOL    HW2 5461   2.384   1.798   1.535
 1776SOL     OW 5462   3.743   1.194   3.882
 1776SOL    HW1 5463   3.752   1.217   3.789
 1776SOL    HW2 5464   3.784   1.109   3.890
 1777SOL     OW 5465   1.529   3.790   2.020
 1777SOL    HW1 5466   1.553   3.722   1.957
 1777SOL    HW2 5467   1.577   3.867   1.992
 1778SOL     OW 5468   2.650   0.886   3.052
 1778SOL    HW1 5469   2.713   0.852   3.116
 1778SOL    HW2 5470   2.579   0.821   3.051
 1779SOL     OW 5471   0.060   3.231   3.169
 1779SOL    HW1 5472   0.078   3.219   3.076
 1779SOL    HW2 5473   0.028   3.321   3.176
 1780SOL     OW 5474   1.726   2.797   1.058
 1780SOL    HW1 5475   1.802   2.777   1.112
 1780SOL    HW2 5476   1.762   2.829   0.975
 1781SOL     OW 5477   3.842   3.538   3.638
 1781SOL    HW1 5478   3.884   3.521   3.723
 1781SOL    HW2 5479   3.847   3.454   3.592
 1782SOL     OW 5480   0.089   2.147   2.961
 1782SOL    HW1 5481   0.173   2.172   2.922
 1782SOL    HW2 5482   0.048   2.092   2.894
 1783SOL     OW 5483   1.648   2.366   1.245
 1783SOL    HW1 5484   1.693   2.440   1.286
 1783SOL    HW2 5485   1.574   2.406   1.199
 1784SOL     OW 5486   0.392   0.973   3.499
 1784SOL    HW1 5487   0.398   0.986   3.405
 1784SOL    HW2 5488   0.300   0.989   3.520
 1785SOL     OW 5489   3.579   1.869   2.061
 1785SOL    HW1 5490   3.530   1.873   1.978
 1785SOL    HW2 5491   3.601   1.777   2.071
 1786SOL     OW 5492   3.737   2.590   3.359
 1786SOL    HW1 5493   3.646   2.607   3.336
 1786SOL    HW2 5494   3.773   2.544   3.283
 1787SOL     OW 5495   3.664   2.588   0.315
 1787SOL    HW1 5496   3.672   2.580   0.220
 1787SOL    HW2 5497   3.737   2.537   0.349
 1788SOL     OW 5498   1.479   2.763   2.707
 1788SOL    HW1 5499   1.529   2.809   2.639
 1788SOL    HW2 5500   1.546   2.730   2.767
 1789SOL     OW 5501   3.735   1.317   0.972
 1789SOL    HW1 5502   3.731   1.285   1.062
 1789SOL    HW2 5503   3.649   1.297   0.936
 1790SOL     OW 5504   2.162   1.045   2.799
 1790SOL    HW1 5505   2.217   1.100   2.853
 1790SOL    HW2 5506   2.177   0.956   2.832
 1791SOL     OW 5507   0.062   2.736   3.088
 1791SOL    HW1 5508   0.097   2.751   3.000
 1791SOL    HW2 5509   0.131   2.687   3.132
 1792SOL     OW 5510   0.071   1.336   2.281
 1792SOL    HW1 5511  -0.024   1.324   2.273
 1792SOL    HW2 5512   0.106   1.310   2.196
 1793SOL     OW 5513   3.790   3.228   2.372
 1793SOL    HW1 5514   3.709   3.273   2.349
 1793SOL    HW2 5515   3.776   3.137   2.346
 1794SOL     OW 5516   2.010   1.661   3.869
 1794SOL    HW1 5517   2.030   1.629   3.781
 1794SOL    HW2 5518   1.960   1.741   3.855
 1795SOL     OW 5519   1.265   1.268   0.313
 1795SOL    HW1 5520   1.202   1.249   0.383
 1795SOL    HW2 5521   1.309   1.185   0.297
 1796SOL     OW 5522   2.775   1.520   2.087
 1796SOL    HW1 5523   2.687   1.500   2.119
 1796SOL    HW2 5524   2.761   1.582   2.015
 1797SOL     OW 5525   0.826   2.273   3.199
 1797SOL    HW1 5526   0.799   2.363   3.214
 1797SOL    HW2 5527   0.747   2.221   3.211
 1798SOL     OW 5528   0.132   2.174   1.704
 1798SOL    HW1 5529   0.040   2.170   1.727
 1798SOL    HW2 5530   0.144   2.102   1.642
 1799SOL     OW 5531   2.995   1.893   0.045
 1799SOL    HW1 5532   2.939   1.965   0.072
 1799SOL    HW2 5533   2.978   1.824   0.109
 1800SOL     OW 5534   1.188   0.056   3.809
 1800SOL    HW1 5535   1.198   0.126   3.875
 1800SOL    HW2 5536   1.194  -0.025   3.860
 1801SOL     OW 5537   1.679   0.203   3.618
 1801SOL    HW1 5538   1.625   0.124   3.612
 1801SOL    HW2 5539   1.760   0.175   3.658
 1802SOL     OW 5540   3.386   2.104   0.777
 1802SOL    HW1 5541   3.471   2.117   0.819
 1802SOL    HW2 5542   3.331   2.175   0.810
 1803SOL     OW 5543   3.266   2.282   1.739
 1803SOL    HW1 5544   3.258   2.192   1.707
 1803SOL    HW2 5545   3.227   2.336   1.671
 1804SOL     OW 5546   3.096   3.501   3.575
 1804SOL    HW1 5547   3.125   3.535   3.490
 1804SOL    HW2 5548   3.059   3.576   3.620
 1805SOL     OW 5549   0.242   2.543   1.660
 1805SOL    HW1 5550   0.260   2.586   1.577
 1805SOL    HW2 5551   0.326   2.546   1.707
 1806SOL     OW 5552   3.381   2.677   1.279
 1806SOL    HW1 5553   3.442   2.711   1.344
 1806SOL    HW2 5554   3.431   2.612   1.230
 1807SOL     OW 5555   1.832   0.423   3.491
 1807SOL    HW1 5556   1.793   0.342   3.523
 1807SOL    HW2 5557   1.811   0.489   3.557
 1808SOL     OW 5558   2.751   2.526   2.040
 1808SOL    HW1 5559   2.756   2.506   2.134
 1808SOL    HW2 5560   2.657   2.534   2.022
 1809SOL     OW 5561   3.124   2.757   1.275
 1809SOL    HW1 5562   3.208   2.711   1.265
 1809SOL    HW2 5563   3.118   2.775   1.369
 1810SOL     OW 5564   3.605   1.985   2.927
 1810SOL    HW1 5565   3.573   1.994   3.017
 1810SOL    HW2 5566   3.614   2.074   2.895
 1811SOL     OW 5567   2.711   0.913   0.269
 1811SOL    HW1 5568   2.686   1.005   0.257
 1811SOL    HW2 5569   2.630   0.868   0.290
 1812SOL     OW 5570   0.720   1.093   0.444
 1812SOL    HW1 5571   0.698   1.088   0.538
 1812SOL    HW2 5572   0.660   1.159   0.409
 1813SOL     OW 5573   0.555   0.759   1.670
 1813SOL    HW1 5574   0.588   0.763   1.580
 1813SOL    HW2 5575   0.608   0.692   1.712
 1814SOL     OW 5576   1.804   0.592   1.517
 1814SOL    HW1 5577   1.754   0.653   1.463
 1814SOL    HW2 5578   1.860   0.648   1.571
 1815SOL     OW 5579   2.712   2.937   2.863
 1815SOL    HW1 5580   2.743   3.007   2.921
 1815SOL    HW2 5581   2.733   2.856   2.909
 1816SOL     OW 5582   2.906   3.721   3.623
 1816SOL    HW1 5583   2.827   3.669   3.640
 1816SOL    HW2 5584   2.873   3.802   3.584
 1817SOL     OW 5585   2.132   3.570   2.744
 1817SOL    HW1 5586   2.182   3.491   2.762
 1817SOL    HW2 5587   2.043   3.540   2.730
 1818SOL     OW 5588   3.941   1.509   1.907
 1818SOL    HW1 5589   3.906   1.549   1.986
 1818SOL    HW2 5590   4.028   1.548   1.896
 1819SOL     OW 5591   3.155   3.354   1.824
 1819SOL    HW1 5592   3.062   3.371   1.809
 1819SOL    HW2 5593   3.157   3.271   1.871
 1820SOL     OW 5594   1.616   3.311   3.825
 1820SOL    HW1 5595   1.551   3.252   3.786
 1820SOL    HW2 5596   1.686   3.253   3.855
 1821SOL     OW 5597   3.490   1.488   0.726
 1821SOL    HW1 5598   3.582   1.475   0.704
 1821SOL    HW2 5599   3.444   1.485   0.642
 1822SOL     OW 5600   1.241   0.914   0.835
 1822SOL    HW1 5601   1.290   0.970   0.895
 1822SOL    HW2 5602   1.166   0.884   0.887
 1823SOL     OW 5603   3.342   1.877   3.503
 1823SOL    HW1 5604   3.317   1.924   3.424
 1823SOL    HW2 5605   3.339   1.942   3.573
 1824SOL     OW 5606   0.760   1.833   3.070
 1824SOL    HW1 5607   0.701   1.774   3.117
 1824SOL    HW2 5608   0.795   1.891   3.137
 1825SOL     OW 5609   0.356   2.494   2.631
 1825SOL    HW1 5610   0.315   2.562   2.578
 1825SOL    HW2 5611   0.362   2.418   2.572
 1826SOL     OW 5612   0.002   1.026   3.705
 1826SOL    HW1 5613   0.070   0.988   3.761
 1826SOL    HW2 5614  -0.015   0.960   3.638
 1827SOL     OW 5615   0.489   1.458   3.010
 1827SOL    HW1 5616   0.407   1.421   2.975
 1827SOL    HW2 5617   0.480   1.450   3.105
 1828SOL     OW 5618   1.875   1.576   1.641
 1828SOL    HW1 5619   1.822   1.654   1.628
 1828SOL    HW2 5620   1.957   1.609   1.678
 1829SOL     OW 5621   2.847   2.145   2.124
 1829SOL    HW1 5622   2.839   2.055   2.156
 1829SOL    HW2 5623   2.925   2.179   2.167
 1830SOL     OW 5624   1.681   2.522   3.428
 1830SOL    HW1 5625   1.714   2.465   3.359
 1830SOL    HW2 5626   1.618   2.467   3.476
 1831SOL     OW 5627   0.720   0.109   1.008
 1831SOL    HW1 5628   0.724   0.050   0.933
 1831SOL    HW2 5629   0.635   0.090   1.049
 1832SOL     OW 5630   2.499   2.225   0.236
 1832SOL    HW1 5631   2.455   2.142   0.250
 1832SOL    HW2 5632   2.469   2.254   0.149
 1833SOL     OW 5633   0.918   3.238   2.217
 1833SOL    HW1 5634   0.882   3.303   2.277
 1833SOL    HW2 5635   0.984   3.287   2.167
 1834SOL     OW 5636   2.087   2.459   3.165
 1834SOL    HW1 5637   2.176   2.494   3.178
 1834SOL    HW2 5638   2.040   2.530   3.120
 1835SOL     OW 5639   3.650   1.108   2.776
 1835SOL    HW1 5640   3.612   1.160   2.847
 1835SOL    HW2 5641   3.737   1.146   2.762
 1836SOL     OW 5642   3.058   2.951   3.219
 1836SOL    HW1 5643   3.118   2.878   3.235
 1836SOL    HW2 5644   3.091   2.994   3.140
 1837SOL     OW 5645   1.991   3.833   1.403
 1837SOL    HW1 5646   2.068   3.776   1.399
 1837SOL    HW2 5647   1.989   3.876   1.317
 1838SOL     OW 5648   1.172   1.333   2.507
 1838SOL    HW1 5649   1.077   1.348   2.510
 1838SOL    HW2 5650   1.210   1.420   2.496
 1839SOL     OW 5651   3.780   2.066   0.090
 1839SOL    HW1 5652   3.694   2.036   0.119
 1839SOL    HW2 5653   3.815   1.992   0.040
 1840SOL     OW 5654   1.265   0.199   3.198
 1840SOL    HW1 5655   1.217   0.197   3.281
 1840SOL    HW2 5656   1.357   0.199   3.223
 1841SOL     OW 5657   0.961   1.047   2.711
 1841SOL    HW1 5658   1.005   0.995   2.778
 1841SOL    HW2 5659   0.956   1.135   2.747
 1842SOL     OW 5660   2.327   2.343   0.403
 1842SOL    HW1 5661   2.258   2.277   0.399
 1842SOL    HW2 5662   2.392   2.314   0.340
 1843SOL     OW 5663   1.514   0.548   3.809
 1843SOL    HW1 5664   1.476   0.632   3.835
 1843SOL    HW2 5665   1.467   0.525   3.729
 1844SOL     OW 5666   1.428   2.804   2.249
 1844SOL    HW1 5667   1.362   2.858   2.291
 1844SOL    HW2 5668   1.388   2.718   2.240
 1845SOL     OW 5669   0.511   3.896   3.499
 1845SOL    HW1 5670   0.486   3.951   3.425
 1845SOL    HW2 5671   0.606   3.910   3.508
 1846SOL     OW 5672   0.631   2.045   2.727
 1846SOL    HW1 5673   0.604   1.968   2.676
 1846SOL    HW2 5674   0.725   2.032   2.742
 1847SOL     OW 5675   1.118   2.343   1.890
 1847SOL    HW1 5676   1.103   2.261   1.936
 1847SOL    HW2 5677   1.143   2.316   1.801
 1848SOL     OW 5678   1.513   1.879   3.940
 1848SOL    HW1 5679   1.423   1.911   3.925
 1848SOL    HW2 5680   1.503   1.785   3.954
 1849SOL     OW 5681   0.678   2.338   1.608
 1849SOL    HW1 5682   0.597   2.351   1.657
 1849SOL    HW2 5683   0.711   2.426   1.593
 1850SOL     OW 5684   1.435   3.461   0.038
 1850SOL    HW1 5685   1.377   3.398   0.082
 1850SOL    HW2 5686   1.492   3.407  -0.017
 1851SOL     OW 5687   0.437   3.219   2.920
 1851SOL    HW1 5688   0.520   3.176   2.945
 1851SOL    HW2 5689   0.414   3.273   2.995
 1852SOL     OW 5690   2.661   3.578   3.789
 1852SOL    HW1 5691   2.567   3.589   3.798
 1852SOL    HW2 5692   2.699   3.634   3.857
 1853SOL     OW 5693   1.680   1.025   0.602
 1853SOL    HW1 5694   1.638   1.109   0.588
 1853SOL    HW2 5695   1.608   0.962   0.609
 1854SOL     OW 5696   1.135   2.847   2.021
 1854SOL    HW1 5697   1.113   2.760   1.987
 1854SOL    HW2 5698   1.067   2.866   2.086
 1855SOL     OW 5699   2.100   2.673   2.658
 1855SOL    HW1 5700   2.046   2.750   2.640
 1855SOL    HW2 5701   2.070   2.608   2.595
 1856SOL     OW 5702   0.646   2.896   3.429
 1856SOL    HW1 5703   0.597   2.918   3.508
 1856SOL    HW2 5704   0.592   2.830   3.386
 1857SOL     OW 5705   0.871   2.067   0.819
 1857SOL    HW1 5706   0.785   2.058   0.859
 1857SOL    HW2 5707   0.854   2.067   0.725
 1858SOL     OW 5708   0.889   1.122   0.159
 1858SOL    HW1 5709   0.916   1.112   0.251
 1858SOL    HW2 5710   0.844   1.206   0.156
 1859SOL     OW 5711   3.537   2.850   1.089
 1859SOL    HW1 5712   3.507   2.778   1.144
 1859SOL    HW2 5713   3.457   2.896   1.063
 1860SOL     OW 5714   1.332   0.879   2.665
 1860SOL    HW1 5715   1.367   0.897   2.578
 1860SOL    HW2 5716   1.303   0.964   2.698
 1861SOL     OW 5717   0.715   3.431   0.618
 1861SOL    HW1 5718   0.737   3.486   0.693
 1861SOL    HW2 5719   0.620   3.420   0.625
 1862SOL     OW 5720   0.224   1.279   1.443
 1862SOL    HW1 5721   0.283   1.315   1.509
 1862SOL    HW2 5722   0.262   1.307   1.360
 1863SOL     OW 5723   3.696   2.350   1.495
 1863SOL    HW1 5724   3.744   2.292   1.436
 1863SOL    HW2 5725   3.764   2.399   1.541
 1864SOL     OW 5726   1.901   2.124   2.187
 1864SOL    HW1 5727   1.928   2.035   2.210
 1864SOL    HW2 5728   1.838   2.113   2.116
 1865SOL     OW 5729   2.459   3.448   1.037
 1865SOL    HW1 5730   2.519   3.469   0.965
 1865SOL    HW2 5731   2.455   3.529   1.089
 1866SOL     OW 5732   3.030   1.423   0.253
 1866SOL    HW1 5733   2.995   1.384   0.173
 1866SOL    HW2 5734   2.974   1.390   0.322
 1867SOL     OW 5735   2.923   3.554   2.024
 1867SOL    HW1 5736   2.987   3.613   1.983
 1867SOL    HW2 5737   2.976   3.497   2.080
 1868SOL     OW 5738   0.925   2.976   2.210
 1868SOL    HW1 5739   0.931   3.071   2.203
 1868SOL    HW2 5740   0.835   2.955   2.186
 1869SOL     OW 5741   1.757   3.014   1.740
 1869SOL    HW1 5742   1.824   2.966   1.788
 1869SOL    HW2 5743   1.706   3.059   1.808
 1870SOL     OW 5744   1.347   0.151   1.259
 1870SOL    HW1 5745   1.305   0.210   1.321
 1870SOL    HW2 5746   1.441   0.168   1.269
 1871SOL     OW 5747   3.361   3.881   2.395
 1871SOL    HW1 5748   3.409   3.838   2.325
 1871SOL    HW2 5749   3.429   3.908   2.457
 1872SOL     OW 5750   1.927   2.637   0.146
 1872SOL    HW1 5751   1.941   2.600   0.059
 1872SOL    HW2 5752   2.013   2.671   0.172
 1873SOL     OW 5753   1.994   1.105   0.297
 1873SOL    HW1 5754   2.083   1.133   0.276
 1873SOL    HW2 5755   1.950   1.185   0.326
 1874SOL     OW 5756   3.350   2.050   3.696
 1874SOL    HW1 5757   3.402   2.109   3.750
 1874SOL    HW2 5758   3.259   2.074   3.713
 1875SOL     OW 5759   1.628   0.515   3.019
 1875SOL    HW1 5760   1.612   0.606   2.997
 1875SOL    HW2 5761   1.630   0.513   3.114
 1876SOL     OW 5762   0.044   0.500   1.743
 1876SOL    HW1 5763   0.111   0.497   1.674
 1876SOL    HW2 5764  -0.037   0.478   1.698
 1877SOL     OW 5765   0.387   1.352   1.665
 1877SOL    HW1 5766   0.385   1.263   1.699
 1877SOL    HW2 5767   0.432   1.403   1.732
 1878SOL     OW 5768   0.729   2.530   1.985
 1878SOL    HW1 5769   0.673   2.540   1.907
 1878SOL    HW2 5770   0.695   2.594   2.047
 1879SOL     OW 5771   0.722   2.289   2.560
 1879SOL    HW1 5772   0.686   2.283   2.471
 1879SOL    HW2 5773   0.668   2.228   2.611
 1880SOL     OW 5774   1.173   0.173   0.415
 1880SOL    HW1 5775   1.082   0.142   0.409
 1880SOL    HW2 5776   1.176   0.220   0.499
 1881SOL     OW 5777   1.586   0.878   1.974
 1881SOL    HW1 5778   1.606   0.970   1.958
 1881SOL    HW2 5779   1.494   0.879   2.001
 1882SOL     OW 5780   1.151   0.703   2.783
 1882SOL    HW1 5781   1.221   0.699   2.848
 1882SOL    HW2 5782   1.186   0.759   2.714
 1883SOL     OW 5783   3.662   1.458   3.596
 1883SOL    HW1 5784   3.701   1.371   3.600
 1883SOL    HW2 5785   3.587   1.448   3.537
 1884SOL     OW 5786   2.774   2.186   3.706
 1884SOL    HW1 5787   2.745   2.095   3.700
 1884SOL    HW2 5788   2.775   2.204   3.800
 1885SOL     OW 5789   0.399   1.685   1.498
 1885SOL    HW1 5790   0.324   1.646   1.542
 1885SOL    HW2 5791   0.469   1.621   1.510
 1886SOL     OW 5792   2.040   1.414   1.359
 1886SOL    HW1 5793   1.995   1.499   1.364
 1886SOL    HW2 5794   1.993   1.359   1.422
 1887SOL     OW 5795   1.406   3.865   2.660
 1887SOL    HW1 5796   1.404   3.955   2.693
 1887SOL    HW2 5797   1.405   3.810   2.739
 1888SOL     OW 5798   1.007   1.329   3.807
 1888SOL    HW1 5799   1.080   1.301   3.862
 1888SOL    HW2 5800   1.045   1.341   3.720
 1889SOL     OW 5801   1.351   1.941   3.460
 1889SOL    HW1 5802   1.331   1.955   3.368
 1889SOL    HW2 5803   1.439   1.903   3.460
 1890SOL     OW 5804   3.662   1.214   3.246
 1890SOL    HW1 5805   3.636   1.284   3.305
 1890SOL    HW2 5806   3.634   1.244   3.159
 1891SOL     OW 5807   1.541   0.221   3.312
 1891SOL    HW1 5808   1.546   0.317   3.315
 1891SOL    HW2 5809   1.620   0.194   3.266
 1892SOL     OW 5810   2.804   0.776   2.830
 1892SOL    HW1 5811   2.760   0.818   2.756
 1892SOL    HW2 5812   2.806   0.843   2.898
 1893SOL     OW 5813   2.263   3.742   1.432
 1893SOL    HW1 5814   2.336   3.760   1.490
 1893SOL    HW2 5815   2.276   3.800   1.357
 1894SOL     OW 5816   1.063   2.395   2.817
 1894SOL    HW1 5817   1.071   2.319   2.875
 1894SOL    HW2 5818   1.055   2.469   2.877
 1895SOL     OW 5819   2.094   3.298   1.209
 1895SOL    HW1 5820   2.044   3.378   1.195
 1895SOL    HW2 5821   2.028   3.228   1.210
 1896SOL     OW 5822   1.357   3.741   2.913
 1896SOL    HW1 5823   1.408   3.692   2.977
 1896SOL    HW2 5824   1.304   3.674   2.868
 1897SOL     OW 5825   3.952   3.907   2.388
 1897SOL    HW1 5826   3.877   3.921   2.330
 1897SOL    HW2 5827   3.954   3.985   2.444
 1898SOL     OW 5828   3.494   0.779   0.994
 1898SOL    HW1 5829   3.494   0.753   0.902
 1898SOL    HW2 5830   3.512   0.873   0.992
 1899SOL     OW 5831   2.059   3.823   2.606
 1899SOL    HW1 5832   1.975   3.836   2.650
 1899SOL    HW2 5833   2.104   3.757   2.660
 1900SOL     OW 5834   3.926   3.384   2.690
 1900SOL    HW1 5835   3.867   3.404   2.617
 1900SOL    HW2 5836   3.930   3.464   2.741
 1901SOL     OW 5837   2.321   3.101   0.095
 1901SOL    HW1 5838   2.265   3.054   0.034
 1901SOL    HW2 5839   2.408   3.063   0.082
 1902SOL     OW 5840   1.256   3.253   2.139
 1902SOL    HW1 5841   1.259   3.332   2.193
 1902SOL    HW2 5842   1.273   3.182   2.200
 1903SOL     OW 5843   2.250   2.232   2.901
 1903SOL    HW1 5844   2.313   2.165   2.875
 1903SOL    HW2 5845   2.289   2.314   2.872
 1904SOL     OW 5846   0.276   0.384   1.001
 1904SOL    HW1 5847   0.195   0.421   0.966
 1904SOL    HW2 5848   0.340   0.395   0.931
 1905SOL     OW 5849   2.642   1.394   3.478
 1905SOL    HW1 5850   2.736   1.404   3.488
 1905SOL    HW2 5851   2.605   1.471   3.522
 1906SOL     OW 5852   1.128   0.200   0.739
 1906SOL    HW1 5853   1.101   0.287   0.769
 1906SOL    HW2 5854   1.094   0.140   0.805
 1907SOL     OW 5855   1.169   1.237   0.921
 1907SOL    HW1 5856   1.096   1.195   0.968
 1907SOL    HW2 5857   1.182   1.320   0.967
 1908SOL     OW 5858   1.701   0.910   1.143
 1908SOL    HW1 5859   1.685   0.859   1.222
 1908SOL    HW2 5860   1.679   0.851   1.071
 1909SOL     OW 5861   1.975   1.688   2.536
 1909SOL    HW1 5862   1.976   1.684   2.631
 1909SOL    HW2 5863   1.992   1.780   2.515
 1910SOL     OW 5864   0.181   3.780   2.200
 1910SOL    HW1 5865   0.124   3.828   2.260
 1910SOL    HW2 5866   0.265   3.777   2.245
 1911SOL     OW 5867   1.815   3.815   1.871
 1911SOL    HW1 5868   1.846   3.760   1.799
 1911SOL    HW2 5869   1.796   3.900   1.831
 1912SOL     OW 5870   1.515   3.097   1.632
 1912SOL    HW1 5871   1.603   3.064   1.644
 1912SOL    HW2 5872   1.461   3.047   1.693
 1913SOL     OW 5873   2.355   2.749   0.184
 1913SOL    HW1 5874   2.410   2.816   0.224
 1913SOL    HW2 5875   2.413   2.704   0.122
 1914SOL     OW 5876   0.842   2.025   3.570
 1914SOL    HW1 5877   0.747   2.036   3.570
 1914SOL    HW2 5878   0.875   2.098   3.621
 1915SOL     OW 5879   2.841   1.874   1.673
 1915SOL    HW1 5880   2.867   1.944   1.733
 1915SOL    HW2 5881   2.922   1.828   1.653
 1916SOL     OW 5882   0.426   3.189   0.212
 1916SOL    HW1 5883   0.435   3.276   0.250
 1916SOL    HW2 5884   0.506   3.177   0.161
 1917SOL     OW 5885   1.371   0.400   0.089
 1917SOL    HW1 5886   1.413   0.381   0.005
 1917SOL    HW2 5887   1.344   0.491   0.083
 1918NA      NA 5888   2.640   1.852   1.565
 1919NA      NA 5889   2.688   0.044   0.014
   3.96100   3.96100   3.96100   0.00000   0.00000   0.00000   0.00000   0.00000   0.00000
