Generated with MDTraj, t= 24650.0
 5889
    1TYR      N    1   0.485   2.667   1.586
    1TYR     H1    2   0.439   2.602   1.520
    1TYR     H2    3   0.560   2.722   1.540
    1TYR     H3    4   0.538   2.603   1.649
    1TYR     CA    5   0.398   2.746   1.660
    1TYR     HA    6   0.382   2.834   1.601
    1TYR     CB    7   0.268   2.681   1.695
    1TYR    HB1    8   0.271   2.575   1.729
    1TYR    HB2    9   0.230   2.742   1.780
    1TYR     CG   10   0.172   2.679   1.582
    1TYR    CD1   11   0.101   2.787   1.543
    1TYR    HD1   12   0.123   2.885   1.582
    1TYR    CE1   13   0.013   2.784   1.434
    1TYR    HE1   14  -0.024   2.878   1.397
    1TYR     CZ   15  -0.031   2.662   1.380
    1TYR     OH   16  -0.120   2.671   1.271
    1TYR     HH   17  -0.139   2.765   1.260
    1TYR    CD2   18   0.127   2.552   1.530
    1TYR    HD2   19   0.179   2.461   1.553
    1TYR    CE2   20   0.031   2.548   1.420
    1TYR    HE2   21   0.014   2.448   1.383
    1TYR      C   22   0.474   2.812   1.777
    1TYR      O   23   0.562   2.758   1.848
    2TYR      N   24   0.451   2.943   1.794
    2TYR     HN   25   0.377   2.987   1.743
    2TYR     CA   26   0.515   3.017   1.898
    2TYR     HA   27   0.576   2.956   1.963
    2TYR     CB   28   0.618   3.115   1.831
    2TYR    HB1   29   0.562   3.182   1.762
    2TYR    HB2   30   0.655   3.176   1.916
    2TYR     CG   31   0.745   3.063   1.788
    2TYR    CD1   32   0.769   3.072   1.650
    2TYR    HD1   33   0.702   3.127   1.585
    2TYR    CE1   34   0.888   3.015   1.602
    2TYR    HE1   35   0.921   3.024   1.500
    2TYR     CZ   36   0.960   2.925   1.682
    2TYR     OH   37   1.073   2.861   1.635
    2TYR     HH   38   1.112   2.802   1.700
    2TYR    CD2   39   0.830   2.980   1.871
    2TYR    HD2   40   0.801   2.958   1.973
    2TYR    CE2   41   0.936   2.913   1.814
    2TYR    HE2   42   0.995   2.852   1.881
    2TYR      C   43   0.422   3.100   1.985
    2TYR      O   44   0.463   3.166   2.078
    3ASP      N   45   0.292   3.102   1.953
    3ASP     HN   46   0.252   3.060   1.872
    3ASP     CA   47   0.204   3.175   2.045
    3ASP     HA   48   0.260   3.250   2.099
    3ASP     CB   49   0.092   3.245   1.967
    3ASP    HB1   50   0.042   3.164   1.909
    3ASP    HB2   51   0.028   3.297   2.041
    3ASP     CG   52   0.148   3.346   1.882
    3ASP    OD1   53   0.176   3.459   1.925
    3ASP    OD2   54   0.158   3.321   1.760
    3ASP      C   55   0.140   3.090   2.153
    3ASP      O   56   0.124   2.971   2.128
    4PRO      N   57   0.085   3.150   2.270
    4PRO     CD   58   0.149   3.272   2.318
    4PRO    HD1   59   0.129   3.354   2.245
    4PRO    HD2   60   0.259   3.257   2.327
    4PRO     CA   61   0.038   3.060   2.377
    4PRO     HA   62   0.099   2.972   2.389
    4PRO     CB   63   0.061   3.146   2.500
    4PRO    HB1   64  -0.017   3.133   2.578
    4PRO    HB2   65   0.158   3.116   2.546
    4PRO     CG   66   0.074   3.292   2.446
    4PRO    HG1   67  -0.030   3.328   2.428
    4PRO    HG2   68   0.117   3.363   2.520
    4PRO      C   69  -0.106   3.029   2.350
    4PRO      O   70  -0.151   2.926   2.396
    5GLU      N   71  -0.176   3.115   2.279
    5GLU     HN   72  -0.127   3.195   2.245
    5GLU     CA   73  -0.314   3.109   2.240
    5GLU     HA   74  -0.367   3.088   2.331
    5GLU     CB   75  -0.354   3.241   2.179
    5GLU    HB1   76  -0.459   3.241   2.143
    5GLU    HB2   77  -0.342   3.319   2.257
    5GLU     CG   78  -0.269   3.275   2.053
    5GLU    HG1   79  -0.162   3.277   2.086
    5GLU    HG2   80  -0.277   3.200   1.972
    5GLU     CD   81  -0.314   3.406   2.004
    5GLU    OE1   82  -0.251   3.513   2.007
    5GLU    OE2   83  -0.423   3.406   1.945
    5GLU      C   84  -0.347   2.993   2.152
    5GLU      O   85  -0.462   2.973   2.115
    6THR      N   86  -0.250   2.915   2.104
    6THR     HN   87  -0.156   2.929   2.134
    6THR     CA   88  -0.264   2.795   2.023
    6THR     HA   89  -0.354   2.794   1.965
    6THR     CB   90  -0.144   2.767   1.940
    6THR     HB   91  -0.143   2.667   1.891
    6THR    OG1   92  -0.021   2.771   2.016
    6THR    HG1   93   0.014   2.860   2.005
    6THR    CG2   94  -0.144   2.873   1.837
    6THR   HG21   95  -0.245   2.903   1.801
    6THR   HG22   96  -0.083   2.960   1.871
    6THR   HG23   97  -0.079   2.828   1.760
    6THR      C   98  -0.269   2.675   2.124
    6THR      O   99  -0.333   2.575   2.099
    7GLY      N  100  -0.205   2.686   2.247
    7GLY     HN  101  -0.183   2.779   2.272
    7GLY     CA  102  -0.197   2.587   2.350
    7GLY    HA1  103  -0.217   2.636   2.443
    7GLY    HA2  104  -0.274   2.512   2.337
    7GLY      C  105  -0.056   2.527   2.353
    7GLY      O  106  -0.023   2.444   2.430
    8THR      N  107   0.032   2.576   2.264
    8THR     HN  108  -0.003   2.631   2.189
    8THR     CA  109   0.180   2.532   2.253
    8THR     HA  110   0.177   2.424   2.247
    8THR     CB  111   0.247   2.587   2.133
    8THR     HB  112   0.262   2.696   2.145
    8THR    OG1  113   0.163   2.565   2.024
    8THR    HG1  114   0.094   2.630   2.036
    8THR    CG2  115   0.373   2.513   2.108
    8THR   HG21  116   0.357   2.403   2.098
    8THR   HG22  117   0.406   2.529   2.003
    8THR   HG23  118   0.449   2.547   2.182
    8THR      C  119   0.265   2.582   2.364
    8THR      O  120   0.296   2.696   2.388
    9TRP      N  121   0.306   2.479   2.442
    9TRP     HN  122   0.278   2.385   2.427
    9TRP     CA  123   0.396   2.498   2.557
    9TRP     HA  124   0.395   2.604   2.581
    9TRP     CB  125   0.348   2.428   2.688
    9TRP    HB1  126   0.360   2.322   2.660
    9TRP    HB2  127   0.423   2.460   2.763
    9TRP     CG  128   0.211   2.469   2.737
    9TRP    CD1  129   0.142   2.583   2.702
    9TRP    HD1  130   0.176   2.643   2.619
    9TRP    NE1  131   0.012   2.578   2.749
    9TRP    HE1  132  -0.061   2.642   2.735
    9TRP    CE2  133   0.001   2.461   2.816
    9TRP    CD2  134   0.121   2.390   2.819
    9TRP    CE3  135   0.137   2.268   2.889
    9TRP    HE3  136   0.229   2.212   2.894
    9TRP    CZ3  137   0.019   2.214   2.944
    9TRP    HZ3  138   0.022   2.114   2.986
    9TRP    CZ2  139  -0.112   2.407   2.886
    9TRP    HZ2  140  -0.207   2.458   2.887
    9TRP    CH2  141  -0.101   2.278   2.941
    9TRP    HH2  142  -0.190   2.237   2.988
    9TRP      C  143   0.547   2.477   2.524
    9TRP      O  144   0.581   2.366   2.478
   10TYR      N  145   0.639   2.569   2.562
   10TYR     HN  146   0.605   2.650   2.610
   10TYR     CA  147   0.783   2.570   2.562
   10TYR     HA  148   0.814   2.480   2.512
   10TYR     CB  149   0.842   2.693   2.483
   10TYR    HB1  150   0.798   2.793   2.505
   10TYR    HB2  151   0.952   2.687   2.498
   10TYR     CG  152   0.811   2.673   2.340
   10TYR    CD1  153   0.699   2.719   2.282
   10TYR    HD1  154   0.630   2.774   2.345
   10TYR    CE1  155   0.680   2.704   2.140
   10TYR    HE1  156   0.596   2.749   2.089
   10TYR     CZ  157   0.775   2.631   2.067
   10TYR     OH  158   0.754   2.601   1.932
   10TYR     HH  159   0.682   2.661   1.908
   10TYR    CD2  160   0.911   2.611   2.264
   10TYR    HD2  161   0.992   2.563   2.316
   10TYR    CE2  162   0.887   2.585   2.135
   10TYR    HE2  163   0.969   2.536   2.084
   10TYR      C  164   0.832   2.559   2.712
   10TYR    OT1  165   0.841   2.444   2.763
   10TYR    OT2  166   0.879   2.657   2.769
   11SOL     OW  167   3.907   1.691   1.836
   11SOL    HW1  168   3.821   1.726   1.859
   11SOL    HW2  169   3.892   1.597   1.825
   12SOL     OW  170   1.263   1.440   3.708
   12SOL    HW1  171   1.190   1.390   3.670
   12SOL    HW2  172   1.277   1.512   3.647
   13SOL     OW  173   2.673   1.930   0.406
   13SOL    HW1  174   2.609   1.914   0.337
   13SOL    HW2  175   2.639   1.883   0.482
   14SOL     OW  176   3.363   1.840   1.098
   14SOL    HW1  177   3.396   1.924   1.130
   14SOL    HW2  178   3.315   1.803   1.173
   15SOL     OW  179   1.049   1.389   2.454
   15SOL    HW1  180   1.122   1.370   2.514
   15SOL    HW2  181   1.037   1.483   2.459
   16SOL     OW  182   1.750   3.733   1.507
   16SOL    HW1  183   1.816   3.701   1.445
   16SOL    HW2  184   1.787   3.813   1.542
   17SOL     OW  185   0.917   3.707   3.168
   17SOL    HW1  186   0.989   3.754   3.126
   17SOL    HW2  187   0.887   3.645   3.101
   18SOL     OW  188   3.246   3.753   3.150
   18SOL    HW1  189   3.276   3.673   3.108
   18SOL    HW2  190   3.159   3.732   3.183
   19SOL     OW  191   1.954   1.584   2.057
   19SOL    HW1  192   1.861   1.563   2.065
   19SOL    HW2  193   1.966   1.606   1.965
   20SOL     OW  194   1.047   0.593   1.932
   20SOL    HW1  195   1.055   0.589   1.837
   20SOL    HW2  196   1.114   0.533   1.964
   21SOL     OW  197   2.063   3.571   2.545
   21SOL    HW1  198   2.058   3.477   2.528
   21SOL    HW2  199   2.096   3.578   2.634
   22SOL     OW  200   3.830   0.131   3.619
   22SOL    HW1  201   3.805   0.182   3.541
   22SOL    HW2  202   3.772   0.163   3.688
   23SOL     OW  203   0.631   3.588   1.707
   23SOL    HW1  204   0.714   3.571   1.751
   23SOL    HW2  205   0.567   3.534   1.753
   24SOL     OW  206   1.688   2.837   3.468
   24SOL    HW1  207   1.655   2.895   3.399
   24SOL    HW2  208   1.609   2.806   3.513
   25SOL     OW  209   2.094   2.950   2.577
   25SOL    HW1  210   2.071   3.002   2.654
   25SOL    HW2  211   2.123   3.015   2.512
   26SOL     OW  212   3.620   0.405   1.509
   26SOL    HW1  213   3.683   0.405   1.437
   26SOL    HW2  214   3.669   0.440   1.583
   27SOL     OW  215   1.212   2.763   2.337
   27SOL    HW1  216   1.128   2.807   2.322
   27SOL    HW2  217   1.192   2.694   2.400
   28SOL     OW  218   0.900   3.729   2.708
   28SOL    HW1  219   0.947   3.810   2.726
   28SOL    HW2  220   0.867   3.701   2.794
   29SOL     OW  221   1.347   3.573   0.521
   29SOL    HW1  222   1.439   3.551   0.510
   29SOL    HW2  223   1.311   3.502   0.574
   30SOL     OW  224   3.881   0.549   3.695
   30SOL    HW1  225   3.955   0.490   3.707
   30SOL    HW2  226   3.828   0.537   3.774
   31SOL     OW  227   1.838   1.841   1.976
   31SOL    HW1  228   1.881   1.808   2.054
   31SOL    HW2  229   1.746   1.820   1.988
   32SOL     OW  230   3.585   3.724   1.806
   32SOL    HW1  231   3.591   3.736   1.901
   32SOL    HW2  232   3.672   3.694   1.780
   33SOL     OW  233   3.390   1.347   1.158
   33SOL    HW1  234   3.428   1.387   1.237
   33SOL    HW2  235   3.363   1.259   1.186
   34SOL     OW  236   1.064   2.796   0.239
   34SOL    HW1  237   1.108   2.751   0.310
   34SOL    HW2  238   1.060   2.888   0.267
   35SOL     OW  239   3.255   1.441   0.035
   35SOL    HW1  240   3.209   1.403   0.110
   35SOL    HW2  241   3.269   1.367  -0.024
   36SOL     OW  242   0.242   0.271   0.941
   36SOL    HW1  243   0.229   0.364   0.927
   36SOL    HW2  244   0.241   0.259   1.036
   37SOL     OW  245   3.027   2.876   2.819
   37SOL    HW1  246   3.059   2.867   2.908
   37SOL    HW2  247   2.996   2.789   2.795
   38SOL     OW  248   1.655   1.191   0.720
   38SOL    HW1  249   1.586   1.138   0.680
   38SOL    HW2  250   1.736   1.143   0.702
   39SOL     OW  251   1.599   0.007   3.816
   39SOL    HW1  252   1.603  -0.001   3.911
   39SOL    HW2  253   1.690   0.017   3.789
   40SOL     OW  254   1.058   3.810   1.541
   40SOL    HW1  255   1.108   3.744   1.491
   40SOL    HW2  256   0.969   3.776   1.543
   41SOL     OW  257   0.282   2.468   3.582
   41SOL    HW1  258   0.312   2.382   3.612
   41SOL    HW2  259   0.342   2.490   3.510
   42SOL     OW  260   1.270   2.141  -0.024
   42SOL    HW1  261   1.338   2.089   0.019
   42SOL    HW2  262   1.283   2.230   0.009
   43SOL     OW  263   3.137   2.947   0.508
   43SOL    HW1  264   3.186   2.865   0.516
   43SOL    HW2  265   3.169   3.000   0.581
   44SOL     OW  266   0.706   3.364  -0.009
   44SOL    HW1  267   0.786   3.374   0.042
   44SOL    HW2  268   0.636   3.394   0.048
   45SOL     OW  269   3.830   2.913   3.123
   45SOL    HW1  270   3.839   2.988   3.182
   45SOL    HW2  271   3.802   2.951   3.040
   46SOL     OW  272   1.954   1.292   1.106
   46SOL    HW1  273   2.004   1.217   1.137
   46SOL    HW2  274   1.939   1.345   1.184
   47SOL     OW  275   1.590   3.136   1.646
   47SOL    HW1  276   1.494   3.145   1.651
   47SOL    HW2  277   1.622   3.187   1.721
   48SOL     OW  278   1.111   2.693   1.104
   48SOL    HW1  279   1.187   2.671   1.051
   48SOL    HW2  280   1.126   2.784   1.131
   49SOL     OW  281   1.689   0.398   0.559
   49SOL    HW1  282   1.667   0.395   0.652
   49SOL    HW2  283   1.616   0.443   0.518
   50SOL     OW  284   0.038   0.095   2.578
   50SOL    HW1  285   0.066   0.181   2.609
   50SOL    HW2  286   0.049   0.037   2.653
   51SOL     OW  287   1.922   2.401   0.400
   51SOL    HW1  288   1.847   2.457   0.419
   51SOL    HW2  289   1.954   2.431   0.315
   52SOL     OW  290   2.362   0.879   0.169
   52SOL    HW1  291   2.375   0.942   0.098
   52SOL    HW2  292   2.447   0.875   0.214
   53SOL     OW  293   1.655   3.790   2.931
   53SOL    HW1  294   1.636   3.765   3.021
   53SOL    HW2  295   1.590   3.858   2.911
   54SOL     OW  296   2.116   2.104   3.793
   54SOL    HW1  297   2.039   2.134   3.744
   54SOL    HW2  298   2.188   2.157   3.759
   55SOL     OW  299   1.989   3.045   1.197
   55SOL    HW1  300   1.899   3.014   1.183
   55SOL    HW2  301   1.985   3.092   1.280
   56SOL     OW  302   1.481   1.736   0.988
   56SOL    HW1  303   1.523   1.751   0.903
   56SOL    HW2  304   1.404   1.683   0.968
   57SOL     OW  305   3.552   2.336   1.684
   57SOL    HW1  306   3.544   2.278   1.609
   57SOL    HW2  307   3.567   2.278   1.758
   58SOL     OW  308   0.553   3.409   0.373
   58SOL    HW1  309   0.628   3.350   0.380
   58SOL    HW2  310   0.481   3.362   0.417
   59SOL     OW  311   1.147   3.167   1.595
   59SOL    HW1  312   1.173   3.165   1.503
   59SOL    HW2  313   1.126   3.077   1.616
   60SOL     OW  314   1.840   1.885   1.323
   60SOL    HW1  315   1.909   1.948   1.340
   60SOL    HW2  316   1.759   1.929   1.350
   61SOL     OW  317   3.731   0.905   3.765
   61SOL    HW1  318   3.804   0.845   3.780
   61SOL    HW2  319   3.745   0.938   3.676
   62SOL     OW  320   3.294   0.526   3.146
   62SOL    HW1  321   3.199   0.536   3.138
   62SOL    HW2  322   3.309   0.516   3.240
   63SOL     OW  323   1.302   3.723   2.745
   63SOL    HW1  324   1.379   3.714   2.689
   63SOL    HW2  325   1.241   3.777   2.694
   64SOL     OW  326   3.943   0.487   0.687
   64SOL    HW1  327   3.851   0.469   0.668
   64SOL    HW2  328   3.941   0.542   0.766
   65SOL     OW  329   1.201   0.983   1.412
   65SOL    HW1  330   1.209   1.076   1.391
   65SOL    HW2  331   1.266   0.968   1.481
   66SOL     OW  332   0.804   0.440   0.646
   66SOL    HW1  333   0.835   0.364   0.596
   66SOL    HW2  334   0.728   0.471   0.597
   67SOL     OW  335   1.186   3.221   0.775
   67SOL    HW1  336   1.152   3.145   0.824
   67SOL    HW2  337   1.108   3.270   0.750
   68SOL     OW  338   1.143   0.182   0.781
   68SOL    HW1  339   1.186   0.237   0.846
   68SOL    HW2  340   1.126   0.242   0.707
   69SOL     OW  341   0.015   1.628   2.417
   69SOL    HW1  342  -0.063   1.578   2.392
   69SOL    HW2  343   0.067   1.633   2.336
   70SOL     OW  344   3.469   3.825   1.597
   70SOL    HW1  345   3.509   3.779   1.671
   70SOL    HW2  346   3.376   3.827   1.617
   71SOL     OW  347   0.640   1.965   0.892
   71SOL    HW1  348   0.700   1.898   0.924
   71SOL    HW2  349   0.620   1.938   0.802
   72SOL     OW  350   2.140   0.820   2.869
   72SOL    HW1  351   2.211   0.862   2.919
   72SOL    HW2  352   2.184   0.787   2.790
   73SOL     OW  353   0.623   1.699   1.171
   73SOL    HW1  354   0.638   1.675   1.080
   73SOL    HW2  355   0.579   1.622   1.208
   74SOL     OW  356   3.315   1.832   0.810
   74SOL    HW1  357   3.351   1.886   0.881
   74SOL    HW2  358   3.226   1.810   0.840
   75SOL     OW  359   0.647   0.262   2.829
   75SOL    HW1  360   0.684   0.232   2.745
   75SOL    HW2  361   0.685   0.349   2.842
   76SOL     OW  362   2.037   1.594   0.071
   76SOL    HW1  363   2.033   1.658   0.001
   76SOL    HW2  364   2.033   1.645   0.152
   77SOL     OW  365   2.321   1.199   0.612
   77SOL    HW1  366   2.273   1.261   0.558
   77SOL    HW2  367   2.407   1.239   0.626
   78SOL     OW  368   2.812   3.322   1.487
   78SOL    HW1  369   2.889   3.315   1.544
   78SOL    HW2  370   2.847   3.333   1.399
   79SOL     OW  371   0.761   2.912   3.467
   79SOL    HW1  372   0.673   2.935   3.496
   79SOL    HW2  373   0.819   2.951   3.533
   80SOL     OW  374   0.199   0.388   0.278
   80SOL    HW1  375   0.113   0.363   0.245
   80SOL    HW2  376   0.198   0.362   0.370
   81SOL     OW  377   2.799   1.104   1.765
   81SOL    HW1  378   2.797   1.188   1.719
   81SOL    HW2  379   2.872   1.111   1.826
   82SOL     OW  380   3.826   2.326   0.179
   82SOL    HW1  381   3.797   2.361   0.095
   82SOL    HW2  382   3.756   2.266   0.205
   83SOL     OW  383   3.845   1.610   1.536
   83SOL    HW1  384   3.938   1.605   1.556
   83SOL    HW2  385   3.833   1.555   1.458
   84SOL     OW  386   0.945   1.522   2.895
   84SOL    HW1  387   1.007   1.595   2.898
   84SOL    HW2  388   0.882   1.541   2.964
   85SOL     OW  389   0.455   3.781   1.794
   85SOL    HW1  390   0.500   3.702   1.765
   85SOL    HW2  391   0.496   3.803   1.877
   86SOL     OW  392   0.185   3.779   0.111
   86SOL    HW1  393   0.224   3.855   0.154
   86SOL    HW2  394   0.098   3.771   0.151
   87SOL     OW  395   2.049   3.291   2.564
   87SOL    HW1  396   2.042   3.260   2.654
   87SOL    HW2  397   1.965   3.270   2.524
   88SOL     OW  398   1.541   2.632   1.202
   88SOL    HW1  399   1.497   2.666   1.281
   88SOL    HW2  400   1.475   2.641   1.133
   89SOL     OW  401   2.739   2.418   2.411
   89SOL    HW1  402   2.667   2.481   2.421
   89SOL    HW2  403   2.709   2.360   2.341
   90SOL     OW  404   1.656   3.198   1.376
   90SOL    HW1  405   1.627   3.289   1.376
   90SOL    HW2  406   1.636   3.166   1.465
   91SOL     OW  407   3.913   1.980   1.678
   91SOL    HW1  408   3.904   2.008   1.769
   91SOL    HW2  409   3.872   1.893   1.675
   92SOL     OW  410   3.386   1.954   3.603
   92SOL    HW1  411   3.310   1.915   3.647
   92SOL    HW2  412   3.407   2.032   3.654
   93SOL     OW  413   0.945   0.825   2.036
   93SOL    HW1  414   0.999   0.748   2.017
   93SOL    HW2  415   0.876   0.823   1.970
   94SOL     OW  416   1.268   3.464   0.253
   94SOL    HW1  417   1.244   3.380   0.214
   94SOL    HW2  418   1.202   3.480   0.320
   95SOL     OW  419   1.035   3.063   0.334
   95SOL    HW1  420   1.024   3.110   0.417
   95SOL    HW2  421   1.102   3.113   0.287
   96SOL     OW  422   1.273   2.249   3.447
   96SOL    HW1  423   1.313   2.284   3.367
   96SOL    HW2  424   1.188   2.294   3.453
   97SOL     OW  425   3.344   1.636   0.371
   97SOL    HW1  426   3.263   1.669   0.333
   97SOL    HW2  427   3.325   1.546   0.397
   98SOL     OW  428   2.103   2.073   0.425
   98SOL    HW1  429   2.029   2.096   0.481
   98SOL    HW2  430   2.116   1.979   0.440
   99SOL     OW  431   3.788   0.968   3.468
   99SOL    HW1  432   3.864   0.931   3.424
   99SOL    HW2  433   3.713   0.939   3.416
  100SOL     OW  434   1.791   0.088   3.022
  100SOL    HW1  435   1.850   0.013   3.030
  100SOL    HW2  436   1.739   0.086   3.102
  101SOL     OW  437   3.508   1.507   1.397
  101SOL    HW1  438   3.527   1.502   1.491
  101SOL    HW2  439   3.544   1.591   1.369
  102SOL     OW  440   0.119   3.417   0.372
  102SOL    HW1  441   0.157   3.382   0.291
  102SOL    HW2  442   0.049   3.355   0.394
  103SOL     OW  443   1.910   1.531   2.379
  103SOL    HW1  444   1.880   1.621   2.366
  103SOL    HW2  445   1.996   1.540   2.420
  104SOL     OW  446   0.160   1.625   1.590
  104SOL    HW1  447   0.201   1.646   1.674
  104SOL    HW2  448   0.221   1.565   1.548
  105SOL     OW  449   0.616   1.797   0.306
  105SOL    HW1  450   0.593   1.718   0.354
  105SOL    HW2  451   0.544   1.858   0.324
  106SOL     OW  452   1.901   0.063   3.756
  106SOL    HW1  453   1.945  -0.018   3.782
  106SOL    HW2  454   1.944   0.131   3.809
  107SOL     OW  455   1.045   0.266   3.165
  107SOL    HW1  456   1.052   0.221   3.249
  107SOL    HW2  457   0.969   0.228   3.123
  108SOL     OW  458   1.104   1.001   0.256
  108SOL    HW1  459   1.060   0.931   0.305
  108SOL    HW2  460   1.034   1.058   0.227
  109SOL     OW  461   0.158   1.904   1.134
  109SOL    HW1  462   0.074   1.943   1.159
  109SOL    HW2  463   0.184   1.854   1.211
  110SOL     OW  464   0.685   1.292   3.205
  110SOL    HW1  465   0.652   1.286   3.115
  110SOL    HW2  466   0.704   1.201   3.229
  111SOL     OW  467   0.532   0.748   2.724
  111SOL    HW1  468   0.514   0.656   2.745
  111SOL    HW2  469   0.547   0.789   2.809
  112SOL     OW  470   3.288   0.428   0.713
  112SOL    HW1  471   3.264   0.338   0.688
  112SOL    HW2  472   3.383   0.430   0.708
  113SOL     OW  473   1.447   1.302   2.204
  113SOL    HW1  474   1.516   1.368   2.211
  113SOL    HW2  475   1.447   1.259   2.289
  114SOL     OW  476   1.058   1.579   3.413
  114SOL    HW1  477   0.972   1.558   3.450
  114SOL    HW2  478   1.060   1.534   3.329
  115SOL     OW  479   0.984   3.601   3.848
  115SOL    HW1  480   0.968   3.541   3.921
  115SOL    HW2  481   1.069   3.575   3.813
  116SOL     OW  482   1.040   3.916   0.665
  116SOL    HW1  483   0.950   3.928   0.695
  116SOL    HW2  484   1.089   3.987   0.707
  117SOL     OW  485   2.332   3.083   3.784
  117SOL    HW1  486   2.295   3.106   3.698
  117SOL    HW2  487   2.256   3.059   3.837
  118SOL     OW  488   1.603   2.392   2.375
  118SOL    HW1  489   1.694   2.414   2.391
  118SOL    HW2  490   1.557   2.421   2.454
  119SOL     OW  491   2.054   2.416   2.998
  119SOL    HW1  492   2.079   2.346   2.938
  119SOL    HW2  493   1.992   2.375   3.058
  120SOL     OW  494   3.966   3.467   3.242
  120SOL    HW1  495   3.984   3.396   3.180
  120SOL    HW2  496   3.914   3.426   3.311
  121SOL     OW  497   1.778   0.953   2.268
  121SOL    HW1  498   1.684   0.940   2.256
  121SOL    HW2  499   1.814   0.865   2.279
  122SOL     OW  500   0.194   2.205   1.666
  122SOL    HW1  501   0.099   2.194   1.674
  122SOL    HW2  502   0.224   2.219   1.756
  123SOL     OW  503   2.640   1.133   3.729
  123SOL    HW1  504   2.594   1.207   3.690
  123SOL    HW2  505   2.702   1.105   3.662
  124SOL     OW  506   0.588   0.706   3.546
  124SOL    HW1  507   0.596   0.692   3.451
  124SOL    HW2  508   0.659   0.655   3.584
  125SOL     OW  509   2.289   2.162   2.552
  125SOL    HW1  510   2.364   2.106   2.570
  125SOL    HW2  511   2.302   2.191   2.462
  126SOL     OW  512   0.371   2.463   3.845
  126SOL    HW1  513   0.341   2.487   3.757
  126SOL    HW2  514   0.457   2.504   3.853
  127SOL     OW  515   0.170   1.826   3.944
  127SOL    HW1  516   0.119   1.860   3.870
  127SOL    HW2  517   0.112   1.763   3.986
  128SOL     OW  518   3.487   2.100   3.242
  128SOL    HW1  519   3.580   2.085   3.258
  128SOL    HW2  520   3.442   2.053   3.313
  129SOL     OW  521   1.119   1.360   1.571
  129SOL    HW1  522   1.123   1.315   1.655
  129SOL    HW2  523   1.040   1.327   1.529
  130SOL     OW  524   0.219   1.433   2.492
  130SOL    HW1  525   0.176   1.410   2.574
  130SOL    HW2  526   0.173   1.512   2.463
  131SOL     OW  527   0.793   1.482   0.716
  131SOL    HW1  528   0.865   1.498   0.778
  131SOL    HW2  529   0.807   1.545   0.646
  132SOL     OW  530   1.649   2.038   3.821
  132SOL    HW1  531   1.595   2.036   3.900
  132SOL    HW2  532   1.593   2.079   3.755
  133SOL     OW  533   2.095   0.008   2.977
  133SOL    HW1  534   2.078  -0.001   3.071
  133SOL    HW2  535   2.127   0.098   2.967
  134SOL     OW  536   0.343   0.710   0.852
  134SOL    HW1  537   0.316   0.663   0.773
  134SOL    HW2  538   0.436   0.729   0.838
  135SOL     OW  539   2.172   0.475   0.202
  135SOL    HW1  540   2.183   0.473   0.107
  135SOL    HW2  541   2.104   0.411   0.220
  136SOL     OW  542   2.639   3.048   2.722
  136SOL    HW1  543   2.718   3.101   2.724
  136SOL    HW2  544   2.610   3.046   2.813
  137SOL     OW  545   0.410   2.129   0.884
  137SOL    HW1  546   0.350   2.068   0.841
  137SOL    HW2  547   0.489   2.078   0.901
  138SOL     OW  548   0.438   1.502   2.092
  138SOL    HW1  549   0.446   1.475   2.183
  138SOL    HW2  550   0.441   1.598   2.095
  139SOL     OW  551   1.212   0.424   1.334
  139SOL    HW1  552   1.150   0.381   1.394
  139SOL    HW2  553   1.295   0.381   1.351
  140SOL     OW  554   3.068   0.649   1.383
  140SOL    HW1  555   3.094   0.678   1.295
  140SOL    HW2  556   2.973   0.652   1.382
  141SOL     OW  557   1.107   2.200   2.015
  141SOL    HW1  558   1.051   2.276   2.031
  141SOL    HW2  559   1.046   2.126   2.006
  142SOL     OW  560   3.154   0.943   2.045
  142SOL    HW1  561   3.100   1.002   2.098
  142SOL    HW2  562   3.104   0.930   1.964
  143SOL     OW  563   0.262   3.517   1.581
  143SOL    HW1  564   0.223   3.465   1.651
  143SOL    HW2  565   0.350   3.538   1.612
  144SOL     OW  566   3.628   2.513   0.498
  144SOL    HW1  567   3.633   2.417   0.501
  144SOL    HW2  568   3.711   2.543   0.537
  145SOL     OW  569   2.933   1.104   1.404
  145SOL    HW1  570   2.840   1.111   1.427
  145SOL    HW2  571   2.964   1.028   1.453
  146SOL     OW  572   1.200   3.686   1.346
  146SOL    HW1  573   1.247   3.630   1.283
  146SOL    HW2  574   1.211   3.775   1.312
  147SOL     OW  575   2.634   1.490   1.229
  147SOL    HW1  576   2.579   1.464   1.155
  147SOL    HW2  577   2.714   1.438   1.219
  148SOL     OW  578   0.899   3.153   2.666
  148SOL    HW1  579   0.949   3.156   2.584
  148SOL    HW2  580   0.899   3.061   2.691
  149SOL     OW  581   1.830   0.025   1.328
  149SOL    HW1  582   1.841   0.052   1.419
  149SOL    HW2  583   1.905  -0.031   1.310
  150SOL     OW  584   0.829   1.629   1.544
  150SOL    HW1  585   0.814   1.697   1.610
  150SOL    HW2  586   0.745   1.620   1.499
  151SOL     OW  587   2.258   2.259   3.335
  151SOL    HW1  588   2.319   2.228   3.268
  151SOL    HW2  589   2.204   2.183   3.356
  152SOL     OW  590   0.592   1.125   1.970
  152SOL    HW1  591   0.511   1.122   2.021
  152SOL    HW2  592   0.567   1.163   1.886
  153SOL     OW  593   3.617   3.808   2.579
  153SOL    HW1  594   3.680   3.774   2.642
  153SOL    HW2  595   3.670   3.835   2.504
  154SOL     OW  596   1.895   2.555   1.467
  154SOL    HW1  597   1.875   2.514   1.551
  154SOL    HW2  598   1.853   2.641   1.471
  155SOL     OW  599   3.830   3.544   2.247
  155SOL    HW1  600   3.786   3.515   2.167
  155SOL    HW2  601   3.920   3.561   2.220
  156SOL     OW  602   1.092   3.369   2.238
  156SOL    HW1  603   1.024   3.432   2.260
  156SOL    HW2  604   1.171   3.421   2.227
  157SOL     OW  605   3.141   3.289   0.299
  157SOL    HW1  606   3.203   3.250   0.360
  157SOL    HW2  607   3.056   3.281   0.343
  158SOL     OW  608   0.288   3.638   0.484
  158SOL    HW1  609   0.223   3.572   0.461
  158SOL    HW2  610   0.247   3.721   0.460
  159SOL     OW  611   0.778   3.736   1.535
  159SOL    HW1  612   0.724   3.688   1.598
  159SOL    HW2  613   0.716   3.783   1.480
  160SOL     OW  614   3.491   2.373   3.190
  160SOL    HW1  615   3.469   2.288   3.228
  160SOL    HW2  616   3.557   2.409   3.249
  161SOL     OW  617   0.751   3.860   3.628
  161SOL    HW1  618   0.728   3.876   3.537
  161SOL    HW2  619   0.666   3.847   3.672
  162SOL     OW  620   0.518   1.908   1.829
  162SOL    HW1  621   0.491   1.892   1.919
  162SOL    HW2  622   0.579   1.982   1.835
  163SOL     OW  623   3.062   1.236   0.742
  163SOL    HW1  624   3.095   1.169   0.801
  163SOL    HW2  625   3.134   1.254   0.682
  164SOL     OW  626   0.243   2.940   3.607
  164SOL    HW1  627   0.173   2.880   3.633
  164SOL    HW2  628   0.228   2.955   3.513
  165SOL     OW  629   3.892   3.250   0.513
  165SOL    HW1  630   3.904   3.227   0.604
  165SOL    HW2  631   3.799   3.232   0.496
  166SOL     OW  632   1.315   0.167   1.454
  166SOL    HW1  633   1.328   0.098   1.519
  166SOL    HW2  634   1.221   0.187   1.459
  167SOL     OW  635   2.667   2.527   0.155
  167SOL    HW1  636   2.596   2.526   0.218
  167SOL    HW2  637   2.625   2.539   0.070
  168SOL     OW  638   0.943   0.688   3.071
  168SOL    HW1  639   0.966   0.723   3.157
  168SOL    HW2  640   1.008   0.619   3.056
  169SOL     OW  641   0.721   3.504   2.442
  169SOL    HW1  642   0.811   3.538   2.438
  169SOL    HW2  643   0.679   3.542   2.365
  170SOL     OW  644   0.087   0.293   1.465
  170SOL    HW1  645   0.041   0.288   1.548
  170SOL    HW2  646   0.179   0.305   1.489
  171SOL     OW  647   3.424   3.616   3.911
  171SOL    HW1  648   3.422   3.701   3.867
  171SOL    HW2  649   3.516   3.590   3.907
  172SOL     OW  650   1.712   1.526   0.058
  172SOL    HW1  651   1.717   1.578   0.138
  172SOL    HW2  652   1.803   1.503   0.039
  173SOL     OW  653   1.049   3.245   1.113
  173SOL    HW1  654   1.042   3.292   1.030
  173SOL    HW2  655   0.963   3.204   1.124
  174SOL     OW  656   3.750   3.706   0.483
  174SOL    HW1  657   3.745   3.684   0.576
  174SOL    HW2  658   3.659   3.703   0.453
  175SOL     OW  659   0.701   0.931   1.055
  175SOL    HW1  660   0.653   1.012   1.071
  175SOL    HW2  661   0.673   0.872   1.125
  176SOL     OW  662   0.066   1.965   3.175
  176SOL    HW1  663   0.044   2.051   3.212
  176SOL    HW2  664   0.104   1.916   3.248
  177SOL     OW  665   1.177   3.895   2.582
  177SOL    HW1  666   1.123   3.974   2.590
  177SOL    HW2  667   1.233   3.912   2.506
  178SOL     OW  668   3.385   3.885   3.727
  178SOL    HW1  669   3.337   3.902   3.646
  178SOL    HW2  670   3.465   3.841   3.699
  179SOL     OW  671   3.112   1.181   1.830
  179SOL    HW1  672   3.092   1.267   1.792
  179SOL    HW2  673   3.137   1.199   1.920
  180SOL     OW  674   2.830   0.992   3.547
  180SOL    HW1  675   2.879   0.915   3.577
  180SOL    HW2  676   2.871   1.016   3.464
  181SOL     OW  677   2.458   2.027   2.042
  181SOL    HW1  678   2.516   1.974   1.987
  181SOL    HW2  679   2.421   1.964   2.104
  182SOL     OW  680   2.076   1.286   3.189
  182SOL    HW1  681   2.109   1.247   3.270
  182SOL    HW2  682   2.091   1.218   3.122
  183SOL     OW  683   3.171   3.984   2.802
  183SOL    HW1  684   3.230   3.962   2.874
  183SOL    HW2  685   3.103   3.917   2.806
  184SOL     OW  686   3.897   3.169   0.799
  184SOL    HW1  687   3.815   3.150   0.844
  184SOL    HW2  688   3.946   3.086   0.803
  185SOL     OW  689   1.747   1.761   2.340
  185SOL    HW1  690   1.662   1.804   2.349
  185SOL    HW2  691   1.809   1.833   2.331
  186SOL     OW  692   0.772   2.934   3.092
  186SOL    HW1  693   0.695   2.972   3.134
  186SOL    HW2  694   0.738   2.862   3.038
  187SOL     OW  695   1.345   1.787   2.759
  187SOL    HW1  696   1.430   1.829   2.745
  187SOL    HW2  697   1.361   1.721   2.826
  188SOL     OW  698   1.864   1.693   2.670
  188SOL    HW1  699   1.822   1.729   2.592
  188SOL    HW2  700   1.792   1.659   2.723
  189SOL     OW  701   1.513   1.038   2.012
  189SOL    HW1  702   1.478   1.095   2.081
  189SOL    HW2  703   1.518   0.952   2.052
  190SOL     OW  704   1.146   0.323   1.737
  190SOL    HW1  705   1.148   0.325   1.833
  190SOL    HW2  706   1.119   0.233   1.716
  191SOL     OW  707   3.142   0.834   0.318
  191SOL    HW1  708   3.091   0.824   0.238
  191SOL    HW2  709   3.120   0.757   0.371
  192SOL     OW  710   3.540   2.289   0.285
  192SOL    HW1  711   3.552   2.229   0.211
  192SOL    HW2  712   3.505   2.368   0.245
  193SOL     OW  713   1.661   3.327   2.905
  193SOL    HW1  714   1.572   3.296   2.923
  193SOL    HW2  715   1.662   3.347   2.812
  194SOL     OW  716   0.907   2.274   3.860
  194SOL    HW1  717   0.959   2.194   3.851
  194SOL    HW2  718   0.969   2.339   3.894
  195SOL     OW  719   2.743   3.722   3.703
  195SOL    HW1  720   2.659   3.762   3.682
  195SOL    HW2  721   2.721   3.635   3.736
  196SOL     OW  722   2.675   3.492   1.109
  196SOL    HW1  723   2.689   3.402   1.139
  196SOL    HW2  724   2.591   3.518   1.148
  197SOL     OW  725   1.716   0.746   1.858
  197SOL    HW1  726   1.762   0.722   1.938
  197SOL    HW2  727   1.722   0.841   1.854
  198SOL     OW  728   3.656   2.907   1.272
  198SOL    HW1  729   3.609   2.983   1.238
  198SOL    HW2  730   3.616   2.832   1.227
  199SOL     OW  731   1.616   3.408   2.636
  199SOL    HW1  732   1.597   3.501   2.625
  199SOL    HW2  733   1.658   3.382   2.554
  200SOL     OW  734   2.029   3.138   1.938
  200SOL    HW1  735   2.051   3.209   1.998
  200SOL    HW2  736   2.114   3.100   1.914
  201SOL     OW  737   2.198   3.260   0.794
  201SOL    HW1  738   2.283   3.220   0.778
  201SOL    HW2  739   2.212   3.318   0.869
  202SOL     OW  740   3.453   0.604   2.688
  202SOL    HW1  741   3.376   0.583   2.741
  202SOL    HW2  742   3.518   0.538   2.714
  203SOL     OW  743   1.144   1.868   3.509
  203SOL    HW1  744   1.074   1.816   3.470
  203SOL    HW2  745   1.136   1.954   3.467
  204SOL     OW  746   2.515   3.786   3.033
  204SOL    HW1  747   2.603   3.758   3.008
  204SOL    HW2  748   2.457   3.718   2.998
  205SOL     OW  749   2.017   1.560   0.399
  205SOL    HW1  750   1.945   1.599   0.351
  205SOL    HW2  751   1.976   1.523   0.478
  206SOL     OW  752   2.518   2.858   0.586
  206SOL    HW1  753   2.457   2.814   0.645
  206SOL    HW2  754   2.604   2.826   0.612
  207SOL     OW  755   3.282   3.461   3.066
  207SOL    HW1  756   3.286   3.394   3.134
  207SOL    HW2  757   3.329   3.423   2.992
  208SOL     OW  758   0.769   1.045   0.006
  208SOL    HW1  759   0.731   1.086   0.083
  208SOL    HW2  760   0.796   1.119  -0.049
  209SOL     OW  761   1.984   0.283   2.233
  209SOL    HW1  762   1.974   0.314   2.143
  209SOL    HW2  763   1.928   0.206   2.238
  210SOL     OW  764   3.549   0.797   0.717
  210SOL    HW1  765   3.590   0.744   0.785
  210SOL    HW2  766   3.488   0.853   0.765
  211SOL     OW  767   2.458   2.155   1.201
  211SOL    HW1  768   2.546   2.194   1.196
  211SOL    HW2  769   2.435   2.160   1.294
  212SOL     OW  770   3.417   2.910   0.735
  212SOL    HW1  771   3.355   2.903   0.808
  212SOL    HW2  772   3.407   3.000   0.704
  213SOL     OW  773   1.262   0.818   0.973
  213SOL    HW1  774   1.253   0.728   1.007
  213SOL    HW2  775   1.293   0.868   1.048
  214SOL     OW  776   3.677   0.181   2.446
  214SOL    HW1  777   3.710   0.237   2.516
  214SOL    HW2  778   3.719   0.097   2.461
  215SOL     OW  779   0.333   1.682   2.802
  215SOL    HW1  780   0.240   1.687   2.825
  215SOL    HW2  781   0.348   1.590   2.782
  216SOL     OW  782   1.591   3.677   3.185
  216SOL    HW1  783   1.522   3.614   3.205
  216SOL    HW2  784   1.593   3.735   3.261
  217SOL     OW  785   1.554   3.255   3.632
  217SOL    HW1  786   1.577   3.210   3.551
  217SOL    HW2  787   1.496   3.326   3.605
  218SOL     OW  788   2.458   2.034   0.717
  218SOL    HW1  789   2.484   2.099   0.652
  218SOL    HW2  790   2.384   2.074   0.763
  219SOL     OW  791   0.877   0.267   0.400
  219SOL    HW1  792   0.907   0.186   0.359
  219SOL    HW2  793   0.956   0.303   0.441
  220SOL     OW  794   1.994   1.138   0.130
  220SOL    HW1  795   1.994   1.138   0.226
  220SOL    HW2  796   2.047   1.214   0.106
  221SOL     OW  797   0.165   3.702   1.814
  221SOL    HW1  798   0.172   3.611   1.841
  221SOL    HW2  799   0.254   3.736   1.818
  222SOL     OW  800   3.340   3.658   1.367
  222SOL    HW1  801   3.403   3.720   1.403
  222SOL    HW2  802   3.329   3.685   1.276
  223SOL     OW  803   2.672   1.172   3.284
  223SOL    HW1  804   2.761   1.140   3.303
  223SOL    HW2  805   2.684   1.233   3.212
  224SOL     OW  806   2.195   2.985   3.453
  224SOL    HW1  807   2.287   3.008   3.462
  224SOL    HW2  808   2.195   2.910   3.393
  225SOL     OW  809   1.818   0.635   0.893
  225SOL    HW1  810   1.860   0.560   0.850
  225SOL    HW2  811   1.790   0.601   0.978
  226SOL     OW  812   1.215   1.242   2.074
  226SOL    HW1  813   1.165   1.319   2.100
  226SOL    HW2  814   1.302   1.256   2.114
  227SOL     OW  815   2.099   3.698   3.585
  227SOL    HW1  816   2.108   3.761   3.656
  227SOL    HW2  817   2.027   3.641   3.612
  228SOL     OW  818   2.736   1.418   1.921
  228SOL    HW1  819   2.728   1.492   1.861
  228SOL    HW2  820   2.701   1.450   2.004
  229SOL     OW  821   3.223   0.185   1.713
  229SOL    HW1  822   3.272   0.197   1.794
  229SOL    HW2  823   3.257   0.253   1.654
  230SOL     OW  824   1.019   1.993   0.115
  230SOL    HW1  825   1.025   2.017   0.023
  230SOL    HW2  826   0.992   2.074   0.159
  231SOL     OW  827   1.346   0.781   2.838
  231SOL    HW1  828   1.303   0.697   2.847
  231SOL    HW2  829   1.439   0.760   2.830
  232SOL     OW  830   3.192   1.568   3.473
  232SOL    HW1  831   3.113   1.620   3.490
  232SOL    HW2  832   3.226   1.547   3.560
  233SOL     OW  833   1.205   1.750   1.211
  233SOL    HW1  834   1.276   1.815   1.213
  233SOL    HW2  835   1.125   1.802   1.211
  234SOL     OW  836   2.041   1.782   1.160
  234SOL    HW1  837   1.964   1.811   1.209
  234SOL    HW2  838   2.093   1.733   1.224
  235SOL     OW  839   2.926   2.277  -0.003
  235SOL    HW1  840   2.831   2.273   0.011
  235SOL    HW2  841   2.960   2.321   0.074
  236SOL     OW  842   3.895   3.893   2.092
  236SOL    HW1  843   3.804   3.894   2.123
  236SOL    HW2  844   3.946   3.926   2.166
  237SOL     OW  845   3.063   1.510   0.273
  237SOL    HW1  846   2.988   1.516   0.332
  237SOL    HW2  847   3.096   1.599   0.265
  238SOL     OW  848   1.944   0.871   3.058
  238SOL    HW1  849   2.028   0.845   3.021
  238SOL    HW2  850   1.963   0.947   3.113
  239SOL     OW  851   2.346   0.756   1.225
  239SOL    HW1  852   2.433   0.765   1.187
  239SOL    HW2  853   2.352   0.677   1.279
  240SOL     OW  854   2.009   0.294   0.290
  240SOL    HW1  855   1.933   0.265   0.239
  240SOL    HW2  856   2.032   0.219   0.345
  241SOL     OW  857   2.983   3.413   1.687
  241SOL    HW1  858   3.066   3.379   1.654
  241SOL    HW2  859   2.997   3.422   1.781
  242SOL     OW  860   1.796   2.998   0.093
  242SOL    HW1  861   1.820   3.081   0.134
  242SOL    HW2  862   1.771   3.022   0.004
  243SOL     OW  863   1.876   3.961   1.886
  243SOL    HW1  864   1.910   3.996   1.968
  243SOL    HW2  865   1.922   3.877   1.875
  244SOL     OW  866   1.015   2.345   2.584
  244SOL    HW1  867   0.949   2.370   2.648
  244SOL    HW2  868   0.968   2.292   2.520
  245SOL     OW  869   2.677   1.985   3.709
  245SOL    HW1  870   2.681   2.080   3.721
  245SOL    HW2  871   2.588   1.961   3.736
  246SOL     OW  872   2.914   2.287   3.627
  246SOL    HW1  873   2.846   2.281   3.561
  246SOL    HW2  874   2.968   2.361   3.600
  247SOL     OW  875   2.201   2.352   2.210
  247SOL    HW1  876   2.141   2.287   2.174
  247SOL    HW2  877   2.216   2.414   2.139
  248SOL     OW  878   1.581   0.804   2.997
  248SOL    HW1  879   1.518   0.755   3.051
  248SOL    HW2  880   1.532   0.879   2.964
  249SOL     OW  881   1.952   3.153   0.716
  249SOL    HW1  882   2.026   3.191   0.762
  249SOL    HW2  883   1.891   3.128   0.785
  250SOL     OW  884   3.604   3.183   3.581
  250SOL    HW1  885   3.557   3.107   3.616
  250SOL    HW2  886   3.661   3.211   3.653
  251SOL     OW  887   2.303   1.817   0.976
  251SOL    HW1  888   2.381   1.762   0.988
  251SOL    HW2  889   2.243   1.789   1.045
  252SOL     OW  890   1.568   3.485   1.291
  252SOL    HW1  891   1.571   3.579   1.273
  252SOL    HW2  892   1.534   3.480   1.380
  253SOL     OW  893   1.255   0.975   0.520
  253SOL    HW1  894   1.318   0.921   0.568
  253SOL    HW2  895   1.304   1.007   0.444
  254SOL     OW  896   3.190   2.809   2.588
  254SOL    HW1  897   3.237   2.886   2.557
  254SOL    HW2  898   3.127   2.844   2.652
  255SOL     OW  899   3.740   0.656   1.316
  255SOL    HW1  900   3.831   0.627   1.326
  255SOL    HW2  901   3.713   0.678   1.404
  256SOL     OW  902   0.982   0.873   2.441
  256SOL    HW1  903   0.920   0.817   2.394
  256SOL    HW2  904   1.008   0.939   2.377
  257SOL     OW  905   2.485   3.263   0.936
  257SOL    HW1  906   2.567   3.261   0.986
  257SOL    HW2  907   2.444   3.345   0.960
  258SOL     OW  908   2.907   1.982   0.719
  258SOL    HW1  909   2.825   2.028   0.700
  258SOL    HW2  910   2.963   2.002   0.644
  259SOL     OW  911   2.972   0.205   2.850
  259SOL    HW1  912   2.967   0.112   2.869
  259SOL    HW2  913   3.063   0.220   2.826
  260SOL     OW  914   3.625   1.995   0.799
  260SOL    HW1  915   3.656   1.916   0.843
  260SOL    HW2  916   3.634   2.064   0.865
  261SOL     OW  917   3.849   0.905   1.091
  261SOL    HW1  918   3.777   0.886   1.150
  261SOL    HW2  919   3.875   0.995   1.114
  262SOL     OW  920   2.603   2.201   2.576
  262SOL    HW1  921   2.672   2.245   2.626
  262SOL    HW2  922   2.552   2.273   2.537
  263SOL     OW  923   2.803   1.085   0.230
  263SOL    HW1  924   2.798   1.150   0.160
  263SOL    HW2  925   2.887   1.102   0.272
  264SOL     OW  926   0.454   0.178   0.792
  264SOL    HW1  927   0.468   0.266   0.759
  264SOL    HW2  928   0.379   0.185   0.851
  265SOL     OW  929   3.769   3.531   2.509
  265SOL    HW1  930   3.787   3.553   2.418
  265SOL    HW2  931   3.847   3.559   2.557
  266SOL     OW  932   1.534   1.142   1.481
  266SOL    HW1  933   1.464   1.107   1.537
  266SOL    HW2  934   1.601   1.074   1.481
  267SOL     OW  935   0.245   0.564   0.587
  267SOL    HW1  936   0.228   0.648   0.544
  267SOL    HW2  937   0.159   0.523   0.593
  268SOL     OW  938   2.827   1.576   2.179
  268SOL    HW1  939   2.850   1.668   2.165
  268SOL    HW2  940   2.808   1.570   2.272
  269SOL     OW  941   1.857   2.065   1.633
  269SOL    HW1  942   1.897   2.131   1.576
  269SOL    HW2  943   1.763   2.082   1.627
  270SOL     OW  944   3.466   1.352   1.947
  270SOL    HW1  945   3.399   1.338   2.014
  270SOL    HW2  946   3.549   1.346   1.995
  271SOL     OW  947   1.823   2.567   1.191
  271SOL    HW1  948   1.738   2.607   1.209
  271SOL    HW2  949   1.851   2.533   1.276
  272SOL     OW  950   3.376   3.930   1.945
  272SOL    HW1  951   3.358   3.874   1.870
  272SOL    HW2  952   3.390   3.869   2.018
  273SOL     OW  953   3.084   2.093   3.432
  273SOL    HW1  954   3.080   2.113   3.525
  273SOL    HW2  955   3.101   2.177   3.390
  274SOL     OW  956   1.965   0.407   0.875
  274SOL    HW1  957   2.037   0.440   0.820
  274SOL    HW2  958   1.968   0.312   0.863
  275SOL     OW  959   2.740   2.264   0.881
  275SOL    HW1  960   2.688   2.202   0.932
  275SOL    HW2  961   2.720   2.350   0.918
  276SOL     OW  962   0.910   2.099   2.829
  276SOL    HW1  963   0.898   2.040   2.904
  276SOL    HW2  964   0.827   2.147   2.823
  277SOL     OW  965   2.903   0.733   2.221
  277SOL    HW1  966   2.980   0.771   2.264
  277SOL    HW2  967   2.927   0.643   2.203
  278SOL     OW  968   1.491   1.193   2.479
  278SOL    HW1  969   1.528   1.108   2.503
  278SOL    HW2  970   1.519   1.252   2.548
  279SOL     OW  971   3.080   2.582   3.102
  279SOL    HW1  972   3.009   2.538   3.056
  279SOL    HW2  973   3.160   2.549   3.062
  280SOL     OW  974   1.376   1.693   1.581
  280SOL    HW1  975   1.427   1.676   1.501
  280SOL    HW2  976   1.285   1.688   1.553
  281SOL     OW  977   2.060   1.762   3.350
  281SOL    HW1  978   2.030   1.671   3.354
  281SOL    HW2  979   2.132   1.761   3.287
  282SOL     OW  980   3.165   0.629   1.863
  282SOL    HW1  981   3.086   0.575   1.862
  282SOL    HW2  982   3.231   0.574   1.906
  283SOL     OW  983   3.247   3.194   0.805
  283SOL    HW1  984   3.161   3.216   0.769
  283SOL    HW2  985   3.258   3.255   0.879
  284SOL     OW  986   3.899   3.106   1.415
  284SOL    HW1  987   3.854   3.190   1.425
  284SOL    HW2  988   3.829   3.041   1.417
  285SOL     OW  989   0.529   2.091   0.221
  285SOL    HW1  990   0.579   2.148   0.280
  285SOL    HW2  991   0.438   2.102   0.249
  286SOL     OW  992   3.302   3.381   2.014
  286SOL    HW1  993   3.393   3.401   1.995
  286SOL    HW2  994   3.268   3.343   1.933
  287SOL     OW  995   2.159   3.145   1.515
  287SOL    HW1  996   2.075   3.144   1.469
  287SOL    HW2  997   2.138   3.114   1.603
  288SOL     OW  998   2.150   0.005   1.552
  288SOL    HW1  999   2.212  -0.019   1.621
  288SOL    HW2 1000   2.147   0.100   1.554
  289SOL     OW 1001   3.614   3.449   0.304
  289SOL    HW1 1002   3.663   3.447   0.222
  289SOL    HW2 1003   3.643   3.371   0.351
  290SOL     OW 1004   3.786   3.879   2.407
  290SOL    HW1 1005   3.768   3.859   2.315
  290SOL    HW2 1006   3.878   3.903   2.408
  291SOL     OW 1007   3.421   2.571   1.696
  291SOL    HW1 1008   3.486   2.500   1.698
  291SOL    HW2 1009   3.398   2.584   1.788
  292SOL     OW 1010   2.297   0.168   3.727
  292SOL    HW1 1011   2.208   0.150   3.755
  292SOL    HW2 1012   2.289   0.198   3.637
  293SOL     OW 1013   1.462   0.028   2.137
  293SOL    HW1 1014   1.535   0.061   2.085
  293SOL    HW2 1015   1.394   0.007   2.072
  294SOL     OW 1016   0.780   2.393   0.769
  294SOL    HW1 1017   0.820   2.382   0.855
  294SOL    HW2 1018   0.702   2.337   0.771
  295SOL     OW 1019   0.596   2.900   1.449
  295SOL    HW1 1020   0.559   2.979   1.409
  295SOL    HW2 1021   0.681   2.888   1.406
  296SOL     OW 1022   1.852   3.777   0.388
  296SOL    HW1 1023   1.810   3.754   0.471
  296SOL    HW2 1024   1.780   3.809   0.333
  297SOL     OW 1025   2.290   3.361   2.717
  297SOL    HW1 1026   2.197   3.375   2.697
  297SOL    HW2 1027   2.302   3.266   2.709
  298SOL     OW 1028   3.936   2.462   3.229
  298SOL    HW1 1029   3.882   2.523   3.179
  298SOL    HW2 1030   4.026   2.479   3.199
  299SOL     OW 1031   2.795   3.634   0.921
  299SOL    HW1 1032   2.754   3.567   0.976
  299SOL    HW2 1033   2.874   3.592   0.887
  300SOL     OW 1034   2.340   3.960   2.675
  300SOL    HW1 1035   2.408   3.909   2.631
  300SOL    HW2 1036   2.367   3.962   2.767
  301SOL     OW 1037   0.466   3.264   0.854
  301SOL    HW1 1038   0.457   3.276   0.760
  301SOL    HW2 1039   0.400   3.322   0.892
  302SOL     OW 1040   3.646   3.740   2.212
  302SOL    HW1 1041   3.701   3.664   2.195
  302SOL    HW2 1042   3.573   3.732   2.150
  303SOL     OW 1043   0.643   2.210   3.859
  303SOL    HW1 1044   0.645   2.116   3.876
  303SOL    HW2 1045   0.734   2.234   3.843
  304SOL     OW 1046   2.663   3.787   2.106
  304SOL    HW1 1047   2.702   3.874   2.103
  304SOL    HW2 1048   2.674   3.751   2.018
  305SOL     OW 1049   1.654   3.601   3.547
  305SOL    HW1 1050   1.728   3.600   3.608
  305SOL    HW2 1051   1.645   3.693   3.523
  306SOL     OW 1052   1.559   2.315   1.293
  306SOL    HW1 1053   1.538   2.375   1.364
  306SOL    HW2 1054   1.578   2.372   1.218
  307SOL     OW 1055   3.158   0.591   0.016
  307SOL    HW1 1056   3.160   0.583   0.112
  307SOL    HW2 1057   3.199   0.510  -0.015
  308SOL     OW 1058   1.608   3.048   0.786
  308SOL    HW1 1059   1.602   3.131   0.738
  308SOL    HW2 1060   1.661   2.992   0.730
  309SOL     OW 1061   0.650   2.234   1.050
  309SOL    HW1 1062   0.730   2.182   1.062
  309SOL    HW2 1063   0.597   2.213   1.127
  310SOL     OW 1064   0.866   0.974   2.665
  310SOL    HW1 1065   0.919   0.942   2.592
  310SOL    HW2 1066   0.849   0.896   2.718
  311SOL     OW 1067   2.759   1.901   2.971
  311SOL    HW1 1068   2.795   1.859   3.048
  311SOL    HW2 1069   2.833   1.950   2.933
  312SOL     OW 1070   3.157   2.709   1.701
  312SOL    HW1 1071   3.106   2.641   1.744
  312SOL    HW2 1072   3.246   2.696   1.734
  313SOL     OW 1073   1.523   0.571   1.181
  313SOL    HW1 1074   1.606   0.524   1.190
  313SOL    HW2 1075   1.544   0.661   1.203
  314SOL     OW 1076   0.863   1.973   2.336
  314SOL    HW1 1077   0.816   1.917   2.397
  314SOL    HW2 1078   0.835   2.062   2.358
  315SOL     OW 1079   0.982   3.586   2.468
  315SOL    HW1 1080   1.077   3.576   2.467
  315SOL    HW2 1081   0.961   3.612   2.558
  316SOL     OW 1082   1.540   3.288   0.979
  316SOL    HW1 1083   1.520   3.257   1.067
  316SOL    HW2 1084   1.576   3.211   0.935
  317SOL     OW 1085   1.509   3.124   2.002
  317SOL    HW1 1086   1.420   3.152   1.982
  317SOL    HW2 1087   1.510   3.111   2.097
  318SOL     OW 1088   0.855   1.383   1.216
  318SOL    HW1 1089   0.914   1.458   1.217
  318SOL    HW2 1090   0.882   1.332   1.139
  319SOL     OW 1091   0.077   1.263   1.067
  319SOL    HW1 1092   0.013   1.235   1.132
  319SOL    HW2 1093   0.059   1.210   0.990
  320SOL     OW 1094   0.890   1.114   1.932
  320SOL    HW1 1095   0.980   1.102   1.901
  320SOL    HW2 1096   0.835   1.074   1.865
  321SOL     OW 1097   2.696   0.714   3.832
  321SOL    HW1 1098   2.623   0.773   3.849
  321SOL    HW2 1099   2.774   0.766   3.853
  322SOL     OW 1100   0.933   1.250   1.005
  322SOL    HW1 1101   0.981   1.320   0.961
  322SOL    HW2 1102   0.987   1.172   0.992
  323SOL     OW 1103   0.309   1.776   0.297
  323SOL    HW1 1104   0.270   1.754   0.212
  323SOL    HW2 1105   0.379   1.712   0.309
  324SOL     OW 1106   1.391   2.219   0.346
  324SOL    HW1 1107   1.475   2.218   0.393
  324SOL    HW2 1108   1.343   2.292   0.385
  325SOL     OW 1109   2.620   2.517   0.451
  325SOL    HW1 1110   2.677   2.590   0.475
  325SOL    HW2 1111   2.656   2.442   0.500
  326SOL     OW 1112   1.213   1.116   2.400
  326SOL    HW1 1113   1.296   1.122   2.446
  326SOL    HW2 1114   1.189   1.207   2.381
  327SOL     OW 1115   3.923   1.671   0.065
  327SOL    HW1 1116   3.932   1.621  -0.017
  327SOL    HW2 1117   3.909   1.605   0.132
  328SOL     OW 1118   0.663   1.791   3.262
  328SOL    HW1 1119   0.719   1.714   3.269
  328SOL    HW2 1120   0.723   1.863   3.246
  329SOL     OW 1121   3.591   2.134   0.044
  329SOL    HW1 1122   3.617   2.043   0.059
  329SOL    HW2 1123   3.522   2.129  -0.022
  330SOL     OW 1124   3.368   0.402   3.449
  330SOL    HW1 1125   3.438   0.445   3.498
  330SOL    HW2 1126   3.313   0.362   3.516
  331SOL     OW 1127   1.410   0.417   3.883
  331SOL    HW1 1128   1.367   0.344   3.839
  331SOL    HW2 1129   1.466   0.375   3.949
  332SOL     OW 1130   3.471   2.738   1.178
  332SOL    HW1 1131   3.383   2.776   1.170
  332SOL    HW2 1132   3.455   2.644   1.188
  333SOL     OW 1133   0.751   3.216   2.316
  333SOL    HW1 1134   0.715   3.288   2.264
  333SOL    HW2 1135   0.813   3.172   2.259
  334SOL     OW 1136   3.352   1.840   2.252
  334SOL    HW1 1137   3.336   1.935   2.244
  334SOL    HW2 1138   3.328   1.805   2.166
  335SOL     OW 1139   3.894   3.438   0.711
  335SOL    HW1 1140   3.891   3.347   0.743
  335SOL    HW2 1141   3.909   3.429   0.617
  336SOL     OW 1142   3.399   2.565   2.697
  336SOL    HW1 1143   3.397   2.610   2.612
  336SOL    HW2 1144   3.317   2.516   2.700
  337SOL     OW 1145   0.390   1.806   3.248
  337SOL    HW1 1146   0.481   1.805   3.277
  337SOL    HW2 1147   0.365   1.898   3.250
  338SOL     OW 1148   2.103   2.463   0.634
  338SOL    HW1 1149   2.065   2.418   0.558
  338SOL    HW2 1150   2.163   2.528   0.596
  339SOL     OW 1151   3.862   1.155   2.206
  339SOL    HW1 1152   3.809   1.156   2.285
  339SOL    HW2 1153   3.799   1.153   2.134
  340SOL     OW 1154   3.591   0.324   2.097
  340SOL    HW1 1155   3.609   0.405   2.146
  340SOL    HW2 1156   3.549   0.267   2.161
  341SOL     OW 1157   0.302   2.141   2.073
  341SOL    HW1 1158   0.384   2.155   2.025
  341SOL    HW2 1159   0.321   2.068   2.132
  342SOL     OW 1160   2.715   0.584   3.138
  342SOL    HW1 1161   2.638   0.552   3.090
  342SOL    HW2 1162   2.679   0.628   3.215
  343SOL     OW 1163   0.883   0.990   3.710
  343SOL    HW1 1164   0.863   0.974   3.803
  343SOL    HW2 1165   0.956   1.052   3.712
  344SOL     OW 1166   2.172   2.758   3.305
  344SOL    HW1 1167   2.238   2.700   3.343
  344SOL    HW2 1168   2.088   2.722   3.333
  345SOL     OW 1169   1.599   3.769   2.004
  345SOL    HW1 1170   1.655   3.831   1.958
  345SOL    HW2 1171   1.600   3.799   2.095
  346SOL     OW 1172   2.200   0.529   1.508
  346SOL    HW1 1173   2.182   0.604   1.564
  346SOL    HW2 1174   2.246   0.467   1.564
  347SOL     OW 1175   2.164   2.591   1.760
  347SOL    HW1 1176   2.071   2.571   1.765
  347SOL    HW2 1177   2.178   2.616   1.669
  348SOL     OW 1178   0.171   0.821   3.662
  348SOL    HW1 1179   0.253   0.851   3.621
  348SOL    HW2 1180   0.156   0.735   3.624
  349SOL     OW 1181   1.802   3.545   2.926
  349SOL    HW1 1182   1.752   3.626   2.938
  349SOL    HW2 1183   1.736   3.477   2.913
  350SOL     OW 1184   1.877   3.600   3.729
  350SOL    HW1 1185   1.919   3.516   3.749
  350SOL    HW2 1186   1.873   3.645   3.813
  351SOL     OW 1187   0.236   1.216   2.960
  351SOL    HW1 1188   0.284   1.186   2.883
  351SOL    HW2 1189   0.180   1.287   2.929
  352SOL     OW 1190   0.354   0.689   1.870
  352SOL    HW1 1191   0.272   0.740   1.871
  352SOL    HW2 1192   0.325   0.598   1.868
  353SOL     OW 1193   1.898   0.525   0.485
  353SOL    HW1 1194   1.822   0.473   0.511
  353SOL    HW2 1195   1.954   0.464   0.437
  354SOL     OW 1196   2.736   1.358   2.587
  354SOL    HW1 1197   2.643   1.346   2.609
  354SOL    HW2 1198   2.760   1.278   2.541
  355SOL     OW 1199   3.628   2.090   2.427
  355SOL    HW1 1200   3.614   2.106   2.520
  355SOL    HW2 1201   3.719   2.062   2.421
  356SOL     OW 1202   0.567   0.089   1.765
  356SOL    HW1 1203   0.617   0.087   1.683
  356SOL    HW2 1204   0.512   0.011   1.761
  357SOL     OW 1205   3.177   1.197   3.822
  357SOL    HW1 1206   3.103   1.252   3.794
  357SOL    HW2 1207   3.238   1.198   3.748
  358SOL     OW 1208   2.155   2.635   3.664
  358SOL    HW1 1209   2.216   2.606   3.597
  358SOL    HW2 1210   2.196   2.612   3.747
  359SOL     OW 1211   2.450   3.602   1.749
  359SOL    HW1 1212   2.426   3.607   1.656
  359SOL    HW2 1213   2.514   3.671   1.761
  360SOL     OW 1214   0.115   1.139   0.232
  360SOL    HW1 1215   0.186   1.192   0.269
  360SOL    HW2 1216   0.043   1.151   0.293
  361SOL     OW 1217   2.344   0.271   0.608
  361SOL    HW1 1218   2.296   0.342   0.652
  361SOL    HW2 1219   2.421   0.257   0.663
  362SOL     OW 1220   0.911   1.754   1.130
  362SOL    HW1 1221   0.820   1.738   1.156
  362SOL    HW2 1222   0.909   1.753   1.034
  363SOL     OW 1223   0.575  -0.004   2.434
  363SOL    HW1 1224   0.570   0.068   2.372
  363SOL    HW2 1225   0.664  -0.039   2.424
  364SOL     OW 1226   0.779   0.539   3.657
  364SOL    HW1 1227   0.859   0.498   3.625
  364SOL    HW2 1228   0.771   0.508   3.748
  365SOL     OW 1229   2.738   0.997   2.310
  365SOL    HW1 1230   2.786   0.920   2.280
  365SOL    HW2 1231   2.662   1.002   2.251
  366SOL     OW 1232   0.705   0.313   2.243
  366SOL    HW1 1233   0.786   0.263   2.255
  366SOL    HW2 1234   0.712   0.347   2.154
  367SOL     OW 1235   3.558   3.367   2.533
  367SOL    HW1 1236   3.497   3.441   2.539
  367SOL    HW2 1237   3.635   3.403   2.489
  368SOL     OW 1238   2.074   1.550   2.769
  368SOL    HW1 1239   2.053   1.464   2.805
  368SOL    HW2 1240   1.989   1.586   2.744
  369SOL     OW 1241   1.747   2.330   0.097
  369SOL    HW1 1242   1.791   2.247   0.080
  369SOL    HW2 1243   1.819   2.393   0.109
  370SOL     OW 1244   1.007   1.355   3.254
  370SOL    HW1 1245   1.071   1.299   3.298
  370SOL    HW2 1246   0.959   1.295   3.196
  371SOL     OW 1247   3.341   1.283   3.629
  371SOL    HW1 1248   3.323   1.370   3.664
  371SOL    HW2 1249   3.431   1.288   3.598
  372SOL     OW 1250   0.596   0.175   0.357
  372SOL    HW1 1251   0.574   0.268   0.366
  372SOL    HW2 1252   0.692   0.174   0.355
  373SOL     OW 1253   3.266   2.390   3.006
  373SOL    HW1 1254   3.291   2.322   2.944
  373SOL    HW2 1255   3.338   2.394   3.068
  374SOL     OW 1256   0.146   1.283   2.256
  374SOL    HW1 1257   0.070   1.233   2.228
  374SOL    HW2 1258   0.130   1.301   2.349
  375SOL     OW 1259   0.621   3.823   3.072
  375SOL    HW1 1260   0.646   3.731   3.071
  375SOL    HW2 1261   0.527   3.823   3.091
  376SOL     OW 1262   0.629   1.586   0.937
  376SOL    HW1 1263   0.561   1.521   0.921
  376SOL    HW2 1264   0.697   1.567   0.872
  377SOL     OW 1265   1.025   0.196   1.455
  377SOL    HW1 1266   1.023   0.172   1.548
  377SOL    HW2 1267   0.936   0.179   1.424
  378SOL     OW 1268   2.303   1.224   2.210
  378SOL    HW1 1269   2.265   1.245   2.125
  378SOL    HW2 1270   2.371   1.290   2.223
  379SOL     OW 1271   1.181   0.541   2.275
  379SOL    HW1 1272   1.120   0.559   2.347
  379SOL    HW2 1273   1.229   0.623   2.264
  380SOL     OW 1274   0.808   0.493   2.034
  380SOL    HW1 1275   0.812   0.461   1.944
  380SOL    HW2 1276   0.897   0.524   2.052
  381SOL     OW 1277   0.357   3.797   2.477
  381SOL    HW1 1278   0.440   3.844   2.489
  381SOL    HW2 1279   0.376   3.732   2.409
  382SOL     OW 1280   0.331   0.844   3.304
  382SOL    HW1 1281   0.396   0.792   3.258
  382SOL    HW2 1282   0.286   0.893   3.236
  383SOL     OW 1283   0.624   3.906   1.418
  383SOL    HW1 1284   0.670   3.990   1.413
  383SOL    HW2 1285   0.537   3.929   1.452
  384SOL     OW 1286   1.558   2.143   3.457
  384SOL    HW1 1287   1.507   2.188   3.389
  384SOL    HW2 1288   1.524   2.178   3.539
  385SOL     OW 1289   0.116   3.611   2.464
  385SOL    HW1 1290   0.135   3.703   2.445
  385SOL    HW2 1291   0.195   3.565   2.434
  386SOL     OW 1292   3.870   2.713   0.499
  386SOL    HW1 1293   3.923   2.677   0.571
  386SOL    HW2 1294   3.906   2.671   0.420
  387SOL     OW 1295   0.315   0.063   2.798
  387SOL    HW1 1296   0.351   0.126   2.861
  387SOL    HW2 1297   0.384  -0.002   2.786
  388SOL     OW 1298   2.581   0.137   3.692
  388SOL    HW1 1299   2.584   0.049   3.655
  388SOL    HW2 1300   2.488   0.159   3.691
  389SOL     OW 1301   1.849   1.338   2.969
  389SOL    HW1 1302   1.796   1.263   2.942
  389SOL    HW2 1303   1.911   1.302   3.033
  390SOL     OW 1304   3.206   3.236   1.810
  390SOL    HW1 1305   3.169   3.153   1.781
  390SOL    HW2 1306   3.253   3.270   1.735
  391SOL     OW 1307   2.661   0.279   1.987
  391SOL    HW1 1308   2.574   0.239   1.987
  391SOL    HW2 1309   2.706   0.237   2.060
  392SOL     OW 1310   1.529   3.379   3.402
  392SOL    HW1 1311   1.593   3.372   3.331
  392SOL    HW2 1312   1.544   3.466   3.438
  393SOL     OW 1313   0.735   0.195   1.377
  393SOL    HW1 1314   0.711   0.274   1.424
  393SOL    HW2 1315   0.738   0.221   1.285
  394SOL     OW 1316   0.334   2.930   2.526
  394SOL    HW1 1317   0.372   2.978   2.452
  394SOL    HW2 1318   0.299   2.850   2.486
  395SOL     OW 1319   3.674   2.140   1.039
  395SOL    HW1 1320   3.657   2.223   1.083
  395SOL    HW2 1321   3.757   2.110   1.075
  396SOL     OW 1322   2.484   3.758   3.308
  396SOL    HW1 1323   2.395   3.792   3.301
  396SOL    HW2 1324   2.517   3.758   3.218
  397SOL     OW 1325   1.845   2.054   3.998
  397SOL    HW1 1326   1.926   2.083   3.956
  397SOL    HW2 1327   1.786   2.036   3.925
  398SOL     OW 1328   2.876   2.964   3.526
  398SOL    HW1 1329   2.873   3.053   3.491
  398SOL    HW2 1330   2.814   2.966   3.600
  399SOL     OW 1331   0.882   3.563   3.392
  399SOL    HW1 1332   0.799   3.593   3.430
  399SOL    HW2 1333   0.883   3.600   3.304
  400SOL     OW 1334   2.272   3.310   3.422
  400SOL    HW1 1335   2.178   3.299   3.431
  400SOL    HW2 1336   2.292   3.275   3.335
  401SOL     OW 1337   3.349   1.344   0.376
  401SOL    HW1 1338   3.361   1.250   0.386
  401SOL    HW2 1339   3.370   1.362   0.284
  402SOL     OW 1340   0.523   3.443   2.100
  402SOL    HW1 1341   0.508   3.360   2.054
  402SOL    HW2 1342   0.610   3.471   2.070
  403SOL     OW 1343   2.993   2.836   3.104
  403SOL    HW1 1344   3.025   2.748   3.124
  403SOL    HW2 1345   3.063   2.895   3.133
  404SOL     OW 1346   1.406   2.698   1.624
  404SOL    HW1 1347   1.463   2.753   1.677
  404SOL    HW2 1348   1.319   2.708   1.664
  405SOL     OW 1349   0.547   0.101   2.184
  405SOL    HW1 1350   0.501   0.138   2.109
  405SOL    HW2 1351   0.600   0.174   2.217
  406SOL     OW 1352   3.800   1.291   0.697
  406SOL    HW1 1353   3.726   1.347   0.722
  406SOL    HW2 1354   3.782   1.207   0.739
  407SOL     OW 1355   0.281   1.920   3.605
  407SOL    HW1 1356   0.340   1.894   3.676
  407SOL    HW2 1357   0.257   1.838   3.562
  408SOL     OW 1358   2.431   0.421   1.043
  408SOL    HW1 1359   2.523   0.446   1.036
  408SOL    HW2 1360   2.433   0.331   1.076
  409SOL     OW 1361   1.983   3.536   1.657
  409SOL    HW1 1362   2.009   3.564   1.570
  409SOL    HW2 1363   1.899   3.491   1.644
  410SOL     OW 1364   3.204   2.382   3.463
  410SOL    HW1 1365   3.145   2.455   3.447
  410SOL    HW2 1366   3.289   2.422   3.477
  411SOL     OW 1367   1.084   1.684   0.144
  411SOL    HW1 1368   1.057   1.712   0.231
  411SOL    HW2 1369   1.111   1.765   0.100
  412SOL     OW 1370   2.493   1.599   1.464
  412SOL    HW1 1371   2.550   1.581   1.389
  412SOL    HW2 1372   2.457   1.513   1.487
  413SOL     OW 1373   3.119   3.772   3.673
  413SOL    HW1 1374   3.044   3.822   3.640
  413SOL    HW2 1375   3.119   3.790   3.768
  414SOL     OW 1376   3.371   3.401   0.439
  414SOL    HW1 1377   3.446   3.416   0.383
  414SOL    HW2 1378   3.408   3.373   0.523
  415SOL     OW 1379   3.847   1.446   0.234
  415SOL    HW1 1380   3.782   1.496   0.284
  415SOL    HW2 1381   3.797   1.377   0.191
  416SOL     OW 1382   2.957   3.602   0.108
  416SOL    HW1 1383   3.029   3.662   0.085
  416SOL    HW2 1384   2.904   3.652   0.170
  417SOL     OW 1385   0.632   2.264   3.314
  417SOL    HW1 1386   0.714   2.274   3.266
  417SOL    HW2 1387   0.631   2.173   3.341
  418SOL     OW 1388   3.596   1.795   1.391
  418SOL    HW1 1389   3.567   1.756   1.473
  418SOL    HW2 1390   3.650   1.870   1.417
  419SOL     OW 1391   0.456   1.448   2.351
  419SOL    HW1 1392   0.491   1.498   2.425
  419SOL    HW2 1393   0.367   1.424   2.378
  420SOL     OW 1394   2.303   0.454   2.330
  420SOL    HW1 1395   2.381   0.458   2.385
  420SOL    HW2 1396   2.240   0.513   2.373
  421SOL     OW 1397   1.612   3.787   1.283
  421SOL    HW1 1398   1.665   3.851   1.235
  421SOL    HW2 1399   1.664   3.766   1.361
  422SOL     OW 1400   2.293   0.415   1.722
  422SOL    HW1 1401   2.369   0.364   1.695
  422SOL    HW2 1402   2.320   0.454   1.806
  423SOL     OW 1403   1.629   0.852   0.878
  423SOL    HW1 1404   1.642   0.904   0.957
  423SOL    HW2 1405   1.689   0.778   0.888
  424SOL     OW 1406   0.270   3.479   3.684
  424SOL    HW1 1407   0.310   3.556   3.724
  424SOL    HW2 1408   0.184   3.472   3.726
  425SOL     OW 1409   0.680   2.628   0.025
  425SOL    HW1 1410   0.675   2.540   0.063
  425SOL    HW2 1411   0.717   2.615  -0.062
  426SOL     OW 1412   3.702   3.763   1.265
  426SOL    HW1 1413   3.795   3.760   1.245
  426SOL    HW2 1414   3.693   3.714   1.347
  427SOL     OW 1415   2.684   1.994   1.239
  427SOL    HW1 1416   2.735   1.913   1.246
  427SOL    HW2 1417   2.596   1.969   1.266
  428SOL     OW 1418   2.407   2.080   0.251
  428SOL    HW1 1419   2.424   2.000   0.202
  428SOL    HW2 1420   2.322   2.110   0.220
  429SOL     OW 1421   3.928   1.622   0.678
  429SOL    HW1 1422   3.939   1.715   0.701
  429SOL    HW2 1423   3.836   1.604   0.697
  430SOL     OW 1424   1.275   2.137   1.784
  430SOL    HW1 1425   1.225   2.214   1.812
  430SOL    HW2 1426   1.329   2.115   1.860
  431SOL     OW 1427   0.886   3.948   1.017
  431SOL    HW1 1428   0.963   3.941   1.074
  431SOL    HW2 1429   0.873   3.859   0.985
  432SOL     OW 1430   3.930   2.368   3.833
  432SOL    HW1 1431   3.994   2.341   3.900
  432SOL    HW2 1432   3.891   2.448   3.868
  433SOL     OW 1433   3.756   2.000   1.459
  433SOL    HW1 1434   3.812   1.990   1.536
  433SOL    HW2 1435   3.809   1.968   1.386
  434SOL     OW 1436   3.549   0.079   3.505
  434SOL    HW1 1437   3.594   0.115   3.429
  434SOL    HW2 1438   3.459   0.067   3.476
  435SOL     OW 1439   1.319   3.010   2.683
  435SOL    HW1 1440   1.365   3.006   2.766
  435SOL    HW2 1441   1.238   2.961   2.697
  436SOL     OW 1442   1.390   1.835   3.872
  436SOL    HW1 1443   1.413   1.810   3.962
  436SOL    HW2 1444   1.441   1.777   3.817
  437SOL     OW 1445   1.573   0.408   0.814
  437SOL    HW1 1446   1.604   0.425   0.903
  437SOL    HW2 1447   1.493   0.460   0.805
  438SOL     OW 1448   0.076   3.765   3.798
  438SOL    HW1 1449   0.123   3.722   3.869
  438SOL    HW2 1450  -0.017   3.752   3.818
  439SOL     OW 1451   0.224   3.287   0.136
  439SOL    HW1 1452   0.161   3.291   0.065
  439SOL    HW2 1453   0.243   3.194   0.146
  440SOL     OW 1454   3.310   3.394   0.992
  440SOL    HW1 1455   3.247   3.466   0.982
  440SOL    HW2 1456   3.388   3.435   1.028
  441SOL     OW 1457   1.193   3.401   3.761
  441SOL    HW1 1458   1.259   3.400   3.691
  441SOL    HW2 1459   1.180   3.309   3.783
  442SOL     OW 1460   2.079   2.932   0.559
  442SOL    HW1 1461   2.036   3.012   0.589
  442SOL    HW2 1462   2.150   2.918   0.621
  443SOL     OW 1463   0.553   3.552   3.124
  443SOL    HW1 1464   0.576   3.465   3.092
  443SOL    HW2 1465   0.459   3.547   3.142
  444SOL     OW 1466   2.994   3.968   3.482
  444SOL    HW1 1467   2.928   3.996   3.545
  444SOL    HW2 1468   2.946   3.911   3.421
  445SOL     OW 1469   1.895   2.564   1.750
  445SOL    HW1 1470   1.855   2.647   1.777
  445SOL    HW2 1471   1.855   2.499   1.808
  446SOL     OW 1472   3.264   2.290   1.967
  446SOL    HW1 1473   3.358   2.293   1.949
  446SOL    HW2 1474   3.250   2.359   2.032
  447SOL     OW 1475   1.323   0.770   2.331
  447SOL    HW1 1476   1.271   0.837   2.286
  447SOL    HW2 1477   1.313   0.790   2.424
  448SOL     OW 1478   2.844   1.571   1.508
  448SOL    HW1 1479   2.933   1.602   1.525
  448SOL    HW2 1480   2.822   1.608   1.422
  449SOL     OW 1481   2.667   0.503   1.173
  449SOL    HW1 1482   2.709   0.441   1.232
  449SOL    HW2 1483   2.606   0.553   1.228
  450SOL     OW 1484   0.440   1.798   2.089
  450SOL    HW1 1485   0.395   1.822   2.171
  450SOL    HW2 1486   0.529   1.777   2.117
  451SOL     OW 1487   0.998   2.923   2.244
  451SOL    HW1 1488   0.922   2.865   2.241
  451SOL    HW2 1489   0.984   2.984   2.172
  452SOL     OW 1490   3.014   3.626   3.268
  452SOL    HW1 1491   2.955   3.658   3.336
  452SOL    HW2 1492   3.020   3.532   3.283
  453SOL     OW 1493   0.482   1.364   3.786
  453SOL    HW1 1494   0.475   1.273   3.755
  453SOL    HW2 1495   0.406   1.377   3.841
  454SOL     OW 1496   1.904   0.308   1.970
  454SOL    HW1 1497   1.881   0.380   1.912
  454SOL    HW2 1498   1.993   0.283   1.944
  455SOL     OW 1499   3.125   2.510   1.093
  455SOL    HW1 1500   3.192   2.542   1.032
  455SOL    HW2 1501   3.077   2.589   1.119
  456SOL     OW 1502   2.954   1.886   1.950
  456SOL    HW1 1503   2.964   1.873   2.045
  456SOL    HW2 1504   2.972   1.979   1.937
  457SOL     OW 1505   1.930   1.482   1.378
  457SOL    HW1 1506   1.882   1.557   1.342
  457SOL    HW2 1507   1.903   1.478   1.469
  458SOL     OW 1508   3.023   1.238   3.134
  458SOL    HW1 1509   2.978   1.175   3.191
  458SOL    HW2 1510   3.081   1.286   3.193
  459SOL     OW 1511   2.011   3.898   2.718
  459SOL    HW1 1512   2.016   3.802   2.713
  459SOL    HW2 1513   2.048   3.920   2.803
  460SOL     OW 1514   3.230   3.681   0.879
  460SOL    HW1 1515   3.144   3.684   0.921
  460SOL    HW2 1516   3.251   3.773   0.862
  461SOL     OW 1517   0.588   1.106   0.380
  461SOL    HW1 1518   0.528   1.055   0.434
  461SOL    HW2 1519   0.554   1.097   0.291
  462SOL     OW 1520   0.907   2.081   0.618
  462SOL    HW1 1521   0.975   2.067   0.683
  462SOL    HW2 1522   0.928   2.165   0.579
  463SOL     OW 1523   0.095   1.096   3.924
  463SOL    HW1 1524   0.120   1.113   4.015
  463SOL    HW2 1525   0.144   1.018   3.899
  464SOL     OW 1526   2.415   3.345   0.059
  464SOL    HW1 1527   2.416   3.391   0.142
  464SOL    HW2 1528   2.327   3.308   0.052
  465SOL     OW 1529   1.478   3.042   0.175
  465SOL    HW1 1530   1.472   3.068   0.083
  465SOL    HW2 1531   1.565   3.071   0.203
  466SOL     OW 1532   2.973   1.601   1.126
  466SOL    HW1 1533   3.037   1.534   1.104
  466SOL    HW2 1534   3.020   1.684   1.115
  467SOL     OW 1535   3.024   1.030   1.111
  467SOL    HW1 1536   2.970   1.105   1.090
  467SOL    HW2 1537   3.087   1.063   1.176
  468SOL     OW 1538   0.622   0.965   3.227
  468SOL    HW1 1539   0.658   0.999   3.310
  468SOL    HW2 1540   0.573   0.887   3.253
  469SOL     OW 1541   1.242   0.204   3.852
  469SOL    HW1 1542   1.239   0.117   3.892
  469SOL    HW2 1543   1.192   0.260   3.911
  470SOL     OW 1544   2.760   2.739   0.621
  470SOL    HW1 1545   2.799   2.770   0.539
  470SOL    HW2 1546   2.829   2.749   0.686
  471SOL     OW 1547   1.313   3.618   3.224
  471SOL    HW1 1548   1.291   3.704   3.187
  471SOL    HW2 1549   1.241   3.561   3.197
  472SOL     OW 1550   1.165   3.378   3.125
  472SOL    HW1 1551   1.131   3.455   3.078
  472SOL    HW2 1552   1.104   3.308   3.103
  473SOL     OW 1553   1.804   3.388   3.251
  473SOL    HW1 1554   1.764   3.406   3.166
  473SOL    HW2 1555   1.891   3.430   3.246
  474SOL     OW 1556   2.883   1.129   2.492
  474SOL    HW1 1557   2.840   1.057   2.446
  474SOL    HW2 1558   2.950   1.087   2.546
  475SOL     OW 1559   1.408   0.101   3.626
  475SOL    HW1 1560   1.459   0.060   3.695
  475SOL    HW2 1561   1.337   0.146   3.672
  476SOL     OW 1562   2.896   2.801   0.360
  476SOL    HW1 1563   2.862   2.753   0.283
  476SOL    HW2 1564   2.983   2.764   0.374
  477SOL     OW 1565   1.910   2.053   2.929
  477SOL    HW1 1566   1.982   2.100   2.972
  477SOL    HW2 1567   1.899   1.973   2.981
  478SOL     OW 1568   3.605   3.383   1.504
  478SOL    HW1 1569   3.689   3.345   1.529
  478SOL    HW2 1570   3.560   3.398   1.588
  479SOL     OW 1571   3.666   3.529   3.679
  479SOL    HW1 1572   3.638   3.495   3.594
  479SOL    HW2 1573   3.673   3.624   3.666
  480SOL     OW 1574   1.672   2.902   3.764
  480SOL    HW1 1575   1.754   2.872   3.724
  480SOL    HW2 1576   1.607   2.894   3.695
  481SOL     OW 1577   2.452   2.123   3.143
  481SOL    HW1 1578   2.469   2.080   3.059
  481SOL    HW2 1579   2.531   2.108   3.194
  482SOL     OW 1580   2.719   2.901   0.054
  482SOL    HW1 1581   2.663   2.950   0.115
  482SOL    HW2 1582   2.805   2.941   0.062
  483SOL     OW 1583   0.257   1.354   3.379
  483SOL    HW1 1584   0.350   1.351   3.358
  483SOL    HW2 1585   0.245   1.292   3.450
  484SOL     OW 1586   3.411   1.099   2.720
  484SOL    HW1 1587   3.457   1.016   2.726
  484SOL    HW2 1588   3.435   1.146   2.799
  485SOL     OW 1589   1.774   0.205   0.197
  485SOL    HW1 1590   1.778   0.181   0.290
  485SOL    HW2 1591   1.771   0.121   0.151
  486SOL     OW 1592   3.865   3.829   2.995
  486SOL    HW1 1593   3.935   3.891   2.974
  486SOL    HW2 1594   3.880   3.807   3.087
  487SOL     OW 1595   0.859   2.887   1.289
  487SOL    HW1 1596   0.861   2.816   1.224
  487SOL    HW2 1597   0.827   2.963   1.239
  488SOL     OW 1598   1.108   0.481   3.022
  488SOL    HW1 1599   1.100   0.389   3.050
  488SOL    HW2 1600   1.173   0.479   2.952
  489SOL     OW 1601   3.716   0.327   2.680
  489SOL    HW1 1602   3.690   0.291   2.765
  489SOL    HW2 1603   3.803   0.363   2.694
  490SOL     OW 1604   0.453   2.434   1.451
  490SOL    HW1 1605   0.544   2.442   1.480
  490SOL    HW2 1606   0.436   2.340   1.450
  491SOL     OW 1607   0.614   3.919   2.808
  491SOL    HW1 1608   0.625   3.830   2.773
  491SOL    HW2 1609   0.586   3.906   2.899
  492SOL     OW 1610   1.820   0.491   1.772
  492SOL    HW1 1611   1.762   0.561   1.803
  492SOL    HW2 1612   1.770   0.449   1.701
  493SOL     OW 1613   2.631   1.751   2.747
  493SOL    HW1 1614   2.697   1.728   2.682
  493SOL    HW2 1615   2.682   1.782   2.822
  494SOL     OW 1616   1.063   3.425   0.400
  494SOL    HW1 1617   1.054   3.494   0.466
  494SOL    HW2 1618   1.030   3.346   0.443
  495SOL     OW 1619   0.239   3.911   0.494
  495SOL    HW1 1620   0.180   3.948   0.560
  495SOL    HW2 1621   0.327   3.923   0.531
  496SOL     OW 1622   1.301   0.449   3.560
  496SOL    HW1 1623   1.336   0.407   3.638
  496SOL    HW2 1624   1.314   0.542   3.575
  497SOL     OW 1625   1.792   2.726   0.944
  497SOL    HW1 1626   1.815   2.684   1.027
  497SOL    HW2 1627   1.861   2.700   0.883
  498SOL     OW 1628   1.511   1.131   1.142
  498SOL    HW1 1629   1.602   1.105   1.127
  498SOL    HW2 1630   1.460   1.054   1.120
  499SOL     OW 1631   3.316   3.880   2.320
  499SOL    HW1 1632   3.286   3.828   2.394
  499SOL    HW2 1633   3.250   3.866   2.252
  500SOL     OW 1634   3.968   0.479   1.916
  500SOL    HW1 1635   3.921   0.461   1.998
  500SOL    HW2 1636   3.966   0.574   1.907
  501SOL     OW 1637   0.879   0.112   2.306
  501SOL    HW1 1638   0.973   0.098   2.298
  501SOL    HW2 1639   0.845   0.029   2.340
  502SOL     OW 1640   3.383   3.145   0.250
  502SOL    HW1 1641   3.393   3.050   0.245
  502SOL    HW2 1642   3.341   3.169   0.168
  503SOL     OW 1643   1.314   0.013   0.323
  503SOL    HW1 1644   1.335   0.106   0.337
  503SOL    HW2 1645   1.304  -0.023   0.411
  504SOL     OW 1646   2.088   0.171   0.002
  504SOL    HW1 1647   2.157   0.238   0.010
  504SOL    HW2 1648   2.115   0.102   0.063
  505SOL     OW 1649   3.598   1.997   2.127
  505SOL    HW1 1650   3.605   2.053   2.205
  505SOL    HW2 1651   3.545   1.923   2.155
  506SOL     OW 1652   0.158   2.747   3.871
  506SOL    HW1 1653   0.244   2.776   3.841
  506SOL    HW2 1654   0.137   2.672   3.816
  507SOL     OW 1655   3.431   3.773   1.125
  507SOL    HW1 1656   3.401   3.863   1.112
  507SOL    HW2 1657   3.524   3.782   1.146
  508SOL     OW 1658   2.595   0.833   3.248
  508SOL    HW1 1659   2.639   0.837   3.163
  508SOL    HW2 1660   2.569   0.923   3.266
  509SOL     OW 1661   2.457   2.510   1.510
  509SOL    HW1 1662   2.524   2.488   1.574
  509SOL    HW2 1663   2.375   2.512   1.560
  510SOL     OW 1664   3.696   0.648   2.916
  510SOL    HW1 1665   3.783   0.611   2.923
  510SOL    HW2 1666   3.637   0.575   2.931
  511SOL     OW 1667   2.161   1.679   2.214
  511SOL    HW1 1668   2.097   1.633   2.159
  511SOL    HW2 1669   2.154   1.637   2.300
  512SOL     OW 1670   3.324   0.785   1.703
  512SOL    HW1 1671   3.333   0.726   1.628
  512SOL    HW2 1672   3.271   0.736   1.766
  513SOL     OW 1673   0.662   0.947   0.723
  513SOL    HW1 1674   0.709   0.907   0.797
  513SOL    HW2 1675   0.589   0.993   0.763
  514SOL     OW 1676   1.376   2.643   0.992
  514SOL    HW1 1677   1.380   2.727   0.946
  514SOL    HW2 1678   1.390   2.578   0.924
  515SOL     OW 1679   0.192   2.382   0.866
  515SOL    HW1 1680   0.141   2.423   0.936
  515SOL    HW2 1681   0.163   2.291   0.866
  516SOL     OW 1682   3.151   2.374   0.540
  516SOL    HW1 1683   3.202   2.416   0.471
  516SOL    HW2 1684   3.126   2.445   0.598
  517SOL     OW 1685   0.727   1.415   3.540
  517SOL    HW1 1686   0.648   1.426   3.488
  517SOL    HW2 1687   0.751   1.504   3.567
  518SOL     OW 1688   0.736   2.888   3.804
  518SOL    HW1 1689   0.758   2.795   3.792
  518SOL    HW2 1690   0.798   2.935   3.749
  519SOL     OW 1691   2.646   0.408   0.693
  519SOL    HW1 1692   2.636   0.399   0.788
  519SOL    HW2 1693   2.584   0.476   0.669
  520SOL     OW 1694   3.610   1.694   1.110
  520SOL    HW1 1695   3.542   1.748   1.069
  520SOL    HW2 1696   3.603   1.715   1.204
  521SOL     OW 1697   0.067   0.380   2.653
  521SOL    HW1 1698   0.122   0.439   2.704
  521SOL    HW2 1699   0.085   0.403   2.562
  522SOL     OW 1700   2.246   3.740   2.383
  522SOL    HW1 1701   2.320   3.691   2.349
  522SOL    HW2 1702   2.192   3.675   2.426
  523SOL     OW 1703   1.618   0.129   1.929
  523SOL    HW1 1704   1.578   0.190   1.868
  523SOL    HW2 1705   1.712   0.137   1.913
  524SOL     OW 1706   3.644   1.123   2.022
  524SOL    HW1 1707   3.554   1.144   1.996
  524SOL    HW2 1708   3.635   1.052   2.085
  525SOL     OW 1709   0.007   3.723   1.198
  525SOL    HW1 1710   0.057   3.721   1.279
  525SOL    HW2 1711  -0.012   3.632   1.178
  526SOL     OW 1712   1.665   2.788   3.065
  526SOL    HW1 1713   1.640   2.718   3.126
  526SOL    HW2 1714   1.740   2.752   3.017
  527SOL     OW 1715   3.419   2.830   1.622
  527SOL    HW1 1716   3.420   2.851   1.716
  527SOL    HW2 1717   3.414   2.735   1.619
  528SOL     OW 1718   2.078   2.624   2.222
  528SOL    HW1 1719   2.038   2.628   2.136
  528SOL    HW2 1720   2.154   2.681   2.216
  529SOL     OW 1721   2.631   3.217   1.159
  529SOL    HW1 1722   2.681   3.140   1.188
  529SOL    HW2 1723   2.541   3.199   1.187
  530SOL     OW 1724   2.941   1.988   0.344
  530SOL    HW1 1725   2.995   2.044   0.401
  530SOL    HW2 1726   2.862   1.971   0.395
  531SOL     OW 1727   3.366   1.072   0.072
  531SOL    HW1 1728   3.407   1.006   0.015
  531SOL    HW2 1729   3.282   1.090   0.031
  532SOL     OW 1730   3.842   2.307   0.527
  532SOL    HW1 1731   3.830   2.298   0.432
  532SOL    HW2 1732   3.931   2.276   0.544
  533SOL     OW 1733   1.374   1.042   0.133
  533SOL    HW1 1734   1.284   1.044   0.166
  533SOL    HW2 1735   1.397   1.134   0.121
  534SOL     OW 1736   3.392   1.088   0.351
  534SOL    HW1 1737   3.382   1.073   0.257
  534SOL    HW2 1738   3.477   1.049   0.373
  535SOL     OW 1739   1.444   2.847   3.631
  535SOL    HW1 1740   1.384   2.874   3.561
  535SOL    HW2 1741   1.392   2.853   3.711
  536SOL     OW 1742   3.435   1.752   2.538
  536SOL    HW1 1743   3.417   1.798   2.456
  536SOL    HW2 1744   3.515   1.793   2.571
  537SOL     OW 1745   0.376   3.623   2.218
  537SOL    HW1 1746   0.433   3.560   2.174
  537SOL    HW2 1747   0.310   3.646   2.152
  538SOL     OW 1748   0.856   3.551   2.970
  538SOL    HW1 1749   0.788   3.505   3.018
  538SOL    HW2 1750   0.891   3.485   2.909
  539SOL     OW 1751   3.874   3.954   0.380
  539SOL    HW1 1752   3.808   3.906   0.430
  539SOL    HW2 1753   3.957   3.932   0.422
  540SOL     OW 1754   1.607   0.271   3.488
  540SOL    HW1 1755   1.645   0.324   3.558
  540SOL    HW2 1756   1.550   0.209   3.533
  541SOL     OW 1757   2.694   3.401   0.195
  541SOL    HW1 1758   2.772   3.401   0.140
  541SOL    HW2 1759   2.628   3.354   0.144
  542SOL     OW 1760   0.229   1.942   2.292
  542SOL    HW1 1761   0.244   1.872   2.356
  542SOL    HW2 1762   0.183   1.898   2.220
  543SOL     OW 1763   1.407   2.862   0.823
  543SOL    HW1 1764   1.389   2.813   0.744
  543SOL    HW2 1765   1.466   2.932   0.795
  544SOL     OW 1766   2.205   3.463   3.807
  544SOL    HW1 1767   2.259   3.538   3.783
  544SOL    HW2 1768   2.172   3.484   3.895
  545SOL     OW 1769   3.873   1.169   0.454
  545SOL    HW1 1770   3.853   1.227   0.527
  545SOL    HW2 1771   3.787   1.151   0.414
  546SOL     OW 1772   2.295   2.555   3.458
  546SOL    HW1 1773   2.272   2.467   3.429
  546SOL    HW2 1774   2.386   2.567   3.431
  547SOL     OW 1775   0.358   0.438   1.513
  547SOL    HW1 1776   0.332   0.520   1.472
  547SOL    HW2 1777   0.451   0.429   1.493
  548SOL     OW 1778   1.068   3.167   2.457
  548SOL    HW1 1779   1.056   3.084   2.410
  548SOL    HW2 1780   1.117   3.222   2.396
  549SOL     OW 1781   3.295   1.889   1.414
  549SOL    HW1 1782   3.249   1.935   1.344
  549SOL    HW2 1783   3.246   1.911   1.493
  550SOL     OW 1784   2.638   1.661   3.790
  550SOL    HW1 1785   2.731   1.661   3.810
  550SOL    HW2 1786   2.595   1.666   3.876
  551SOL     OW 1787   3.135   0.224   2.232
  551SOL    HW1 1788   3.081   0.153   2.267
  551SOL    HW2 1789   3.180   0.260   2.308
  552SOL     OW 1790   3.137   2.383   0.158
  552SOL    HW1 1791   3.143   2.477   0.146
  552SOL    HW2 1792   3.080   2.372   0.235
  553SOL     OW 1793   1.237   2.449   0.207
  553SOL    HW1 1794   1.324   2.472   0.174
  553SOL    HW2 1795   1.248   2.361   0.243
  554SOL     OW 1796   3.218   0.393   2.013
  554SOL    HW1 1797   3.282   0.351   1.955
  554SOL    HW2 1798   3.211   0.332   2.087
  555SOL     OW 1799   1.560   3.520   2.050
  555SOL    HW1 1800   1.597   3.481   1.971
  555SOL    HW2 1801   1.578   3.613   2.042
  556SOL     OW 1802   0.551   1.610   2.558
  556SOL    HW1 1803   0.510   1.553   2.623
  556SOL    HW2 1804   0.645   1.593   2.567
  557SOL     OW 1805   3.050   0.453   1.555
  557SOL    HW1 1806   3.139   0.417   1.555
  557SOL    HW2 1807   3.049   0.514   1.481
  558SOL     OW 1808   3.614   0.653   0.474
  558SOL    HW1 1809   3.604   0.694   0.560
  558SOL    HW2 1810   3.709   0.649   0.461
  559SOL     OW 1811   1.830   0.689   2.902
  559SOL    HW1 1812   1.852   0.775   2.940
  559SOL    HW2 1813   1.751   0.662   2.948
  560SOL     OW 1814   3.333   2.152   2.804
  560SOL    HW1 1815   3.392   2.119   2.873
  560SOL    HW2 1816   3.309   2.074   2.754
  561SOL     OW 1817   3.409   0.972   3.518
  561SOL    HW1 1818   3.463   0.945   3.593
  561SOL    HW2 1819   3.442   1.059   3.496
  562SOL     OW 1820   1.476   3.122   1.184
  562SOL    HW1 1821   1.537   3.131   1.258
  562SOL    HW2 1822   1.506   3.043   1.138
  563SOL     OW 1823   2.637   3.730   0.030
  563SOL    HW1 1824   2.670   3.757   0.116
  563SOL    HW2 1825   2.674   3.642   0.017
  564SOL     OW 1826   0.165   3.230   3.095
  564SOL    HW1 1827   0.167   3.236   2.999
  564SOL    HW2 1828   0.231   3.293   3.124
  565SOL     OW 1829   3.332   1.645   2.976
  565SOL    HW1 1830   3.333   1.633   3.071
  565SOL    HW2 1831   3.423   1.668   2.954
  566SOL     OW 1832   2.493   2.582   2.526
  566SOL    HW1 1833   2.532   2.566   2.612
  566SOL    HW2 1834   2.442   2.663   2.538
  567SOL     OW 1835   0.866   3.578   1.819
  567SOL    HW1 1836   0.910   3.501   1.783
  567SOL    HW2 1837   0.935   3.643   1.831
  568SOL     OW 1838   2.429   0.803   0.474
  568SOL    HW1 1839   2.386   0.875   0.428
  568SOL    HW2 1840   2.476   0.755   0.405
  569SOL     OW 1841   3.150   0.672   2.412
  569SOL    HW1 1842   3.194   0.666   2.328
  569SOL    HW2 1843   3.200   0.737   2.461
  570SOL     OW 1844   2.957   1.855   3.582
  570SOL    HW1 1845   2.886   1.892   3.636
  570SOL    HW2 1846   2.951   1.902   3.499
  571SOL     OW 1847   1.208   2.943   3.506
  571SOL    HW1 1848   1.176   2.854   3.491
  571SOL    HW2 1849   1.173   2.993   3.432
  572SOL     OW 1850   2.809   1.647   0.437
  572SOL    HW1 1851   2.720   1.622   0.413
  572SOL    HW2 1852   2.802   1.739   0.463
  573SOL     OW 1853   3.606   0.899   3.271
  573SOL    HW1 1854   3.595   0.819   3.219
  573SOL    HW2 1855   3.523   0.909   3.317
  574SOL     OW 1856   1.372   2.814   3.910
  574SOL    HW1 1857   1.332   2.799   3.996
  574SOL    HW2 1858   1.462   2.784   3.920
  575SOL     OW 1859   0.440   0.263   1.938
  575SOL    HW1 1860   0.499   0.217   1.878
  575SOL    HW2 1861   0.367   0.291   1.883
  576SOL     OW 1862   1.913   3.467   0.375
  576SOL    HW1 1863   1.905   3.563   0.373
  576SOL    HW2 1864   1.887   3.443   0.464
  577SOL     OW 1865   3.319   1.323   0.681
  577SOL    HW1 1866   3.316   1.412   0.716
  577SOL    HW2 1867   3.345   1.334   0.590
  578SOL     OW 1868   2.512   0.987   0.873
  578SOL    HW1 1869   2.419   0.970   0.860
  578SOL    HW2 1870   2.551   0.972   0.786
  579SOL     OW 1871   3.636   2.972   1.544
  579SOL    HW1 1872   3.559   2.930   1.581
  579SOL    HW2 1873   3.656   2.921   1.465
  580SOL     OW 1874   3.852   0.991   3.163
  580SOL    HW1 1875   3.777   0.942   3.199
  580SOL    HW2 1876   3.820   1.081   3.155
  581SOL     OW 1877   1.418   2.933   2.426
  581SOL    HW1 1878   1.380   2.849   2.400
  581SOL    HW2 1879   1.367   2.959   2.503
  582SOL     OW 1880   1.793   2.938   2.741
  582SOL    HW1 1881   1.789   2.845   2.720
  582SOL    HW2 1882   1.808   2.982   2.657
  583SOL     OW 1883   2.976   3.748   2.841
  583SOL    HW1 1884   2.902   3.735   2.901
  583SOL    HW2 1885   3.001   3.660   2.815
  584SOL     OW 1886   2.496   0.567   1.366
  584SOL    HW1 1887   2.427   0.506   1.391
  584SOL    HW2 1888   2.523   0.608   1.448
  585SOL     OW 1889   0.451   2.114   3.027
  585SOL    HW1 1890   0.417   2.047   2.968
  585SOL    HW2 1891   0.404   2.099   3.109
  586SOL     OW 1892   0.074   0.985   0.576
  586SOL    HW1 1893   0.033   1.050   0.519
  586SOL    HW2 1894   0.082   0.907   0.521
  587SOL     OW 1895   3.236   3.856   1.693
  587SOL    HW1 1896   3.159   3.820   1.648
  587SOL    HW2 1897   3.218   3.949   1.699
  588SOL     OW 1898   3.618   3.343   3.083
  588SOL    HW1 1899   3.578   3.258   3.064
  588SOL    HW2 1900   3.702   3.342   3.038
  589SOL     OW 1901   1.319   1.583   3.416
  589SOL    HW1 1902   1.354   1.658   3.368
  589SOL    HW2 1903   1.227   1.604   3.429
  590SOL     OW 1904   3.732   1.885   3.718
  590SOL    HW1 1905   3.691   1.893   3.804
  590SOL    HW2 1906   3.825   1.902   3.734
  591SOL     OW 1907   1.069   1.263   3.580
  591SOL    HW1 1908   0.974   1.274   3.583
  591SOL    HW2 1909   1.087   1.231   3.492
  592SOL     OW 1910   2.149   0.548   3.380
  592SOL    HW1 1911   2.095   0.520   3.307
  592SOL    HW2 1912   2.142   0.643   3.381
  593SOL     OW 1913   3.397   2.699   2.359
  593SOL    HW1 1914   3.444   2.761   2.416
  593SOL    HW2 1915   3.343   2.648   2.418
  594SOL     OW 1916   1.626   1.362   3.611
  594SOL    HW1 1917   1.594   1.428   3.549
  594SOL    HW2 1918   1.688   1.310   3.561
  595SOL     OW 1919   2.568   3.073   3.050
  595SOL    HW1 1920   2.503   3.071   3.120
  595SOL    HW2 1921   2.650   3.094   3.094
  596SOL     OW 1922   2.825   1.630   0.902
  596SOL    HW1 1923   2.872   1.585   0.832
  596SOL    HW2 1924   2.870   1.603   0.982
  597SOL     OW 1925   2.745   3.889   0.966
  597SOL    HW1 1926   2.674   3.941   0.928
  597SOL    HW2 1927   2.726   3.799   0.940
  598SOL     OW 1928   1.637   1.827   0.766
  598SOL    HW1 1929   1.694   1.794   0.697
  598SOL    HW2 1930   1.668   1.916   0.783
  599SOL     OW 1931   1.241   3.870   3.119
  599SOL    HW1 1932   1.184   3.911   3.054
  599SOL    HW2 1933   1.303   3.939   3.144
  600SOL     OW 1934   3.904   0.300   2.226
  600SOL    HW1 1935   3.939   0.224   2.274
  600SOL    HW2 1936   3.822   0.320   2.271
  601SOL     OW 1937   2.381   2.014   3.430
  601SOL    HW1 1938   2.394   1.970   3.515
  601SOL    HW2 1939   2.377   1.942   3.367
  602SOL     OW 1940   0.519   2.938   3.598
  602SOL    HW1 1941   0.425   2.945   3.615
  602SOL    HW2 1942   0.559   2.948   3.684
  603SOL     OW 1943   1.475   2.510   2.129
  603SOL    HW1 1944   1.512   2.553   2.207
  603SOL    HW2 1945   1.534   2.534   2.058
  604SOL     OW 1946   0.378   1.566   0.121
  604SOL    HW1 1947   0.421   1.504   0.179
  604SOL    HW2 1948   0.328   1.512   0.060
  605SOL     OW 1949   0.203   3.661   3.086
  605SOL    HW1 1950   0.118   3.690   3.121
  605SOL    HW2 1951   0.239   3.739   3.044
  606SOL     OW 1952   0.053   1.526   0.984
  606SOL    HW1 1953  -0.040   1.549   0.987
  606SOL    HW2 1954   0.055   1.433   1.008
  607SOL     OW 1955   3.227   0.307   3.689
  607SOL    HW1 1956   3.253   0.311   3.781
  607SOL    HW2 1957   3.135   0.335   3.688
  608SOL     OW 1958   1.548   2.893   2.856
  608SOL    HW1 1959   1.621   2.910   2.797
  608SOL    HW2 1960   1.588   2.857   2.935
  609SOL     OW 1961   3.544   3.065   3.264
  609SOL    HW1 1962   3.531   3.065   3.359
  609SOL    HW2 1963   3.630   3.107   3.252
  610SOL     OW 1964   2.287   2.914   0.754
  610SOL    HW1 1965   2.241   2.932   0.836
  610SOL    HW2 1966   2.370   2.961   0.762
  611SOL     OW 1967   3.323   2.619   0.928
  611SOL    HW1 1968   3.412   2.654   0.930
  611SOL    HW2 1969   3.327   2.548   0.863
  612SOL     OW 1970   1.857   3.949   0.702
  612SOL    HW1 1971   1.905   3.874   0.666
  612SOL    HW2 1972   1.773   3.913   0.729
  613SOL     OW 1973   3.942   0.257   1.747
  613SOL    HW1 1974   3.923   0.310   1.825
  613SOL    HW2 1975   3.978   0.176   1.783
  614SOL     OW 1976   2.608   3.399   2.281
  614SOL    HW1 1977   2.667   3.362   2.348
  614SOL    HW2 1978   2.623   3.344   2.204
  615SOL     OW 1979   2.524   0.070   2.892
  615SOL    HW1 1980   2.494   0.119   2.968
  615SOL    HW2 1981   2.561  -0.011   2.929
  616SOL     OW 1982   0.771   3.099   1.113
  616SOL    HW1 1983   0.685   3.075   1.149
  616SOL    HW2 1984   0.754   3.179   1.063
  617SOL     OW 1985   1.431   1.150   1.783
  617SOL    HW1 1986   1.472   1.236   1.774
  617SOL    HW2 1987   1.473   1.112   1.860
  618SOL     OW 1988   1.893   0.387   2.704
  618SOL    HW1 1989   1.900   0.420   2.615
  618SOL    HW2 1990   1.861   0.297   2.694
  619SOL     OW 1991   1.138   0.359   0.581
  619SOL    HW1 1992   1.177   0.442   0.555
  619SOL    HW2 1993   1.158   0.299   0.509
  620SOL     OW 1994   3.405   0.950   1.926
  620SOL    HW1 1995   3.324   0.961   1.976
  620SOL    HW2 1996   3.376   0.922   1.839
  621SOL     OW 1997   3.719   2.318   0.780
  621SOL    HW1 1998   3.783   2.285   0.842
  621SOL    HW2 1999   3.757   2.301   0.693
  622SOL     OW 2000   1.890   0.932   1.272
  622SOL    HW1 2001   1.985   0.933   1.264
  622SOL    HW2 2002   1.871   0.994   1.342
  623SOL     OW 2003   1.837   3.025   1.617
  623SOL    HW1 2004   1.746   3.049   1.636
  623SOL    HW2 2005   1.873   2.999   1.702
  624SOL     OW 2006   0.740   3.928   3.951
  624SOL    HW1 2007   0.714   4.020   3.952
  624SOL    HW2 2008   0.674   3.884   3.897
  625SOL     OW 2009   2.593   1.432   3.349
  625SOL    HW1 2010   2.599   1.339   3.368
  625SOL    HW2 2011   2.499   1.450   3.347
  626SOL     OW 2012   0.544   3.335   2.942
  626SOL    HW1 2013   0.597   3.372   2.871
  626SOL    HW2 2014   0.455   3.333   2.907
  627SOL     OW 2015   0.164   1.256   3.626
  627SOL    HW1 2016   0.095   1.195   3.655
  627SOL    HW2 2017   0.245   1.220   3.663
  628SOL     OW 2018   1.282   1.364   3.968
  628SOL    HW1 2019   1.377   1.364   3.979
  628SOL    HW2 2020   1.268   1.390   3.877
  629SOL     OW 2021   3.523   2.068   2.972
  629SOL    HW1 2022   3.594   2.004   2.964
  629SOL    HW2 2023   3.499   2.066   3.064
  630SOL     OW 2024   2.869   2.812   1.855
  630SOL    HW1 2025   2.918   2.732   1.873
  630SOL    HW2 2026   2.887   2.869   1.930
  631SOL     OW 2027   3.039   3.079   2.298
  631SOL    HW1 2028   3.102   3.092   2.227
  631SOL    HW2 2029   3.080   3.118   2.375
  632SOL     OW 2030   2.643   3.220   1.774
  632SOL    HW1 2031   2.697   3.150   1.738
  632SOL    HW2 2032   2.595   3.254   1.698
  633SOL     OW 2033   3.040   0.183   1.265
  633SOL    HW1 2034   3.052   0.089   1.278
  633SOL    HW2 2035   3.128   0.220   1.276
  634SOL     OW 2036   0.583   2.428   1.692
  634SOL    HW1 2037   0.653   2.383   1.646
  634SOL    HW2 2038   0.563   2.372   1.767
  635SOL     OW 2039   0.430   2.350   0.745
  635SOL    HW1 2040   0.449   2.259   0.770
  635SOL    HW2 2041   0.351   2.372   0.793
  636SOL     OW 2042   0.201   3.245   1.217
  636SOL    HW1 2043   0.144   3.269   1.143
  636SOL    HW2 2044   0.169   3.298   1.290
  637SOL     OW 2045   2.417   3.526   2.945
  637SOL    HW1 2046   2.395   3.498   2.856
  637SOL    HW2 2047   2.384   3.455   3.001
  638SOL     OW 2048   0.933   0.764   0.976
  638SOL    HW1 2049   0.947   0.733   1.066
  638SOL    HW2 2050   0.884   0.846   0.986
  639SOL     OW 2051   2.891   2.720   0.865
  639SOL    HW1 2052   2.815   2.670   0.836
  639SOL    HW2 2053   2.893   2.708   0.960
  640SOL     OW 2054   2.377   1.829   2.203
  640SOL    HW1 2055   2.439   1.772   2.248
  640SOL    HW2 2056   2.291   1.789   2.219
  641SOL     OW 2057   0.223   0.838   2.840
  641SOL    HW1 2058   0.304   0.883   2.817
  641SOL    HW2 2059   0.191   0.885   2.918
  642SOL     OW 2060   0.959   2.692   0.016
  642SOL    HW1 2061   0.863   2.696   0.020
  642SOL    HW2 2062   0.987   2.722   0.103
  643SOL     OW 2063   2.572   3.434   1.495
  643SOL    HW1 2064   2.531   3.349   1.508
  643SOL    HW2 2065   2.665   3.415   1.488
  644SOL     OW 2066   0.254   0.435   1.816
  644SOL    HW1 2067   0.164   0.453   1.844
  644SOL    HW2 2068   0.247   0.415   1.722
  645SOL     OW 2069   2.249   2.280   0.460
  645SOL    HW1 2070   2.227   2.316   0.546
  645SOL    HW2 2071   2.184   2.212   0.445
  646SOL     OW 2072   3.029   0.592   3.133
  646SOL    HW1 2073   3.054   0.677   3.170
  646SOL    HW2 2074   2.935   0.587   3.145
  647SOL     OW 2075   0.893   2.597   3.038
  647SOL    HW1 2076   0.872   2.605   2.945
  647SOL    HW2 2077   0.809   2.584   3.081
  648SOL     OW 2078   1.927   2.215   0.578
  648SOL    HW1 2079   1.887   2.256   0.655
  648SOL    HW2 2080   1.914   2.279   0.507
  649SOL     OW 2081   1.588   1.651   3.783
  649SOL    HW1 2082   1.572   1.571   3.732
  649SOL    HW2 2083   1.623   1.620   3.866
  650SOL     OW 2084   1.671   0.403   1.562
  650SOL    HW1 2085   1.576   0.412   1.552
  650SOL    HW2 2086   1.708   0.469   1.503
  651SOL     OW 2087   0.423   0.571   2.208
  651SOL    HW1 2088   0.389   0.645   2.158
  651SOL    HW2 2089   0.405   0.495   2.153
  652SOL     OW 2090   2.153   2.091   2.103
  652SOL    HW1 2091   2.080   2.102   2.043
  652SOL    HW2 2092   2.227   2.067   2.047
  653SOL     OW 2093   3.422   1.062   0.650
  653SOL    HW1 2094   3.341   1.012   0.640
  653SOL    HW2 2095   3.393   1.149   0.676
  654SOL     OW 2096   1.181   1.254   0.546
  654SOL    HW1 2097   1.204   1.162   0.545
  654SOL    HW2 2098   1.183   1.281   0.453
  655SOL     OW 2099   2.489   3.016   1.327
  655SOL    HW1 2100   2.584   3.006   1.315
  655SOL    HW2 2101   2.461   2.932   1.363
  656SOL     OW 2102   1.579   2.572   3.319
  656SOL    HW1 2103   1.599   2.565   3.412
  656SOL    HW2 2104   1.509   2.637   3.313
  657SOL     OW 2105   0.893   1.833   0.315
  657SOL    HW1 2106   0.799   1.834   0.298
  657SOL    HW2 2107   0.931   1.882   0.242
  658SOL     OW 2108   0.685   3.289   3.481
  658SOL    HW1 2109   0.775   3.275   3.510
  658SOL    HW2 2110   0.631   3.246   3.548
  659SOL     OW 2111   2.468   1.991   2.438
  659SOL    HW1 2112   2.518   1.929   2.385
  659SOL    HW2 2113   2.534   2.047   2.478
  660SOL     OW 2114   1.099   1.873   2.209
  660SOL    HW1 2115   1.032   1.914   2.264
  660SOL    HW2 2116   1.182   1.902   2.247
  661SOL     OW 2117   1.381   2.469   0.785
  661SOL    HW1 2118   1.461   2.425   0.814
  661SOL    HW2 2119   1.321   2.397   0.763
  662SOL     OW 2120   3.229   2.914   3.178
  662SOL    HW1 2121   3.287   2.971   3.228
  662SOL    HW2 2122   3.251   2.826   3.206
  663SOL     OW 2123   0.287   0.308   3.338
  663SOL    HW1 2124   0.213   0.363   3.365
  663SOL    HW2 2125   0.324   0.276   3.420
  664SOL     OW 2126   2.072   2.415   1.244
  664SOL    HW1 2127   2.065   2.386   1.154
  664SOL    HW2 2128   2.138   2.485   1.242
  665SOL     OW 2129   2.505   2.782   2.877
  665SOL    HW1 2130   2.540   2.693   2.870
  665SOL    HW2 2131   2.483   2.806   2.787
  666SOL     OW 2132   1.974   2.169   2.445
  666SOL    HW1 2133   1.966   2.257   2.482
  666SOL    HW2 2134   2.066   2.145   2.460
  667SOL     OW 2135   0.593   1.998   1.203
  667SOL    HW1 2136   0.592   1.972   1.111
  667SOL    HW2 2137   0.614   1.917   1.250
  668SOL     OW 2138   3.369   2.544   0.414
  668SOL    HW1 2139   3.386   2.501   0.329
  668SOL    HW2 2140   3.450   2.531   0.463
  669SOL     OW 2141   0.700   1.258   0.884
  669SOL    HW1 2142   0.785   1.258   0.928
  669SOL    HW2 2143   0.637   1.259   0.956
  670SOL     OW 2144   1.848   1.220   3.495
  670SOL    HW1 2145   1.849   1.187   3.405
  670SOL    HW2 2146   1.848   1.141   3.549
  671SOL     OW 2147   2.764   2.382   2.745
  671SOL    HW1 2148   2.813   2.321   2.800
  671SOL    HW2 2149   2.830   2.418   2.686
  672SOL     OW 2150   3.404   3.005   1.860
  672SOL    HW1 2151   3.432   2.994   1.951
  672SOL    HW2 2152   3.309   3.013   1.865
  673SOL     OW 2153   0.432   3.450   1.820
  673SOL    HW1 2154   0.344   3.457   1.858
  673SOL    HW2 2155   0.445   3.356   1.809
  674SOL     OW 2156   2.465   0.742   2.471
  674SOL    HW1 2157   2.485   0.786   2.388
  674SOL    HW2 2158   2.412   0.667   2.446
  675SOL     OW 2159   1.347   2.120   1.302
  675SOL    HW1 2160   1.418   2.185   1.302
  675SOL    HW2 2161   1.391   2.037   1.281
  676SOL     OW 2162   1.335   1.634   2.318
  676SOL    HW1 2163   1.261   1.626   2.258
  676SOL    HW2 2164   1.385   1.554   2.304
  677SOL     OW 2165   3.494   3.594   2.368
  677SOL    HW1 2166   3.433   3.657   2.407
  677SOL    HW2 2167   3.547   3.647   2.309
  678SOL     OW 2168   0.719   0.707   0.239
  678SOL    HW1 2169   0.719   0.783   0.298
  678SOL    HW2 2170   0.629   0.704   0.205
  679SOL     OW 2171   3.091   0.105   2.507
  679SOL    HW1 2172   3.152   0.136   2.574
  679SOL    HW2 2173   3.079   0.012   2.527
  680SOL     OW 2174   1.563   2.295   0.869
  680SOL    HW1 2175   1.504   2.228   0.902
  680SOL    HW2 2176   1.638   2.293   0.928
  681SOL     OW 2177   1.462   0.817   0.573
  681SOL    HW1 2178   1.553   0.831   0.598
  681SOL    HW2 2179   1.465   0.802   0.479
  682SOL     OW 2180   2.530   2.663   3.355
  682SOL    HW1 2181   2.554   2.737   3.411
  682SOL    HW2 2182   2.598   2.660   3.288
  683SOL     OW 2183   0.814   3.843   2.420
  683SOL    HW1 2184   0.819   3.801   2.335
  683SOL    HW2 2185   0.871   3.790   2.476
  684SOL     OW 2186   3.420   2.544   3.548
  684SOL    HW1 2187   3.478   2.473   3.575
  684SOL    HW2 2188   3.478   2.620   3.537
  685SOL     OW 2189   2.516   1.368   3.590
  685SOL    HW1 2190   2.609   1.390   3.581
  685SOL    HW2 2191   2.475   1.405   3.512
  686SOL     OW 2192   0.331   1.075   2.544
  686SOL    HW1 2193   0.390   1.150   2.537
  686SOL    HW2 2194   0.247   1.113   2.568
  687SOL     OW 2195   2.282   2.607   3.898
  687SOL    HW1 2196   2.289   2.691   3.943
  687SOL    HW2 2197   2.360   2.558   3.924
  688SOL     OW 2198   0.917   0.515   1.570
  688SOL    HW1 2199   0.975   0.444   1.595
  688SOL    HW2 2200   0.939   0.587   1.630
  689SOL     OW 2201   3.148   1.800   0.260
  689SOL    HW1 2202   3.206   1.876   0.269
  689SOL    HW2 2203   3.060   1.835   0.274
  690SOL     OW 2204   1.429   0.366   3.311
  690SOL    HW1 2205   1.363   0.393   3.375
  690SOL    HW2 2206   1.508   0.353   3.363
  691SOL     OW 2207   3.001   3.194   0.645
  691SOL    HW1 2208   2.960   3.118   0.686
  691SOL    HW2 2209   3.005   3.172   0.552
  692SOL     OW 2210   3.320   0.069   1.171
  692SOL    HW1 2211   3.349   0.156   1.146
  692SOL    HW2 2212   3.340   0.063   1.264
  693SOL     OW 2213   0.809   2.050   3.260
  693SOL    HW1 2214   0.835   2.086   3.345
  693SOL    HW2 2215   0.891   2.034   3.214
  694SOL     OW 2216   1.312   1.003   0.784
  694SOL    HW1 2217   1.286   0.923   0.830
  694SOL    HW2 2218   1.408   1.000   0.784
  695SOL     OW 2219   2.914   2.026   3.198
  695SOL    HW1 2220   2.945   2.060   3.282
  695SOL    HW2 2221   2.827   1.992   3.217
  696SOL     OW 2222   0.249   1.537   3.627
  696SOL    HW1 2223   0.160   1.559   3.599
  696SOL    HW2 2224   0.251   1.441   3.627
  697SOL     OW 2225   2.531   3.009   0.341
  697SOL    HW1 2226   2.515   3.102   0.357
  697SOL    HW2 2227   2.522   2.968   0.427
  698SOL     OW 2228   3.952   3.418   3.713
  698SOL    HW1 2229   3.967   3.363   3.636
  698SOL    HW2 2230   3.872   3.466   3.693
  699SOL     OW 2231   1.345   2.782   2.057
  699SOL    HW1 2232   1.276   2.811   2.118
  699SOL    HW2 2233   1.382   2.705   2.099
  700SOL     OW 2234   0.027   3.622   2.788
  700SOL    HW1 2235   0.006   3.699   2.842
  700SOL    HW2 2236   0.070   3.657   2.711
  701SOL     OW 2237   1.246   1.349   0.289
  701SOL    HW1 2238   1.252   1.339   0.194
  701SOL    HW2 2239   1.202   1.433   0.301
  702SOL     OW 2240   1.135   1.129   3.337
  702SOL    HW1 2241   1.105   1.038   3.335
  702SOL    HW2 2242   1.229   1.123   3.352
  703SOL     OW 2243   0.918   0.359   0.919
  703SOL    HW1 2244   0.881   0.411   0.848
  703SOL    HW2 2245   0.949   0.279   0.876
  704SOL     OW 2246   0.992   0.779   1.247
  704SOL    HW1 2247   0.910   0.806   1.289
  704SOL    HW2 2248   1.060   0.824   1.297
  705SOL     OW 2249   3.276   1.186   1.609
  705SOL    HW1 2250   3.226   1.211   1.532
  705SOL    HW2 2251   3.210   1.166   1.675
  706SOL     OW 2252   2.505   1.028   2.153
  706SOL    HW1 2253   2.460   1.112   2.161
  706SOL    HW2 2254   2.437   0.968   2.121
  707SOL     OW 2255   1.937   0.457   2.430
  707SOL    HW1 2256   1.846   0.433   2.447
  707SOL    HW2 2257   1.970   0.388   2.373
  708SOL     OW 2258   2.286   1.828   3.151
  708SOL    HW1 2259   2.287   1.786   3.065
  708SOL    HW2 2260   2.299   1.921   3.132
  709SOL     OW 2261   2.465   0.271   1.577
  709SOL    HW1 2262   2.544   0.251   1.627
  709SOL    HW2 2263   2.472   0.217   1.498
  710SOL     OW 2264   2.570   2.772   1.725
  710SOL    HW1 2265   2.571   2.855   1.773
  710SOL    HW2 2266   2.662   2.759   1.699
  711SOL     OW 2267   1.652   0.738   3.555
  711SOL    HW1 2268   1.649   0.826   3.593
  711SOL    HW2 2269   1.636   0.752   3.462
  712SOL     OW 2270   2.206   1.043   3.657
  712SOL    HW1 2271   2.263   1.100   3.708
  712SOL    HW2 2272   2.135   1.019   3.717
  713SOL     OW 2273   0.179   2.657   3.042
  713SOL    HW1 2274   0.199   2.750   3.047
  713SOL    HW2 2275   0.161   2.641   2.949
  714SOL     OW 2276   3.803   0.916   2.913
  714SOL    HW1 2277   3.783   0.824   2.897
  714SOL    HW2 2278   3.835   0.919   3.003
  715SOL     OW 2279   0.380   3.287   2.659
  715SOL    HW1 2280   0.346   3.346   2.591
  715SOL    HW2 2281   0.474   3.305   2.663
  716SOL     OW 2282   1.623   0.558   2.205
  716SOL    HW1 2283   1.684   0.552   2.132
  716SOL    HW2 2284   1.675   0.537   2.282
  717SOL     OW 2285   3.545   1.612   3.783
  717SOL    HW1 2286   3.613   1.632   3.848
  717SOL    HW2 2287   3.582   1.543   3.729
  718SOL     OW 2288   1.873   2.819   0.394
  718SOL    HW1 2289   1.880   2.823   0.298
  718SOL    HW2 2290   1.962   2.832   0.425
  719SOL     OW 2291   2.999   2.569   1.888
  719SOL    HW1 2292   3.049   2.566   1.970
  719SOL    HW2 2293   2.970   2.479   1.874
  720SOL     OW 2294   1.536   0.810   2.164
  720SOL    HW1 2295   1.544   0.721   2.197
  720SOL    HW2 2296   1.458   0.845   2.206
  721SOL     OW 2297   0.151   1.431   3.133
  721SOL    HW1 2298   0.179   1.429   3.225
  721SOL    HW2 2299   0.228   1.462   3.085
  722SOL     OW 2300   3.217   0.358   0.984
  722SOL    HW1 2301   3.270   0.390   1.057
  722SOL    HW2 2302   3.247   0.409   0.909
  723SOL     OW 2303   3.542   0.878   2.777
  723SOL    HW1 2304   3.524   0.791   2.743
  723SOL    HW2 2305   3.574   0.864   2.866
  724SOL     OW 2306   1.003   2.834   3.366
  724SOL    HW1 2307   1.025   2.877   3.283
  724SOL    HW2 2308   0.915   2.864   3.386
  725SOL     OW 2309   1.689   0.905   3.341
  725SOL    HW1 2310   1.605   0.911   3.295
  725SOL    HW2 2311   1.746   0.856   3.282
  726SOL     OW 2312   2.953   0.223   0.969
  726SOL    HW1 2313   2.974   0.135   0.940
  726SOL    HW2 2314   3.035   0.255   1.008
  727SOL     OW 2315   3.576   1.656   2.217
  727SOL    HW1 2316   3.569   1.580   2.274
  727SOL    HW2 2317   3.498   1.708   2.237
  728SOL     OW 2318   3.949   1.602   3.527
  728SOL    HW1 2319   3.873   1.659   3.517
  728SOL    HW2 2320   4.019   1.646   3.479
  729SOL     OW 2321   1.733   1.668   1.180
  729SOL    HW1 2322   1.764   1.754   1.208
  729SOL    HW2 2323   1.696   1.682   1.093
  730SOL     OW 2324   2.098   0.199   3.279
  730SOL    HW1 2325   2.136   0.215   3.365
  730SOL    HW2 2326   2.132   0.269   3.223
  731SOL     OW 2327   0.110   0.436   2.377
  731SOL    HW1 2328   0.206   0.432   2.381
  731SOL    HW2 2329   0.086   0.362   2.321
  732SOL     OW 2330   0.312   3.533   2.817
  732SOL    HW1 2331   0.281   3.465   2.756
  732SOL    HW2 2332   0.232   3.563   2.861
  733SOL     OW 2333   3.640   3.167   0.423
  733SOL    HW1 2334   3.670   3.077   0.435
  733SOL    HW2 2335   3.566   3.161   0.363
  734SOL     OW 2336   3.552   0.530   1.138
  734SOL    HW1 2337   3.636   0.550   1.181
  734SOL    HW2 2338   3.554   0.582   1.057
  735SOL     OW 2339   1.844   1.406   0.857
  735SOL    HW1 2340   1.890   1.385   0.939
  735SOL    HW2 2341   1.754   1.421   0.884
  736SOL     OW 2342   1.508   0.090   2.398
  736SOL    HW1 2343   1.507   0.071   2.304
  736SOL    HW2 2344   1.492   0.184   2.404
  737SOL     OW 2345   3.507   3.940   0.637
  737SOL    HW1 2346   3.471   3.973   0.719
  737SOL    HW2 2347   3.458   3.860   0.620
  738SOL     OW 2348   1.459   2.061   1.009
  738SOL    HW1 2349   1.413   1.985   0.975
  738SOL    HW2 2350   1.460   2.049   1.104
  739SOL     OW 2351   2.874   0.363   2.649
  739SOL    HW1 2352   2.945   0.399   2.597
  739SOL    HW2 2353   2.918   0.318   2.721
  740SOL     OW 2354   3.403   2.431   0.718
  740SOL    HW1 2355   3.494   2.430   0.687
  740SOL    HW2 2356   3.375   2.339   0.713
  741SOL     OW 2357   2.464   1.582   2.622
  741SOL    HW1 2358   2.472   1.499   2.668
  741SOL    HW2 2359   2.507   1.646   2.679
  742SOL     OW 2360   1.641   2.048   1.409
  742SOL    HW1 2361   1.610   2.034   1.498
  742SOL    HW2 2362   1.648   2.143   1.401
  743SOL     OW 2363   0.750   1.367   2.792
  743SOL    HW1 2364   0.685   1.367   2.862
  743SOL    HW2 2365   0.817   1.428   2.821
  744SOL     OW 2366   1.246   2.462   1.220
  744SOL    HW1 2367   1.297   2.452   1.140
  744SOL    HW2 2368   1.216   2.553   1.219
  745SOL     OW 2369   1.514   0.440   3.065
  745SOL    HW1 2370   1.583   0.374   3.057
  745SOL    HW2 2371   1.457   0.407   3.134
  746SOL     OW 2372   0.102   3.311   3.478
  746SOL    HW1 2373   0.197   3.297   3.483
  746SOL    HW2 2374   0.065   3.224   3.489
  747SOL     OW 2375   2.115   1.129   2.957
  747SOL    HW1 2376   2.101   1.150   2.865
  747SOL    HW2 2377   2.177   1.055   2.955
  748SOL     OW 2378   2.777   3.465   2.567
  748SOL    HW1 2379   2.840   3.444   2.498
  748SOL    HW2 2380   2.722   3.533   2.530
  749SOL     OW 2381   3.358   0.339   1.533
  749SOL    HW1 2382   3.428   0.404   1.526
  749SOL    HW2 2383   3.403   0.255   1.535
  750SOL     OW 2384   3.215   3.100   3.484
  750SOL    HW1 2385   3.212   3.004   3.479
  750SOL    HW2 2386   3.180   3.120   3.571
  751SOL     OW 2387   1.551   0.245   1.311
  751SOL    HW1 2388   1.612   0.172   1.320
  751SOL    HW2 2389   1.486   0.231   1.380
  752SOL     OW 2390   2.784   2.831   2.564
  752SOL    HW1 2391   2.749   2.895   2.626
  752SOL    HW2 2392   2.719   2.829   2.493
  753SOL     OW 2393   3.409   2.113   1.179
  753SOL    HW1 2394   3.364   2.143   1.100
  753SOL    HW2 2395   3.466   2.186   1.203
  754SOL     OW 2396   2.928   3.205   1.995
  754SOL    HW1 2397   2.947   3.165   1.910
  754SOL    HW2 2398   2.984   3.158   2.056
  755SOL     OW 2399   1.866   2.468   2.400
  755SOL    HW1 2400   1.848   2.549   2.353
  755SOL    HW2 2401   1.938   2.491   2.460
  756SOL     OW 2402   0.766   3.087   0.099
  756SOL    HW1 2403   0.858   3.082   0.073
  756SOL    HW2 2404   0.729   3.155   0.042
  757SOL     OW 2405   0.984   0.585   2.521
  757SOL    HW1 2406   0.895   0.554   2.502
  757SOL    HW2 2407   0.980   0.680   2.508
  758SOL     OW 2408   1.787   3.293   3.788
  758SOL    HW1 2409   1.861   3.277   3.729
  758SOL    HW2 2410   1.710   3.279   3.734
  759SOL     OW 2411   0.404   3.668   0.991
  759SOL    HW1 2412   0.334   3.727   1.020
  759SOL    HW2 2413   0.460   3.659   1.068
  760SOL     OW 2414   0.387   1.125   3.720
  760SOL    HW1 2415   0.368   1.068   3.795
  760SOL    HW2 2416   0.426   1.066   3.656
  761SOL     OW 2417   1.904   0.146   0.930
  761SOL    HW1 2418   1.818   0.167   0.968
  761SOL    HW2 2419   1.884   0.103   0.847
  762SOL     OW 2420   2.906   0.899   1.630
  762SOL    HW1 2421   2.895   0.976   1.686
  762SOL    HW2 2422   2.893   0.825   1.689
  763SOL     OW 2423   0.680   2.241   2.800
  763SOL    HW1 2424   0.729   2.321   2.780
  763SOL    HW2 2425   0.601   2.271   2.844
  764SOL     OW 2426   2.159   1.183   3.440
  764SOL    HW1 2427   2.174   1.109   3.499
  764SOL    HW2 2428   2.126   1.252   3.497
  765SOL     OW 2429   0.422   0.936   3.554
  765SOL    HW1 2430   0.492   0.871   3.564
  765SOL    HW2 2431   0.390   0.924   3.465
  766SOL     OW 2432   2.430   3.923   0.398
  766SOL    HW1 2433   2.472   3.953   0.318
  766SOL    HW2 2434   2.450   3.990   0.463
  767SOL     OW 2435   2.367   1.556   0.454
  767SOL    HW1 2436   2.314   1.488   0.413
  767SOL    HW2 2437   2.336   1.559   0.544
  768SOL     OW 2438   0.721   0.437   1.755
  768SOL    HW1 2439   0.641   0.489   1.760
  768SOL    HW2 2440   0.771   0.477   1.684
  769SOL     OW 2441   0.634   0.816   3.881
  769SOL    HW1 2442   0.628   0.832   3.787
  769SOL    HW2 2443   0.688   0.888   3.914
  770SOL     OW 2444   0.440   1.412   2.715
  770SOL    HW1 2445   0.477   1.345   2.658
  770SOL    HW2 2446   0.473   1.391   2.802
  771SOL     OW 2447   1.661   2.317   0.631
  771SOL    HW1 2448   1.680   2.409   0.645
  771SOL    HW2 2449   1.632   2.285   0.717
  772SOL     OW 2450   2.571   0.645   1.616
  772SOL    HW1 2451   2.566   0.707   1.689
  772SOL    HW2 2452   2.641   0.584   1.642
  773SOL     OW 2453   1.461   2.382   2.804
  773SOL    HW1 2454   1.423   2.469   2.816
  773SOL    HW2 2455   1.388   2.322   2.821
  774SOL     OW 2456   0.293   0.155   1.711
  774SOL    HW1 2457   0.368   0.137   1.767
  774SOL    HW2 2458   0.224   0.096   1.742
  775SOL     OW 2459   2.377   2.187   1.495
  775SOL    HW1 2460   2.340   2.159   1.578
  775SOL    HW2 2461   2.334   2.270   1.476
  776SOL     OW 2462   3.511   2.155   1.488
  776SOL    HW1 2463   3.598   2.114   1.489
  776SOL    HW2 2464   3.460   2.100   1.429
  777SOL     OW 2465   3.100   1.500   2.460
  777SOL    HW1 2466   3.009   1.473   2.451
  777SOL    HW2 2467   3.149   1.418   2.461
  778SOL     OW 2468   2.919   3.479   1.985
  778SOL    HW1 2469   2.931   3.386   2.002
  778SOL    HW2 2470   2.829   3.486   1.954
  779SOL     OW 2471   2.317   2.771   2.621
  779SOL    HW1 2472   2.276   2.688   2.645
  779SOL    HW2 2473   2.244   2.828   2.598
  780SOL     OW 2474   1.939   1.224   0.385
  780SOL    HW1 2475   1.863   1.256   0.336
  780SOL    HW2 2476   1.910   1.222   0.476
  781SOL     OW 2477   3.726   1.440   2.112
  781SOL    HW1 2478   3.664   1.507   2.141
  781SOL    HW2 2479   3.764   1.407   2.193
  782SOL     OW 2480   1.576   2.056   1.669
  782SOL    HW1 2481   1.602   1.976   1.716
  782SOL    HW2 2482   1.501   2.089   1.718
  783SOL     OW 2483   0.065   1.798   0.898
  783SOL    HW1 2484   0.096   1.812   0.987
  783SOL    HW2 2485   0.046   1.705   0.893
  784SOL     OW 2486   2.168   1.353   0.452
  784SOL    HW1 2487   2.142   1.430   0.403
  784SOL    HW2 2488   2.092   1.295   0.448
  785SOL     OW 2489   0.219   1.362   3.904
  785SOL    HW1 2490   0.171   1.288   3.941
  785SOL    HW2 2491   0.152   1.412   3.856
  786SOL     OW 2492   0.324   1.385   0.956
  786SOL    HW1 2493   0.368   1.379   1.041
  786SOL    HW2 2494   0.233   1.405   0.979
  787SOL     OW 2495   1.797   2.520   3.617
  787SOL    HW1 2496   1.836   2.557   3.697
  787SOL    HW2 2497   1.744   2.447   3.648
  788SOL     OW 2498   1.812   0.132   0.466
  788SOL    HW1 2499   1.826   0.092   0.552
  788SOL    HW2 2500   1.744   0.198   0.481
  789SOL     OW 2501   0.760   0.899   1.482
  789SOL    HW1 2502   0.821   0.957   1.436
  789SOL    HW2 2503   0.673   0.932   1.458
  790SOL     OW 2504   1.259   2.987   3.165
  790SOL    HW1 2505   1.200   2.918   3.133
  790SOL    HW2 2506   1.253   3.056   3.099
  791SOL     OW 2507   1.002   3.442   0.762
  791SOL    HW1 2508   1.011   3.537   0.754
  791SOL    HW2 2509   0.922   3.422   0.715
  792SOL     OW 2510   0.591   1.425   1.265
  792SOL    HW1 2511   0.572   1.372   1.342
  792SOL    HW2 2512   0.681   1.403   1.241
  793SOL     OW 2513   3.104   0.274   0.425
  793SOL    HW1 2514   3.106   0.188   0.382
  793SOL    HW2 2515   3.090   0.255   0.517
  794SOL     OW 2516   2.448   0.030   2.001
  794SOL    HW1 2517   2.515  -0.021   2.046
  794SOL    HW2 2518   2.433   0.106   2.057
  795SOL     OW 2519   0.536   0.693   3.230
  795SOL    HW1 2520   0.603   0.634   3.196
  795SOL    HW2 2521   0.454   0.659   3.195
  796SOL     OW 2522   0.059   2.890   0.735
  796SOL    HW1 2523   0.144   2.917   0.702
  796SOL    HW2 2524   0.045   2.804   0.696
  797SOL     OW 2525   3.300   1.841   2.802
  797SOL    HW1 2526   3.299   1.769   2.865
  797SOL    HW2 2527   3.376   1.824   2.746
  798SOL     OW 2528   1.725   2.870   0.627
  798SOL    HW1 2529   1.733   2.790   0.678
  798SOL    HW2 2530   1.792   2.862   0.559
  799SOL     OW 2531   0.904   2.858   0.757
  799SOL    HW1 2532   0.941   2.771   0.773
  799SOL    HW2 2533   0.896   2.864   0.662
  800SOL     OW 2534   2.395  -0.000   1.704
  800SOL    HW1 2535   2.388  -0.041   1.790
  800SOL    HW2 2536   2.424   0.089   1.722
  801SOL     OW 2537   3.102   2.610   3.393
  801SOL    HW1 2538   3.011   2.612   3.422
  801SOL    HW2 2539   3.097   2.580   3.302
  802SOL     OW 2540   0.245   2.921   3.031
  802SOL    HW1 2541   0.328   2.950   2.993
  802SOL    HW2 2542   0.195   3.002   3.044
  803SOL     OW 2543   0.744   0.919   1.819
  803SOL    HW1 2544   0.680   0.936   1.750
  803SOL    HW2 2545   0.694   0.871   1.886
  804SOL     OW 2546   2.311   1.646   1.967
  804SOL    HW1 2547   2.353   1.697   2.037
  804SOL    HW2 2548   2.225   1.686   1.956
  805SOL     OW 2549  -0.012   0.601   2.933
  805SOL    HW1 2550   0.047   0.562   2.869
  805SOL    HW2 2551   0.046   0.644   2.996
  806SOL     OW 2552   1.067   3.010   0.026
  806SOL    HW1 2553   1.053   2.918   0.049
  806SOL    HW2 2554   1.059   3.011  -0.070
  807SOL     OW 2555   2.138   2.805   1.943
  807SOL    HW1 2556   2.142   2.740   1.874
  807SOL    HW2 2557   2.217   2.858   1.931
  808SOL     OW 2558   0.856   2.326   1.940
  808SOL    HW1 2559   0.897   2.374   1.867
  808SOL    HW2 2560   0.805   2.392   1.986
  809SOL     OW 2561   0.036   0.753   1.860
  809SOL    HW1 2562   0.036   0.819   1.929
  809SOL    HW2 2563   0.009   0.800   1.781
  810SOL     OW 2564   2.733   1.679   3.191
  810SOL    HW1 2565   2.758   1.604   3.244
  810SOL    HW2 2566   2.651   1.653   3.149
  811SOL     OW 2567   0.271   2.455   1.195
  811SOL    HW1 2568   0.307   2.460   1.283
  811SOL    HW2 2569   0.243   2.364   1.185
  812SOL     OW 2570   2.154   0.195   2.609
  812SOL    HW1 2571   2.221   0.128   2.621
  812SOL    HW2 2572   2.183   0.245   2.533
  813SOL     OW 2573   0.107   2.169   0.601
  813SOL    HW1 2574   0.092   2.125   0.685
  813SOL    HW2 2575   0.151   2.104   0.547
  814SOL     OW 2576   2.064   1.229   2.671
  814SOL    HW1 2577   1.984   1.273   2.644
  814SOL    HW2 2578   2.128   1.250   2.603
  815SOL     OW 2579   1.734   3.779   1.034
  815SOL    HW1 2580   1.650   3.797   0.990
  815SOL    HW2 2581   1.728   3.686   1.058
  816SOL     OW 2582   3.907   3.071   1.092
  816SOL    HW1 2583   3.910   3.070   1.188
  816SOL    HW2 2584   3.991   3.033   1.065
  817SOL     OW 2585   3.781   1.248   3.520
  817SOL    HW1 2586   3.797   1.154   3.510
  817SOL    HW2 2587   3.865   1.289   3.502
  818SOL     OW 2588   2.875   3.191   3.380
  818SOL    HW1 2589   2.801   3.236   3.420
  818SOL    HW2 2590   2.946   3.256   3.382
  819SOL     OW 2591   0.497   2.903   0.831
  819SOL    HW1 2592   0.567   2.966   0.844
  819SOL    HW2 2593   0.490   2.857   0.915
  820SOL     OW 2594   1.735   0.972   0.187
  820SOL    HW1 2595   1.752   0.899   0.247
  820SOL    HW2 2596   1.822   1.008   0.169
  821SOL     OW 2597   1.815   1.907   3.637
  821SOL    HW1 2598   1.873   1.982   3.626
  821SOL    HW2 2599   1.749   1.937   3.700
  822SOL     OW 2600   2.168   0.308   3.522
  822SOL    HW1 2601   2.187   0.391   3.477
  822SOL    HW2 2602   2.094   0.329   3.579
  823SOL     OW 2603   2.110   0.795   1.011
  823SOL    HW1 2604   2.053   0.739   1.065
  823SOL    HW2 2605   2.187   0.741   0.993
  824SOL     OW 2606   3.257   0.072   3.526
  824SOL    HW1 2607   3.238   0.143   3.587
  824SOL    HW2 2608   3.171   0.035   3.506
  825SOL     OW 2609   3.663   3.100   1.012
  825SOL    HW1 2610   3.653   3.194   1.021
  825SOL    HW2 2611   3.747   3.080   1.055
  826SOL     OW 2612   3.629   2.364   1.188
  826SOL    HW1 2613   3.629   2.423   1.112
  826SOL    HW2 2614   3.606   2.420   1.262
  827SOL     OW 2615   3.800   3.746   0.142
  827SOL    HW1 2616   3.720   3.737   0.193
  827SOL    HW2 2617   3.867   3.701   0.195
  828SOL     OW 2618   3.640   2.526   0.968
  828SOL    HW1 2619   3.632   2.618   0.942
  828SOL    HW2 2620   3.652   2.479   0.886
  829SOL     OW 2621   0.529   0.453   0.456
  829SOL    HW1 2622   0.435   0.468   0.447
  829SOL    HW2 2623   0.563   0.466   0.367
  830SOL     OW 2624   0.990   3.576   1.130
  830SOL    HW1 2625   0.944   3.608   1.053
  830SOL    HW2 2626   1.082   3.597   1.114
  831SOL     OW 2627   3.440   0.808   0.317
  831SOL    HW1 2628   3.467   0.743   0.383
  831SOL    HW2 2629   3.345   0.813   0.326
  832SOL     OW 2630   2.316   1.758   3.655
  832SOL    HW1 2631   2.391   1.707   3.622
  832SOL    HW2 2632   2.247   1.694   3.667
  833SOL     OW 2633   0.468   1.923   1.569
  833SOL    HW1 2634   0.472   1.946   1.662
  833SOL    HW2 2635   0.374   1.918   1.550
  834SOL     OW 2636   2.919   3.863   3.880
  834SOL    HW1 2637   2.918   3.946   3.834
  834SOL    HW2 2638   2.861   3.806   3.830
  835SOL     OW 2639   3.460   0.092   1.435
  835SOL    HW1 2640   3.443   0.017   1.492
  835SOL    HW2 2641   3.553   0.084   1.411
  836SOL     OW 2642   0.466   1.608   3.465
  836SOL    HW1 2643   0.402   1.587   3.533
  836SOL    HW2 2644   0.493   1.698   3.485
  837SOL     OW 2645   2.758   3.750   1.208
  837SOL    HW1 2646   2.738   3.804   1.131
  837SOL    HW2 2647   2.801   3.672   1.172
  838SOL     OW 2648   1.844   0.745   0.310
  838SOL    HW1 2649   1.852   0.685   0.384
  838SOL    HW2 2650   1.934   0.767   0.286
  839SOL     OW 2651   3.505   0.710   3.100
  839SOL    HW1 2652   3.576   0.646   3.096
  839SOL    HW2 2653   3.426   0.658   3.109
  840SOL     OW 2654   0.604   3.735   0.291
  840SOL    HW1 2655   0.670   3.680   0.334
  840SOL    HW2 2656   0.524   3.683   0.296
  841SOL     OW 2657   0.262   1.299   0.408
  841SOL    HW1 2658   0.204   1.371   0.431
  841SOL    HW2 2659   0.320   1.290   0.483
  842SOL     OW 2660   0.457   0.254   2.630
  842SOL    HW1 2661   0.536   0.204   2.608
  842SOL    HW2 2662   0.403   0.192   2.678
  843SOL     OW 2663   2.784   0.825   1.167
  843SOL    HW1 2664   2.862   0.878   1.184
  843SOL    HW2 2665   2.783   0.759   1.236
  844SOL     OW 2666   0.075   3.408   1.407
  844SOL    HW1 2667   0.002   3.458   1.447
  844SOL    HW2 2668   0.151   3.465   1.417
  845SOL     OW 2669   2.588   0.187   2.613
  845SOL    HW1 2670   2.621   0.243   2.682
  845SOL    HW2 2671   2.538   0.119   2.658
  846SOL     OW 2672   1.555   3.814   0.257
  846SOL    HW1 2673   1.478   3.870   0.267
  846SOL    HW2 2674   1.521   3.732   0.222
  847SOL     OW 2675   2.081   0.086   1.141
  847SOL    HW1 2676   2.014   0.124   1.084
  847SOL    HW2 2677   2.118   0.161   1.187
  848SOL     OW 2678   3.940   0.322   0.117
  848SOL    HW1 2679   3.901   0.382   0.054
  848SOL    HW2 2680   3.888   0.242   0.108
  849SOL     OW 2681   3.835   0.974   1.723
  849SOL    HW1 2682   3.885   1.052   1.701
  849SOL    HW2 2683   3.759   1.006   1.772
  850SOL     OW 2684   3.109   1.748   2.355
  850SOL    HW1 2685   3.098   1.682   2.423
  850SOL    HW2 2686   3.204   1.753   2.342
  851SOL     OW 2687   1.176   2.288   0.757
  851SOL    HW1 2688   1.116   2.340   0.704
  851SOL    HW2 2689   1.126   2.269   0.837
  852SOL     OW 2690   0.022   3.637   0.866
  852SOL    HW1 2691   0.033   3.578   0.941
  852SOL    HW2 2692  -0.019   3.582   0.799
  853SOL     OW 2693   1.469   2.662   2.512
  853SOL    HW1 2694   1.374   2.659   2.500
  853SOL    HW2 2695   1.485   2.616   2.594
  854SOL     OW 2696   1.349   3.421   0.787
  854SOL    HW1 2697   1.292   3.346   0.769
  854SOL    HW2 2698   1.431   3.383   0.818
  855SOL     OW 2699   1.312   3.713   1.901
  855SOL    HW1 2700   1.288   3.803   1.921
  855SOL    HW2 2701   1.405   3.717   1.879
  856SOL     OW 2702   0.391   0.146   3.536
  856SOL    HW1 2703   0.381   0.155   3.631
  856SOL    HW2 2704   0.378   0.052   3.520
  857SOL     OW 2705   0.772   3.427   0.642
  857SOL    HW1 2706   0.722   3.508   0.652
  857SOL    HW2 2707   0.705   3.359   0.634
  858SOL     OW 2708   0.199   1.663   3.377
  858SOL    HW1 2709   0.237   1.575   3.386
  858SOL    HW2 2710   0.266   1.714   3.332
  859SOL     OW 2711   0.517   3.847   3.783
  859SOL    HW1 2712   0.438   3.895   3.759
  859SOL    HW2 2713   0.485   3.770   3.829
  860SOL     OW 2714   2.163   3.943   2.229
  860SOL    HW1 2715   2.224   3.890   2.280
  860SOL    HW2 2716   2.078   3.926   2.269
  861SOL     OW 2717   0.652   3.368   1.431
  861SOL    HW1 2718   0.738   3.402   1.406
  861SOL    HW2 2719   0.657   3.359   1.526
  862SOL     OW 2720   2.147   2.137   3.106
  862SOL    HW1 2721   2.111   2.119   3.193
  862SOL    HW2 2722   2.241   2.125   3.116
  863SOL     OW 2723   3.265   2.158   0.951
  863SOL    HW1 2724   3.223   2.236   0.916
  863SOL    HW2 2725   3.193   2.105   0.985
  864SOL     OW 2726   1.211   2.323   1.445
  864SOL    HW1 2727   1.226   2.394   1.382
  864SOL    HW2 2728   1.194   2.246   1.390
  865SOL     OW 2729   1.431   2.757   0.559
  865SOL    HW1 2730   1.430   2.839   0.509
  865SOL    HW2 2731   1.363   2.704   0.518
  866SOL     OW 2732   1.194   0.933   2.167
  866SOL    HW1 2733   1.118   0.908   2.114
  866SOL    HW2 2734   1.172   1.021   2.199
  867SOL     OW 2735   0.387   0.168   3.826
  867SOL    HW1 2736   0.417   0.191   3.914
  867SOL    HW2 2737   0.294   0.150   3.837
  868SOL     OW 2738   2.017   1.457   3.463
  868SOL    HW1 2739   1.973   1.382   3.503
  868SOL    HW2 2740   1.956   1.487   3.395
  869SOL     OW 2741   0.936   3.196   0.540
  869SOL    HW1 2742   0.883   3.228   0.467
  869SOL    HW2 2743   0.873   3.176   0.609
  870SOL     OW 2744   3.228   0.352   2.894
  870SOL    HW1 2745   3.237   0.398   2.978
  870SOL    HW2 2746   3.220   0.422   2.829
  871SOL     OW 2747   3.098   0.743   1.113
  871SOL    HW1 2748   3.077   0.835   1.133
  871SOL    HW2 2749   3.032   0.716   1.050
  872SOL     OW 2750   0.726   0.754   2.299
  872SOL    HW1 2751   0.681   0.680   2.259
  872SOL    HW2 2752   0.656   0.807   2.338
  873SOL     OW 2753   2.489   3.889   0.865
  873SOL    HW1 2754   2.443   3.972   0.872
  873SOL    HW2 2755   2.442   3.842   0.795
  874SOL     OW 2756   0.934   3.173   2.130
  874SOL    HW1 2757   0.999   3.230   2.170
  874SOL    HW2 2758   0.942   3.189   2.036
  875SOL     OW 2759   2.690   3.826   1.808
  875SOL    HW1 2760   2.691   3.810   1.714
  875SOL    HW2 2761   2.654   3.915   1.816
  876SOL     OW 2762   1.413   3.471   2.278
  876SOL    HW1 2763   1.352   3.495   2.208
  876SOL    HW2 2764   1.495   3.452   2.233
  877SOL     OW 2765   1.695   0.060   3.315
  877SOL    HW1 2766   1.675   0.145   3.355
  877SOL    HW2 2767   1.640  -0.002   3.362
  878SOL     OW 2768   1.915   1.169   0.662
  878SOL    HW1 2769   1.942   1.087   0.702
  878SOL    HW2 2770   1.926   1.234   0.731
  879SOL     OW 2771   0.286   2.802   1.224
  879SOL    HW1 2772   0.243   2.722   1.253
  879SOL    HW2 2773   0.372   2.774   1.192
  880SOL     OW 2774   0.391   0.240   0.123
  880SOL    HW1 2775   0.384   0.168   0.187
  880SOL    HW2 2776   0.325   0.303   0.151
  881SOL     OW 2777   3.546   0.045   3.209
  881SOL    HW1 2778   3.571  -0.043   3.180
  881SOL    HW2 2779   3.464   0.062   3.164
  882SOL     OW 2780   1.405   1.649   3.023
  882SOL    HW1 2781   1.492   1.686   3.037
  882SOL    HW2 2782   1.345   1.711   3.064
  883SOL     OW 2783   0.802   0.755   2.838
  883SOL    HW1 2784   0.863   0.735   2.909
  883SOL    HW2 2785   0.783   0.671   2.798
  884SOL     OW 2786   3.595   2.233   2.691
  884SOL    HW1 2787   3.560   2.321   2.682
  884SOL    HW2 2788   3.553   2.198   2.770
  885SOL     OW 2789   0.327   1.413   1.858
  885SOL    HW1 2790   0.336   1.502   1.826
  885SOL    HW2 2791   0.365   1.414   1.946
  886SOL     OW 2792   0.370   0.349   2.386
  886SOL    HW1 2793   0.416   0.337   2.468
  886SOL    HW2 2794   0.434   0.391   2.328
  887SOL     OW 2795   1.129   0.114   3.383
  887SOL    HW1 2796   1.073   0.133   3.458
  887SOL    HW2 2797   1.138   0.018   3.384
  888SOL     OW 2798   1.790   3.123   3.410
  888SOL    HW1 2799   1.787   3.217   3.395
  888SOL    HW2 2800   1.745   3.085   3.335
  889SOL     OW 2801   1.574   0.130   0.742
  889SOL    HW1 2802   1.552   0.108   0.832
  889SOL    HW2 2803   1.573   0.225   0.739
  890SOL     OW 2804   0.377   3.942   0.242
  890SOL    HW1 2805   0.322   3.936   0.321
  890SOL    HW2 2806   0.462   3.909   0.270
  891SOL     OW 2807   0.038   1.442   0.494
  891SOL    HW1 2808   0.015   1.513   0.555
  891SOL    HW2 2809  -0.035   1.439   0.432
  892SOL     OW 2810   2.760   0.027   3.129
  892SOL    HW1 2811   2.702   0.047   3.203
  892SOL    HW2 2812   2.753  -0.068   3.118
  893SOL     OW 2813   3.691   3.017   2.916
  893SOL    HW1 2814   3.608   3.057   2.941
  893SOL    HW2 2815   3.737   3.085   2.868
  894SOL     OW 2816   0.740   3.528   3.745
  894SOL    HW1 2817   0.723   3.453   3.802
  894SOL    HW2 2818   0.814   3.572   3.785
  895SOL     OW 2819   0.730   3.886   3.346
  895SOL    HW1 2820   0.654   3.858   3.296
  895SOL    HW2 2821   0.805   3.848   3.299
  896SOL     OW 2822   0.420   1.191   1.749
  896SOL    HW1 2823   0.355   1.123   1.765
  896SOL    HW2 2824   0.394   1.264   1.806
  897SOL     OW 2825   0.865   1.324   1.483
  897SOL    HW1 2826   0.783   1.276   1.471
  897SOL    HW2 2827   0.885   1.359   1.396
  898SOL     OW 2828   3.156   0.644   0.561
  898SOL    HW1 2829   3.205   0.564   0.578
  898SOL    HW2 2830   3.067   0.623   0.587
  899SOL     OW 2831   0.129   0.395   3.740
  899SOL    HW1 2832   0.220   0.402   3.711
  899SOL    HW2 2833   0.121   0.307   3.776
  900SOL     OW 2834   2.047   1.593   0.878
  900SOL    HW1 2835   1.970   1.545   0.849
  900SOL    HW2 2836   2.013   1.655   0.943
  901SOL     OW 2837   1.655   0.476   3.662
  901SOL    HW1 2838   1.691   0.559   3.631
  901SOL    HW2 2839   1.574   0.500   3.707
  902SOL     OW 2840   0.917   3.695   0.890
  902SOL    HW1 2841   0.822   3.711   0.883
  902SOL    HW2 2842   0.951   3.719   0.804
  903SOL     OW 2843   2.612   1.389   0.187
  903SOL    HW1 2844   2.595   1.334   0.111
  903SOL    HW2 2845   2.605   1.479   0.153
  904SOL     OW 2846   0.953   0.756   3.568
  904SOL    HW1 2847   0.912   0.672   3.592
  904SOL    HW2 2848   0.919   0.818   3.632
  905SOL     OW 2849   0.077   1.591   2.803
  905SOL    HW1 2850   0.060   1.586   2.896
  905SOL    HW2 2851   0.041   1.510   2.767
  906SOL     OW 2852   3.690   1.539   3.198
  906SOL    HW1 2853   3.757   1.584   3.147
  906SOL    HW2 2854   3.618   1.602   3.204
  907SOL     OW 2855   3.488   3.401   3.479
  907SOL    HW1 2856   3.430   3.444   3.542
  907SOL    HW2 2857   3.522   3.325   3.526
  908SOL     OW 2858   3.654   2.433   3.929
  908SOL    HW1 2859   3.628   2.342   3.912
  908SOL    HW2 2860   3.576   2.473   3.968
  909SOL     OW 2861   0.519   1.325   2.956
  909SOL    HW1 2862   0.489   1.236   2.975
  909SOL    HW2 2863   0.475   1.380   3.022
  910SOL     OW 2864   3.076   0.121   3.239
  910SOL    HW1 2865   3.021   0.088   3.310
  910SOL    HW2 2866   3.028   0.195   3.203
  911SOL     OW 2867   1.788   2.685   2.653
  911SOL    HW1 2868   1.732   2.607   2.647
  911SOL    HW2 2869   1.838   2.685   2.571
  912SOL     OW 2870   0.233   0.967   1.351
  912SOL    HW1 2871   0.161   0.908   1.375
  912SOL    HW2 2872   0.255   0.943   1.261
  913SOL     OW 2873   2.480   1.510   2.949
  913SOL    HW1 2874   2.439   1.428   2.977
  913SOL    HW2 2875   2.407   1.567   2.927
  914SOL     OW 2876   2.611   0.765   0.695
  914SOL    HW1 2877   2.540   0.768   0.630
  914SOL    HW2 2878   2.678   0.823   0.660
  915SOL     OW 2879   1.175   1.708   0.810
  915SOL    HW1 2880   1.238   1.722   0.740
  915SOL    HW2 2881   1.218   1.646   0.869
  916SOL     OW 2882   2.274   1.684   2.891
  916SOL    HW1 2883   2.321   1.736   2.826
  916SOL    HW2 2884   2.197   1.651   2.844
  917SOL     OW 2885   1.711   1.876   0.467
  917SOL    HW1 2886   1.676   1.961   0.439
  917SOL    HW2 2887   1.767   1.898   0.542
  918SOL     OW 2888   2.243   3.878   0.043
  918SOL    HW1 2889   2.302   3.906  -0.027
  918SOL    HW2 2890   2.300   3.859   0.117
  919SOL     OW 2891   2.643   1.621   1.731
  919SOL    HW1 2892   2.559   1.622   1.684
  919SOL    HW2 2893   2.708   1.612   1.662
  920SOL     OW 2894   0.999   3.876   3.889
  920SOL    HW1 2895   0.990   3.792   3.844
  920SOL    HW2 2896   0.909   3.902   3.910
  921SOL     OW 2897   1.460   1.431   1.676
  921SOL    HW1 2898   1.438   1.522   1.659
  921SOL    HW2 2899   1.424   1.384   1.601
  922SOL     OW 2900  -0.022   1.830   2.622
  922SOL    HW1 2901   0.056   1.883   2.612
  922SOL    HW2 2902   0.000   1.746   2.581
  923SOL     OW 2903   2.244   3.147   2.445
  923SOL    HW1 2904   2.193   3.216   2.485
  923SOL    HW2 2905   2.335   3.172   2.461
  924SOL     OW 2906   3.419   2.821   0.301
  924SOL    HW1 2907   3.385   2.736   0.327
  924SOL    HW2 2908   3.504   2.828   0.346
  925SOL     OW 2909   0.934   2.651   0.487
  925SOL    HW1 2910   0.894   2.737   0.492
  925SOL    HW2 2911   0.879   2.602   0.426
  926SOL     OW 2912   0.012   2.178   3.330
  926SOL    HW1 2913  -0.034   2.262   3.323
  926SOL    HW2 2914   0.033   2.171   3.424
  927SOL     OW 2915   0.049   2.990   2.819
  927SOL    HW1 2916  -0.019   2.928   2.793
  927SOL    HW2 2917   0.126   2.936   2.838
  928SOL     OW 2918   0.384   0.991   0.556
  928SOL    HW1 2919   0.427   0.905   0.554
  928SOL    HW2 2920   0.291   0.971   0.542
  929SOL     OW 2921   2.847   3.087   0.402
  929SOL    HW1 2922   2.913   3.017   0.405
  929SOL    HW2 2923   2.769   3.045   0.367
  930SOL     OW 2924   3.004   1.663   2.750
  930SOL    HW1 2925   3.075   1.616   2.707
  930SOL    HW2 2926   2.971   1.602   2.816
  931SOL     OW 2927   1.491   0.689   3.891
  931SOL    HW1 2928   1.557   0.620   3.899
  931SOL    HW2 2929   1.426   0.669   3.958
  932SOL     OW 2930   3.139   1.939   1.670
  932SOL    HW1 2931   3.129   2.008   1.736
  932SOL    HW2 2932   3.054   1.935   1.626
  933SOL     OW 2933   1.173   1.256   1.313
  933SOL    HW1 2934   1.150   1.341   1.276
  933SOL    HW2 2935   1.198   1.275   1.404
  934SOL     OW 2936   1.575   1.367   0.911
  934SOL    HW1 2937   1.560   1.299   0.976
  934SOL    HW2 2938   1.596   1.320   0.830
  935SOL     OW 2939   2.729   3.461   2.862
  935SOL    HW1 2940   2.721   3.462   2.766
  935SOL    HW2 2941   2.640   3.480   2.893
  936SOL     OW 2942   1.012   3.778   3.556
  936SOL    HW1 2943   1.011   3.697   3.504
  936SOL    HW2 2944   0.922   3.788   3.587
  937SOL     OW 2945   0.425   0.121   1.490
  937SOL    HW1 2946   0.354   0.130   1.553
  937SOL    HW2 2947   0.421   0.200   1.437
  938SOL     OW 2948   1.823   2.231   2.702
  938SOL    HW1 2949   1.848   2.193   2.787
  938SOL    HW2 2950   1.845   2.163   2.639
  939SOL     OW 2951   1.652   2.331   3.722
  939SOL    HW1 2952   1.560   2.357   3.710
  939SOL    HW2 2953   1.670   2.351   3.813
  940SOL     OW 2954   3.750   1.908   2.946
  940SOL    HW1 2955   3.738   1.826   2.994
  940SOL    HW2 2956   3.843   1.928   2.955
  941SOL     OW 2957   2.813   0.704   0.383
  941SOL    HW1 2958   2.727   0.662   0.387
  941SOL    HW2 2959   2.856   0.679   0.465
  942SOL     OW 2960   1.190   3.913   0.950
  942SOL    HW1 2961   1.193   4.000   0.910
  942SOL    HW2 2962   1.198   3.852   0.876
  943SOL     OW 2963   3.482   3.241   1.755
  943SOL    HW1 2964   3.543   3.284   1.815
  943SOL    HW2 2965   3.458   3.159   1.799
  944SOL     OW 2966   0.331   2.143   1.168
  944SOL    HW1 2967   0.327   2.151   1.073
  944SOL    HW2 2968   0.323   2.049   1.185
  945SOL     OW 2969   3.275   0.419   0.226
  945SOL    HW1 2970   3.358   0.457   0.256
  945SOL    HW2 2971   3.231   0.391   0.306
  946SOL     OW 2972   0.705   0.536   3.933
  946SOL    HW1 2973   0.800   0.527   3.942
  946SOL    HW2 2974   0.689   0.630   3.942
  947SOL     OW 2975   2.723   2.249   1.199
  947SOL    HW1 2976   2.793   2.288   1.251
  947SOL    HW2 2977   2.747   2.157   1.191
  948SOL     OW 2978   1.601   1.686   2.026
  948SOL    HW1 2979   1.647   1.627   1.967
  948SOL    HW2 2980   1.540   1.735   1.970
  949SOL     OW 2981   0.914   3.481   1.393
  949SOL    HW1 2982   0.968   3.445   1.322
  949SOL    HW2 2983   0.894   3.570   1.365
  950SOL     OW 2984   3.812   0.329   1.298
  950SOL    HW1 2985   3.898   0.322   1.341
  950SOL    HW2 2986   3.762   0.256   1.333
  951SOL     OW 2987   3.548   0.479   0.812
  951SOL    HW1 2988   3.630   0.519   0.838
  951SOL    HW2 2989   3.542   0.399   0.864
  952SOL     OW 2990   0.084   1.324   2.000
  952SOL    HW1 2991   0.167   1.338   1.955
  952SOL    HW2 2992   0.105   1.330   2.093
  953SOL     OW 2993   0.922   3.358   1.625
  953SOL    HW1 2994   0.923   3.405   1.542
  953SOL    HW2 2995   0.993   3.293   1.617
  954SOL     OW 2996   0.768   0.017   0.697
  954SOL    HW1 2997   0.739   0.047   0.783
  954SOL    HW2 2998   0.687   0.008   0.647
  955SOL     OW 2999   2.986   3.310   0.065
  955SOL    HW1 3000   2.970   3.404   0.060
  955SOL    HW2 3001   3.039   3.299   0.144
  956SOL     OW 3002   2.043   3.526   3.218
  956SOL    HW1 3003   2.136   3.550   3.217
  956SOL    HW2 3004   2.008   3.572   3.295
  957SOL     OW 3005   2.231   1.639   1.294
  957SOL    HW1 3006   2.269   1.632   1.207
  957SOL    HW2 3007   2.307   1.632   1.353
  958SOL     OW 3008   3.069   0.942   2.610
  958SOL    HW1 3009   2.999   0.877   2.612
  958SOL    HW2 3010   3.150   0.891   2.615
  959SOL     OW 3011   0.950   1.346   2.198
  959SOL    HW1 3012   0.932   1.437   2.175
  959SOL    HW2 3013   0.983   1.351   2.288
  960SOL     OW 3014   0.083   2.085   0.846
  960SOL    HW1 3015   0.057   1.993   0.847
  960SOL    HW2 3016   0.057   2.118   0.932
  961SOL     OW 3017   0.987   1.924   1.950
  961SOL    HW1 3018   1.058   1.897   1.891
  961SOL    HW2 3019   1.016   1.896   2.037
  962SOL     OW 3020   2.581   3.707   1.444
  962SOL    HW1 3021   2.641   3.721   1.370
  962SOL    HW2 3022   2.581   3.612   1.457
  963SOL     OW 3023   1.744   1.632   0.320
  963SOL    HW1 3024   1.692   1.565   0.362
  963SOL    HW2 3025   1.718   1.714   0.362
  964SOL     OW 3026   2.574   1.371   0.619
  964SOL    HW1 3027   2.661   1.333   0.603
  964SOL    HW2 3028   2.547   1.406   0.534
  965SOL     OW 3029   2.574   2.546   3.647
  965SOL    HW1 3030   2.565   2.615   3.581
  965SOL    HW2 3031   2.646   2.576   3.703
  966SOL     OW 3032   2.149   1.298   1.992
  966SOL    HW1 3033   2.070   1.265   1.949
  966SOL    HW2 3034   2.140   1.393   1.987
  967SOL     OW 3035   0.866   1.751   3.813
  967SOL    HW1 3036   0.951   1.783   3.845
  967SOL    HW2 3037   0.804   1.776   3.881
  968SOL     OW 3038   1.457   1.357   1.332
  968SOL    HW1 3039   1.467   1.272   1.376
  968SOL    HW2 3040   1.462   1.336   1.239
  969SOL     OW 3041   1.463   1.872   1.215
  969SOL    HW1 3042   1.462   1.809   1.287
  969SOL    HW2 3043   1.495   1.822   1.140
  970SOL     OW 3044   1.372   0.570   0.744
  970SOL    HW1 3045   1.286   0.593   0.780
  970SOL    HW2 3046   1.404   0.651   0.705
  971SOL     OW 3047   2.102   1.779   1.849
  971SOL    HW1 3048   2.110   1.821   1.764
  971SOL    HW2 3049   2.035   1.830   1.895
  972SOL     OW 3050   3.067   3.508   2.650
  972SOL    HW1 3051   3.032   3.429   2.610
  972SOL    HW2 3052   3.154   3.482   2.681
  973SOL     OW 3053   0.571   3.199   0.591
  973SOL    HW1 3054   0.550   3.132   0.527
  973SOL    HW2 3055   0.643   3.163   0.643
  974SOL     OW 3056   2.746   0.421   0.938
  974SOL    HW1 3057   2.719   0.437   1.029
  974SOL    HW2 3058   2.818   0.359   0.945
  975SOL     OW 3059   1.164   0.345   0.297
  975SOL    HW1 3060   1.246   0.381   0.265
  975SOL    HW2 3061   1.105   0.347   0.221
  976SOL     OW 3062  -0.016   0.021   1.126
  976SOL    HW1 3063   0.060   0.066   1.163
  976SOL    HW2 3064   0.003  -0.072   1.139
  977SOL     OW 3065   0.621   0.919   2.946
  977SOL    HW1 3066   0.660   0.940   3.030
  977SOL    HW2 3067   0.689   0.870   2.899
  978SOL     OW 3068   3.366   2.632   1.957
  978SOL    HW1 3069   3.410   2.584   2.027
  978SOL    HW2 3070   3.323   2.705   2.001
  979SOL     OW 3071   0.488   3.013   0.388
  979SOL    HW1 3072   0.412   2.964   0.419
  979SOL    HW2 3073   0.532   2.952   0.328
  980SOL     OW 3074   1.275   2.039   2.354
  980SOL    HW1 3075   1.289   2.123   2.310
  980SOL    HW2 3076   1.231   2.062   2.436
  981SOL     OW 3077   0.090   3.717   1.450
  981SOL    HW1 3078   0.143   3.657   1.503
  981SOL    HW2 3079   0.078   3.794   1.505
  982SOL     OW 3080   0.834   1.561   3.153
  982SOL    HW1 3081   0.914   1.553   3.205
  982SOL    HW2 3082   0.784   1.482   3.174
  983SOL     OW 3083   2.371   1.557   1.049
  983SOL    HW1 3084   2.278   1.551   1.027
  983SOL    HW2 3085   2.416   1.531   0.968
  984SOL     OW 3086   3.835   1.769   3.315
  984SOL    HW1 3087   3.762   1.731   3.364
  984SOL    HW2 3088   3.809   1.859   3.299
  985SOL     OW 3089   3.493   0.171   0.950
  985SOL    HW1 3090   3.449   0.220   1.019
  985SOL    HW2 3091   3.430   0.105   0.923
  986SOL     OW 3092   0.490   0.844   2.480
  986SOL    HW1 3093   0.421   0.906   2.504
  986SOL    HW2 3094   0.513   0.801   2.563
  987SOL     OW 3095   0.589   3.625   3.474
  987SOL    HW1 3096   0.645   3.613   3.550
  987SOL    HW2 3097   0.550   3.539   3.459
  988SOL     OW 3098   1.308   3.561   2.513
  988SOL    HW1 3099   1.351   3.518   2.439
  988SOL    HW2 3100   1.292   3.490   2.575
  989SOL     OW 3101   0.898   1.062   1.301
  989SOL    HW1 3102   0.938   1.142   1.334
  989SOL    HW2 3103   0.952   1.037   1.226
  990SOL     OW 3104   2.970   2.705   1.178
  990SOL    HW1 3105   2.984   2.751   1.261
  990SOL    HW2 3106   2.877   2.681   1.180
  991SOL     OW 3107   3.462   2.370   2.166
  991SOL    HW1 3108   3.527   2.435   2.139
  991SOL    HW2 3109   3.440   2.394   2.256
  992SOL     OW 3110   3.731   3.476   2.773
  992SOL    HW1 3111   3.807   3.523   2.805
  992SOL    HW2 3112   3.722   3.503   2.681
  993SOL     OW 3113   1.005   1.514   0.893
  993SOL    HW1 3114   1.052   1.577   0.838
  993SOL    HW2 3115   1.011   1.550   0.981
  994SOL     OW 3116   2.540   1.684   0.284
  994SOL    HW1 3117   2.482   1.721   0.217
  994SOL    HW2 3118   2.480   1.640   0.344
  995SOL     OW 3119   1.388   1.376   3.054
  995SOL    HW1 3120   1.416   1.359   2.964
  995SOL    HW2 3121   1.346   1.462   3.051
  996SOL     OW 3122   0.426   1.053   2.834
  996SOL    HW1 3123   0.505   1.007   2.861
  996SOL    HW2 3124   0.442   1.075   2.742
  997SOL     OW 3125   3.270   1.054   1.236
  997SOL    HW1 3126   3.320   0.984   1.278
  997SOL    HW2 3127   3.265   1.123   1.302
  998SOL     OW 3128   0.920   1.189   0.631
  998SOL    HW1 3129   0.950   1.098   0.643
  998SOL    HW2 3130   1.001   1.239   0.622
  999SOL     OW 3131   2.376   0.560   2.693
  999SOL    HW1 3132   2.311   0.536   2.626
  999SOL    HW2 3133   2.413   0.642   2.662
 1000SOL     OW 3134   0.342   0.525   3.184
 1000SOL    HW1 3135   0.350   0.448   3.241
 1000SOL    HW2 3136   0.248   0.540   3.178
 1001SOL     OW 3137   2.451   3.124   2.193
 1001SOL    HW1 3138   2.518   3.170   2.143
 1001SOL    HW2 3139   2.493   3.104   2.277
 1002SOL     OW 3140   1.318   2.250   2.202
 1002SOL    HW1 3141   1.344   2.339   2.222
 1002SOL    HW2 3142   1.260   2.258   2.126
 1003SOL     OW 3143   2.574   1.669   2.359
 1003SOL    HW1 3144   2.518   1.643   2.432
 1003SOL    HW2 3145   2.663   1.661   2.393
 1004SOL     OW 3146   2.937   1.513   3.356
 1004SOL    HW1 3147   2.930   1.586   3.294
 1004SOL    HW2 3148   3.024   1.476   3.340
 1005SOL     OW 3149   2.586   0.536   0.366
 1005SOL    HW1 3150   2.664   0.490   0.394
 1005SOL    HW2 3151   2.523   0.467   0.344
 1006SOL     OW 3152   3.224   0.653   2.831
 1006SOL    HW1 3153   3.131   0.640   2.813
 1006SOL    HW2 3154   3.230   0.741   2.866
 1007SOL     OW 3155   2.485   3.540   2.638
 1007SOL    HW1 3156   2.407   3.505   2.683
 1007SOL    HW2 3157   2.485   3.495   2.554
 1008SOL     OW 3158   3.681   2.502   3.383
 1008SOL    HW1 3159   3.753   2.490   3.322
 1008SOL    HW2 3160   3.697   2.587   3.424
 1009SOL     OW 3161   0.566   3.224   3.707
 1009SOL    HW1 3162   0.584   3.280   3.783
 1009SOL    HW2 3163   0.483   3.181   3.728
 1010SOL     OW 3164   3.266   3.381   0.039
 1010SOL    HW1 3165   3.281   3.368   0.132
 1010SOL    HW2 3166   3.318   3.458   0.016
 1011SOL     OW 3167   0.483   3.029   2.317
 1011SOL    HW1 3168   0.573   3.033   2.350
 1011SOL    HW2 3169   0.487   3.076   2.233
 1012SOL     OW 3170   2.034   3.222   3.452
 1012SOL    HW1 3171   1.950   3.185   3.426
 1012SOL    HW2 3172   2.096   3.150   3.439
 1013SOL     OW 3173   2.079   1.559   3.129
 1013SOL    HW1 3174   2.156   1.545   3.073
 1013SOL    HW2 3175   2.058   1.471   3.162
 1014SOL     OW 3176   3.013   1.836   0.926
 1014SOL    HW1 3177   2.935   1.781   0.940
 1014SOL    HW2 3178   2.995   1.882   0.844
 1015SOL     OW 3179   0.709   0.460   2.479
 1015SOL    HW1 3180   0.697   0.417   2.394
 1015SOL    HW2 3181   0.668   0.546   2.469
 1016SOL     OW 3182   0.196   2.395   0.066
 1016SOL    HW1 3183   0.274   2.418   0.014
 1016SOL    HW2 3184   0.206   2.301   0.084
 1017SOL     OW 3185   2.456   3.244   0.460
 1017SOL    HW1 3186   2.452   3.318   0.521
 1017SOL    HW2 3187   2.369   3.205   0.463
 1018SOL     OW 3188   1.359   3.886   0.566
 1018SOL    HW1 3189   1.364   3.791   0.578
 1018SOL    HW2 3190   1.362   3.922   0.654
 1019SOL     OW 3191   2.891   0.113   3.727
 1019SOL    HW1 3192   2.916   0.205   3.725
 1019SOL    HW2 3193   2.796   0.113   3.720
 1020SOL     OW 3194   0.051   2.090   0.215
 1020SOL    HW1 3195  -0.008   2.162   0.194
 1020SOL    HW2 3196   0.030   2.023   0.150
 1021SOL     OW 3197   1.081   1.524   1.264
 1021SOL    HW1 3198   1.067   1.553   1.355
 1021SOL    HW2 3199   1.124   1.599   1.222
 1022SOL     OW 3200   0.335   0.619   1.275
 1022SOL    HW1 3201   0.413   0.613   1.220
 1022SOL    HW2 3202   0.264   0.637   1.214
 1023SOL     OW 3203   1.822   1.482   3.290
 1023SOL    HW1 3204   1.855   1.516   3.207
 1023SOL    HW2 3205   1.739   1.440   3.269
 1024SOL     OW 3206   3.905   2.210   2.593
 1024SOL    HW1 3207   3.847   2.214   2.669
 1024SOL    HW2 3208   3.890   2.292   2.546
 1025SOL     OW 3209   0.292   1.545   0.603
 1025SOL    HW1 3210   0.282   1.568   0.696
 1025SOL    HW2 3211   0.202   1.525   0.574
 1026SOL     OW 3212   1.698   1.536   2.845
 1026SOL    HW1 3213   1.743   1.460   2.882
 1026SOL    HW2 3214   1.705   1.603   2.913
 1027SOL     OW 3215   2.239   0.589   0.481
 1027SOL    HW1 3216   2.300   0.662   0.483
 1027SOL    HW2 3217   2.171   0.616   0.419
 1028SOL     OW 3218   2.201   0.470   0.705
 1028SOL    HW1 3219   2.256   0.529   0.756
 1028SOL    HW2 3220   2.204   0.506   0.616
 1029SOL     OW 3221   0.383   1.727   3.780
 1029SOL    HW1 3222   0.354   1.642   3.746
 1029SOL    HW2 3223   0.342   1.733   3.867
 1030SOL     OW 3224   0.495   0.099   1.115
 1030SOL    HW1 3225   0.557   0.156   1.068
 1030SOL    HW2 3226   0.537   0.013   1.114
 1031SOL     OW 3227   0.063   0.412   3.460
 1031SOL    HW1 3228  -0.030   0.392   3.465
 1031SOL    HW2 3229   0.092   0.414   3.551
 1032SOL     OW 3230   0.870   1.010   2.231
 1032SOL    HW1 3231   0.892   0.942   2.168
 1032SOL    HW2 3232   0.801   0.972   2.285
 1033SOL     OW 3233   3.543   0.350   3.252
 1033SOL    HW1 3234   3.496   0.275   3.216
 1033SOL    HW2 3235   3.487   0.381   3.323
 1034SOL     OW 3236   1.289   1.413   2.652
 1034SOL    HW1 3237   1.261   1.504   2.655
 1034SOL    HW2 3238   1.381   1.417   2.626
 1035SOL     OW 3239   1.997   3.772   1.082
 1035SOL    HW1 3240   1.908   3.779   1.048
 1035SOL    HW2 3241   2.021   3.862   1.106
 1036SOL     OW 3242   2.024   0.831   2.562
 1036SOL    HW1 3243   1.997   0.876   2.642
 1036SOL    HW2 3244   2.095   0.885   2.526
 1037SOL     OW 3245   3.803   3.128   3.780
 1037SOL    HW1 3246   3.726   3.131   3.835
 1037SOL    HW2 3247   3.818   3.035   3.763
 1038SOL     OW 3248   2.437   3.493   1.271
 1038SOL    HW1 3249   2.491   3.468   1.347
 1038SOL    HW2 3250   2.348   3.499   1.306
 1039SOL     OW 3251   3.658   1.552   0.776
 1039SOL    HW1 3252   3.594   1.611   0.736
 1039SOL    HW2 3253   3.606   1.485   0.819
 1040SOL     OW 3254   1.585   2.160   2.534
 1040SOL    HW1 3255   1.662   2.216   2.543
 1040SOL    HW2 3256   1.539   2.195   2.457
 1041SOL     OW 3257   0.059   2.264   3.599
 1041SOL    HW1 3258   0.121   2.334   3.580
 1041SOL    HW2 3259   0.018   2.291   3.682
 1042SOL     OW 3260   2.294   1.433   1.772
 1042SOL    HW1 3261   2.287   1.517   1.818
 1042SOL    HW2 3262   2.250   1.370   1.828
 1043SOL     OW 3263   2.081   2.762   0.145
 1043SOL    HW1 3264   2.159   2.788   0.194
 1043SOL    HW2 3265   2.070   2.830   0.079
 1044SOL     OW 3266   0.129   0.107   3.794
 1044SOL    HW1 3267   0.039   0.106   3.827
 1044SOL    HW2 3268   0.151   0.015   3.783
 1045SOL     OW 3269   3.056   2.008   2.797
 1045SOL    HW1 3270   3.108   1.958   2.859
 1045SOL    HW2 3271   3.089   1.982   2.711
 1046SOL     OW 3272   2.177   2.619   1.484
 1046SOL    HW1 3273   2.086   2.589   1.480
 1046SOL    HW2 3274   2.197   2.650   1.396
 1047SOL     OW 3275   2.895   3.335   2.362
 1047SOL    HW1 3276   2.916   3.246   2.334
 1047SOL    HW2 3277   2.953   3.391   2.311
 1048SOL     OW 3278   3.850   1.264   3.093
 1048SOL    HW1 3279   3.933   1.311   3.086
 1048SOL    HW2 3280   3.786   1.332   3.114
 1049SOL     OW 3281   1.615   0.791   1.606
 1049SOL    HW1 3282   1.626   0.747   1.691
 1049SOL    HW2 3283   1.695   0.771   1.558
 1050SOL     OW 3284   3.170   1.287   2.904
 1050SOL    HW1 3285   3.099   1.305   2.842
 1050SOL    HW2 3286   3.127   1.241   2.976
 1051SOL     OW 3287   2.973   3.371   1.155
 1051SOL    HW1 3288   2.909   3.378   1.084
 1051SOL    HW2 3289   3.003   3.460   1.170
 1052SOL     OW 3290   0.619   2.591   3.225
 1052SOL    HW1 3291   0.602   2.511   3.276
 1052SOL    HW2 3292   0.587   2.662   3.280
 1053SOL     OW 3293   3.953   2.468   1.026
 1053SOL    HW1 3294   3.892   2.542   1.017
 1053SOL    HW2 3295   4.031   2.506   1.066
 1054SOL     OW 3296   2.042   0.540   2.928
 1054SOL    HW1 3297   2.097   0.617   2.946
 1054SOL    HW2 3298   1.958   0.576   2.900
 1055SOL     OW 3299   3.593   0.475   3.593
 1055SOL    HW1 3300   3.688   0.464   3.586
 1055SOL    HW2 3301   3.580   0.530   3.670
 1056SOL     OW 3302   3.605   3.711   3.023
 1056SOL    HW1 3303   3.599   3.676   3.112
 1056SOL    HW2 3304   3.698   3.732   3.013
 1057SOL     OW 3305   1.885   0.710   2.340
 1057SOL    HW1 3306   1.889   0.764   2.418
 1057SOL    HW2 3307   1.925   0.627   2.366
 1058SOL     OW 3308   0.117   3.642   2.106
 1058SOL    HW1 3309   0.065   3.712   2.067
 1058SOL    HW2 3310   0.141   3.586   2.032
 1059SOL     OW 3311   3.839   3.104   3.367
 1059SOL    HW1 3312   3.919   3.067   3.404
 1059SOL    HW2 3313   3.780   3.113   3.442
 1060SOL     OW 3314   3.004   3.031   1.156
 1060SOL    HW1 3315   2.958   3.077   1.086
 1060SOL    HW2 3316   3.024   3.099   1.220
 1061SOL     OW 3317   1.357   0.732   3.606
 1061SOL    HW1 3318   1.353   0.754   3.699
 1061SOL    HW2 3319   1.444   0.761   3.578
 1062SOL     OW 3320   3.098   1.423   1.684
 1062SOL    HW1 3321   3.184   1.436   1.644
 1062SOL    HW2 3322   3.068   1.512   1.705
 1063SOL     OW 3323   1.669   0.708   2.639
 1063SOL    HW1 3324   1.739   0.696   2.703
 1063SOL    HW2 3325   1.690   0.791   2.596
 1064SOL     OW 3326   0.904   2.137   1.140
 1064SOL    HW1 3327   0.986   2.087   1.139
 1064SOL    HW2 3328   0.848   2.088   1.201
 1065SOL     OW 3329   2.158   2.280   2.791
 1065SOL    HW1 3330   2.180   2.254   2.702
 1065SOL    HW2 3331   2.188   2.207   2.845
 1066SOL     OW 3332   2.525   3.858   3.572
 1066SOL    HW1 3333   2.521   3.806   3.491
 1066SOL    HW2 3334   2.446   3.834   3.620
 1067SOL     OW 3335   0.626   2.779   2.925
 1067SOL    HW1 3336   0.597   2.693   2.957
 1067SOL    HW2 3337   0.595   2.783   2.835
 1068SOL     OW 3338   0.708   1.502   1.791
 1068SOL    HW1 3339   0.648   1.563   1.749
 1068SOL    HW2 3340   0.764   1.470   1.721
 1069SOL     OW 3341   1.668   1.327   0.429
 1069SOL    HW1 3342   1.651   1.234   0.412
 1069SOL    HW2 3343   1.583   1.362   0.457
 1070SOL     OW 3344   3.276   1.860   3.342
 1070SOL    HW1 3345   3.180   1.864   3.338
 1070SOL    HW2 3346   3.297   1.887   3.431
 1071SOL     OW 3347   2.595   2.559   1.882
 1071SOL    HW1 3348   2.556   2.498   1.820
 1071SOL    HW2 3349   2.591   2.644   1.837
 1072SOL     OW 3350   2.792   0.734   1.442
 1072SOL    HW1 3351   2.723   0.702   1.499
 1072SOL    HW2 3352   2.806   0.825   1.469
 1073SOL     OW 3353   3.027   0.785   3.565
 1073SOL    HW1 3354   3.091   0.770   3.634
 1073SOL    HW2 3355   2.966   0.711   3.572
 1074SOL     OW 3356   0.834   0.301   3.822
 1074SOL    HW1 3357   0.913   0.335   3.779
 1074SOL    HW2 3358   0.806   0.228   3.768
 1075SOL     OW 3359   3.850   3.323   1.644
 1075SOL    HW1 3360   3.938   3.288   1.657
 1075SOL    HW2 3361   3.856   3.414   1.673
 1076SOL     OW 3362   1.942   2.271   1.472
 1076SOL    HW1 3363   1.961   2.333   1.401
 1076SOL    HW2 3364   2.005   2.293   1.540
 1077SOL     OW 3365   3.556   2.570   2.957
 1077SOL    HW1 3366   3.540   2.499   3.018
 1077SOL    HW2 3367   3.476   2.576   2.905
 1078SOL     OW 3368   2.688   3.551   0.671
 1078SOL    HW1 3369   2.698   3.606   0.749
 1078SOL    HW2 3370   2.768   3.499   0.668
 1079SOL     OW 3371   2.802   0.527   1.697
 1079SOL    HW1 3372   2.831   0.503   1.785
 1079SOL    HW2 3373   2.869   0.492   1.639
 1080SOL     OW 3374   2.528   2.499   2.808
 1080SOL    HW1 3375   2.452   2.441   2.803
 1080SOL    HW2 3376   2.603   2.440   2.805
 1081SOL     OW 3377   1.018   0.149   3.643
 1081SOL    HW1 3378   0.949   0.089   3.671
 1081SOL    HW2 3379   1.084   0.145   3.712
 1082SOL     OW 3380   2.810   0.110   2.139
 1082SOL    HW1 3381   2.898   0.079   2.118
 1082SOL    HW2 3382   2.811   0.124   2.234
 1083SOL     OW 3383   0.169   1.603   2.173
 1083SOL    HW1 3384   0.245   1.660   2.180
 1083SOL    HW2 3385   0.105   1.653   2.121
 1084SOL     OW 3386   0.687   0.484   3.019
 1084SOL    HW1 3387   0.743   0.558   2.994
 1084SOL    HW2 3388   0.718   0.459   3.106
 1085SOL     OW 3389   3.685   2.386   3.672
 1085SOL    HW1 3390   3.658   2.422   3.756
 1085SOL    HW2 3391   3.776   2.358   3.686
 1086SOL     OW 3392   1.848   1.474   0.592
 1086SOL    HW1 3393   1.859   1.430   0.677
 1086SOL    HW2 3394   1.770   1.434   0.555
 1087SOL     OW 3395   1.788   2.360   0.993
 1087SOL    HW1 3396   1.823   2.422   1.058
 1087SOL    HW2 3397   1.866   2.318   0.956
 1088SOL     OW 3398   3.537   3.602   0.911
 1088SOL    HW1 3399   3.544   3.638   0.823
 1088SOL    HW2 3400   3.497   3.672   0.964
 1089SOL     OW 3401   3.344   1.713   2.021
 1089SOL    HW1 3402   3.344   1.719   1.925
 1089SOL    HW2 3403   3.323   1.621   2.039
 1090SOL     OW 3404   3.763   1.387   2.715
 1090SOL    HW1 3405   3.707   1.313   2.737
 1090SOL    HW2 3406   3.703   1.453   2.680
 1091SOL     OW 3407   1.063   1.668   0.505
 1091SOL    HW1 3408   1.150   1.700   0.529
 1091SOL    HW2 3409   1.006   1.744   0.515
 1092SOL     OW 3410   1.498   2.893   1.853
 1092SOL    HW1 3411   1.453   2.860   1.931
 1092SOL    HW2 3412   1.514   2.985   1.872
 1093SOL     OW 3413   0.859   3.929   0.295
 1093SOL    HW1 3414   0.845   3.886   0.210
 1093SOL    HW2 3415   0.771   3.940   0.331
 1094SOL     OW 3416   3.187   3.199   2.536
 1094SOL    HW1 3417   3.203   3.219   2.628
 1094SOL    HW2 3418   3.252   3.251   2.489
 1095SOL     OW 3419   1.341   0.500   2.833
 1095SOL    HW1 3420   1.416   0.488   2.774
 1095SOL    HW2 3421   1.373   0.470   2.918
 1096SOL     OW 3422   3.101   3.645   1.142
 1096SOL    HW1 3423   3.048   3.713   1.183
 1096SOL    HW2 3424   3.185   3.648   1.188
 1097SOL     OW 3425   3.006   3.832   0.592
 1097SOL    HW1 3426   2.923   3.820   0.546
 1097SOL    HW2 3427   3.070   3.786   0.538
 1098SOL     OW 3428   0.033   3.254   3.933
 1098SOL    HW1 3429   0.018   3.305   3.854
 1098SOL    HW2 3430  -0.018   3.174   3.921
 1099SOL     OW 3431   1.313   3.567   1.123
 1099SOL    HW1 3432   1.312   3.516   1.042
 1099SOL    HW2 3433   1.391   3.535   1.169
 1100SOL     OW 3434   2.905   1.270   1.003
 1100SOL    HW1 3435   2.861   1.253   0.921
 1100SOL    HW2 3436   2.984   1.318   0.978
 1101SOL     OW 3437   2.160   2.331   1.652
 1101SOL    HW1 3438   2.181   2.260   1.712
 1101SOL    HW2 3439   2.152   2.408   1.707
 1102SOL     OW 3440   1.300   1.985   0.367
 1102SOL    HW1 3441   1.221   1.985   0.313
 1102SOL    HW2 3442   1.331   2.076   0.364
 1103SOL     OW 3443   2.978   2.986   0.812
 1103SOL    HW1 3444   3.066   2.987   0.848
 1103SOL    HW2 3445   2.941   2.903   0.842
 1104SOL     OW 3446   3.487   0.389   0.414
 1104SOL    HW1 3447   3.530   0.312   0.452
 1104SOL    HW2 3448   3.547   0.461   0.432
 1105SOL     OW 3449   3.269   2.498   1.466
 1105SOL    HW1 3450   3.325   2.525   1.539
 1105SOL    HW2 3451   3.276   2.569   1.403
 1106SOL     OW 3452   0.329   1.438   1.482
 1106SOL    HW1 3453   0.261   1.381   1.446
 1106SOL    HW2 3454   0.406   1.382   1.490
 1107SOL     OW 3455   3.901   2.098   1.950
 1107SOL    HW1 3456   3.952   2.174   1.922
 1107SOL    HW2 3457   3.857   2.127   2.030
 1108SOL     OW 3458   1.051   1.975   3.145
 1108SOL    HW1 3459   1.050   1.935   3.058
 1108SOL    HW2 3460   1.129   1.939   3.187
 1109SOL     OW 3461   1.565   3.453   0.416
 1109SOL    HW1 3462   1.596   3.530   0.367
 1109SOL    HW2 3463   1.551   3.386   0.348
 1110SOL     OW 3464   2.345   2.920   3.117
 1110SOL    HW1 3465   2.380   2.899   3.031
 1110SOL    HW2 3466   2.320   2.836   3.154
 1111SOL     OW 3467   2.251   0.986   2.379
 1111SOL    HW1 3468   2.284   1.061   2.330
 1111SOL    HW2 3469   2.219   0.925   2.313
 1112SOL     OW 3470   3.099   2.619   0.708
 1112SOL    HW1 3471   3.034   2.657   0.768
 1112SOL    HW2 3472   3.178   2.610   0.761
 1113SOL     OW 3473   3.793   1.418   2.411
 1113SOL    HW1 3474   3.839   1.352   2.462
 1113SOL    HW2 3475   3.723   1.449   2.468
 1114SOL     OW 3476  -0.016   2.950   0.248
 1114SOL    HW1 3477   0.025   3.031   0.217
 1114SOL    HW2 3478   0.047   2.914   0.310
 1115SOL     OW 3479   2.774   2.319   0.600
 1115SOL    HW1 3480   2.701   2.257   0.591
 1115SOL    HW2 3481   2.792   2.322   0.694
 1116SOL     OW 3482   3.303   1.524   3.719
 1116SOL    HW1 3483   3.244   1.544   3.792
 1116SOL    HW2 3484   3.389   1.556   3.749
 1117SOL     OW 3485   3.479   3.115   2.619
 1117SOL    HW1 3486   3.500   3.200   2.580
 1117SOL    HW2 3487   3.441   3.136   2.704
 1118SOL     OW 3488   0.763   2.183   2.508
 1118SOL    HW1 3489   0.723   2.110   2.555
 1118SOL    HW2 3490   0.691   2.244   2.492
 1119SOL     OW 3491   1.393   0.888   1.185
 1119SOL    HW1 3492   1.473   0.866   1.233
 1119SOL    HW2 3493   1.323   0.878   1.249
 1120SOL     OW 3494   3.560   3.565   3.258
 1120SOL    HW1 3495   3.554   3.507   3.182
 1120SOL    HW2 3496   3.551   3.507   3.334
 1121SOL     OW 3497   3.422   1.843   3.924
 1121SOL    HW1 3498   3.447   1.752   3.907
 1121SOL    HW2 3499   3.354   1.862   3.860
 1122SOL     OW 3500   1.535   2.461   1.553
 1122SOL    HW1 3501   1.500   2.541   1.593
 1122SOL    HW2 3502   1.471   2.393   1.573
 1123SOL     OW 3503   3.961   2.207   1.088
 1123SOL    HW1 3504   3.938   2.296   1.060
 1123SOL    HW2 3505   3.976   2.214   1.182
 1124SOL     OW 3506   1.434   1.817   1.838
 1124SOL    HW1 3507   1.350   1.809   1.884
 1124SOL    HW2 3508   1.411   1.813   1.745
 1125SOL     OW 3509   3.018   3.719   1.624
 1125SOL    HW1 3510   2.995   3.740   1.714
 1125SOL    HW2 3511   3.032   3.625   1.623
 1126SOL     OW 3512   1.330   3.816   2.372
 1126SOL    HW1 3513   1.411   3.860   2.397
 1126SOL    HW2 3514   1.318   3.748   2.439
 1127SOL     OW 3515   1.853   3.279   0.153
 1127SOL    HW1 3516   1.925   3.330   0.191
 1127SOL    HW2 3517   1.792   3.345   0.120
 1128SOL     OW 3518   1.800   0.116   2.717
 1128SOL    HW1 3519   1.749   0.096   2.795
 1128SOL    HW2 3520   1.882   0.068   2.729
 1129SOL     OW 3521   0.217   0.566   2.773
 1129SOL    HW1 3522   0.204   0.660   2.782
 1129SOL    HW2 3523   0.312   0.554   2.782
 1130SOL     OW 3524   2.057   3.252   3.762
 1130SOL    HW1 3525   2.098   3.339   3.769
 1130SOL    HW2 3526   2.046   3.239   3.668
 1131SOL     OW 3527   1.987   3.213   3.107
 1131SOL    HW1 3528   1.917   3.168   3.061
 1131SOL    HW2 3529   1.944   3.284   3.155
 1132SOL     OW 3530   2.837   1.243   0.579
 1132SOL    HW1 3531   2.888   1.212   0.504
 1132SOL    HW2 3532   2.885   1.211   0.656
 1133SOL     OW 3533   2.532   2.458   3.883
 1133SOL    HW1 3534   2.534   2.472   3.789
 1133SOL    HW2 3535   2.551   2.365   3.894
 1134SOL     OW 3536   1.676   2.444   2.658
 1134SOL    HW1 3537   1.607   2.413   2.716
 1134SOL    HW2 3538   1.753   2.392   2.683
 1135SOL     OW 3539   1.811   2.376   3.189
 1135SOL    HW1 3540   1.842   2.337   3.270
 1135SOL    HW2 3541   1.789   2.466   3.213
 1136SOL     OW 3542   3.521   1.190   3.414
 1136SOL    HW1 3543   3.614   1.206   3.428
 1136SOL    HW2 3544   3.500   1.239   3.334
 1137SOL     OW 3545   2.185   2.565   2.766
 1137SOL    HW1 3546   2.137   2.518   2.698
 1137SOL    HW2 3547   2.217   2.497   2.825
 1138SOL     OW 3548   1.744   1.778   3.369
 1138SOL    HW1 3549   1.806   1.711   3.396
 1138SOL    HW2 3550   1.732   1.833   3.447
 1139SOL     OW 3551   0.981   2.600   3.575
 1139SOL    HW1 3552   1.066   2.613   3.617
 1139SOL    HW2 3553   0.967   2.680   3.525
 1140SOL     OW 3554   2.318   0.125   0.956
 1140SOL    HW1 3555   2.268   0.201   0.927
 1140SOL    HW2 3556   2.259   0.076   1.013
 1141SOL     OW 3557   0.155   2.254   1.359
 1141SOL    HW1 3558   0.221   2.206   1.308
 1141SOL    HW2 3559   0.176   2.231   1.450
 1142SOL     OW 3560   2.762   1.318   1.577
 1142SOL    HW1 3561   2.704   1.310   1.501
 1142SOL    HW2 3562   2.794   1.408   1.573
 1143SOL     OW 3563   3.167   2.627   0.032
 1143SOL    HW1 3564   3.076   2.654   0.044
 1143SOL    HW2 3565   3.195   2.673  -0.047
 1144SOL     OW 3566   1.423   0.824   0.292
 1144SOL    HW1 3567   1.348   0.781   0.249
 1144SOL    HW2 3568   1.440   0.901   0.238
 1145SOL     OW 3569   3.374   0.781   2.540
 1145SOL    HW1 3570   3.397   0.702   2.588
 1145SOL    HW2 3571   3.458   0.825   2.524
 1146SOL     OW 3572   1.168   0.278   2.011
 1146SOL    HW1 3573   1.189   0.303   2.102
 1146SOL    HW2 3574   1.121   0.195   2.019
 1147SOL     OW 3575   1.995   3.481   1.185
 1147SOL    HW1 3576   2.039   3.563   1.208
 1147SOL    HW2 3577   1.910   3.508   1.151
 1148SOL     OW 3578   3.633   2.151   1.836
 1148SOL    HW1 3579   3.720   2.120   1.858
 1148SOL    HW2 3580   3.576   2.075   1.848
 1149SOL     OW 3581   2.436   0.756   3.608
 1149SOL    HW1 3582   2.384   0.694   3.557
 1149SOL    HW2 3583   2.517   0.709   3.628
 1150SOL     OW 3584   2.822   0.604   3.623
 1150SOL    HW1 3585   2.752   0.610   3.558
 1150SOL    HW2 3586   2.782   0.635   3.705
 1151SOL     OW 3587   2.414   3.655   3.810
 1151SOL    HW1 3588   2.498   3.697   3.827
 1151SOL    HW2 3589   2.400   3.598   3.886
 1152SOL     OW 3590   2.531   3.281   3.796
 1152SOL    HW1 3591   2.510   3.297   3.888
 1152SOL    HW2 3592   2.455   3.235   3.761
 1153SOL     OW 3593   1.985   3.712   0.652
 1153SOL    HW1 3594   1.912   3.653   0.632
 1153SOL    HW2 3595   2.007   3.693   0.744
 1154SOL     OW 3596   0.421   3.491   2.463
 1154SOL    HW1 3597   0.389   3.521   2.378
 1154SOL    HW2 3598   0.513   3.472   2.449
 1155SOL     OW 3599   1.911   3.396   2.218
 1155SOL    HW1 3600   1.884   3.487   2.204
 1155SOL    HW2 3601   1.997   3.390   2.175
 1156SOL     OW 3602   3.376   0.752   1.204
 1156SOL    HW1 3603   3.295   0.766   1.154
 1156SOL    HW2 3604   3.410   0.669   1.172
 1157SOL     OW 3605   1.202   2.649   0.452
 1157SOL    HW1 3606   1.110   2.657   0.476
 1157SOL    HW2 3607   1.203   2.582   0.384
 1158SOL     OW 3608   0.797   2.207   1.616
 1158SOL    HW1 3609   0.804   2.154   1.695
 1158SOL    HW2 3610   0.766   2.146   1.549
 1159SOL     OW 3611   0.386   3.382   3.478
 1159SOL    HW1 3612   0.343   3.395   3.562
 1159SOL    HW2 3613   0.464   3.331   3.498
 1160SOL     OW 3614   2.093   0.781   1.930
 1160SOL    HW1 3615   2.048   0.863   1.951
 1160SOL    HW2 3616   2.186   0.800   1.946
 1161SOL     OW 3617   2.872   0.693   0.919
 1161SOL    HW1 3618   2.850   0.603   0.942
 1161SOL    HW2 3619   2.799   0.745   0.953
 1162SOL     OW 3620   2.167   2.774   1.244
 1162SOL    HW1 3621   2.154   2.738   1.157
 1162SOL    HW2 3622   2.178   2.868   1.230
 1163SOL     OW 3623   3.740   0.674   0.906
 1163SOL    HW1 3624   3.776   0.754   0.945
 1163SOL    HW2 3625   3.789   0.603   0.949
 1164SOL     OW 3626   3.054   2.110   3.770
 1164SOL    HW1 3627   3.006   2.153   3.699
 1164SOL    HW2 3628   3.015   2.146   3.850
 1165SOL     OW 3629   1.478   3.860   3.431
 1165SOL    HW1 3630   1.436   3.790   3.480
 1165SOL    HW2 3631   1.430   3.939   3.456
 1166SOL     OW 3632   1.487   3.855   0.921
 1166SOL    HW1 3633   1.403   3.868   0.965
 1166SOL    HW2 3634   1.465   3.801   0.844
 1167SOL     OW 3635   2.328   0.647   0.899
 1167SOL    HW1 3636   2.320   0.571   0.956
 1167SOL    HW2 3637   2.396   0.700   0.941
 1168SOL     OW 3638   0.634   1.790   2.815
 1168SOL    HW1 3639   0.544   1.801   2.845
 1168SOL    HW2 3640   0.687   1.839   2.878
 1169SOL     OW 3641   1.210   2.718   1.818
 1169SOL    HW1 3642   1.145   2.658   1.857
 1169SOL    HW2 3643   1.259   2.752   1.893
 1170SOL     OW 3644   2.334   0.921   1.960
 1170SOL    HW1 3645   2.269   0.985   1.931
 1170SOL    HW2 3646   2.417   0.953   1.924
 1171SOL     OW 3647   0.274   3.042   1.372
 1171SOL    HW1 3648   0.268   2.961   1.321
 1171SOL    HW2 3649   0.242   3.110   1.313
 1172SOL     OW 3650   1.092   2.383   2.866
 1172SOL    HW1 3651   1.006   2.413   2.894
 1172SOL    HW2 3652   1.083   2.368   2.771
 1173SOL     OW 3653   2.939   2.232   2.892
 1173SOL    HW1 3654   2.977   2.149   2.865
 1173SOL    HW2 3655   2.948   2.233   2.987
 1174SOL     OW 3656   2.638   3.305   3.483
 1174SOL    HW1 3657   2.612   3.380   3.431
 1174SOL    HW2 3658   2.622   3.331   3.574
 1175SOL     OW 3659   0.723   2.461   1.455
 1175SOL    HW1 3660   0.773   2.413   1.389
 1175SOL    HW2 3661   0.779   2.535   1.479
 1176SOL     OW 3662   1.097   0.066   1.692
 1176SOL    HW1 3663   1.064   0.011   1.621
 1176SOL    HW2 3664   1.179   0.024   1.719
 1177SOL     OW 3665   0.236   0.860   2.321
 1177SOL    HW1 3666   0.317   0.829   2.361
 1177SOL    HW2 3667   0.167   0.810   2.364
 1178SOL     OW 3668   0.700   2.018   3.025
 1178SOL    HW1 3669   0.615   2.060   3.014
 1178SOL    HW2 3670   0.737   2.058   3.104
 1179SOL     OW 3671   2.793   1.740   1.276
 1179SOL    HW1 3672   2.722   1.676   1.276
 1179SOL    HW2 3673   2.859   1.705   1.216
 1180SOL     OW 3674   3.609   0.953   1.264
 1180SOL    HW1 3675   3.628   1.006   1.341
 1180SOL    HW2 3676   3.560   0.878   1.297
 1181SOL     OW 3677   3.063   3.375   3.462
 1181SOL    HW1 3678   2.988   3.389   3.519
 1181SOL    HW2 3679   3.139   3.379   3.520
 1182SOL     OW 3680   1.926   1.026   1.936
 1182SOL    HW1 3681   1.894   1.086   1.868
 1182SOL    HW2 3682   1.939   1.082   2.013
 1183SOL     OW 3683   2.416   3.918   1.294
 1183SOL    HW1 3684   2.352   3.943   1.361
 1183SOL    HW2 3685   2.447   3.832   1.322
 1184SOL     OW 3686   0.348   0.627   0.246
 1184SOL    HW1 3687   0.306   0.544   0.269
 1184SOL    HW2 3688   0.323   0.641   0.155
 1185SOL     OW 3689   2.706   3.013   3.763
 1185SOL    HW1 3690   2.626   3.060   3.740
 1185SOL    HW2 3691   2.700   3.000   3.858
 1186SOL     OW 3692   2.719   2.708   3.102
 1186SOL    HW1 3693   2.661   2.769   3.056
 1186SOL    HW2 3694   2.807   2.729   3.071
 1187SOL     OW 3695   2.488   2.017   2.912
 1187SOL    HW1 3696   2.582   1.995   2.908
 1187SOL    HW2 3697   2.450   1.972   2.837
 1188SOL     OW 3698   0.905   3.910   1.941
 1188SOL    HW1 3699   0.939   3.932   1.854
 1188SOL    HW2 3700   0.857   3.988   1.969
 1189SOL     OW 3701   2.740   3.820   0.508
 1189SOL    HW1 3702   2.708   3.909   0.521
 1189SOL    HW2 3703   2.662   3.765   0.512
 1190SOL     OW 3704   2.169   3.521   0.108
 1190SOL    HW1 3705   2.197   3.571   0.185
 1190SOL    HW2 3706   2.160   3.431   0.139
 1191SOL     OW 3707   0.199   0.253   0.499
 1191SOL    HW1 3708   0.109   0.270   0.474
 1191SOL    HW2 3709   0.193   0.209   0.584
 1192SOL     OW 3710   0.985   1.203   2.788
 1192SOL    HW1 3711   0.918   1.265   2.756
 1192SOL    HW2 3712   0.950   1.117   2.766
 1193SOL     OW 3713   1.060   1.617   2.154
 1193SOL    HW1 3714   1.058   1.708   2.183
 1193SOL    HW2 3715   1.079   1.623   2.060
 1194SOL     OW 3716   1.240   0.594   1.104
 1194SOL    HW1 3717   1.330   0.574   1.131
 1194SOL    HW2 3718   1.185   0.545   1.165
 1195SOL     OW 3719   3.117   3.178   3.736
 1195SOL    HW1 3720   3.184   3.173   3.805
 1195SOL    HW2 3721   3.048   3.232   3.775
 1196SOL     OW 3722   3.222   3.110   2.091
 1196SOL    HW1 3723   3.312   3.110   2.124
 1196SOL    HW2 3724   3.207   3.199   2.061
 1197SOL     OW 3725   0.793   1.781   1.763
 1197SOL    HW1 3726   0.713   1.816   1.803
 1197SOL    HW2 3727   0.852   1.765   1.836
 1198SOL     OW 3728   3.000   3.929   0.851
 1198SOL    HW1 3729   2.924   3.909   0.907
 1198SOL    HW2 3730   2.990   3.872   0.775
 1199SOL     OW 3731   3.263   2.821   3.747
 1199SOL    HW1 3732   3.355   2.792   3.749
 1199SOL    HW2 3733   3.240   2.823   3.654
 1200SOL     OW 3734   3.607   3.987   0.154
 1200SOL    HW1 3735   3.574   3.909   0.198
 1200SOL    HW2 3736   3.702   3.981   0.165
 1201SOL     OW 3737   0.900   2.119   3.527
 1201SOL    HW1 3738   0.920   2.096   3.617
 1201SOL    HW2 3739   0.959   2.190   3.505
 1202SOL     OW 3740   3.356   0.950   1.475
 1202SOL    HW1 3741   3.362   1.044   1.493
 1202SOL    HW2 3742   3.288   0.919   1.536
 1203SOL     OW 3743   1.316   3.219   1.818
 1203SOL    HW1 3744   1.308   3.313   1.803
 1203SOL    HW2 3745   1.243   3.180   1.771
 1204SOL     OW 3746   1.643   2.693   2.315
 1204SOL    HW1 3747   1.592   2.704   2.395
 1204SOL    HW2 3748   1.693   2.774   2.307
 1205SOL     OW 3749   0.076   0.598   3.237
 1205SOL    HW1 3750   0.038   0.686   3.238
 1205SOL    HW2 3751   0.027   0.551   3.304
 1206SOL     OW 3752   0.796   0.918   0.462
 1206SOL    HW1 3753   0.761   0.994   0.416
 1206SOL    HW2 3754   0.754   0.920   0.548
 1207SOL     OW 3755   3.801   2.873   3.628
 1207SOL    HW1 3756   3.834   2.792   3.667
 1207SOL    HW2 3757   3.780   2.850   3.538
 1208SOL     OW 3758   3.705   2.901   0.391
 1208SOL    HW1 3759   3.745   2.834   0.446
 1208SOL    HW2 3760   3.770   2.919   0.323
 1209SOL     OW 3761   2.853   2.354   1.905
 1209SOL    HW1 3762   2.922   2.290   1.923
 1209SOL    HW2 3763   2.777   2.301   1.880
 1210SOL     OW 3764   2.196   3.789   3.328
 1210SOL    HW1 3765   2.182   3.769   3.420
 1210SOL    HW2 3766   2.115   3.834   3.301
 1211SOL     OW 3767   3.014   2.855   1.419
 1211SOL    HW1 3768   3.069   2.847   1.497
 1211SOL    HW2 3769   3.013   2.949   1.400
 1212SOL     OW 3770   2.611   1.812   0.634
 1212SOL    HW1 3771   2.539   1.849   0.686
 1212SOL    HW2 3772   2.644   1.740   0.686
 1213SOL     OW 3773   1.054   0.368   0.054
 1213SOL    HW1 3774   0.973   0.340   0.010
 1213SOL    HW2 3775   1.036   0.457   0.082
 1214SOL     OW 3776   2.345   3.458   0.323
 1214SOL    HW1 3777   2.415   3.420   0.377
 1214SOL    HW2 3778   2.320   3.538   0.369
 1215SOL     OW 3779   0.411   0.858   1.642
 1215SOL    HW1 3780   0.338   0.874   1.701
 1215SOL    HW2 3781   0.444   0.771   1.667
 1216SOL     OW 3782   2.865   0.403   3.380
 1216SOL    HW1 3783   2.814   0.480   3.405
 1216SOL    HW2 3784   2.841   0.387   3.288
 1217SOL     OW 3785   1.619   2.616   0.699
 1217SOL    HW1 3786   1.629   2.629   0.793
 1217SOL    HW2 3787   1.545   2.670   0.675
 1218SOL     OW 3788   0.218   3.035   3.332
 1218SOL    HW1 3789   0.195   3.103   3.270
 1218SOL    HW2 3790   0.313   3.032   3.331
 1219SOL     OW 3791   2.211   2.061   0.947
 1219SOL    HW1 3792   2.268   2.108   1.008
 1219SOL    HW2 3793   2.248   1.973   0.942
 1220SOL     OW 3794   1.024   0.855   0.618
 1220SOL    HW1 3795   0.960   0.855   0.546
 1220SOL    HW2 3796   1.100   0.901   0.582
 1221SOL     OW 3797   1.728   3.898   2.281
 1221SOL    HW1 3798   1.800   3.935   2.332
 1221SOL    HW2 3799   1.651   3.910   2.337
 1222SOL     OW 3800   3.509   1.522   2.642
 1222SOL    HW1 3801   3.478   1.606   2.608
 1222SOL    HW2 3802   3.430   1.470   2.653
 1223SOL     OW 3803   0.150   1.216   0.727
 1223SOL    HW1 3804   0.075   1.274   0.737
 1223SOL    HW2 3805   0.112   1.133   0.699
 1224SOL     OW 3806   3.114   0.854   3.136
 1224SOL    HW1 3807   3.138   0.883   3.048
 1224SOL    HW2 3808   3.197   0.841   3.181
 1225SOL     OW 3809   2.044   2.932   2.904
 1225SOL    HW1 3810   1.972   2.881   2.867
 1225SOL    HW2 3811   2.068   2.887   2.985
 1226SOL     OW 3812   0.942   3.054   3.628
 1226SOL    HW1 3813   0.934   3.148   3.615
 1226SOL    HW2 3814   1.035   3.035   3.615
 1227SOL     OW 3815   0.172   0.059   3.306
 1227SOL    HW1 3816   0.184   0.030   3.396
 1227SOL    HW2 3817   0.198   0.151   3.307
 1228SOL     OW 3818   0.587   2.030   2.639
 1228SOL    HW1 3819   0.609   2.101   2.700
 1228SOL    HW2 3820   0.584   1.952   2.695
 1229SOL     OW 3821   0.651   3.724   0.840
 1229SOL    HW1 3822   0.651   3.757   0.750
 1229SOL    HW2 3823   0.559   3.706   0.859
 1230SOL     OW 3824   2.313   0.706   3.196
 1230SOL    HW1 3825   2.379   0.659   3.144
 1230SOL    HW2 3826   2.361   0.779   3.235
 1231SOL     OW 3827   0.757   3.119   0.759
 1231SOL    HW1 3828   0.816   3.052   0.793
 1231SOL    HW2 3829   0.756   3.187   0.826
 1232SOL     OW 3830   2.429   3.196   1.517
 1232SOL    HW1 3831   2.451   3.139   1.443
 1232SOL    HW2 3832   2.339   3.172   1.540
 1233SOL     OW 3833   2.912   2.134   2.198
 1233SOL    HW1 3834   2.896   2.041   2.211
 1233SOL    HW2 3835   2.841   2.178   2.246
 1234SOL     OW 3836   3.049   2.122   1.929
 1234SOL    HW1 3837   3.023   2.121   2.021
 1234SOL    HW2 3838   3.127   2.178   1.926
 1235SOL     OW 3839   2.254   1.028   0.389
 1235SOL    HW1 3840   2.228   1.056   0.477
 1235SOL    HW2 3841   2.316   1.094   0.360
 1236SOL     OW 3842   3.603   1.832   3.456
 1236SOL    HW1 3843   3.517   1.870   3.474
 1236SOL    HW2 3844   3.658   1.863   3.527
 1237SOL     OW 3845   2.310   1.302   3.774
 1237SOL    HW1 3846   2.245   1.365   3.742
 1237SOL    HW2 3847   2.394   1.338   3.745
 1238SOL     OW 3848   0.116   1.841   1.998
 1238SOL    HW1 3849   0.071   1.925   1.994
 1238SOL    HW2 3850   0.071   1.787   1.932
 1239SOL     OW 3851   2.295   1.314   3.022
 1239SOL    HW1 3852   2.270   1.320   3.115
 1239SOL    HW2 3853   2.227   1.259   2.983
 1240SOL     OW 3854   3.125   1.441   0.994
 1240SOL    HW1 3855   3.203   1.429   1.048
 1240SOL    HW2 3856   3.159   1.456   0.906
 1241SOL     OW 3857   3.318   1.313   2.547
 1241SOL    HW1 3858   3.367   1.242   2.590
 1241SOL    HW2 3859   3.231   1.310   2.587
 1242SOL     OW 3860   3.882   0.609   0.397
 1242SOL    HW1 3861   3.922   0.523   0.381
 1242SOL    HW2 3862   3.922   0.667   0.332
 1243SOL     OW 3863   2.976   2.745   2.393
 1243SOL    HW1 3864   2.903   2.796   2.428
 1243SOL    HW2 3865   3.025   2.717   2.470
 1244SOL     OW 3866   3.019   3.471   3.754
 1244SOL    HW1 3867   3.043   3.563   3.755
 1244SOL    HW2 3868   3.089   3.428   3.804
 1245SOL     OW 3869   2.409   2.807   1.484
 1245SOL    HW1 3870   2.317   2.781   1.483
 1245SOL    HW2 3871   2.440   2.783   1.571
 1246SOL     OW 3872   2.113   0.263   1.595
 1246SOL    HW1 3873   2.169   0.300   1.663
 1246SOL    HW2 3874   2.029   0.307   1.607
 1247SOL     OW 3875   3.250   1.302   2.142
 1247SOL    HW1 3876   3.208   1.227   2.184
 1247SOL    HW2 3877   3.184   1.371   2.145
 1248SOL     OW 3878   3.845   1.405   1.856
 1248SOL    HW1 3879   3.787   1.432   1.928
 1248SOL    HW2 3880   3.919   1.364   1.900
 1249SOL     OW 3881   3.544   2.812   3.849
 1249SOL    HW1 3882   3.584   2.776   3.928
 1249SOL    HW2 3883   3.618   2.837   3.793
 1250SOL     OW 3884   3.475   3.664   2.046
 1250SOL    HW1 3885   3.391   3.620   2.058
 1250SOL    HW2 3886   3.539   3.593   2.040
 1251SOL     OW 3887   0.915   0.554   0.269
 1251SOL    HW1 3888   0.868   0.482   0.313
 1251SOL    HW2 3889   0.852   0.626   0.268
 1252SOL     OW 3890   2.066   3.676   1.448
 1252SOL    HW1 3891   2.154   3.644   1.428
 1252SOL    HW2 3892   2.077   3.768   1.470
 1253SOL     OW 3893   1.672   1.714   3.113
 1253SOL    HW1 3894   1.646   1.720   3.205
 1253SOL    HW2 3895   1.753   1.765   3.108
 1254SOL     OW 3896   0.857   2.340   3.148
 1254SOL    HW1 3897   0.893   2.278   3.085
 1254SOL    HW2 3898   0.855   2.424   3.102
 1255SOL     OW 3899   2.945   2.395   0.350
 1255SOL    HW1 3900   3.008   2.350   0.406
 1255SOL    HW2 3901   2.859   2.367   0.383
 1256SOL     OW 3902   2.507   1.208   3.979
 1256SOL    HW1 3903   2.546   1.153   3.911
 1256SOL    HW2 3904   2.416   1.218   3.954
 1257SOL     OW 3905   3.264   3.028  -0.010
 1257SOL    HW1 3906   3.211   3.007   0.068
 1257SOL    HW2 3907   3.269   2.945  -0.058
 1258SOL     OW 3908   0.275   2.599   3.293
 1258SOL    HW1 3909   0.223   2.605   3.213
 1258SOL    HW2 3910   0.346   2.661   3.280
 1259SOL     OW 3911   1.663   2.756   1.489
 1259SOL    HW1 3912   1.676   2.850   1.489
 1259SOL    HW2 3913   1.581   2.743   1.536
 1260SOL     OW 3914   1.359   1.457   0.625
 1260SOL    HW1 3915   1.326   1.483   0.711
 1260SOL    HW2 3916   1.298   1.388   0.597
 1261SOL     OW 3917   3.524   0.223   3.763
 1261SOL    HW1 3918   3.463   0.275   3.710
 1261SOL    HW2 3919   3.563   0.162   3.701
 1262SOL     OW 3920   1.515   1.393   3.305
 1262SOL    HW1 3921   1.482   1.403   3.216
 1262SOL    HW2 3922   1.462   1.453   3.358
 1263SOL     OW 3923   2.903   2.900   2.156
 1263SOL    HW1 3924   2.921   2.809   2.181
 1263SOL    HW2 3925   2.950   2.952   2.221
 1264SOL     OW 3926   2.763   2.599   2.098
 1264SOL    HW1 3927   2.835   2.565   2.045
 1264SOL    HW2 3928   2.684   2.572   2.051
 1265SOL     OW 3929   3.253   0.693   2.153
 1265SOL    HW1 3930   3.244   0.613   2.101
 1265SOL    HW2 3931   3.222   0.763   2.096
 1266SOL     OW 3932   0.195   3.632   3.430
 1266SOL    HW1 3933   0.164   3.552   3.387
 1266SOL    HW2 3934   0.202   3.608   3.523
 1267SOL     OW 3935   2.911   1.515   0.662
 1267SOL    HW1 3936   2.902   1.429   0.621
 1267SOL    HW2 3937   2.862   1.574   0.605
 1268SOL     OW 3938   1.065   2.064   3.803
 1268SOL    HW1 3939   1.090   1.979   3.767
 1268SOL    HW2 3940   1.143   2.095   3.849
 1269SOL     OW 3941   0.369   0.910   3.900
 1269SOL    HW1 3942   0.311   0.835   3.901
 1269SOL    HW2 3943   0.457   0.872   3.904
 1270SOL     OW 3944   2.251   0.878   0.763
 1270SOL    HW1 3945   2.293   0.797   0.736
 1270SOL    HW2 3946   2.202   0.907   0.686
 1271SOL     OW 3947   2.018   3.548   0.880
 1271SOL    HW1 3948   2.095   3.492   0.890
 1271SOL    HW2 3949   2.034   3.622   0.939
 1272SOL     OW 3950   2.298   1.460   3.314
 1272SOL    HW1 3951   2.218   1.419   3.347
 1272SOL    HW2 3952   2.273   1.549   3.293
 1273SOL     OW 3953   2.666   0.126   0.532
 1273SOL    HW1 3954   2.679   0.147   0.439
 1273SOL    HW2 3955   2.710   0.196   0.579
 1274SOL     OW 3956   1.258   0.335   0.953
 1274SOL    HW1 3957   1.211   0.416   0.971
 1274SOL    HW2 3958   1.328   0.333   1.017
 1275SOL     OW 3959   0.016   2.824   3.315
 1275SOL    HW1 3960   0.095   2.878   3.321
 1275SOL    HW2 3961  -0.018   2.841   3.227
 1276SOL     OW 3962   0.363   3.118   3.834
 1276SOL    HW1 3963   0.344   3.079   3.920
 1276SOL    HW2 3964   0.298   3.079   3.775
 1277SOL     OW 3965   0.535   0.544   1.075
 1277SOL    HW1 3966   0.627   0.571   1.077
 1277SOL    HW2 3967   0.519   0.521   0.984
 1278SOL     OW 3968   1.863  -0.003   1.611
 1278SOL    HW1 3969   1.855   0.030   1.700
 1278SOL    HW2 3970   1.953   0.017   1.586
 1279SOL     OW 3971   2.435   2.366   2.360
 1279SOL    HW1 3972   2.453   2.456   2.385
 1279SOL    HW2 3973   2.355   2.370   2.307
 1280SOL     OW 3974   2.081   0.812   3.444
 1280SOL    HW1 3975   2.145   0.794   3.513
 1280SOL    HW2 3976   2.010   0.859   3.488
 1281SOL     OW 3977   1.436   3.946   1.688
 1281SOL    HW1 3978   1.518   3.993   1.703
 1281SOL    HW2 3979   1.460   3.853   1.693
 1282SOL     OW 3980   3.182   0.886   0.650
 1282SOL    HW1 3981   3.129   0.923   0.579
 1282SOL    HW2 3982   3.200   0.796   0.623
 1283SOL     OW 3983   0.624   2.830   0.252
 1283SOL    HW1 3984   0.653   2.837   0.161
 1283SOL    HW2 3985   0.631   2.737   0.272
 1284SOL     OW 3986   3.927   0.802   0.197
 1284SOL    HW1 3987   3.954   0.807   0.105
 1284SOL    HW2 3988   3.855   0.865   0.204
 1285SOL     OW 3989   0.745   2.582   3.703
 1285SOL    HW1 3990   0.828   2.578   3.656
 1285SOL    HW2 3991   0.683   2.538   3.645
 1286SOL     OW 3992   1.987   1.494   1.750
 1286SOL    HW1 3993   2.049   1.546   1.698
 1286SOL    HW2 3994   1.906   1.496   1.699
 1287SOL     OW 3995   2.423   2.944   1.995
 1287SOL    HW1 3996   2.384   3.003   2.059
 1287SOL    HW2 3997   2.483   2.889   2.046
 1288SOL     OW 3998   3.725   1.351   1.334
 1288SOL    HW1 3999   3.655   1.408   1.368
 1288SOL    HW2 4000   3.734   1.378   1.242
 1289SOL     OW 4001   1.291   0.037   1.915
 1289SOL    HW1 4002   1.337   0.010   1.835
 1289SOL    HW2 4003   1.309   0.131   1.923
 1290SOL     OW 4004   0.307   1.711   1.805
 1290SOL    HW1 4005   0.393   1.751   1.813
 1290SOL    HW2 4006   0.250   1.762   1.863
 1291SOL     OW 4007   2.824   0.138   2.392
 1291SOL    HW1 4008   2.906   0.132   2.441
 1291SOL    HW2 4009   2.758   0.157   2.459
 1292SOL     OW 4010   2.204   0.295   1.314
 1292SOL    HW1 4011   2.297   0.308   1.298
 1292SOL    HW2 4012   2.189   0.335   1.401
 1293SOL     OW 4013   0.319   3.908   3.061
 1293SOL    HW1 4014   0.334   3.984   3.005
 1293SOL    HW2 4015   0.277   3.943   3.139
 1294SOL     OW 4016   1.505   2.119   2.002
 1294SOL    HW1 4017   1.449   2.143   2.077
 1294SOL    HW2 4018   1.594   2.132   2.034
 1295SOL     OW 4019   3.345   3.350   2.344
 1295SOL    HW1 4020   3.421   3.293   2.345
 1295SOL    HW2 4021   3.380   3.437   2.326
 1296SOL     OW 4022   1.409   1.050   2.981
 1296SOL    HW1 4023   1.374   1.081   2.898
 1296SOL    HW2 4024   1.337   1.062   3.043
 1297SOL     OW 4025   1.367   0.938   1.618
 1297SOL    HW1 4026   1.372   0.975   1.706
 1297SOL    HW2 4027   1.429   0.864   1.620
 1298SOL     OW 4028   3.144   2.025   2.516
 1298SOL    HW1 4029   3.106   2.101   2.471
 1298SOL    HW2 4030   3.199   1.984   2.449
 1299SOL     OW 4031   0.401   2.249   3.666
 1299SOL    HW1 4032   0.390   2.255   3.761
 1299SOL    HW2 4033   0.348   2.174   3.641
 1300SOL     OW 4034   2.002   1.211   1.728
 1300SOL    HW1 4035   2.089   1.171   1.736
 1300SOL    HW2 4036   2.019   1.305   1.732
 1301SOL     OW 4037   2.550   3.805   2.601
 1301SOL    HW1 4038   2.541   3.729   2.659
 1301SOL    HW2 4039   2.591   3.771   2.522
 1302SOL     OW 4040   1.464   2.440   0.074
 1302SOL    HW1 4041   1.519   2.376   0.119
 1302SOL    HW2 4042   1.526   2.505   0.040
 1303SOL     OW 4043   1.958   2.370   3.417
 1303SOL    HW1 4044   2.025   2.429   3.383
 1303SOL    HW2 4045   1.922   2.415   3.493
 1304SOL     OW 4046   0.592   3.791   2.024
 1304SOL    HW1 4047   0.676   3.752   2.051
 1304SOL    HW2 4048   0.570   3.851   2.095
 1305SOL     OW 4049   0.034   2.609   0.723
 1305SOL    HW1 4050   0.079   2.525   0.716
 1305SOL    HW2 4051   0.018   2.620   0.816
 1306SOL     OW 4052   3.459   1.689   0.624
 1306SOL    HW1 4053   3.416   1.745   0.689
 1306SOL    HW2 4054   3.407   1.702   0.544
 1307SOL     OW 4055   2.977   3.866   1.301
 1307SOL    HW1 4056   2.890   3.830   1.289
 1307SOL    HW2 4057   3.008   3.828   1.383
 1308SOL     OW 4058   1.784   3.552   1.893
 1308SOL    HW1 4059   1.805   3.543   1.986
 1308SOL    HW2 4060   1.869   3.555   1.850
 1309SOL     OW 4061   0.078   2.546   0.275
 1309SOL    HW1 4062   0.145   2.521   0.211
 1309SOL    HW2 4063   0.003   2.491   0.252
 1310SOL     OW 4064   2.632   2.986   0.961
 1310SOL    HW1 4065   2.648   2.974   0.868
 1310SOL    HW2 4066   2.564   3.052   0.966
 1311SOL     OW 4067   2.494   0.911   3.818
 1311SOL    HW1 4068   2.456   0.864   3.744
 1311SOL    HW2 4069   2.523   0.995   3.781
 1312SOL     OW 4070   0.606   1.243   2.252
 1312SOL    HW1 4071   0.528   1.195   2.226
 1312SOL    HW2 4072   0.577   1.334   2.262
 1313SOL     OW 4073   0.995   3.373   2.800
 1313SOL    HW1 4074   1.068   3.378   2.738
 1313SOL    HW2 4075   0.943   3.300   2.769
 1314SOL     OW 4076   1.122   2.731   2.819
 1314SOL    HW1 4077   1.040   2.694   2.784
 1314SOL    HW2 4078   1.094   2.791   2.888
 1315SOL     OW 4079   1.499   1.878   2.359
 1315SOL    HW1 4080   1.434   1.946   2.376
 1315SOL    HW2 4081   1.450   1.808   2.316
 1316SOL     OW 4082   2.488   2.594   0.722
 1316SOL    HW1 4083   2.507   2.561   0.810
 1316SOL    HW2 4084   2.574   2.600   0.680
 1317SOL     OW 4085   2.636   0.885   0.271
 1317SOL    HW1 4086   2.704   0.826   0.304
 1317SOL    HW2 4087   2.684   0.963   0.243
 1318SOL     OW 4088   3.098   3.505   0.515
 1318SOL    HW1 4089   3.014   3.470   0.485
 1318SOL    HW2 4090   3.163   3.443   0.483
 1319SOL     OW 4091   3.441   1.373   2.928
 1319SOL    HW1 4092   3.441   1.469   2.928
 1319SOL    HW2 4093   3.356   1.349   2.892
 1320SOL     OW 4094   1.780   0.342   2.954
 1320SOL    HW1 4095   1.796   0.247   2.956
 1320SOL    HW2 4096   1.860   0.378   2.915
 1321SOL     OW 4097   2.428   3.628   2.208
 1321SOL    HW1 4098   2.463   3.540   2.225
 1321SOL    HW2 4099   2.505   3.681   2.187
 1322SOL     OW 4100   3.704   1.057   2.646
 1322SOL    HW1 4101   3.668   0.973   2.672
 1322SOL    HW2 4102   3.686   1.115   2.720
 1323SOL     OW 4103   0.296   1.016   0.881
 1323SOL    HW1 4104   0.282   0.955   0.808
 1323SOL    HW2 4105   0.269   1.101   0.845
 1324SOL     OW 4106   2.859   0.801   2.649
 1324SOL    HW1 4107   2.896   0.754   2.724
 1324SOL    HW2 4108   2.810   0.733   2.601
 1325SOL     OW 4109   0.559   3.141   1.291
 1325SOL    HW1 4110   0.470   3.159   1.263
 1325SOL    HW2 4111   0.587   3.220   1.336
 1326SOL     OW 4112   2.029   2.287   0.851
 1326SOL    HW1 4113   2.077   2.345   0.792
 1326SOL    HW2 4114   2.078   2.204   0.848
 1327SOL     OW 4115   0.558   1.650   1.529
 1327SOL    HW1 4116   0.495   1.589   1.490
 1327SOL    HW2 4117   0.527   1.737   1.502
 1328SOL     OW 4118   2.233   3.423   1.017
 1328SOL    HW1 4119   2.198   3.381   1.096
 1328SOL    HW2 4120   2.291   3.492   1.050
 1329SOL     OW 4121   3.372   3.700   0.654
 1329SOL    HW1 4122   3.299   3.682   0.596
 1329SOL    HW2 4123   3.341   3.675   0.741
 1330SOL     OW 4124   1.862   1.205   2.177
 1330SOL    HW1 4125   1.835   1.241   2.262
 1330SOL    HW2 4126   1.833   1.113   2.180
 1331SOL     OW 4127   1.570   3.737   2.620
 1331SOL    HW1 4128   1.650   3.720   2.570
 1331SOL    HW2 4129   1.601   3.768   2.705
 1332SOL     OW 4130   2.956   0.147   1.702
 1332SOL    HW1 4131   2.980   0.108   1.786
 1332SOL    HW2 4132   3.040   0.170   1.662
 1333SOL     OW 4133   3.844   1.958   0.617
 1333SOL    HW1 4134   3.763   1.996   0.651
 1333SOL    HW2 4135   3.884   2.028   0.565
 1334SOL     OW 4136   0.666   2.382   0.135
 1334SOL    HW1 4137   0.665   2.313   0.068
 1334SOL    HW2 4138   0.590   2.363   0.190
 1335SOL     OW 4139   2.160   0.135   1.989
 1335SOL    HW1 4140   2.241   0.085   1.980
 1335SOL    HW2 4141   2.138   0.129   2.082
 1336SOL     OW 4142   3.215   3.759   0.087
 1336SOL    HW1 4143   3.251   3.842   0.058
 1336SOL    HW2 4144   3.253   3.693   0.029
 1337SOL     OW 4145   3.412   0.233   1.915
 1337SOL    HW1 4146   3.405   0.139   1.897
 1337SOL    HW2 4147   3.486   0.240   1.976
 1338SOL     OW 4148   3.207   2.820   1.196
 1338SOL    HW1 4149   3.112   2.831   1.185
 1338SOL    HW2 4150   3.231   2.885   1.262
 1339SOL     OW 4151   1.930   2.677   3.387
 1339SOL    HW1 4152   1.878   2.750   3.353
 1339SOL    HW2 4153   1.878   2.642   3.460
 1340SOL     OW 4154   2.497   1.467   2.166
 1340SOL    HW1 4155   2.415   1.502   2.130
 1340SOL    HW2 4156   2.529   1.537   2.223
 1341SOL     OW 4157   2.257   0.438   2.014
 1341SOL    HW1 4158   2.305   0.357   1.995
 1341SOL    HW2 4159   2.175   0.409   2.053
 1342SOL     OW 4160   3.238   3.252   3.238
 1342SOL    HW1 4161   3.305   3.218   3.298
 1342SOL    HW2 4162   3.169   3.285   3.296
 1343SOL     OW 4163   2.582   1.211   1.361
 1343SOL    HW1 4164   2.606   1.197   1.269
 1343SOL    HW2 4165   2.488   1.228   1.359
 1344SOL     OW 4166   0.301   1.876   0.773
 1344SOL    HW1 4167   0.218   1.860   0.816
 1344SOL    HW2 4168   0.363   1.818   0.816
 1345SOL     OW 4169   0.615   0.226   3.403
 1345SOL    HW1 4170   0.648   0.138   3.382
 1345SOL    HW2 4171   0.528   0.211   3.439
 1346SOL     OW 4172   1.898   2.187   3.626
 1346SOL    HW1 4173   1.921   2.255   3.563
 1346SOL    HW2 4174   1.812   2.214   3.660
 1347SOL     OW 4175   3.297   0.067   3.103
 1347SOL    HW1 4176   3.282  -0.022   3.134
 1347SOL    HW2 4177   3.215   0.113   3.120
 1348SOL     OW 4178   1.963  -0.027   3.257
 1348SOL    HW1 4179   1.869  -0.019   3.275
 1348SOL    HW2 4180   1.999   0.058   3.282
 1349SOL     OW 4181   1.192   1.686   2.562
 1349SOL    HW1 4182   1.204   1.769   2.608
 1349SOL    HW2 4183   1.251   1.690   2.487
 1350SOL     OW 4184   3.004   2.294   1.243
 1350SOL    HW1 4185   3.063   2.358   1.203
 1350SOL    HW2 4186   3.062   2.226   1.278
 1351SOL     OW 4187   0.180   2.221   2.429
 1351SOL    HW1 4188   0.098   2.241   2.474
 1351SOL    HW2 4189   0.157   2.149   2.370
 1352SOL     OW 4190   1.730   3.501   1.035
 1352SOL    HW1 4191   1.670   3.497   1.109
 1352SOL    HW2 4192   1.676   3.476   0.959
 1353SOL     OW 4193   1.842   3.429   0.665
 1353SOL    HW1 4194   1.857   3.447   0.758
 1353SOL    HW2 4195   1.895   3.351   0.647
 1354SOL     OW 4196   2.699   2.326   1.502
 1354SOL    HW1 4197   2.692   2.315   1.408
 1354SOL    HW2 4198   2.661   2.246   1.539
 1355SOL     OW 4199   2.158   2.457   2.512
 1355SOL    HW1 4200   2.226   2.396   2.543
 1355SOL    HW2 4201   2.162   2.450   2.416
 1356SOL     OW 4202   3.729   0.067   1.352
 1356SOL    HW1 4203   3.714  -0.027   1.339
 1356SOL    HW2 4204   3.801   0.088   1.293
 1357SOL     OW 4205   2.418   1.801   0.056
 1357SOL    HW1 4206   2.398   1.844  -0.027
 1357SOL    HW2 4207   2.335   1.803   0.104
 1358SOL     OW 4208   3.794   0.667   3.395
 1358SOL    HW1 4209   3.706   0.661   3.431
 1358SOL    HW2 4210   3.845   0.604   3.445
 1359SOL     OW 4211   1.791   3.219   1.866
 1359SOL    HW1 4212   1.878   3.194   1.897
 1359SOL    HW2 4213   1.731   3.168   1.922
 1360SOL     OW 4214   2.772   2.982   1.680
 1360SOL    HW1 4215   2.807   2.959   1.594
 1360SOL    HW2 4216   2.807   2.914   1.738
 1361SOL     OW 4217   3.757   2.773   2.755
 1361SOL    HW1 4218   3.681   2.751   2.702
 1361SOL    HW2 4219   3.722   2.824   2.828
 1362SOL     OW 4220   1.924   1.813   3.097
 1362SOL    HW1 4221   1.980   1.736   3.083
 1362SOL    HW2 4222   1.951   1.847   3.182
 1363SOL     OW 4223   0.981   0.618   3.899
 1363SOL    HW1 4224   1.074   0.626   3.924
 1363SOL    HW2 4225   0.942   0.701   3.927
 1364SOL     OW 4226   3.498   3.433   1.246
 1364SOL    HW1 4227   3.426   3.492   1.266
 1364SOL    HW2 4228   3.526   3.399   1.331
 1365SOL     OW 4229   2.932   0.635   2.860
 1365SOL    HW1 4230   2.960   0.634   2.951
 1365SOL    HW2 4231   2.875   0.558   2.852
 1366SOL     OW 4232   2.699   3.660   2.400
 1366SOL    HW1 4233   2.770   3.718   2.371
 1366SOL    HW2 4234   2.679   3.607   2.322
 1367SOL     OW 4235   0.959   3.296   1.878
 1367SOL    HW1 4236   0.919   3.291   1.791
 1367SOL    HW2 4237   1.040   3.345   1.864
 1368SOL     OW 4238   3.187   0.798   3.778
 1368SOL    HW1 4239   3.171   0.745   3.855
 1368SOL    HW2 4240   3.282   0.801   3.771
 1369SOL     OW 4241   3.113   0.194   0.696
 1369SOL    HW1 4242   3.067   0.110   0.690
 1369SOL    HW2 4243   3.071   0.239   0.769
 1370SOL     OW 4244   1.589   1.917   2.672
 1370SOL    HW1 4245   1.586   1.985   2.739
 1370SOL    HW2 4246   1.554   1.959   2.594
 1371SOL     OW 4247   1.855   0.637   2.064
 1371SOL    HW1 4248   1.938   0.672   2.032
 1371SOL    HW2 4249   1.852   0.663   2.156
 1372SOL     OW 4250   3.697   0.928   0.178
 1372SOL    HW1 4251   3.638   0.853   0.184
 1372SOL    HW2 4252   3.679   0.979   0.257
 1373SOL     OW 4253   3.463   3.117   3.007
 1373SOL    HW1 4254   3.482   3.070   3.089
 1373SOL    HW2 4255   3.369   3.103   2.994
 1374SOL     OW 4256   3.462   0.841   3.807
 1374SOL    HW1 4257   3.451   0.768   3.867
 1374SOL    HW2 4258   3.555   0.864   3.815
 1375SOL     OW 4259   3.897   2.751   0.934
 1375SOL    HW1 4260   3.943   2.828   0.900
 1375SOL    HW2 4261   3.804   2.775   0.931
 1376SOL     OW 4262   3.262   1.620   1.378
 1376SOL    HW1 4263   3.345   1.572   1.389
 1376SOL    HW2 4264   3.281   1.708   1.410
 1377SOL     OW 4265   2.665   1.931   3.327
 1377SOL    HW1 4266   2.689   1.838   3.328
 1377SOL    HW2 4267   2.612   1.944   3.406
 1378SOL     OW 4268   3.209   0.926   2.894
 1378SOL    HW1 4269   3.295   0.942   2.857
 1378SOL    HW2 4270   3.150   0.981   2.842
 1379SOL     OW 4271   0.266   1.979   0.487
 1379SOL    HW1 4272   0.266   1.915   0.416
 1379SOL    HW2 4273   0.250   1.927   0.566
 1380SOL     OW 4274   0.882   1.200   0.225
 1380SOL    HW1 4275   0.876   1.247   0.142
 1380SOL    HW2 4276   0.893   1.268   0.291
 1381SOL     OW 4277   1.946   3.241   1.367
 1381SOL    HW1 4278   1.852   3.223   1.374
 1381SOL    HW2 4279   1.951   3.330   1.333
 1382SOL     OW 4280   2.352   0.649   0.021
 1382SOL    HW1 4281   2.373   0.734   0.060
 1382SOL    HW2 4282   2.293   0.607   0.084
 1383SOL     OW 4283   3.744   3.632   1.488
 1383SOL    HW1 4284   3.673   3.568   1.491
 1383SOL    HW2 4285   3.778   3.634   1.577
 1384SOL     OW 4286   0.096   2.678   3.569
 1384SOL    HW1 4287   0.057   2.714   3.489
 1384SOL    HW2 4288   0.174   2.632   3.538
 1385SOL     OW 4289   3.214   2.876   0.920
 1385SOL    HW1 4290   3.230   2.782   0.907
 1385SOL    HW2 4291   3.207   2.887   1.015
 1386SOL     OW 4292   1.756   3.400   1.562
 1386SOL    HW1 4293   1.794   3.329   1.613
 1386SOL    HW2 4294   1.667   3.409   1.595
 1387SOL     OW 4295   1.023   2.540   1.837
 1387SOL    HW1 4296   1.042   2.479   1.765
 1387SOL    HW2 4297   0.937   2.577   1.815
 1388SOL     OW 4298   2.744   0.591   2.467
 1388SOL    HW1 4299   2.816   0.594   2.404
 1388SOL    HW2 4300   2.683   0.659   2.437
 1389SOL     OW 4301   1.063   1.810   2.877
 1389SOL    HW1 4302   1.010   1.848   2.807
 1389SOL    HW2 4303   1.152   1.808   2.841
 1390SOL     OW 4304   3.111   3.402   2.221
 1390SOL    HW1 4305   3.159   3.411   2.139
 1390SOL    HW2 4306   3.178   3.380   2.286
 1391SOL     OW 4307   2.706   3.507   1.824
 1391SOL    HW1 4308   2.752   3.492   1.741
 1391SOL    HW2 4309   2.649   3.431   1.834
 1392SOL     OW 4310   0.692   3.351   2.712
 1392SOL    HW1 4311   0.765   3.289   2.720
 1392SOL    HW2 4312   0.705   3.390   2.625
 1393SOL     OW 4313   1.515   2.114   0.108
 1393SOL    HW1 4314   1.484   2.095   0.196
 1393SOL    HW2 4315   1.597   2.162   0.121
 1394SOL     OW 4316   2.045   3.655   2.852
 1394SOL    HW1 4317   2.070   3.725   2.913
 1394SOL    HW2 4318   1.983   3.601   2.902
 1395SOL     OW 4319   2.299   3.094   1.781
 1395SOL    HW1 4320   2.354   3.025   1.818
 1395SOL    HW2 4321   2.353   3.173   1.788
 1396SOL     OW 4322   0.782   1.751   0.587
 1396SOL    HW1 4323   0.708   1.696   0.560
 1396SOL    HW2 4324   0.802   1.803   0.509
 1397SOL     OW 4325   2.824   1.007   0.875
 1397SOL    HW1 4326   2.734   1.003   0.842
 1397SOL    HW2 4327   2.855   0.916   0.869
 1398SOL     OW 4328   3.693   1.370   3.782
 1398SOL    HW1 4329   3.713   1.315   3.706
 1398SOL    HW2 4330   3.685   1.309   3.855
 1399SOL     OW 4331   0.485   0.509   2.807
 1399SOL    HW1 4332   0.525   0.499   2.894
 1399SOL    HW2 4333   0.494   0.423   2.767
 1400SOL     OW 4334   3.461   0.200   2.897
 1400SOL    HW1 4335   3.477   0.106   2.895
 1400SOL    HW2 4336   3.371   0.209   2.927
 1401SOL     OW 4337   2.600   0.860   1.816
 1401SOL    HW1 4338   2.668   0.796   1.839
 1401SOL    HW2 4339   2.640   0.945   1.835
 1402SOL     OW 4340   2.285   1.856   2.642
 1402SOL    HW1 4341   2.212   1.916   2.657
 1402SOL    HW2 4342   2.332   1.893   2.568
 1403SOL     OW 4343   1.202   3.468   1.524
 1403SOL    HW1 4344   1.177   3.395   1.468
 1403SOL    HW2 4345   1.193   3.545   1.469
 1404SOL     OW 4346   1.598   0.619   0.211
 1404SOL    HW1 4347   1.553   0.694   0.250
 1404SOL    HW2 4348   1.690   0.633   0.233
 1405SOL     OW 4349   3.186   3.754   0.379
 1405SOL    HW1 4350   3.177   3.771   0.285
 1405SOL    HW2 4351   3.178   3.659   0.387
 1406SOL     OW 4352   1.959   2.548   3.833
 1406SOL    HW1 4353   1.956   2.643   3.828
 1406SOL    HW2 4354   2.043   2.524   3.795
 1407SOL     OW 4355   1.717   0.910   0.617
 1407SOL    HW1 4356   1.722   0.919   0.713
 1407SOL    HW2 4357   1.807   0.922   0.588
 1408SOL     OW 4358   1.801   3.658   2.484
 1408SOL    HW1 4359   1.892   3.649   2.511
 1408SOL    HW2 4360   1.802   3.650   2.389
 1409SOL     OW 4361   3.118   3.003   1.680
 1409SOL    HW1 4362   3.098   2.914   1.708
 1409SOL    HW2 4363   3.182   2.992   1.609
 1410SOL     OW 4364   1.039   1.401   1.858
 1410SOL    HW1 4365   1.081   1.315   1.857
 1410SOL    HW2 4366   0.953   1.386   1.898
 1411SOL     OW 4367   2.657   0.157   3.353
 1411SOL    HW1 4368   2.562   0.158   3.365
 1411SOL    HW2 4369   2.687   0.233   3.403
 1412SOL     OW 4370   3.667   1.837   2.658
 1412SOL    HW1 4371   3.674   1.874   2.746
 1412SOL    HW2 4372   3.756   1.837   2.624
 1413SOL     OW 4373   3.202   2.222   1.466
 1413SOL    HW1 4374   3.293   2.192   1.471
 1413SOL    HW2 4375   3.209   2.318   1.462
 1414SOL     OW 4376   2.062   1.906   1.618
 1414SOL    HW1 4377   1.982   1.954   1.638
 1414SOL    HW2 4378   2.086   1.935   1.530
 1415SOL     OW 4379   0.991   2.397   0.603
 1415SOL    HW1 4380   1.000   2.487   0.573
 1415SOL    HW2 4381   0.900   2.390   0.631
 1416SOL     OW 4382   0.780   3.444   2.079
 1416SOL    HW1 4383   0.807   3.534   2.061
 1416SOL    HW2 4384   0.811   3.395   2.003
 1417SOL     OW 4385   0.204   1.009   1.749
 1417SOL    HW1 4386   0.153   1.010   1.830
 1417SOL    HW2 4387   0.150   1.057   1.686
 1418SOL     OW 4388   2.153   1.522   3.688
 1418SOL    HW1 4389   2.085   1.568   3.737
 1418SOL    HW2 4390   2.109   1.492   3.608
 1419SOL     OW 4391   0.050   1.993   3.691
 1419SOL    HW1 4392   0.140   1.979   3.661
 1419SOL    HW2 4393   0.030   2.082   3.664
 1420SOL     OW 4394   1.955   2.839   3.683
 1420SOL    HW1 4395   1.935   2.896   3.608
 1420SOL    HW2 4396   2.040   2.800   3.661
 1421SOL     OW 4397   3.814   1.911   1.140
 1421SOL    HW1 4398   3.724   1.940   1.158
 1421SOL    HW2 4399   3.804   1.817   1.122
 1422SOL     OW 4400   1.570   1.020   3.622
 1422SOL    HW1 4401   1.557   1.019   3.717
 1422SOL    HW2 4402   1.503   1.079   3.589
 1423SOL     OW 4403   2.949   0.445   1.914
 1423SOL    HW1 4404   2.942   0.374   1.851
 1423SOL    HW2 4405   3.023   0.422   1.969
 1424SOL     OW 4406   0.695   1.371   0.462
 1424SOL    HW1 4407   0.773   1.414   0.427
 1424SOL    HW2 4408   0.657   1.325   0.388
 1425SOL     OW 4409   3.461   1.452   2.317
 1425SOL    HW1 4410   3.427   1.381   2.262
 1425SOL    HW2 4411   3.412   1.444   2.399
 1426SOL     OW 4412   2.161   1.900   0.118
 1426SOL    HW1 4413   2.080   1.911   0.168
 1426SOL    HW2 4414   2.162   1.973   0.057
 1427SOL     OW 4415   3.113   0.424   2.532
 1427SOL    HW1 4416   3.116   0.505   2.482
 1427SOL    HW2 4417   3.204   0.393   2.534
 1428SOL     OW 4418   3.282   3.288   2.766
 1428SOL    HW1 4419   3.346   3.344   2.810
 1428SOL    HW2 4420   3.248   3.232   2.835
 1429SOL     OW 4421   3.542   3.733   0.258
 1429SOL    HW1 4422   3.522   3.717   0.166
 1429SOL    HW2 4423   3.512   3.654   0.303
 1430SOL     OW 4424   2.221   1.328   2.455
 1430SOL    HW1 4425   2.205   1.422   2.465
 1430SOL    HW2 4426   2.231   1.316   2.360
 1431SOL     OW 4427   1.403   0.425   0.219
 1431SOL    HW1 4428   1.456   0.347   0.241
 1431SOL    HW2 4429   1.462   0.498   0.236
 1432SOL     OW 4430   0.754   0.205   1.118
 1432SOL    HW1 4431   0.789   0.268   1.055
 1432SOL    HW2 4432   0.793   0.121   1.092
 1433SOL     OW 4433   2.917   3.141   2.741
 1433SOL    HW1 4434   2.956   3.059   2.769
 1433SOL    HW2 4435   2.983   3.181   2.684
 1434SOL     OW 4436   0.778   1.776   2.144
 1434SOL    HW1 4437   0.837   1.827   2.200
 1434SOL    HW2 4438   0.789   1.686   2.174
 1435SOL     OW 4439   1.587   2.637   3.826
 1435SOL    HW1 4440   1.600   2.564   3.765
 1435SOL    HW2 4441   1.618   2.714   3.778
 1436SOL     OW 4442   3.929   3.764   3.243
 1436SOL    HW1 4443   3.959   3.809   3.322
 1436SOL    HW2 4444   3.932   3.671   3.267
 1437SOL     OW 4445   1.206   3.453   1.805
 1437SOL    HW1 4446   1.213   3.469   1.711
 1437SOL    HW2 4447   1.257   3.523   1.845
 1438SOL     OW 4448   1.511   1.610   1.352
 1438SOL    HW1 4449   1.489   1.518   1.337
 1438SOL    HW2 4450   1.576   1.630   1.285
 1439SOL     OW 4451   2.936   3.748   1.874
 1439SOL    HW1 4452   2.930   3.664   1.918
 1439SOL    HW2 4453   2.846   3.780   1.870
 1440SOL     OW 4454   1.616   1.516   2.228
 1440SOL    HW1 4455   1.596   1.596   2.180
 1440SOL    HW2 4456   1.692   1.539   2.282
 1441SOL     OW 4457   0.122   2.305   1.950
 1441SOL    HW1 4458   0.140   2.394   1.978
 1441SOL    HW2 4459   0.179   2.251   2.004
 1442SOL     OW 4460   2.358   3.686   0.725
 1442SOL    HW1 4461   2.347   3.692   0.630
 1442SOL    HW2 4462   2.273   3.709   0.762
 1443SOL     OW 4463   0.767   0.177   1.918
 1443SOL    HW1 4464   0.752   0.252   1.976
 1443SOL    HW2 4465   0.743   0.209   1.831
 1444SOL     OW 4466   0.720   3.294   0.943
 1444SOL    HW1 4467   0.741   3.387   0.937
 1444SOL    HW2 4468   0.624   3.291   0.937
 1445SOL     OW 4469   0.431   1.583   3.084
 1445SOL    HW1 4470   0.446   1.638   3.008
 1445SOL    HW2 4471   0.435   1.643   3.159
 1446SOL     OW 4472   1.111   1.648   1.887
 1446SOL    HW1 4473   1.099   1.687   1.800
 1446SOL    HW2 4474   1.094   1.555   1.874
 1447SOL     OW 4475   2.947   3.435   0.754
 1447SOL    HW1 4476   3.019   3.464   0.697
 1447SOL    HW2 4477   2.944   3.340   0.742
 1448SOL     OW 4478   3.889   1.137   1.253
 1448SOL    HW1 4479   3.834   1.213   1.273
 1448SOL    HW2 4480   3.863   1.071   1.318
 1449SOL     OW 4481   2.435   1.898   1.746
 1449SOL    HW1 4482   2.515   1.896   1.798
 1449SOL    HW2 4483   2.381   1.827   1.782
 1450SOL     OW 4484   0.940   0.752   1.669
 1450SOL    HW1 4485   0.915   0.809   1.597
 1450SOL    HW2 4486   0.886   0.781   1.743
 1451SOL     OW 4487   1.474   3.471   1.544
 1451SOL    HW1 4488   1.386   3.434   1.528
 1451SOL    HW2 4489   1.459   3.542   1.606
 1452SOL     OW 4490   1.096   0.644   0.786
 1452SOL    HW1 4491   1.083   0.719   0.727
 1452SOL    HW2 4492   1.053   0.671   0.868
 1453SOL     OW 4493   0.706   0.601   0.829
 1453SOL    HW1 4494   0.747   0.526   0.786
 1453SOL    HW2 4495   0.780   0.654   0.860
 1454SOL     OW 4496   0.501   0.444   0.730
 1454SOL    HW1 4497   0.545   0.518   0.772
 1454SOL    HW2 4498   0.524   0.453   0.637
 1455SOL     OW 4499   0.578   1.319   1.522
 1455SOL    HW1 4500   0.627   1.380   1.577
 1455SOL    HW2 4501   0.543   1.255   1.584
 1456SOL     OW 4502   1.428   1.199   3.475
 1456SOL    HW1 4503   1.445   1.251   3.554
 1456SOL    HW2 4504   1.449   1.257   3.402
 1457SOL     OW 4505   1.056   0.862   3.329
 1457SOL    HW1 4506   0.989   0.862   3.397
 1457SOL    HW2 4507   1.094   0.774   3.332
 1458SOL     OW 4508   1.903   1.889   0.669
 1458SOL    HW1 4509   1.985   1.864   0.625
 1458SOL    HW2 4510   1.930   1.913   0.757
 1459SOL     OW 4511   1.806   0.898   3.858
 1459SOL    HW1 4512   1.802   0.842   3.935
 1459SOL    HW2 4513   1.732   0.958   3.868
 1460SOL     OW 4514   3.683   2.134   3.449
 1460SOL    HW1 4515   3.670   2.096   3.535
 1460SOL    HW2 4516   3.707   2.225   3.466
 1461SOL     OW 4517   2.887   0.608   0.645
 1461SOL    HW1 4518   2.915   0.653   0.725
 1461SOL    HW2 4519   2.819   0.548   0.675
 1462SOL     OW 4520   2.520   1.193   0.391
 1462SOL    HW1 4521   2.515   1.271   0.336
 1462SOL    HW2 4522   2.589   1.141   0.350
 1463SOL     OW 4523   3.600   1.632   2.895
 1463SOL    HW1 4524   3.666   1.562   2.891
 1463SOL    HW2 4525   3.598   1.668   2.806
 1464SOL     OW 4526   1.535   3.128   2.298
 1464SOL    HW1 4527   1.451   3.171   2.279
 1464SOL    HW2 4528   1.510   3.044   2.335
 1465SOL     OW 4529   0.057   3.889   3.540
 1465SOL    HW1 4530   0.029   3.974   3.574
 1465SOL    HW2 4531   0.065   3.834   3.618
 1466SOL     OW 4532   1.318   1.515   0.923
 1466SOL    HW1 4533   1.412   1.495   0.924
 1466SOL    HW2 4534   1.275   1.432   0.903
 1467SOL     OW 4535   3.471   0.163   2.278
 1467SOL    HW1 4536   3.538   0.181   2.344
 1467SOL    HW2 4537   3.430   0.082   2.307
 1468SOL     OW 4538   1.976   0.438   1.343
 1468SOL    HW1 4539   2.022   0.493   1.406
 1468SOL    HW2 4540   2.040   0.372   1.317
 1469SOL     OW 4541   2.616   2.482   0.964
 1469SOL    HW1 4542   2.552   2.422   1.003
 1469SOL    HW2 4543   2.626   2.552   1.029
 1470SOL     OW 4544   3.434   3.498   1.687
 1470SOL    HW1 4545   3.454   3.573   1.742
 1470SOL    HW2 4546   3.456   3.422   1.741
 1471SOL     OW 4547   1.588   3.289   0.631
 1471SOL    HW1 4548   1.669   3.333   0.658
 1471SOL    HW2 4549   1.568   3.325   0.545
 1472SOL     OW 4550   3.176   2.936   0.223
 1472SOL    HW1 4551   3.151   2.960   0.311
 1472SOL    HW2 4552   3.244   2.869   0.235
 1473SOL     OW 4553   0.785   0.081   2.652
 1473SOL    HW1 4554   0.793   0.017   2.581
 1473SOL    HW2 4555   0.717   0.044   2.709
 1474SOL     OW 4556   2.911   1.905   0.047
 1474SOL    HW1 4557   2.926   1.912   0.141
 1474SOL    HW2 4558   2.828   1.949   0.032
 1475SOL     OW 4559   0.458   3.051   2.926
 1475SOL    HW1 4560   0.490   3.141   2.926
 1475SOL    HW2 4561   0.514   3.005   2.864
 1476SOL     OW 4562   2.424   0.695   2.195
 1476SOL    HW1 4563   2.430   0.711   2.101
 1476SOL    HW2 4564   2.364   0.620   2.202
 1477SOL     OW 4565   3.613   0.848   2.372
 1477SOL    HW1 4566   3.559   0.832   2.294
 1477SOL    HW2 4567   3.639   0.940   2.365
 1478SOL     OW 4568   3.047   2.303   0.915
 1478SOL    HW1 4569   3.033   2.372   0.980
 1478SOL    HW2 4570   2.967   2.250   0.919
 1479SOL     OW 4571   0.468   2.793   3.920
 1479SOL    HW1 4572   0.539   2.853   3.894
 1479SOL    HW2 4573   0.513   2.717   3.956
 1480SOL     OW 4574   3.105   2.007   1.129
 1480SOL    HW1 4575   3.018   2.011   1.169
 1480SOL    HW2 4576   3.096   1.944   1.057
 1481SOL     OW 4577   2.154   0.611   2.467
 1481SOL    HW1 4578   2.133   0.695   2.507
 1481SOL    HW2 4579   2.073   0.560   2.473
 1482SOL     OW 4580   3.172   1.279   1.370
 1482SOL    HW1 4581   3.089   1.231   1.375
 1482SOL    HW2 4582   3.147   1.368   1.347
 1483SOL     OW 4583   0.479   2.793   3.352
 1483SOL    HW1 4584   0.433   2.870   3.319
 1483SOL    HW2 4585   0.522   2.823   3.432
 1484SOL     OW 4586   3.659   0.213   0.542
 1484SOL    HW1 4587   3.669   0.212   0.637
 1484SOL    HW2 4588   3.608   0.135   0.523
 1485SOL     OW 4589   3.303   1.758   1.760
 1485SOL    HW1 4590   3.255   1.832   1.723
 1485SOL    HW2 4591   3.381   1.749   1.705
 1486SOL     OW 4592   2.492   3.206   2.541
 1486SOL    HW1 4593   2.507   3.141   2.609
 1486SOL    HW2 4594   2.569   3.262   2.544
 1487SOL     OW 4595   1.730   1.025   1.058
 1487SOL    HW1 4596   1.816   1.053   1.027
 1487SOL    HW2 4597   1.748   0.969   1.133
 1488SOL     OW 4598   2.492   0.539   2.968
 1488SOL    HW1 4599   2.559   0.510   2.905
 1488SOL    HW2 4600   2.435   0.596   2.918
 1489SOL     OW 4601   0.075   1.322   2.729
 1489SOL    HW1 4602  -0.021   1.327   2.731
 1489SOL    HW2 4603   0.095   1.230   2.745
 1490SOL     OW 4604   1.593   2.224   3.027
 1490SOL    HW1 4605   1.656   2.266   3.087
 1490SOL    HW2 4606   1.590   2.282   2.951
 1491SOL     OW 4607   0.367   0.439   3.608
 1491SOL    HW1 4608   0.407   0.470   3.527
 1491SOL    HW2 4609   0.426   0.468   3.677
 1492SOL     OW 4610   2.655   0.613   3.426
 1492SOL    HW1 4611   2.574   0.562   3.433
 1492SOL    HW2 4612   2.632   0.687   3.370
 1493SOL     OW 4613   1.441   3.602   0.122
 1493SOL    HW1 4614   1.380   3.563   0.185
 1493SOL    HW2 4615   1.385   3.642   0.056
 1494SOL     OW 4616   1.817   0.675   1.492
 1494SOL    HW1 4617   1.866   0.702   1.414
 1494SOL    HW2 4618   1.879   0.685   1.564
 1495SOL     OW 4619   1.135   1.864   1.675
 1495SOL    HW1 4620   1.165   1.842   1.587
 1495SOL    HW2 4621   1.159   1.956   1.686
 1496SOL     OW 4622   1.689   2.584   0.389
 1496SOL    HW1 4623   1.731   2.660   0.430
 1496SOL    HW2 4624   1.679   2.609   0.297
 1497SOL     OW 4625   1.382   2.640   2.828
 1497SOL    HW1 4626   1.291   2.665   2.813
 1497SOL    HW2 4627   1.425   2.721   2.856
 1498SOL     OW 4628   1.536   1.291   0.038
 1498SOL    HW1 4629   1.597   1.234  -0.009
 1498SOL    HW2 4630   1.589   1.368   0.062
 1499SOL     OW 4631   3.584   1.435   1.669
 1499SOL    HW1 4632   3.676   1.451   1.691
 1499SOL    HW2 4633   3.561   1.355   1.716
 1500SOL     OW 4634   0.799   1.400   2.521
 1500SOL    HW1 4635   0.892   1.381   2.509
 1500SOL    HW2 4636   0.783   1.385   2.615
 1501SOL     OW 4637   1.954   3.941   2.436
 1501SOL    HW1 4638   1.992   3.976   2.517
 1501SOL    HW2 4639   1.909   3.861   2.463
 1502SOL     OW 4640   1.704   1.020   2.561
 1502SOL    HW1 4641   1.736   1.088   2.620
 1502SOL    HW2 4642   1.737   1.045   2.475
 1503SOL     OW 4643   2.391   0.506   3.418
 1503SOL    HW1 4644   2.394   0.411   3.402
 1503SOL    HW2 4645   2.299   0.530   3.404
 1504SOL     OW 4646   1.151   0.646   0.311
 1504SOL    HW1 4647   1.158   0.668   0.404
 1504SOL    HW2 4648   1.068   0.599   0.303
 1505SOL     OW 4649   3.861   3.284   2.927
 1505SOL    HW1 4650   3.822   3.340   2.860
 1505SOL    HW2 4651   3.951   3.270   2.898
 1506SOL     OW 4652   2.093   3.187   2.813
 1506SOL    HW1 4653   2.082   3.107   2.863
 1506SOL    HW2 4654   2.084   3.257   2.877
 1507SOL     OW 4655   1.138   2.536   3.115
 1507SOL    HW1 4656   1.166   2.464   3.058
 1507SOL    HW2 4657   1.047   2.552   3.090
 1508SOL     OW 4658   2.544   2.202   0.521
 1508SOL    HW1 4659   2.557   2.144   0.446
 1508SOL    HW2 4660   2.462   2.248   0.502
 1509SOL     OW 4661   2.138   1.623   1.556
 1509SOL    HW1 4662   2.173   1.626   1.467
 1509SOL    HW2 4663   2.095   1.708   1.568
 1510SOL     OW 4664   3.674   1.853   1.905
 1510SOL    HW1 4665   3.658   1.922   1.969
 1510SOL    HW2 4666   3.613   1.783   1.929
 1511SOL     OW 4667   1.868   3.682   2.169
 1511SOL    HW1 4668   1.941   3.728   2.127
 1511SOL    HW2 4669   1.802   3.748   2.183
 1512SOL     OW 4670   1.165   1.136   1.830
 1512SOL    HW1 4671   1.250   1.141   1.787
 1512SOL    HW2 4672   1.182   1.166   1.920
 1513SOL     OW 4673   3.304   0.307  -0.014
 1513SOL    HW1 4674   3.266   0.307   0.073
 1513SOL    HW2 4675   3.399   0.298   0.001
 1514SOL     OW 4676   3.044   1.672   1.758
 1514SOL    HW1 4677   3.132   1.709   1.756
 1514SOL    HW2 4678   2.994   1.733   1.814
 1515SOL     OW 4679   2.449   3.439   0.639
 1515SOL    HW1 4680   2.389   3.496   0.686
 1515SOL    HW2 4681   2.536   3.472   0.661
 1516SOL     OW 4682   1.262   3.313   2.666
 1516SOL    HW1 4683   1.286   3.223   2.647
 1516SOL    HW2 4684   1.321   3.340   2.736
 1517SOL     OW 4685   0.087   1.009   3.367
 1517SOL    HW1 4686   0.044   1.005   3.281
 1517SOL    HW2 4687   0.159   0.947   3.361
 1518SOL     OW 4688   0.796   1.092   3.381
 1518SOL    HW1 4689   0.829   1.177   3.408
 1518SOL    HW2 4690   0.819   1.033   3.453
 1519SOL     OW 4691   2.813   2.467   3.150
 1519SOL    HW1 4692   2.734   2.420   3.123
 1519SOL    HW2 4693   2.782   2.554   3.175
 1520SOL     OW 4694   3.137   2.675   0.420
 1520SOL    HW1 4695   3.102   2.643   0.504
 1520SOL    HW2 4696   3.211   2.619   0.402
 1521SOL     OW 4697   1.990   0.462   3.192
 1521SOL    HW1 4698   1.993   0.510   3.109
 1521SOL    HW2 4699   1.902   0.427   3.197
 1522SOL     OW 4700   1.773   2.776   1.910
 1522SOL    HW1 4701   1.708   2.841   1.881
 1522SOL    HW2 4702   1.821   2.820   1.980
 1523SOL     OW 4703   0.390   3.821   3.510
 1523SOL    HW1 4704   0.314   3.768   3.486
 1523SOL    HW2 4705   0.465   3.769   3.482
 1524SOL     OW 4706   3.712   1.101   0.890
 1524SOL    HW1 4707   3.768   1.034   0.930
 1524SOL    HW2 4708   3.623   1.072   0.909
 1525SOL     OW 4709   2.700   2.764   1.394
 1525SOL    HW1 4710   2.619   2.781   1.442
 1525SOL    HW2 4711   2.736   2.686   1.435
 1526SOL     OW 4712   2.147   0.282   2.877
 1526SOL    HW1 4713   2.112   0.369   2.857
 1526SOL    HW2 4714   2.143   0.235   2.793
 1527SOL     OW 4715   2.238   1.101   1.649
 1527SOL    HW1 4716   2.254   1.011   1.622
 1527SOL    HW2 4717   2.309   1.151   1.607
 1528SOL     OW 4718   1.220   2.132   2.867
 1528SOL    HW1 4719   1.184   2.210   2.909
 1528SOL    HW2 4720   1.172   2.059   2.908
 1529SOL     OW 4721   0.194   3.803   2.674
 1529SOL    HW1 4722   0.257   3.797   2.602
 1529SOL    HW2 4723   0.220   3.881   2.723
 1530SOL     OW 4724   3.840   3.568   1.780
 1530SOL    HW1 4725   3.812   3.535   1.865
 1530SOL    HW2 4726   3.934   3.587   1.791
 1531SOL     OW 4727   2.646   2.168   2.251
 1531SOL    HW1 4728   2.630   2.131   2.164
 1531SOL    HW2 4729   2.566   2.150   2.300
 1532SOL     OW 4730   1.308   1.909   3.173
 1532SOL    HW1 4731   1.374   1.944   3.113
 1532SOL    HW2 4732   1.345   1.921   3.260
 1533SOL     OW 4733   3.754   0.486   3.925
 1533SOL    HW1 4734   3.699   0.421   3.968
 1533SOL    HW2 4735   3.715   0.570   3.949
 1534SOL     OW 4736   3.964   0.836   1.491
 1534SOL    HW1 4737   3.909   0.861   1.565
 1534SOL    HW2 4738   3.969   0.741   1.495
 1535SOL     OW 4739   2.873   1.379   0.124
 1535SOL    HW1 4740   2.946   1.416   0.173
 1535SOL    HW2 4741   2.803   1.370   0.189
 1536SOL     OW 4742   2.417   0.252   2.155
 1536SOL    HW1 4743   2.443   0.207   2.235
 1536SOL    HW2 4744   2.384   0.337   2.186
 1537SOL     OW 4745   1.787   3.029   2.501
 1537SOL    HW1 4746   1.846   2.992   2.434
 1537SOL    HW2 4747   1.747   3.105   2.458
 1538SOL     OW 4748   1.683   0.470   2.506
 1538SOL    HW1 4749   1.647   0.425   2.582
 1538SOL    HW2 4750   1.665   0.563   2.522
 1539SOL     OW 4751   1.993   3.103   2.271
 1539SOL    HW1 4752   2.082   3.130   2.294
 1539SOL    HW2 4753   1.942   3.184   2.269
 1540SOL     OW 4754   2.680   0.511   2.782
 1540SOL    HW1 4755   2.739   0.456   2.730
 1540SOL    HW2 4756   2.631   0.562   2.716
 1541SOL     OW 4757   0.792   1.296   3.881
 1541SOL    HW1 4758   0.852   1.366   3.905
 1541SOL    HW2 4759   0.744   1.330   3.806
 1542SOL     OW 4760   1.450   3.946   2.897
 1542SOL    HW1 4761   1.382   3.979   2.956
 1542SOL    HW2 4762   1.404   3.882   2.842
 1543SOL     OW 4763   2.763   3.000   1.266
 1543SOL    HW1 4764   2.857   3.013   1.256
 1543SOL    HW2 4765   2.753   2.907   1.286
 1544SOL     OW 4766   0.284   2.772   0.641
 1544SOL    HW1 4767   0.366   2.761   0.689
 1544SOL    HW2 4768   0.232   2.694   0.664
 1545SOL     OW 4769   2.552   2.174   3.893
 1545SOL    HW1 4770   2.497   2.114   3.842
 1545SOL    HW2 4771   2.495   2.204   3.964
 1546SOL     OW 4772   1.901   3.650   0.073
 1546SOL    HW1 4773   1.980   3.613   0.113
 1546SOL    HW2 4774   1.833   3.585   0.090
 1547SOL     OW 4775   0.074   3.969   1.859
 1547SOL    HW1 4776   0.113   3.881   1.850
 1547SOL    HW2 4777   0.008   3.959   1.927
 1548SOL     OW 4778   0.044   3.336   1.023
 1548SOL    HW1 4779   0.038   3.276   0.949
 1548SOL    HW2 4780  -0.047   3.361   1.042
 1549SOL     OW 4781   2.850   2.692   3.467
 1549SOL    HW1 4782   2.840   2.786   3.475
 1549SOL    HW2 4783   2.766   2.656   3.497
 1550SOL     OW 4784   1.636   3.011   3.228
 1550SOL    HW1 4785   1.674   2.944   3.170
 1550SOL    HW2 4786   1.554   3.034   3.187
 1551SOL     OW 4787   0.025   0.681   2.383
 1551SOL    HW1 4788   0.053   0.591   2.366
 1551SOL    HW2 4789  -0.061   0.688   2.342
 1552SOL     OW 4790   0.135   1.231   1.404
 1552SOL    HW1 4791   0.211   1.172   1.406
 1552SOL    HW2 4792   0.068   1.181   1.356
 1553SOL     OW 4793   1.678   3.721   0.635
 1553SOL    HW1 4794   1.649   3.630   0.647
 1553SOL    HW2 4795   1.625   3.771   0.697
 1554SOL     OW 4796   3.121   3.796   2.120
 1554SOL    HW1 4797   3.088   3.750   2.042
 1554SOL    HW2 4798   3.049   3.793   2.182
 1555SOL     OW 4799   3.571   1.700   1.665
 1555SOL    HW1 4800   3.666   1.713   1.668
 1555SOL    HW2 4801   3.559   1.607   1.680
 1556SOL     OW 4802   3.694   2.783   3.399
 1556SOL    HW1 4803   3.622   2.804   3.340
 1556SOL    HW2 4804   3.771   2.775   3.342
 1557SOL     OW 4805   1.868   1.126   1.483
 1557SOL    HW1 4806   1.908   1.154   1.565
 1557SOL    HW2 4807   1.893   1.194   1.420
 1558SOL     OW 4808   3.300   2.129   0.136
 1558SOL    HW1 4809   3.252   2.212   0.135
 1558SOL    HW2 4810   3.370   2.142   0.200
 1559SOL     OW 4811   2.916   3.804   2.305
 1559SOL    HW1 4812   2.891   3.889   2.341
 1559SOL    HW2 4813   2.984   3.772   2.364
 1560SOL     OW 4814   0.584   0.756   1.991
 1560SOL    HW1 4815   0.613   0.675   2.033
 1560SOL    HW2 4816   0.506   0.732   1.942
 1561SOL     OW 4817   1.437   2.471   0.479
 1561SOL    HW1 4818   1.432   2.481   0.574
 1561SOL    HW2 4819   1.517   2.517   0.454
 1562SOL     OW 4820   3.842   0.451   0.969
 1562SOL    HW1 4821   3.817   0.404   0.890
 1562SOL    HW2 4822   3.808   0.398   1.041
 1563SOL     OW 4823   1.052   2.849   3.075
 1563SOL    HW1 4824   1.019   2.761   3.055
 1563SOL    HW2 4825   0.972   2.900   3.092
 1564SOL     OW 4826   3.490   1.341   3.187
 1564SOL    HW1 4827   3.474   1.352   3.094
 1564SOL    HW2 4828   3.578   1.378   3.201
 1565SOL     OW 4829   2.219   3.069   0.330
 1565SOL    HW1 4830   2.191   3.028   0.412
 1565SOL    HW2 4831   2.256   2.996   0.279
 1566SOL     OW 4832   0.006   1.193   1.632
 1566SOL    HW1 4833   0.002   1.267   1.693
 1566SOL    HW2 4834   0.037   1.231   1.550
 1567SOL     OW 4835   1.386   2.755   3.227
 1567SOL    HW1 4836   1.322   2.693   3.191
 1567SOL    HW2 4837   1.353   2.841   3.201
 1568SOL     OW 4838   3.649   0.528   2.317
 1568SOL    HW1 4839   3.608   0.498   2.398
 1568SOL    HW2 4840   3.649   0.624   2.323
 1569SOL     OW 4841   0.524   2.849   2.662
 1569SOL    HW1 4842   0.443   2.887   2.627
 1569SOL    HW2 4843   0.593   2.905   2.627
 1570SOL     OW 4844   1.901   2.911   2.088
 1570SOL    HW1 4845   1.913   2.973   2.160
 1570SOL    HW2 4846   1.989   2.886   2.062
 1571SOL     OW 4847   0.485   3.089   3.293
 1571SOL    HW1 4848   0.561   3.127   3.337
 1571SOL    HW2 4849   0.496   3.114   3.201
 1572SOL     OW 4850   2.421   2.652   1.201
 1572SOL    HW1 4851   2.433   2.659   1.296
 1572SOL    HW2 4852   2.341   2.701   1.183
 1573SOL     OW 4853   1.719   1.520   1.852
 1573SOL    HW1 4854   1.744   1.428   1.861
 1573SOL    HW2 4855   1.679   1.525   1.765
 1574SOL     OW 4856   2.964   0.819   0.130
 1574SOL    HW1 4857   2.874   0.845   0.151
 1574SOL    HW2 4858   2.969   0.825   0.034
 1575SOL     OW 4859   0.827   2.917   2.752
 1575SOL    HW1 4860   0.844   2.827   2.725
 1575SOL    HW2 4861   0.780   2.909   2.835
 1576SOL     OW 4862   3.270   2.424   2.408
 1576SOL    HW1 4863   3.270   2.411   2.503
 1576SOL    HW2 4864   3.179   2.406   2.381
 1577SOL     OW 4865   0.075   0.998   2.014
 1577SOL    HW1 4866   0.020   1.061   2.061
 1577SOL    HW2 4867   0.123   0.953   2.083
 1578SOL     OW 4868   2.552   2.399   3.111
 1578SOL    HW1 4869   2.504   2.318   3.125
 1578SOL    HW2 4870   2.484   2.464   3.091
 1579SOL     OW 4871   0.513   2.379   3.001
 1579SOL    HW1 4872   0.486   2.287   3.000
 1579SOL    HW2 4873   0.582   2.382   3.068
 1580SOL     OW 4874   3.512   0.818   2.133
 1580SOL    HW1 4875   3.518   0.855   2.045
 1580SOL    HW2 4876   3.419   0.796   2.144
 1581SOL     OW 4877   1.412   3.509   3.636
 1581SOL    HW1 4878   1.506   3.529   3.640
 1581SOL    HW2 4879   1.370   3.595   3.637
 1582SOL     OW 4880   2.339   0.966   2.991
 1582SOL    HW1 4881   2.422   1.009   2.969
 1582SOL    HW2 4882   2.321   0.993   3.081
 1583SOL     OW 4883   2.205   0.859   1.434
 1583SOL    HW1 4884   2.253   0.805   1.372
 1583SOL    HW2 4885   2.148   0.914   1.380
 1584SOL     OW 4886   3.318   2.176   3.799
 1584SOL    HW1 4887   3.228   2.157   3.774
 1584SOL    HW2 4888   3.316   2.178   3.895
 1585SOL     OW 4889   3.922   1.612   3.059
 1585SOL    HW1 4890   3.970   1.530   3.070
 1585SOL    HW2 4891   3.946   1.664   3.136
 1586SOL     OW 4892   2.384   2.536   0.323
 1586SOL    HW1 4893   2.459   2.520   0.380
 1586SOL    HW2 4894   2.319   2.472   0.351
 1587SOL     OW 4895   2.791   0.295   1.290
 1587SOL    HW1 4896   2.865   0.282   1.231
 1587SOL    HW2 4897   2.816   0.252   1.372
 1588SOL     OW 4898   2.307   0.344   3.937
 1588SOL    HW1 4899   2.312   0.309   3.849
 1588SOL    HW2 4900   2.399   0.356   3.963
 1589SOL     OW 4901   2.354   0.238   3.072
 1589SOL    HW1 4902   2.281   0.249   3.011
 1589SOL    HW2 4903   2.410   0.315   3.056
 1590SOL     OW 4904   1.171   2.046   2.600
 1590SOL    HW1 4905   1.204   2.055   2.689
 1590SOL    HW2 4906   1.087   2.092   2.601
 1591SOL     OW 4907   2.809   0.766   1.984
 1591SOL    HW1 4908   2.803   0.768   2.079
 1591SOL    HW2 4909   2.794   0.675   1.960
 1592SOL     OW 4910   2.083   2.028   1.379
 1592SOL    HW1 4911   2.176   2.026   1.356
 1592SOL    HW2 4912   2.058   2.120   1.371
 1593SOL     OW 4913   3.185   1.866   3.757
 1593SOL    HW1 4914   3.121   1.837   3.691
 1593SOL    HW2 4915   3.140   1.936   3.805
 1594SOL     OW 4916   2.346   2.306   0.754
 1594SOL    HW1 4917   2.398   2.386   0.739
 1594SOL    HW2 4918   2.336   2.302   0.849
 1595SOL     OW 4919   2.052   3.811   3.833
 1595SOL    HW1 4920   2.101   3.864   3.895
 1595SOL    HW2 4921   2.032   3.730   3.880
 1596SOL     OW 4922   0.593   0.428   0.183
 1596SOL    HW1 4923   0.644   0.449   0.105
 1596SOL    HW2 4924   0.511   0.391   0.150
 1597SOL     OW 4925   3.635   2.834   0.896
 1597SOL    HW1 4926   3.556   2.854   0.846
 1597SOL    HW2 4927   3.666   2.919   0.927
 1598SOL     OW 4928   1.431   2.440   3.631
 1598SOL    HW1 4929   1.365   2.501   3.662
 1598SOL    HW2 4930   1.382   2.377   3.578
 1599SOL     OW 4931   2.540   1.550   0.830
 1599SOL    HW1 4932   2.632   1.564   0.853
 1599SOL    HW2 4933   2.538   1.466   0.786
 1600SOL     OW 4934   3.773   1.174   0.022
 1600SOL    HW1 4935   3.715   1.099   0.040
 1600SOL    HW2 4936   3.860   1.143   0.048
 1601SOL     OW 4937   3.868   2.772   0.020
 1601SOL    HW1 4938   3.951   2.784  -0.026
 1601SOL    HW2 4939   3.887   2.800   0.110
 1602SOL     OW 4940   3.097   3.168   1.395
 1602SOL    HW1 4941   3.178   3.120   1.408
 1602SOL    HW2 4942   3.123   3.260   1.398
 1603SOL     OW 4943   0.472   3.590   1.250
 1603SOL    HW1 4944   0.418   3.568   1.325
 1603SOL    HW2 4945   0.544   3.527   1.252
 1604SOL     OW 4946   2.261   2.147   1.809
 1604SOL    HW1 4947   2.312   2.071   1.783
 1604SOL    HW2 4948   2.305   2.178   1.889
 1605SOL     OW 4949   1.232   0.642   0.032
 1605SOL    HW1 4950   1.215   0.629   0.125
 1605SOL    HW2 4951   1.283   0.565   0.006
 1606SOL     OW 4952   0.610   1.934   3.924
 1606SOL    HW1 4953   0.537   1.879   3.952
 1606SOL    HW2 4954   0.646   1.970   4.005
 1607SOL     OW 4955   1.814   2.370   1.931
 1607SOL    HW1 4956   1.760   2.303   1.973
 1607SOL    HW2 4957   1.850   2.420   2.004
 1608SOL     OW 4958   3.474   3.894   2.853
 1608SOL    HW1 4959   3.512   3.836   2.920
 1608SOL    HW2 4960   3.538   3.893   2.782
 1609SOL     OW 4961   0.386   1.942   2.825
 1609SOL    HW1 4962   0.377   1.847   2.814
 1609SOL    HW2 4963   0.314   1.979   2.775
 1610SOL     OW 4964   2.890   3.357   0.404
 1610SOL    HW1 4965   2.862   3.267   0.422
 1610SOL    HW2 4966   2.834   3.384   0.331
 1611SOL     OW 4967   3.367   0.643   1.477
 1611SOL    HW1 4968   3.272   0.644   1.461
 1611SOL    HW2 4969   3.405   0.682   1.398
 1612SOL     OW 4970   0.557   1.612   0.507
 1612SOL    HW1 4971   0.467   1.601   0.537
 1612SOL    HW2 4972   0.593   1.523   0.504
 1613SOL     OW 4973   1.879   1.396   3.764
 1613SOL    HW1 4974   1.910   1.306   3.769
 1613SOL    HW2 4975   1.789   1.390   3.732
 1614SOL     OW 4976   3.788   0.335   3.375
 1614SOL    HW1 4977   3.832   0.272   3.317
 1614SOL    HW2 4978   3.700   0.343   3.340
 1615SOL     OW 4979   1.548   3.669   1.719
 1615SOL    HW1 4980   1.586   3.643   1.803
 1615SOL    HW2 4981   1.623   3.688   1.664
 1616SOL     OW 4982   0.574   2.491   0.550
 1616SOL    HW1 4983   0.521   2.441   0.611
 1616SOL    HW2 4984   0.645   2.526   0.603
 1617SOL     OW 4985   2.914   0.910   3.829
 1617SOL    HW1 4986   2.994   0.905   3.776
 1617SOL    HW2 4987   2.874   0.993   3.803
 1618SOL     OW 4988   1.012   2.360   3.438
 1618SOL    HW1 4989   1.053   2.440   3.470
 1618SOL    HW2 4990   0.932   2.390   3.393
 1619SOL     OW 4991   0.296   3.409   3.210
 1619SOL    HW1 4992   0.270   3.499   3.193
 1619SOL    HW2 4993   0.334   3.411   3.298
 1620SOL     OW 4994   0.179   1.900   1.465
 1620SOL    HW1 4995   0.164   1.808   1.488
 1620SOL    HW2 4996   0.148   1.949   1.541
 1621SOL     OW 4997   3.532   3.139   3.897
 1621SOL    HW1 4998   3.497   3.226   3.880
 1621SOL    HW2 4999   3.455   3.085   3.916
 1622SOL     OW 5000   0.512   3.705   0.608
 1622SOL    HW1 5001   0.502   3.799   0.597
 1622SOL    HW2 5002   0.435   3.667   0.565
 1623SOL     OW 5003   1.807   3.103   2.948
 1623SOL    HW1 5004   1.792   3.047   2.871
 1623SOL    HW2 5005   1.785   3.191   2.918
 1624SOL     OW 5006   0.556   2.740   1.140
 1624SOL    HW1 5007   0.593   2.652   1.126
 1624SOL    HW2 5008   0.630   2.793   1.169
 1625SOL     OW 5009   0.732   1.430   2.043
 1625SOL    HW1 5010   0.721   1.462   1.954
 1625SOL    HW2 5011   0.648   1.448   2.086
 1626SOL     OW 5012   3.174   2.852   3.473
 1626SOL    HW1 5013   3.089   2.893   3.460
 1626SOL    HW2 5014   3.164   2.763   3.440
 1627SOL     OW 5015   2.140   1.828   0.494
 1627SOL    HW1 5016   2.110   1.738   0.487
 1627SOL    HW2 5017   2.226   1.822   0.536
 1628SOL     OW 5018   3.067   3.785   2.525
 1628SOL    HW1 5019   3.150   3.781   2.572
 1628SOL    HW2 5020   3.016   3.712   2.560
 1629SOL     OW 5021   0.765   2.083   1.866
 1629SOL    HW1 5022   0.799   2.160   1.910
 1629SOL    HW2 5023   0.822   2.012   1.895
 1630SOL     OW 5024   0.157   0.969   3.059
 1630SOL    HW1 5025   0.067   0.996   3.078
 1630SOL    HW2 5026   0.202   1.050   3.035
 1631SOL     OW 5027   1.655   2.938   1.044
 1631SOL    HW1 5028   1.688   2.854   1.011
 1631SOL    HW2 5029   1.636   2.989   0.965
 1632SOL     OW 5030   3.488   0.945   0.971
 1632SOL    HW1 5031   3.468   0.913   1.059
 1632SOL    HW2 5032   3.403   0.969   0.934
 1633SOL     OW 5033   0.142   0.089   0.742
 1633SOL    HW1 5034   0.083   0.027   0.786
 1633SOL    HW2 5035   0.168   0.150   0.811
 1634SOL     OW 5036   3.576   0.556   1.857
 1634SOL    HW1 5037   3.532   0.471   1.863
 1634SOL    HW2 5038   3.648   0.550   1.919
 1635SOL     OW 5039   3.546   1.121   1.732
 1635SOL    HW1 5040   3.534   1.052   1.797
 1635SOL    HW2 5041   3.459   1.157   1.719
 1636SOL     OW 5042   0.449   2.169   2.368
 1636SOL    HW1 5043   0.359   2.177   2.397
 1636SOL    HW2 5044   0.496   2.240   2.413
 1637SOL     OW 5045   1.006   1.465   0.011
 1637SOL    HW1 5046   1.077   1.405   0.033
 1637SOL    HW2 5047   1.034   1.549   0.046
 1638SOL     OW 5048   3.280   0.014   0.912
 1638SOL    HW1 5049   3.262   0.025   1.005
 1638SOL    HW2 5050   3.194   0.003   0.872
 1639SOL     OW 5051   2.548   0.764   1.051
 1639SOL    HW1 5052   2.588   0.823   0.987
 1639SOL    HW2 5053   2.622   0.735   1.106
 1640SOL     OW 5054   0.050   1.054   2.745
 1640SOL    HW1 5055  -0.037   1.016   2.759
 1640SOL    HW2 5056   0.110   0.979   2.751
 1641SOL     OW 5057   3.382   2.671   3.269
 1641SOL    HW1 5058   3.329   2.637   3.341
 1641SOL    HW2 5059   3.443   2.599   3.249
 1642SOL     OW 5060   2.335   2.541   3.071
 1642SOL    HW1 5061   2.246   2.506   3.072
 1642SOL    HW2 5062   2.327   2.626   3.029
 1643SOL     OW 5063   2.771   3.680   3.043
 1643SOL    HW1 5064   2.765   3.598   2.994
 1643SOL    HW2 5065   2.796   3.654   3.131
 1644SOL     OW 5066   2.926   3.052   0.086
 1644SOL    HW1 5067   2.924   3.148   0.082
 1644SOL    HW2 5068   3.020   3.031   0.087
 1645SOL     OW 5069   3.634   1.009   0.458
 1645SOL    HW1 5070   3.578   1.024   0.534
 1645SOL    HW2 5071   3.663   0.918   0.467
 1646SOL     OW 5072   3.189   1.372   3.279
 1646SOL    HW1 5073   3.213   1.437   3.345
 1646SOL    HW2 5074   3.271   1.329   3.255
 1647SOL     OW 5075   3.300   3.583   3.579
 1647SOL    HW1 5076   3.341   3.620   3.501
 1647SOL    HW2 5077   3.221   3.636   3.592
 1648SOL     OW 5078   0.460   3.424   0.112
 1648SOL    HW1 5079   0.469   3.437   0.206
 1648SOL    HW2 5080   0.378   3.374   0.103
 1649SOL     OW 5081   2.929   1.044   3.291
 1649SOL    HW1 5082   2.949   0.973   3.231
 1649SOL    HW2 5083   3.008   1.054   3.344
 1650SOL     OW 5084   3.889   0.254   0.412
 1650SOL    HW1 5085   3.881   0.164   0.382
 1650SOL    HW2 5086   3.808   0.271   0.460
 1651SOL     OW 5087   2.759   2.570   1.635
 1651SOL    HW1 5088   2.739   2.489   1.588
 1651SOL    HW2 5089   2.800   2.541   1.716
 1652SOL     OW 5090   2.965   1.646   3.795
 1652SOL    HW1 5091   2.969   1.730   3.841
 1652SOL    HW2 5092   2.964   1.670   3.702
 1653SOL     OW 5093   2.786   3.682   3.431
 1653SOL    HW1 5094   2.785   3.710   3.522
 1653SOL    HW2 5095   2.694   3.674   3.406
 1654SOL     OW 5096   0.576   2.260   1.929
 1654SOL    HW1 5097   0.564   2.234   2.021
 1654SOL    HW2 5098   0.658   2.218   1.903
 1655SOL     OW 5099   2.776   3.772   0.252
 1655SOL    HW1 5100   2.765   3.768   0.347
 1655SOL    HW2 5101   2.803   3.863   0.235
 1656SOL     OW 5102   3.371   0.341   1.229
 1656SOL    HW1 5103   3.446   0.400   1.217
 1656SOL    HW2 5104   3.351   0.347   1.322
 1657SOL     OW 5105   0.868   3.757   2.167
 1657SOL    HW1 5106   0.857   3.820   2.095
 1657SOL    HW2 5107   0.962   3.737   2.167
 1658SOL     OW 5108   3.014   2.311   2.401
 1658SOL    HW1 5109   2.925   2.340   2.422
 1658SOL    HW2 5110   3.005   2.265   2.318
 1659SOL     OW 5111   2.772   0.286   0.082
 1659SOL    HW1 5112   2.707   0.323   0.022
 1659SOL    HW2 5113   2.842   0.351   0.085
 1660SOL     OW 5114   3.573   0.427   2.963
 1660SOL    HW1 5115   3.562   0.417   3.057
 1660SOL    HW2 5116   3.520   0.357   2.925
 1661SOL     OW 5117   3.670   0.661   1.596
 1661SOL    HW1 5118   3.580   0.687   1.579
 1661SOL    HW2 5119   3.667   0.620   1.683
 1662SOL     OW 5120   0.861   2.692   1.506
 1662SOL    HW1 5121   0.828   2.758   1.444
 1662SOL    HW2 5122   0.953   2.713   1.517
 1663SOL     OW 5123   0.464   1.281   0.698
 1663SOL    HW1 5124   0.408   1.307   0.772
 1663SOL    HW2 5125   0.416   1.210   0.656
 1664SOL     OW 5126   2.649   1.029   0.615
 1664SOL    HW1 5127   2.564   1.064   0.589
 1664SOL    HW2 5128   2.712   1.096   0.590
 1665SOL     OW 5129   3.662   1.563   0.427
 1665SOL    HW1 5130   3.569   1.574   0.443
 1665SOL    HW2 5131   3.702   1.569   0.513
 1666SOL     OW 5132   1.893   3.216   0.979
 1666SOL    HW1 5133   1.941   3.178   1.053
 1666SOL    HW2 5134   1.889   3.310   0.999
 1667SOL     OW 5135   0.967   3.381   0.127
 1667SOL    HW1 5136   1.027   3.312   0.099
 1667SOL    HW2 5137   1.004   3.414   0.209
 1668SOL     OW 5138   3.454   3.490   2.841
 1668SOL    HW1 5139   3.427   3.573   2.882
 1668SOL    HW2 5140   3.549   3.492   2.843
 1669SOL     OW 5141   3.214   2.363   2.666
 1669SOL    HW1 5142   3.135   2.313   2.646
 1669SOL    HW2 5143   3.267   2.305   2.720
 1670SOL     OW 5144   2.681   0.813   2.980
 1670SOL    HW1 5145   2.705   0.720   2.987
 1670SOL    HW2 5146   2.750   0.852   2.927
 1671SOL     OW 5147   1.441   0.355   2.370
 1671SOL    HW1 5148   1.363   0.403   2.341
 1671SOL    HW2 5149   1.502   0.424   2.397
 1672SOL     OW 5150   2.896   1.494   2.934
 1672SOL    HW1 5151   2.826   1.474   2.996
 1672SOL    HW2 5152   2.975   1.502   2.988
 1673SOL     OW 5153   0.981   0.874   0.024
 1673SOL    HW1 5154   1.036   0.877   0.103
 1673SOL    HW2 5155   0.920   0.947   0.035
 1674SOL     OW 5156   0.331   3.484   0.743
 1674SOL    HW1 5157   0.258   3.524   0.696
 1674SOL    HW2 5158   0.345   3.541   0.818
 1675SOL     OW 5159   2.679   3.272   2.054
 1675SOL    HW1 5160   2.775   3.267   2.046
 1675SOL    HW2 5161   2.647   3.254   1.966
 1676SOL     OW 5162   3.550   2.854   2.530
 1676SOL    HW1 5163   3.519   2.936   2.567
 1676SOL    HW2 5164   3.630   2.877   2.483
 1677SOL     OW 5165   3.929   1.521   3.796
 1677SOL    HW1 5166   3.867   1.453   3.770
 1677SOL    HW2 5167   3.938   1.576   3.718
 1678SOL     OW 5168   1.321   0.188   3.155
 1678SOL    HW1 5169   1.366   0.252   3.210
 1678SOL    HW2 5170   1.228   0.199   3.178
 1679SOL     OW 5171   0.662   0.485   1.442
 1679SOL    HW1 5172   0.748   0.510   1.476
 1679SOL    HW2 5173   0.665   0.507   1.349
 1680SOL     OW 5174   1.565   1.458   2.613
 1680SOL    HW1 5175   1.537   1.546   2.585
 1680SOL    HW2 5176   1.603   1.471   2.700
 1681SOL     OW 5177   2.378   3.724   1.049
 1681SOL    HW1 5178   2.433   3.783   0.997
 1681SOL    HW2 5179   2.345   3.779   1.120
 1682SOL     OW 5180   2.952   0.443   2.204
 1682SOL    HW1 5181   2.868   0.407   2.231
 1682SOL    HW2 5182   3.007   0.367   2.187
 1683SOL     OW 5183   2.568   0.457   3.924
 1683SOL    HW1 5184   2.490   0.509   3.939
 1683SOL    HW2 5185   2.633   0.521   3.893
 1684SOL     OW 5186   1.997   0.849   0.565
 1684SOL    HW1 5187   2.004   0.842   0.470
 1684SOL    HW2 5188   1.994   0.759   0.596
 1685SOL     OW 5189   1.041   0.157   2.670
 1685SOL    HW1 5190   0.947   0.162   2.686
 1685SOL    HW2 5191   1.071   0.248   2.674
 1686SOL     OW 5192   2.067   2.045   3.376
 1686SOL    HW1 5193   1.980   2.077   3.401
 1686SOL    HW2 5194   2.070   1.956   3.410
 1687SOL     OW 5195   1.408   1.931   3.436
 1687SOL    HW1 5196   1.468   2.006   3.438
 1687SOL    HW2 5197   1.355   1.941   3.515
 1688SOL     OW 5198   0.952   2.368   1.005
 1688SOL    HW1 5199   0.900   2.291   1.027
 1688SOL    HW2 5200   1.036   2.354   1.049
 1689SOL     OW 5201   2.025   1.808   3.793
 1689SOL    HW1 5202   1.952   1.809   3.730
 1689SOL    HW2 5203   2.067   1.893   3.781
 1690SOL     OW 5204   1.141   1.807   3.779
 1690SOL    HW1 5205   1.232   1.819   3.807
 1690SOL    HW2 5206   1.146   1.796   3.684
 1691SOL     OW 5207   2.886   1.846   2.238
 1691SOL    HW1 5208   2.964   1.803   2.273
 1691SOL    HW2 5209   2.840   1.878   2.315
 1692SOL     OW 5210   1.282   3.760   3.580
 1692SOL    HW1 5211   1.301   3.838   3.631
 1692SOL    HW2 5212   1.187   3.752   3.583
 1693SOL     OW 5213   1.417   2.762   0.208
 1693SOL    HW1 5214   1.438   2.852   0.233
 1693SOL    HW2 5215   1.501   2.716   0.210
 1694SOL     OW 5216   1.080   3.665   0.579
 1694SOL    HW1 5217   1.054   3.758   0.580
 1694SOL    HW2 5218   1.164   3.664   0.533
 1695SOL     OW 5219   2.073   2.620   1.055
 1695SOL    HW1 5220   2.071   2.659   0.968
 1695SOL    HW2 5221   1.981   2.604   1.076
 1696SOL     OW 5222   2.750   2.134   1.746
 1696SOL    HW1 5223   2.810   2.196   1.705
 1696SOL    HW2 5224   2.761   2.054   1.694
 1697SOL     OW 5225   0.602   1.833   3.633
 1697SOL    HW1 5226   0.552   1.806   3.710
 1697SOL    HW2 5227   0.657   1.905   3.664
 1698SOL     OW 5228   2.332   2.241   3.618
 1698SOL    HW1 5229   2.402   2.307   3.620
 1698SOL    HW2 5230   2.325   2.217   3.525
 1699SOL     OW 5231   0.846   2.628   1.185
 1699SOL    HW1 5232   0.934   2.639   1.149
 1699SOL    HW2 5233   0.807   2.558   1.132
 1700SOL     OW 5234   0.502   0.031   0.581
 1700SOL    HW1 5235   0.538   0.084   0.510
 1700SOL    HW2 5236   0.483   0.094   0.651
 1701SOL     OW 5237   0.360   3.633   3.909
 1701SOL    HW1 5238   0.309   3.695   3.962
 1701SOL    HW2 5239   0.418   3.590   3.972
 1702SOL     OW 5240   0.584   1.352   0.172
 1702SOL    HW1 5241   0.582   1.261   0.143
 1702SOL    HW2 5242   0.632   1.398   0.104
 1703SOL     OW 5243   3.754   0.238   0.816
 1703SOL    HW1 5244   3.837   0.192   0.807
 1703SOL    HW2 5245   3.704   0.184   0.878
 1704SOL     OW 5246   1.693   2.750   0.157
 1704SOL    HW1 5247   1.706   2.717   0.068
 1704SOL    HW2 5248   1.714   2.844   0.151
 1705SOL     OW 5249   3.060   1.117   2.232
 1705SOL    HW1 5250   3.017   1.125   2.318
 1705SOL    HW2 5251   2.987   1.121   2.170
 1706SOL     OW 5252   1.652   0.161   1.023
 1706SOL    HW1 5253   1.600   0.082   1.005
 1706SOL    HW2 5254   1.613   0.197   1.102
 1707SOL     OW 5255   0.577   3.665   2.740
 1707SOL    HW1 5256   0.597   3.645   2.649
 1707SOL    HW2 5257   0.490   3.628   2.754
 1708SOL     OW 5258   2.842   3.073   3.109
 1708SOL    HW1 5259   2.866   3.118   3.190
 1708SOL    HW2 5260   2.869   2.982   3.123
 1709SOL     OW 5261   1.073   1.013   0.985
 1709SOL    HW1 5262   1.057   0.921   0.965
 1709SOL    HW2 5263   1.156   1.033   0.942
 1710SOL     OW 5264   3.654   3.375   1.031
 1710SOL    HW1 5265   3.643   3.451   0.974
 1710SOL    HW2 5266   3.593   3.390   1.103
 1711SOL     OW 5267   0.166   0.793   0.385
 1711SOL    HW1 5268   0.089   0.811   0.331
 1711SOL    HW2 5269   0.224   0.744   0.328
 1712SOL     OW 5270   0.347   1.133   2.177
 1712SOL    HW1 5271   0.315   1.045   2.197
 1712SOL    HW2 5272   0.284   1.191   2.219
 1713SOL     OW 5273   3.919   1.100   2.457
 1713SOL    HW1 5274   3.861   1.073   2.528
 1713SOL    HW2 5275   3.946   1.017   2.416
 1714SOL     OW 5276   3.147   1.067   3.424
 1714SOL    HW1 5277   3.182   1.030   3.505
 1714SOL    HW2 5278   3.190   1.152   3.416
 1715SOL     OW 5279   1.283   1.801   0.596
 1715SOL    HW1 5280   1.378   1.789   0.593
 1715SOL    HW2 5281   1.267   1.877   0.540
 1716SOL     OW 5282   2.707   3.464   3.829
 1716SOL    HW1 5283   2.786   3.427   3.792
 1716SOL    HW2 5284   2.635   3.415   3.788
 1717SOL     OW 5285   0.879   3.320   3.212
 1717SOL    HW1 5286   0.831   3.376   3.273
 1717SOL    HW2 5287   0.900   3.241   3.262
 1718SOL     OW 5288   2.977   1.385   3.805
 1718SOL    HW1 5289   2.995   1.479   3.795
 1718SOL    HW2 5290   2.930   1.379   3.888
 1719SOL     OW 5291   0.194   0.795   1.087
 1719SOL    HW1 5292   0.234   0.825   1.005
 1719SOL    HW2 5293   0.102   0.817   1.078
 1720SOL     OW 5294   1.528   0.216   0.345
 1720SOL    HW1 5295   1.507   0.126   0.371
 1720SOL    HW2 5296   1.603   0.207   0.287
 1721SOL     OW 5297   1.204   1.284   0.825
 1721SOL    HW1 5298   1.217   1.206   0.879
 1721SOL    HW2 5299   1.210   1.252   0.735
 1722SOL     OW 5300   2.901   0.049   0.190
 1722SOL    HW1 5301   2.931  -0.010   0.121
 1722SOL    HW2 5302   2.876   0.129   0.144
 1723SOL     OW 5303   0.483   2.356   0.320
 1723SOL    HW1 5304   0.407   2.297   0.329
 1723SOL    HW2 5305   0.481   2.410   0.400
 1724SOL     OW 5306   2.218   2.666   0.517
 1724SOL    HW1 5307   2.286   2.630   0.461
 1724SOL    HW2 5308   2.237   2.760   0.522
 1725SOL     OW 5309   1.727   1.261   1.949
 1725SOL    HW1 5310   1.659   1.205   1.987
 1725SOL    HW2 5311   1.786   1.279   2.023
 1726SOL     OW 5312   2.369   0.336   0.330
 1726SOL    HW1 5313   2.294   0.386   0.299
 1726SOL    HW2 5314   2.354   0.326   0.424
 1727SOL     OW 5315   2.787   1.441   3.575
 1727SOL    HW1 5316   2.838   1.438   3.655
 1727SOL    HW2 5317   2.852   1.447   3.505
 1728SOL     OW 5318   0.912   2.237   0.191
 1728SOL    HW1 5319   0.881   2.318   0.150
 1728SOL    HW2 5320   0.949   2.265   0.274
 1729SOL     OW 5321   2.595   0.367   2.422
 1729SOL    HW1 5322   2.584   0.292   2.480
 1729SOL    HW2 5323   2.674   0.411   2.453
 1730SOL     OW 5324   0.310   3.959   2.259
 1730SOL    HW1 5325   0.401   3.987   2.254
 1730SOL    HW2 5326   0.306   3.904   2.337
 1731SOL     OW 5327   3.337   3.741   2.557
 1731SOL    HW1 5328   3.362   3.665   2.609
 1731SOL    HW2 5329   3.418   3.791   2.548
 1732SOL     OW 5330   1.892   2.659   2.946
 1732SOL    HW1 5331   1.965   2.598   2.953
 1732SOL    HW2 5332   1.865   2.654   2.854
 1733SOL     OW 5333   2.768   1.933   1.551
 1733SOL    HW1 5334   2.682   1.892   1.541
 1733SOL    HW2 5335   2.813   1.915   1.468
 1734SOL     OW 5336   2.785   2.287   3.387
 1734SOL    HW1 5337   2.797   2.254   3.298
 1734SOL    HW2 5338   2.765   2.380   3.375
 1735SOL     OW 5339   0.078   0.577   1.418
 1735SOL    HW1 5340   0.086   0.482   1.419
 1735SOL    HW2 5341   0.149   0.607   1.360
 1736SOL     OW 5342   2.692   0.195   1.717
 1736SOL    HW1 5343   2.779   0.185   1.679
 1736SOL    HW2 5344   2.709   0.223   1.807
 1737SOL     OW 5345   2.813   1.619   2.494
 1737SOL    HW1 5346   2.892   1.639   2.544
 1737SOL    HW2 5347   2.787   1.532   2.524
 1738SOL     OW 5348   1.959   2.061   1.920
 1738SOL    HW1 5349   1.932   2.113   1.845
 1738SOL    HW2 5350   1.900   1.985   1.919
 1739SOL     OW 5351   3.511   0.622   0.066
 1739SOL    HW1 5352   3.473   0.664   0.143
 1739SOL    HW2 5353   3.480   0.532   0.070
 1740SOL     OW 5354   3.571   0.276   0.079
 1740SOL    HW1 5355   3.563   0.211   0.149
 1740SOL    HW2 5356   3.573   0.223  -0.001
 1741SOL     OW 5357   1.091   2.487   3.917
 1741SOL    HW1 5358   1.036   2.560   3.944
 1741SOL    HW2 5359   1.153   2.475   3.990
 1742SOL     OW 5360   3.413   3.780   3.384
 1742SOL    HW1 5361   3.324   3.783   3.350
 1742SOL    HW2 5362   3.466   3.750   3.310
 1743SOL     OW 5363   0.453   0.445   3.882
 1743SOL    HW1 5364   0.547   0.455   3.899
 1743SOL    HW2 5365   0.441   0.350   3.874
 1744SOL     OW 5366   1.726   3.290   2.397
 1744SOL    HW1 5367   1.781   3.338   2.335
 1744SOL    HW2 5368   1.659   3.249   2.342
 1745SOL     OW 5369   1.524   0.965   3.875
 1745SOL    HW1 5370   1.504   0.872   3.886
 1745SOL    HW2 5371   1.474   1.009   3.943
 1746SOL     OW 5372   3.024   2.030   1.411
 1746SOL    HW1 5373   2.951   2.091   1.420
 1746SOL    HW2 5374   3.102   2.084   1.429
 1747SOL     OW 5375   0.506   1.119   1.058
 1747SOL    HW1 5376   0.440   1.069   1.010
 1747SOL    HW2 5377   0.470   1.128   1.146
 1748SOL     OW 5378   2.177   3.279   2.154
 1748SOL    HW1 5379   2.228   3.203   2.180
 1748SOL    HW2 5380   2.241   3.340   2.119
 1749SOL     OW 5381   3.550   1.811   0.219
 1749SOL    HW1 5382   3.524   1.748   0.287
 1749SOL    HW2 5383   3.468   1.836   0.177
 1750SOL     OW 5384   1.994   2.709   0.771
 1750SOL    HW1 5385   2.011   2.763   0.694
 1750SOL    HW2 5386   2.006   2.619   0.740
 1751SOL     OW 5387   2.750   1.904   2.466
 1751SOL    HW1 5388   2.790   1.953   2.537
 1751SOL    HW2 5389   2.704   1.832   2.508
 1752SOL     OW 5390   0.034   0.791   3.898
 1752SOL    HW1 5391   0.098   0.725   3.921
 1752SOL    HW2 5392   0.061   0.822   3.812
 1753SOL     OW 5393   2.590   1.679   3.515
 1753SOL    HW1 5394   2.591   1.654   3.608
 1753SOL    HW2 5395   2.615   1.599   3.469
 1754SOL     OW 5396   3.861   0.056  -0.001
 1754SOL    HW1 5397   3.865  -0.023   0.052
 1754SOL    HW2 5398   3.773   0.055  -0.040
 1755SOL     OW 5399   0.238   3.072   1.658
 1755SOL    HW1 5400   0.220   3.068   1.564
 1755SOL    HW2 5401   0.196   3.153   1.688
 1756SOL     OW 5402   1.473   3.131   3.867
 1756SOL    HW1 5403   1.488   3.200   3.803
 1756SOL    HW2 5404   1.529   3.059   3.839
 1757SOL     OW 5405   3.318   0.021   3.949
 1757SOL    HW1 5406   3.334  -0.008   3.859
 1757SOL    HW2 5407   3.285   0.110   3.940
 1758SOL     OW 5408   1.398   3.431   2.861
 1758SOL    HW1 5409   1.364   3.511   2.820
 1758SOL    HW2 5410   1.413   3.456   2.953
 1759SOL     OW 5411   0.547   1.228   2.557
 1759SOL    HW1 5412   0.575   1.231   2.465
 1759SOL    HW2 5413   0.624   1.195   2.604
 1760SOL     OW 5414   2.508   1.254   1.835
 1760SOL    HW1 5415   2.601   1.269   1.822
 1760SOL    HW2 5416   2.467   1.339   1.815
 1761SOL     OW 5417   3.710   1.443   1.079
 1761SOL    HW1 5418   3.674   1.532   1.082
 1761SOL    HW2 5419   3.662   1.400   1.008
 1762SOL     OW 5420   2.648   1.887   1.908
 1762SOL    HW1 5421   2.720   1.950   1.916
 1762SOL    HW2 5422   2.690   1.801   1.908
 1763SOL     OW 5423   1.728   3.890   0.085
 1763SOL    HW1 5424   1.677   3.847   0.153
 1763SOL    HW2 5425   1.797   3.827   0.063
 1764SOL     OW 5426   0.606   1.865   2.375
 1764SOL    HW1 5427   0.587   1.794   2.437
 1764SOL    HW2 5428   0.569   1.943   2.416
 1765SOL     OW 5429   1.601   0.356   2.736
 1765SOL    HW1 5430   1.583   0.263   2.751
 1765SOL    HW2 5431   1.660   0.381   2.807
 1766SOL     OW 5432   2.971   2.275   1.637
 1766SOL    HW1 5433   2.998   2.366   1.646
 1766SOL    HW2 5434   3.008   2.247   1.554
 1767SOL     OW 5435   3.352   0.630   0.925
 1767SOL    HW1 5436   3.270   0.663   0.887
 1767SOL    HW2 5437   3.394   0.582   0.853
 1768SOL     OW 5438   1.060   0.010   2.942
 1768SOL    HW1 5439   1.064   0.047   2.854
 1768SOL    HW2 5440   0.981   0.048   2.981
 1769SOL     OW 5441   1.672   2.213   0.390
 1769SOL    HW1 5442   1.764   2.235   0.380
 1769SOL    HW2 5443   1.647   2.249   0.476
 1770SOL     OW 5444   2.566   0.158   0.251
 1770SOL    HW1 5445   2.618   0.199   0.182
 1770SOL    HW2 5446   2.488   0.213   0.258
 1771SOL     OW 5447   0.309   2.107   3.254
 1771SOL    HW1 5448   0.332   2.096   3.346
 1771SOL    HW2 5449   0.233   2.166   3.255
 1772SOL     OW 5450   1.453   2.338   3.236
 1772SOL    HW1 5451   1.499   2.415   3.269
 1772SOL    HW2 5452   1.502   2.311   3.159
 1773SOL     OW 5453   2.585   3.122   0.737
 1773SOL    HW1 5454   2.597   3.166   0.653
 1773SOL    HW2 5455   2.534   3.183   0.789
 1774SOL     OW 5456   3.043   0.041   1.938
 1774SOL    HW1 5457   3.131   0.024   1.972
 1774SOL    HW2 5458   3.015  -0.043   1.902
 1775SOL     OW 5459   2.388   1.987   3.781
 1775SOL    HW1 5460   2.336   2.044   3.725
 1775SOL    HW2 5461   2.365   1.898   3.752
 1776SOL     OW 5462   1.339   0.967   2.616
 1776SOL    HW1 5463   1.324   0.899   2.681
 1776SOL    HW2 5464   1.323   1.049   2.663
 1777SOL     OW 5465   0.519   2.147   1.428
 1777SOL    HW1 5466   0.487   2.077   1.485
 1777SOL    HW2 5467   0.530   2.105   1.342
 1778SOL     OW 5468   3.343   2.105   2.263
 1778SOL    HW1 5469   3.414   2.099   2.326
 1778SOL    HW2 5470   3.356   2.190   2.220
 1779SOL     OW 5471   1.162   3.656   2.178
 1779SOL    HW1 5472   1.192   3.672   2.088
 1779SOL    HW2 5473   1.230   3.695   2.233
 1780SOL     OW 5474   0.688   3.055   2.542
 1780SOL    HW1 5475   0.709   3.106   2.463
 1780SOL    HW2 5476   0.744   3.093   2.610
 1781SOL     OW 5477   0.817   0.113   3.022
 1781SOL    HW1 5478   0.754   0.162   2.969
 1781SOL    HW2 5479   0.765   0.049   3.070
 1782SOL     OW 5480   0.206   2.047   2.670
 1782SOL    HW1 5481   0.255   2.071   2.592
 1782SOL    HW2 5482   0.123   2.093   2.662
 1783SOL     OW 5483   1.104   1.623   1.559
 1783SOL    HW1 5484   1.103   1.527   1.553
 1783SOL    HW2 5485   1.012   1.648   1.564
 1784SOL     OW 5486   2.349   2.775   0.257
 1784SOL    HW1 5487   2.430   2.782   0.207
 1784SOL    HW2 5488   2.354   2.688   0.297
 1785SOL     OW 5489   0.563   2.447   3.540
 1785SOL    HW1 5490   0.519   2.371   3.579
 1785SOL    HW2 5491   0.612   2.411   3.467
 1786SOL     OW 5492   1.990   1.083   3.819
 1786SOL    HW1 5493   2.032   1.093   3.905
 1786SOL    HW2 5494   1.926   1.013   3.831
 1787SOL     OW 5495   1.826   0.491   1.128
 1787SOL    HW1 5496   1.861   0.474   1.215
 1787SOL    HW2 5497   1.899   0.475   1.069
 1788SOL     OW 5498   2.618   1.203   1.082
 1788SOL    HW1 5499   2.580   1.142   1.019
 1788SOL    HW2 5500   2.707   1.170   1.096
 1789SOL     OW 5501   3.396   2.009   0.626
 1789SOL    HW1 5502   3.481   2.047   0.648
 1789SOL    HW2 5503   3.378   1.948   0.699
 1790SOL     OW 5504   3.595   1.141   2.382
 1790SOL    HW1 5505   3.505   1.163   2.405
 1790SOL    HW2 5506   3.633   1.105   2.462
 1791SOL     OW 5507   2.277   3.235   3.146
 1791SOL    HW1 5508   2.186   3.259   3.168
 1791SOL    HW2 5509   2.271   3.144   3.118
 1792SOL     OW 5510   1.677   3.453   0.058
 1792SOL    HW1 5511   1.601   3.510   0.048
 1792SOL    HW2 5512   1.697   3.424  -0.031
 1793SOL     OW 5513   2.460   3.010   3.416
 1793SOL    HW1 5514   2.448   2.985   3.324
 1793SOL    HW2 5515   2.512   3.090   3.413
 1794SOL     OW 5516   2.899   2.671   0.082
 1794SOL    HW1 5517   2.817   2.625   0.096
 1794SOL    HW2 5518   2.877   2.739   0.017
 1795SOL     OW 5519   2.521   2.265   1.914
 1795SOL    HW1 5520   2.560   2.217   1.841
 1795SOL    HW2 5521   2.487   2.197   1.972
 1796SOL     OW 5522   2.684   2.731   1.088
 1796SOL    HW1 5523   2.640   2.733   1.172
 1796SOL    HW2 5524   2.684   2.822   1.058
 1797SOL     OW 5525   2.199   3.400   1.397
 1797SOL    HW1 5526   2.117   3.368   1.436
 1797SOL    HW2 5527   2.257   3.325   1.398
 1798SOL     OW 5528   3.203   1.574   0.726
 1798SOL    HW1 5529   3.247   1.655   0.699
 1798SOL    HW2 5530   3.116   1.580   0.687
 1799SOL     OW 5531   0.786   0.503   2.730
 1799SOL    HW1 5532   0.752   0.469   2.647
 1799SOL    HW2 5533   0.879   0.483   2.728
 1800SOL     OW 5534   2.248   1.613   0.700
 1800SOL    HW1 5535   2.182   1.576   0.759
 1800SOL    HW2 5536   2.315   1.648   0.759
 1801SOL     OW 5537   3.416   2.537   0.154
 1801SOL    HW1 5538   3.467   2.614   0.127
 1801SOL    HW2 5539   3.328   2.554   0.120
 1802SOL     OW 5540   2.593   2.807   3.587
 1802SOL    HW1 5541   2.614   2.822   3.679
 1802SOL    HW2 5542   2.542   2.884   3.561
 1803SOL     OW 5543   2.507   3.936   3.912
 1803SOL    HW1 5544   2.559   4.017   3.917
 1803SOL    HW2 5545   2.571   3.866   3.925
 1804SOL     OW 5546   2.027   2.486   0.175
 1804SOL    HW1 5547   2.064   2.573   0.189
 1804SOL    HW2 5548   1.987   2.490   0.089
 1805SOL     OW 5549   0.246   0.090   1.209
 1805SOL    HW1 5550   0.323   0.114   1.157
 1805SOL    HW2 5551   0.281   0.066   1.295
 1806SOL     OW 5552   1.432   0.698   3.193
 1806SOL    HW1 5553   1.496   0.626   3.196
 1806SOL    HW2 5554   1.351   0.656   3.162
 1807SOL     OW 5555   1.393   2.146   3.665
 1807SOL    HW1 5556   1.337   2.158   3.741
 1807SOL    HW2 5557   1.333   2.135   3.592
 1808SOL     OW 5558   0.573   2.042   2.170
 1808SOL    HW1 5559   0.626   1.981   2.221
 1808SOL    HW2 5560   0.531   2.099   2.235
 1809SOL     OW 5561   1.194   2.590   2.556
 1809SOL    HW1 5562   1.218   2.598   2.648
 1809SOL    HW2 5563   1.132   2.518   2.553
 1810SOL     OW 5564   2.086   2.980   3.892
 1810SOL    HW1 5565   2.035   3.061   3.888
 1810SOL    HW2 5566   2.038   2.918   3.837
 1811SOL     OW 5567   2.104   2.201   0.164
 1811SOL    HW1 5568   2.092   2.172   0.254
 1811SOL    HW2 5569   2.104   2.297   0.169
 1812SOL     OW 5570   2.188   1.129   0.899
 1812SOL    HW1 5571   2.201   1.041   0.863
 1812SOL    HW2 5572   2.238   1.187   0.842
 1813SOL     OW 5573   2.634   2.846   2.135
 1813SOL    HW1 5574   2.667   2.758   2.155
 1813SOL    HW2 5575   2.713   2.901   2.131
 1814SOL     OW 5576   2.883   2.541   3.778
 1814SOL    HW1 5577   2.952   2.560   3.841
 1814SOL    HW2 5578   2.886   2.446   3.767
 1815SOL     OW 5579   2.140   3.265   0.172
 1815SOL    HW1 5580   2.074   3.215   0.124
 1815SOL    HW2 5581   2.182   3.199   0.229
 1816SOL     OW 5582   2.183   0.980   3.246
 1816SOL    HW1 5583   2.182   1.028   3.328
 1816SOL    HW2 5584   2.153   0.892   3.269
 1817SOL     OW 5585   0.283   2.947   0.116
 1817SOL    HW1 5586   0.341   2.882   0.075
 1817SOL    HW2 5587   0.253   2.905   0.197
 1818SOL     OW 5588   1.975   1.952   0.915
 1818SOL    HW1 5589   2.043   2.019   0.920
 1818SOL    HW2 5590   1.982   1.904   0.997
 1819SOL     OW 5591   1.289   3.695   0.790
 1819SOL    HW1 5592   1.208   3.707   0.741
 1819SOL    HW2 5593   1.297   3.601   0.801
 1820SOL     OW 5594   0.899   1.869   2.664
 1820SOL    HW1 5595   0.884   1.961   2.689
 1820SOL    HW2 5596   0.833   1.820   2.712
 1821SOL     OW 5597   3.232   0.999   0.886
 1821SOL    HW1 5598   3.197   0.952   0.810
 1821SOL    HW2 5599   3.162   0.996   0.951
 1822SOL     OW 5600   3.909   0.170   3.192
 1822SOL    HW1 5601   3.866   0.107   3.134
 1822SOL    HW2 5602   3.990   0.126   3.218
 1823SOL     OW 5603   2.311   3.378   1.882
 1823SOL    HW1 5604   2.235   3.359   1.827
 1823SOL    HW2 5605   2.355   3.451   1.838
 1824SOL     OW 5606   1.554   1.573   0.489
 1824SOL    HW1 5607   1.478   1.530   0.528
 1824SOL    HW2 5608   1.618   1.577   0.559
 1825SOL     OW 5609   0.468   1.091   0.123
 1825SOL    HW1 5610   0.439   1.016   0.071
 1825SOL    HW2 5611   0.391   1.147   0.129
 1826SOL     OW 5612   1.287   1.175   2.770
 1826SOL    HW1 5613   1.200   1.173   2.810
 1826SOL    HW2 5614   1.288   1.256   2.718
 1827SOL     OW 5615   1.165   2.099   1.080
 1827SOL    HW1 5616   1.240   2.102   1.021
 1827SOL    HW2 5617   1.203   2.100   1.168
 1828SOL     OW 5618   0.742   2.543   0.350
 1828SOL    HW1 5619   0.682   2.516   0.419
 1828SOL    HW2 5620   0.730   2.479   0.280
 1829SOL     OW 5621   0.928   1.468   0.355
 1829SOL    HW1 5622   0.957   1.514   0.276
 1829SOL    HW2 5623   0.971   1.513   0.427
 1830SOL     OW 5624   1.942   1.934   2.300
 1830SOL    HW1 5625   1.940   2.018   2.345
 1830SOL    HW2 5626   2.025   1.935   2.251
 1831SOL     OW 5627   3.292   0.796   3.340
 1831SOL    HW1 5628   3.350   0.847   3.397
 1831SOL    HW2 5629   3.210   0.791   3.388
 1832SOL     OW 5630   3.044   1.439   2.040
 1832SOL    HW1 5631   3.041   1.462   1.948
 1832SOL    HW2 5632   2.962   1.473   2.076
 1833SOL     OW 5633   0.445   0.185   3.014
 1833SOL    HW1 5634   0.526   0.218   2.973
 1833SOL    HW2 5635   0.431   0.243   3.089
 1834SOL     OW 5636   2.354   0.936   2.624
 1834SOL    HW1 5637   2.407   0.870   2.579
 1834SOL    HW2 5638   2.312   0.984   2.553
 1835SOL     OW 5639   0.342   1.764   2.516
 1835SOL    HW1 5640   0.274   1.725   2.571
 1835SOL    HW2 5641   0.422   1.715   2.537
 1836SOL     OW 5642   3.503   1.359   0.879
 1836SOL    HW1 5643   3.470   1.312   0.803
 1836SOL    HW2 5644   3.455   1.320   0.953
 1837SOL     OW 5645   0.505   0.744   0.500
 1837SOL    HW1 5646   0.466   0.698   0.426
 1837SOL    HW2 5647   0.549   0.675   0.550
 1838SOL     OW 5648   3.091   2.549   2.146
 1838SOL    HW1 5649   3.154   2.557   2.218
 1838SOL    HW2 5650   3.006   2.539   2.189
 1839SOL     OW 5651   0.150   3.232   2.815
 1839SOL    HW1 5652   0.223   3.238   2.753
 1839SOL    HW2 5653   0.116   3.144   2.803
 1840SOL     OW 5654   1.430   0.367   1.774
 1840SOL    HW1 5655   1.337   0.389   1.768
 1840SOL    HW2 5656   1.468   0.438   1.825
 1841SOL     OW 5657   2.157   1.581   2.490
 1841SOL    HW1 5658   2.221   1.653   2.490
 1841SOL    HW2 5659   2.128   1.575   2.581
 1842SOL     OW 5660   3.761   2.637   3.112
 1842SOL    HW1 5661   3.817   2.715   3.112
 1842SOL    HW2 5662   3.689   2.660   3.054
 1843SOL     OW 5663   1.157   1.150   3.836
 1843SOL    HW1 5664   1.201   1.164   3.752
 1843SOL    HW2 5665   1.201   1.210   3.897
 1844SOL     OW 5666   1.626   0.849   1.314
 1844SOL    HW1 5667   1.721   0.850   1.302
 1844SOL    HW2 5668   1.614   0.843   1.409
 1845SOL     OW 5669   1.927   0.989   0.881
 1845SOL    HW1 5670   1.999   1.019   0.937
 1845SOL    HW2 5671   1.907   0.901   0.913
 1846SOL     OW 5672   0.237   0.614   3.941
 1846SOL    HW1 5673   0.318   0.601   3.891
 1846SOL    HW2 5674   0.194   0.528   3.939
 1847SOL     OW 5675   1.216   3.118   3.761
 1847SOL    HW1 5676   1.247   3.062   3.689
 1847SOL    HW2 5677   1.288   3.115   3.825
 1848SOL     OW 5678   2.458   1.255   2.553
 1848SOL    HW1 5679   2.368   1.257   2.521
 1848SOL    HW2 5680   2.472   1.164   2.579
 1849SOL     OW 5681   2.046   1.953   2.701
 1849SOL    HW1 5682   1.976   1.888   2.690
 1849SOL    HW2 5683   2.018   2.005   2.776
 1850SOL     OW 5684   2.888   0.291   3.137
 1850SOL    HW1 5685   2.880   0.271   3.044
 1850SOL    HW2 5686   2.831   0.227   3.180
 1851SOL     OW 5687   0.741   3.196   0.351
 1851SOL    HW1 5688   0.758   3.150   0.269
 1851SOL    HW2 5689   0.648   3.181   0.369
 1852SOL     OW 5690   1.807   1.318   2.577
 1852SOL    HW1 5691   1.737   1.383   2.575
 1852SOL    HW2 5692   1.865   1.343   2.506
 1853SOL     OW 5693   1.256   2.626   3.745
 1853SOL    HW1 5694   1.193   2.586   3.804
 1853SOL    HW2 5695   1.307   2.685   3.800
 1854SOL     OW 5696   0.223   2.825   0.367
 1854SOL    HW1 5697   0.221   2.831   0.462
 1854SOL    HW2 5698   0.217   2.731   0.348
 1855SOL     OW 5699   2.307   1.386   1.482
 1855SOL    HW1 5700   2.304   1.373   1.577
 1855SOL    HW2 5701   2.226   1.432   1.461
 1856SOL     OW 5702   1.565   1.077   0.411
 1856SOL    HW1 5703   1.604   1.062   0.325
 1856SOL    HW2 5704   1.602   1.008   0.466
 1857SOL     OW 5705   1.948   0.341   3.654
 1857SOL    HW1 5706   1.864   0.383   3.672
 1857SOL    HW2 5707   1.926   0.250   3.636
 1858SOL     OW 5708   2.525   3.542   3.575
 1858SOL    HW1 5709   2.463   3.524   3.504
 1858SOL    HW2 5710   2.470   3.553   3.652
 1859SOL     OW 5711   2.143   1.030   1.191
 1859SOL    HW1 5712   2.221   1.076   1.224
 1859SOL    HW2 5713   2.170   0.996   1.105
 1860SOL     OW 5714   2.900   0.531   0.159
 1860SOL    HW1 5715   2.955   0.586   0.104
 1860SOL    HW2 5716   2.856   0.592   0.218
 1861SOL     OW 5717   1.714   2.227   2.160
 1861SOL    HW1 5718   1.807   2.212   2.178
 1861SOL    HW2 5719   1.688   2.294   2.223
 1862SOL     OW 5720   0.868   1.816   0.856
 1862SOL    HW1 5721   0.960   1.841   0.847
 1862SOL    HW2 5722   0.839   1.798   0.767
 1863SOL     OW 5723   2.854   1.130   2.071
 1863SOL    HW1 5724   2.824   1.219   2.052
 1863SOL    HW2 5725   2.788   1.095   2.132
 1864SOL     OW 5726   3.923   3.921   0.872
 1864SOL    HW1 5727   3.941   3.827   0.881
 1864SOL    HW2 5728   3.914   3.953   0.962
 1865SOL     OW 5729   2.170   1.358   0.072
 1865SOL    HW1 5730   2.140   1.448   0.083
 1865SOL    HW2 5731   2.243   1.364   0.010
 1866SOL     OW 5732   3.222   3.433   1.531
 1866SOL    HW1 5733   3.246   3.483   1.453
 1866SOL    HW2 5734   3.281   3.465   1.599
 1867SOL     OW 5735   0.602   2.485   1.046
 1867SOL    HW1 5736   0.649   2.402   1.047
 1867SOL    HW2 5737   0.510   2.461   1.060
 1868SOL     OW 5738   2.368   2.353   1.014
 1868SOL    HW1 5739   2.323   2.431   1.045
 1868SOL    HW2 5740   2.384   2.301   1.093
 1869SOL     OW 5741   2.176   3.692   2.041
 1869SOL    HW1 5742   2.219   3.607   2.036
 1869SOL    HW2 5743   2.220   3.736   2.114
 1870SOL     OW 5744   0.066   0.047   2.318
 1870SOL    HW1 5745   0.075   0.057   2.413
 1870SOL    HW2 5746   0.156   0.049   2.285
 1871SOL     OW 5747   0.874   2.898   0.491
 1871SOL    HW1 5748   0.793   2.945   0.512
 1871SOL    HW2 5749   0.922   2.958   0.434
 1872SOL     OW 5750   3.974  -0.018   1.552
 1872SOL    HW1 5751   3.964   0.047   1.621
 1872SOL    HW2 5752   3.893  -0.011   1.500
 1873SOL     OW 5753   2.053   3.768   1.815
 1873SOL    HW1 5754   2.055   3.679   1.780
 1873SOL    HW2 5755   2.103   3.762   1.897
 1874SOL     OW 5756   1.709   1.508   1.578
 1874SOL    HW1 5757   1.669   1.589   1.546
 1874SOL    HW2 5758   1.636   1.448   1.590
 1875SOL     OW 5759   2.109   0.818   0.307
 1875SOL    HW1 5760   2.190   0.802   0.259
 1875SOL    HW2 5761   2.117   0.907   0.340
 1876SOL     OW 5762   1.242   3.241   1.306
 1876SOL    HW1 5763   1.176   3.220   1.240
 1876SOL    HW2 5764   1.325   3.216   1.265
 1877SOL     OW 5765   2.826   0.369   0.387
 1877SOL    HW1 5766   2.825   0.333   0.298
 1877SOL    HW2 5767   2.919   0.374   0.410
 1878SOL     OW 5768   3.134   2.104   0.524
 1878SOL    HW1 5769   3.217   2.075   0.562
 1878SOL    HW2 5770   3.133   2.199   0.539
 1879SOL     OW 5771   3.340   3.046   1.403
 1879SOL    HW1 5772   3.385   2.981   1.457
 1879SOL    HW2 5773   3.394   3.125   1.410
 1880SOL     OW 5774   2.334   2.533   2.026
 1880SOL    HW1 5775   2.416   2.486   2.008
 1880SOL    HW2 5776   2.312   2.576   1.943
 1881SOL     OW 5777   0.814   1.665   3.530
 1881SOL    HW1 5778   0.857   1.695   3.610
 1881SOL    HW2 5779   0.727   1.703   3.534
 1882SOL     OW 5780   1.239   3.925   0.040
 1882SOL    HW1 5781   1.156   3.886   0.011
 1882SOL    HW2 5782   1.227   3.938   0.135
 1883SOL     OW 5783   0.996   0.410   3.569
 1883SOL    HW1 5784   0.995   0.315   3.559
 1883SOL    HW2 5785   1.086   0.436   3.548
 1884SOL     OW 5786   0.275   2.191   0.323
 1884SOL    HW1 5787   0.282   2.132   0.399
 1884SOL    HW2 5788   0.196   2.161   0.277
 1885SOL     OW 5789   0.171   2.946   1.020
 1885SOL    HW1 5790   0.218   2.899   1.089
 1885SOL    HW2 5791   0.196   2.900   0.939
 1886SOL     OW 5792   0.507   0.958   1.416
 1886SOL    HW1 5793   0.489   0.920   1.502
 1886SOL    HW2 5794   0.420   0.976   1.380
 1887SOL     OW 5795   1.149   0.060   2.254
 1887SOL    HW1 5796   1.157   0.024   2.342
 1887SOL    HW2 5797   1.197  -0.001   2.198
 1888SOL     OW 5798   3.053   1.187   0.372
 1888SOL    HW1 5799   3.101   1.270   0.369
 1888SOL    HW2 5800   3.120   1.120   0.365
 1889SOL     OW 5801   3.157   3.153   2.960
 1889SOL    HW1 5802   3.064   3.177   2.957
 1889SOL    HW2 5803   3.166   3.103   3.041
 1890SOL     OW 5804   3.458   3.349   0.715
 1890SOL    HW1 5805   3.489   3.393   0.794
 1890SOL    HW2 5806   3.397   3.282   0.747
 1891SOL     OW 5807   0.870   0.528   1.219
 1891SOL    HW1 5808   0.935   0.590   1.252
 1891SOL    HW2 5809   0.919   0.446   1.209
 1892SOL     OW 5810   2.497   1.863   1.451
 1892SOL    HW1 5811   2.500   1.768   1.455
 1892SOL    HW2 5812   2.470   1.890   1.539
 1893SOL     OW 5813   3.770   1.896   0.094
 1893SOL    HW1 5814   3.815   1.812   0.085
 1893SOL    HW2 5815   3.684   1.874   0.129
 1894SOL     OW 5816   1.013   2.398   1.610
 1894SOL    HW1 5817   1.075   2.374   1.541
 1894SOL    HW2 5818   0.946   2.330   1.608
 1895SOL     OW 5819   1.189   3.204   0.124
 1895SOL    HW1 5820   1.268   3.220   0.072
 1895SOL    HW2 5821   1.154   3.122   0.090
 1896SOL     OW 5822   3.696   1.063   1.487
 1896SOL    HW1 5823   3.696   1.159   1.498
 1896SOL    HW2 5824   3.707   1.029   1.576
 1897SOL     OW 5825   0.027   3.671   0.317
 1897SOL    HW1 5826  -0.043   3.674   0.382
 1897SOL    HW2 5827   0.071   3.588   0.334
 1898SOL     OW 5828   1.268   3.275   3.385
 1898SOL    HW1 5829   1.251   3.322   3.303
 1898SOL    HW2 5830   1.350   3.312   3.417
 1899SOL     OW 5831   2.404   0.253   3.337
 1899SOL    HW1 5832   2.355   0.181   3.376
 1899SOL    HW2 5833   2.383   0.250   3.244
 1900SOL     OW 5834   2.971   0.379   3.649
 1900SOL    HW1 5835   2.920   0.352   3.573
 1900SOL    HW2 5836   2.949   0.472   3.661
 1901SOL     OW 5837   3.347   0.325   2.593
 1901SOL    HW1 5838   3.440   0.327   2.573
 1901SOL    HW2 5839   3.341   0.282   2.678
 1902SOL     OW 5840   3.240   2.828   2.091
 1902SOL    HW1 5841   3.212   2.794   2.175
 1902SOL    HW2 5842   3.238   2.923   2.101
 1903SOL     OW 5843   0.987   3.303   3.486
 1903SOL    HW1 5844   0.958   3.391   3.463
 1903SOL    HW2 5845   1.081   3.304   3.467
 1904SOL     OW 5846   3.067   1.645   3.094
 1904SOL    HW1 5847   3.150   1.617   3.056
 1904SOL    HW2 5848   3.084   1.734   3.124
 1905SOL     OW 5849   1.108   0.411   2.688
 1905SOL    HW1 5850   1.180   0.451   2.737
 1905SOL    HW2 5851   1.109   0.456   2.604
 1906SOL     OW 5852   3.620   2.533   1.378
 1906SOL    HW1 5853   3.683   2.581   1.324
 1906SOL    HW2 5854   3.659   2.532   1.466
 1907SOL     OW 5855   2.975   1.320   2.721
 1907SOL    HW1 5856   2.904   1.290   2.663
 1907SOL    HW2 5857   2.934   1.386   2.777
 1908SOL     OW 5858   2.003   0.681   1.690
 1908SOL    HW1 5859   2.049   0.732   1.757
 1908SOL    HW2 5860   1.960   0.610   1.739
 1909SOL     OW 5861   1.670   1.136   2.985
 1909SOL    HW1 5862   1.587   1.126   3.030
 1909SOL    HW2 5863   1.685   1.052   2.942
 1910SOL     OW 5864   3.636   3.764   3.552
 1910SOL    HW1 5865   3.660   3.736   3.463
 1910SOL    HW2 5866   3.623   3.859   3.545
 1911SOL     OW 5867   1.864   0.948   3.556
 1911SOL    HW1 5868   1.796   0.921   3.494
 1911SOL    HW2 5869   1.818   0.956   3.640
 1912SOL     OW 5870   2.472   0.240   1.260
 1912SOL    HW1 5871   2.443   0.149   1.255
 1912SOL    HW2 5872   2.563   0.235   1.289
 1913SOL     OW 5873   2.296   3.694   0.464
 1913SOL    HW1 5874   2.339   3.776   0.439
 1913SOL    HW2 5875   2.202   3.712   0.459
 1914SOL     OW 5876   0.742   0.443   3.294
 1914SOL    HW1 5877   0.701   0.365   3.332
 1914SOL    HW2 5878   0.810   0.467   3.357
 1915SOL     OW 5879   3.654   1.186   2.884
 1915SOL    HW1 5880   3.720   1.132   2.927
 1915SOL    HW2 5881   3.599   1.219   2.955
 1916SOL     OW 5882   1.512   1.980   3.011
 1916SOL    HW1 5883   1.597   1.937   3.021
 1916SOL    HW2 5884   1.532   2.074   3.017
 1917SOL     OW 5885   3.417   1.647   3.255
 1917SOL    HW1 5886   3.394   1.590   3.329
 1917SOL    HW2 5887   3.387   1.734   3.281
 1918NA      NA 5888   0.789   1.200   2.123
 1919NA      NA 5889   0.695   1.289   0.660
   3.96100   3.96100   3.96100   0.00000   0.00000   0.00000   0.00000   0.00000   0.00000
