Generated with MDTraj, t= 39846.0
 5889
    1TYR      N    1   3.368   4.514   2.826
    1TYR     H1    2   3.393   4.523   2.726
    1TYR     H2    3   3.264   4.517   2.819
    1TYR     H3    4   3.381   4.597   2.887
    1TYR     CA    5   3.412   4.384   2.881
    1TYR     HA    6   3.519   4.387   2.872
    1TYR     CB    7   3.365   4.353   3.027
    1TYR    HB1    8   3.385   4.442   3.090
    1TYR    HB2    9   3.257   4.327   3.028
    1TYR     CG   10   3.443   4.242   3.086
    1TYR    CD1   11   3.381   4.117   3.142
    1TYR    HD1   12   3.274   4.108   3.149
    1TYR    CE1   13   3.463   4.025   3.201
    1TYR    HE1   14   3.415   3.937   3.243
    1TYR     CZ   15   3.599   4.043   3.209
    1TYR     OH   16   3.677   3.943   3.274
    1TYR     HH   17   3.622   3.865   3.285
    1TYR    CD2   18   3.586   4.250   3.098
    1TYR    HD2   19   3.632   4.338   3.056
    1TYR    CE2   20   3.662   4.153   3.156
    1TYR    HE2   21   3.769   4.166   3.167
    1TYR      C   22   3.383   4.270   2.786
    1TYR      O   23   3.278   4.256   2.731
    2TYR      N   24   3.484   4.194   2.752
    2TYR     HN   25   3.582   4.206   2.771
    2TYR     CA   26   3.465   4.074   2.670
    2TYR     HA   27   3.361   4.057   2.646
    2TYR     CB   28   3.544   4.099   2.543
    2TYR    HB1   29   3.653   4.118   2.559
    2TYR    HB2   30   3.547   3.998   2.498
    2TYR     CG   31   3.503   4.197   2.440
    2TYR    CD1   32   3.369   4.224   2.411
    2TYR    HD1   33   3.298   4.174   2.476
    2TYR    CE1   34   3.334   4.329   2.327
    2TYR    HE1   35   3.231   4.362   2.326
    2TYR     CZ   36   3.430   4.404   2.262
    2TYR     OH   37   3.398   4.517   2.181
    2TYR     HH   38   3.482   4.538   2.141
    2TYR    CD2   39   3.606   4.277   2.377
    2TYR    HD2   40   3.710   4.282   2.405
    2TYR    CE2   41   3.570   4.385   2.292
    2TYR    HE2   42   3.639   4.461   2.260
    2TYR      C   43   3.508   3.951   2.756
    2TYR      O   44   3.610   3.964   2.819
    3ASP      N   45   3.439   3.838   2.754
    3ASP     HN   46   3.355   3.824   2.702
    3ASP     CA   47   3.480   3.726   2.835
    3ASP     HA   48   3.537   3.760   2.920
    3ASP     CB   49   3.358   3.652   2.884
    3ASP    HB1   50   3.292   3.716   2.946
    3ASP    HB2   51   3.299   3.629   2.793
    3ASP     CG   52   3.396   3.532   2.971
    3ASP    OD1   53   3.330   3.426   2.957
    3ASP    OD2   54   3.466   3.558   3.071
    3ASP      C   55   3.569   3.639   2.750
    3ASP      O   56   3.536   3.614   2.634
    4PRO      N   57   3.687   3.584   2.801
    4PRO     CD   58   3.750   3.633   2.929
    4PRO    HD1   59   3.682   3.621   3.016
    4PRO    HD2   60   3.762   3.742   2.910
    4PRO     CA   61   3.784   3.507   2.715
    4PRO     HA   62   3.779   3.544   2.613
    4PRO     CB   63   3.919   3.543   2.784
    4PRO    HB1   64   3.992   3.460   2.782
    4PRO    HB2   65   3.972   3.626   2.732
    4PRO     CG   66   3.889   3.576   2.930
    4PRO    HG1   67   3.896   3.479   2.983
    4PRO    HG2   68   3.968   3.644   2.966
    4PRO      C   69   3.761   3.359   2.725
    4PRO      O   70   3.801   3.281   2.636
    5GLU      N   71   3.701   3.319   2.839
    5GLU     HN   72   3.692   3.385   2.912
    5GLU     CA   73   3.646   3.182   2.850
    5GLU     HA   74   3.723   3.116   2.812
    5GLU     CB   75   3.614   3.168   2.991
    5GLU    HB1   76   3.538   3.240   3.030
    5GLU    HB2   77   3.582   3.062   2.997
    5GLU     CG   78   3.735   3.185   3.081
    5GLU    HG1   79   3.824   3.123   3.056
    5GLU    HG2   80   3.760   3.293   3.079
    5GLU     CD   81   3.700   3.135   3.224
    5GLU    OE1   82   3.718   3.018   3.245
    5GLU    OE2   83   3.652   3.216   3.309
    5GLU      C   84   3.527   3.154   2.763
    5GLU      O   85   3.545   3.066   2.678
    6THR      N   86   3.405   3.216   2.756
    6THR     HN   87   3.386   3.292   2.818
    6THR     CA   88   3.306   3.201   2.648
    6THR     HA   89   3.289   3.099   2.617
    6THR     CB   90   3.174   3.278   2.683
    6THR     HB   91   3.102   3.281   2.599
    6THR    OG1   92   3.188   3.406   2.731
    6THR    HG1   93   3.241   3.406   2.810
    6THR    CG2   94   3.097   3.195   2.783
    6THR   HG21   95   3.146   3.146   2.870
    6THR   HG22   96   3.018   3.254   2.835
    6THR   HG23   97   3.041   3.119   2.725
    6THR      C   98   3.346   3.259   2.512
    6THR      O   99   3.279   3.246   2.412
    7GLY      N  100   3.467   3.331   2.509
    7GLY     HN  101   3.507   3.356   2.597
    7GLY     CA  102   3.541   3.345   2.386
    7GLY    HA1  103   3.638   3.374   2.425
    7GLY    HA2  104   3.543   3.250   2.335
    7GLY      C  105   3.488   3.465   2.298
    7GLY      O  106   3.514   3.473   2.178
    8THR      N  107   3.406   3.556   2.357
    8THR     HN  108   3.383   3.546   2.454
    8THR     CA  109   3.355   3.669   2.285
    8THR     HA  110   3.330   3.625   2.189
    8THR     CB  111   3.236   3.721   2.361
    8THR     HB  112   3.195   3.808   2.305
    8THR    OG1  113   3.271   3.779   2.484
    8THR    HG1  114   3.192   3.825   2.513
    8THR    CG2  115   3.124   3.610   2.380
    8THR   HG21  116   3.047   3.666   2.436
    8THR   HG22  117   3.083   3.583   2.281
    8THR   HG23  118   3.160   3.527   2.445
    8THR      C  119   3.462   3.772   2.251
    8THR      O  120   3.461   3.837   2.148
    9TRP      N  121   3.566   3.772   2.340
    9TRP     HN  122   3.545   3.733   2.429
    9TRP     CA  123   3.700   3.830   2.330
    9TRP     HA  124   3.703   3.933   2.360
    9TRP     CB  125   3.782   3.754   2.433
    9TRP    HB1  126   3.734   3.749   2.533
    9TRP    HB2  127   3.788   3.647   2.404
    9TRP     CG  128   3.926   3.802   2.457
    9TRP    CD1  129   4.030   3.776   2.383
    9TRP    HD1  130   4.032   3.725   2.288
    9TRP    NE1  131   4.143   3.831   2.437
    9TRP    HE1  132   4.237   3.835   2.412
    9TRP    CE2  133   4.116   3.890   2.559
    9TRP    CD2  134   3.977   3.870   2.576
    9TRP    CE3  135   3.912   3.915   2.688
    9TRP    HE3  136   3.806   3.913   2.708
    9TRP    CZ3  137   3.988   3.995   2.776
    9TRP    HZ3  138   3.930   4.028   2.861
    9TRP    CZ2  139   4.190   3.966   2.648
    9TRP    HZ2  140   4.295   3.991   2.639
    9TRP    CH2  141   4.128   4.025   2.765
    9TRP    HH2  142   4.192   4.073   2.837
    9TRP      C  143   3.760   3.822   2.192
    9TRP      O  144   3.824   3.918   2.143
   10TYR      N  145   3.726   3.712   2.113
   10TYR     HN  146   3.673   3.639   2.156
   10TYR     CA  147   3.792   3.679   1.987
   10TYR     HA  148   3.879   3.740   1.963
   10TYR     CB  149   3.831   3.532   1.983
   10TYR    HB1  150   3.758   3.462   2.029
   10TYR    HB2  151   3.856   3.489   1.884
   10TYR     CG  152   3.954   3.499   2.059
   10TYR    CD1  153   4.088   3.499   2.001
   10TYR    HD1  154   4.106   3.513   1.896
   10TYR    CE1  155   4.205   3.459   2.077
   10TYR    HE1  156   4.300   3.482   2.032
   10TYR     CZ  157   4.183   3.444   2.217
   10TYR     OH  158   4.291   3.466   2.305
   10TYR     HH  159   4.369   3.455   2.250
   10TYR    CD2  160   3.945   3.459   2.194
   10TYR    HD2  161   3.849   3.454   2.242
   10TYR    CE2  162   4.059   3.438   2.274
   10TYR    HE2  163   4.042   3.434   2.381
   10TYR      C  164   3.711   3.689   1.855
   10TYR    OT1  165   3.770   3.726   1.755
   10TYR    OT2  166   3.589   3.673   1.864
   11SOL     OW  167   1.051   0.221   1.441
   11SOL    HW1  168   1.068   0.301   1.391
   11SOL    HW2  169   1.052   0.151   1.376
   12SOL     OW  170   1.361   2.125   0.635
   12SOL    HW1  171   1.290   2.081   0.681
   12SOL    HW2  172   1.427   2.141   0.702
   13SOL     OW  173   1.384   1.525   0.124
   13SOL    HW1  174   1.363   1.547   0.215
   13SOL    HW2  175   1.349   1.436   0.113
   14SOL     OW  176   2.179   0.035   0.725
   14SOL    HW1  177   2.271   0.056   0.708
   14SOL    HW2  178   2.168   0.047   0.819
   15SOL     OW  179   2.760   2.146   0.980
   15SOL    HW1  180   2.773   2.057   1.013
   15SOL    HW2  181   2.706   2.135   0.902
   16SOL     OW  182   1.421   0.886   1.637
   16SOL    HW1  183   1.395   0.930   1.556
   16SOL    HW2  184   1.442   0.796   1.609
   17SOL     OW  185   2.099   3.733   1.530
   17SOL    HW1  186   2.057   3.663   1.480
   17SOL    HW2  187   2.030   3.767   1.587
   18SOL     OW  188   1.618   1.137   3.578
   18SOL    HW1  189   1.706   1.136   3.541
   18SOL    HW2  190   1.631   1.160   3.670
   19SOL     OW  191   1.347   0.083   1.590
   19SOL    HW1  192   1.286   0.129   1.533
   19SOL    HW2  193   1.390   0.151   1.641
   20SOL     OW  194   0.053   1.337   3.126
   20SOL    HW1  195   0.136   1.335   3.079
   20SOL    HW2  196   0.069   1.393   3.202
   21SOL     OW  197   1.449   0.934   2.672
   21SOL    HW1  198   1.445   1.024   2.638
   21SOL    HW2  199   1.499   0.886   2.607
   22SOL     OW  200   1.384   3.943   0.618
   22SOL    HW1  201   1.420   3.886   0.549
   22SOL    HW2  202   1.460   3.989   0.653
   23SOL     OW  203   2.648   2.678   1.669
   23SOL    HW1  204   2.618   2.672   1.760
   23SOL    HW2  205   2.740   2.703   1.676
   24SOL     OW  206   2.890   2.518   1.620
   24SOL    HW1  207   2.916   2.546   1.532
   24SOL    HW2  208   2.951   2.564   1.678
   25SOL     OW  209   2.523   1.876   3.466
   25SOL    HW1  210   2.557   1.787   3.466
   25SOL    HW2  211   2.601   1.932   3.467
   26SOL     OW  212   0.546   2.851   2.731
   26SOL    HW1  213   0.456   2.834   2.704
   26SOL    HW2  214   0.538   2.913   2.803
   27SOL     OW  215   1.208   3.113   2.327
   27SOL    HW1  216   1.152   3.117   2.405
   27SOL    HW2  217   1.200   3.022   2.297
   28SOL     OW  218   2.904   0.896   1.387
   28SOL    HW1  219   2.988   0.899   1.434
   28SOL    HW2  220   2.844   0.855   1.449
   29SOL     OW  221   0.378   0.951   3.603
   29SOL    HW1  222   0.329   0.956   3.521
   29SOL    HW2  223   0.330   1.008   3.663
   30SOL     OW  224   3.607   0.966   3.111
   30SOL    HW1  225   3.522   1.009   3.116
   30SOL    HW2  226   3.667   1.036   3.087
   31SOL     OW  227   1.819   3.061   2.647
   31SOL    HW1  228   1.887   3.127   2.664
   31SOL    HW2  229   1.834   2.994   2.713
   32SOL     OW  230   1.958   3.230   3.039
   32SOL    HW1  231   1.919   3.162   3.095
   32SOL    HW2  232   1.939   3.312   3.085
   33SOL     OW  233   2.737   0.880   0.343
   33SOL    HW1  234   2.746   0.785   0.344
   33SOL    HW2  235   2.820   0.912   0.379
   34SOL     OW  236   3.003   1.554   3.376
   34SOL    HW1  237   2.935   1.503   3.422
   34SOL    HW2  238   3.076   1.558   3.438
   35SOL     OW  239   1.363   0.949   1.377
   35SOL    HW1  240   1.347   0.975   1.287
   35SOL    HW2  241   1.376   0.854   1.373
   36SOL     OW  242   2.888   3.087   3.616
   36SOL    HW1  243   2.896   3.182   3.624
   36SOL    HW2  244   2.872   3.072   3.523
   37SOL     OW  245   1.012   1.364  -0.019
   37SOL    HW1  246   0.945   1.309   0.021
   37SOL    HW2  247   1.089   1.351   0.036
   38SOL     OW  248   1.162   2.956   2.751
   38SOL    HW1  249   1.206   2.875   2.779
   38SOL    HW2  250   1.178   3.017   2.823
   39SOL     OW  251   1.201   3.547   1.248
   39SOL    HW1  252   1.135   3.539   1.180
   39SOL    HW2  253   1.223   3.457   1.272
   40SOL     OW  254   2.826   0.172   3.465
   40SOL    HW1  255   2.807   0.148   3.556
   40SOL    HW2  256   2.760   0.125   3.414
   41SOL     OW  257   2.343   0.231   1.915
   41SOL    HW1  258   2.433   0.221   1.885
   41SOL    HW2  259   2.350   0.236   2.010
   42SOL     OW  260   1.714   2.284   1.830
   42SOL    HW1  261   1.770   2.234   1.888
   42SOL    HW2  262   1.766   2.361   1.806
   43SOL     OW  263   0.550   1.161   0.110
   43SOL    HW1  264   0.615   1.190   0.174
   43SOL    HW2  265   0.601   1.148   0.029
   44SOL     OW  266   0.824   1.739   3.890
   44SOL    HW1  267   0.893   1.721   3.953
   44SOL    HW2  268   0.744   1.746   3.943
   45SOL     OW  269   3.053   2.145   3.746
   45SOL    HW1  270   3.084   2.178   3.830
   45SOL    HW2  271   2.984   2.206   3.720
   46SOL     OW  272   1.279   0.259   0.272
   46SOL    HW1  273   1.234   0.218   0.198
   46SOL    HW2  274   1.367   0.222   0.268
   47SOL     OW  275   3.980   2.558   1.286
   47SOL    HW1  276   3.900   2.550   1.339
   47SOL    HW2  277   3.983   2.475   1.237
   48SOL     OW  278   0.768   2.833   2.372
   48SOL    HW1  279   0.697   2.897   2.381
   48SOL    HW2  280   0.728   2.758   2.329
   49SOL     OW  281   3.743   1.670   0.508
   49SOL    HW1  282   3.777   1.749   0.467
   49SOL    HW2  283   3.654   1.661   0.473
   50SOL     OW  284   2.090   0.490   2.039
   50SOL    HW1  285   2.136   0.426   2.094
   50SOL    HW2  286   2.157   0.555   2.018
   51SOL     OW  287   1.540   1.345   1.200
   51SOL    HW1  288   1.561   1.430   1.240
   51SOL    HW2  289   1.626   1.309   1.176
   52SOL     OW  290   0.284   1.064   0.400
   52SOL    HW1  291   0.226   1.000   0.441
   52SOL    HW2  292   0.317   1.021   0.322
   53SOL     OW  293   0.989   0.971   0.538
   53SOL    HW1  294   0.990   1.053   0.589
   53SOL    HW2  295   1.072   0.929   0.558
   54SOL     OW  296   1.873   2.996   3.688
   54SOL    HW1  297   1.890   2.917   3.635
   54SOL    HW2  298   1.800   3.039   3.645
   55SOL     OW  299   3.852   1.939   2.354
   55SOL    HW1  300   3.877   1.957   2.445
   55SOL    HW2  301   3.764   1.903   2.360
   56SOL     OW  302   3.064   1.113   2.613
   56SOL    HW1  303   3.112   1.045   2.660
   56SOL    HW2  304   3.124   1.141   2.544
   57SOL     OW  305   2.495   1.642   0.049
   57SOL    HW1  306   2.507   1.562  -0.003
   57SOL    HW2  307   2.448   1.612   0.127
   58SOL     OW  308   0.243   3.756   3.558
   58SOL    HW1  309   0.312   3.690   3.567
   58SOL    HW2  310   0.165   3.716   3.597
   59SOL     OW  311   2.084   0.301   0.012
   59SOL    HW1  312   2.007   0.278  -0.039
   59SOL    HW2  313   2.084   0.239   0.085
   60SOL     OW  314   2.882   1.917   2.915
   60SOL    HW1  315   2.911   1.974   2.844
   60SOL    HW2  316   2.884   1.829   2.877
   61SOL     OW  317   3.071   0.693   0.047
   61SOL    HW1  318   3.094   0.645  -0.033
   61SOL    HW2  319   2.985   0.659   0.071
   62SOL     OW  320   2.947   1.463   2.024
   62SOL    HW1  321   3.028   1.462   2.075
   62SOL    HW2  322   2.915   1.373   2.030
   63SOL     OW  323   1.196   2.163   1.122
   63SOL    HW1  324   1.146   2.244   1.109
   63SOL    HW2  325   1.241   2.149   1.039
   64SOL     OW  326   0.415   2.574   2.979
   64SOL    HW1  327   0.468   2.497   3.000
   64SOL    HW2  328   0.379   2.555   2.892
   65SOL     OW  329   0.893   2.990   2.946
   65SOL    HW1  330   0.934   2.909   2.916
   65SOL    HW2  331   0.966   3.043   2.979
   66SOL     OW  332   0.739   2.405   0.232
   66SOL    HW1  333   0.754   2.482   0.176
   66SOL    HW2  334   0.690   2.439   0.307
   67SOL     OW  335   0.639   1.145   2.577
   67SOL    HW1  336   0.691   1.111   2.650
   67SOL    HW2  337   0.614   1.234   2.604
   68SOL     OW  338   0.097   1.413   2.130
   68SOL    HW1  339   0.158   1.484   2.106
   68SOL    HW2  340   0.031   1.414   2.061
   69SOL     OW  341   0.612   1.723   1.438
   69SOL    HW1  342   0.520   1.748   1.430
   69SOL    HW2  343   0.659   1.789   1.387
   70SOL     OW  344   2.644   2.600   2.844
   70SOL    HW1  345   2.677   2.643   2.923
   70SOL    HW2  346   2.715   2.544   2.814
   71SOL     OW  347   2.539   1.996   0.081
   71SOL    HW1  348   2.482   2.031   0.013
   71SOL    HW2  349   2.482   1.985   0.157
   72SOL     OW  350   2.665   0.508   2.279
   72SOL    HW1  351   2.715   0.582   2.245
   72SOL    HW2  352   2.673   0.440   2.212
   73SOL     OW  353   2.554   3.652   2.954
   73SOL    HW1  354   2.611   3.704   3.010
   73SOL    HW2  355   2.574   3.561   2.979
   74SOL     OW  356   1.324   1.160   2.109
   74SOL    HW1  357   1.234   1.159   2.076
   74SOL    HW2  358   1.334   1.076   2.154
   75SOL     OW  359   1.613   3.580   2.065
   75SOL    HW1  360   1.642   3.621   2.147
   75SOL    HW2  361   1.640   3.489   2.072
   76SOL     OW  362   3.023   3.375   0.644
   76SOL    HW1  363   3.037   3.284   0.673
   76SOL    HW2  364   3.007   3.424   0.725
   77SOL     OW  365   0.095   3.689   1.610
   77SOL    HW1  366   0.060   3.653   1.528
   77SOL    HW2  367   0.019   3.694   1.668
   78SOL     OW  368   3.569   3.502   0.874
   78SOL    HW1  369   3.640   3.516   0.812
   78SOL    HW2  370   3.491   3.536   0.830
   79SOL     OW  371   2.560   1.424   2.709
   79SOL    HW1  372   2.500   1.486   2.667
   79SOL    HW2  373   2.532   1.422   2.800
   80SOL     OW  374   2.513   2.551   1.435
   80SOL    HW1  375   2.584   2.551   1.499
   80SOL    HW2  376   2.555   2.527   1.353
   81SOL     OW  377   1.179   1.562   1.193
   81SOL    HW1  378   1.086   1.573   1.214
   81SOL    HW2  379   1.201   1.475   1.228
   82SOL     OW  380   2.990   0.243   3.237
   82SOL    HW1  381   3.059   0.180   3.257
   82SOL    HW2  382   2.952   0.264   3.322
   83SOL     OW  383   0.919   2.600   3.548
   83SOL    HW1  384   0.895   2.537   3.479
   83SOL    HW2  385   0.864   2.576   3.622
   84SOL     OW  386   1.607   0.522   1.479
   84SOL    HW1  387   1.593   0.430   1.501
   84SOL    HW2  388   1.629   0.522   1.386
   85SOL     OW  389   0.593   3.084   0.125
   85SOL    HW1  390   0.514   3.077   0.071
   85SOL    HW2  391   0.658   3.033   0.077
   86SOL     OW  392   2.365   2.764   0.411
   86SOL    HW1  393   2.384   2.801   0.324
   86SOL    HW2  394   2.321   2.835   0.458
   87SOL     OW  395   2.641   2.787   1.319
   87SOL    HW1  396   2.591   2.867   1.304
   87SOL    HW2  397   2.598   2.745   1.394
   88SOL     OW  398   2.184   2.292   3.003
   88SOL    HW1  399   2.172   2.350   2.928
   88SOL    HW2  400   2.268   2.250   2.987
   89SOL     OW  401   2.215   0.673   3.919
   89SOL    HW1  402   2.169   0.649   3.999
   89SOL    HW2  403   2.288   0.727   3.949
   90SOL     OW  404   0.912   0.303   0.296
   90SOL    HW1  405   0.913   0.374   0.231
   90SOL    HW2  406   0.825   0.309   0.336
   91SOL     OW  407   1.535   0.584   0.457
   91SOL    HW1  408   1.530   0.538   0.373
   91SOL    HW2  409   1.452   0.563   0.500
   92SOL     OW  410   0.223   2.834   3.884
   92SOL    HW1  411   0.170   2.781   3.825
   92SOL    HW2  412   0.211   2.795   3.971
   93SOL     OW  413   2.124   3.908   0.021
   93SOL    HW1  414   2.091   3.966  -0.048
   93SOL    HW2  415   2.057   3.840   0.029
   94SOL     OW  416   1.598   1.530   3.543
   94SOL    HW1  417   1.586   1.505   3.451
   94SOL    HW2  418   1.692   1.521   3.558
   95SOL     OW  419   3.064   3.210   1.331
   95SOL    HW1  420   2.981   3.225   1.376
   95SOL    HW2  421   3.040   3.190   1.240
   96SOL     OW  422   2.111   3.924   0.466
   96SOL    HW1  423   2.199   3.885   0.467
   96SOL    HW2  424   2.110   3.982   0.543
   97SOL     OW  425   2.385   1.239   3.926
   97SOL    HW1  426   2.346   1.211   4.009
   97SOL    HW2  427   2.310   1.249   3.867
   98SOL     OW  428   2.896   0.910   1.855
   98SOL    HW1  429   2.977   0.886   1.900
   98SOL    HW2  430   2.840   0.833   1.864
   99SOL     OW  431   1.202   3.424   1.682
   99SOL    HW1  432   1.127   3.404   1.626
   99SOL    HW2  433   1.269   3.456   1.623
  100SOL     OW  434   0.468   2.478   2.319
  100SOL    HW1  435   0.460   2.494   2.412
  100SOL    HW2  436   0.541   2.533   2.291
  101SOL     OW  437   1.516   2.032   2.074
  101SOL    HW1  438   1.510   1.975   2.150
  101SOL    HW2  439   1.445   2.095   2.085
  102SOL     OW  440   1.288   1.980   0.214
  102SOL    HW1  441   1.213   1.977   0.155
  102SOL    HW2  442   1.276   2.061   0.264
  103SOL     OW  443   2.186   2.208   0.149
  103SOL    HW1  444   2.107   2.168   0.185
  103SOL    HW2  445   2.257   2.170   0.201
  104SOL     OW  446   0.242   3.084   1.163
  104SOL    HW1  447   0.321   3.136   1.149
  104SOL    HW2  448   0.258   3.003   1.115
  105SOL     OW  449   0.554   3.261   3.317
  105SOL    HW1  450   0.628   3.321   3.321
  105SOL    HW2  451   0.594   3.174   3.312
  106SOL     OW  452   1.891   2.671   3.825
  106SOL    HW1  453   1.813   2.704   3.780
  106SOL    HW2  454   1.955   2.657   3.754
  107SOL     OW  455   2.690   0.686   2.805
  107SOL    HW1  456   2.728   0.673   2.718
  107SOL    HW2  457   2.645   0.604   2.824
  108SOL     OW  458   2.288   1.404   2.427
  108SOL    HW1  459   2.223   1.394   2.497
  108SOL    HW2  460   2.251   1.469   2.368
  109SOL     OW  461   2.182   2.879   3.352
  109SOL    HW1  462   2.247   2.819   3.388
  109SOL    HW2  463   2.234   2.951   3.315
  110SOL     OW  464   2.550   2.952   3.442
  110SOL    HW1  465   2.619   2.915   3.386
  110SOL    HW2  466   2.477   2.968   3.383
  111SOL     OW  467   3.525   0.231   1.156
  111SOL    HW1  468   3.539   0.294   1.086
  111SOL    HW2  469   3.519   0.284   1.236
  112SOL     OW  470   1.704   1.556   3.040
  112SOL    HW1  471   1.798   1.543   3.050
  112SOL    HW2  472   1.685   1.532   2.950
  113SOL     OW  473   2.087   2.582   1.316
  113SOL    HW1  474   2.129   2.512   1.366
  113SOL    HW2  475   2.083   2.656   1.377
  114SOL     OW  476   0.574   3.288   0.553
  114SOL    HW1  477   0.631   3.225   0.596
  114SOL    HW2  478   0.527   3.237   0.487
  115SOL     OW  479   0.501   2.460   2.620
  115SOL    HW1  480   0.542   2.376   2.642
  115SOL    HW2  481   0.574   2.522   2.614
  116SOL     OW  482   1.229   1.863   0.522
  116SOL    HW1  483   1.151   1.910   0.493
  116SOL    HW2  484   1.247   1.897   0.609
  117SOL     OW  485   3.792   0.377   1.994
  117SOL    HW1  486   3.871   0.369   2.048
  117SOL    HW2  487   3.774   0.287   1.966
  118SOL     OW  488   0.172   3.442   3.765
  118SOL    HW1  489   0.090   3.400   3.739
  118SOL    HW2  490   0.218   3.459   3.682
  119SOL     OW  491   1.853   2.463   0.606
  119SOL    HW1  492   1.909   2.465   0.684
  119SOL    HW2  493   1.909   2.427   0.538
  120SOL     OW  494   1.599   1.146   0.599
  120SOL    HW1  495   1.597   1.091   0.521
  120SOL    HW2  496   1.618   1.233   0.566
  121SOL     OW  497  -0.000   0.295   2.454
  121SOL    HW1  498   0.005   0.227   2.387
  121SOL    HW2  499   0.049   0.259   2.528
  122SOL     OW  500   2.063   1.714   3.239
  122SOL    HW1  501   2.020   1.696   3.323
  122SOL    HW2  502   2.156   1.711   3.259
  123SOL     OW  503   0.853   0.469   3.354
  123SOL    HW1  504   0.774   0.433   3.315
  123SOL    HW2  505   0.828   0.559   3.379
  124SOL     OW  506   0.144   1.385   2.718
  124SOL    HW1  507   0.150   1.479   2.736
  124SOL    HW2  508   0.203   1.371   2.644
  125SOL     OW  509   2.214   1.514   3.541
  125SOL    HW1  510   2.143   1.576   3.558
  125SOL    HW2  511   2.170   1.432   3.519
  126SOL     OW  512   3.731   2.196   1.376
  126SOL    HW1  513   3.702   2.238   1.457
  126SOL    HW2  514   3.704   2.257   1.307
  127SOL     OW  515   3.313   2.389   2.584
  127SOL    HW1  516   3.290   2.441   2.661
  127SOL    HW2  517   3.408   2.379   2.589
  128SOL     OW  518   2.313   3.368   3.830
  128SOL    HW1  519   2.318   3.384   3.736
  128SOL    HW2  520   2.368   3.291   3.844
  129SOL     OW  521   2.311   1.342   1.030
  129SOL    HW1  522   2.304   1.249   1.012
  129SOL    HW2  523   2.221   1.373   1.035
  130SOL     OW  524   0.823   3.100   1.075
  130SOL    HW1  525   0.785   3.012   1.071
  130SOL    HW2  526   0.875   3.100   1.156
  131SOL     OW  527   3.542   3.421   3.805
  131SOL    HW1  528   3.582   3.357   3.746
  131SOL    HW2  529   3.519   3.371   3.883
  132SOL     OW  530   0.222   2.344   0.285
  132SOL    HW1  531   0.225   2.254   0.317
  132SOL    HW2  532   0.199   2.335   0.192
  133SOL     OW  533   0.636   1.486   0.200
  133SOL    HW1  534   0.574   1.435   0.148
  133SOL    HW2  535   0.591   1.569   0.218
  134SOL     OW  536   1.754   0.970   1.011
  134SOL    HW1  537   1.804   0.891   0.990
  134SOL    HW2  538   1.665   0.939   1.024
  135SOL     OW  539   3.500   3.287   0.144
  135SOL    HW1  540   3.595   3.282   0.151
  135SOL    HW2  541   3.473   3.202   0.109
  136SOL     OW  542   0.086   2.824   0.476
  136SOL    HW1  543  -0.004   2.840   0.503
  136SOL    HW2  544   0.086   2.733   0.446
  137SOL     OW  545   1.940   2.190   2.597
  137SOL    HW1  546   2.016   2.136   2.578
  137SOL    HW2  547   1.929   2.244   2.519
  138SOL     OW  548   1.908   2.323   0.345
  138SOL    HW1  549   1.928   2.247   0.289
  138SOL    HW2  550   1.818   2.310   0.372
  139SOL     OW  551   1.736   2.745   1.224
  139SOL    HW1  552   1.678   2.820   1.217
  139SOL    HW2  553   1.802   2.772   1.287
  140SOL     OW  554   3.025   3.841   0.712
  140SOL    HW1  555   3.071   3.776   0.657
  140SOL    HW2  556   2.950   3.867   0.659
  141SOL     OW  557   0.766   3.552   0.262
  141SOL    HW1  558   0.807   3.635   0.238
  141SOL    HW2  559   0.673   3.571   0.269
  142SOL     OW  560   0.048   1.654   2.413
  142SOL    HW1  561   0.034   1.695   2.328
  142SOL    HW2  562   0.042   1.560   2.395
  143SOL     OW  563   1.148   2.905   1.033
  143SOL    HW1  564   1.096   2.925   1.111
  143SOL    HW2  565   1.231   2.950   1.048
  144SOL     OW  566   1.544   0.203   0.657
  144SOL    HW1  567   1.602   0.144   0.707
  144SOL    HW2  568   1.548   0.286   0.705
  145SOL     OW  569   2.729   2.323   0.690
  145SOL    HW1  570   2.652   2.340   0.745
  145SOL    HW2  571   2.803   2.336   0.748
  146SOL     OW  572   3.427   1.165   0.386
  146SOL    HW1  573   3.500   1.179   0.447
  146SOL    HW2  574   3.395   1.077   0.408
  147SOL     OW  575   3.355   1.713   2.671
  147SOL    HW1  576   3.439   1.669   2.688
  147SOL    HW2  577   3.303   1.697   2.750
  148SOL     OW  578   3.396   1.266   1.194
  148SOL    HW1  579   3.302   1.259   1.177
  148SOL    HW2  580   3.414   1.197   1.258
  149SOL     OW  581   2.758   3.635   1.841
  149SOL    HW1  582   2.730   3.580   1.767
  149SOL    HW2  583   2.811   3.704   1.800
  150SOL     OW  584   2.506   3.785   1.333
  150SOL    HW1  585   2.423   3.806   1.376
  150SOL    HW2  586   2.493   3.813   1.242
  151SOL     OW  587   2.830   1.545   1.491
  151SOL    HW1  588   2.845   1.485   1.419
  151SOL    HW2  589   2.859   1.497   1.569
  152SOL     OW  590   1.198   3.704   1.841
  152SOL    HW1  591   1.280   3.714   1.793
  152SOL    HW2  592   1.135   3.758   1.794
  153SOL     OW  593   0.801   1.235   1.420
  153SOL    HW1  594   0.774   1.296   1.489
  153SOL    HW2  595   0.881   1.195   1.454
  154SOL     OW  596   0.716   2.231   1.199
  154SOL    HW1  597   0.747   2.155   1.150
  154SOL    HW2  598   0.674   2.287   1.133
  155SOL     OW  599   0.868  -0.002   0.794
  155SOL    HW1  600   0.937  -0.034   0.736
  155SOL    HW2  601   0.804   0.039   0.735
  156SOL     OW  602   3.123   1.061   3.297
  156SOL    HW1  603   3.033   1.083   3.272
  156SOL    HW2  604   3.121   1.054   3.392
  157SOL     OW  605   3.052   2.427   3.462
  157SOL    HW1  606   3.050   2.519   3.438
  157SOL    HW2  607   3.142   2.410   3.488
  158SOL     OW  608   1.623   2.045   0.112
  158SOL    HW1  609   1.593   2.084   0.194
  158SOL    HW2  610   1.563   2.081   0.046
  159SOL     OW  611   2.771   2.724   0.343
  159SOL    HW1  612   2.793   2.797   0.285
  159SOL    HW2  613   2.779   2.646   0.287
  160SOL     OW  614   0.482   0.580   2.410
  160SOL    HW1  615   0.390   0.561   2.397
  160SOL    HW2  616   0.487   0.675   2.419
  161SOL     OW  617   0.465   3.387   0.792
  161SOL    HW1  618   0.412   3.343   0.859
  161SOL    HW2  619   0.472   3.323   0.721
  162SOL     OW  620   0.276   0.418   2.736
  162SOL    HW1  621   0.301   0.511   2.736
  162SOL    HW2  622   0.331   0.379   2.804
  163SOL     OW  623   0.243   0.967   1.594
  163SOL    HW1  624   0.216   0.963   1.686
  163SOL    HW2  625   0.293   0.887   1.580
  164SOL     OW  626   0.540   3.164   1.350
  164SOL    HW1  627   0.478   3.235   1.336
  164SOL    HW2  628   0.547   3.120   1.266
  165SOL     OW  629   1.235   3.138   2.981
  165SOL    HW1  630   1.210   3.101   3.066
  165SOL    HW2  631   1.311   3.193   3.000
  166SOL     OW  632   2.549   3.609   2.039
  166SOL    HW1  633   2.625   3.643   1.992
  166SOL    HW2  634   2.480   3.674   2.025
  167SOL     OW  635   3.913   2.940   2.723
  167SOL    HW1  636   3.909   3.009   2.657
  167SOL    HW2  637   3.931   2.860   2.674
  168SOL     OW  638   3.103   3.655   1.564
  168SOL    HW1  639   3.144   3.570   1.546
  168SOL    HW2  640   3.129   3.676   1.653
  169SOL     OW  641   2.876   3.460   2.976
  169SOL    HW1  642   2.780   3.462   2.979
  169SOL    HW2  643   2.899   3.491   2.889
  170SOL     OW  644   1.235   0.886   2.207
  170SOL    HW1  645   1.325   0.858   2.222
  170SOL    HW2  646   1.188   0.863   2.288
  171SOL     OW  647   0.294   2.700   1.320
  171SOL    HW1  648   0.333   2.621   1.282
  171SOL    HW2  649   0.202   2.678   1.332
  172SOL     OW  650   3.931   2.336   1.891
  172SOL    HW1  651   3.869   2.267   1.868
  172SOL    HW2  652   3.883   2.418   1.877
  173SOL     OW  653   0.142   2.312   1.191
  173SOL    HW1  654   0.141   2.260   1.271
  173SOL    HW2  655   0.198   2.262   1.131
  174SOL     OW  656   1.956   2.331   3.808
  174SOL    HW1  657   2.010   2.399   3.849
  174SOL    HW2  658   2.004   2.249   3.823
  175SOL     OW  659   2.315   2.518   1.854
  175SOL    HW1  660   2.272   2.435   1.871
  175SOL    HW2  661   2.244   2.581   1.845
  176SOL     OW  662   1.771   0.274   0.256
  176SOL    HW1  663   1.823   0.298   0.332
  176SOL    HW2  664   1.711   0.207   0.288
  177SOL     OW  665   3.249   3.361   0.890
  177SOL    HW1  666   3.314   3.340   0.957
  177SOL    HW2  667   3.263   3.295   0.822
  178SOL     OW  668   2.248   0.639   1.240
  178SOL    HW1  669   2.220   0.668   1.327
  178SOL    HW2  670   2.332   0.682   1.226
  179SOL     OW  671   0.740   0.555   3.719
  179SOL    HW1  672   0.825   0.581   3.686
  179SOL    HW2  673   0.679   0.619   3.683
  180SOL     OW  674   0.989   3.373   1.506
  180SOL    HW1  675   1.011   3.345   1.417
  180SOL    HW2  676   0.918   3.315   1.532
  181SOL     OW  677   3.116   1.468   2.913
  181SOL    HW1  678   3.142   1.438   2.826
  181SOL    HW2  679   3.172   1.543   2.930
  182SOL     OW  680   2.499   2.532   3.143
  182SOL    HW1  681   2.575   2.580   3.108
  182SOL    HW2  682   2.433   2.600   3.155
  183SOL     OW  683   0.079   2.527   0.751
  183SOL    HW1  684   0.081   2.562   0.840
  183SOL    HW2  685   0.167   2.543   0.716
  184SOL     OW  686   0.041   2.511   2.499
  184SOL    HW1  687   0.002   2.503   2.412
  184SOL    HW2  688   0.074   2.423   2.519
  185SOL     OW  689   2.101   2.268   2.264
  185SOL    HW1  690   2.069   2.350   2.300
  185SOL    HW2  691   2.196   2.274   2.271
  186SOL     OW  692   1.872   2.771   0.533
  186SOL    HW1  693   1.927   2.722   0.473
  186SOL    HW2  694   1.828   2.704   0.586
  187SOL     OW  695   2.263   2.436   1.499
  187SOL    HW1  696   2.281   2.369   1.432
  187SOL    HW2  697   2.334   2.499   1.489
  188SOL     OW  698   1.078   1.907   1.749
  188SOL    HW1  699   1.041   1.856   1.677
  188SOL    HW2  700   1.086   1.845   1.821
  189SOL     OW  701   1.000   3.483   2.426
  189SOL    HW1  702   0.985   3.460   2.518
  189SOL    HW2  703   0.976   3.404   2.377
  190SOL     OW  704   2.553   3.506   1.343
  190SOL    HW1  705   2.488   3.445   1.309
  190SOL    HW2  706   2.519   3.593   1.319
  191SOL     OW  707   1.996   3.258   2.644
  191SOL    HW1  708   2.015   3.316   2.718
  191SOL    HW2  709   2.019   3.309   2.567
  192SOL     OW  710   0.427   3.523   0.444
  192SOL    HW1  711   0.497   3.505   0.508
  192SOL    HW2  712   0.346   3.512   0.494
  193SOL     OW  713   2.849   2.833   1.525
  193SOL    HW1  714   2.780   2.896   1.545
  193SOL    HW2  715   2.842   2.818   1.431
  194SOL     OW  716   3.329   2.494   2.857
  194SOL    HW1  717   3.401   2.553   2.835
  194SOL    HW2  718   3.369   2.427   2.913
  195SOL     OW  719   0.613   1.490   3.032
  195SOL    HW1  720   0.593   1.509   2.940
  195SOL    HW2  721   0.554   1.548   3.081
  196SOL     OW  722   3.232   1.439   2.297
  196SOL    HW1  723   3.225   1.534   2.284
  196SOL    HW2  724   3.153   1.417   2.347
  197SOL     OW  725   3.671   1.198   1.499
  197SOL    HW1  726   3.710   1.166   1.580
  197SOL    HW2  727   3.740   1.249   1.457
  198SOL     OW  728   3.230   3.004   1.313
  198SOL    HW1  729   3.224   2.998   1.217
  198SOL    HW2  730   3.148   3.045   1.339
  199SOL     OW  731   2.616   3.555   1.609
  199SOL    HW1  732   2.537   3.508   1.634
  199SOL    HW2  733   2.614   3.557   1.513
  200SOL     OW  734   0.334   3.523   3.181
  200SOL    HW1  735   0.283   3.467   3.122
  200SOL    HW2  736   0.421   3.528   3.141
  201SOL     OW  737   1.695   3.706   0.872
  201SOL    HW1  738   1.784   3.673   0.885
  201SOL    HW2  739   1.648   3.632   0.834
  202SOL     OW  740   0.275   1.321   0.354
  202SOL    HW1  741   0.266   1.227   0.364
  202SOL    HW2  742   0.216   1.345   0.283
  203SOL     OW  743   2.593   1.228   2.030
  203SOL    HW1  744   2.565   1.229   1.938
  203SOL    HW2  745   2.568   1.315   2.063
  204SOL     OW  746   1.739   0.547   0.194
  204SOL    HW1  747   1.777   0.598   0.266
  204SOL    HW2  748   1.752   0.456   0.221
  205SOL     OW  749   3.932   0.900   1.054
  205SOL    HW1  750   3.906   0.876   0.965
  205SOL    HW2  751   4.027   0.897   1.053
  206SOL     OW  752   1.481   3.086   1.415
  206SOL    HW1  753   1.403   3.038   1.444
  206SOL    HW2  754   1.505   3.140   1.491
  207SOL     OW  755   3.697   2.173   1.068
  207SOL    HW1  756   3.788   2.148   1.051
  207SOL    HW2  757   3.688   2.260   1.028
  208SOL     OW  758   0.829   2.239   2.983
  208SOL    HW1  759   0.763   2.177   3.013
  208SOL    HW2  760   0.910   2.188   2.980
  209SOL     OW  761   1.938   1.959   3.583
  209SOL    HW1  762   1.866   1.983   3.641
  209SOL    HW2  763   2.008   2.020   3.605
  210SOL     OW  764   3.896   2.831   3.202
  210SOL    HW1  765   3.830   2.899   3.216
  210SOL    HW2  766   3.979   2.879   3.194
  211SOL     OW  767   3.167   2.237   1.163
  211SOL    HW1  768   3.131   2.254   1.250
  211SOL    HW2  769   3.257   2.269   1.168
  212SOL     OW  770   1.873   3.879   3.294
  212SOL    HW1  771   1.927   3.846   3.366
  212SOL    HW2  772   1.830   3.956   3.330
  213SOL     OW  773   3.573   0.623   0.579
  213SOL    HW1  774   3.555   0.618   0.485
  213SOL    HW2  775   3.503   0.571   0.620
  214SOL     OW  776   1.358   0.490   3.762
  214SOL    HW1  777   1.389   0.491   3.853
  214SOL    HW2  778   1.265   0.468   3.768
  215SOL     OW  779   3.668   0.895   1.402
  215SOL    HW1  780   3.691   0.988   1.395
  215SOL    HW2  781   3.748   0.848   1.380
  216SOL     OW  782   1.625   3.107   3.069
  216SOL    HW1  783   1.622   3.140   2.980
  216SOL    HW2  784   1.712   3.069   3.078
  217SOL     OW  785   3.493   1.998   3.816
  217SOL    HW1  786   3.501   2.063   3.886
  217SOL    HW2  787   3.423   1.939   3.847
  218SOL     OW  788   2.290   1.295   1.439
  218SOL    HW1  789   2.233   1.247   1.500
  218SOL    HW2  790   2.298   1.238   1.363
  219SOL     OW  791   3.802   1.187   0.022
  219SOL    HW1  792   3.801   1.092   0.031
  219SOL    HW2  793   3.729   1.217   0.077
  220SOL     OW  794   3.186   1.509   0.698
  220SOL    HW1  795   3.159   1.426   0.737
  220SOL    HW2  796   3.219   1.561   0.772
  221SOL     OW  797   3.616   3.715   1.301
  221SOL    HW1  798   3.572   3.707   1.386
  221SOL    HW2  799   3.574   3.790   1.260
  222SOL     OW  800   2.363   0.415   0.778
  222SOL    HW1  801   2.313   0.414   0.697
  222SOL    HW2  802   2.328   0.489   0.827
  223SOL     OW  803   2.377   2.531   2.537
  223SOL    HW1  804   2.293   2.577   2.536
  223SOL    HW2  805   2.443   2.600   2.530
  224SOL     OW  806   2.589   1.936   2.433
  224SOL    HW1  807   2.530   1.937   2.357
  224SOL    HW2  808   2.570   1.852   2.476
  225SOL     OW  809   1.729   2.478   1.206
  225SOL    HW1  810   1.733   2.573   1.216
  225SOL    HW2  811   1.721   2.445   1.295
  226SOL     OW  812   3.770   0.672   2.476
  226SOL    HW1  813   3.760   0.760   2.511
  226SOL    HW2  814   3.846   0.678   2.418
  227SOL     OW  815   1.184   0.541   0.258
  227SOL    HW1  816   1.234   0.459   0.263
  227SOL    HW2  817   1.117   0.533   0.326
  228SOL     OW  818   2.356   2.920   1.007
  228SOL    HW1  819   2.274   2.967   1.024
  228SOL    HW2  820   2.373   2.872   1.087
  229SOL     OW  821   2.257   1.113   0.843
  229SOL    HW1  822   2.283   1.181   0.780
  229SOL    HW2  823   2.275   1.031   0.798
  230SOL     OW  824   0.177   1.240   0.646
  230SOL    HW1  825   0.194   1.146   0.636
  230SOL    HW2  826   0.117   1.262   0.574
  231SOL     OW  827   0.405   1.542   2.146
  231SOL    HW1  828   0.460   1.505   2.076
  231SOL    HW2  829   0.379   1.628   2.112
  232SOL     OW  830   2.106   1.217   1.664
  232SOL    HW1  831   2.177   1.220   1.728
  232SOL    HW2  832   2.062   1.302   1.673
  233SOL     OW  833   2.084   2.836   1.392
  233SOL    HW1  834   2.067   2.825   1.298
  233SOL    HW2  835   2.128   2.921   1.398
  234SOL     OW  836   2.093   0.839   3.131
  234SOL    HW1  837   2.033   0.819   3.203
  234SOL    HW2  838   2.042   0.821   3.051
  235SOL     OW  839   0.345   0.634   1.282
  235SOL    HW1  840   0.282   0.563   1.293
  235SOL    HW2  841   0.291   0.713   1.270
  236SOL     OW  842   3.495   3.441   1.551
  236SOL    HW1  843   3.402   3.430   1.530
  236SOL    HW2  844   3.506   3.535   1.562
  237SOL     OW  845   1.776   1.810   1.913
  237SOL    HW1  846   1.804   1.902   1.914
  237SOL    HW2  847   1.814   1.772   1.991
  238SOL     OW  848   3.142   0.607   0.342
  238SOL    HW1  849   3.127   0.628   0.250
  238SOL    HW2  850   3.059   0.569   0.372
  239SOL     OW  851   3.891   2.347   3.218
  239SOL    HW1  852   3.981   2.319   3.236
  239SOL    HW2  853   3.898   2.403   3.141
  240SOL     OW  854   2.081   3.781   1.952
  240SOL    HW1  855   2.092   3.849   2.018
  240SOL    HW2  856   2.133   3.812   1.877
  241SOL     OW  857   0.080   0.342   2.128
  241SOL    HW1  858   0.147   0.320   2.063
  241SOL    HW2  859   0.090   0.275   2.196
  242SOL     OW  860   1.890   2.982   3.159
  242SOL    HW1  861   1.896   2.888   3.142
  242SOL    HW2  862   1.928   2.993   3.247
  243SOL     OW  863   3.840   1.431   1.707
  243SOL    HW1  864   3.923   1.387   1.688
  243SOL    HW2  865   3.840   1.507   1.649
  244SOL     OW  866   3.521   3.716   1.579
  244SOL    HW1  867   3.541   3.808   1.566
  244SOL    HW2  868   3.544   3.699   1.670
  245SOL     OW  869   1.862   0.557   2.336
  245SOL    HW1  870   1.776   0.565   2.375
  245SOL    HW2  871   1.923   0.574   2.408
  246SOL     OW  872   2.412   2.049   0.820
  246SOL    HW1  873   2.347   2.077   0.756
  246SOL    HW2  874   2.361   2.017   0.894
  247SOL     OW  875   3.435   2.612   3.740
  247SOL    HW1  876   3.367   2.575   3.797
  247SOL    HW2  877   3.517   2.593   3.785
  248SOL     OW  878   0.682   3.116   1.795
  248SOL    HW1  879   0.707   3.087   1.882
  248SOL    HW2  880   0.765   3.123   1.747
  249SOL     OW  881   1.053   0.984   0.275
  249SOL    HW1  882   1.137   0.938   0.277
  249SOL    HW2  883   1.022   0.981   0.366
  250SOL     OW  884   1.922   3.911   0.874
  250SOL    HW1  885   1.836   3.946   0.852
  250SOL    HW2  886   1.929   3.922   0.969
  251SOL     OW  887   1.747   1.457   2.494
  251SOL    HW1  888   1.682   1.483   2.429
  251SOL    HW2  889   1.743   1.361   2.495
  252SOL     OW  890   2.062   1.134   2.000
  252SOL    HW1  891   2.073   1.173   1.913
  252SOL    HW2  892   2.148   1.100   2.023
  253SOL     OW  893   3.819   2.464   3.533
  253SOL    HW1  894   3.734   2.500   3.510
  253SOL    HW2  895   3.862   2.449   3.449
  254SOL     OW  896   0.829   3.334   3.272
  254SOL    HW1  897   0.823   3.239   3.264
  254SOL    HW2  898   0.865   3.363   3.188
  255SOL     OW  899   2.765   1.735   1.706
  255SOL    HW1  900   2.849   1.760   1.667
  255SOL    HW2  901   2.722   1.683   1.638
  256SOL     OW  902   3.418   1.902   2.932
  256SOL    HW1  903   3.394   1.989   2.964
  256SOL    HW2  904   3.424   1.912   2.837
  257SOL     OW  905   0.177   3.488   0.886
  257SOL    HW1  906   0.100   3.462   0.937
  257SOL    HW2  907   0.213   3.405   0.853
  258SOL     OW  908   3.587   0.368   0.857
  258SOL    HW1  909   3.514   0.352   0.797
  258SOL    HW2  910   3.632   0.284   0.861
  259SOL     OW  911   1.490   2.388   2.598
  259SOL    HW1  912   1.470   2.295   2.592
  259SOL    HW2  913   1.450   2.416   2.681
  260SOL     OW  914   3.152   0.906   1.958
  260SOL    HW1  915   3.215   0.947   1.898
  260SOL    HW2  916   3.184   0.929   2.045
  261SOL     OW  917   3.370   2.177   0.901
  261SOL    HW1  918   3.372   2.156   0.994
  261SOL    HW2  919   3.318   2.107   0.861
  262SOL     OW  920   3.008   3.249   2.321
  262SOL    HW1  921   3.094   3.248   2.362
  262SOL    HW2  922   3.021   3.296   2.238
  263SOL     OW  923   2.010   1.694   3.523
  263SOL    HW1  924   1.992   1.786   3.541
  263SOL    HW2  925   1.927   1.650   3.542
  264SOL     OW  926   3.363   0.284   0.638
  264SOL    HW1  927   3.316   0.323   0.564
  264SOL    HW2  928   3.349   0.190   0.628
  265SOL     OW  929   2.279   1.991   1.068
  265SOL    HW1  930   2.229   2.028   1.141
  265SOL    HW2  931   2.260   1.897   1.072
  266SOL     OW  932   3.369   3.640   0.044
  266SOL    HW1  933   3.372   3.544   0.050
  266SOL    HW2  934   3.333   3.657  -0.044
  267SOL     OW  935   0.844   3.887   1.053
  267SOL    HW1  936   0.838   3.940   0.974
  267SOL    HW2  937   0.929   3.845   1.048
  268SOL     OW  938   1.588   3.554   0.130
  268SOL    HW1  939   1.646   3.543   0.205
  268SOL    HW2  940   1.536   3.473   0.128
  269SOL     OW  941   2.440   2.266   3.514
  269SOL    HW1  942   2.472   2.176   3.521
  269SOL    HW2  943   2.489   2.314   3.581
  270SOL     OW  944   0.511   3.301   1.900
  270SOL    HW1  945   0.522   3.383   1.850
  270SOL    HW2  946   0.586   3.248   1.876
  271SOL     OW  947   1.193   2.442   1.900
  271SOL    HW1  948   1.134   2.370   1.923
  271SOL    HW2  949   1.277   2.400   1.882
  272SOL     OW  950   0.370   1.706   0.169
  272SOL    HW1  951   0.319   1.690   0.090
  272SOL    HW2  952   0.447   1.755   0.139
  273SOL     OW  953   2.424   0.108   3.399
  273SOL    HW1  954   2.396   0.094   3.490
  273SOL    HW2  955   2.433   0.203   3.391
  274SOL     OW  956   2.764   2.685   0.975
  274SOL    HW1  957   2.783   2.771   0.938
  274SOL    HW2  958   2.675   2.666   0.947
  275SOL     OW  959   1.064   1.932   3.470
  275SOL    HW1  960   1.144   1.976   3.442
  275SOL    HW2  961   1.020   1.996   3.526
  276SOL     OW  962   0.613   2.753   3.655
  276SOL    HW1  963   0.697   2.786   3.687
  276SOL    HW2  964   0.547   2.807   3.698
  277SOL     OW  965   3.735   0.346   3.516
  277SOL    HW1  966   3.818   0.381   3.550
  277SOL    HW2  967   3.725   0.388   3.431
  278SOL     OW  968   1.465   3.236   1.658
  278SOL    HW1  969   1.537   3.222   1.720
  278SOL    HW2  970   1.386   3.213   1.707
  279SOL     OW  971   3.710   3.268   1.641
  279SOL    HW1  972   3.704   3.302   1.731
  279SOL    HW2  973   3.651   3.324   1.591
  280SOL     OW  974   2.396   3.455   1.842
  280SOL    HW1  975   2.469   3.513   1.864
  280SOL    HW2  976   2.414   3.374   1.891
  281SOL     OW  977   1.437   1.264   1.797
  281SOL    HW1  978   1.408   1.239   1.709
  281SOL    HW2  979   1.494   1.192   1.824
  282SOL     OW  980   2.294   1.853   3.950
  282SOL    HW1  981   2.331   1.908   3.880
  282SOL    HW2  982   2.350   1.775   3.950
  283SOL     OW  983   3.371   2.746   2.052
  283SOL    HW1  984   3.440   2.798   2.011
  283SOL    HW2  985   3.408   2.719   2.136
  284SOL     OW  986   0.185   0.077   3.525
  284SOL    HW1  987   0.220  -0.013   3.524
  284SOL    HW2  988   0.106   0.072   3.472
  285SOL     OW  989   1.451   3.949   1.124
  285SOL    HW1  990   1.418   3.882   1.184
  285SOL    HW2  991   1.372   3.995   1.094
  286SOL     OW  992   0.522   1.168   0.949
  286SOL    HW1  993   0.432   1.198   0.949
  286SOL    HW2  994   0.516   1.072   0.944
  287SOL     OW  995   3.165   3.373   0.387
  287SOL    HW1  996   3.142   3.415   0.470
  287SOL    HW2  997   3.216   3.297   0.412
  288SOL     OW  998   2.686   2.270   1.542
  288SOL    HW1  999   2.592   2.288   1.540
  288SOL    HW2 1000   2.723   2.343   1.592
  289SOL     OW 1001   0.844   2.972   3.930
  289SOL    HW1 1002   0.858   2.964   4.025
  289SOL    HW2 1003   0.892   3.051   3.906
  290SOL     OW 1004   2.152   2.711   2.025
  290SOL    HW1 1005   2.110   2.627   2.045
  290SOL    HW2 1006   2.210   2.727   2.099
  291SOL     OW 1007   2.459   0.812   3.929
  291SOL    HW1 1008   2.517   0.739   3.906
  291SOL    HW2 1009   2.510   0.890   3.907
  292SOL     OW 1010   0.894   2.421   2.781
  292SOL    HW1 1011   0.837   2.498   2.783
  292SOL    HW2 1012   0.851   2.358   2.839
  293SOL     OW 1013   1.414   2.407   3.206
  293SOL    HW1 1014   1.336   2.450   3.241
  293SOL    HW2 1015   1.478   2.411   3.278
  294SOL     OW 1016   2.901   3.592   0.409
  294SOL    HW1 1017   2.858   3.632   0.484
  294SOL    HW2 1018   2.932   3.508   0.441
  295SOL     OW 1019   3.834   3.014   0.651
  295SOL    HW1 1020   3.914   3.061   0.627
  295SOL    HW2 1021   3.773   3.083   0.677
  296SOL     OW 1022   2.708   0.418   3.328
  296SOL    HW1 1023   2.730   0.351   3.393
  296SOL    HW2 1024   2.621   0.394   3.297
  297SOL     OW 1025   2.380   3.299   1.265
  297SOL    HW1 1026   2.352   3.304   1.174
  297SOL    HW2 1027   2.299   3.295   1.315
  298SOL     OW 1028   2.320   0.184   3.877
  298SOL    HW1 1029   2.351   0.272   3.855
  298SOL    HW2 1030   2.234   0.198   3.917
  299SOL     OW 1031   3.690   3.091   2.227
  299SOL    HW1 1032   3.642   3.016   2.191
  299SOL    HW2 1033   3.660   3.166   2.177
  300SOL     OW 1034   0.673   2.244   2.094
  300SOL    HW1 1035   0.725   2.247   2.174
  300SOL    HW2 1036   0.711   2.172   2.044
  301SOL     OW 1037   3.721   3.596   0.643
  301SOL    HW1 1038   3.630   3.615   0.619
  301SOL    HW2 1039   3.772   3.618   0.565
  302SOL     OW 1040   1.497   2.853   0.222
  302SOL    HW1 1041   1.478   2.760   0.208
  302SOL    HW2 1042   1.592   2.858   0.227
  303SOL     OW 1043   0.942   3.739   3.926
  303SOL    HW1 1044   0.853   3.775   3.926
  303SOL    HW2 1045   0.982   3.777   3.848
  304SOL     OW 1046   2.901   1.088   0.712
  304SOL    HW1 1047   2.897   1.100   0.617
  304SOL    HW2 1048   2.929   0.997   0.723
  305SOL     OW 1049   3.063   1.035   0.982
  305SOL    HW1 1050   3.113   1.084   1.047
  305SOL    HW2 1051   3.123   1.025   0.908
  306SOL     OW 1052   1.164   2.969   3.683
  306SOL    HW1 1053   1.186   2.989   3.774
  306SOL    HW2 1054   1.200   2.882   3.668
  307SOL     OW 1055   2.877   1.174   2.829
  307SOL    HW1 1056   2.951   1.150   2.773
  307SOL    HW2 1057   2.887   1.119   2.907
  308SOL     OW 1058   2.574   0.332   0.939
  308SOL    HW1 1059   2.617   0.255   0.902
  308SOL    HW2 1060   2.499   0.348   0.881
  309SOL     OW 1061   3.464   2.336   0.713
  309SOL    HW1 1062   3.431   2.281   0.784
  309SOL    HW2 1063   3.439   2.425   0.737
  310SOL     OW 1064   1.433   2.437   3.951
  310SOL    HW1 1065   1.356   2.493   3.959
  310SOL    HW2 1066   1.473   2.462   3.868
  311SOL     OW 1067   1.803   1.003   0.723
  311SOL    HW1 1068   1.799   1.020   0.817
  311SOL    HW2 1069   1.720   1.039   0.690
  312SOL     OW 1070   0.040   1.527   3.326
  312SOL    HW1 1071   0.112   1.576   3.285
  312SOL    HW2 1072  -0.031   1.591   3.332
  313SOL     OW 1073   2.239   1.981   1.900
  313SOL    HW1 1074   2.219   1.913   1.836
  313SOL    HW2 1075   2.320   1.952   1.941
  314SOL     OW 1076   3.665   0.463   3.960
  314SOL    HW1 1077   3.640   0.419   3.878
  314SOL    HW2 1078   3.745   0.511   3.938
  315SOL     OW 1079   1.229   2.648   1.594
  315SOL    HW1 1080   1.287   2.582   1.630
  315SOL    HW2 1081   1.172   2.601   1.533
  316SOL     OW 1082   0.577   3.892   3.301
  316SOL    HW1 1083   0.605   3.800   3.309
  316SOL    HW2 1084   0.490   3.887   3.262
  317SOL     OW 1085   0.410   0.995   2.836
  317SOL    HW1 1086   0.476   0.976   2.769
  317SOL    HW2 1087   0.448   1.066   2.887
  318SOL     OW 1088   1.536   0.523   0.027
  318SOL    HW1 1089   1.473   0.594   0.029
  318SOL    HW2 1090   1.606   0.550   0.087
  319SOL     OW 1091   0.668   2.603   3.316
  319SOL    HW1 1092   0.743   2.578   3.370
  319SOL    HW2 1093   0.621   2.521   3.302
  320SOL     OW 1094   3.240   0.933   0.802
  320SOL    HW1 1095   3.324   0.954   0.842
  320SOL    HW2 1096   3.247   0.841   0.778
  321SOL     OW 1097   2.024   1.459   1.005
  321SOL    HW1 1098   2.008   1.385   0.946
  321SOL    HW2 1099   1.983   1.533   0.961
  322SOL     OW 1100   0.583   1.415   1.972
  322SOL    HW1 1101   0.634   1.414   2.053
  322SOL    HW2 1102   0.618   1.489   1.923
  323SOL     OW 1103   1.992   2.838   1.132
  323SOL    HW1 1104   2.032   2.918   1.099
  323SOL    HW2 1105   1.904   2.838   1.094
  324SOL     OW 1106   2.798   1.959   1.967
  324SOL    HW1 1107   2.857   1.884   1.960
  324SOL    HW2 1108   2.801   1.984   2.059
  325SOL     OW 1109   1.423   1.024   3.028
  325SOL    HW1 1110   1.395   0.977   2.949
  325SOL    HW2 1111   1.469   1.101   2.995
  326SOL     OW 1112   2.915   1.615   3.137
  326SOL    HW1 1113   2.977   1.548   3.108
  326SOL    HW2 1114   2.941   1.636   3.226
  327SOL     OW 1115   1.250   1.915   0.793
  327SOL    HW1 1116   1.163   1.932   0.827
  327SOL    HW2 1117   1.286   1.849   0.852
  328SOL     OW 1118   1.513   0.260   3.355
  328SOL    HW1 1119   1.475   0.176   3.382
  328SOL    HW2 1120   1.463   0.326   3.403
  329SOL     OW 1121   0.932   2.919   0.760
  329SOL    HW1 1122   0.911   2.865   0.837
  329SOL    HW2 1123   1.026   2.904   0.745
  330SOL     OW 1124   0.477   0.661   3.474
  330SOL    HW1 1125   0.453   0.742   3.518
  330SOL    HW2 1126   0.450   0.591   3.534
  331SOL     OW 1127   2.677   1.275   0.754
  331SOL    HW1 1128   2.743   1.343   0.742
  331SOL    HW2 1129   2.721   1.194   0.727
  332SOL     OW 1130   0.244   1.185   3.300
  332SOL    HW1 1131   0.155   1.162   3.272
  332SOL    HW2 1132   0.233   1.210   3.392
  333SOL     OW 1133   2.270   0.859   1.607
  333SOL    HW1 1134   2.359   0.879   1.578
  333SOL    HW2 1135   2.215   0.878   1.530
  334SOL     OW 1136   2.534   1.410   0.421
  334SOL    HW1 1137   2.553   1.504   0.421
  334SOL    HW2 1138   2.572   1.378   0.340
  335SOL     OW 1139   1.409   0.904   3.652
  335SOL    HW1 1140   1.396   0.810   3.638
  335SOL    HW2 1141   1.499   0.912   3.683
  336SOL     OW 1142   3.219   1.037   1.359
  336SOL    HW1 1143   3.283   0.977   1.399
  336SOL    HW2 1144   3.230   1.119   1.407
  337SOL     OW 1145   2.865   2.696   3.609
  337SOL    HW1 1146   2.832   2.784   3.627
  337SOL    HW2 1147   2.937   2.710   3.547
  338SOL     OW 1148   2.957   0.788   2.850
  338SOL    HW1 1149   2.964   0.774   2.756
  338SOL    HW2 1150   2.868   0.761   2.872
  339SOL     OW 1151   0.830   0.927   2.051
  339SOL    HW1 1152   0.778   0.847   2.062
  339SOL    HW2 1153   0.766   0.995   2.030
  340SOL     OW 1154   2.744   3.616   0.854
  340SOL    HW1 1155   2.834   3.584   0.841
  340SOL    HW2 1156   2.754   3.691   0.912
  341SOL     OW 1157   2.168   0.267   3.233
  341SOL    HW1 1158   2.095   0.319   3.200
  341SOL    HW2 1159   2.163   0.276   3.328
  342SOL     OW 1160   3.714   1.013   1.977
  342SOL    HW1 1161   3.724   1.097   2.022
  342SOL    HW2 1162   3.690   1.037   1.887
  343SOL     OW 1163   3.177   1.273   3.656
  343SOL    HW1 1164   3.153   1.294   3.746
  343SOL    HW2 1165   3.130   1.193   3.636
  344SOL     OW 1166   3.938   2.407   3.771
  344SOL    HW1 1167   3.880   2.438   3.702
  344SOL    HW2 1168   3.884   2.350   3.825
  345SOL     OW 1169   0.197   0.656   1.565
  345SOL    HW1 1170   0.135   0.706   1.619
  345SOL    HW2 1171   0.151   0.644   1.482
  346SOL     OW 1172   2.198   2.272   1.853
  346SOL    HW1 1173   2.168   2.185   1.879
  346SOL    HW2 1174   2.281   2.256   1.807
  347SOL     OW 1175   2.992   1.357   2.399
  347SOL    HW1 1176   2.958   1.361   2.488
  347SOL    HW2 1177   2.929   1.303   2.351
  348SOL     OW 1178   2.066   3.393   2.421
  348SOL    HW1 1179   2.127   3.406   2.349
  348SOL    HW2 1180   2.093   3.456   2.488
  349SOL     OW 1181   0.846   0.140   2.575
  349SOL    HW1 1182   0.828   0.226   2.536
  349SOL    HW2 1183   0.799   0.141   2.658
  350SOL     OW 1184   0.809   0.383   2.382
  350SOL    HW1 1185   0.734   0.362   2.326
  350SOL    HW2 1186   0.866   0.436   2.326
  351SOL     OW 1187   1.270   2.156   0.392
  351SOL    HW1 1188   1.262   2.137   0.486
  351SOL    HW2 1189   1.365   2.164   0.378
  352SOL     OW 1190   1.503   0.427   0.801
  352SOL    HW1 1191   1.454   0.504   0.774
  352SOL    HW2 1192   1.441   0.376   0.853
  353SOL     OW 1193   2.060   1.991   2.833
  353SOL    HW1 1194   2.118   2.049   2.883
  353SOL    HW2 1195   2.085   2.007   2.741
  354SOL     OW 1196   2.889   1.920   0.083
  354SOL    HW1 1197   2.886   2.011   0.112
  354SOL    HW2 1198   2.804   1.905   0.042
  355SOL     OW 1199   1.097   1.722   1.969
  355SOL    HW1 1200   1.128   1.725   2.060
  355SOL    HW2 1201   1.081   1.629   1.953
  356SOL     OW 1202   2.625   0.952   1.244
  356SOL    HW1 1203   2.708   0.982   1.281
  356SOL    HW2 1204   2.613   1.005   1.165
  357SOL     OW 1205   3.755   3.495   1.286
  357SOL    HW1 1206   3.791   3.496   1.375
  357SOL    HW2 1207   3.681   3.556   1.289
  358SOL     OW 1208   2.102   2.034   3.330
  358SOL    HW1 1209   2.052   2.082   3.264
  358SOL    HW2 1210   2.036   1.991   3.384
  359SOL     OW 1211   1.178   1.346   3.169
  359SOL    HW1 1212   1.272   1.338   3.151
  359SOL    HW2 1213   1.166   1.301   3.253
  360SOL     OW 1214   0.470   3.920   0.331
  360SOL    HW1 1215   0.386   3.898   0.372
  360SOL    HW2 1216   0.449   3.934   0.239
  361SOL     OW 1217   1.882   0.822   1.271
  361SOL    HW1 1218   1.961   0.832   1.324
  361SOL    HW2 1219   1.844   0.910   1.268
  362SOL     OW 1220   2.591   1.385   1.035
  362SOL    HW1 1221   2.576   1.348   0.948
  362SOL    HW2 1222   2.505   1.381   1.078
  363SOL     OW 1223   2.995   0.413   1.843
  363SOL    HW1 1224   3.080   0.457   1.848
  363SOL    HW2 1225   2.986   0.390   1.750
  364SOL     OW 1226   0.941   3.850   3.004
  364SOL    HW1 1227   0.866   3.799   2.974
  364SOL    HW2 1228   0.904   3.916   3.063
  365SOL     OW 1229   0.306   3.780   3.284
  365SOL    HW1 1230   0.337   3.700   3.241
  365SOL    HW2 1231   0.260   3.750   3.362
  366SOL     OW 1232   2.556   1.590   1.404
  366SOL    HW1 1233   2.651   1.596   1.396
  366SOL    HW2 1234   2.523   1.671   1.365
  367SOL     OW 1235   2.256   0.629   0.926
  367SOL    HW1 1236   2.327   0.673   0.972
  367SOL    HW2 1237   2.178   0.681   0.946
  368SOL     OW 1238   1.781   3.826   1.112
  368SOL    HW1 1239   1.767   3.784   1.028
  368SOL    HW2 1240   1.717   3.786   1.170
  369SOL     OW 1241   0.671   0.498   0.803
  369SOL    HW1 1242   0.698   0.560   0.870
  369SOL    HW2 1243   0.643   0.552   0.730
  370SOL     OW 1244   1.794   0.158   3.430
  370SOL    HW1 1245   1.850   0.186   3.502
  370SOL    HW2 1246   1.722   0.221   3.430
  371SOL     OW 1247   1.624   1.688   0.488
  371SOL    HW1 1248   1.605   1.708   0.580
  371SOL    HW2 1249   1.592   1.764   0.440
  372SOL     OW 1250   2.587   0.569   1.251
  372SOL    HW1 1251   2.677   0.590   1.225
  372SOL    HW2 1252   2.534   0.589   1.174
  373SOL     OW 1253   2.549   2.624   1.931
  373SOL    HW1 1254   2.460   2.590   1.919
  373SOL    HW2 1255   2.577   2.588   2.016
  374SOL     OW 1256   2.000   3.735   0.676
  374SOL    HW1 1257   1.992   3.783   0.758
  374SOL    HW2 1258   2.091   3.747   0.650
  375SOL     OW 1259   1.797   0.044   1.292
  375SOL    HW1 1260   1.820   0.131   1.258
  375SOL    HW2 1261   1.809  -0.014   1.217
  376SOL     OW 1262   2.434   3.907   0.675
  376SOL    HW1 1263   2.384   3.847   0.618
  376SOL    HW2 1264   2.453   3.855   0.753
  377SOL     OW 1265   1.920   0.169   3.778
  377SOL    HW1 1266   1.975   0.107   3.730
  377SOL    HW2 1267   1.859   0.113   3.826
  378SOL     OW 1268   2.644   2.996   1.572
  378SOL    HW1 1269   2.627   3.090   1.578
  378SOL    HW2 1270   2.609   2.961   1.654
  379SOL     OW 1271   2.887   0.008   0.277
  379SOL    HW1 1272   2.882   0.009   0.182
  379SOL    HW2 1273   2.798  -0.011   0.306
  380SOL     OW 1274   1.540   3.500   2.399
  380SOL    HW1 1275   1.540   3.505   2.494
  380SOL    HW2 1276   1.459   3.454   2.377
  381SOL     OW 1277   2.835   0.878   3.172
  381SOL    HW1 1278   2.761   0.892   3.113
  381SOL    HW2 1279   2.828   0.949   3.236
  382SOL     OW 1280   1.271   2.105   3.418
  382SOL    HW1 1281   1.364   2.092   3.438
  382SOL    HW2 1282   1.266   2.098   3.322
  383SOL     OW 1283   2.954   3.538   1.162
  383SOL    HW1 1284   2.901   3.486   1.222
  383SOL    HW2 1285   3.021   3.578   1.217
  384SOL     OW 1286   2.629   0.227   2.682
  384SOL    HW1 1287   2.646   0.260   2.771
  384SOL    HW2 1288   2.610   0.306   2.631
  385SOL     OW 1289   3.744   0.424   1.218
  385SOL    HW1 1290   3.769   0.336   1.190
  385SOL    HW2 1291   3.810   0.482   1.179
  386SOL     OW 1292   1.704   2.004   3.774
  386SOL    HW1 1293   1.638   2.055   3.820
  386SOL    HW2 1294   1.658   1.964   3.701
  387SOL     OW 1295   1.482   2.169   3.884
  387SOL    HW1 1296   1.457   2.261   3.892
  387SOL    HW2 1297   1.414   2.131   3.828
  388SOL     OW 1298   0.020   0.195   3.901
  388SOL    HW1 1299   0.051   0.111   3.867
  388SOL    HW2 1300  -0.063   0.174   3.943
  389SOL     OW 1301   0.164   2.293   3.973
  389SOL    HW1 1302   0.127   2.329   3.892
  389SOL    HW2 1303   0.249   2.259   3.947
  390SOL     OW 1304   0.038   1.046   1.427
  390SOL    HW1 1305   0.065   1.131   1.393
  390SOL    HW2 1306   0.101   1.027   1.497
  391SOL     OW 1307   1.118   0.224   3.046
  391SOL    HW1 1308   1.210   0.202   3.062
  391SOL    HW2 1309   1.084   0.245   3.133
  392SOL     OW 1310   0.949   2.809   2.594
  392SOL    HW1 1311   0.994   2.890   2.617
  392SOL    HW2 1312   0.880   2.836   2.534
  393SOL     OW 1313   0.570   0.552   3.242
  393SOL    HW1 1314   0.551   0.593   3.327
  393SOL    HW2 1315   0.639   0.607   3.204
  394SOL     OW 1316   1.647   3.016   2.450
  394SOL    HW1 1317   1.708   3.019   2.523
  394SOL    HW2 1318   1.567   2.978   2.486
  395SOL     OW 1319   3.723   2.247   0.763
  395SOL    HW1 1320   3.632   2.267   0.743
  395SOL    HW2 1321   3.729   2.152   0.756
  396SOL     OW 1322   1.082   2.069   2.347
  396SOL    HW1 1323   1.125   2.061   2.261
  396SOL    HW2 1324   0.997   2.110   2.327
  397SOL     OW 1325   2.930   2.583   2.288
  397SOL    HW1 1326   2.923   2.488   2.301
  397SOL    HW2 1327   3.015   2.606   2.326
  398SOL     OW 1328   0.109   1.325   1.334
  398SOL    HW1 1329   0.144   1.413   1.321
  398SOL    HW2 1330   0.030   1.323   1.280
  399SOL     OW 1331   1.074   1.100   2.712
  399SOL    HW1 1332   1.123   1.172   2.751
  399SOL    HW2 1333   1.122   1.021   2.737
  400SOL     OW 1334   3.524   0.039   1.587
  400SOL    HW1 1335   3.580   0.090   1.645
  400SOL    HW2 1336   3.437   0.043   1.628
  401SOL     OW 1337   1.312   1.844   2.735
  401SOL    HW1 1338   1.249   1.871   2.802
  401SOL    HW2 1339   1.370   1.782   2.780
  402SOL     OW 1340   0.646   3.819   3.716
  402SOL    HW1 1341   0.644   3.748   3.652
  402SOL    HW2 1342   0.626   3.777   3.800
  403SOL     OW 1343   2.331   1.120   1.862
  403SOL    HW1 1344   2.420   1.130   1.829
  403SOL    HW2 1345   2.319   1.025   1.872
  404SOL     OW 1346   0.648   2.876   0.720
  404SOL    HW1 1347   0.710   2.822   0.671
  404SOL    HW2 1348   0.671   2.966   0.697
  405SOL     OW 1349   1.536   2.572   3.468
  405SOL    HW1 1350   1.614   2.520   3.453
  405SOL    HW2 1351   1.553   2.655   3.425
  406SOL     OW 1352   3.907   3.391   3.652
  406SOL    HW1 1353   3.928   3.312   3.602
  406SOL    HW2 1354   3.812   3.388   3.663
  407SOL     OW 1355   0.015   0.264   1.790
  407SOL    HW1 1356  -0.041   0.236   1.862
  407SOL    HW2 1357   0.059   0.184   1.761
  408SOL     OW 1358   2.039   3.583   1.294
  408SOL    HW1 1359   1.960   3.548   1.253
  408SOL    HW2 1360   2.074   3.645   1.229
  409SOL     OW 1361   0.916   0.542   2.960
  409SOL    HW1 1362   0.961   0.463   2.931
  409SOL    HW2 1363   0.859   0.566   2.887
  410SOL     OW 1364   2.958   0.083   1.153
  410SOL    HW1 1365   2.974   0.174   1.180
  410SOL    HW2 1366   3.004   0.074   1.070
  411SOL     OW 1367   2.139   0.067   2.092
  411SOL    HW1 1368   2.139   0.161   2.074
  411SOL    HW2 1369   2.151   0.060   2.187
  412SOL     OW 1370   3.118   2.843   2.102
  412SOL    HW1 1371   3.206   2.824   2.069
  412SOL    HW2 1372   3.118   2.807   2.191
  413SOL     OW 1373   2.439   0.530   2.908
  413SOL    HW1 1374   2.378   0.524   2.982
  413SOL    HW2 1375   2.384   0.555   2.834
  414SOL     OW 1376   0.714   3.805   1.735
  414SOL    HW1 1377   0.683   3.876   1.678
  414SOL    HW2 1378   0.701   3.725   1.683
  415SOL     OW 1379   2.037   0.331   0.944
  415SOL    HW1 1380   2.103   0.379   0.994
  415SOL    HW2 1381   1.954   0.359   0.981
  416SOL     OW 1382   0.879   0.723   0.666
  416SOL    HW1 1383   0.865   0.675   0.748
  416SOL    HW2 1384   0.870   0.815   0.690
  417SOL     OW 1385   3.580   0.323   1.422
  417SOL    HW1 1386   3.619   0.391   1.366
  417SOL    HW2 1387   3.652   0.261   1.436
  418SOL     OW 1388   2.131   0.162   0.262
  418SOL    HW1 1389   2.096   0.089   0.314
  418SOL    HW2 1390   2.205   0.125   0.214
  419SOL     OW 1391   3.022   2.321   0.088
  419SOL    HW1 1392   2.944   2.273   0.116
  419SOL    HW2 1393   2.988   2.395   0.038
  420SOL     OW 1394   2.452   1.796   1.790
  420SOL    HW1 1395   2.490   1.800   1.878
  420SOL    HW2 1396   2.465   1.883   1.754
  421SOL     OW 1397   0.901   3.197   3.763
  421SOL    HW1 1398   0.943   3.207   3.677
  421SOL    HW2 1399   0.939   3.266   3.817
  422SOL     OW 1400   2.939   2.474   0.387
  422SOL    HW1 1401   2.866   2.472   0.450
  422SOL    HW2 1402   2.909   2.419   0.315
  423SOL     OW 1403   1.690   2.912   3.432
  423SOL    HW1 1404   1.653   2.996   3.459
  423SOL    HW2 1405   1.781   2.931   3.413
  424SOL     OW 1406   1.122   2.858   2.028
  424SOL    HW1 1407   1.214   2.879   2.013
  424SOL    HW2 1408   1.093   2.817   1.947
  425SOL     OW 1409   0.863   2.254   2.321
  425SOL    HW1 1410   0.824   2.201   2.390
  425SOL    HW2 1411   0.913   2.321   2.368
  426SOL     OW 1412   2.720   3.933   0.868
  426SOL    HW1 1413   2.783   3.937   0.795
  426SOL    HW2 1414   2.772   3.901   0.942
  427SOL     OW 1415   1.293   0.968   0.520
  427SOL    HW1 1416   1.329   0.918   0.593
  427SOL    HW2 1417   1.321   0.920   0.442
  428SOL     OW 1418   1.579   0.359   2.054
  428SOL    HW1 1419   1.673   0.373   2.046
  428SOL    HW2 1420   1.561   0.284   1.996
  429SOL     OW 1421   1.213   2.514   2.430
  429SOL    HW1 1422   1.215   2.538   2.337
  429SOL    HW2 1423   1.300   2.477   2.447
  430SOL     OW 1424   3.105   0.675   3.434
  430SOL    HW1 1425   3.140   0.638   3.353
  430SOL    HW2 1426   3.010   0.665   3.425
  431SOL     OW 1427   3.451   3.059   3.982
  431SOL    HW1 1428   3.436   2.964   3.972
  431SOL    HW2 1429   3.446   3.093   3.893
  432SOL     OW 1430   1.251   2.171   2.099
  432SOL    HW1 1431   1.195   2.153   2.023
  432SOL    HW2 1432   1.206   2.240   2.146
  433SOL     OW 1433   2.306   2.549   0.241
  433SOL    HW1 1434   2.218   2.573   0.270
  433SOL    HW2 1435   2.359   2.555   0.320
  434SOL     OW 1436   0.579   0.879   2.666
  434SOL    HW1 1437   0.653   0.817   2.666
  434SOL    HW2 1438   0.617   0.961   2.635
  435SOL     OW 1439   1.641   3.017   1.210
  435SOL    HW1 1440   1.579   3.037   1.281
  435SOL    HW2 1441   1.706   3.087   1.215
  436SOL     OW 1442   1.148   1.426   0.817
  436SOL    HW1 1443   1.061   1.394   0.839
  436SOL    HW2 1444   1.208   1.369   0.866
  437SOL     OW 1445   0.160   3.165   2.556
  437SOL    HW1 1446   0.066   3.181   2.561
  437SOL    HW2 1447   0.192   3.231   2.493
  438SOL     OW 1448   1.087   2.678   1.820
  438SOL    HW1 1449   1.151   2.674   1.749
  438SOL    HW2 1450   1.081   2.589   1.853
  439SOL     OW 1451   2.774   1.012   1.632
  439SOL    HW1 1452   2.801   0.995   1.722
  439SOL    HW2 1453   2.856   1.021   1.584
  440SOL     OW 1454   3.742   0.930   0.129
  440SOL    HW1 1455   3.800   0.854   0.129
  440SOL    HW2 1456   3.654   0.893   0.142
  441SOL     OW 1457   1.915   2.851   2.786
  441SOL    HW1 1458   1.923   2.811   2.700
  441SOL    HW2 1459   1.869   2.785   2.839
  442SOL     OW 1460   1.839   0.089   2.011
  442SOL    HW1 1461   1.771   0.058   1.952
  442SOL    HW2 1462   1.919   0.045   1.982
  443SOL     OW 1463   1.806   2.590   0.100
  443SOL    HW1 1464   1.854   2.633   0.029
  443SOL    HW2 1465   1.743   2.534   0.055
  444SOL     OW 1466   3.024   1.948   2.396
  444SOL    HW1 1467   3.044   1.998   2.318
  444SOL    HW2 1468   3.108   1.914   2.426
  445SOL     OW 1469   0.499   0.620   1.857
  445SOL    HW1 1470   0.450   0.548   1.896
  445SOL    HW2 1471   0.436   0.662   1.798
  446SOL     OW 1472   0.016   1.365   3.552
  446SOL    HW1 1473   0.050   1.418   3.480
  446SOL    HW2 1474   0.084   1.370   3.619
  447SOL     OW 1475   2.549   1.175   1.741
  447SOL    HW1 1476   2.533   1.241   1.673
  447SOL    HW2 1477   2.605   1.110   1.699
  448SOL     OW 1478   0.327   1.706   1.929
  448SOL    HW1 1479   0.349   1.672   1.842
  448SOL    HW2 1480   0.396   1.771   1.947
  449SOL     OW 1481   2.302   2.720   3.519
  449SOL    HW1 1482   2.349   2.719   3.602
  449SOL    HW2 1483   2.326   2.637   3.477
  450SOL     OW 1484   0.819   2.893   1.913
  450SOL    HW1 1485   0.755   2.917   1.980
  450SOL    HW2 1486   0.789   2.808   1.881
  451SOL     OW 1487   0.249   2.455   1.972
  451SOL    HW1 1488   0.174   2.513   1.987
  451SOL    HW2 1489   0.320   2.513   1.946
  452SOL     OW 1490   2.275   3.708   2.247
  452SOL    HW1 1491   2.250   3.627   2.203
  452SOL    HW2 1492   2.198   3.732   2.298
  453SOL     OW 1493   1.438   2.814   3.872
  453SOL    HW1 1494   1.492   2.834   3.948
  453SOL    HW2 1495   1.496   2.770   3.811
  454SOL     OW 1496   0.353   0.653   0.905
  454SOL    HW1 1497   0.288   0.626   0.840
  454SOL    HW2 1498   0.343   0.590   0.976
  455SOL     OW 1499   1.911   1.515   3.925
  455SOL    HW1 1500   1.841   1.465   3.967
  455SOL    HW2 1501   1.893   1.606   3.949
  456SOL     OW 1502   1.168   2.465   2.744
  456SOL    HW1 1503   1.084   2.434   2.779
  456SOL    HW2 1504   1.186   2.405   2.671
  457SOL     OW 1505   0.595   2.139   3.523
  457SOL    HW1 1506   0.584   2.057   3.476
  457SOL    HW2 1507   0.525   2.139   3.588
  458SOL     OW 1508   1.866   2.005   1.420
  458SOL    HW1 1509   1.864   1.997   1.325
  458SOL    HW2 1510   1.818   1.929   1.452
  459SOL     OW 1511   2.756   1.196   3.703
  459SOL    HW1 1512   2.820   1.125   3.693
  459SOL    HW2 1513   2.805   1.267   3.743
  460SOL     OW 1514   0.896   1.349   3.093
  460SOL    HW1 1515   0.853   1.408   3.154
  460SOL    HW2 1516   0.986   1.341   3.126
  461SOL     OW 1517   0.115   1.438   3.926
  461SOL    HW1 1518   0.072   1.362   3.887
  461SOL    HW2 1519   0.209   1.420   3.915
  462SOL     OW 1520   0.612   3.798   0.945
  462SOL    HW1 1521   0.688   3.810   1.002
  462SOL    HW2 1522   0.626   3.859   0.872
  463SOL     OW 1523   0.747   3.833   0.451
  463SOL    HW1 1524   0.754   3.822   0.546
  463SOL    HW2 1525   0.655   3.853   0.435
  464SOL     OW 1526   2.541   3.266   1.541
  464SOL    HW1 1527   2.453   3.247   1.572
  464SOL    HW2 1528   2.529   3.305   1.455
  465SOL     OW 1529   1.035   2.275   0.341
  465SOL    HW1 1530   1.004   2.242   0.257
  465SOL    HW2 1531   1.125   2.244   0.347
  466SOL     OW 1532   2.894   2.784   1.203
  466SOL    HW1 1533   2.919   2.715   1.142
  466SOL    HW2 1534   2.802   2.767   1.223
  467SOL     OW 1535   2.235   3.574   0.252
  467SOL    HW1 1536   2.318   3.529   0.266
  467SOL    HW2 1537   2.244   3.617   0.168
  468SOL     OW 1538   3.619   1.281   0.204
  468SOL    HW1 1539   3.584   1.212   0.260
  468SOL    HW2 1540   3.640   1.353   0.264
  469SOL     OW 1541   2.459   0.978   2.138
  469SOL    HW1 1542   2.442   0.983   2.233
  469SOL    HW2 1543   2.459   1.070   2.110
  470SOL     OW 1544   2.051   1.798   0.133
  470SOL    HW1 1545   1.992   1.793   0.057
  470SOL    HW2 1546   2.139   1.802   0.095
  471SOL     OW 1547   3.791   2.001   3.308
  471SOL    HW1 1548   3.732   1.964   3.242
  471SOL    HW2 1549   3.878   1.986   3.272
  472SOL     OW 1550   3.961   0.339   1.471
  472SOL    HW1 1551   3.933   0.253   1.440
  472SOL    HW2 1552   3.987   0.324   1.562
  473SOL     OW 1553   0.422   1.541   2.745
  473SOL    HW1 1554   0.424   1.585   2.660
  473SOL    HW2 1555   0.396   1.609   2.806
  474SOL     OW 1556   1.129   0.639   1.549
  474SOL    HW1 1557   1.121   0.636   1.645
  474SOL    HW2 1558   1.222   0.627   1.532
  475SOL     OW 1559   0.413   3.355   1.155
  475SOL    HW1 1560   0.495   3.395   1.127
  475SOL    HW2 1561   0.346   3.422   1.138
  476SOL     OW 1562   1.887   3.542   1.037
  476SOL    HW1 1563   1.797   3.517   1.055
  476SOL    HW2 1564   1.924   3.466   0.992
  477SOL     OW 1565   3.250   0.080   1.289
  477SOL    HW1 1566   3.280   0.026   1.216
  477SOL    HW2 1567   3.321   0.077   1.352
  478SOL     OW 1568   1.202   0.883   2.777
  478SOL    HW1 1569   1.294   0.881   2.754
  478SOL    HW2 1570   1.179   0.791   2.795
  479SOL     OW 1571   0.128   1.144   2.822
  479SOL    HW1 1572   0.207   1.150   2.876
  479SOL    HW2 1573   0.111   1.235   2.795
  480SOL     OW 1574   0.135   3.190   0.573
  480SOL    HW1 1575   0.158   3.276   0.538
  480SOL    HW2 1576   0.144   3.131   0.498
  481SOL     OW 1577   1.016   3.279   1.883
  481SOL    HW1 1578   1.017   3.210   1.817
  481SOL    HW2 1579   0.975   3.239   1.959
  482SOL     OW 1580   3.873   3.284   3.943
  482SOL    HW1 1581   3.891   3.224   3.870
  482SOL    HW2 1582   3.897   3.371   3.909
  483SOL     OW 1583   0.851   0.807   2.645
  483SOL    HW1 1584   0.866   0.737   2.582
  483SOL    HW2 1585   0.833   0.762   2.727
  484SOL     OW 1586   2.860   1.850   1.040
  484SOL    HW1 1587   2.800   1.776   1.023
  484SOL    HW2 1588   2.863   1.856   1.135
  485SOL     OW 1589   1.495   2.606   1.947
  485SOL    HW1 1590   1.513   2.594   1.854
  485SOL    HW2 1591   1.574   2.575   1.991
  486SOL     OW 1592   2.416   3.484   2.592
  486SOL    HW1 1593   2.420   3.452   2.682
  486SOL    HW2 1594   2.419   3.580   2.600
  487SOL     OW 1595   0.508   2.097   0.395
  487SOL    HW1 1596   0.415   2.076   0.381
  487SOL    HW2 1597   0.515   2.111   0.489
  488SOL     OW 1598   0.285   1.792   2.870
  488SOL    HW1 1599   0.244   1.876   2.893
  488SOL    HW2 1600   0.211   1.737   2.844
  489SOL     OW 1601   0.373   1.862   1.400
  489SOL    HW1 1602   0.400   1.873   1.309
  489SOL    HW2 1603   0.295   1.916   1.409
  490SOL     OW 1604   0.650   2.427   1.581
  490SOL    HW1 1605   0.703   2.348   1.576
  490SOL    HW2 1606   0.563   2.396   1.604
  491SOL     OW 1607   0.387   2.224   2.291
  491SOL    HW1 1608   0.418   2.312   2.309
  491SOL    HW2 1609   0.458   2.182   2.244
  492SOL     OW 1610   2.130   1.488   2.662
  492SOL    HW1 1611   2.055   1.518   2.714
  492SOL    HW2 1612   2.182   1.436   2.724
  493SOL     OW 1613   1.538   0.559   2.287
  493SOL    HW1 1614   1.580   0.527   2.207
  493SOL    HW2 1615   1.465   0.498   2.301
  494SOL     OW 1616   1.288   2.915   1.511
  494SOL    HW1 1617   1.268   2.822   1.522
  494SOL    HW2 1618   1.340   2.937   1.589
  495SOL     OW 1619   0.351   2.657   1.814
  495SOL    HW1 1620   0.324   2.720   1.880
  495SOL    HW2 1621   0.445   2.672   1.803
  496SOL     OW 1622   1.908   0.444   3.706
  496SOL    HW1 1623   1.906   0.357   3.746
  496SOL    HW2 1624   1.821   0.455   3.668
  497SOL     OW 1625   2.986   2.380   3.195
  497SOL    HW1 1626   3.068   2.370   3.147
  497SOL    HW2 1627   3.010   2.428   3.274
  498SOL     OW 1628   0.968   1.710   1.586
  498SOL    HW1 1629   1.014   1.633   1.618
  498SOL    HW2 1630   0.900   1.676   1.528
  499SOL     OW 1631   3.162   2.193   0.339
  499SOL    HW1 1632   3.227   2.257   0.367
  499SOL    HW2 1633   3.137   2.221   0.251
  500SOL     OW 1634   2.411   2.851   1.715
  500SOL    HW1 1635   2.483   2.806   1.670
  500SOL    HW2 1636   2.338   2.789   1.713
  501SOL     OW 1637   3.224   0.099   3.658
  501SOL    HW1 1638   3.269   0.050   3.727
  501SOL    HW2 1639   3.272   0.182   3.653
  502SOL     OW 1640   3.327   1.150   2.841
  502SOL    HW1 1641   3.364   1.225   2.887
  502SOL    HW2 1642   3.348   1.164   2.749
  503SOL     OW 1643   0.499   0.239   1.263
  503SOL    HW1 1644   0.446   0.179   1.314
  503SOL    HW2 1645   0.589   0.210   1.277
  504SOL     OW 1646  -0.000   3.133   1.101
  504SOL    HW1 1647   0.095   3.143   1.106
  504SOL    HW2 1648  -0.034   3.221   1.117
  505SOL     OW 1649   0.325   1.898   2.407
  505SOL    HW1 1650   0.280   1.915   2.324
  505SOL    HW2 1651   0.257   1.867   2.466
  506SOL     OW 1652   1.083   3.438   0.245
  506SOL    HW1 1653   1.113   3.514   0.195
  506SOL    HW2 1654   1.008   3.470   0.294
  507SOL     OW 1655   1.002   2.937   3.439
  507SOL    HW1 1656   0.929   2.876   3.455
  507SOL    HW2 1657   1.046   2.945   3.524
  508SOL     OW 1658   2.237   1.179   2.222
  508SOL    HW1 1659   2.296   1.167   2.296
  508SOL    HW2 1660   2.236   1.273   2.207
  509SOL     OW 1661   3.847   1.560   2.030
  509SOL    HW1 1662   3.906   1.619   2.077
  509SOL    HW2 1663   3.842   1.597   1.942
  510SOL     OW 1664   0.546   3.448   2.976
  510SOL    HW1 1665   0.514   3.357   2.977
  510SOL    HW2 1666   0.601   3.453   2.898
  511SOL     OW 1667   1.933   0.672   2.596
  511SOL    HW1 1668   1.903   0.697   2.683
  511SOL    HW2 1669   1.937   0.754   2.547
  512SOL     OW 1670   3.511   3.009   0.726
  512SOL    HW1 1671   3.422   3.043   0.732
  512SOL    HW2 1672   3.542   3.006   0.817
  513SOL     OW 1673   0.352   3.166   3.725
  513SOL    HW1 1674   0.324   3.179   3.635
  513SOL    HW2 1675   0.436   3.213   3.730
  514SOL     OW 1676   0.609   3.874   1.234
  514SOL    HW1 1677   0.647   3.946   1.184
  514SOL    HW2 1678   0.684   3.821   1.261
  515SOL     OW 1679   2.069   1.022  -0.011
  515SOL    HW1 1680   2.063   1.091   0.055
  515SOL    HW2 1681   2.151   0.977   0.009
  516SOL     OW 1682   3.965   2.083   1.393
  516SOL    HW1 1683   3.992   2.104   1.482
  516SOL    HW2 1684   3.880   2.127   1.383
  517SOL     OW 1685   2.596   2.170   1.926
  517SOL    HW1 1686   2.573   2.207   1.841
  517SOL    HW2 1687   2.658   2.100   1.906
  518SOL     OW 1688   0.935   2.722   2.890
  518SOL    HW1 1689   0.845   2.695   2.909
  518SOL    HW2 1690   0.941   2.720   2.794
  519SOL     OW 1691   2.806   0.054   2.513
  519SOL    HW1 1692   2.833  -0.018   2.570
  519SOL    HW2 1693   2.737   0.099   2.563
  520SOL     OW 1694   0.749   1.241   1.146
  520SOL    HW1 1695   0.728   1.161   1.098
  520SOL    HW2 1696   0.744   1.216   1.238
  521SOL     OW 1697   1.804   2.001   2.878
  521SOL    HW1 1698   1.807   1.946   2.956
  521SOL    HW2 1699   1.894   2.029   2.864
  522SOL     OW 1700   2.800   1.416   1.214
  522SOL    HW1 1701   2.794   1.327   1.247
  522SOL    HW2 1702   2.733   1.422   1.147
  523SOL     OW 1703   0.551   3.572   1.272
  523SOL    HW1 1704   0.534   3.478   1.269
  523SOL    HW2 1705   0.550   3.600   1.180
  524SOL     OW 1706   0.264   3.266   3.029
  524SOL    HW1 1707   0.187   3.267   2.971
  524SOL    HW2 1708   0.326   3.208   2.986
  525SOL     OW 1709   2.873   3.810   1.443
  525SOL    HW1 1710   2.935   3.751   1.486
  525SOL    HW2 1711   2.824   3.850   1.515
  526SOL     OW 1712   2.111   3.393   3.426
  526SOL    HW1 1713   2.135   3.440   3.346
  526SOL    HW2 1714   2.034   3.439   3.459
  527SOL     OW 1715   1.111   3.021   3.209
  527SOL    HW1 1716   1.105   2.929   3.182
  527SOL    HW2 1717   1.083   3.021   3.301
  528SOL     OW 1718   0.760   3.117   0.660
  528SOL    HW1 1719   0.835   3.058   0.667
  528SOL    HW2 1720   0.793   3.201   0.691
  529SOL     OW 1721   2.814   1.512   0.772
  529SOL    HW1 1722   2.861   1.570   0.711
  529SOL    HW2 1723   2.766   1.571   0.829
  530SOL     OW 1724   1.188   0.823   2.463
  530SOL    HW1 1725   1.107   0.795   2.506
  530SOL    HW2 1726   1.209   0.907   2.503
  531SOL     OW 1727   0.006   3.072   3.763
  531SOL    HW1 1728  -0.022   2.982   3.742
  531SOL    HW2 1729   0.057   3.099   3.687
  532SOL     OW 1730   2.853   2.858   3.301
  532SOL    HW1 1731   2.915   2.793   3.334
  532SOL    HW2 1732   2.903   2.910   3.239
  533SOL     OW 1733   3.347   2.088   1.687
  533SOL    HW1 1734   3.297   2.056   1.612
  533SOL    HW2 1735   3.284   2.141   1.737
  534SOL     OW 1736   3.783   1.082   1.698
  534SOL    HW1 1737   3.782   0.992   1.731
  534SOL    HW2 1738   3.874   1.097   1.671
  535SOL     OW 1739   1.316   3.504   3.560
  535SOL    HW1 1740   1.324   3.435   3.494
  535SOL    HW2 1741   1.255   3.469   3.624
  536SOL     OW 1742   3.086   3.847   0.435
  536SOL    HW1 1743   3.000   3.874   0.402
  536SOL    HW2 1744   3.105   3.766   0.388
  537SOL     OW 1745   1.244   2.403   0.575
  537SOL    HW1 1746   1.295   2.436   0.501
  537SOL    HW2 1747   1.288   2.322   0.601
  538SOL     OW 1748   3.891   2.479   2.244
  538SOL    HW1 1749   3.828   2.427   2.193
  538SOL    HW2 1750   3.922   2.545   2.183
  539SOL     OW 1751   2.015   1.268   3.580
  539SOL    HW1 1752   2.103   1.241   3.552
  539SOL    HW2 1753   1.956   1.225   3.519
  540SOL     OW 1754   1.964   3.463   0.650
  540SOL    HW1 1755   1.973   3.558   0.648
  540SOL    HW2 1756   2.053   3.430   0.635
  541SOL     OW 1757   0.583   0.675   0.598
  541SOL    HW1 1758   0.488   0.689   0.600
  541SOL    HW2 1759   0.605   0.672   0.504
  542SOL     OW 1760   1.995   0.567   1.427
  542SOL    HW1 1761   1.951   0.590   1.508
  542SOL    HW2 1762   2.053   0.494   1.451
  543SOL     OW 1763   2.072   3.728   2.425
  543SOL    HW1 1764   2.020   3.808   2.434
  543SOL    HW2 1765   2.007   3.658   2.418
  544SOL     OW 1766   3.395   2.551   1.376
  544SOL    HW1 1767   3.350   2.549   1.291
  544SOL    HW2 1768   3.333   2.593   1.435
  545SOL     OW 1769   2.070   0.862   1.790
  545SOL    HW1 1770   2.144   0.880   1.732
  545SOL    HW2 1771   2.097   0.894   1.876
  546SOL     OW 1772   2.838   0.277   0.378
  546SOL    HW1 1773   2.851   0.182   0.389
  546SOL    HW2 1774   2.788   0.303   0.455
  547SOL     OW 1775   0.105   3.795   0.673
  547SOL    HW1 1776   0.017   3.774   0.643
  547SOL    HW2 1777   0.144   3.845   0.601
  548SOL     OW 1778   3.894   0.976   0.513
  548SOL    HW1 1779   3.950   0.899   0.507
  548SOL    HW2 1780   3.815   0.952   0.466
  549SOL     OW 1781   1.165   1.630   3.095
  549SOL    HW1 1782   1.157   1.542   3.133
  549SOL    HW2 1783   1.107   1.685   3.148
  550SOL     OW 1784   1.895   3.467   3.194
  550SOL    HW1 1785   1.838   3.537   3.163
  550SOL    HW2 1786   1.983   3.504   3.189
  551SOL     OW 1787   3.529   3.587   0.328
  551SOL    HW1 1788   3.506   3.528   0.256
  551SOL    HW2 1789   3.564   3.665   0.285
  552SOL     OW 1790   3.934   2.901   0.943
  552SOL    HW1 1791   3.899   2.952   1.016
  552SOL    HW2 1792   3.903   2.945   0.865
  553SOL     OW 1793   1.499   2.890   3.166
  553SOL    HW1 1794   1.538   2.973   3.139
  553SOL    HW2 1795   1.475   2.903   3.258
  554SOL     OW 1796   0.709   0.932   1.104
  554SOL    HW1 1797   0.655   0.918   1.182
  554SOL    HW2 1798   0.799   0.938   1.138
  555SOL     OW 1799   1.804   3.121   1.560
  555SOL    HW1 1800   1.774   3.208   1.587
  555SOL    HW2 1801   1.860   3.092   1.632
  556SOL     OW 1802   3.764   1.807   0.990
  556SOL    HW1 1803   3.772   1.849   1.076
  556SOL    HW2 1804   3.669   1.804   0.974
  557SOL     OW 1805   2.122   3.604   3.187
  557SOL    HW1 1806   2.193   3.587   3.125
  557SOL    HW2 1807   2.114   3.699   3.189
  558SOL     OW 1808   2.643   2.186   2.609
  558SOL    HW1 1809   2.586   2.112   2.587
  558SOL    HW2 1810   2.597   2.231   2.680
  559SOL     OW 1811   0.761   0.106   2.119
  559SOL    HW1 1812   0.705   0.165   2.170
  559SOL    HW2 1813   0.839   0.094   2.174
  560SOL     OW 1814   1.585   1.818   1.021
  560SOL    HW1 1815   1.608   1.849   1.109
  560SOL    HW2 1816   1.610   1.726   1.020
  561SOL     OW 1817   2.960   1.857   3.772
  561SOL    HW1 1818   2.898   1.888   3.838
  561SOL    HW2 1819   3.017   1.932   3.756
  562SOL     OW 1820   0.720   0.623   2.789
  562SOL    HW1 1821   0.645   0.615   2.848
  562SOL    HW2 1822   0.697   0.568   2.714
  563SOL     OW 1823   0.138   3.774   1.099
  563SOL    HW1 1824   0.203   3.795   1.166
  563SOL    HW2 1825   0.054   3.777   1.145
  564SOL     OW 1826   1.048   3.804   3.325
  564SOL    HW1 1827   1.123   3.806   3.265
  564SOL    HW2 1828   0.978   3.849   3.278
  565SOL     OW 1829   0.113   1.755   1.635
  565SOL    HW1 1830   0.067   1.713   1.562
  565SOL    HW2 1831   0.196   1.707   1.642
  566SOL     OW 1832   0.985   3.880   1.729
  566SOL    HW1 1833   0.893   3.903   1.713
  566SOL    HW2 1834   1.020   3.954   1.778
  567SOL     OW 1835   3.555   1.985   2.396
  567SOL    HW1 1836   3.566   2.080   2.403
  567SOL    HW2 1837   3.473   1.973   2.348
  568SOL     OW 1838   3.136   2.679   3.133
  568SOL    HW1 1839   3.066   2.701   3.071
  568SOL    HW2 1840   3.216   2.683   3.082
  569SOL     OW 1841   3.083   1.994   1.846
  569SOL    HW1 1842   3.093   2.089   1.842
  569SOL    HW2 1843   3.040   1.971   1.764
  570SOL     OW 1844   1.410   0.686   1.398
  570SOL    HW1 1845   1.371   0.631   1.330
  570SOL    HW2 1846   1.484   0.634   1.430
  571SOL     OW 1847   2.514   1.317   3.195
  571SOL    HW1 1848   2.585   1.285   3.139
  571SOL    HW2 1849   2.522   1.265   3.276
  572SOL     OW 1850   0.820   3.054   3.278
  572SOL    HW1 1851   0.911   3.026   3.286
  572SOL    HW2 1852   0.769   2.975   3.298
  573SOL     OW 1853   3.000   0.108   1.444
  573SOL    HW1 1854   3.092   0.120   1.421
  573SOL    HW2 1855   2.967   0.047   1.378
  574SOL     OW 1856   0.350   3.773   0.898
  574SOL    HW1 1857   0.365   3.791   0.990
  574SOL    HW2 1858   0.429   3.805   0.854
  575SOL     OW 1859   3.037   2.186   0.824
  575SOL    HW1 1860   3.098   2.260   0.817
  575SOL    HW2 1861   2.960   2.223   0.867
  576SOL     OW 1862   2.812   3.913   0.566
  576SOL    HW1 1863   2.795   4.003   0.596
  576SOL    HW2 1864   2.754   3.903   0.491
  577SOL     OW 1865   2.600   3.913   0.342
  577SOL    HW1 1866   2.560   3.969   0.276
  577SOL    HW2 1867   2.526   3.870   0.384
  578SOL     OW 1868   0.386   0.120   3.763
  578SOL    HW1 1869   0.323   0.121   3.690
  578SOL    HW2 1870   0.431   0.204   3.757
  579SOL     OW 1871   0.954   1.662   2.899
  579SOL    HW1 1872   0.984   1.608   2.826
  579SOL    HW2 1873   1.022   1.653   2.965
  580SOL     OW 1874   1.159   0.627   1.816
  580SOL    HW1 1875   1.251   0.607   1.831
  580SOL    HW2 1876   1.142   0.705   1.870
  581SOL     OW 1877   2.226   0.376   1.144
  581SOL    HW1 1878   2.244   0.467   1.163
  581SOL    HW2 1879   2.288   0.327   1.198
  582SOL     OW 1880   1.335   0.128   3.163
  582SOL    HW1 1881   1.301   0.155   3.248
  582SOL    HW2 1882   1.421   0.171   3.157
  583SOL     OW 1883   3.768   0.556   0.911
  583SOL    HW1 1884   3.698   0.491   0.905
  583SOL    HW2 1885   3.722   0.640   0.918
  584SOL     OW 1886   3.135   2.925   1.061
  584SOL    HW1 1887   3.118   2.890   0.974
  584SOL    HW2 1888   3.106   3.016   1.057
  585SOL     OW 1889   1.860   3.238   0.511
  585SOL    HW1 1890   1.897   3.309   0.564
  585SOL    HW2 1891   1.917   3.232   0.435
  586SOL     OW 1892   2.713   1.280   0.241
  586SOL    HW1 1893   2.795   1.235   0.265
  586SOL    HW2 1894   2.741   1.354   0.188
  587SOL     OW 1895   1.481   1.368   0.926
  587SOL    HW1 1896   1.480   1.377   1.021
  587SOL    HW2 1897   1.557   1.313   0.907
  588SOL     OW 1898   2.241   0.749   2.354
  588SOL    HW1 1899   2.272   0.838   2.366
  588SOL    HW2 1900   2.152   0.749   2.389
  589SOL     OW 1901   3.546   2.114   0.127
  589SOL    HW1 1902   3.466   2.165   0.112
  589SOL    HW2 1903   3.558   2.116   0.222
  590SOL     OW 1904   1.855   3.522   1.622
  590SOL    HW1 1905   1.818   3.598   1.666
  590SOL    HW2 1906   1.840   3.450   1.682
  591SOL     OW 1907   3.555   1.543   3.179
  591SOL    HW1 1908   3.533   1.637   3.184
  591SOL    HW2 1909   3.554   1.514   3.270
  592SOL     OW 1910   2.298   3.251   3.081
  592SOL    HW1 1911   2.378   3.252   3.028
  592SOL    HW2 1912   2.241   3.188   3.037
  593SOL     OW 1913   2.325   0.519   2.511
  593SOL    HW1 1914   2.295   0.585   2.448
  593SOL    HW2 1915   2.289   0.549   2.595
  594SOL     OW 1916   3.597   1.568   2.720
  594SOL    HW1 1917   3.610   1.498   2.655
  594SOL    HW2 1918   3.640   1.535   2.799
  595SOL     OW 1919   2.212   1.543   0.527
  595SOL    HW1 1920   2.248   1.557   0.615
  595SOL    HW2 1921   2.167   1.459   0.533
  596SOL     OW 1922   3.103   0.303   1.132
  596SOL    HW1 1923   3.154   0.231   1.169
  596SOL    HW2 1924   3.162   0.346   1.071
  597SOL     OW 1925   3.426   0.665   3.303
  597SOL    HW1 1926   3.373   0.709   3.237
  597SOL    HW2 1927   3.455   0.735   3.361
  598SOL     OW 1928   3.089   3.734   1.301
  598SOL    HW1 1929   3.093   3.702   1.391
  598SOL    HW2 1930   3.020   3.801   1.303
  599SOL     OW 1931   3.957   2.761   3.500
  599SOL    HW1 1932   3.952   2.849   3.463
  599SOL    HW2 1933   3.869   2.725   3.487
  600SOL     OW 1934   2.579   1.439   3.848
  600SOL    HW1 1935   2.566   1.434   3.754
  600SOL    HW2 1936   2.532   1.364   3.883
  601SOL     OW 1937   2.038   2.104   1.616
  601SOL    HW1 1938   1.977   2.067   1.552
  601SOL    HW2 1939   2.021   2.198   1.614
  602SOL     OW 1940   2.813   1.887   0.531
  602SOL    HW1 1941   2.842   1.961   0.477
  602SOL    HW2 1942   2.816   1.920   0.620
  603SOL     OW 1943   2.264   0.668   0.581
  603SOL    HW1 1944   2.227   0.620   0.655
  603SOL    HW2 1945   2.197   0.732   0.557
  604SOL     OW 1946   1.698   3.507   1.390
  604SOL    HW1 1947   1.691   3.599   1.363
  604SOL    HW2 1948   1.761   3.508   1.462
  605SOL     OW 1949   3.921   1.226   2.585
  605SOL    HW1 1950   3.968   1.299   2.545
  605SOL    HW2 1951   3.955   1.221   2.674
  606SOL     OW 1952   1.482   1.701   3.128
  606SOL    HW1 1953   1.497   1.674   3.218
  606SOL    HW2 1954   1.540   1.646   3.076
  607SOL     OW 1955   2.483   2.403   2.761
  607SOL    HW1 1956   2.445   2.421   2.675
  607SOL    HW2 1957   2.532   2.482   2.783
  608SOL     OW 1958   2.548   2.804   2.540
  608SOL    HW1 1959   2.629   2.757   2.561
  608SOL    HW2 1960   2.572   2.897   2.543
  609SOL     OW 1961   3.583   2.150   0.388
  609SOL    HW1 1962   3.640   2.194   0.451
  609SOL    HW2 1963   3.551   2.073   0.435
  610SOL     OW 1964   1.690   0.295   2.482
  610SOL    HW1 1965   1.605   0.264   2.449
  610SOL    HW2 1966   1.753   0.261   2.418
  611SOL     OW 1967   2.311   2.752   3.090
  611SOL    HW1 1968   2.358   2.813   3.032
  611SOL    HW2 1969   2.256   2.701   3.031
  612SOL     OW 1970   0.436   2.163   1.324
  612SOL    HW1 1971   0.488   2.090   1.359
  612SOL    HW2 1972   0.445   2.155   1.229
  613SOL     OW 1973   1.932   0.713   2.085
  613SOL    HW1 1974   1.894   0.693   2.170
  613SOL    HW2 1975   1.988   0.638   2.066
  614SOL     OW 1976   3.667   3.849   0.894
  614SOL    HW1 1977   3.622   3.865   0.977
  614SOL    HW2 1978   3.597   3.846   0.829
  615SOL     OW 1979   3.237   1.867   3.223
  615SOL    HW1 1980   3.258   1.960   3.216
  615SOL    HW2 1981   3.153   1.864   3.269
  616SOL     OW 1982   2.061   1.000   0.503
  616SOL    HW1 1983   2.030   0.917   0.540
  616SOL    HW2 1984   1.995   1.064   0.528
  617SOL     OW 1985   2.885   0.557   1.113
  617SOL    HW1 1986   2.932   0.480   1.144
  617SOL    HW2 1987   2.941   0.631   1.139
  618SOL     OW 1988   1.968   0.480   0.732
  618SOL    HW1 1989   1.911   0.531   0.789
  618SOL    HW2 1990   2.005   0.413   0.788
  619SOL     OW 1991   0.835   0.366   0.589
  619SOL    HW1 1992   0.803   0.413   0.666
  619SOL    HW2 1993   0.895   0.427   0.547
  620SOL     OW 1994   3.142   1.936   0.251
  620SOL    HW1 1995   3.169   2.012   0.303
  620SOL    HW2 1996   3.066   1.966   0.202
  621SOL     OW 1997   2.351   2.247   1.308
  621SOL    HW1 1998   2.307   2.162   1.313
  621SOL    HW2 1999   2.440   2.226   1.278
  622SOL     OW 2000   2.143   1.383   3.255
  622SOL    HW1 2001   2.181   1.297   3.242
  622SOL    HW2 2002   2.218   1.441   3.270
  623SOL     OW 2003   0.112   1.515   0.488
  623SOL    HW1 2004   0.073   1.555   0.410
  623SOL    HW2 2005   0.161   1.440   0.454
  624SOL     OW 2006   0.684   2.662   3.042
  624SOL    HW1 2007   0.610   2.611   3.008
  624SOL    HW2 2008   0.703   2.623   3.127
  625SOL     OW 2009   1.529   3.815   3.323
  625SOL    HW1 2010   1.559   3.856   3.404
  625SOL    HW2 2011   1.570   3.867   3.253
  626SOL     OW 2012   0.237   1.159   1.054
  626SOL    HW1 2013   0.251   1.239   1.004
  626SOL    HW2 2014   0.143   1.144   1.048
  627SOL     OW 2015   1.902   2.080   0.177
  627SOL    HW1 2016   1.926   1.988   0.190
  627SOL    HW2 2017   1.814   2.076   0.139
  628SOL     OW 2018   0.470   0.365   0.323
  628SOL    HW1 2019   0.523   0.420   0.266
  628SOL    HW2 2020   0.533   0.308   0.367
  629SOL     OW 2021   0.080   0.114   2.265
  629SOL    HW1 2022   0.106   0.044   2.325
  629SOL    HW2 2023   0.029   0.070   2.198
  630SOL     OW 2024   3.057   3.716   3.916
  630SOL    HW1 2025   3.121   3.672   3.860
  630SOL    HW2 2026   3.005   3.769   3.856
  631SOL     OW 2027   1.344   1.496   2.133
  631SOL    HW1 2028   1.438   1.498   2.114
  631SOL    HW2 2029   1.304   1.462   2.053
  632SOL     OW 2030   2.071   2.404   0.792
  632SOL    HW1 2031   2.146   2.462   0.780
  632SOL    HW2 2032   2.013   2.452   0.852
  633SOL     OW 2033   0.071   2.914   2.313
  633SOL    HW1 2034  -0.002   2.970   2.339
  633SOL    HW2 2035   0.072   2.844   2.378
  634SOL     OW 2036   3.542   0.296   0.356
  634SOL    HW1 2037   3.480   0.274   0.426
  634SOL    HW2 2038   3.488   0.299   0.277
  635SOL     OW 2039   0.629   1.822   3.305
  635SOL    HW1 2040   0.664   1.760   3.369
  635SOL    HW2 2041   0.551   1.858   3.346
  636SOL     OW 2042   3.845   2.797   1.841
  636SOL    HW1 2043   3.914   2.770   1.781
  636SOL    HW2 2044   3.841   2.893   1.832
  637SOL     OW 2045   3.282   2.782   1.501
  637SOL    HW1 2046   3.207   2.787   1.560
  637SOL    HW2 2047   3.254   2.828   1.422
  638SOL     OW 2048   2.683   0.602   0.935
  638SOL    HW1 2049   2.755   0.604   0.997
  638SOL    HW2 2050   2.655   0.511   0.932
  639SOL     OW 2051   1.985   0.783   0.932
  639SOL    HW1 2052   1.976   0.730   1.011
  639SOL    HW2 2053   2.008   0.870   0.963
  640SOL     OW 2054   0.144   3.466   0.254
  640SOL    HW1 2055   0.105   3.387   0.292
  640SOL    HW2 2056   0.225   3.478   0.303
  641SOL     OW 2057   0.616   0.071   3.545
  641SOL    HW1 2058   0.602   0.014   3.470
  641SOL    HW2 2059   0.634   0.011   3.618
  642SOL     OW 2060   0.443   1.312   0.591
  642SOL    HW1 2061   0.367   1.292   0.646
  642SOL    HW2 2062   0.405   1.335   0.506
  643SOL     OW 2063   1.778   1.221   1.616
  643SOL    HW1 2064   1.801   1.311   1.591
  643SOL    HW2 2065   1.683   1.220   1.615
  644SOL     OW 2066   0.142   1.096   3.742
  644SOL    HW1 2067   0.050   1.097   3.715
  644SOL    HW2 2068   0.172   1.185   3.724
  645SOL     OW 2069   3.565   2.204   2.922
  645SOL    HW1 2070   3.596   2.201   3.012
  645SOL    HW2 2071   3.473   2.177   2.927
  646SOL     OW 2072   3.963   1.866   3.122
  646SOL    HW1 2073   3.892   1.825   3.073
  646SOL    HW2 2074   3.998   1.933   3.062
  647SOL     OW 2075   0.812   2.491   1.339
  647SOL    HW1 2076   0.803   2.408   1.387
  647SOL    HW2 2077   0.733   2.540   1.363
  648SOL     OW 2078   0.497   0.899   0.921
  648SOL    HW1 2079   0.592   0.896   0.937
  648SOL    HW2 2080   0.475   0.812   0.891
  649SOL     OW 2081   1.235   3.898   2.192
  649SOL    HW1 2082   1.273   3.810   2.185
  649SOL    HW2 2083   1.310   3.957   2.190
  650SOL     OW 2084   0.022   0.371   2.850
  650SOL    HW1 2085   0.112   0.365   2.817
  650SOL    HW2 2086   0.026   0.330   2.936
  651SOL     OW 2087   1.988   2.213   3.173
  651SOL    HW1 2088   2.001   2.262   3.254
  651SOL    HW2 2089   2.067   2.229   3.122
  652SOL     OW 2090   3.359   0.355   1.591
  652SOL    HW1 2091   3.369   0.450   1.596
  652SOL    HW2 2092   3.421   0.327   1.524
  653SOL     OW 2093   1.813   3.913   0.527
  653SOL    HW1 2094   1.869   3.845   0.565
  653SOL    HW2 2095   1.839   3.916   0.435
  654SOL     OW 2096   3.076   2.696   0.289
  654SOL    HW1 2097   3.044   2.677   0.200
  654SOL    HW2 2098   3.039   2.626   0.343
  655SOL     OW 2099   0.068   2.331   2.822
  655SOL    HW1 2100   0.123   2.299   2.893
  655SOL    HW2 2101   0.122   2.321   2.743
  656SOL     OW 2102   0.584   1.616   0.706
  656SOL    HW1 2103   0.534   1.624   0.625
  656SOL    HW2 2104   0.593   1.521   0.719
  657SOL     OW 2105   1.477   1.424   3.751
  657SOL    HW1 2106   1.387   1.455   3.741
  657SOL    HW2 2107   1.523   1.459   3.675
  658SOL     OW 2108   1.510   1.240   1.530
  658SOL    HW1 2109   1.460   1.321   1.537
  658SOL    HW2 2110   1.546   1.241   1.441
  659SOL     OW 2111   3.228   2.814   0.522
  659SOL    HW1 2112   3.258   2.887   0.467
  659SOL    HW2 2113   3.191   2.752   0.460
  660SOL     OW 2114   3.549   3.004   0.310
  660SOL    HW1 2115   3.614   3.062   0.272
  660SOL    HW2 2116   3.595   2.959   0.381
  661SOL     OW 2117   0.652   0.205   0.463
  661SOL    HW1 2118   0.687   0.118   0.442
  661SOL    HW2 2119   0.727   0.253   0.498
  662SOL     OW 2120   2.215   0.320   2.754
  662SOL    HW1 2121   2.222   0.312   2.659
  662SOL    HW2 2122   2.245   0.236   2.788
  663SOL     OW 2123   3.769   3.184   0.858
  663SOL    HW1 2124   3.695   3.159   0.913
  663SOL    HW2 2125   3.841   3.197   0.919
  664SOL     OW 2126   1.315   1.734   0.988
  664SOL    HW1 2127   1.410   1.736   0.980
  664SOL    HW2 2128   1.299   1.681   1.066
  665SOL     OW 2129   1.507   2.659   2.275
  665SOL    HW1 2130   1.433   2.624   2.225
  665SOL    HW2 2131   1.466   2.700   2.351
  666SOL     OW 2132   0.092   0.512   1.275
  666SOL    HW1 2133   0.036   0.589   1.272
  666SOL    HW2 2134   0.048   0.453   1.337
  667SOL     OW 2135   3.381   1.267   1.538
  667SOL    HW1 2136   3.471   1.235   1.526
  667SOL    HW2 2137   3.378   1.349   1.489
  668SOL     OW 2138   1.714   2.482   2.055
  668SOL    HW1 2139   1.698   2.391   2.028
  668SOL    HW2 2140   1.706   2.481   2.150
  669SOL     OW 2141   3.648   2.415   0.989
  669SOL    HW1 2142   3.642   2.419   0.894
  669SOL    HW2 2143   3.569   2.460   1.020
  670SOL     OW 2144   3.473   1.234   3.586
  670SOL    HW1 2145   3.466   1.198   3.497
  670SOL    HW2 2146   3.383   1.247   3.614
  671SOL     OW 2147   1.444   0.571   3.214
  671SOL    HW1 2148   1.424   0.517   3.291
  671SOL    HW2 2149   1.374   0.551   3.152
  672SOL     OW 2150   3.921   2.738   2.085
  672SOL    HW1 2151   3.873   2.758   2.005
  672SOL    HW2 2152   3.944   2.824   2.121
  673SOL     OW 2153   3.375   2.797   0.966
  673SOL    HW1 2154   3.410   2.878   0.930
  673SOL    HW2 2155   3.285   2.818   0.991
  674SOL     OW 2156   2.716   3.274   0.236
  674SOL    HW1 2157   2.760   3.352   0.201
  674SOL    HW2 2158   2.708   3.290   0.330
  675SOL     OW 2159   0.528   1.906   2.884
  675SOL    HW1 2160   0.447   1.867   2.851
  675SOL    HW2 2161   0.571   1.942   2.806
  676SOL     OW 2162   2.535   3.020   3.711
  676SOL    HW1 2163   2.542   2.994   3.619
  676SOL    HW2 2164   2.553   3.114   3.711
  677SOL     OW 2165   2.865   1.187   3.255
  677SOL    HW1 2166   2.854   1.265   3.310
  677SOL    HW2 2167   2.779   1.171   3.217
  678SOL     OW 2168   0.667   0.696   1.317
  678SOL    HW1 2169   0.646   0.638   1.244
  678SOL    HW2 2170   0.588   0.695   1.371
  679SOL     OW 2171   3.745   3.133   0.159
  679SOL    HW1 2172   3.806   3.197   0.123
  679SOL    HW2 2173   3.732   3.070   0.087
  680SOL     OW 2174   1.498   2.139   2.490
  680SOL    HW1 2175   1.559   2.128   2.417
  680SOL    HW2 2176   1.531   2.080   2.558
  681SOL     OW 2177   3.608   0.615   1.999
  681SOL    HW1 2178   3.703   0.600   1.994
  681SOL    HW2 2179   3.581   0.624   1.907
  682SOL     OW 2180   1.226   2.642   3.896
  682SOL    HW1 2181   1.293   2.709   3.887
  682SOL    HW2 2182   1.182   2.641   3.811
  683SOL     OW 2183   3.224   0.659   0.581
  683SOL    HW1 2184   3.157   0.601   0.619
  683SOL    HW2 2185   3.222   0.640   0.487
  684SOL     OW 2186   2.222   2.965   0.487
  684SOL    HW1 2187   2.157   2.905   0.450
  684SOL    HW2 2188   2.220   3.041   0.429
  685SOL     OW 2189   3.379   1.589   1.966
  685SOL    HW1 2190   3.405   1.614   1.877
  685SOL    HW2 2191   3.298   1.637   1.982
  686SOL     OW 2192   2.379   2.318   2.326
  686SOL    HW1 2193   2.342   2.372   2.396
  686SOL    HW2 2194   2.469   2.302   2.353
  687SOL     OW 2195   1.842   3.586   2.325
  687SOL    HW1 2196   1.858   3.492   2.338
  687SOL    HW2 2197   1.838   3.597   2.230
  688SOL     OW 2198   3.630   3.279   3.578
  688SOL    HW1 2199   3.664   3.277   3.489
  688SOL    HW2 2200   3.582   3.197   3.588
  689SOL     OW 2201   2.001   1.758   0.405
  689SOL    HW1 2202   1.997   1.774   0.311
  689SOL    HW2 2203   2.068   1.690   0.415
  690SOL     OW 2204   0.805   1.980   0.156
  690SOL    HW1 2205   0.832   2.055   0.104
  690SOL    HW2 2206   0.860   1.984   0.235
  691SOL     OW 2207   1.180   2.683   3.630
  691SOL    HW1 2208   1.093   2.652   3.607
  691SOL    HW2 2209   1.232   2.603   3.638
  692SOL     OW 2210   2.940   0.661   0.545
  692SOL    HW1 2211   2.879   0.733   0.530
  692SOL    HW2 2212   2.918   0.628   0.632
  693SOL     OW 2213   1.035   3.581   3.676
  693SOL    HW1 2214   1.009   3.580   3.584
  693SOL    HW2 2215   0.959   3.549   3.724
  694SOL     OW 2216   0.447   2.482   0.418
  694SOL    HW1 2217   0.371   2.446   0.372
  694SOL    HW2 2218   0.466   2.417   0.486
  695SOL     OW 2219   1.921   0.289   1.698
  695SOL    HW1 2220   2.010   0.325   1.700
  695SOL    HW2 2221   1.922   0.227   1.625
  696SOL     OW 2222   2.513   2.507   3.777
  696SOL    HW1 2223   2.487   2.594   3.747
  696SOL    HW2 2224   2.435   2.472   3.820
  697SOL     OW 2225   2.431   3.861   2.070
  697SOL    HW1 2226   2.393   3.832   2.153
  697SOL    HW2 2227   2.364   3.916   2.030
  698SOL     OW 2228   0.315   0.661   3.182
  698SOL    HW1 2229   0.293   0.714   3.258
  698SOL    HW2 2230   0.385   0.603   3.211
  699SOL     OW 2231   2.904   0.529   0.208
  699SOL    HW1 2232   2.830   0.572   0.250
  699SOL    HW2 2233   2.906   0.442   0.247
  700SOL     OW 2234   1.441   2.926   1.723
  700SOL    HW1 2235   1.484   2.844   1.699
  700SOL    HW2 2236   1.418   2.916   1.815
  701SOL     OW 2237   0.273   1.647   0.812
  701SOL    HW1 2238   0.260   1.658   0.718
  701SOL    HW2 2239   0.188   1.670   0.851
  702SOL     OW 2240   3.447   2.872   2.505
  702SOL    HW1 2241   3.491   2.945   2.549
  702SOL    HW2 2242   3.448   2.896   2.412
  703SOL     OW 2243   1.520   1.941   3.576
  703SOL    HW1 2244   1.533   1.910   3.487
  703SOL    HW2 2245   1.481   1.867   3.622
  704SOL     OW 2246   0.923   2.318   1.880
  704SOL    HW1 2247   0.990   2.253   1.858
  704SOL    HW2 2248   0.840   2.270   1.876
  705SOL     OW 2249   0.446   3.052   1.683
  705SOL    HW1 2250   0.514   3.077   1.746
  705SOL    HW2 2251   0.469   3.099   1.603
  706SOL     OW 2252   2.341   1.559   1.672
  706SOL    HW1 2253   2.354   1.652   1.692
  706SOL    HW2 2254   2.367   1.551   1.580
  707SOL     OW 2255   0.816   2.026   2.526
  707SOL    HW1 2256   0.738   1.971   2.532
  707SOL    HW2 2257   0.874   1.994   2.595
  708SOL     OW 2258   3.001   0.257   0.641
  708SOL    HW1 2259   2.974   0.348   0.626
  708SOL    HW2 2260   3.079   0.245   0.587
  709SOL     OW 2261   3.414   2.244   2.203
  709SOL    HW1 2262   3.418   2.281   2.115
  709SOL    HW2 2263   3.493   2.190   2.209
  710SOL     OW 2264   0.410   0.045   0.064
  710SOL    HW1 2265   0.498   0.054   0.027
  710SOL    HW2 2266   0.352   0.036  -0.013
  711SOL     OW 2267   1.152   0.453  -0.017
  711SOL    HW1 2268   1.130   0.479   0.073
  711SOL    HW2 2269   1.180   0.361  -0.009
  712SOL     OW 2270   0.350   0.991   2.336
  712SOL    HW1 2271   0.316   1.078   2.314
  712SOL    HW2 2272   0.333   0.982   2.429
  713SOL     OW 2273   1.308   0.530   0.590
  713SOL    HW1 2274   1.290   0.440   0.563
  713SOL    HW2 2275   1.248   0.546   0.662
  714SOL     OW 2276   0.349   1.318   3.087
  714SOL    HW1 2277   0.323   1.248   3.147
  714SOL    HW2 2278   0.411   1.371   3.138
  715SOL     OW 2279   0.619   2.924   3.095
  715SOL    HW1 2280   0.645   2.837   3.066
  715SOL    HW2 2281   0.697   2.961   3.135
  716SOL     OW 2282   3.483   2.710   2.776
  716SOL    HW1 2283   3.443   2.770   2.712
  716SOL    HW2 2284   3.470   2.752   2.860
  717SOL     OW 2285   1.038   3.376   3.937
  717SOL    HW1 2286   1.110   3.434   3.914
  717SOL    HW2 2287   1.027   3.388   4.032
  718SOL     OW 2288   3.511   0.614   0.282
  718SOL    HW1 2289   3.455   0.540   0.259
  718SOL    HW2 2290   3.488   0.682   0.218
  719SOL     OW 2291   2.135   0.589   3.649
  719SOL    HW1 2292   2.053   0.546   3.674
  719SOL    HW2 2293   2.176   0.611   3.732
  720SOL     OW 2294   1.588   1.948   1.551
  720SOL    HW1 2295   1.502   1.925   1.587
  720SOL    HW2 2296   1.607   2.034   1.589
  721SOL     OW 2297   2.195   2.743   2.429
  721SOL    HW1 2298   2.184   2.831   2.392
  721SOL    HW2 2299   2.270   2.706   2.383
  722SOL     OW 2300   3.252   3.105   0.700
  722SOL    HW1 2301   3.264   3.097   0.606
  722SOL    HW2 2302   3.160   3.086   0.715
  723SOL     OW 2303   2.362   2.061   3.122
  723SOL    HW1 2304   2.415   2.133   3.157
  723SOL    HW2 2305   2.290   2.051   3.186
  724SOL     OW 2306   2.533   1.047   1.001
  724SOL    HW1 2307   2.619   1.083   0.981
  724SOL    HW2 2308   2.494   1.029   0.915
  725SOL     OW 2309   3.505   1.863   3.257
  725SOL    HW1 2310   3.493   1.923   3.330
  725SOL    HW2 2311   3.416   1.842   3.228
  726SOL     OW 2312   2.184   2.717   1.764
  726SOL    HW1 2313   2.101   2.694   1.724
  726SOL    HW2 2314   2.161   2.770   1.840
  727SOL     OW 2315   1.141   2.066   1.546
  727SOL    HW1 2316   1.133   1.993   1.608
  727SOL    HW2 2317   1.062   2.060   1.493
  728SOL     OW 2318   0.745   0.540   0.311
  728SOL    HW1 2319   0.774   0.545   0.220
  728SOL    HW2 2320   0.677   0.607   0.319
  729SOL     OW 2321   3.672   3.753   0.193
  729SOL    HW1 2322   3.757   3.797   0.197
  729SOL    HW2 2323   3.669   3.715   0.105
  730SOL     OW 2324   0.721   3.756   2.679
  730SOL    HW1 2325   0.677   3.808   2.747
  730SOL    HW2 2326   0.778   3.818   2.635
  731SOL     OW 2327   3.053   1.789   1.383
  731SOL    HW1 2328   3.110   1.744   1.445
  731SOL    HW2 2329   3.064   1.741   1.301
  732SOL     OW 2330   2.568   3.826   3.784
  732SOL    HW1 2331   2.601   3.817   3.695
  732SOL    HW2 2332   2.617   3.761   3.834
  733SOL     OW 2333   0.080   3.925   3.783
  733SOL    HW1 2334   0.045   3.882   3.705
  733SOL    HW2 2335   0.155   3.871   3.808
  734SOL     OW 2336   2.396   0.868   3.117
  734SOL    HW1 2337   2.317   0.815   3.119
  734SOL    HW2 2338   2.411   0.891   3.209
  735SOL     OW 2339   2.689   2.724   3.124
  735SOL    HW1 2340   2.768   2.755   3.169
  735SOL    HW2 2341   2.652   2.803   3.085
  736SOL     OW 2342   3.067   1.190   0.460
  736SOL    HW1 2343   3.125   1.186   0.536
  736SOL    HW2 2344   3.043   1.283   0.453
  737SOL     OW 2345   0.484   1.577   2.497
  737SOL    HW1 2346   0.534   1.632   2.436
  737SOL    HW2 2347   0.476   1.493   2.453
  738SOL     OW 2348   2.416   2.068   3.817
  738SOL    HW1 2349   2.472   2.144   3.805
  738SOL    HW2 2350   2.358   2.069   3.741
  739SOL     OW 2351   2.279   3.643   0.672
  739SOL    HW1 2352   2.282   3.623   0.765
  739SOL    HW2 2353   2.269   3.558   0.629
  740SOL     OW 2354   1.715   1.601   1.059
  740SOL    HW1 2355   1.786   1.555   1.105
  740SOL    HW2 2356   1.744   1.604   0.968
  741SOL     OW 2357   0.907   0.173   3.484
  741SOL    HW1 2358   0.903   0.109   3.554
  741SOL    HW2 2359   0.828   0.226   3.494
  742SOL     OW 2360   1.496   1.918   0.409
  742SOL    HW1 2361   1.408   1.915   0.446
  742SOL    HW2 2362   1.481   1.914   0.314
  743SOL     OW 2363   3.519   1.844   1.679
  743SOL    HW1 2364   3.490   1.935   1.671
  743SOL    HW2 2365   3.600   1.840   1.628
  744SOL     OW 2366   2.009   1.403   1.269
  744SOL    HW1 2367   1.974   1.318   1.294
  744SOL    HW2 2368   1.985   1.413   1.177
  745SOL     OW 2369   1.616   3.808   1.403
  745SOL    HW1 2370   1.644   3.893   1.371
  745SOL    HW2 2371   1.523   3.820   1.425
  746SOL     OW 2372   3.740   1.298   1.924
  746SOL    HW1 2373   3.759   1.380   1.970
  746SOL    HW2 2374   3.793   1.302   1.844
  747SOL     OW 2375   0.513   2.955   1.154
  747SOL    HW1 2376   0.480   2.988   1.071
  747SOL    HW2 2377   0.458   2.879   1.173
  748SOL     OW 2378   0.955   3.053   1.735
  748SOL    HW1 2379   0.918   2.972   1.770
  748SOL    HW2 2380   0.988   3.029   1.649
  749SOL     OW 2381   2.909   2.449   0.851
  749SOL    HW1 2382   2.875   2.529   0.892
  749SOL    HW2 2383   2.989   2.478   0.806
  750SOL     OW 2384   1.058   0.482   1.332
  750SOL    HW1 2385   0.969   0.498   1.299
  750SOL    HW2 2386   1.055   0.511   1.423
  751SOL     OW 2387   2.823   2.895   0.109
  751SOL    HW1 2388   2.809   2.850   0.026
  751SOL    HW2 2389   2.740   2.939   0.127
  752SOL     OW 2390   1.713   2.846   1.500
  752SOL    HW1 2391   1.620   2.864   1.488
  752SOL    HW2 2392   1.756   2.931   1.491
  753SOL     OW 2393   2.207   1.112   3.227
  753SOL    HW1 2394   2.127   1.137   3.181
  753SOL    HW2 2395   2.202   1.017   3.234
  754SOL     OW 2396   2.345   2.852   2.719
  754SOL    HW1 2397   2.396   2.838   2.640
  754SOL    HW2 2398   2.254   2.858   2.688
  755SOL     OW 2399   0.800   2.669   0.613
  755SOL    HW1 2400   0.753   2.673   0.530
  755SOL    HW2 2401   0.875   2.613   0.597
  756SOL     OW 2402   1.155   3.648   0.107
  756SOL    HW1 2403   1.097   3.690   0.171
  756SOL    HW2 2404   1.114   3.667   0.022
  757SOL     OW 2405   2.421   3.285   0.195
  757SOL    HW1 2406   2.449   3.376   0.189
  757SOL    HW2 2407   2.502   3.234   0.197
  758SOL     OW 2408   0.807   0.451   1.151
  758SOL    HW1 2409   0.719   0.484   1.132
  758SOL    HW2 2410   0.794   0.390   1.224
  759SOL     OW 2411   0.219   1.711   3.893
  759SOL    HW1 2412   0.182   1.744   3.811
  759SOL    HW2 2413   0.170   1.631   3.911
  760SOL     OW 2414   2.796   1.990   3.356
  760SOL    HW1 2415   2.739   1.969   3.281
  760SOL    HW2 2416   2.797   2.085   3.358
  761SOL     OW 2417   2.488   1.231   2.484
  761SOL    HW1 2418   2.420   1.296   2.468
  761SOL    HW2 2419   2.534   1.263   2.561
  762SOL     OW 2420   1.136   1.898   3.945
  762SOL    HW1 2421   1.227   1.881   3.966
  762SOL    HW2 2422   1.120   1.850   3.864
  763SOL     OW 2423   0.797   2.184   0.431
  763SOL    HW1 2424   0.860   2.246   0.393
  763SOL    HW2 2425   0.779   2.121   0.361
  764SOL     OW 2426   2.213   1.503   1.975
  764SOL    HW1 2427   2.293   1.477   1.930
  764SOL    HW2 2428   2.154   1.531   1.905
  765SOL     OW 2429   3.065   3.827   3.624
  765SOL    HW1 2430   3.080   3.916   3.592
  765SOL    HW2 2431   3.146   3.780   3.604
  766SOL     OW 2432   0.695   3.722   3.027
  766SOL    HW1 2433   0.651   3.796   2.987
  766SOL    HW2 2434   0.673   3.647   2.971
  767SOL     OW 2435   2.441   1.297   0.648
  767SOL    HW1 2436   2.453   1.338   0.562
  767SOL    HW2 2437   2.520   1.319   0.697
  768SOL     OW 2438   1.292   1.585   2.561
  768SOL    HW1 2439   1.373   1.635   2.571
  768SOL    HW2 2440   1.222   1.649   2.574
  769SOL     OW 2441   1.682   2.078   2.321
  769SOL    HW1 2442   1.739   2.001   2.316
  769SOL    HW2 2443   1.671   2.106   2.230
  770SOL     OW 2444   1.413   1.251   3.332
  770SOL    HW1 2445   1.472   1.259   3.407
  770SOL    HW2 2446   1.363   1.171   3.349
  771SOL     OW 2447   2.785   3.883   3.621
  771SOL    HW1 2448   2.878   3.884   3.600
  771SOL    HW2 2449   2.743   3.848   3.542
  772SOL     OW 2450   1.737   3.488   2.883
  772SOL    HW1 2451   1.700   3.402   2.902
  772SOL    HW2 2452   1.711   3.542   2.958
  773SOL     OW 2453   1.076   1.211   1.173
  773SOL    HW1 2454   1.039   1.122   1.178
  773SOL    HW2 2455   0.999   1.268   1.163
  774SOL     OW 2456   3.223   2.564   1.832
  774SOL    HW1 2457   3.224   2.635   1.896
  774SOL    HW2 2458   3.219   2.608   1.747
  775SOL     OW 2459   0.732   1.611   1.066
  775SOL    HW1 2460   0.809   1.574   1.110
  775SOL    HW2 2461   0.755   1.611   0.973
  776SOL     OW 2462   1.561   0.147   0.384
  776SOL    HW1 2463   1.551   0.212   0.453
  776SOL    HW2 2464   1.592   0.069   0.428
  777SOL     OW 2465   0.280   3.219   3.293
  777SOL    HW1 2466   0.374   3.236   3.292
  777SOL    HW2 2467   0.250   3.243   3.206
  778SOL     OW 2468   0.817   2.948   3.658
  778SOL    HW1 2469   0.814   2.967   3.752
  778SOL    HW2 2470   0.849   3.030   3.619
  779SOL     OW 2471   1.665   3.659   1.752
  779SOL    HW1 2472   1.634   3.647   1.842
  779SOL    HW2 2473   1.593   3.705   1.708
  780SOL     OW 2474   3.708   0.165   0.062
  780SOL    HW1 2475   3.691   0.207  -0.022
  780SOL    HW2 2476   3.712   0.071   0.042
  781SOL     OW 2477   1.584   1.210   2.575
  781SOL    HW1 2478   1.521   1.276   2.548
  781SOL    HW2 2479   1.600   1.158   2.496
  782SOL     OW 2480   1.971   2.026   0.572
  782SOL    HW1 2481   1.877   2.009   0.579
  782SOL    HW2 2482   2.002   1.962   0.508
  783SOL     OW 2483   1.803   2.847   0.925
  783SOL    HW1 2484   1.778   2.847   0.833
  783SOL    HW2 2485   1.721   2.863   0.972
  784SOL     OW 2486   3.057   2.674   3.937
  784SOL    HW1 2487   3.079   2.755   3.890
  784SOL    HW2 2488   2.962   2.664   3.925
  785SOL     OW 2489   1.426   1.062   0.832
  785SOL    HW1 2490   1.406   1.144   0.876
  785SOL    HW2 2491   1.476   1.087   0.754
  786SOL     OW 2492   0.082   0.836   3.830
  786SOL    HW1 2493   0.123   0.920   3.807
  786SOL    HW2 2494   0.085   0.834   3.926
  787SOL     OW 2495   3.754   1.962   0.705
  787SOL    HW1 2496   3.759   1.928   0.794
  787SOL    HW2 2497   3.664   1.945   0.678
  788SOL     OW 2498   0.740   1.128   2.326
  788SOL    HW1 2499   0.831   1.110   2.350
  788SOL    HW2 2500   0.694   1.131   2.410
  789SOL     OW 2501   1.140   0.240   3.320
  789SOL    HW1 2502   1.162   0.329   3.345
  789SOL    HW2 2503   1.069   0.216   3.380
  790SOL     OW 2504   1.339   3.506   0.421
  790SOL    HW1 2505   1.378   3.458   0.349
  790SOL    HW2 2506   1.249   3.523   0.393
  791SOL     OW 2507   3.771   2.443   1.522
  791SOL    HW1 2508   3.829   2.500   1.573
  791SOL    HW2 2509   3.731   2.385   1.587
  792SOL     OW 2510   1.066   2.097   0.578
  792SOL    HW1 2511   0.988   2.052   0.547
  792SOL    HW2 2512   1.035   2.148   0.653
  793SOL     OW 2513   3.818   1.880   0.354
  793SOL    HW1 2514   3.826   1.856   0.262
  793SOL    HW2 2515   3.855   1.968   0.359
  794SOL     OW 2516   0.483   1.934   1.159
  794SOL    HW1 2517   0.572   1.939   1.126
  794SOL    HW2 2518   0.449   1.851   1.127
  795SOL     OW 2519   1.581   2.962   2.185
  795SOL    HW1 2520   1.593   2.997   2.273
  795SOL    HW2 2521   1.667   2.928   2.160
  796SOL     OW 2522   3.523   3.924   1.908
  796SOL    HW1 2523   3.558   3.840   1.880
  796SOL    HW2 2524   3.488   3.907   1.996
  797SOL     OW 2525   0.616   2.782   1.740
  797SOL    HW1 2526   0.615   2.867   1.783
  797SOL    HW2 2527   0.536   2.781   1.687
  798SOL     OW 2528   1.158   1.209   0.422
  798SOL    HW1 2529   1.126   1.187   0.335
  798SOL    HW2 2530   1.215   1.135   0.446
  799SOL     OW 2531   1.860   0.381   1.944
  799SOL    HW1 2532   1.901   0.332   1.873
  799SOL    HW2 2533   1.933   0.412   1.997
  800SOL     OW 2534   1.724   0.550   3.489
  800SOL    HW1 2535   1.704   0.612   3.559
  800SOL    HW2 2536   1.644   0.547   3.436
  801SOL     OW 2537   2.656   1.583   2.184
  801SOL    HW1 2538   2.742   1.543   2.191
  801SOL    HW2 2539   2.627   1.594   2.275
  802SOL     OW 2540   0.113   3.195   3.517
  802SOL    HW1 2541   0.040   3.141   3.486
  802SOL    HW2 2542   0.177   3.192   3.446
  803SOL     OW 2543   3.910   2.105   0.490
  803SOL    HW1 2544   3.881   2.195   0.499
  803SOL    HW2 2545   3.891   2.064   0.574
  804SOL     OW 2546   3.294   0.613   1.487
  804SOL    HW1 2547   3.260   0.591   1.400
  804SOL    HW2 2548   3.358   0.682   1.470
  805SOL     OW 2549   2.218   3.387   0.580
  805SOL    HW1 2550   2.177   3.344   0.505
  805SOL    HW2 2551   2.240   3.315   0.640
  806SOL     OW 2552   1.325   2.450   3.587
  806SOL    HW1 2553   1.409   2.489   3.563
  806SOL    HW2 2554   1.347   2.364   3.623
  807SOL     OW 2555   0.268   2.294   2.657
  807SOL    HW1 2556   0.231   2.265   2.573
  807SOL    HW2 2557   0.335   2.358   2.633
  808SOL     OW 2558   0.121   3.164   2.843
  808SOL    HW1 2559   0.075   3.083   2.821
  808SOL    HW2 2560   0.162   3.191   2.760
  809SOL     OW 2561   1.348   3.815   1.321
  809SOL    HW1 2562   1.348   3.719   1.322
  809SOL    HW2 2563   1.275   3.839   1.378
  810SOL     OW 2564   3.469   1.232   1.919
  810SOL    HW1 2565   3.558   1.223   1.883
  810SOL    HW2 2566   3.483   1.264   2.008
  811SOL     OW 2567   0.264   2.855   1.958
  811SOL    HW1 2568   0.202   2.917   1.921
  811SOL    HW2 2569   0.294   2.897   2.039
  812SOL     OW 2570   1.987   1.174   3.079
  812SOL    HW1 2571   1.939   1.254   3.058
  812SOL    HW2 2572   1.986   1.123   2.999
  813SOL     OW 2573   0.706   3.810   2.044
  813SOL    HW1 2574   0.722   3.813   1.949
  813SOL    HW2 2575   0.723   3.899   2.074
  814SOL     OW 2576   1.760   3.575   3.881
  814SOL    HW1 2577   1.688   3.581   3.818
  814SOL    HW2 2578   1.718   3.576   3.966
  815SOL     OW 2579   2.408   2.769   3.815
  815SOL    HW1 2580   2.314   2.784   3.810
  815SOL    HW2 2581   2.440   2.837   3.874
  816SOL     OW 2582   2.355   0.590   1.717
  816SOL    HW1 2583   2.428   0.562   1.662
  816SOL    HW2 2584   2.338   0.680   1.691
  817SOL     OW 2585   1.422   3.206   2.153
  817SOL    HW1 2586   1.463   3.123   2.128
  817SOL    HW2 2587   1.356   3.182   2.217
  818SOL     OW 2588   2.322   1.615   0.800
  818SOL    HW1 2589   2.382   1.683   0.830
  818SOL    HW2 2590   2.369   1.533   0.814
  819SOL     OW 2591   2.194   0.354   1.723
  819SOL    HW1 2592   2.254   0.350   1.798
  819SOL    HW2 2593   2.199   0.445   1.693
  820SOL     OW 2594   0.977   1.859   3.215
  820SOL    HW1 2595   0.901   1.806   3.239
  820SOL    HW2 2596   1.025   1.870   3.297
  821SOL     OW 2597   3.279   3.043   0.405
  821SOL    HW1 2598   3.214   3.015   0.340
  821SOL    HW2 2599   3.363   3.031   0.361
  822SOL     OW 2600   1.939   1.348   0.594
  822SOL    HW1 2601   1.965   1.319   0.506
  822SOL    HW2 2602   1.912   1.439   0.581
  823SOL     OW 2603   2.270   2.467   3.409
  823SOL    HW1 2604   2.311   2.471   3.322
  823SOL    HW2 2605   2.302   2.385   3.447
  824SOL     OW 2606   1.908   1.661   0.864
  824SOL    HW1 2607   1.905   1.757   0.859
  824SOL    HW2 2608   1.889   1.632   0.774
  825SOL     OW 2609   2.575   1.631   2.473
  825SOL    HW1 2610   2.634   1.611   2.545
  825SOL    HW2 2611   2.487   1.620   2.510
  826SOL     OW 2612   0.348   0.402   0.561
  826SOL    HW1 2613   0.393   0.405   0.477
  826SOL    HW2 2614   0.345   0.309   0.584
  827SOL     OW 2615   1.616   1.484   2.773
  827SOL    HW1 2616   1.592   1.544   2.702
  827SOL    HW2 2617   1.644   1.404   2.728
  828SOL     OW 2618   3.933   3.454   1.045
  828SOL    HW1 2619   3.876   3.492   0.978
  828SOL    HW2 2620   3.882   3.458   1.126
  829SOL     OW 2621   3.285   3.618   3.752
  829SOL    HW1 2622   3.310   3.661   3.671
  829SOL    HW2 2623   3.303   3.525   3.736
  830SOL     OW 2624   3.365   3.705   3.503
  830SOL    HW1 2625   3.438   3.728   3.445
  830SOL    HW2 2626   3.311   3.646   3.451
  831SOL     OW 2627   0.405   0.147   0.550
  831SOL    HW1 2628   0.494   0.136   0.516
  831SOL    HW2 2629   0.349   0.134   0.474
  832SOL     OW 2630   0.028   3.730   0.221
  832SOL    HW1 2631   0.061   3.640   0.216
  832SOL    HW2 2632   0.060   3.772   0.141
  833SOL     OW 2633   1.211   2.790   0.764
  833SOL    HW1 2634   1.241   2.704   0.733
  833SOL    HW2 2635   1.219   2.785   0.860
  834SOL     OW 2636   2.584   1.045   3.867
  834SOL    HW1 2637   2.510   1.102   3.885
  834SOL    HW2 2638   2.625   1.082   3.788
  835SOL     OW 2639   1.195   3.557   3.040
  835SOL    HW1 2640   1.193   3.649   3.065
  835SOL    HW2 2641   1.237   3.557   2.954
  836SOL     OW 2642   3.264   0.428   0.890
  836SOL    HW1 2643   3.315   0.357   0.851
  836SOL    HW2 2644   3.327   0.499   0.903
  837SOL     OW 2645   1.343   2.251   3.005
  837SOL    HW1 2646   1.374   2.286   3.089
  837SOL    HW2 2647   1.412   2.273   2.943
  838SOL     OW 2648   1.649   1.038   1.322
  838SOL    HW1 2649   1.610   1.005   1.403
  838SOL    HW2 2650   1.599   0.997   1.252
  839SOL     OW 2651   0.369   1.134   2.104
  839SOL    HW1 2652   0.324   1.089   2.032
  839SOL    HW2 2653   0.441   1.076   2.127
  840SOL     OW 2654   0.893   1.917   0.401
  840SOL    HW1 2655   0.838   1.885   0.329
  840SOL    HW2 2656   0.845   1.894   0.480
  841SOL     OW 2657   2.190   0.061   1.734
  841SOL    HW1 2658   2.109   0.076   1.685
  841SOL    HW2 2659   2.213   0.146   1.770
  842SOL     OW 2660   3.534   2.784   1.637
  842SOL    HW1 2661   3.466   2.804   1.573
  842SOL    HW2 2662   3.611   2.832   1.606
  843SOL     OW 2663   0.276   1.369   3.648
  843SOL    HW1 2664   0.327   1.375   3.728
  843SOL    HW2 2665   0.340   1.371   3.577
  844SOL     OW 2666   2.847   2.863   0.614
  844SOL    HW1 2667   2.854   2.913   0.533
  844SOL    HW2 2668   2.804   2.782   0.588
  845SOL     OW 2669   0.639   1.816   1.700
  845SOL    HW1 2670   0.626   1.910   1.710
  845SOL    HW2 2671   0.621   1.800   1.607
  846SOL     OW 2672   1.180   2.463   1.022
  846SOL    HW1 2673   1.220   2.498   0.943
  846SOL    HW2 2674   1.240   2.486   1.093
  847SOL     OW 2675   3.197   1.555   3.573
  847SOL    HW1 2676   3.210   1.462   3.590
  847SOL    HW2 2677   3.252   1.600   3.637
  848SOL     OW 2678   1.770   2.260   2.914
  848SOL    HW1 2679   1.858   2.245   2.879
  848SOL    HW2 2680   1.729   2.174   2.909
  849SOL     OW 2681   3.536   3.728   3.279
  849SOL    HW1 2682   3.471   3.700   3.215
  849SOL    HW2 2683   3.592   3.651   3.290
  850SOL     OW 2684   2.260   2.449  -0.017
  850SOL    HW1 2685   2.307   2.471   0.063
  850SOL    HW2 2686   2.255   2.354  -0.016
  851SOL     OW 2687   3.291   2.336   3.208
  851SOL    HW1 2688   3.352   2.400   3.171
  851SOL    HW2 2689   3.278   2.365   3.298
  852SOL     OW 2690   1.336   1.160   1.193
  852SOL    HW1 2691   1.390   1.235   1.219
  852SOL    HW2 2692   1.252   1.199   1.168
  853SOL     OW 2693   1.435   2.253   1.764
  853SOL    HW1 2694   1.428   2.159   1.775
  853SOL    HW2 2695   1.527   2.273   1.784
  854SOL     OW 2696   3.703   0.857   3.787
  854SOL    HW1 2697   3.659   0.929   3.831
  854SOL    HW2 2698   3.715   0.791   3.855
  855SOL     OW 2699   0.433   2.466   1.249
  855SOL    HW1 2700   0.477   2.461   1.334
  855SOL    HW2 2701   0.408   2.376   1.229
  856SOL     OW 2702   1.568   1.563   1.434
  856SOL    HW1 2703   1.485   1.582   1.477
  856SOL    HW2 2704   1.577   1.630   1.367
  857SOL     OW 2705   1.095   0.483   3.448
  857SOL    HW1 2706   1.129   0.568   3.419
  857SOL    HW2 2707   1.005   0.480   3.414
  858SOL     OW 2708   3.051   1.874   0.856
  858SOL    HW1 2709   3.014   1.949   0.810
  858SOL    HW2 2710   3.004   1.871   0.939
  859SOL     OW 2711   3.312   1.011   3.109
  859SOL    HW1 2712   3.240   1.032   3.168
  859SOL    HW2 2713   3.317   1.086   3.050
  860SOL     OW 2714   1.638   2.292   3.408
  860SOL    HW1 2715   1.688   2.283   3.489
  860SOL    HW2 2716   1.654   2.210   3.361
  861SOL     OW 2717   0.278   2.845   1.005
  861SOL    HW1 2718   0.205   2.803   1.051
  861SOL    HW2 2719   0.275   2.809   0.917
  862SOL     OW 2720   2.407   0.369   3.305
  862SOL    HW1 2721   2.331   0.342   3.254
  862SOL    HW2 2722   2.378   0.446   3.354
  863SOL     OW 2723   0.413   2.329   1.536
  863SOL    HW1 2724   0.325   2.345   1.568
  863SOL    HW2 2725   0.401   2.273   1.459
  864SOL     OW 2726   3.891   1.839   0.088
  864SOL    HW1 2727   3.913   1.746   0.100
  864SOL    HW2 2728   3.899   1.853  -0.007
  865SOL     OW 2729   0.735   0.656   2.018
  865SOL    HW1 2730   0.664   0.664   1.955
  865SOL    HW2 2731   0.791   0.586   1.983
  866SOL     OW 2732   3.822   3.828   3.917
  866SOL    HW1 2733   3.884   3.883   3.869
  866SOL    HW2 2734   3.772   3.783   3.849
  867SOL     OW 2735   3.410   0.896   1.546
  867SOL    HW1 2736   3.448   0.921   1.631
  867SOL    HW2 2737   3.483   0.855   1.499
  868SOL     OW 2738   1.639   1.469   0.018
  868SOL    HW1 2739   1.562   1.504   0.063
  868SOL    HW2 2740   1.615   1.468  -0.074
  869SOL     OW 2741   1.945   0.829   2.842
  869SOL    HW1 2742   1.857   0.797   2.863
  869SOL    HW2 2743   1.930   0.902   2.782
  870SOL     OW 2744   1.710   0.423   3.215
  870SOL    HW1 2745   1.657   0.503   3.221
  870SOL    HW2 2746   1.663   0.359   3.268
  871SOL     OW 2747   0.661   1.257   3.222
  871SOL    HW1 2748   0.721   1.291   3.156
  871SOL    HW2 2749   0.608   1.192   3.175
  872SOL     OW 2750   3.850   3.035   3.469
  872SOL    HW1 2751   3.808   3.032   3.383
  872SOL    HW2 2752   3.778   3.025   3.531
  873SOL     OW 2753   3.297   3.653   1.880
  873SOL    HW1 2754   3.295   3.561   1.852
  873SOL    HW2 2755   3.389   3.678   1.874
  874SOL     OW 2756   0.506   0.531   1.535
  874SOL    HW1 2757   0.456   0.475   1.475
  874SOL    HW2 2758   0.458   0.528   1.617
  875SOL     OW 2759   1.432   0.810   0.709
  875SOL    HW1 2760   1.476   0.765   0.781
  875SOL    HW2 2761   1.450   0.903   0.724
  876SOL     OW 2762   3.696   1.696   3.553
  876SOL    HW1 2763   3.672   1.638   3.480
  876SOL    HW2 2764   3.670   1.783   3.524
  877SOL     OW 2765   3.178   3.671   0.260
  877SOL    HW1 2766   3.218   3.696   0.176
  877SOL    HW2 2767   3.188   3.576   0.263
  878SOL     OW 2768   0.214   2.772   2.841
  878SOL    HW1 2769   0.223   2.845   2.902
  878SOL    HW2 2770   0.139   2.722   2.874
  879SOL     OW 2771   0.161   2.607   3.287
  879SOL    HW1 2772   0.245   2.654   3.282
  879SOL    HW2 2773   0.110   2.657   3.351
  880SOL     OW 2774   3.844   0.552   0.618
  880SOL    HW1 2775   3.836   0.513   0.705
  880SOL    HW2 2776   3.754   0.571   0.592
  881SOL     OW 2777   0.218   3.852   0.399
  881SOL    HW1 2778   0.161   3.809   0.335
  881SOL    HW2 2779   0.198   3.945   0.389
  882SOL     OW 2780   2.120   3.090   1.067
  882SOL    HW1 2781   2.192   3.147   1.039
  882SOL    HW2 2782   2.045   3.148   1.076
  883SOL     OW 2783   1.652   3.217   2.808
  883SOL    HW1 2784   1.579   3.260   2.763
  883SOL    HW2 2785   1.694   3.165   2.741
  884SOL     OW 2786   0.955   0.955   1.206
  884SOL    HW1 2787   0.964   0.915   1.292
  884SOL    HW2 2788   1.017   0.908   1.151
  885SOL     OW 2789   0.824   1.130   0.168
  885SOL    HW1 2790   0.824   1.208   0.223
  885SOL    HW2 2791   0.874   1.065   0.218
  886SOL     OW 2792   1.779   1.439   1.843
  886SOL    HW1 2793   1.789   1.488   1.761
  886SOL    HW2 2794   1.834   1.362   1.831
  887SOL     OW 2795   2.978   2.318   2.317
  887SOL    HW1 2796   3.005   2.300   2.407
  887SOL    HW2 2797   3.002   2.239   2.268
  888SOL     OW 2798   1.264   2.903   0.400
  888SOL    HW1 2799   1.323   2.889   0.325
  888SOL    HW2 2800   1.213   2.822   0.405
  889SOL     OW 2801   0.418   2.834   1.551
  889SOL    HW1 2802   0.334   2.816   1.511
  889SOL    HW2 2803   0.408   2.920   1.592
  890SOL     OW 2804   1.094   3.147   2.569
  890SOL    HW1 2805   1.116   3.080   2.634
  890SOL    HW2 2806   1.112   3.230   2.613
  891SOL     OW 2807   2.901   3.522   0.141
  891SOL    HW1 2808   2.965   3.578   0.098
  891SOL    HW2 2809   2.932   3.515   0.232
  892SOL     OW 2810   1.428   3.225   3.805
  892SOL    HW1 2811   1.378   3.156   3.850
  892SOL    HW2 2812   1.362   3.274   3.757
  893SOL     OW 2813   1.457   1.209   0.289
  893SOL    HW1 2814   1.480   1.271   0.358
  893SOL    HW2 2815   1.536   1.158   0.274
  894SOL     OW 2816   2.665   3.395   3.239
  894SOL    HW1 2817   2.638   3.303   3.248
  894SOL    HW2 2818   2.739   3.404   3.299
  895SOL     OW 2819   1.597   0.691   3.718
  895SOL    HW1 2820   1.551   0.642   3.787
  895SOL    HW2 2821   1.677   0.723   3.761
  896SOL     OW 2822   1.141   3.167   0.197
  896SOL    HW1 2823   1.114   3.241   0.251
  896SOL    HW2 2824   1.069   3.105   0.203
  897SOL     OW 2825   1.928   1.675   2.139
  897SOL    HW1 2826   1.854   1.617   2.156
  897SOL    HW2 2827   2.002   1.633   2.183
  898SOL     OW 2828   3.715   0.140   0.782
  898SOL    HW1 2829   3.768   0.099   0.713
  898SOL    HW2 2830   3.678   0.066   0.831
  899SOL     OW 2831   3.601   0.751   0.827
  899SOL    HW1 2832   3.575   0.725   0.739
  899SOL    HW2 2833   3.675   0.810   0.814
  900SOL     OW 2834   2.726   3.697   3.168
  900SOL    HW1 2835   2.788   3.756   3.212
  900SOL    HW2 2836   2.733   3.615   3.216
  901SOL     OW 2837   2.646   0.795   2.055
  901SOL    HW1 2838   2.594   0.876   2.052
  901SOL    HW2 2839   2.699   0.804   2.134
  902SOL     OW 2840   2.154   3.355   1.385
  902SOL    HW1 2841   2.214   3.389   1.451
  902SOL    HW2 2842   2.108   3.433   1.353
  903SOL     OW 2843   1.395   0.070   3.513
  903SOL    HW1 2844   1.451   0.036   3.584
  903SOL    HW2 2845   1.316   0.016   3.516
  904SOL     OW 2846   3.564   2.302   2.651
  904SOL    HW1 2847   3.624   2.365   2.690
  904SOL    HW2 2848   3.570   2.225   2.707
  905SOL     OW 2849   1.298   0.842   0.264
  905SOL    HW1 2850   1.258   0.756   0.250
  905SOL    HW2 2851   1.355   0.856   0.189
  906SOL     OW 2852   3.271   1.893   2.459
  906SOL    HW1 2853   3.288   1.821   2.520
  906SOL    HW2 2854   3.286   1.855   2.372
  907SOL     OW 2855   3.552   2.355   3.615
  907SOL    HW1 2856   3.570   2.398   3.699
  907SOL    HW2 2857   3.624   2.293   3.604
  908SOL     OW 2858   2.174   0.108   2.349
  908SOL    HW1 2859   2.090   0.097   2.393
  908SOL    HW2 2860   2.239   0.104   2.419
  909SOL     OW 2861   1.132   2.278   3.752
  909SOL    HW1 2862   1.196   2.207   3.751
  909SOL    HW2 2863   1.055   2.240   3.709
  910SOL     OW 2864   0.336   3.469   3.532
  910SOL    HW1 2865   0.423   3.508   3.542
  910SOL    HW2 2866   0.343   3.413   3.454
  911SOL     OW 2867   3.220   3.446   1.233
  911SOL    HW1 2868   3.188   3.358   1.251
  911SOL    HW2 2869   3.311   3.434   1.207
  912SOL     OW 2870   3.091   1.280   1.169
  912SOL    HW1 2871   3.068   1.369   1.140
  912SOL    HW2 2872   3.036   1.265   1.246
  913SOL     OW 2873   2.260   0.891   1.988
  913SOL    HW1 2874   2.264   0.797   2.006
  913SOL    HW2 2875   2.332   0.929   2.038
  914SOL     OW 2876   3.432   0.645   0.992
  914SOL    HW1 2877   3.511   0.636   1.046
  914SOL    HW2 2878   3.461   0.695   0.916
  915SOL     OW 2879   2.886   0.416   3.842
  915SOL    HW1 2880   2.969   0.452   3.811
  915SOL    HW2 2881   2.825   0.489   3.837
  916SOL     OW 2882   0.793   1.053   2.779
  916SOL    HW1 2883   0.858   1.122   2.790
  916SOL    HW2 2884   0.836   0.987   2.725
  917SOL     OW 2885   1.615   2.546   0.755
  917SOL    HW1 2886   1.570   2.587   0.681
  917SOL    HW2 2887   1.665   2.475   0.716
  918SOL     OW 2888   1.913   3.936   2.506
  918SOL    HW1 2889   1.885   3.998   2.574
  918SOL    HW2 2890   1.877   3.852   2.534
  919SOL     OW 2891   2.527   1.833   1.087
  919SOL    HW1 2892   2.470   1.906   1.065
  919SOL    HW2 2893   2.492   1.797   1.168
  920SOL     OW 2894   1.251   0.263   0.556
  920SOL    HW1 2895   1.331   0.212   0.566
  920SOL    HW2 2896   1.228   0.254   0.463
  921SOL     OW 2897   2.800   2.039   2.281
  921SOL    HW1 2898   2.726   2.008   2.334
  921SOL    HW2 2899   2.873   1.983   2.308
  922SOL     OW 2900   1.307   0.382   1.630
  922SOL    HW1 2901   1.355   0.388   1.713
  922SOL    HW2 2902   1.214   0.385   1.656
  923SOL     OW 2903   0.603   3.748   0.008
  923SOL    HW1 2904   0.600   3.692   0.086
  923SOL    HW2 2905   0.518   3.792   0.007
  924SOL     OW 2906   3.113   2.553   0.701
  924SOL    HW1 2907   3.195   2.531   0.744
  924SOL    HW2 2908   3.131   2.543   0.608
  925SOL     OW 2909   0.051   0.867   2.236
  925SOL    HW1 2910   0.108   0.827   2.301
  925SOL    HW2 2911   0.012   0.942   2.280
  926SOL     OW 2912   1.869   0.626   0.429
  926SOL    HW1 2913   1.906   0.667   0.507
  926SOL    HW2 2914   1.861   0.534   0.452
  927SOL     OW 2915   0.037   2.028   1.673
  927SOL    HW1 2916   0.023   1.937   1.645
  927SOL    HW2 2917   0.109   2.023   1.736
  928SOL     OW 2918   3.847   3.788   1.190
  928SOL    HW1 2919   3.787   3.739   1.246
  928SOL    HW2 2920   3.793   3.816   1.116
  929SOL     OW 2921   1.280   3.215   1.101
  929SOL    HW1 2922   1.295   3.273   1.026
  929SOL    HW2 2923   1.347   3.148   1.093
  930SOL     OW 2924   2.727   2.536   3.430
  930SOL    HW1 2925   2.792   2.570   3.491
  930SOL    HW2 2926   2.678   2.614   3.402
  931SOL     OW 2927   3.755   0.924   2.585
  931SOL    HW1 2928   3.788   0.975   2.511
  931SOL    HW2 2929   3.694   0.982   2.630
  932SOL     OW 2930   3.686   1.790   3.044
  932SOL    HW1 2931   3.602   1.809   3.001
  932SOL    HW2 2932   3.668   1.799   3.137
  933SOL     OW 2933   3.737   2.450   0.234
  933SOL    HW1 2934   3.816   2.422   0.189
  933SOL    HW2 2935   3.757   2.538   0.266
  934SOL     OW 2936   3.763   2.825   2.940
  934SOL    HW1 2937   3.789   2.886   2.871
  934SOL    HW2 2938   3.837   2.823   3.000
  935SOL     OW 2939   3.463   1.953   1.959
  935SOL    HW1 2940   3.455   1.883   1.894
  935SOL    HW2 2941   3.420   2.028   1.919
  936SOL     OW 2942   1.620   2.511   3.759
  936SOL    HW1 2943   1.661   2.596   3.741
  936SOL    HW2 2944   1.620   2.465   3.675
  937SOL     OW 2945   2.008   3.766   2.932
  937SOL    HW1 2946   1.947   3.747   3.004
  937SOL    HW2 2947   2.048   3.849   2.956
  938SOL     OW 2948   0.249   3.733   3.895
  938SOL    HW1 2949   0.310   3.727   3.822
  938SOL    HW2 2950   0.194   3.655   3.887
  939SOL     OW 2951   2.907   1.709   1.924
  939SOL    HW1 2952   2.855   1.729   1.847
  939SOL    HW2 2953   2.874   1.624   1.954
  940SOL     OW 2954   0.442   0.235   1.654
  940SOL    HW1 2955   0.398   0.295   1.714
  940SOL    HW2 2956   0.372   0.191   1.606
  941SOL     OW 2957   2.089   1.824   2.413
  941SOL    HW1 2958   2.132   1.746   2.378
  941SOL    HW2 2959   2.005   1.792   2.446
  942SOL     OW 2960   2.588   2.147   1.223
  942SOL    HW1 2961   2.607   2.054   1.233
  942SOL    HW2 2962   2.655   2.179   1.162
  943SOL     OW 2963   2.165   2.055   2.567
  943SOL    HW1 2964   2.149   1.976   2.515
  943SOL    HW2 2965   2.260   2.056   2.579
  944SOL     OW 2966   2.139   2.601   2.929
  944SOL    HW1 2967   2.190   2.574   2.852
  944SOL    HW2 2968   2.054   2.560   2.916
  945SOL     OW 2969   0.986   1.647   0.105
  945SOL    HW1 2970   1.079   1.667   0.093
  945SOL    HW2 2971   0.975   1.561   0.064
  946SOL     OW 2972   3.519   3.053   1.756
  946SOL    HW1 2973   3.476   3.059   1.671
  946SOL    HW2 2974   3.612   3.067   1.737
  947SOL     OW 2975   2.970   1.060   3.807
  947SOL    HW1 2976   3.007   1.137   3.849
  947SOL    HW2 2977   2.959   0.997   3.879
  948SOL     OW 2978   0.857   1.098   3.823
  948SOL    HW1 2979   0.867   1.012   3.782
  948SOL    HW2 2980   0.894   1.087   3.911
  949SOL     OW 2981   1.683   3.286   2.094
  949SOL    HW1 2982   1.602   3.269   2.143
  949SOL    HW2 2983   1.742   3.216   2.120
  950SOL     OW 2984   2.999   3.482   0.898
  950SOL    HW1 2985   3.090   3.455   0.888
  950SOL    HW2 2986   2.987   3.492   0.993
  951SOL     OW 2987   1.546   3.595   2.678
  951SOL    HW1 2988   1.555   3.690   2.676
  951SOL    HW2 2989   1.635   3.563   2.689
  952SOL     OW 2990   3.756   2.590   3.146
  952SOL    HW1 2991   3.838   2.612   3.192
  952SOL    HW2 2992   3.749   2.656   3.077
  953SOL     OW 2993   1.210   1.582   3.772
  953SOL    HW1 2994   1.144   1.650   3.766
  953SOL    HW2 2995   1.161   1.503   3.797
  954SOL     OW 2996   1.109   3.333   0.689
  954SOL    HW1 2997   1.107   3.303   0.779
  954SOL    HW2 2998   1.101   3.253   0.636
  955SOL     OW 2999   0.513   2.955   2.374
  955SOL    HW1 3000   0.470   2.931   2.456
  955SOL    HW2 3001   0.526   3.050   2.381
  956SOL     OW 3002   0.263   3.218   0.827
  956SOL    HW1 3003   0.198   3.191   0.763
  956SOL    HW2 3004   0.328   3.148   0.828
  957SOL     OW 3005   2.269   1.989   3.577
  957SOL    HW1 3006   2.212   1.986   3.501
  957SOL    HW2 3007   2.347   1.938   3.552
  958SOL     OW 3008   1.647   3.436   1.069
  958SOL    HW1 3009   1.623   3.416   1.159
  958SOL    HW2 3010   1.564   3.453   1.025
  959SOL     OW 3011   0.429   1.310   1.247
  959SOL    HW1 3012   0.351   1.273   1.205
  959SOL    HW2 3013   0.501   1.289   1.186
  960SOL     OW 3014   2.564   2.892   0.862
  960SOL    HW1 3015   2.563   2.862   0.771
  960SOL    HW2 3016   2.472   2.901   0.885
  961SOL     OW 3017   1.410   0.546   1.898
  961SOL    HW1 3018   1.482   0.586   1.849
  961SOL    HW2 3019   1.451   0.478   1.951
  962SOL     OW 3020   1.664   2.456   2.319
  962SOL    HW1 3021   1.599   2.526   2.307
  962SOL    HW2 3022   1.612   2.378   2.339
  963SOL     OW 3023   2.295   0.631   1.977
  963SOL    HW1 3024   2.355   0.589   2.039
  963SOL    HW2 3025   2.319   0.593   1.892
  964SOL     OW 3026   2.969   3.166   1.056
  964SOL    HW1 3027   2.937   3.244   1.010
  964SOL    HW2 3028   2.889   3.115   1.074
  965SOL     OW 3029   0.777   1.833   0.657
  965SOL    HW1 3030   0.704   1.772   0.668
  965SOL    HW2 3031   0.837   1.812   0.729
  966SOL     OW 3032   3.783   2.344   0.489
  966SOL    HW1 3033   3.743   2.377   0.409
  966SOL    HW2 3034   3.750   2.400   0.558
  967SOL     OW 3035   3.390   0.363   3.647
  967SOL    HW1 3036   3.471   0.330   3.685
  967SOL    HW2 3037   3.417   0.438   3.595
  968SOL     OW 3038   3.190   2.377   1.521
  968SOL    HW1 3039   3.191   2.378   1.617
  968SOL    HW2 3040   3.126   2.309   1.499
  969SOL     OW 3041   1.087   3.245   1.285
  969SOL    HW1 3042   1.057   3.158   1.311
  969SOL    HW2 3043   1.162   3.228   1.228
  970SOL     OW 3044   0.917   3.003   2.171
  970SOL    HW1 3045   0.978   2.968   2.106
  970SOL    HW2 3046   0.884   2.926   2.217
  971SOL     OW 3047   1.063   2.513   1.416
  971SOL    HW1 3048   1.113   2.561   1.350
  971SOL    HW2 3049   0.975   2.507   1.379
  972SOL     OW 3050   3.092   0.032   2.565
  972SOL    HW1 3051   3.037   0.101   2.602
  972SOL    HW2 3052   3.083   0.042   2.470
  973SOL     OW 3053   2.052   1.500   1.713
  973SOL    HW1 3054   1.986   1.521   1.647
  973SOL    HW2 3055   2.135   1.506   1.666
  974SOL     OW 3056   2.846   3.962   2.167
  974SOL    HW1 3057   2.861   4.034   2.106
  974SOL    HW2 3058   2.869   3.883   2.117
  975SOL     OW 3059   3.308   2.141   3.014
  975SOL    HW1 3060   3.277   2.194   3.088
  975SOL    HW2 3061   3.261   2.177   2.938
  976SOL     OW 3062   3.649   3.467   3.238
  976SOL    HW1 3063   3.591   3.476   3.163
  976SOL    HW2 3064   3.651   3.373   3.256
  977SOL     OW 3065   3.055   2.669   3.384
  977SOL    HW1 3066   3.124   2.700   3.443
  977SOL    HW2 3067   3.098   2.657   3.300
  978SOL     OW 3068   0.612   3.653   1.520
  978SOL    HW1 3069   0.609   3.637   1.426
  978SOL    HW2 3070   0.523   3.634   1.550
  979SOL     OW 3071   1.709   1.966   2.622
  979SOL    HW1 3072   1.786   1.974   2.566
  979SOL    HW2 3073   1.743   1.975   2.711
  980SOL     OW 3074   1.258   2.311   1.495
  980SOL    HW1 3075   1.231   2.229   1.536
  980SOL    HW2 3076   1.179   2.365   1.495
  981SOL     OW 3077   3.074   0.073   2.297
  981SOL    HW1 3078   3.099   0.138   2.231
  981SOL    HW2 3079   3.006   0.021   2.255
  982SOL     OW 3080   1.529   3.740   0.408
  982SOL    HW1 3081   1.477   3.678   0.357
  982SOL    HW2 3082   1.617   3.704   0.408
  983SOL     OW 3083   3.767   0.337   2.710
  983SOL    HW1 3084   3.847   0.330   2.761
  983SOL    HW2 3085   3.796   0.339   2.619
  984SOL     OW 3086   0.468   3.842   2.340
  984SOL    HW1 3087   0.507   3.913   2.392
  984SOL    HW2 3088   0.460   3.878   2.252
  985SOL     OW 3089   1.941   3.583   2.700
  985SOL    HW1 3090   1.950   3.656   2.762
  985SOL    HW2 3091   1.886   3.519   2.747
  986SOL     OW 3092   1.852   1.843   3.086
  986SOL    HW1 3093   1.932   1.807   3.125
  986SOL    HW2 3094   1.807   1.766   3.052
  987SOL     OW 3095   1.023   3.459   1.070
  987SOL    HW1 3096   0.991   3.422   0.988
  987SOL    HW2 3097   1.033   3.383   1.128
  988SOL     OW 3098   3.563   1.978   3.516
  988SOL    HW1 3099   3.615   2.059   3.518
  988SOL    HW2 3100   3.515   1.979   3.598
  989SOL     OW 3101   3.854   1.462   0.662
  989SOL    HW1 3102   3.942   1.485   0.631
  989SOL    HW2 3103   3.796   1.523   0.617
  990SOL     OW 3104   1.151   0.856   1.039
  990SOL    HW1 3105   1.138   0.875   0.946
  990SOL    HW2 3106   1.174   0.763   1.041
  991SOL     OW 3107   2.190   3.108   0.738
  991SOL    HW1 3108   2.137   3.051   0.793
  991SOL    HW2 3109   2.216   3.053   0.664
  992SOL     OW 3110   0.259   0.569   2.206
  992SOL    HW1 3111   0.245   0.478   2.232
  992SOL    HW2 3112   0.224   0.620   2.279
  993SOL     OW 3113   1.482   1.610   0.772
  993SOL    HW1 3114   1.492   1.520   0.802
  993SOL    HW2 3115   1.395   1.614   0.734
  994SOL     OW 3116   0.766   1.318   2.148
  994SOL    HW1 3117   0.762   1.249   2.082
  994SOL    HW2 3118   0.781   1.271   2.230
  995SOL     OW 3119   1.331   3.480   0.694
  995SOL    HW1 3120   1.268   3.410   0.680
  995SOL    HW2 3121   1.354   3.509   0.606
  996SOL     OW 3122   0.392   0.541   3.692
  996SOL    HW1 3123   0.414   0.453   3.720
  996SOL    HW2 3124   0.375   0.588   3.774
  997SOL     OW 3125   0.580   3.565   3.554
  997SOL    HW1 3126   0.610   3.588   3.466
  997SOL    HW2 3127   0.659   3.539   3.600
  998SOL     OW 3128   2.611   3.081   0.067
  998SOL    HW1 3129   2.630   3.094  -0.025
  998SOL    HW2 3130   2.658   3.151   0.112
  999SOL     OW 3131   2.384   0.539   0.365
  999SOL    HW1 3132   2.416   0.452   0.388
  999SOL    HW2 3133   2.335   0.568   0.442
 1000SOL     OW 3134   0.241   2.072   0.373
 1000SOL    HW1 3135   0.160   2.067   0.424
 1000SOL    HW2 3136   0.224   2.017   0.296
 1001SOL     OW 3137   0.478   1.787   3.711
 1001SOL    HW1 3138   0.533   1.853   3.752
 1001SOL    HW2 3139   0.480   1.713   3.771
 1002SOL     OW 3140   2.541   1.331   1.510
 1002SOL    HW1 3141   2.553   1.419   1.474
 1002SOL    HW2 3142   2.448   1.312   1.495
 1003SOL     OW 3143   1.191   0.742   3.362
 1003SOL    HW1 3144   1.221   0.831   3.346
 1003SOL    HW2 3145   1.144   0.717   3.283
 1004SOL     OW 3146   0.579   2.181   0.100
 1004SOL    HW1 3147   0.565   2.104   0.154
 1004SOL    HW2 3148   0.620   2.244   0.159
 1005SOL     OW 3149   1.971   2.044   1.884
 1005SOL    HW1 3150   1.992   2.068   1.794
 1005SOL    HW2 3151   2.054   2.016   1.923
 1006SOL     OW 3152   2.355   1.669   0.322
 1006SOL    HW1 3153   2.443   1.680   0.357
 1006SOL    HW2 3154   2.319   1.594   0.370
 1007SOL     OW 3155   0.169   0.911   3.403
 1007SOL    HW1 3156   0.098   0.966   3.435
 1007SOL    HW2 3157   0.137   0.875   3.321
 1008SOL     OW 3158   0.549   0.528   1.170
 1008SOL    HW1 3159   0.474   0.584   1.190
 1008SOL    HW2 3160   0.519   0.439   1.189
 1009SOL     OW 3161   3.407   3.088   1.521
 1009SOL    HW1 3162   3.455   3.147   1.463
 1009SOL    HW2 3163   3.343   3.045   1.465
 1010SOL     OW 3164   0.563   3.372   1.607
 1010SOL    HW1 3165   0.585   3.449   1.554
 1010SOL    HW2 3166   0.637   3.312   1.594
 1011SOL     OW 3167   3.250   3.781   1.069
 1011SOL    HW1 3168   3.183   3.742   1.124
 1011SOL    HW2 3169   3.296   3.707   1.030
 1012SOL     OW 3170   2.376   3.081   2.280
 1012SOL    HW1 3171   2.456   3.029   2.270
 1012SOL    HW2 3172   2.403   3.156   2.333
 1013SOL     OW 3173   1.427   3.166   0.697
 1013SOL    HW1 3174   1.335   3.149   0.677
 1013SOL    HW2 3175   1.451   3.239   0.639
 1014SOL     OW 3176   1.616   0.796   3.109
 1014SOL    HW1 3177   1.529   0.764   3.133
 1014SOL    HW2 3178   1.631   0.762   3.021
 1015SOL     OW 3179   0.775   3.204   1.508
 1015SOL    HW1 3180   0.695   3.210   1.456
 1015SOL    HW2 3181   0.799   3.111   1.504
 1016SOL     OW 3182   3.963   2.586   2.904
 1016SOL    HW1 3183   3.908   2.616   2.832
 1016SOL    HW2 3184   3.979   2.493   2.885
 1017SOL     OW 3185   1.828   3.113   2.267
 1017SOL    HW1 3186   1.760   3.109   2.334
 1017SOL    HW2 3187   1.896   3.054   2.299
 1018SOL     OW 3188   1.261   3.409   2.451
 1018SOL    HW1 3189   1.177   3.452   2.436
 1018SOL    HW2 3190   1.256   3.328   2.400
 1019SOL     OW 3191   0.335   0.076   1.405
 1019SOL    HW1 3192   0.349  -0.017   1.388
 1019SOL    HW2 3193   0.251   0.081   1.450
 1020SOL     OW 3194   2.755   2.563   3.843
 1020SOL    HW1 3195   2.786   2.597   3.759
 1020SOL    HW2 3196   2.675   2.515   3.822
 1021SOL     OW 3197   2.928   0.315   2.409
 1021SOL    HW1 3198   2.924   0.221   2.388
 1021SOL    HW2 3199   2.928   0.318   2.505
 1022SOL     OW 3200   3.195   0.925   2.766
 1022SOL    HW1 3201   3.149   0.889   2.842
 1022SOL    HW2 3202   3.264   0.980   2.803
 1023SOL     OW 3203   2.162   1.076   0.272
 1023SOL    HW1 3204   2.257   1.070   0.280
 1023SOL    HW2 3205   2.128   1.048   0.357
 1024SOL     OW 3206   3.290   1.677   2.990
 1024SOL    HW1 3207   3.242   1.707   3.067
 1024SOL    HW2 3208   3.351   1.748   2.970
 1025SOL     OW 3209   2.439   1.458   2.948
 1025SOL    HW1 3210   2.452   1.444   3.042
 1025SOL    HW2 3211   2.380   1.533   2.943
 1026SOL     OW 3212   0.415   2.720   3.209
 1026SOL    HW1 3213   0.509   2.726   3.223
 1026SOL    HW2 3214   0.405   2.677   3.124
 1027SOL     OW 3215   3.939   1.117   3.450
 1027SOL    HW1 3216   3.942   1.204   3.491
 1027SOL    HW2 3217   3.855   1.080   3.478
 1028SOL     OW 3218   0.386   2.685   3.468
 1028SOL    HW1 3219   0.397   2.685   3.373
 1028SOL    HW2 3220   0.459   2.737   3.501
 1029SOL     OW 3221   3.664   3.581   3.546
 1029SOL    HW1 3222   3.708   3.620   3.470
 1029SOL    HW2 3223   3.660   3.487   3.525
 1030SOL     OW 3224   3.289   0.757   3.629
 1030SOL    HW1 3225   3.373   0.784   3.591
 1030SOL    HW2 3226   3.241   0.718   3.555
 1031SOL     OW 3227   0.946   0.911   1.757
 1031SOL    HW1 3228   1.014   0.849   1.731
 1031SOL    HW2 3229   0.958   0.921   1.851
 1032SOL     OW 3230   3.308   2.337   3.500
 1032SOL    HW1 3231   3.391   2.342   3.549
 1032SOL    HW2 3232   3.295   2.243   3.486
 1033SOL     OW 3233   1.461   3.815   1.650
 1033SOL    HW1 3234   1.424   3.899   1.623
 1033SOL    HW2 3235   1.415   3.750   1.597
 1034SOL     OW 3236   2.828   2.144   0.232
 1034SOL    HW1 3237   2.870   2.148   0.318
 1034SOL    HW2 3238   2.741   2.183   0.246
 1035SOL     OW 3239   3.453   2.070   1.122
 1035SOL    HW1 3240   3.425   2.130   1.191
 1035SOL    HW2 3241   3.543   2.096   1.102
 1036SOL     OW 3242   3.128   3.849   2.771
 1036SOL    HW1 3243   3.120   3.911   2.698
 1036SOL    HW2 3244   3.187   3.893   2.833
 1037SOL     OW 3245   2.863   2.231   2.984
 1037SOL    HW1 3246   2.913   2.149   2.986
 1037SOL    HW2 3247   2.858   2.258   3.076
 1038SOL     OW 3248   1.633   0.720   2.851
 1038SOL    HW1 3249   1.582   0.776   2.793
 1038SOL    HW2 3250   1.630   0.633   2.810
 1039SOL     OW 3251   1.697   0.524   2.647
 1039SOL    HW1 3252   1.760   0.587   2.611
 1039SOL    HW2 3253   1.706   0.446   2.592
 1040SOL     OW 3254   0.623   2.334   0.584
 1040SOL    HW1 3255   0.683   2.336   0.659
 1040SOL    HW2 3256   0.668   2.280   0.519
 1041SOL     OW 3257   0.761   2.197   1.449
 1041SOL    HW1 3258   0.838   2.143   1.431
 1041SOL    HW2 3259   0.723   2.216   1.364
 1042SOL     OW 3260   0.089   2.557   0.392
 1042SOL    HW1 3261   0.105   2.545   0.486
 1042SOL    HW2 3262   0.087   2.468   0.356
 1043SOL     OW 3263   0.929   2.982   0.242
 1043SOL    HW1 3264   0.893   3.058   0.287
 1043SOL    HW2 3265   0.947   2.919   0.312
 1044SOL     OW 3266   3.092   2.850   0.790
 1044SOL    HW1 3267   3.011   2.819   0.750
 1044SOL    HW2 3268   3.159   2.834   0.725
 1045SOL     OW 3269   0.196   2.258   3.282
 1045SOL    HW1 3270   0.284   2.222   3.291
 1045SOL    HW2 3271   0.203   2.319   3.209
 1046SOL     OW 3272   3.252   0.702   2.572
 1046SOL    HW1 3273   3.222   0.739   2.489
 1046SOL    HW2 3274   3.237   0.772   2.636
 1047SOL     OW 3275   3.630   1.338   0.503
 1047SOL    HW1 3276   3.546   1.345   0.548
 1047SOL    HW2 3277   3.679   1.415   0.532
 1048SOL     OW 3278   3.726   1.455   2.961
 1048SOL    HW1 3279   3.809   1.503   2.961
 1048SOL    HW2 3280   3.684   1.480   3.043
 1049SOL     OW 3281   0.994   1.589   0.450
 1049SOL    HW1 3282   0.990   1.678   0.414
 1049SOL    HW2 3283   1.065   1.592   0.514
 1050SOL     OW 3284   2.537   2.268   3.171
 1050SOL    HW1 3285   2.513   2.359   3.156
 1050SOL    HW2 3286   2.603   2.272   3.240
 1051SOL     OW 3287   1.654   0.847   0.428
 1051SOL    HW1 3288   1.732   0.796   0.446
 1051SOL    HW2 3289   1.581   0.786   0.444
 1052SOL     OW 3290   2.850   3.127   2.585
 1052SOL    HW1 3291   2.890   3.157   2.503
 1052SOL    HW2 3292   2.910   3.060   2.618
 1053SOL     OW 3293   1.072   0.820   2.008
 1053SOL    HW1 3294   0.988   0.855   2.041
 1053SOL    HW2 3295   1.137   0.852   2.071
 1054SOL     OW 3296   3.617   0.885   1.113
 1054SOL    HW1 3297   3.698   0.888   1.063
 1054SOL    HW2 3298   3.645   0.900   1.204
 1055SOL     OW 3299   2.681   0.058   3.245
 1055SOL    HW1 3300   2.673   0.017   3.159
 1055SOL    HW2 3301   2.591   0.081   3.269
 1056SOL     OW 3302   0.388   2.221   1.042
 1056SOL    HW1 3303   0.459   2.235   0.980
 1056SOL    HW2 3304   0.336   2.151   1.003
 1057SOL     OW 3305   2.007   2.364   3.421
 1057SOL    HW1 3306   2.097   2.394   3.426
 1057SOL    HW2 3307   1.988   2.329   3.508
 1058SOL     OW 3308   3.370   0.276   1.963
 1058SOL    HW1 3309   3.362   0.241   2.052
 1058SOL    HW2 3310   3.460   0.308   1.959
 1059SOL     OW 3311   2.405   3.778   2.473
 1059SOL    HW1 3312   2.346   3.745   2.405
 1059SOL    HW2 3313   2.488   3.793   2.428
 1060SOL     OW 3314   1.623   0.333   2.871
 1060SOL    HW1 3315   1.598   0.398   2.806
 1060SOL    HW2 3316   1.719   0.330   2.866
 1061SOL     OW 3317   3.938   2.206   0.932
 1061SOL    HW1 3318   3.883   2.228   0.857
 1061SOL    HW2 3319   3.972   2.290   0.962
 1062SOL     OW 3320   1.753   1.208   2.790
 1062SOL    HW1 3321   1.835   1.158   2.782
 1062SOL    HW2 3322   1.700   1.178   2.716
 1063SOL     OW 3323   3.636   0.285   3.758
 1063SOL    HW1 3324   3.604   0.196   3.743
 1063SOL    HW2 3325   3.674   0.311   3.674
 1064SOL     OW 3326   0.618   0.277   3.256
 1064SOL    HW1 3327   0.556   0.249   3.323
 1064SOL    HW2 3328   0.585   0.362   3.226
 1065SOL     OW 3329   1.334   3.436   0.970
 1065SOL    HW1 3330   1.352   3.526   0.998
 1065SOL    HW2 3331   1.319   3.443   0.876
 1066SOL     OW 3332   1.786   0.143   2.701
 1066SOL    HW1 3333   1.829   0.196   2.769
 1066SOL    HW2 3334   1.764   0.205   2.632
 1067SOL     OW 3335   0.130   2.758   2.566
 1067SOL    HW1 3336   0.143   2.733   2.657
 1067SOL    HW2 3337   0.107   2.677   2.521
 1068SOL     OW 3338   0.775   0.134   1.256
 1068SOL    HW1 3339   0.793   0.095   1.341
 1068SOL    HW2 3340   0.832   0.087   1.195
 1069SOL     OW 3341   0.015   0.342   3.655
 1069SOL    HW1 3342   0.069   0.326   3.577
 1069SOL    HW2 3343   0.056   0.289   3.724
 1070SOL     OW 3344   0.905   0.046   0.172
 1070SOL    HW1 3345   0.885   0.140   0.182
 1070SOL    HW2 3346   0.925   0.036   0.079
 1071SOL     OW 3347   3.658   2.429   2.398
 1071SOL    HW1 3348   3.704   2.358   2.354
 1071SOL    HW2 3349   3.647   2.398   2.488
 1072SOL     OW 3350   3.004   1.469   0.458
 1072SOL    HW1 3351   3.020   1.524   0.536
 1072SOL    HW2 3352   2.959   1.527   0.397
 1073SOL     OW 3353   0.241   1.368   0.884
 1073SOL    HW1 3354   0.198   1.331   0.806
 1073SOL    HW2 3355   0.219   1.461   0.881
 1074SOL     OW 3356   0.475   3.239   0.321
 1074SOL    HW1 3357   0.517   3.173   0.267
 1074SOL    HW2 3358   0.499   3.323   0.281
 1075SOL     OW 3359   1.578   1.268   2.156
 1075SOL    HW1 3360   1.645   1.230   2.099
 1075SOL    HW2 3361   1.496   1.229   2.127
 1076SOL     OW 3362   2.538   3.344   2.966
 1076SOL    HW1 3363   2.524   3.278   2.899
 1076SOL    HW2 3364   2.591   3.300   3.033
 1077SOL     OW 3365   1.440   0.811   3.948
 1077SOL    HW1 3366   1.511   0.865   3.915
 1077SOL    HW2 3367   1.360   0.861   3.931
 1078SOL     OW 3368   3.240   3.349   0.108
 1078SOL    HW1 3369   3.330   3.318   0.117
 1078SOL    HW2 3370   3.205   3.348   0.197
 1079SOL     OW 3371   1.847   1.796   3.858
 1079SOL    HW1 3372   1.864   1.772   3.767
 1079SOL    HW2 3373   1.796   1.877   3.852
 1080SOL     OW 3374   0.031   1.664   0.977
 1080SOL    HW1 3375  -0.057   1.702   0.976
 1080SOL    HW2 3376   0.055   1.661   1.069
 1081SOL     OW 3377   2.430   1.081   0.264
 1081SOL    HW1 3378   2.466   0.992   0.263
 1081SOL    HW2 3379   2.507   1.138   0.270
 1082SOL     OW 3380   2.592   3.290   3.749
 1082SOL    HW1 3381   2.548   3.360   3.701
 1082SOL    HW2 3382   2.676   3.328   3.776
 1083SOL     OW 3383   1.037   1.690   2.559
 1083SOL    HW1 3384   0.994   1.769   2.592
 1083SOL    HW2 3385   0.968   1.625   2.554
 1084SOL     OW 3386   0.382   2.211   1.816
 1084SOL    HW1 3387   0.318   2.257   1.762
 1084SOL    HW2 3388   0.417   2.279   1.874
 1085SOL     OW 3389   1.662   2.999   3.915
 1085SOL    HW1 3390   1.672   3.082   3.870
 1085SOL    HW2 3391   1.729   3.000   3.984
 1086SOL     OW 3392   1.157   1.637   2.280
 1086SOL    HW1 3393   1.192   1.573   2.217
 1086SOL    HW2 3394   1.189   1.607   2.365
 1087SOL     OW 3395   3.091   1.016   3.565
 1087SOL    HW1 3396   3.026   1.026   3.635
 1087SOL    HW2 3397   3.167   0.975   3.608
 1088SOL     OW 3398   3.565   2.882   1.945
 1088SOL    HW1 3399   3.536   2.956   1.892
 1088SOL    HW2 3400   3.612   2.826   1.883
 1089SOL     OW 3401   2.772   3.170   1.841
 1089SOL    HW1 3402   2.768   3.222   1.921
 1089SOL    HW2 3403   2.788   3.081   1.872
 1090SOL     OW 3404   3.098   0.568   2.955
 1090SOL    HW1 3405   3.035   0.500   2.978
 1090SOL    HW2 3406   3.046   0.648   2.950
 1091SOL     OW 3407   1.915   2.437   2.421
 1091SOL    HW1 3408   1.829   2.426   2.380
 1091SOL    HW2 3409   1.895   2.447   2.515
 1092SOL     OW 3410   3.434   3.574   0.573
 1092SOL    HW1 3411   3.441   3.480   0.587
 1092SOL    HW2 3412   3.441   3.586   0.478
 1093SOL     OW 3413   0.657   0.939   0.428
 1093SOL    HW1 3414   0.714   0.897   0.493
 1093SOL    HW2 3415   0.687   1.030   0.425
 1094SOL     OW 3416   1.699   1.943   0.817
 1094SOL    HW1 3417   1.787   1.933   0.853
 1094SOL    HW2 3418   1.641   1.910   0.886
 1095SOL     OW 3419   3.022   2.885   2.903
 1095SOL    HW1 3420   3.067   2.811   2.863
 1095SOL    HW2 3421   2.948   2.902   2.844
 1096SOL     OW 3422   0.808   2.696   0.030
 1096SOL    HW1 3423   0.772   2.784   0.037
 1096SOL    HW2 3424   0.891   2.700   0.077
 1097SOL     OW 3425   2.205   0.591   2.773
 1097SOL    HW1 3426   2.177   0.501   2.786
 1097SOL    HW2 3427   2.125   0.638   2.749
 1098SOL     OW 3428   1.120   3.713   0.742
 1098SOL    HW1 3429   1.095   3.660   0.666
 1098SOL    HW2 3430   1.156   3.794   0.704
 1099SOL     OW 3431   3.231   1.236   0.680
 1099SOL    HW1 3432   3.236   1.154   0.729
 1099SOL    HW2 3433   3.307   1.286   0.710
 1100SOL     OW 3434   2.610   0.170   1.229
 1100SOL    HW1 3435   2.670   0.218   1.172
 1100SOL    HW2 3436   2.664   0.136   1.300
 1101SOL     OW 3437   0.587   2.268   3.284
 1101SOL    HW1 3438   0.617   2.188   3.239
 1101SOL    HW2 3439   0.571   2.240   3.374
 1102SOL     OW 3440   2.024   3.141   2.063
 1102SOL    HW1 3441   2.002   3.055   2.028
 1102SOL    HW2 3442   1.977   3.146   2.146
 1103SOL     OW 3443   0.784   3.511   3.769
 1103SOL    HW1 3444   0.735   3.437   3.804
 1103SOL    HW2 3445   0.785   3.575   3.840
 1104SOL     OW 3446   1.267   2.011   3.138
 1104SOL    HW1 3447   1.321   1.932   3.142
 1104SOL    HW2 3448   1.314   2.070   3.079
 1105SOL     OW 3449   1.838   1.029   1.822
 1105SOL    HW1 3450   1.830   1.083   1.742
 1105SOL    HW2 3451   1.911   0.970   1.804
 1106SOL     OW 3452   0.608   1.322   1.658
 1106SOL    HW1 3453   0.660   1.246   1.682
 1106SOL    HW2 3454   0.519   1.288   1.648
 1107SOL     OW 3455   0.177   2.066   3.514
 1107SOL    HW1 3456   0.165   2.146   3.462
 1107SOL    HW2 3457   0.089   2.034   3.530
 1108SOL     OW 3458   2.946   3.332   1.632
 1108SOL    HW1 3459   2.957   3.402   1.696
 1108SOL    HW2 3460   2.881   3.273   1.670
 1109SOL     OW 3461   0.792   2.521   3.786
 1109SOL    HW1 3462   0.740   2.450   3.825
 1109SOL    HW2 3463   0.778   2.595   3.845
 1110SOL     OW 3464   2.385   1.647   2.654
 1110SOL    HW1 3465   2.290   1.648   2.640
 1110SOL    HW2 3466   2.402   1.725   2.707
 1111SOL     OW 3467   0.988   1.403   3.404
 1111SOL    HW1 3468   1.080   1.388   3.423
 1111SOL    HW2 3469   0.950   1.315   3.397
 1112SOL     OW 3470   0.801   1.602   2.130
 1112SOL    HW1 3471   0.823   1.509   2.129
 1112SOL    HW2 3472   0.790   1.626   2.038
 1113SOL     OW 3473   3.416   2.267   1.316
 1113SOL    HW1 3474   3.380   2.186   1.352
 1113SOL    HW2 3475   3.391   2.334   1.379
 1114SOL     OW 3476   1.796   1.569   1.601
 1114SOL    HW1 3477   1.759   1.639   1.654
 1114SOL    HW2 3478   1.726   1.545   1.539
 1115SOL     OW 3479   2.185   3.099   1.432
 1115SOL    HW1 3480   2.161   3.189   1.409
 1115SOL    HW2 3481   2.229   3.106   1.516
 1116SOL     OW 3482   2.827   3.936   0.012
 1116SOL    HW1 3483   2.747   3.958  -0.037
 1116SOL    HW2 3484   2.820   3.842   0.028
 1117SOL     OW 3485   1.335   0.462   1.242
 1117SOL    HW1 3486   1.253   0.437   1.284
 1117SOL    HW2 3487   1.402   0.409   1.286
 1118SOL     OW 3488   3.781   2.230   3.926
 1118SOL    HW1 3489   3.833   2.151   3.943
 1118SOL    HW2 3490   3.693   2.207   3.957
 1119SOL     OW 3491   1.274   1.316   2.654
 1119SOL    HW1 3492   1.259   1.407   2.631
 1119SOL    HW2 3493   1.252   1.311   2.747
 1120SOL     OW 3494   0.810   0.722   0.972
 1120SOL    HW1 3495   0.833   0.680   1.055
 1120SOL    HW2 3496   0.764   0.802   0.997
 1121SOL     OW 3497   2.286   3.102   3.593
 1121SOL    HW1 3498   2.300   3.099   3.499
 1121SOL    HW2 3499   2.366   3.066   3.631
 1122SOL     OW 3500   0.947   1.291   2.544
 1122SOL    HW1 3501   0.914   1.366   2.594
 1122SOL    HW2 3502   0.988   1.234   2.609
 1123SOL     OW 3503   3.788   2.079   2.845
 1123SOL    HW1 3504   3.727   2.152   2.857
 1123SOL    HW2 3505   3.732   2.005   2.821
 1124SOL     OW 3506   1.105   0.061   0.943
 1124SOL    HW1 3507   1.068   0.079   0.857
 1124SOL    HW2 3508   1.134  -0.030   0.937
 1125SOL     OW 3509   2.195   1.609   1.420
 1125SOL    HW1 3510   2.146   1.576   1.345
 1125SOL    HW2 3511   2.248   1.535   1.449
 1126SOL     OW 3512   3.482   0.859   0.144
 1126SOL    HW1 3513   3.430   0.876   0.066
 1126SOL    HW2 3514   3.449   0.921   0.209
 1127SOL     OW 3515   1.264   2.598   2.154
 1127SOL    HW1 3516   1.215   2.680   2.142
 1127SOL    HW2 3517   1.304   2.582   2.068
 1128SOL     OW 3518   2.343   3.090   3.278
 1128SOL    HW1 3519   2.318   3.176   3.244
 1128SOL    HW2 3520   2.424   3.069   3.231
 1129SOL     OW 3521   2.829   1.372   2.640
 1129SOL    HW1 3522   2.849   1.309   2.709
 1129SOL    HW2 3523   2.734   1.384   2.645
 1130SOL     OW 3524   0.457   1.698   1.023
 1130SOL    HW1 3525   0.531   1.641   1.001
 1130SOL    HW2 3526   0.390   1.675   0.958
 1131SOL     OW 3527   1.579   1.695   1.771
 1131SOL    HW1 3528   1.645   1.706   1.839
 1131SOL    HW2 3529   1.570   1.782   1.732
 1132SOL     OW 3530   0.539   1.844   2.237
 1132SOL    HW1 3531   0.467   1.885   2.286
 1132SOL    HW2 3532   0.529   1.879   2.148
 1133SOL     OW 3533   3.767   3.048   1.402
 1133SOL    HW1 3534   3.772   2.969   1.456
 1133SOL    HW2 3535   3.828   3.109   1.443
 1134SOL     OW 3536   2.174   0.334   1.456
 1134SOL    HW1 3537   2.260   0.311   1.419
 1134SOL    HW2 3538   2.172   0.288   1.540
 1135SOL     OW 3539   3.190   3.393   1.531
 1135SOL    HW1 3540   3.115   3.335   1.527
 1135SOL    HW2 3541   3.219   3.401   1.440
 1136SOL     OW 3542   1.996   1.097   2.759
 1136SOL    HW1 3543   2.076   1.070   2.804
 1136SOL    HW2 3544   2.026   1.157   2.690
 1137SOL     OW 3545   2.700   1.961   3.114
 1137SOL    HW1 3546   2.755   1.935   3.041
 1137SOL    HW2 3547   2.621   1.997   3.073
 1138SOL     OW 3548   3.852   3.107   2.438
 1138SOL    HW1 3549   3.792   3.097   2.364
 1138SOL    HW2 3550   3.798   3.149   2.506
 1139SOL     OW 3551   0.889   1.377   0.306
 1139SOL    HW1 3552   0.809   1.419   0.274
 1139SOL    HW2 3553   0.939   1.449   0.344
 1140SOL     OW 3554   0.915   1.465   1.265
 1140SOL    HW1 3555   0.954   1.418   1.339
 1140SOL    HW2 3556   0.834   1.416   1.246
 1141SOL     OW 3557   1.321   1.832   1.464
 1141SOL    HW1 3558   1.255   1.778   1.508
 1141SOL    HW2 3559   1.288   1.922   1.473
 1142SOL     OW 3560   3.891   0.075   1.274
 1142SOL    HW1 3561   3.881  -0.004   1.220
 1142SOL    HW2 3562   3.897   0.147   1.211
 1143SOL     OW 3563   1.643   1.044   2.354
 1143SOL    HW1 3564   1.632   0.974   2.291
 1143SOL    HW2 3565   1.649   1.124   2.301
 1144SOL     OW 3566   3.611   2.880   3.643
 1144SOL    HW1 3567   3.619   2.846   3.554
 1144SOL    HW2 3568   3.543   2.826   3.683
 1145SOL     OW 3569   2.892   3.907   2.949
 1145SOL    HW1 3570   2.939   3.850   2.888
 1145SOL    HW2 3571   2.804   3.913   2.914
 1146SOL     OW 3572   2.147   0.049   3.087
 1146SOL    HW1 3573   2.143   0.136   3.126
 1146SOL    HW2 3574   2.210   0.001   3.141
 1147SOL     OW 3575   2.025   1.335   0.343
 1147SOL    HW1 3576   1.952   1.350   0.284
 1147SOL    HW2 3577   2.067   1.255   0.310
 1148SOL     OW 3578   0.361   3.628   1.636
 1148SOL    HW1 3579   0.349   3.537   1.663
 1148SOL    HW2 3580   0.273   3.663   1.627
 1149SOL     OW 3581   2.977   3.104   0.694
 1149SOL    HW1 3582   2.975   3.011   0.669
 1149SOL    HW2 3583   2.908   3.112   0.760
 1150SOL     OW 3584   3.784   1.234   0.794
 1150SOL    HW1 3585   3.693   1.260   0.808
 1150SOL    HW2 3586   3.824   1.309   0.752
 1151SOL     OW 3587   0.936   1.845   2.205
 1151SOL    HW1 3588   0.910   1.760   2.169
 1151SOL    HW2 3589   0.944   1.830   2.299
 1152SOL     OW 3590   1.388   0.172   1.968
 1152SOL    HW1 3591   1.379   0.254   2.016
 1152SOL    HW2 3592   1.298   0.141   1.956
 1153SOL     OW 3593   0.713   2.704   0.980
 1153SOL    HW1 3594   0.708   2.775   0.915
 1153SOL    HW2 3595   0.622   2.674   0.988
 1154SOL     OW 3596   2.298   1.952   0.233
 1154SOL    HW1 3597   2.304   1.926   0.141
 1154SOL    HW2 3598   2.302   1.869   0.282
 1155SOL     OW 3599   3.234   1.843   0.507
 1155SOL    HW1 3600   3.193   1.860   0.422
 1155SOL    HW2 3601   3.263   1.752   0.502
 1156SOL     OW 3602   3.855   0.713   0.375
 1156SOL    HW1 3603   3.803   0.664   0.312
 1156SOL    HW2 3604   3.868   0.652   0.449
 1157SOL     OW 3605   0.281   2.414   3.585
 1157SOL    HW1 3606   0.317   2.500   3.565
 1157SOL    HW2 3607   0.205   2.432   3.641
 1158SOL     OW 3608   2.793   2.700   2.536
 1158SOL    HW1 3609   2.771   2.632   2.600
 1158SOL    HW2 3610   2.815   2.652   2.456
 1159SOL     OW 3611   2.985   0.482   0.865
 1159SOL    HW1 3612   3.081   0.485   0.858
 1159SOL    HW2 3613   2.968   0.477   0.959
 1160SOL     OW 3614   2.623   1.665   0.407
 1160SOL    HW1 3615   2.664   1.734   0.459
 1160SOL    HW2 3616   2.687   1.646   0.339
 1161SOL     OW 3617   0.525   3.545   0.197
 1161SOL    HW1 3618   0.474   3.490   0.138
 1161SOL    HW2 3619   0.471   3.553   0.275
 1162SOL     OW 3620   1.349   1.153   3.795
 1162SOL    HW1 3621   1.411   1.221   3.767
 1162SOL    HW2 3622   1.399   1.072   3.792
 1163SOL     OW 3623   2.466   1.855   1.369
 1163SOL    HW1 3624   2.394   1.847   1.431
 1163SOL    HW2 3625   2.525   1.919   1.408
 1164SOL     OW 3626   0.121   1.965   2.199
 1164SOL    HW1 3627   0.135   2.041   2.143
 1164SOL    HW2 3628   0.039   1.982   2.244
 1165SOL     OW 3629   0.557   2.021   3.836
 1165SOL    HW1 3630   0.485   2.061   3.787
 1165SOL    HW2 3631   0.581   2.087   3.902
 1166SOL     OW 3632   1.022   1.782   3.712
 1166SOL    HW1 3633   0.937   1.815   3.742
 1166SOL    HW2 3634   1.028   1.811   3.621
 1167SOL     OW 3635   3.186   2.283   1.838
 1167SOL    HW1 3636   3.100   2.285   1.880
 1167SOL    HW2 3637   3.217   2.374   1.842
 1168SOL     OW 3638   2.640   3.894   1.563
 1168SOL    HW1 3639   2.652   3.802   1.586
 1168SOL    HW2 3640   2.582   3.892   1.486
 1169SOL     OW 3641   3.840   3.728   3.397
 1169SOL    HW1 3642   3.839   3.805   3.341
 1169SOL    HW2 3643   3.919   3.680   3.372
 1170SOL     OW 3644   2.750   1.182   1.402
 1170SOL    HW1 3645   2.750   1.108   1.462
 1170SOL    HW2 3646   2.678   1.237   1.432
 1171SOL     OW 3647   2.622   2.968   2.205
 1171SOL    HW1 3648   2.692   3.020   2.246
 1171SOL    HW2 3649   2.668   2.892   2.169
 1172SOL     OW 3650   3.531   3.249   2.029
 1172SOL    HW1 3651   3.541   3.284   1.941
 1172SOL    HW2 3652   3.508   3.325   2.083
 1173SOL     OW 3653   0.345   3.781   1.267
 1173SOL    HW1 3654   0.342   3.697   1.312
 1173SOL    HW2 3655   0.437   3.795   1.246
 1174SOL     OW 3656   0.325   2.283   0.760
 1174SOL    HW1 3657   0.370   2.301   0.677
 1174SOL    HW2 3658   0.244   2.333   0.755
 1175SOL     OW 3659   0.774   2.004   1.056
 1175SOL    HW1 3660   0.866   1.983   1.044
 1175SOL    HW2 3661   0.738   2.007   0.967
 1176SOL     OW 3662   2.804   1.464   3.986
 1176SOL    HW1 3663   2.711   1.457   3.965
 1176SOL    HW2 3664   2.847   1.485   3.903
 1177SOL     OW 3665   2.962   0.761   0.824
 1177SOL    HW1 3666   3.003   0.810   0.896
 1177SOL    HW2 3667   2.963   0.670   0.854
 1178SOL     OW 3668   0.426   1.906   3.464
 1178SOL    HW1 3669   0.426   1.856   3.545
 1178SOL    HW2 3670   0.350   1.963   3.470
 1179SOL     OW 3671   1.648   3.162   0.895
 1179SOL    HW1 3672   1.614   3.244   0.932
 1179SOL    HW2 3673   1.588   3.142   0.823
 1180SOL     OW 3674   1.761   1.380   0.283
 1180SOL    HW1 3675   1.788   1.388   0.374
 1180SOL    HW2 3676   1.666   1.395   0.284
 1181SOL     OW 3677   2.732   1.458   3.391
 1181SOL    HW1 3678   2.750   1.529   3.329
 1181SOL    HW2 3679   2.652   1.486   3.436
 1182SOL     OW 3680   0.954   3.425   3.032
 1182SOL    HW1 3681   0.969   3.378   2.949
 1182SOL    HW2 3682   1.032   3.479   3.043
 1183SOL     OW 3683   0.475   3.640   2.593
 1183SOL    HW1 3684   0.544   3.707   2.597
 1183SOL    HW2 3685   0.443   3.644   2.503
 1184SOL     OW 3686   2.603   3.045   2.664
 1184SOL    HW1 3687   2.676   3.088   2.619
 1184SOL    HW2 3688   2.556   3.116   2.707
 1185SOL     OW 3689   2.632   2.255   3.761
 1185SOL    HW1 3690   2.611   2.348   3.754
 1185SOL    HW2 3691   2.722   2.248   3.731
 1186SOL     OW 3692   2.487   0.773   1.039
 1186SOL    HW1 3693   2.514   0.858   1.074
 1186SOL    HW2 3694   2.560   0.746   0.983
 1187SOL     OW 3695   3.862   0.599   3.826
 1187SOL    HW1 3696   3.923   0.530   3.800
 1187SOL    HW2 3697   3.899   0.679   3.789
 1188SOL     OW 3698   0.446   1.356   2.349
 1188SOL    HW1 3699   0.424   1.395   2.264
 1188SOL    HW2 3700   0.536   1.325   2.339
 1189SOL     OW 3701   3.103   3.481   3.147
 1189SOL    HW1 3702   3.027   3.461   3.094
 1189SOL    HW2 3703   3.178   3.466   3.089
 1190SOL     OW 3704   1.076   3.744   2.743
 1190SOL    HW1 3705   1.034   3.753   2.829
 1190SOL    HW2 3706   1.135   3.819   2.738
 1191SOL     OW 3707   3.896   1.968   3.619
 1191SOL    HW1 3708   3.838   1.950   3.544
 1191SOL    HW2 3709   3.893   1.889   3.672
 1192SOL     OW 3710   0.554   0.376   0.066
 1192SOL    HW1 3711   0.471   0.328   0.068
 1192SOL    HW2 3712   0.530   0.462   0.031
 1193SOL     OW 3713   3.380   3.902   3.866
 1193SOL    HW1 3714   3.421   3.821   3.834
 1193SOL    HW2 3715   3.387   3.896   3.961
 1194SOL     OW 3716   0.068   2.690   3.737
 1194SOL    HW1 3717   0.042   2.734   3.656
 1194SOL    HW2 3718  -0.008   2.635   3.759
 1195SOL     OW 3719   2.807   1.113   1.029
 1195SOL    HW1 3720   2.846   1.200   1.025
 1195SOL    HW2 3721   2.874   1.055   0.992
 1196SOL     OW 3722   3.645   2.631   1.392
 1196SOL    HW1 3723   3.551   2.630   1.373
 1196SOL    HW2 3724   3.663   2.545   1.429
 1197SOL     OW 3725   1.225   2.206   2.536
 1197SOL    HW1 3726   1.314   2.173   2.520
 1197SOL    HW2 3727   1.170   2.157   2.475
 1198SOL     OW 3728   2.885   1.466   3.723
 1198SOL    HW1 3729   2.980   1.474   3.716
 1198SOL    HW2 3730   2.851   1.543   3.677
 1199SOL     OW 3731   0.080   2.028   2.906
 1199SOL    HW1 3732   0.014   2.083   2.864
 1199SOL    HW2 3733   0.145   2.090   2.940
 1200SOL     OW 3734   1.380   0.961   3.298
 1200SOL    HW1 3735   1.469   0.944   3.330
 1200SOL    HW2 3736   1.393   1.004   3.214
 1201SOL     OW 3737   1.229   3.988   2.502
 1201SOL    HW1 3738   1.191   3.907   2.468
 1201SOL    HW2 3739   1.221   3.981   2.597
 1202SOL     OW 3740   2.160   3.061   2.903
 1202SOL    HW1 3741   2.108   2.981   2.898
 1202SOL    HW2 3742   2.097   3.129   2.925
 1203SOL     OW 3743   1.293   1.924   2.473
 1203SOL    HW1 3744   1.288   1.911   2.567
 1203SOL    HW2 3745   1.205   1.952   2.448
 1204SOL     OW 3746   0.475   1.595   3.238
 1204SOL    HW1 3747   0.542   1.664   3.240
 1204SOL    HW2 3748   0.392   1.643   3.238
 1205SOL     OW 3749   2.336   1.630   3.273
 1205SOL    HW1 3750   2.421   1.674   3.270
 1205SOL    HW2 3751   2.336   1.583   3.356
 1206SOL     OW 3752   0.724   3.693   2.288
 1206SOL    HW1 3753   0.728   3.724   2.198
 1206SOL    HW2 3754   0.635   3.716   2.317
 1207SOL     OW 3755   0.585   3.227   2.357
 1207SOL    HW1 3756   0.634   3.277   2.422
 1207SOL    HW2 3757   0.571   3.287   2.284
 1208SOL     OW 3758   1.866   1.722   2.545
 1208SOL    HW1 3759   1.862   1.700   2.638
 1208SOL    HW2 3760   1.836   1.642   2.500
 1209SOL     OW 3761   0.126   0.722   2.492
 1209SOL    HW1 3762   0.170   0.657   2.547
 1209SOL    HW2 3763   0.097   0.790   2.553
 1210SOL     OW 3764   1.012   0.371   0.985
 1210SOL    HW1 3765   0.947   0.396   1.051
 1210SOL    HW2 3766   0.986   0.284   0.957
 1211SOL     OW 3767   1.895   1.766   1.252
 1211SOL    HW1 3768   1.976   1.729   1.218
 1211SOL    HW2 3769   1.873   1.836   1.189
 1212SOL     OW 3770   1.583   0.031   1.822
 1212SOL    HW1 3771   1.569  -0.061   1.800
 1212SOL    HW2 3772   1.504   0.057   1.869
 1213SOL     OW 3773   2.103   0.967   1.399
 1213SOL    HW1 3774   2.099   1.019   1.319
 1213SOL    HW2 3775   2.076   1.028   1.468
 1214SOL     OW 3776   1.788   1.106   2.070
 1214SOL    HW1 3777   1.873   1.150   2.079
 1214SOL    HW2 3778   1.798   1.051   1.992
 1215SOL     OW 3779   3.648   1.376   3.834
 1215SOL    HW1 3780   3.621   1.368   3.743
 1215SOL    HW2 3781   3.743   1.360   3.832
 1216SOL     OW 3782   0.607   3.263   3.775
 1216SOL    HW1 3783   0.692   3.246   3.733
 1216SOL    HW2 3784   0.626   3.263   3.869
 1217SOL     OW 3785   1.537   0.283   1.369
 1217SOL    HW1 3786   1.603   0.260   1.303
 1217SOL    HW2 3787   1.547   0.217   1.437
 1218SOL     OW 3788   3.690   0.046   0.457
 1218SOL    HW1 3789   3.711   0.132   0.421
 1218SOL    HW2 3790   3.597   0.033   0.437
 1219SOL     OW 3791   2.218   3.780   2.679
 1219SOL    HW1 3792   2.130   3.768   2.644
 1219SOL    HW2 3793   2.273   3.795   2.602
 1220SOL     OW 3794   2.864   0.164   1.933
 1220SOL    HW1 3795   2.790   0.225   1.941
 1220SOL    HW2 3796   2.934   0.215   1.893
 1221SOL     OW 3797   1.388   3.035   3.417
 1221SOL    HW1 3798   1.447   3.014   3.489
 1221SOL    HW2 3799   1.301   3.008   3.448
 1222SOL     OW 3800   1.082   3.758   1.019
 1222SOL    HW1 3801   1.130   3.685   1.058
 1222SOL    HW2 3802   1.082   3.739   0.926
 1223SOL     OW 3803   2.601   3.095   3.076
 1223SOL    HW1 3804   2.695   3.089   3.061
 1223SOL    HW2 3805   2.564   3.019   3.030
 1224SOL     OW 3806   3.013   0.250   2.674
 1224SOL    HW1 3807   3.105   0.235   2.697
 1224SOL    HW2 3808   2.968   0.253   2.758
 1225SOL     OW 3809   0.444   0.281   2.895
 1225SOL    HW1 3810   0.537   0.275   2.917
 1225SOL    HW2 3811   0.400   0.277   2.980
 1226SOL     OW 3812   3.036   2.302   2.636
 1226SOL    HW1 3813   3.131   2.300   2.625
 1226SOL    HW2 3814   3.016   2.222   2.685
 1227SOL     OW 3815   1.043   1.122   2.107
 1227SOL    HW1 3816   0.966   1.067   2.090
 1227SOL    HW2 3817   1.061   1.111   2.200
 1228SOL     OW 3818   1.090   0.052   1.212
 1228SOL    HW1 3819   1.108  -0.040   1.234
 1228SOL    HW2 3820   1.108   0.059   1.119
 1229SOL     OW 3821   2.970   1.326   0.891
 1229SOL    HW1 3822   2.915   1.390   0.846
 1229SOL    HW2 3823   2.955   1.244   0.844
 1230SOL     OW 3824   2.413   3.852   0.046
 1230SOL    HW1 3825   2.458   3.850  -0.038
 1230SOL    HW2 3826   2.321   3.862   0.024
 1231SOL     OW 3827   0.174   2.937   3.152
 1231SOL    HW1 3828   0.259   2.895   3.164
 1231SOL    HW2 3829   0.191   3.030   3.168
 1232SOL     OW 3830   1.937   3.737   0.038
 1232SOL    HW1 3831   1.875   3.692  -0.020
 1232SOL    HW2 3832   1.969   3.669   0.098
 1233SOL     OW 3833   2.409   0.970   2.421
 1233SOL    HW1 3834   2.465   0.924   2.484
 1233SOL    HW2 3835   2.407   1.060   2.453
 1234SOL     OW 3836   0.537   0.738   0.305
 1234SOL    HW1 3837   0.542   0.755   0.211
 1234SOL    HW2 3838   0.563   0.821   0.346
 1235SOL     OW 3839   1.599   1.490   3.278
 1235SOL    HW1 3840   1.581   1.396   3.266
 1235SOL    HW2 3841   1.640   1.517   3.196
 1236SOL     OW 3842   3.487   0.878   2.116
 1236SOL    HW1 3843   3.549   0.943   2.083
 1236SOL    HW2 3844   3.504   0.800   2.063
 1237SOL     OW 3845   1.997   0.962   2.231
 1237SOL    HW1 3846   1.978   0.916   2.149
 1237SOL    HW2 3847   2.079   1.010   2.213
 1238SOL     OW 3848   2.751   1.211   2.285
 1238SOL    HW1 3849   2.666   1.217   2.330
 1238SOL    HW2 3850   2.729   1.179   2.198
 1239SOL     OW 3851   3.828   1.339   1.231
 1239SOL    HW1 3852   3.842   1.273   1.163
 1239SOL    HW2 3853   3.754   1.391   1.198
 1240SOL     OW 3854   1.724   1.261   1.012
 1240SOL    HW1 3855   1.712   1.171   1.044
 1240SOL    HW2 3856   1.802   1.256   0.957
 1241SOL     OW 3857   1.933   2.897   2.011
 1241SOL    HW1 3858   1.871   2.864   2.076
 1241SOL    HW2 3859   1.996   2.826   1.999
 1242SOL     OW 3860   3.463   1.599   3.732
 1242SOL    HW1 3861   3.519   1.553   3.795
 1242SOL    HW2 3862   3.523   1.626   3.662
 1243SOL     OW 3863   0.453   3.933   2.048
 1243SOL    HW1 3864   0.394   3.934   1.972
 1243SOL    HW2 3865   0.499   3.850   2.042
 1244SOL     OW 3866   2.581   3.742   3.435
 1244SOL    HW1 3867   2.488   3.729   3.453
 1244SOL    HW2 3868   2.584   3.774   3.345
 1245SOL     OW 3869   3.234   1.667   1.551
 1245SOL    HW1 3870   3.176   1.603   1.593
 1245SOL    HW2 3871   3.322   1.634   1.567
 1246SOL     OW 3872   3.841   3.061   1.823
 1246SOL    HW1 3873   3.834   3.153   1.796
 1246SOL    HW2 3874   3.857   3.065   1.917
 1247SOL     OW 3875   1.124   0.132   1.888
 1247SOL    HW1 3876   1.057   0.162   1.950
 1247SOL    HW2 3877   1.117   0.193   1.815
 1248SOL     OW 3878   0.795   0.232   3.957
 1248SOL    HW1 3879   0.719   0.277   3.992
 1248SOL    HW2 3880   0.856   0.303   3.934
 1249SOL     OW 3881   2.198   1.873   1.497
 1249SOL    HW1 3882   2.132   1.880   1.565
 1249SOL    HW2 3883   2.188   1.784   1.462
 1250SOL     OW 3884   1.985   0.605   1.135
 1250SOL    HW1 3885   2.076   0.595   1.164
 1250SOL    HW2 3886   1.944   0.658   1.203
 1251SOL     OW 3887   0.193   1.861   1.147
 1251SOL    HW1 3888   0.160   1.819   1.067
 1251SOL    HW2 3889   0.225   1.946   1.119
 1252SOL     OW 3890   1.442   3.674   0.982
 1252SOL    HW1 3891   1.512   3.684   0.917
 1252SOL    HW2 3892   1.454   3.749   1.041
 1253SOL     OW 3893   0.714   3.352   0.052
 1253SOL    HW1 3894   0.743   3.417   0.116
 1253SOL    HW2 3895   0.708   3.270   0.102
 1254SOL     OW 3896   3.646   0.341   1.726
 1254SOL    HW1 3897   3.705   0.393   1.781
 1254SOL    HW2 3898   3.697   0.263   1.704
 1255SOL     OW 3899   2.680   2.049   0.712
 1255SOL    HW1 3900   2.585   2.058   0.722
 1255SOL    HW2 3901   2.703   2.113   0.645
 1256SOL     OW 3902   0.818   2.780   1.230
 1256SOL    HW1 3903   0.810   2.761   1.137
 1256SOL    HW2 3904   0.762   2.716   1.273
 1257SOL     OW 3905   2.550   1.181   3.475
 1257SOL    HW1 3906   2.632   1.193   3.523
 1257SOL    HW2 3907   2.547   1.088   3.454
 1258SOL     OW 3908   1.119   1.123   3.323
 1258SOL    HW1 3909   1.043   1.080   3.284
 1258SOL    HW2 3910   1.134   1.077   3.405
 1259SOL     OW 3911   0.001   1.793   1.300
 1259SOL    HW1 3912   0.085   1.814   1.260
 1259SOL    HW2 3913  -0.038   1.877   1.322
 1260SOL     OW 3914   2.985   0.936   0.456
 1260SOL    HW1 3915   3.031   1.020   0.450
 1260SOL    HW2 3916   3.049   0.876   0.494
 1261SOL     OW 3917   2.972   2.588   2.018
 1261SOL    HW1 3918   2.941   2.593   2.108
 1261SOL    HW2 3919   3.007   2.676   2.000
 1262SOL     OW 3920   0.403   0.267   3.444
 1262SOL    HW1 3921   0.474   0.221   3.487
 1262SOL    HW2 3922   0.326   0.211   3.457
 1263SOL     OW 3923   2.276   1.853   2.174
 1263SOL    HW1 3924   2.192   1.897   2.189
 1263SOL    HW2 3925   2.339   1.925   2.163
 1264SOL     OW 3926   0.330   2.941   2.550
 1264SOL    HW1 3927   0.288   3.025   2.570
 1264SOL    HW2 3928   0.258   2.879   2.540
 1265SOL     OW 3929   2.433   0.973   0.684
 1265SOL    HW1 3930   2.438   1.067   0.662
 1265SOL    HW2 3931   2.445   0.929   0.600
 1266SOL     OW 3932   1.518   2.193   0.818
 1266SOL    HW1 3933   1.558   2.108   0.831
 1266SOL    HW2 3934   1.555   2.249   0.886
 1267SOL     OW 3935   2.805   0.773   2.279
 1267SOL    HW1 3936   2.818   0.843   2.342
 1267SOL    HW2 3937   2.882   0.777   2.222
 1268SOL     OW 3938   0.299   2.966   2.189
 1268SOL    HW1 3939   0.219   2.953   2.240
 1268SOL    HW2 3940   0.369   2.962   2.254
 1269SOL     OW 3941   1.440   2.763   2.511
 1269SOL    HW1 3942   1.377   2.727   2.574
 1269SOL    HW2 3943   1.524   2.760   2.557
 1270SOL     OW 3944   2.808   2.881   2.745
 1270SOL    HW1 3945   2.820   2.830   2.665
 1270SOL    HW2 3946   2.748   2.951   2.721
 1271SOL     OW 3947   1.384   1.532   1.697
 1271SOL    HW1 3948   1.423   1.457   1.742
 1271SOL    HW2 3949   1.442   1.605   1.716
 1272SOL     OW 3950   0.072   1.687   2.710
 1272SOL    HW1 3951   0.060   1.782   2.710
 1272SOL    HW2 3952   0.050   1.661   2.620
 1273SOL     OW 3953   3.941   1.560   0.215
 1273SOL    HW1 3954   3.851   1.529   0.223
 1273SOL    HW2 3955   3.972   1.524   0.131
 1274SOL     OW 3956   2.631   0.888   2.987
 1274SOL    HW1 3957   2.640   0.833   2.909
 1274SOL    HW2 3958   2.560   0.848   3.037
 1275SOL     OW 3959   3.255   3.015   1.752
 1275SOL    HW1 3960   3.296   3.062   1.680
 1275SOL    HW2 3961   3.326   2.964   1.792
 1276SOL     OW 3962   1.589   0.272   1.689
 1276SOL    HW1 3963   1.660   0.303   1.746
 1276SOL    HW2 3964   1.571   0.183   1.720
 1277SOL     OW 3965   0.987   0.625   2.185
 1277SOL    HW1 3966   1.020   0.683   2.116
 1277SOL    HW2 3967   0.903   0.663   2.211
 1278SOL     OW 3968   1.763   0.107   0.030
 1278SOL    HW1 3969   1.757   0.173   0.099
 1278SOL    HW2 3970   1.720   0.030   0.067
 1279SOL     OW 3971   3.467   1.018   0.927
 1279SOL    HW1 3972   3.529   0.962   0.974
 1279SOL    HW2 3973   3.498   1.107   0.942
 1280SOL     OW 3974   3.085   3.023   3.145
 1280SOL    HW1 3975   3.076   2.960   3.074
 1280SOL    HW2 3976   3.180   3.029   3.161
 1281SOL     OW 3977   2.369   0.450   3.893
 1281SOL    HW1 3978   2.453   0.482   3.927
 1281SOL    HW2 3979   2.310   0.524   3.902
 1282SOL     OW 3980   3.165   3.700   3.305
 1282SOL    HW1 3981   3.149   3.632   3.240
 1282SOL    HW2 3982   3.103   3.770   3.284
 1283SOL     OW 3983   3.541   0.814   3.496
 1283SOL    HW1 3984   3.579   0.819   3.584
 1283SOL    HW2 3985   3.617   0.804   3.438
 1284SOL     OW 3986   3.226   3.353   1.836
 1284SOL    HW1 3987   3.278   3.274   1.853
 1284SOL    HW2 3988   3.214   3.353   1.741
 1285SOL     OW 3989   0.923   1.251   0.564
 1285SOL    HW1 3990   0.953   1.322   0.620
 1285SOL    HW2 3991   0.968   1.266   0.480
 1286SOL     OW 3992   0.572   0.218   2.668
 1286SOL    HW1 3993   0.501   0.230   2.732
 1286SOL    HW2 3994   0.619   0.301   2.668
 1287SOL     OW 3995   3.766   0.474   0.258
 1287SOL    HW1 3996   3.692   0.474   0.320
 1287SOL    HW2 3997   3.724   0.465   0.172
 1288SOL     OW 3998   1.582   1.008   1.853
 1288SOL    HW1 3999   1.673   1.004   1.823
 1288SOL    HW2 4000   1.532   0.966   1.783
 1289SOL     OW 4001   3.309   2.010   1.428
 1289SOL    HW1 4002   3.232   1.953   1.422
 1289SOL    HW2 4003   3.383   1.949   1.430
 1290SOL     OW 4004   2.669   2.485   1.199
 1290SOL    HW1 4005   2.732   2.416   1.218
 1290SOL    HW2 4006   2.715   2.544   1.139
 1291SOL     OW 4007   1.684   3.955   0.746
 1291SOL    HW1 4008   1.671   3.862   0.760
 1291SOL    HW2 4009   1.735   3.961   0.665
 1292SOL     OW 4010   1.988   2.571   0.314
 1292SOL    HW1 4011   1.933   2.598   0.240
 1292SOL    HW2 4012   1.994   2.476   0.305
 1293SOL     OW 4013   2.867   0.422   3.074
 1293SOL    HW1 4014   2.892   0.360   3.142
 1293SOL    HW2 4015   2.851   0.504   3.120
 1294SOL     OW 4016   3.301   1.222   0.166
 1294SOL    HW1 4017   3.365   1.290   0.187
 1294SOL    HW2 4018   3.306   1.161   0.240
 1295SOL     OW 4019   1.182   2.485   3.351
 1295SOL    HW1 4020   1.182   2.443   3.437
 1295SOL    HW2 4021   1.160   2.576   3.369
 1296SOL     OW 4022   0.873   2.112   3.597
 1296SOL    HW1 4023   0.811   2.118   3.670
 1296SOL    HW2 4024   0.831   2.160   3.526
 1297SOL     OW 4025   3.010   3.607   2.735
 1297SOL    HW1 4026   3.068   3.531   2.727
 1297SOL    HW2 4027   3.068   3.678   2.764
 1298SOL     OW 4028   3.649   2.571   0.529
 1298SOL    HW1 4029   3.659   2.555   0.623
 1298SOL    HW2 4030   3.634   2.665   0.522
 1299SOL     OW 4031   0.203   3.976   1.650
 1299SOL    HW1 4032   0.279   3.930   1.685
 1299SOL    HW2 4033   0.128   3.930   1.687
 1300SOL     OW 4034   1.322   0.247   0.938
 1300SOL    HW1 4035   1.251   0.204   0.890
 1300SOL    HW2 4036   1.279   0.282   1.016
 1301SOL     OW 4037   2.377   0.123   2.561
 1301SOL    HW1 4038   2.423   0.044   2.534
 1301SOL    HW2 4039   2.423   0.152   2.640
 1302SOL     OW 4040   2.695   3.548   2.265
 1302SOL    HW1 4041   2.644   3.609   2.213
 1302SOL    HW2 4042   2.729   3.601   2.337
 1303SOL     OW 4043   0.586   0.941   2.203
 1303SOL    HW1 4044   0.669   0.958   2.247
 1303SOL    HW2 4045   0.520   0.983   2.258
 1304SOL     OW 4046   2.494   3.574   0.206
 1304SOL    HW1 4047   2.570   3.582   0.262
 1304SOL    HW2 4048   2.506   3.643   0.140
 1305SOL     OW 4049   0.945   3.778   2.429
 1305SOL    HW1 4050   0.854   3.751   2.422
 1305SOL    HW2 4051   0.994   3.696   2.436
 1306SOL     OW 4052   0.245   0.415   2.435
 1306SOL    HW1 4053   0.283   0.375   2.514
 1306SOL    HW2 4054   0.153   0.390   2.438
 1307SOL     OW 4055   0.741   0.663   2.287
 1307SOL    HW1 4056   0.681   0.710   2.230
 1307SOL    HW2 4057   0.685   0.601   2.335
 1308SOL     OW 4058   3.228   1.316   1.767
 1308SOL    HW1 4059   3.290   1.317   1.694
 1308SOL    HW2 4060   3.281   1.341   1.843
 1309SOL     OW 4061   3.160   0.942   0.138
 1309SOL    HW1 4062   3.225   0.966   0.072
 1309SOL    HW2 4063   3.124   0.859   0.109
 1310SOL     OW 4064   1.634   2.694   2.907
 1310SOL    HW1 4065   1.557   2.664   2.860
 1310SOL    HW2 4066   1.606   2.700   2.998
 1311SOL     OW 4067   1.183   0.612   2.779
 1311SOL    HW1 4068   1.209   0.580   2.865
 1311SOL    HW2 4069   1.246   0.573   2.718
 1312SOL     OW 4070   3.606   2.836   0.532
 1312SOL    HW1 4071   3.557   2.890   0.593
 1312SOL    HW2 4072   3.697   2.861   0.545
 1313SOL     OW 4073   0.484   3.565   1.007
 1313SOL    HW1 4074   0.472   3.511   0.929
 1313SOL    HW2 4075   0.508   3.651   0.973
 1314SOL     OW 4076   1.957   3.328   0.877
 1314SOL    HW1 4077   1.978   3.368   0.793
 1314SOL    HW2 4078   1.869   3.292   0.865
 1315SOL     OW 4079   1.052   1.905   1.055
 1315SOL    HW1 4080   1.113   1.844   1.096
 1315SOL    HW2 4081   1.090   1.992   1.072
 1316SOL     OW 4082   3.303   1.496   0.430
 1316SOL    HW1 4083   3.295   1.417   0.377
 1316SOL    HW2 4084   3.237   1.486   0.499
 1317SOL     OW 4085   1.547   2.419   2.959
 1317SOL    HW1 4086   1.631   2.373   2.948
 1317SOL    HW2 4087   1.529   2.412   3.053
 1318SOL     OW 4088   0.300   3.380   1.712
 1318SOL    HW1 4089   0.271   3.335   1.792
 1318SOL    HW2 4090   0.363   3.319   1.672
 1319SOL     OW 4091   3.192   0.550   3.818
 1319SOL    HW1 4092   3.259   0.485   3.796
 1319SOL    HW2 4093   3.214   0.626   3.765
 1320SOL     OW 4094   2.593   3.523   0.650
 1320SOL    HW1 4095   2.654   3.543   0.721
 1320SOL    HW2 4096   2.507   3.545   0.685
 1321SOL     OW 4097   0.158   2.730   0.166
 1321SOL    HW1 4098   0.169   2.665   0.235
 1321SOL    HW2 4099   0.092   2.791   0.202
 1322SOL     OW 4100   0.178   2.198   2.084
 1322SOL    HW1 4101   0.138   2.281   2.058
 1322SOL    HW2 4102   0.272   2.218   2.089
 1323SOL     OW 4103   3.753   2.585   0.788
 1323SOL    HW1 4104   3.779   2.628   0.870
 1323SOL    HW2 4105   3.834   2.546   0.755
 1324SOL     OW 4106   2.669   1.155   3.034
 1324SOL    HW1 4107   2.651   1.061   3.037
 1324SOL    HW2 4108   2.672   1.176   2.941
 1325SOL     OW 4109   0.499   3.149   2.991
 1325SOL    HW1 4110   0.529   3.068   3.032
 1325SOL    HW2 4111   0.541   3.149   2.905
 1326SOL     OW 4112   1.416   1.741   3.723
 1326SOL    HW1 4113   1.349   1.674   3.711
 1326SOL    HW2 4114   1.424   1.751   3.818
 1327SOL     OW 4115   3.371   3.021   3.263
 1327SOL    HW1 4116   3.334   3.056   3.344
 1327SOL    HW2 4117   3.466   3.018   3.280
 1328SOL     OW 4118   2.301   3.668   3.759
 1328SOL    HW1 4119   2.228   3.728   3.778
 1328SOL    HW2 4120   2.302   3.607   3.833
 1329SOL     OW 4121   3.741   1.314   2.294
 1329SOL    HW1 4122   3.807   1.365   2.247
 1329SOL    HW2 4123   3.658   1.357   2.273
 1330SOL     OW 4124   1.934   2.713   1.612
 1330SOL    HW1 4125   1.861   2.765   1.579
 1330SOL    HW2 4126   2.008   2.737   1.556
 1331SOL     OW 4127   3.360   1.776   3.917
 1331SOL    HW1 4128   3.373   1.730   3.835
 1331SOL    HW2 4129   3.319   1.712   3.975
 1332SOL     OW 4130   1.572   3.606   3.688
 1332SOL    HW1 4131   1.540   3.697   3.684
 1332SOL    HW2 4132   1.514   3.558   3.630
 1333SOL     OW 4133   2.474   1.453   1.888
 1333SOL    HW1 4134   2.536   1.508   1.936
 1333SOL    HW2 4135   2.483   1.482   1.797
 1334SOL     OW 4136   0.937   0.899   3.649
 1334SOL    HW1 4137   1.019   0.930   3.612
 1334SOL    HW2 4138   0.950   0.806   3.663
 1335SOL     OW 4139   3.511   0.611   1.737
 1335SOL    HW1 4140   3.514   0.516   1.737
 1335SOL    HW2 4141   3.421   0.632   1.712
 1336SOL     OW 4142   3.152   3.875   1.805
 1336SOL    HW1 4143   3.216   3.947   1.795
 1336SOL    HW2 4144   3.202   3.804   1.845
 1337SOL     OW 4145   2.817   0.671   2.568
 1337SOL    HW1 4146   2.882   0.601   2.578
 1337SOL    HW2 4147   2.817   0.691   2.475
 1338SOL     OW 4148   2.049   2.361   2.767
 1338SOL    HW1 4149   1.969   2.409   2.788
 1338SOL    HW2 4150   2.024   2.303   2.695
 1339SOL     OW 4151  -0.010   0.801   1.310
 1339SOL    HW1 4152  -0.011   0.809   1.214
 1339SOL    HW2 4153   0.023   0.885   1.340
 1340SOL     OW 4154   3.211   3.025   3.526
 1340SOL    HW1 4155   3.167   2.974   3.594
 1340SOL    HW2 4156   3.214   3.114   3.561
 1341SOL     OW 4157   3.427   0.371   0.135
 1341SOL    HW1 4158   3.501   0.405   0.085
 1341SOL    HW2 4159   3.373   0.326   0.071
 1342SOL     OW 4160   3.658   0.532   3.254
 1342SOL    HW1 4161   3.566   0.525   3.279
 1342SOL    HW2 4162   3.685   0.619   3.285
 1343SOL     OW 4163   1.551   2.585   0.219
 1343SOL    HW1 4164   1.639   2.609   0.191
 1343SOL    HW2 4165   1.536   2.500   0.178
 1344SOL     OW 4166   0.319   1.545   1.687
 1344SOL    HW1 4167   0.279   1.476   1.740
 1344SOL    HW2 4168   0.377   1.497   1.627
 1345SOL     OW 4169   0.979   1.714   0.852
 1345SOL    HW1 4170   1.032   1.634   0.852
 1345SOL    HW2 4171   0.963   1.733   0.944
 1346SOL     OW 4172   1.776   2.279   1.464
 1346SOL    HW1 4173   1.843   2.339   1.499
 1346SOL    HW2 4174   1.823   2.197   1.451
 1347SOL     OW 4175   1.043   0.297   1.685
 1347SOL    HW1 4176   0.951   0.324   1.694
 1347SOL    HW2 4177   1.048   0.256   1.599
 1348SOL     OW 4178   1.874   1.174   3.381
 1348SOL    HW1 4179   1.933   1.162   3.307
 1348SOL    HW2 4180   1.796   1.124   3.358
 1349SOL     OW 4181   1.531   0.208   3.878
 1349SOL    HW1 4182   1.539   0.301   3.902
 1349SOL    HW2 4183   1.620   0.173   3.890
 1350SOL     OW 4184   0.212   0.816   2.910
 1350SOL    HW1 4185   0.140   0.826   2.848
 1350SOL    HW2 4186   0.276   0.882   2.882
 1351SOL     OW 4187   0.102   1.331   1.625
 1351SOL    HW1 4188   0.189   1.298   1.645
 1351SOL    HW2 4189   0.102   1.344   1.530
 1352SOL     OW 4190   0.193   2.019   0.923
 1352SOL    HW1 4191   0.130   2.087   0.946
 1352SOL    HW2 4192   0.173   1.997   0.832
 1353SOL     OW 4193   0.716   1.712   2.373
 1353SOL    HW1 4194   0.767   1.667   2.305
 1353SOL    HW2 4195   0.652   1.763   2.323
 1354SOL     OW 4196   2.865   3.882   1.769
 1354SOL    HW1 4197   2.961   3.886   1.767
 1354SOL    HW2 4198   2.839   3.967   1.805
 1355SOL     OW 4199   0.676   2.048   3.122
 1355SOL    HW1 4200   0.691   1.989   3.196
 1355SOL    HW2 4201   0.597   2.013   3.080
 1356SOL     OW 4202   0.646   0.044   1.538
 1356SOL    HW1 4203   0.593   0.122   1.555
 1356SOL    HW2 4204   0.620   0.016   1.450
 1357SOL     OW 4205   0.971   0.448   1.965
 1357SOL    HW1 4206   1.021   0.489   1.895
 1357SOL    HW2 4207   0.998   0.493   2.044
 1358SOL     OW 4208   1.238   0.584   1.003
 1358SOL    HW1 4209   1.269   0.555   1.089
 1358SOL    HW2 4210   1.161   0.529   0.986
 1359SOL     OW 4211   0.778   0.739   3.153
 1359SOL    HW1 4212   0.835   0.684   3.100
 1359SOL    HW2 4213   0.723   0.785   3.089
 1360SOL     OW 4214   3.239   0.053   0.589
 1360SOL    HW1 4215   3.217   0.064   0.497
 1360SOL    HW2 4216   3.176  -0.012   0.621
 1361SOL     OW 4217   3.214   3.298   3.571
 1361SOL    HW1 4218   3.131   3.307   3.525
 1361SOL    HW2 4219   3.277   3.345   3.516
 1362SOL     OW 4220   0.775   1.831   1.246
 1362SOL    HW1 4221   0.780   1.892   1.172
 1362SOL    HW2 4222   0.730   1.754   1.210
 1363SOL     OW 4223   1.523   2.201   0.325
 1363SOL    HW1 4224   1.546   2.294   0.330
 1363SOL    HW2 4225   1.561   2.163   0.404
 1364SOL     OW 4226   0.213   0.900   0.619
 1364SOL    HW1 4227   0.304   0.883   0.595
 1364SOL    HW2 4228   0.172   0.814   0.620
 1365SOL     OW 4229   0.372   1.318   1.849
 1365SOL    HW1 4230   0.463   1.344   1.865
 1365SOL    HW2 4231   0.342   1.285   1.934
 1366SOL     OW 4232   0.554   2.073   1.649
 1366SOL    HW1 4233   0.602   2.128   1.588
 1366SOL    HW2 4234   0.496   2.133   1.695
 1367SOL     OW 4235   2.723   0.566   1.913
 1367SOL    HW1 4236   2.795   0.606   1.863
 1367SOL    HW2 4237   2.693   0.635   1.973
 1368SOL     OW 4238   2.753   0.638   3.921
 1368SOL    HW1 4239   2.701   0.608   3.996
 1368SOL    HW2 4240   2.770   0.731   3.941
 1369SOL     OW 4241   0.545   2.438   1.929
 1369SOL    HW1 4242   0.535   2.382   2.006
 1369SOL    HW2 4243   0.637   2.466   1.933
 1370SOL     OW 4244   2.919   0.637   1.571
 1370SOL    HW1 4245   2.831   0.599   1.557
 1370SOL    HW2 4246   2.977   0.561   1.571
 1371SOL     OW 4247   3.371   2.583   0.766
 1371SOL    HW1 4248   3.393   2.631   0.845
 1371SOL    HW2 4249   3.344   2.650   0.703
 1372SOL     OW 4250   2.056   0.535   0.133
 1372SOL    HW1 4251   2.059   0.453   0.083
 1372SOL    HW2 4252   2.091   0.512   0.219
 1373SOL     OW 4253   3.557   3.220   1.323
 1373SOL    HW1 4254   3.618   3.156   1.361
 1373SOL    HW2 4255   3.589   3.305   1.355
 1374SOL     OW 4256   3.088   1.285  -0.032
 1374SOL    HW1 4257   3.142   1.265   0.045
 1374SOL    HW2 4258   3.004   1.313   0.005
 1375SOL     OW 4259   3.675   2.767   3.413
 1375SOL    HW1 4260   3.719   2.801   3.335
 1375SOL    HW2 4261   3.626   2.691   3.381
 1376SOL     OW 4262   1.071   1.457   1.961
 1376SOL    HW1 4263   1.083   1.453   1.866
 1376SOL    HW2 4264   1.035   1.371   1.985
 1377SOL     OW 4265   0.965   0.262   2.823
 1377SOL    HW1 4266   1.023   0.231   2.893
 1377SOL    HW2 4267   1.007   0.234   2.742
 1378SOL     OW 4268   2.365   0.053   3.648
 1378SOL    HW1 4269   2.329   0.089   3.729
 1378SOL    HW2 4270   2.427  -0.013   3.677
 1379SOL     OW 4271   1.863   2.974   0.150
 1379SOL    HW1 4272   1.915   3.049   0.121
 1379SOL    HW2 4273   1.921   2.899   0.139
 1380SOL     OW 4274   2.507   3.274   2.057
 1380SOL    HW1 4275   2.487   3.305   2.145
 1380SOL    HW2 4276   2.592   3.313   2.037
 1381SOL     OW 4277   2.863   3.175   3.116
 1381SOL    HW1 4278   2.943   3.124   3.106
 1381SOL    HW2 4279   2.891   3.267   3.113
 1382SOL     OW 4280   0.631   2.713   0.387
 1382SOL    HW1 4281   0.586   2.778   0.333
 1382SOL    HW2 4282   0.564   2.650   0.410
 1383SOL     OW 4283   1.148   1.302   1.423
 1383SOL    HW1 4284   1.100   1.227   1.460
 1383SOL    HW2 4285   1.141   1.290   1.329
 1384SOL     OW 4286   2.219   0.109   0.994
 1384SOL    HW1 4287   2.219   0.149   1.081
 1384SOL    HW2 4288   2.226   0.183   0.934
 1385SOL     OW 4289   1.240   0.194   3.956
 1385SOL    HW1 4290   1.216   0.119   3.901
 1385SOL    HW2 4291   1.335   0.202   3.946
 1386SOL     OW 4292   3.069   1.349   1.458
 1386SOL    HW1 4293   3.052   1.261   1.491
 1386SOL    HW2 4294   3.057   1.405   1.535
 1387SOL     OW 4295   1.886   0.327   1.239
 1387SOL    HW1 4296   1.979   0.312   1.257
 1387SOL    HW2 4297   1.881   0.420   1.216
 1388SOL     OW 4298   0.040   1.254   0.195
 1388SOL    HW1 4299  -0.035   1.237   0.139
 1388SOL    HW2 4300   0.011   1.232   0.283
 1389SOL     OW 4301   2.779   2.550   0.155
 1389SOL    HW1 4302   2.714   2.486   0.183
 1389SOL    HW2 4303   2.753   2.572   0.065
 1390SOL     OW 4304   0.847   3.287   0.342
 1390SOL    HW1 4305   0.880   3.301   0.431
 1390SOL    HW2 4306   0.802   3.369   0.320
 1391SOL     OW 4307   3.497   2.611   2.248
 1391SOL    HW1 4308   3.572   2.561   2.280
 1391SOL    HW2 4309   3.424   2.549   2.250
 1392SOL     OW 4310   2.272   3.497   1.588
 1392SOL    HW1 4311   2.232   3.577   1.555
 1392SOL    HW2 4312   2.308   3.522   1.673
 1393SOL     OW 4313   2.850   1.648   2.847
 1393SOL    HW1 4314   2.886   1.622   2.932
 1393SOL    HW2 4315   2.831   1.565   2.803
 1394SOL     OW 4316   3.161   0.165   0.293
 1394SOL    HW1 4317   3.066   0.167   0.281
 1394SOL    HW2 4318   3.186   0.075   0.272
 1395SOL     OW 4319   3.051   0.177   2.974
 1395SOL    HW1 4320   3.010   0.213   3.052
 1395SOL    HW2 4321   2.999   0.098   2.954
 1396SOL     OW 4322   2.492   1.445   3.549
 1396SOL    HW1 4323   2.516   1.353   3.536
 1396SOL    HW2 4324   2.398   1.443   3.567
 1397SOL     OW 4325   3.390   2.532   1.072
 1397SOL    HW1 4326   3.392   2.627   1.062
 1397SOL    HW2 4327   3.303   2.507   1.042
 1398SOL     OW 4328   3.941   3.083   2.052
 1398SOL    HW1 4329   3.894   3.074   2.135
 1398SOL    HW2 4330   4.033   3.088   2.077
 1399SOL     OW 4331   1.411   2.983   1.061
 1399SOL    HW1 4332   1.489   3.012   1.108
 1399SOL    HW2 4333   1.439   2.904   1.014
 1400SOL     OW 4334   1.276   2.713   2.781
 1400SOL    HW1 4335   1.311   2.700   2.869
 1400SOL    HW2 4336   1.230   2.632   2.761
 1401SOL     OW 4337   0.320   3.553   2.785
 1401SOL    HW1 4338   0.387   3.502   2.831
 1401SOL    HW2 4339   0.352   3.559   2.695
 1402SOL     OW 4340   1.124   1.293   2.880
 1402SOL    HW1 4341   1.145   1.325   2.968
 1402SOL    HW2 4342   1.051   1.348   2.851
 1403SOL     OW 4343   3.039   1.892   3.414
 1403SOL    HW1 4344   2.991   1.826   3.463
 1403SOL    HW2 4345   2.971   1.947   3.374
 1404SOL     OW 4346   1.122   3.311   2.814
 1404SOL    HW1 4347   1.161   3.238   2.863
 1404SOL    HW2 4348   1.189   3.379   2.813
 1405SOL     OW 4349   2.626   1.830   2.729
 1405SOL    HW1 4350   2.655   1.755   2.780
 1405SOL    HW2 4351   2.707   1.877   2.708
 1406SOL     OW 4352   2.528   2.705   0.623
 1406SOL    HW1 4353   2.604   2.649   0.608
 1406SOL    HW2 4354   2.479   2.702   0.541
 1407SOL     OW 4355   0.748   1.023   0.756
 1407SOL    HW1 4356   0.781   1.074   0.681
 1407SOL    HW2 4357   0.659   1.055   0.769
 1408SOL     OW 4358   3.323   1.466   1.375
 1408SOL    HW1 4359   3.232   1.441   1.387
 1408SOL    HW2 4360   3.348   1.427   1.291
 1409SOL     OW 4361   0.567   3.473   2.173
 1409SOL    HW1 4362   0.631   3.531   2.215
 1409SOL    HW2 4363   0.616   3.431   2.103
 1410SOL     OW 4364   0.351   1.255   1.535
 1410SOL    HW1 4365   0.414   1.269   1.464
 1410SOL    HW2 4366   0.333   1.161   1.534
 1411SOL     OW 4367   0.902   3.482   2.731
 1411SOL    HW1 4368   0.991   3.453   2.753
 1411SOL    HW2 4369   0.896   3.571   2.767
 1412SOL     OW 4370   1.044   3.503   2.115
 1412SOL    HW1 4371   1.014   3.428   2.167
 1412SOL    HW2 4372   1.024   3.579   2.169
 1413SOL     OW 4373   2.803   3.413   2.020
 1413SOL    HW1 4374   2.755   3.457   2.090
 1413SOL    HW2 4375   2.774   3.457   1.940
 1414SOL     OW 4376   0.859   2.389   3.353
 1414SOL    HW1 4377   0.947   2.361   3.329
 1414SOL    HW2 4378   0.801   2.326   3.309
 1415SOL     OW 4379   1.981   1.460   3.028
 1415SOL    HW1 4380   2.067   1.484   2.993
 1415SOL    HW2 4381   2.000   1.417   3.111
 1416SOL     OW 4382   3.502   1.949   0.577
 1416SOL    HW1 4383   3.446   1.981   0.648
 1416SOL    HW2 4384   3.441   1.916   0.511
 1417SOL     OW 4385   1.293   1.112   2.474
 1417SOL    HW1 4386   1.351   1.164   2.418
 1417SOL    HW2 4387   1.278   1.166   2.550
 1418SOL     OW 4388   3.889   1.585   1.474
 1418SOL    HW1 4389   3.921   1.613   1.388
 1418SOL    HW2 4390   3.846   1.502   1.457
 1419SOL     OW 4391   3.407   3.029   2.248
 1419SOL    HW1 4392   3.339   3.089   2.277
 1419SOL    HW2 4393   3.442   3.068   2.168
 1420SOL     OW 4394   3.273   1.973   0.741
 1420SOL    HW1 4395   3.197   1.950   0.794
 1420SOL    HW2 4396   3.261   1.925   0.659
 1421SOL     OW 4397   1.602   3.766   2.425
 1421SOL    HW1 4398   1.684   3.762   2.375
 1421SOL    HW2 4399   1.572   3.676   2.430
 1422SOL     OW 4400   1.866   2.531   2.923
 1422SOL    HW1 4401   1.833   2.448   2.956
 1422SOL    HW2 4402   1.788   2.580   2.897
 1423SOL     OW 4403   2.867   3.375   3.830
 1423SOL    HW1 4404   2.847   3.412   3.916
 1423SOL    HW2 4405   2.960   3.351   3.835
 1424SOL     OW 4406   1.973   3.065   3.386
 1424SOL    HW1 4407   2.055   3.023   3.411
 1424SOL    HW2 4408   1.989   3.159   3.397
 1425SOL     OW 4409   2.028   2.463   2.011
 1425SOL    HW1 4410   1.974   2.401   2.060
 1425SOL    HW2 4411   2.100   2.410   1.976
 1426SOL     OW 4412   1.362   3.660   2.196
 1426SOL    HW1 4413   1.374   3.607   2.118
 1426SOL    HW2 4414   1.440   3.643   2.249
 1427SOL     OW 4415   0.385   1.997   0.695
 1427SOL    HW1 4416   0.324   2.064   0.724
 1427SOL    HW2 4417   0.330   1.922   0.672
 1428SOL     OW 4418   2.495   1.766   2.066
 1428SOL    HW1 4419   2.553   1.704   2.109
 1428SOL    HW2 4420   2.415   1.765   2.118
 1429SOL     OW 4421   1.533   1.253   2.937
 1429SOL    HW1 4422   1.495   1.328   2.892
 1429SOL    HW2 4423   1.624   1.250   2.908
 1430SOL     OW 4424   1.364   2.394   1.248
 1430SOL    HW1 4425   1.371   2.313   1.197
 1430SOL    HW2 4426   1.325   2.367   1.331
 1431SOL     OW 4427   2.207   1.323   2.875
 1431SOL    HW1 4428   2.241   1.234   2.869
 1431SOL    HW2 4429   2.283   1.375   2.903
 1432SOL     OW 4430   0.977   2.010   3.005
 1432SOL    HW1 4431   0.956   1.933   3.057
 1432SOL    HW2 4432   1.072   2.021   3.015
 1433SOL     OW 4433   0.099   1.708   2.088
 1433SOL    HW1 4434   0.100   1.799   2.117
 1433SOL    HW2 4435   0.168   1.703   2.022
 1434SOL     OW 4436   0.947   3.649   1.365
 1434SOL    HW1 4437   0.973   3.574   1.310
 1434SOL    HW2 4438   0.929   3.610   1.450
 1435SOL     OW 4439   0.887   0.996   3.229
 1435SOL    HW1 4440   0.856   1.035   3.147
 1435SOL    HW2 4441   0.833   0.917   3.239
 1436SOL     OW 4442   1.629   3.886   0.163
 1436SOL    HW1 4443   1.537   3.889   0.136
 1436SOL    HW2 4444   1.634   3.813   0.224
 1437SOL     OW 4445   1.581   0.872   2.155
 1437SOL    HW1 4446   1.608   0.934   2.088
 1437SOL    HW2 4447   1.655   0.812   2.164
 1438SOL     OW 4448   2.870   0.992   2.443
 1438SOL    HW1 4449   2.844   1.062   2.383
 1438SOL    HW2 4450   2.930   1.035   2.504
 1439SOL     OW 4451   3.805   3.553   1.534
 1439SOL    HW1 4452   3.785   3.622   1.597
 1439SOL    HW2 4453   3.853   3.487   1.584
 1440SOL     OW 4454   2.410   2.414   0.488
 1440SOL    HW1 4455   2.385   2.405   0.580
 1440SOL    HW2 4456   2.355   2.350   0.442
 1441SOL     OW 4457   2.804   3.799   2.680
 1441SOL    HW1 4458   2.880   3.740   2.681
 1441SOL    HW2 4459   2.730   3.742   2.659
 1442SOL     OW 4460   3.034   0.372   1.576
 1442SOL    HW1 4461   3.122   0.367   1.613
 1442SOL    HW2 4462   3.031   0.301   1.512
 1443SOL     OW 4463   2.328   3.681   3.462
 1443SOL    HW1 4464   2.338   3.595   3.422
 1443SOL    HW2 4465   2.292   3.664   3.549
 1444SOL     OW 4466   1.557   0.787   2.457
 1444SOL    HW1 4467   1.527   0.732   2.385
 1444SOL    HW2 4468   1.562   0.875   2.420
 1445SOL     OW 4469   0.406   0.916   0.082
 1445SOL    HW1 4470   0.315   0.944   0.079
 1445SOL    HW2 4471   0.455   0.996   0.100
 1446SOL     OW 4472   1.898   1.931   2.269
 1446SOL    HW1 4473   1.987   1.927   2.303
 1446SOL    HW2 4474   1.881   1.843   2.236
 1447SOL     OW 4475   2.325   0.162   1.303
 1447SOL    HW1 4476   2.315   0.092   1.368
 1447SOL    HW2 4477   2.416   0.154   1.274
 1448SOL     OW 4478   1.074   2.950   1.297
 1448SOL    HW1 4479   1.035   2.863   1.290
 1448SOL    HW2 4480   1.134   2.943   1.372
 1449SOL     OW 4481   0.454   2.936   3.799
 1449SOL    HW1 4482   0.419   3.020   3.770
 1449SOL    HW2 4483   0.380   2.875   3.794
 1450SOL     OW 4484   1.152   2.109   2.801
 1450SOL    HW1 4485   1.175   2.156   2.881
 1450SOL    HW2 4486   1.195   2.159   2.731
 1451SOL     OW 4487   3.182   0.055   3.379
 1451SOL    HW1 4488   3.231  -0.027   3.388
 1451SOL    HW2 4489   3.186   0.095   3.466
 1452SOL     OW 4490   3.500   2.467   3.122
 1452SOL    HW1 4491   3.557   2.392   3.137
 1452SOL    HW2 4492   3.558   2.543   3.128
 1453SOL     OW 4493   2.861   2.274   3.610
 1453SOL    HW1 4494   2.918   2.342   3.575
 1453SOL    HW2 4495   2.840   2.219   3.535
 1454SOL     OW 4496   0.951   2.456   2.485
 1454SOL    HW1 4497   1.032   2.504   2.474
 1454SOL    HW2 4498   0.940   2.448   2.580
 1455SOL     OW 4499   1.857   1.002   3.746
 1455SOL    HW1 4500   1.932   1.061   3.744
 1455SOL    HW2 4501   1.883   0.931   3.804
 1456SOL     OW 4502   1.878   1.616   0.600
 1456SOL    HW1 4503   1.953   1.662   0.562
 1456SOL    HW2 4504   1.812   1.617   0.531
 1457SOL     OW 4505   1.131   3.821   1.453
 1457SOL    HW1 4506   1.084   3.752   1.406
 1457SOL    HW2 4507   1.085   3.827   1.537
 1458SOL     OW 4508   3.761   2.536   1.819
 1458SOL    HW1 4509   3.671   2.534   1.788
 1458SOL    HW2 4510   3.785   2.629   1.818
 1459SOL     OW 4511   0.375   2.153   3.691
 1459SOL    HW1 4512   0.307   2.118   3.634
 1459SOL    HW2 4513   0.359   2.248   3.693
 1460SOL     OW 4514   0.209   3.517   0.582
 1460SOL    HW1 4515   0.227   3.611   0.578
 1460SOL    HW2 4516   0.218   3.495   0.675
 1461SOL     OW 4517   1.408   2.868   2.013
 1461SOL    HW1 4518   1.443   2.781   1.991
 1461SOL    HW2 4519   1.457   2.893   2.091
 1462SOL     OW 4520   0.188   2.428   3.091
 1462SOL    HW1 4521   0.262   2.465   3.043
 1462SOL    HW2 4522   0.155   2.502   3.143
 1463SOL     OW 4523   2.627   0.325   1.858
 1463SOL    HW1 4524   2.668   0.397   1.906
 1463SOL    HW2 4525   2.648   0.342   1.766
 1464SOL     OW 4526   1.969   3.112   1.761
 1464SOL    HW1 4527   2.060   3.139   1.772
 1464SOL    HW2 4528   1.944   3.075   1.845
 1465SOL     OW 4529   1.287   3.547   2.800
 1465SOL    HW1 4530   1.373   3.542   2.760
 1465SOL    HW2 4531   1.226   3.539   2.727
 1466SOL     OW 4532   1.263   2.662   1.258
 1466SOL    HW1 4533   1.318   2.736   1.233
 1466SOL    HW2 4534   1.324   2.598   1.295
 1467SOL     OW 4535   0.541   2.338   3.023
 1467SOL    HW1 4536   0.551   2.321   3.117
 1467SOL    HW2 4537   0.625   2.313   2.985
 1468SOL     OW 4538   0.444   2.545   0.961
 1468SOL    HW1 4539   0.479   2.457   0.947
 1468SOL    HW2 4540   0.446   2.557   1.056
 1469SOL     OW 4541   0.547   0.018   0.735
 1469SOL    HW1 4542   0.471   0.048   0.684
 1469SOL    HW2 4543   0.577   0.095   0.782
 1470SOL     OW 4544   0.221   0.505   3.465
 1470SOL    HW1 4545   0.287   0.437   3.479
 1470SOL    HW2 4546   0.226   0.559   3.544
 1471SOL     OW 4547   2.809   3.416   1.346
 1471SOL    HW1 4548   2.803   3.379   1.434
 1471SOL    HW2 4549   2.723   3.455   1.330
 1472SOL     OW 4550   1.022   3.219   0.907
 1472SOL    HW1 4551   1.090   3.152   0.915
 1472SOL    HW2 4552   0.943   3.176   0.940
 1473SOL     OW 4553   2.947   2.307   1.971
 1473SOL    HW1 4554   2.868   2.297   2.023
 1473SOL    HW2 4555   2.953   2.401   1.953
 1474SOL     OW 4556   2.095   3.051   2.366
 1474SOL    HW1 4557   2.132   3.126   2.413
 1474SOL    HW2 4558   2.148   3.045   2.286
 1475SOL     OW 4559   0.690   1.035   1.711
 1475SOL    HW1 4560   0.672   0.963   1.650
 1475SOL    HW2 4561   0.783   1.024   1.733
 1476SOL     OW 4562   0.423   3.855   1.782
 1476SOL    HW1 4563   0.403   3.771   1.741
 1476SOL    HW2 4564   0.516   3.850   1.805
 1477SOL     OW 4565   2.714   3.632   3.924
 1477SOL    HW1 4566   2.773   3.602   3.993
 1477SOL    HW2 4567   2.725   3.567   3.854
 1478SOL     OW 4568   2.695   1.816   3.886
 1478SOL    HW1 4569   2.646   1.898   3.879
 1478SOL    HW2 4570   2.637   1.758   3.936
 1479SOL     OW 4571   2.090   2.807   0.113
 1479SOL    HW1 4572   2.144   2.824   0.035
 1479SOL    HW2 4573   2.115   2.719   0.141
 1480SOL     OW 4574   1.368   0.429   3.503
 1480SOL    HW1 4575   1.276   0.457   3.498
 1480SOL    HW2 4576   1.390   0.438   3.596
 1481SOL     OW 4577   1.308   2.537   0.799
 1481SOL    HW1 4578   1.403   2.549   0.810
 1481SOL    HW2 4579   1.299   2.492   0.715
 1482SOL     OW 4580   0.785   3.471   0.750
 1482SOL    HW1 4581   0.802   3.494   0.842
 1482SOL    HW2 4582   0.690   3.462   0.745
 1483SOL     OW 4583   1.481   0.689   0.963
 1483SOL    HW1 4584   1.390   0.663   0.982
 1483SOL    HW2 4585   1.532   0.650   1.035
 1484SOL     OW 4586   3.439   2.482   0.213
 1484SOL    HW1 4587   3.389   2.427   0.274
 1484SOL    HW2 4588   3.521   2.500   0.258
 1485SOL     OW 4589   1.465   3.519   3.240
 1485SOL    HW1 4590   1.430   3.599   3.280
 1485SOL    HW2 4591   1.540   3.497   3.294
 1486SOL     OW 4592   2.937   3.731   2.078
 1486SOL    HW1 4593   2.905   3.720   1.989
 1486SOL    HW2 4594   3.029   3.702   2.074
 1487SOL     OW 4595   3.155   1.778   2.007
 1487SOL    HW1 4596   3.144   1.852   1.947
 1487SOL    HW2 4597   3.067   1.744   2.020
 1488SOL     OW 4598   2.609   0.170   0.635
 1488SOL    HW1 4599   2.579   0.093   0.683
 1488SOL    HW2 4600   2.550   0.175   0.559
 1489SOL     OW 4601   3.824   1.139   1.069
 1489SOL    HW1 4602   3.852   1.047   1.073
 1489SOL    HW2 4603   3.804   1.153   0.977
 1490SOL     OW 4604   1.872   1.486   3.657
 1490SOL    HW1 4605   1.896   1.395   3.640
 1490SOL    HW2 4606   1.878   1.495   3.752
 1491SOL     OW 4607   0.627   2.284   0.944
 1491SOL    HW1 4608   0.638   2.203   0.893
 1491SOL    HW2 4609   0.688   2.345   0.904
 1492SOL     OW 4610   0.521   1.945   1.980
 1492SOL    HW1 4611   0.603   1.934   1.932
 1492SOL    HW2 4612   0.488   2.030   1.952
 1493SOL     OW 4613   2.654   1.637   0.944
 1493SOL    HW1 4614   2.630   1.558   0.992
 1493SOL    HW2 4615   2.594   1.704   0.977
 1494SOL     OW 4616   1.207   3.313   3.325
 1494SOL    HW1 4617   1.171   3.227   3.306
 1494SOL    HW2 4618   1.216   3.355   3.239
 1495SOL     OW 4619   2.179   3.538   0.997
 1495SOL    HW1 4620   2.208   3.624   1.028
 1495SOL    HW2 4621   2.083   3.541   1.003
 1496SOL     OW 4622   1.519   1.403   0.467
 1496SOL    HW1 4623   1.538   1.493   0.440
 1496SOL    HW2 4624   1.442   1.411   0.523
 1497SOL     OW 4625   3.382   0.771   3.010
 1497SOL    HW1 4626   3.342   0.856   3.027
 1497SOL    HW2 4627   3.472   0.780   3.040
 1498SOL     OW 4628   2.338   3.761   0.438
 1498SOL    HW1 4629   2.300   3.707   0.369
 1498SOL    HW2 4630   2.333   3.708   0.517
 1499SOL     OW 4631   2.347   1.109   1.213
 1499SOL    HW1 4632   2.342   1.014   1.219
 1499SOL    HW2 4633   2.419   1.125   1.152
 1500SOL     OW 4634   1.310   2.082   3.695
 1500SOL    HW1 4635   1.381   2.034   3.654
 1500SOL    HW2 4636   1.257   2.113   3.622
 1501SOL     OW 4637   3.670   2.869   1.163
 1501SOL    HW1 4638   3.606   2.807   1.198
 1501SOL    HW2 4639   3.717   2.900   1.239
 1502SOL     OW 4640   1.153   3.951   3.810
 1502SOL    HW1 4641   1.195   3.893   3.746
 1502SOL    HW2 4642   1.060   3.951   3.786
 1503SOL     OW 4643   1.699   3.263   3.839
 1503SOL    HW1 4644   1.724   3.352   3.863
 1503SOL    HW2 4645   1.604   3.269   3.823
 1504SOL     OW 4646   3.232   0.531   1.880
 1504SOL    HW1 4647   3.259   0.609   1.929
 1504SOL    HW2 4648   3.269   0.458   1.930
 1505SOL     OW 4649   0.645   1.319   0.747
 1505SOL    HW1 4650   0.616   1.274   0.827
 1505SOL    HW2 4651   0.566   1.322   0.693
 1506SOL     OW 4652   3.594   1.901   2.702
 1506SOL    HW1 4653   3.575   1.901   2.608
 1506SOL    HW2 4654   3.612   1.809   2.723
 1507SOL     OW 4655   1.952   1.710   2.821
 1507SOL    HW1 4656   1.953   1.804   2.843
 1507SOL    HW2 4657   2.003   1.669   2.891
 1508SOL     OW 4658   0.325   2.158   2.920
 1508SOL    HW1 4659   0.390   2.219   2.956
 1508SOL    HW2 4660   0.311   2.189   2.830
 1509SOL     OW 4661   0.442   1.270   2.852
 1509SOL    HW1 4662   0.392   1.284   2.933
 1509SOL    HW2 4663   0.438   1.353   2.806
 1510SOL     OW 4664   0.774   2.435   0.782
 1510SOL    HW1 4665   0.744   2.474   0.700
 1510SOL    HW2 4666   0.836   2.498   0.818
 1511SOL     OW 4667   1.786   3.323   1.830
 1511SOL    HW1 4668   1.739   3.300   1.910
 1511SOL    HW2 4669   1.871   3.279   1.839
 1512SOL     OW 4670   2.602   0.510   1.505
 1512SOL    HW1 4671   2.666   0.440   1.517
 1512SOL    HW2 4672   2.600   0.525   1.411
 1513SOL     OW 4673   3.553   1.323   0.975
 1513SOL    HW1 4674   3.628   1.364   1.019
 1513SOL    HW2 4675   3.485   1.320   1.043
 1514SOL     OW 4676   0.685   2.043   0.812
 1514SOL    HW1 4677   0.613   2.054   0.749
 1514SOL    HW2 4678   0.734   1.967   0.780
 1515SOL     OW 4679   0.229   1.716   3.140
 1515SOL    HW1 4680   0.161   1.779   3.115
 1515SOL    HW2 4681   0.294   1.722   3.070
 1516SOL     OW 4682   0.106   3.551   3.344
 1516SOL    HW1 4683   0.107   3.472   3.398
 1516SOL    HW2 4684   0.190   3.550   3.298
 1517SOL     OW 4685   0.676   3.392   2.546
 1517SOL    HW1 4686   0.756   3.384   2.598
 1517SOL    HW2 4687   0.633   3.470   2.581
 1518SOL     OW 4688   2.949   1.681   0.646
 1518SOL    HW1 4689   3.023   1.725   0.687
 1518SOL    HW2 4690   2.914   1.745   0.583
 1519SOL     OW 4691   3.922   1.236   0.465
 1519SOL    HW1 4692   3.837   1.271   0.491
 1519SOL    HW2 4693   3.919   1.144   0.489
 1520SOL     OW 4694   0.799   2.579   1.874
 1520SOL    HW1 4695   0.744   2.573   1.796
 1520SOL    HW2 4696   0.859   2.505   1.868
 1521SOL     OW 4697   0.226   0.869   1.017
 1521SOL    HW1 4698   0.272   0.952   1.012
 1521SOL    HW2 4699   0.278   0.810   0.962
 1522SOL     OW 4700   3.765   2.191   3.599
 1522SOL    HW1 4701   3.817   2.118   3.632
 1522SOL    HW2 4702   3.829   2.250   3.560
 1523SOL     OW 4703   3.540   1.857   0.168
 1523SOL    HW1 4704   3.464   1.851   0.110
 1523SOL    HW2 4705   3.578   1.942   0.147
 1524SOL     OW 4706   2.719   0.262   0.090
 1524SOL    HW1 4707   2.765   0.271   0.174
 1524SOL    HW2 4708   2.790   0.253   0.025
 1525SOL     OW 4709   2.583   0.486   0.116
 1525SOL    HW1 4710   2.638   0.411   0.093
 1525SOL    HW2 4711   2.517   0.450   0.175
 1526SOL     OW 4712   2.185   1.603   2.240
 1526SOL    HW1 4713   2.192   1.557   2.156
 1526SOL    HW2 4714   2.231   1.685   2.226
 1527SOL     OW 4715   1.619   1.705   2.325
 1527SOL    HW1 4716   1.539   1.758   2.323
 1527SOL    HW2 4717   1.629   1.674   2.235
 1528SOL     OW 4718   1.780   2.741   2.154
 1528SOL    HW1 4719   1.698   2.733   2.204
 1528SOL    HW2 4720   1.783   2.662   2.101
 1529SOL     OW 4721   3.616   3.703   3.778
 1529SOL    HW1 4722   3.648   3.688   3.689
 1529SOL    HW2 4723   3.582   3.618   3.806
 1530SOL     OW 4724   0.036   2.596   0.994
 1530SOL    HW1 4725  -0.005   2.683   0.993
 1530SOL    HW2 4726   0.081   2.592   1.078
 1531SOL     OW 4727   1.638   0.148   0.986
 1531SOL    HW1 4728   1.626   0.094   0.908
 1531SOL    HW2 4729   1.559   0.134   1.038
 1532SOL     OW 4730   1.033   1.089   2.376
 1532SOL    HW1 4731   1.127   1.076   2.386
 1532SOL    HW2 4732   1.011   1.157   2.440
 1533SOL     OW 4733   2.596   2.548   2.205
 1533SOL    HW1 4734   2.602   2.461   2.244
 1533SOL    HW2 4735   2.648   2.604   2.263
 1534SOL     OW 4736   0.624   0.225   0.885
 1534SOL    HW1 4737   0.560   0.251   0.951
 1534SOL    HW2 4738   0.664   0.306   0.855
 1535SOL     OW 4739   3.591   1.651   0.759
 1535SOL    HW1 4740   3.583   1.712   0.832
 1535SOL    HW2 4741   3.661   1.688   0.704
 1536SOL     OW 4742   2.345   0.815   2.723
 1536SOL    HW1 4743   2.279   0.749   2.742
 1536SOL    HW2 4744   2.419   0.766   2.687
 1537SOL     OW 4745   0.632   0.904   3.011
 1537SOL    HW1 4746   0.541   0.934   3.008
 1537SOL    HW2 4747   0.672   0.942   2.933
 1538SOL     OW 4748   2.069   3.939   3.673
 1538SOL    HW1 4749   2.135   3.947   3.604
 1538SOL    HW2 4750   2.010   3.870   3.643
 1539SOL     OW 4751   1.795   2.238   3.620
 1539SOL    HW1 4752   1.836   2.294   3.686
 1539SOL    HW2 4753   1.752   2.170   3.671
 1540SOL     OW 4754   2.957   2.267   1.420
 1540SOL    HW1 4755   2.869   2.262   1.459
 1540SOL    HW2 4756   2.945   2.320   1.341
 1541SOL     OW 4757   0.367   3.415   3.971
 1541SOL    HW1 4758   0.289   3.416   3.914
 1541SOL    HW2 4759   0.427   3.354   3.929
 1542SOL     OW 4760   2.763   2.276   3.324
 1542SOL    HW1 4761   2.847   2.292   3.281
 1542SOL    HW2 4762   2.746   2.355   3.375
 1543SOL     OW 4763   0.109   0.219   3.058
 1543SOL    HW1 4764   0.175   0.155   3.032
 1543SOL    HW2 4765   0.113   0.222   3.153
 1544SOL     OW 4766   1.545   3.762   2.977
 1544SOL    HW1 4767   1.479   3.694   2.964
 1544SOL    HW2 4768   1.544   3.812   2.895
 1545SOL     OW 4769   0.905   1.338   0.883
 1545SOL    HW1 4770   0.894   1.278   0.957
 1545SOL    HW2 4771   0.833   1.316   0.823
 1546SOL     OW 4772   3.541   0.579   2.603
 1546SOL    HW1 4773   3.540   0.674   2.595
 1546SOL    HW2 4774   3.544   0.547   2.513
 1547SOL     OW 4775   0.995   2.163   0.040
 1547SOL    HW1 4776   1.028   2.098  -0.022
 1547SOL    HW2 4777   1.024   2.247   0.004
 1548SOL     OW 4778   1.401   1.809   0.025
 1548SOL    HW1 4779   1.399   1.723   0.065
 1548SOL    HW2 4780   1.388   1.870   0.097
 1549SOL     OW 4781   0.055   0.307   0.187
 1549SOL    HW1 4782   0.059   0.295   0.092
 1549SOL    HW2 4783  -0.037   0.326   0.205
 1550SOL     OW 4784   2.954   3.860   3.228
 1550SOL    HW1 4785   2.974   3.939   3.279
 1550SOL    HW2 4786   2.932   3.894   3.141
 1551SOL     OW 4787   3.116   2.919   3.814
 1551SOL    HW1 4788   3.033   2.964   3.798
 1551SOL    HW2 4789   3.177   2.990   3.836
 1552SOL     OW 4790   3.068   2.747   1.674
 1552SOL    HW1 4791   3.049   2.772   1.765
 1552SOL    HW2 4792   2.997   2.786   1.623
 1553SOL     OW 4793   1.402   1.882   2.247
 1553SOL    HW1 4794   1.351   1.808   2.214
 1553SOL    HW2 4795   1.361   1.904   2.331
 1554SOL     OW 4796   0.799   0.716   3.465
 1554SOL    HW1 4797   0.850   0.797   3.470
 1554SOL    HW2 4798   0.710   0.743   3.487
 1555SOL     OW 4799   1.989   1.928   0.845
 1555SOL    HW1 4800   2.069   1.875   0.843
 1555SOL    HW2 4801   1.988   1.972   0.760
 1556SOL     OW 4802   3.133   2.556   1.011
 1556SOL    HW1 4803   3.042   2.527   1.010
 1556SOL    HW2 4804   3.129   2.650   0.990
 1557SOL     OW 4805   3.793   0.119   1.518
 1557SOL    HW1 4806   3.824   0.047   1.572
 1557SOL    HW2 4807   3.798   0.087   1.428
 1558SOL     OW 4808   0.173   0.589   0.689
 1558SOL    HW1 4809   0.223   0.516   0.651
 1558SOL    HW2 4810   0.083   0.557   0.694
 1559SOL     OW 4811   1.820   0.755   0.024
 1559SOL    HW1 4812   1.910   0.773  -0.001
 1559SOL    HW2 4813   1.828   0.701   0.102
 1560SOL     OW 4814   2.402   0.555   2.223
 1560SOL    HW1 4815   2.481   0.548   2.276
 1560SOL    HW2 4816   2.352   0.626   2.263
 1561SOL     OW 4817   0.112   1.842   0.623
 1561SOL    HW1 4818   0.130   1.833   0.530
 1561SOL    HW2 4819   0.017   1.835   0.631
 1562SOL     OW 4820   0.598   1.831   0.060
 1562SOL    HW1 4821   0.583   1.897  -0.008
 1562SOL    HW2 4822   0.667   1.869   0.116
 1563SOL     OW 4823   2.336   2.166   0.399
 1563SOL    HW1 4824   2.304   2.091   0.349
 1563SOL    HW2 4825   2.353   2.131   0.487
 1564SOL     OW 4826   2.013   1.773   1.670
 1564SOL    HW1 4827   2.050   1.692   1.704
 1564SOL    HW2 4828   1.918   1.762   1.680
 1565SOL     OW 4829   0.322   2.587   0.669
 1565SOL    HW1 4830   0.372   2.608   0.748
 1565SOL    HW2 4831   0.376   2.620   0.597
 1566SOL     OW 4832   0.694   3.101   2.798
 1566SOL    HW1 4833   0.742   3.054   2.866
 1566SOL    HW2 4834   0.753   3.100   2.722
 1567SOL     OW 4835   0.197   1.998   1.867
 1567SOL    HW1 4836   0.289   1.997   1.841
 1567SOL    HW2 4837   0.193   2.057   1.942
 1568SOL     OW 4838   3.831   1.099   3.718
 1568SOL    HW1 4839   3.812   1.006   3.713
 1568SOL    HW2 4840   3.763   1.135   3.776
 1569SOL     OW 4841   1.555   1.719   2.589
 1569SOL    HW1 4842   1.585   1.709   2.498
 1569SOL    HW2 4843   1.597   1.799   2.619
 1570SOL     OW 4844   0.221   0.536   0.204
 1570SOL    HW1 4845   0.299   0.509   0.252
 1570SOL    HW2 4846   0.158   0.465   0.217
 1571SOL     OW 4847   3.712   1.440   3.415
 1571SOL    HW1 4848   3.678   1.359   3.378
 1571SOL    HW2 4849   3.802   1.420   3.440
 1572SOL     OW 4850   1.321   1.641   0.372
 1572SOL    HW1 4851   1.303   1.601   0.457
 1572SOL    HW2 4852   1.294   1.733   0.383
 1573SOL     OW 4853   3.050   2.972   0.259
 1573SOL    HW1 4854   2.977   2.961   0.198
 1573SOL    HW2 4855   3.081   2.883   0.276
 1574SOL     OW 4856   1.976   3.570   2.048
 1574SOL    HW1 4857   1.999   3.506   1.980
 1574SOL    HW2 4858   2.003   3.654   2.012
 1575SOL     OW 4859   0.301   0.050   3.107
 1575SOL    HW1 4860   0.282  -0.005   3.183
 1575SOL    HW2 4861   0.323  -0.012   3.038
 1576SOL     OW 4862   1.903   3.816   1.731
 1576SOL    HW1 4863   1.928   3.759   1.804
 1576SOL    HW2 4864   1.820   3.779   1.700
 1577SOL     OW 4865   3.531   1.620   0.343
 1577SOL    HW1 4866   3.501   1.705   0.311
 1577SOL    HW2 4867   3.452   1.579   0.379
 1578SOL     OW 4868   1.546   2.745   0.969
 1578SOL    HW1 4869   1.598   2.691   0.910
 1578SOL    HW2 4870   1.589   2.735   1.054
 1579SOL     OW 4871   1.966   3.291   3.763
 1579SOL    HW1 4872   1.881   3.258   3.793
 1579SOL    HW2 4873   2.009   3.215   3.723
 1580SOL     OW 4874   1.200   1.055   3.579
 1580SOL    HW1 4875   1.225   1.130   3.634
 1580SOL    HW2 4876   1.277   0.999   3.578
 1581SOL     OW 4877   0.830   2.938   1.493
 1581SOL    HW1 4878   0.856   2.919   1.403
 1581SOL    HW2 4879   0.781   2.860   1.521
 1582SOL     OW 4880   3.235   0.608   1.195
 1582SOL    HW1 4881   3.170   0.679   1.196
 1582SOL    HW2 4882   3.296   0.632   1.126
 1583SOL     OW 4883   3.311   1.705   2.240
 1583SOL    HW1 4884   3.384   1.684   2.182
 1583SOL    HW2 4885   3.241   1.734   2.181
 1584SOL     OW 4886   2.101   2.095   3.885
 1584SOL    HW1 4887   2.140   2.016   3.848
 1584SOL    HW2 4888   2.141   2.101   3.972
 1585SOL     OW 4889   1.264   1.281   0.094
 1585SOL    HW1 4890   1.314   1.263   0.174
 1585SOL    HW2 4891   1.289   1.211   0.034
 1586SOL     OW 4892   0.989   3.263   2.233
 1586SOL    HW1 4893   0.931   3.189   2.215
 1586SOL    HW2 4894   1.077   3.226   2.236
 1587SOL     OW 4895   2.456   0.106   0.181
 1587SOL    HW1 4896   2.423   0.040   0.121
 1587SOL    HW2 4897   2.510   0.163   0.126
 1588SOL     OW 4898   1.926   2.508   0.993
 1588SOL    HW1 4899   1.887   2.469   1.072
 1588SOL    HW2 4900   1.978   2.581   1.026
 1589SOL     OW 4901   0.759   0.293   1.748
 1589SOL    HW1 4902   0.669   0.263   1.734
 1589SOL    HW2 4903   0.767   0.301   1.843
 1590SOL     OW 4904   3.894   3.942   1.737
 1590SOL    HW1 4905   3.826   4.001   1.768
 1590SOL    HW2 4906   3.852   3.856   1.736
 1591SOL     OW 4907   2.504   0.893   3.384
 1591SOL    HW1 4908   2.439   0.833   3.420
 1591SOL    HW2 4909   2.588   0.851   3.399
 1592SOL     OW 4910   1.013   2.771   0.421
 1592SOL    HW1 4911   0.970   2.688   0.442
 1592SOL    HW2 4912   1.033   2.810   0.506
 1593SOL     OW 4913   3.816   0.941   0.788
 1593SOL    HW1 4914   3.869   0.944   0.707
 1593SOL    HW2 4915   3.786   1.031   0.800
 1594SOL     OW 4916   1.941   3.529   3.597
 1594SOL    HW1 4917   1.957   3.455   3.654
 1594SOL    HW2 4918   1.848   3.548   3.607
 1595SOL     OW 4919   1.964   1.247   0.836
 1595SOL    HW1 4920   1.947   1.285   0.750
 1595SOL    HW2 4921   2.057   1.222   0.833
 1596SOL     OW 4922   0.558   0.323   3.722
 1596SOL    HW1 4923   0.627   0.267   3.687
 1596SOL    HW2 4924   0.600   0.408   3.734
 1597SOL     OW 4925   2.855   1.189   1.999
 1597SOL    HW1 4926   2.760   1.191   1.995
 1597SOL    HW2 4927   2.879   1.101   1.972
 1598SOL     OW 4928   2.275   1.168   3.479
 1598SOL    HW1 4929   2.237   1.111   3.413
 1598SOL    HW2 4930   2.364   1.186   3.448
 1599SOL     OW 4931   0.864   0.536   0.052
 1599SOL    HW1 4932   0.946   0.564   0.011
 1599SOL    HW2 4933   0.805   0.519  -0.021
 1600SOL     OW 4934   1.449   2.555   0.468
 1600SOL    HW1 4935   1.409   2.640   0.485
 1600SOL    HW2 4936   1.496   2.566   0.385
 1601SOL     OW 4937   0.178   2.871   0.737
 1601SOL    HW1 4938   0.104   2.891   0.795
 1601SOL    HW2 4939   0.141   2.874   0.649
 1602SOL     OW 4940   1.679   0.578   1.221
 1602SOL    HW1 4941   1.721   0.663   1.236
 1602SOL    HW2 4942   1.718   0.546   1.139
 1603SOL     OW 4943   3.547   2.546   3.409
 1603SOL    HW1 4944   3.503   2.502   3.482
 1603SOL    HW2 4945   3.532   2.488   3.334
 1604SOL     OW 4946   3.913   0.738   2.011
 1604SOL    HW1 4947   3.914   0.678   2.086
 1604SOL    HW2 4948   3.933   0.824   2.050
 1605SOL     OW 4949   0.742   2.567   2.306
 1605SOL    HW1 4950   0.783   2.520   2.379
 1605SOL    HW2 4951   0.813   2.582   2.244
 1606SOL     OW 4952   2.552   3.062   1.275
 1606SOL    HW1 4953   2.517   3.135   1.224
 1606SOL    HW2 4954   2.527   3.081   1.365
 1607SOL     OW 4955   1.449   0.194   2.414
 1607SOL    HW1 4956   1.443   0.118   2.472
 1607SOL    HW2 4957   1.359   0.216   2.392
 1608SOL     OW 4958   2.906   3.007   2.232
 1608SOL    HW1 4959   2.984   2.984   2.183
 1608SOL    HW2 4960   2.923   3.095   2.266
 1609SOL     OW 4961   2.647   1.704   3.228
 1609SOL    HW1 4962   2.728   1.690   3.179
 1609SOL    HW2 4963   2.627   1.797   3.216
 1610SOL     OW 4964   2.097   3.317   0.340
 1610SOL    HW1 4965   2.118   3.408   0.322
 1610SOL    HW2 4966   2.092   3.276   0.253
 1611SOL     OW 4967   0.773   1.620   1.859
 1611SOL    HW1 4968   0.729   1.688   1.808
 1611SOL    HW2 4969   0.842   1.588   1.800
 1612SOL     OW 4970   1.358   0.233   2.743
 1612SOL    HW1 4971   1.350   0.280   2.660
 1612SOL    HW2 4972   1.440   0.266   2.781
 1613SOL     OW 4973   1.661   2.796   3.702
 1613SOL    HW1 4974   1.657   2.841   3.618
 1613SOL    HW2 4975   1.675   2.866   3.766
 1614SOL     OW 4976   1.603   3.488   0.721
 1614SOL    HW1 4977   1.510   3.476   0.739
 1614SOL    HW2 4978   1.611   3.482   0.626
 1615SOL     OW 4979   1.782   2.056   3.240
 1615SOL    HW1 4980   1.823   1.976   3.206
 1615SOL    HW2 4981   1.842   2.126   3.214
 1616SOL     OW 4982   2.649   2.287   2.357
 1616SOL    HW1 4983   2.699   2.260   2.434
 1616SOL    HW2 4984   2.708   2.268   2.283
 1617SOL     OW 4985   2.811   2.420   2.757
 1617SOL    HW1 4986   2.805   2.380   2.844
 1617SOL    HW2 4987   2.892   2.386   2.720
 1618SOL     OW 4988   2.778   0.902   0.040
 1618SOL    HW1 4989   2.797   0.943   0.124
 1618SOL    HW2 4990   2.709   0.956   0.002
 1619SOL     OW 4991   2.967   1.104   0.186
 1619SOL    HW1 4992   2.989   1.119   0.277
 1619SOL    HW2 4993   3.035   1.044   0.154
 1620SOL     OW 4994   3.470   1.575   1.638
 1620SOL    HW1 4995   3.526   1.501   1.661
 1620SOL    HW2 4996   3.516   1.652   1.671
 1621SOL     OW 4997   0.949   2.663   2.131
 1621SOL    HW1 4998   1.020   2.726   2.116
 1621SOL    HW2 4999   0.906   2.656   2.046
 1622SOL     OW 5000   3.371   2.316   0.438
 1622SOL    HW1 5001   3.447   2.260   0.423
 1622SOL    HW2 5002   3.381   2.345   0.529
 1623SOL     OW 5003   0.471   0.626   3.937
 1623SOL    HW1 5004   0.426   0.690   3.992
 1623SOL    HW2 5005   0.534   0.678   3.887
 1624SOL     OW 5006   3.294   0.150   1.739
 1624SOL    HW1 5007   3.341   0.167   1.820
 1624SOL    HW2 5008   3.313   0.226   1.683
 1625SOL     OW 5009   0.140   2.245   2.408
 1625SOL    HW1 5010   0.095   2.307   2.351
 1625SOL    HW2 5011   0.210   2.209   2.354
 1626SOL     OW 5012   0.249   3.149   1.903
 1626SOL    HW1 5013   0.297   3.192   1.973
 1626SOL    HW2 5014   0.316   3.128   1.838
 1627SOL     OW 5015   0.356   0.677   2.730
 1627SOL    HW1 5016   0.430   0.738   2.720
 1627SOL    HW2 5017   0.297   0.721   2.790
 1628SOL     OW 5018   0.508   0.579   2.960
 1628SOL    HW1 5019   0.506   0.586   3.056
 1628SOL    HW2 5020   0.426   0.619   2.931
 1629SOL     OW 5021   2.500   2.181   2.886
 1629SOL    HW1 5022   2.491   2.265   2.843
 1629SOL    HW2 5023   2.509   2.202   2.979
 1630SOL     OW 5024   1.700   2.995   0.497
 1630SOL    HW1 5025   1.758   3.071   0.504
 1630SOL    HW2 5026   1.759   2.920   0.501
 1631SOL     OW 5027   1.942   0.786   0.631
 1631SOL    HW1 5028   1.874   0.840   0.671
 1631SOL    HW2 5029   1.984   0.741   0.704
 1632SOL     OW 5030   1.626   1.003   3.875
 1632SOL    HW1 5031   1.655   1.064   3.943
 1632SOL    HW2 5032   1.696   1.007   3.809
 1633SOL     OW 5033   1.896   2.474   1.776
 1633SOL    HW1 5034   1.900   2.559   1.731
 1633SOL    HW2 5035   1.941   2.489   1.859
 1634SOL     OW 5036   0.246   0.897   1.979
 1634SOL    HW1 5037   0.189   0.884   2.055
 1634SOL    HW2 5038   0.304   0.820   1.980
 1635SOL     OW 5039   1.415   3.308   3.077
 1635SOL    HW1 5040   1.469   3.266   3.144
 1635SOL    HW2 5041   1.402   3.398   3.108
 1636SOL     OW 5042   2.842   3.805   1.069
 1636SOL    HW1 5043   2.884   3.719   1.069
 1636SOL    HW2 5044   2.890   3.855   1.136
 1637SOL     OW 5045   0.852   0.007   3.786
 1637SOL    HW1 5046   0.822   0.087   3.829
 1637SOL    HW2 5047   0.771  -0.039   3.762
 1638SOL     OW 5048   3.906   0.267   1.023
 1638SOL    HW1 5049   3.848   0.297   0.953
 1638SOL    HW2 5050   3.980   0.327   1.020
 1639SOL     OW 5051   2.190   1.711   1.028
 1639SOL    HW1 5052   2.119   1.647   1.038
 1639SOL    HW2 5053   2.239   1.680   0.952
 1640SOL     OW 5054   3.495   2.541   1.764
 1640SOL    HW1 5055   3.428   2.566   1.828
 1640SOL    HW2 5056   3.516   2.623   1.718
 1641SOL     OW 5057   1.389   2.346   2.310
 1641SOL    HW1 5058   1.416   2.280   2.374
 1641SOL    HW2 5059   1.336   2.297   2.246
 1642SOL     OW 5060   1.049   0.612   3.676
 1642SOL    HW1 5061   1.083   0.553   3.609
 1642SOL    HW2 5062   1.124   0.666   3.701
 1643SOL     OW 5063   3.138   3.211   3.826
 1643SOL    HW1 5064   3.151   3.251   3.912
 1643SOL    HW2 5065   3.188   3.266   3.766
 1644SOL     OW 5066   2.298   3.896   1.479
 1644SOL    HW1 5067   2.220   3.841   1.486
 1644SOL    HW2 5068   2.324   3.914   1.569
 1645SOL     OW 5069   2.750   1.715   3.621
 1645SOL    HW1 5070   2.678   1.712   3.684
 1645SOL    HW2 5071   2.826   1.745   3.673
 1646SOL     OW 5072   3.604   2.448   3.928
 1646SOL    HW1 5073   3.685   2.399   3.940
 1646SOL    HW2 5074   3.543   2.409   3.991
 1647SOL     OW 5075   0.333   3.817   2.930
 1647SOL    HW1 5076   0.272   3.755   2.970
 1647SOL    HW2 5077   0.363   3.773   2.850
 1648SOL     OW 5078   3.305   0.902   0.418
 1648SOL    HW1 5079   3.328   0.826   0.472
 1648SOL    HW2 5080   3.231   0.872   0.365
 1649SOL     OW 5081   1.705   2.089   0.541
 1649SOL    HW1 5082   1.646   2.019   0.515
 1649SOL    HW2 5083   1.684   2.107   0.632
 1650SOL     OW 5084   0.999   0.048   2.245
 1650SOL    HW1 5085   1.082   0.032   2.200
 1650SOL    HW2 5086   0.990  -0.025   2.306
 1651SOL     OW 5087   2.985   0.529   2.262
 1651SOL    HW1 5088   2.968   0.467   2.192
 1651SOL    HW2 5089   2.948   0.488   2.341
 1652SOL     OW 5090   2.747   2.917   3.802
 1652SOL    HW1 5091   2.775   2.990   3.746
 1652SOL    HW2 5092   2.653   2.909   3.787
 1653SOL     OW 5093   1.229   3.045  -0.022
 1653SOL    HW1 5094   1.277   2.973   0.019
 1653SOL    HW2 5095   1.196   3.097   0.051
 1654SOL     OW 5096   0.013   0.916   2.751
 1654SOL    HW1 5097  -0.055   0.945   2.690
 1654SOL    HW2 5098   0.065   0.994   2.768
 1655SOL     OW 5099   0.149   1.784   0.348
 1655SOL    HW1 5100   0.218   1.756   0.289
 1655SOL    HW2 5101   0.072   1.735   0.320
 1656SOL     OW 5102   0.963   0.538   2.582
 1656SOL    HW1 5103   1.050   0.566   2.610
 1656SOL    HW2 5104   0.977   0.454   2.539
 1657SOL     OW 5105   2.663   0.438   0.542
 1657SOL    HW1 5106   2.648   0.506   0.607
 1657SOL    HW2 5107   2.638   0.356   0.586
 1658SOL     OW 5108   1.847   2.179   2.094
 1658SOL    HW1 5109   1.912   2.203   2.160
 1658SOL    HW2 5110   1.882   2.100   2.053
 1659SOL     OW 5111   1.774   3.690   3.095
 1659SOL    HW1 5112   1.694   3.729   3.060
 1659SOL    HW2 5113   1.806   3.754   3.158
 1660SOL     OW 5114   0.789   1.555   2.617
 1660SOL    HW1 5115   0.749   1.581   2.534
 1660SOL    HW2 5116   0.735   1.598   2.684
 1661SOL     OW 5117   0.034   0.379   3.304
 1661SOL    HW1 5118   0.087   0.429   3.366
 1661SOL    HW2 5119   0.037   0.430   3.223
 1662SOL     OW 5120   1.205   3.791   3.577
 1662SOL    HW1 5121   1.149   3.796   3.499
 1662SOL    HW2 5122   1.249   3.706   3.569
 1663SOL     OW 5123   3.050   1.127   1.635
 1663SOL    HW1 5124   3.053   1.032   1.622
 1663SOL    HW2 5125   3.103   1.142   1.713
 1664SOL     OW 5126   3.757   0.591   2.836
 1664SOL    HW1 5127   3.750   0.660   2.770
 1664SOL    HW2 5128   3.759   0.510   2.785
 1665SOL     OW 5129   1.586   2.688   1.672
 1665SOL    HW1 5130   1.655   2.726   1.618
 1665SOL    HW2 5131   1.573   2.600   1.636
 1666SOL     OW 5132   2.301   0.287   2.178
 1666SOL    HW1 5133   2.259   0.253   2.257
 1666SOL    HW2 5134   2.350   0.363   2.208
 1667SOL     OW 5135   1.688   1.504   2.119
 1667SOL    HW1 5136   1.728   1.484   2.034
 1667SOL    HW2 5137   1.635   1.427   2.139
 1668SOL     OW 5138   2.635   3.822   2.291
 1668SOL    HW1 5139   2.715   3.872   2.305
 1668SOL    HW2 5140   2.585   3.873   2.227
 1669SOL     OW 5141   3.757   2.196   2.314
 1669SOL    HW1 5142   3.722   2.176   2.227
 1669SOL    HW2 5143   3.799   2.114   2.342
 1670SOL     OW 5144   3.070   2.122   2.157
 1670SOL    HW1 5145   3.094   2.040   2.114
 1670SOL    HW2 5146   3.042   2.180   2.085
 1671SOL     OW 5147   2.174   0.309   3.526
 1671SOL    HW1 5148   2.214   0.246   3.586
 1671SOL    HW2 5149   2.123   0.366   3.582
 1672SOL     OW 5150   2.403   3.465   3.281
 1672SOL    HW1 5151   2.497   3.465   3.266
 1672SOL    HW2 5152   2.364   3.453   3.195
 1673SOL     OW 5153   2.020   3.652   0.402
 1673SOL    HW1 5154   2.045   3.735   0.443
 1673SOL    HW2 5155   2.078   3.645   0.326
 1674SOL     OW 5156   0.506   1.330   3.428
 1674SOL    HW1 5157   0.552   1.280   3.361
 1674SOL    HW2 5158   0.556   1.412   3.434
 1675SOL     OW 5159   3.271   2.509  -0.002
 1675SOL    HW1 5160   3.199   2.571  -0.009
 1675SOL    HW2 5161   3.306   2.522   0.086
 1676SOL     OW 5162   3.269   0.379   0.431
 1676SOL    HW1 5163   3.263   0.471   0.405
 1676SOL    HW2 5164   3.232   0.331   0.358
 1677SOL     OW 5165   2.234   3.427   2.197
 1677SOL    HW1 5166   2.301   3.375   2.153
 1677SOL    HW2 5167   2.151   3.390   2.167
 1678SOL     OW 5168   1.013   2.221   0.867
 1678SOL    HW1 5169   1.046   2.311   0.867
 1678SOL    HW2 5170   0.945   2.221   0.934
 1679SOL     OW 5171   0.419   1.346   3.886
 1679SOL    HW1 5172   0.493   1.318   3.831
 1679SOL    HW2 5173   0.424   1.288   3.963
 1680SOL     OW 5174   0.538   0.825   3.792
 1680SOL    HW1 5175   0.513   0.865   3.875
 1680SOL    HW2 5176   0.477   0.863   3.728
 1681SOL     OW 5177   0.711   2.859   3.419
 1681SOL    HW1 5178   0.676   2.770   3.421
 1681SOL    HW2 5179   0.738   2.876   3.509
 1682SOL     OW 5180   0.790   0.481   1.454
 1682SOL    HW1 5181   0.804   0.496   1.548
 1682SOL    HW2 5182   0.701   0.511   1.438
 1683SOL     OW 5183   0.628   0.084   2.408
 1683SOL    HW1 5184   0.610   0.123   2.494
 1683SOL    HW2 5185   0.724   0.074   2.406
 1684SOL     OW 5186   3.953   2.024   2.596
 1684SOL    HW1 5187   3.901   2.034   2.676
 1684SOL    HW2 5188   3.986   2.112   2.577
 1685SOL     OW 5189   1.734   2.286   0.999
 1685SOL    HW1 5190   1.737   2.319   1.088
 1685SOL    HW2 5191   1.780   2.352   0.947
 1686SOL     OW 5192   1.693   1.050   0.240
 1686SOL    HW1 5193   1.694   1.010   0.326
 1686SOL    HW2 5194   1.716   0.979   0.180
 1687SOL     OW 5195   3.167   2.725   2.754
 1687SOL    HW1 5196   3.215   2.646   2.780
 1687SOL    HW2 5197   3.179   2.730   2.659
 1688SOL     OW 5198   3.747   0.804   1.720
 1688SOL    HW1 5199   3.666   0.767   1.685
 1688SOL    HW2 5200   3.766   0.751   1.797
 1689SOL     OW 5201   3.470   3.290   0.608
 1689SOL    HW1 5202   3.421   3.228   0.663
 1689SOL    HW2 5203   3.479   3.246   0.524
 1690SOL     OW 5204   1.429   1.955   1.819
 1690SOL    HW1 5205   1.360   1.899   1.853
 1690SOL    HW2 5206   1.469   1.994   1.898
 1691SOL     OW 5207   3.047   0.103   0.895
 1691SOL    HW1 5208   3.064   0.026   0.842
 1691SOL    HW2 5209   3.014   0.168   0.833
 1692SOL     OW 5210   0.633   3.051   2.077
 1692SOL    HW1 5211   0.541   3.039   2.102
 1692SOL    HW2 5212   0.678   3.070   2.159
 1693SOL     OW 5213   2.997   2.911   1.864
 1693SOL    HW1 5214   3.060   2.951   1.804
 1693SOL    HW2 5215   3.016   2.950   1.949
 1694SOL     OW 5216   3.583   2.290   1.672
 1694SOL    HW1 5217   3.564   2.370   1.720
 1694SOL    HW2 5218   3.498   2.259   1.642
 1695SOL     OW 5219   2.382   1.840   2.939
 1695SOL    HW1 5220   2.472   1.833   2.908
 1695SOL    HW2 5221   2.377   1.929   2.976
 1696SOL     OW 5222   1.537   1.922   3.299
 1696SOL    HW1 5223   1.613   1.976   3.277
 1696SOL    HW2 5224   1.524   1.866   3.223
 1697SOL     OW 5225   0.098   2.989   1.667
 1697SOL    HW1 5226   0.056   3.053   1.725
 1697SOL    HW2 5227   0.123   3.040   1.590
 1698SOL     OW 5228   0.667   2.246   2.633
 1698SOL    HW1 5229   0.762   2.245   2.645
 1698SOL    HW2 5230   0.647   2.161   2.593
 1699SOL     OW 5231   0.267   0.359   1.821
 1699SOL    HW1 5232   0.264   0.449   1.853
 1699SOL    HW2 5233   0.175   0.333   1.817
 1700SOL     OW 5234   2.935   2.159   0.527
 1700SOL    HW1 5235   2.953   2.182   0.618
 1700SOL    HW2 5236   3.021   2.152   0.486
 1701SOL     OW 5237   0.096   3.137   1.402
 1701SOL    HW1 5238   0.170   3.198   1.400
 1701SOL    HW2 5239   0.103   3.087   1.321
 1702SOL     OW 5240   1.574   3.852   2.699
 1702SOL    HW1 5241   1.637   3.923   2.707
 1702SOL    HW2 5242   1.530   3.869   2.615
 1703SOL     OW 5243   1.746   3.580   0.365
 1703SOL    HW1 5244   1.727   3.508   0.425
 1703SOL    HW2 5245   1.838   3.601   0.380
 1704SOL     OW 5246   3.460   3.796   0.716
 1704SOL    HW1 5247   3.432   3.711   0.682
 1704SOL    HW2 5248   3.429   3.860   0.651
 1705SOL     OW 5249   0.762   1.518   1.543
 1705SOL    HW1 5250   0.714   1.562   1.473
 1705SOL    HW2 5251   0.694   1.476   1.596
 1706SOL     OW 5252   3.793   1.864   1.543
 1706SOL    HW1 5253   3.860   1.929   1.523
 1706SOL    HW2 5254   3.831   1.781   1.515
 1707SOL     OW 5255   2.133   1.314   3.850
 1707SOL    HW1 5256   2.063   1.379   3.860
 1707SOL    HW2 5257   2.133   1.292   3.757
 1708SOL     OW 5258   0.921   0.806   1.446
 1708SOL    HW1 5259   0.855   0.781   1.382
 1708SOL    HW2 5260   0.979   0.730   1.451
 1709SOL     OW 5261   3.933   0.086   3.371
 1709SOL    HW1 5262   3.839   0.072   3.361
 1709SOL    HW2 5263   3.947   0.177   3.345
 1710SOL     OW 5264   3.318   1.044   1.789
 1710SOL    HW1 5265   3.378   1.106   1.830
 1710SOL    HW2 5266   3.306   1.078   1.701
 1711SOL     OW 5267   2.004   2.765   3.550
 1711SOL    HW1 5268   2.091   2.781   3.512
 1711SOL    HW2 5269   1.948   2.747   3.474
 1712SOL     OW 5270   2.645   2.006   1.532
 1712SOL    HW1 5271   2.675   2.096   1.534
 1712SOL    HW2 5272   2.579   2.001   1.601
 1713SOL     OW 5273   0.355   0.228   2.077
 1713SOL    HW1 5274   0.397   0.142   2.081
 1713SOL    HW2 5275   0.335   0.241   1.985
 1714SOL     OW 5276   3.786   1.207   3.072
 1714SOL    HW1 5277   3.878   1.230   3.083
 1714SOL    HW2 5278   3.747   1.283   3.029
 1715SOL     OW 5279   3.707   2.586   2.705
 1715SOL    HW1 5280   3.641   2.649   2.735
 1715SOL    HW2 5281   3.696   2.583   2.610
 1716SOL     OW 5282   2.378   2.683   2.244
 1716SOL    HW1 5283   2.423   2.756   2.203
 1716SOL    HW2 5284   2.427   2.606   2.218
 1717SOL     OW 5285   1.864   0.747   3.272
 1717SOL    HW1 5286   1.851   0.670   3.327
 1717SOL    HW2 5287   1.795   0.741   3.205
 1718SOL     OW 5288   1.867   0.889   2.456
 1718SOL    HW1 5289   1.906   0.909   2.371
 1718SOL    HW2 5290   1.776   0.917   2.448
 1719SOL     OW 5291   2.073   3.393   1.820
 1719SOL    HW1 5292   2.032   3.389   1.734
 1719SOL    HW2 5293   2.159   3.432   1.804
 1720SOL     OW 5294   0.951   2.356   1.098
 1720SOL    HW1 5295   0.894   2.392   1.167
 1720SOL    HW2 5296   1.019   2.422   1.087
 1721SOL     OW 5297   2.843   0.669   3.379
 1721SOL    HW1 5298   2.806   0.584   3.356
 1721SOL    HW2 5299   2.839   0.720   3.298
 1722SOL     OW 5300   0.932   1.999   1.423
 1722SOL    HW1 5301   0.892   1.971   1.340
 1722SOL    HW2 5302   0.878   1.958   1.490
 1723SOL     OW 5303   2.303   0.059   2.835
 1723SOL    HW1 5304   2.259  -0.013   2.789
 1723SOL    HW2 5305   2.285   0.042   2.928
 1724SOL     OW 5306   3.558   1.125   2.604
 1724SOL    HW1 5307   3.482   1.118   2.547
 1724SOL    HW2 5308   3.571   1.219   2.616
 1725SOL     OW 5309   0.171   3.080   0.041
 1725SOL    HW1 5310   0.120   3.122  -0.029
 1725SOL    HW2 5311   0.196   2.995   0.005
 1726SOL     OW 5312   3.268   2.022   3.530
 1726SOL    HW1 5313   3.225   1.974   3.459
 1726SOL    HW2 5314   3.205   2.020   3.602
 1727SOL     OW 5315   0.965   1.937   2.719
 1727SOL    HW1 5316   1.020   2.013   2.738
 1727SOL    HW2 5317   0.935   1.906   2.804
 1728SOL     OW 5318   3.663   1.361   2.574
 1728SOL    HW1 5319   3.737   1.304   2.596
 1728SOL    HW2 5320   3.670   1.372   2.479
 1729SOL     OW 5321   1.202   3.068   0.581
 1729SOL    HW1 5322   1.221   3.026   0.497
 1729SOL    HW2 5323   1.217   2.999   0.646
 1730SOL     OW 5324   2.450  -0.032   1.071
 1730SOL    HW1 5325   2.386   0.039   1.069
 1730SOL    HW2 5326   2.532   0.010   1.043
 1731SOL     OW 5327   1.743   1.217   0.027
 1731SOL    HW1 5328   1.720   1.203   0.119
 1731SOL    HW2 5329   1.715   1.306   0.008
 1732SOL     OW 5330   3.444   3.337   1.091
 1732SOL    HW1 5331   3.503   3.394   1.041
 1732SOL    HW2 5332   3.499   3.300   1.160
 1733SOL     OW 5333   3.957   3.676   3.650
 1733SOL    HW1 5334   3.953   3.592   3.697
 1733SOL    HW2 5335   3.922   3.657   3.563
 1734SOL     OW 5336   3.360   2.255   3.929
 1734SOL    HW1 5337   3.332   2.227   3.842
 1734SOL    HW2 5338   3.327   2.345   3.936
 1735SOL     OW 5339   3.183   0.707   2.307
 1735SOL    HW1 5340   3.099   0.661   2.301
 1735SOL    HW2 5341   3.248   0.641   2.282
 1736SOL     OW 5342   2.539   2.893   2.936
 1736SOL    HW1 5343   2.472   2.932   2.879
 1736SOL    HW2 5344   2.584   2.830   2.880
 1737SOL     OW 5345   3.509   3.903   1.130
 1737SOL    HW1 5346   3.498   3.997   1.121
 1737SOL    HW2 5347   3.422   3.867   1.112
 1738SOL     OW 5348   2.361   3.209   2.788
 1738SOL    HW1 5349   2.294   3.143   2.808
 1738SOL    HW2 5350   2.311   3.288   2.766
 1739SOL     OW 5351   2.323   3.861   3.234
 1739SOL    HW1 5352   2.320   3.788   3.295
 1739SOL    HW2 5353   2.356   3.934   3.286
 1740SOL     OW 5354   1.973   0.409   3.129
 1740SOL    HW1 5355   1.885   0.388   3.161
 1740SOL    HW2 5356   1.977   0.505   3.131
 1741SOL     OW 5357   0.684   1.691   2.832
 1741SOL    HW1 5358   0.642   1.769   2.868
 1741SOL    HW2 5359   0.770   1.687   2.874
 1742SOL     OW 5360   3.491   1.807   0.981
 1742SOL    HW1 5361   3.465   1.897   0.999
 1742SOL    HW2 5362   3.459   1.757   1.056
 1743SOL     OW 5363   3.872   3.747   0.479
 1743SOL    HW1 5364   3.811   3.818   0.462
 1743SOL    HW2 5365   3.911   3.727   0.393
 1744SOL     OW 5366   2.141   2.055   1.283
 1744SOL    HW1 5367   2.163   1.982   1.340
 1744SOL    HW2 5368   2.052   2.079   1.307
 1745SOL     OW 5369   2.157   3.801   1.131
 1745SOL    HW1 5370   2.174   3.873   1.069
 1745SOL    HW2 5371   2.171   3.840   1.217
 1746SOL     OW 5372   2.912   2.327   1.136
 1746SOL    HW1 5373   2.988   2.272   1.118
 1746SOL    HW2 5374   2.844   2.294   1.078
 1747SOL     OW 5375   3.588   1.186   3.307
 1747SOL    HW1 5376   3.553   1.102   3.336
 1747SOL    HW2 5377   3.666   1.164   3.256
 1748SOL     OW 5378   2.825   0.989   3.434
 1748SOL    HW1 5379   2.891   0.928   3.467
 1748SOL    HW2 5380   2.872   1.072   3.424
 1749SOL     OW 5381   2.865   1.639   0.235
 1749SOL    HW1 5382   2.879   1.726   0.197
 1749SOL    HW2 5383   2.865   1.581   0.159
 1750SOL     OW 5384   3.832   1.743   3.787
 1750SOL    HW1 5385   3.798   1.702   3.708
 1750SOL    HW2 5386   3.771   1.718   3.856
 1751SOL     OW 5387   3.021   1.981   1.568
 1751SOL    HW1 5388   3.037   1.920   1.496
 1751SOL    HW2 5389   2.990   2.061   1.525
 1752SOL     OW 5390   1.423   3.334   0.206
 1752SOL    HW1 5391   1.348   3.293   0.163
 1752SOL    HW2 5392   1.461   3.264   0.259
 1753SOL     OW 5393   3.825   2.768   0.081
 1753SOL    HW1 5394   3.848   2.677   0.063
 1753SOL    HW2 5395   3.730   2.767   0.088
 1754SOL     OW 5396   3.649   1.635   0.001
 1754SOL    HW1 5397   3.636   1.541   0.018
 1754SOL    HW2 5398   3.599   1.678   0.070
 1755SOL     OW 5399   2.423   2.029   2.674
 1755SOL    HW1 5400   2.434   2.072   2.759
 1755SOL    HW2 5401   2.494   1.964   2.672
 1756SOL     OW 5402   1.920   0.658   1.709
 1756SOL    HW1 5403   1.961   0.738   1.742
 1756SOL    HW2 5404   1.957   0.588   1.763
 1757SOL     OW 5405   2.236   3.454   2.798
 1757SOL    HW1 5406   2.249   3.490   2.886
 1757SOL    HW2 5407   2.225   3.531   2.742
 1758SOL     OW 5408   2.189   3.208   0.092
 1758SOL    HW1 5409   2.272   3.223   0.137
 1758SOL    HW2 5410   2.198   3.254   0.008
 1759SOL     OW 5411   1.119   1.459   1.672
 1759SOL    HW1 5412   1.210   1.486   1.686
 1759SOL    HW2 5413   1.121   1.411   1.589
 1760SOL     OW 5414   1.857   0.247   2.242
 1760SOL    HW1 5415   1.813   0.209   2.166
 1760SOL    HW2 5416   1.855   0.342   2.227
 1761SOL     OW 5417   2.442   2.084   2.185
 1761SOL    HW1 5418   2.404   2.143   2.251
 1761SOL    HW2 5419   2.467   2.142   2.113
 1762SOL     OW 5420   1.755   2.425   2.660
 1762SOL    HW1 5421   1.667   2.450   2.633
 1762SOL    HW2 5422   1.744   2.343   2.708
 1763SOL     OW 5423   3.520   3.018   1.004
 1763SOL    HW1 5424   3.583   2.964   1.051
 1763SOL    HW2 5425   3.463   3.054   1.073
 1764SOL     OW 5426   3.037   0.517   2.575
 1764SOL    HW1 5427   3.031   0.426   2.604
 1764SOL    HW2 5428   3.128   0.527   2.548
 1765SOL     OW 5429   0.727   0.180   2.987
 1765SOL    HW1 5430   0.800   0.206   2.931
 1765SOL    HW2 5431   0.752   0.211   3.074
 1766SOL     OW 5432   2.249   3.164   1.930
 1766SOL    HW1 5433   2.180   3.182   1.994
 1766SOL    HW2 5434   2.327   3.146   1.983
 1767SOL     OW 5435   3.352   0.896   3.864
 1767SOL    HW1 5436   3.411   0.960   3.825
 1767SOL    HW2 5437   3.328   0.838   3.791
 1768SOL     OW 5438   2.150   2.889   3.795
 1768SOL    HW1 5439   2.130   2.965   3.740
 1768SOL    HW2 5440   2.065   2.856   3.822
 1769SOL     OW 5441   2.256   0.832   3.525
 1769SOL    HW1 5442   2.278   0.909   3.578
 1769SOL    HW2 5443   2.225   0.768   3.589
 1770SOL     OW 5444   1.726   0.443   0.970
 1770SOL    HW1 5445   1.736   0.359   1.014
 1770SOL    HW2 5446   1.656   0.429   0.907
 1771SOL     OW 5447   3.498   1.424   2.194
 1771SOL    HW1 5448   3.490   1.484   2.120
 1771SOL    HW2 5449   3.420   1.442   2.247
 1772SOL     OW 5450   1.139   2.157   1.854
 1772SOL    HW1 5451   1.123   2.067   1.826
 1772SOL    HW2 5452   1.202   2.191   1.791
 1773SOL     OW 5453   1.337   0.508   2.610
 1773SOL    HW1 5454   1.321   0.526   2.517
 1773SOL    HW2 5455   1.431   0.489   2.614
 1774SOL     OW 5456   1.654   3.151   3.538
 1774SOL    HW1 5457   1.686   3.205   3.466
 1774SOL    HW2 5458   1.588   3.205   3.581
 1775SOL     OW 5459   1.097   2.373   2.174
 1775SOL    HW1 5460   1.019   2.376   2.119
 1775SOL    HW2 5461   1.128   2.463   2.176
 1776SOL     OW 5462   2.207   2.144   0.655
 1776SOL    HW1 5463   2.189   2.234   0.684
 1776SOL    HW2 5464   2.130   2.120   0.604
 1777SOL     OW 5465   1.504   2.818   0.604
 1777SOL    HW1 5466   1.430   2.875   0.627
 1777SOL    HW2 5467   1.577   2.879   0.592
 1778SOL     OW 5468   2.668   2.356   0.393
 1778SOL    HW1 5469   2.692   2.322   0.479
 1778SOL    HW2 5470   2.574   2.372   0.398
 1779SOL     OW 5471   3.886   1.080   2.366
 1779SOL    HW1 5472   3.851   1.141   2.301
 1779SOL    HW2 5473   3.917   1.136   2.437
 1780SOL     OW 5474   2.220   1.632   2.999
 1780SOL    HW1 5475   2.266   1.714   2.985
 1780SOL    HW2 5476   2.167   1.647   3.077
 1781SOL     OW 5477   2.442   0.808   1.378
 1781SOL    HW1 5478   2.487   0.861   1.311
 1781SOL    HW2 5479   2.499   0.732   1.391
 1782SOL     OW 5480   3.018   0.805   1.146
 1782SOL    HW1 5481   2.978   0.844   1.224
 1782SOL    HW2 5482   3.072   0.875   1.110
 1783SOL     OW 5483   2.624   0.026   2.951
 1783SOL    HW1 5484   2.549  -0.024   2.919
 1783SOL    HW2 5485   2.607   0.116   2.924
 1784SOL     OW 5486   2.026   3.757   3.468
 1784SOL    HW1 5487   2.108   3.740   3.422
 1784SOL    HW2 5488   2.005   3.674   3.511
 1785SOL     OW 5489   1.439   3.465   1.487
 1785SOL    HW1 5490   1.441   3.391   1.548
 1785SOL    HW2 5491   1.530   3.475   1.459
 1786SOL     OW 5492   3.429   3.913   0.336
 1786SOL    HW1 5493   3.425   3.818   0.349
 1786SOL    HW2 5494   3.508   3.927   0.284
 1787SOL     OW 5495   1.199   3.833   3.107
 1787SOL    HW1 5496   1.112   3.856   3.074
 1787SOL    HW2 5497   1.239   3.916   3.130
 1788SOL     OW 5498   0.213   0.604   1.938
 1788SOL    HW1 5499   0.124   0.637   1.952
 1788SOL    HW2 5500   0.245   0.583   2.026
 1789SOL     OW 5501   2.760   1.819   1.345
 1789SOL    HW1 5502   2.842   1.793   1.387
 1789SOL    HW2 5503   2.710   1.861   1.414
 1790SOL     OW 5504   3.424   1.309   3.055
 1790SOL    HW1 5505   3.390   1.306   3.145
 1790SOL    HW2 5506   3.426   1.403   3.034
 1791SOL     OW 5507   2.478   3.333   2.353
 1791SOL    HW1 5508   2.454   3.381   2.432
 1791SOL    HW2 5509   2.561   3.372   2.326
 1792SOL     OW 5510   3.533   1.099   3.841
 1792SOL    HW1 5511   3.533   1.179   3.893
 1792SOL    HW2 5512   3.517   1.129   3.751
 1793SOL     OW 5513   1.365   2.700   3.038
 1793SOL    HW1 5514   1.404   2.617   3.069
 1793SOL    HW2 5515   1.428   2.767   3.065
 1794SOL     OW 5516   1.163   0.874   3.073
 1794SOL    HW1 5517   1.215   0.935   3.126
 1794SOL    HW2 5518   1.121   0.930   3.008
 1795SOL     OW 5519   2.669   0.321   2.928
 1795SOL    HW1 5520   2.600   0.381   2.957
 1795SOL    HW2 5521   2.743   0.338   2.986
 1796SOL     OW 5522   3.687   1.528   1.072
 1796SOL    HW1 5523   3.650   1.591   1.133
 1796SOL    HW2 5524   3.701   1.577   0.991
 1797SOL     OW 5525   2.248   0.594   3.377
 1797SOL    HW1 5526   2.191   0.576   3.452
 1797SOL    HW2 5527   2.281   0.683   3.394
 1798SOL     OW 5528   3.597   3.983   3.727
 1798SOL    HW1 5529   3.508   3.961   3.757
 1798SOL    HW2 5530   3.637   3.899   3.706
 1799SOL     OW 5531   2.734   3.035   1.001
 1799SOL    HW1 5532   2.690   2.980   0.937
 1799SOL    HW2 5533   2.696   3.009   1.085
 1800SOL     OW 5534   1.898   1.168   1.386
 1800SOL    HW1 5535   1.885   1.170   1.480
 1800SOL    HW2 5536   1.813   1.145   1.350
 1801SOL     OW 5537   1.568   2.453   1.544
 1801SOL    HW1 5538   1.633   2.383   1.535
 1801SOL    HW2 5539   1.484   2.409   1.533
 1802SOL     OW 5540   3.850   3.660   0.865
 1802SOL    HW1 5541   3.822   3.625   0.780
 1802SOL    HW2 5542   3.785   3.728   0.884
 1803SOL     OW 5543   0.976   0.584   0.445
 1803SOL    HW1 5544   0.955   0.635   0.524
 1803SOL    HW2 5545   0.892   0.571   0.402
 1804SOL     OW 5546   0.569   1.166   3.758
 1804SOL    HW1 5547   0.533   1.120   3.683
 1804SOL    HW2 5548   0.664   1.161   3.746
 1805SOL     OW 5549   0.196   3.166   0.305
 1805SOL    HW1 5550   0.265   3.232   0.305
 1805SOL    HW2 5551   0.202   3.125   0.218
 1806SOL     OW 5552   2.766   0.212   1.515
 1806SOL    HW1 5553   2.850   0.182   1.479
 1806SOL    HW2 5554   2.742   0.146   1.580
 1807SOL     OW 5555   0.902   1.674   3.450
 1807SOL    HW1 5556   0.974   1.702   3.507
 1807SOL    HW2 5557   0.897   1.579   3.462
 1808SOL     OW 5558   2.291   3.626   3.005
 1808SOL    HW1 5559   2.246   3.707   2.980
 1808SOL    HW2 5560   2.383   3.643   2.986
 1809SOL     OW 5561   1.176   2.836   2.308
 1809SOL    HW1 5562   1.241   2.773   2.276
 1809SOL    HW2 5563   1.138   2.795   2.385
 1810SOL     OW 5564   2.278   1.034   2.894
 1810SOL    HW1 5565   2.344   1.015   2.961
 1810SOL    HW2 5566   2.297   0.971   2.824
 1811SOL     OW 5567  -0.007   2.537   0.052
 1811SOL    HW1 5568   0.070   2.593   0.064
 1811SOL    HW2 5569   0.025   2.466  -0.005
 1812SOL     OW 5570   2.410   2.041   1.641
 1812SOL    HW1 5571   2.332   2.011   1.596
 1812SOL    HW2 5572   2.378   2.101   1.708
 1813SOL     OW 5573   2.381   0.264   0.393
 1813SOL    HW1 5574   2.427   0.204   0.333
 1813SOL    HW2 5575   2.295   0.277   0.353
 1814SOL     OW 5576   1.808   2.592   3.349
 1814SOL    HW1 5577   1.852   2.631   3.273
 1814SOL    HW2 5578   1.853   2.509   3.362
 1815SOL     OW 5579   3.763   0.110   1.939
 1815SOL    HW1 5580   3.791   0.068   2.021
 1815SOL    HW2 5581   3.682   0.065   1.916
 1816SOL     OW 5582   1.892   3.157   1.268
 1816SOL    HW1 5583   1.867   3.199   1.350
 1816SOL    HW2 5584   1.958   3.092   1.293
 1817SOL     OW 5585   0.582   0.302   2.235
 1817SOL    HW1 5586   0.576   0.240   2.308
 1817SOL    HW2 5587   0.493   0.306   2.199
 1818SOL     OW 5588   0.617   2.660   1.444
 1818SOL    HW1 5589   0.633   2.606   1.521
 1818SOL    HW2 5590   0.526   2.687   1.451
 1819SOL     OW 5591   0.241   1.580   1.276
 1819SOL    HW1 5592   0.280   1.655   1.230
 1819SOL    HW2 5593   0.310   1.549   1.335
 1820SOL     OW 5594   3.226   2.699   3.579
 1820SOL    HW1 5595   3.308   2.653   3.598
 1820SOL    HW2 5596   3.191   2.723   3.665
 1821SOL     OW 5597   0.078   2.688   1.642
 1821SOL    HW1 5598   0.152   2.656   1.694
 1821SOL    HW2 5599   0.096   2.782   1.631
 1822SOL     OW 5600   2.503   2.338   0.827
 1822SOL    HW1 5601   2.460   2.393   0.893
 1822SOL    HW2 5602   2.447   2.260   0.821
 1823SOL     OW 5603   2.317   3.148   1.668
 1823SOL    HW1 5604   2.301   3.215   1.734
 1823SOL    HW2 5605   2.354   3.074   1.717
 1824SOL     OW 5606   1.257   1.438   0.554
 1824SOL    HW1 5607   1.208   1.369   0.511
 1824SOL    HW2 5608   1.230   1.434   0.646
 1825SOL     OW 5609   3.543   2.758   0.127
 1825SOL    HW1 5610   3.518   2.669   0.154
 1825SOL    HW2 5611   3.540   2.810   0.208
 1826SOL     OW 5612   2.367   3.406   3.554
 1826SOL    HW1 5613   2.274   3.401   3.530
 1826SOL    HW2 5614   2.412   3.428   3.472
 1827SOL     OW 5615   0.623   0.818   1.565
 1827SOL    HW1 5616   0.689   0.799   1.499
 1827SOL    HW2 5617   0.619   0.739   1.620
 1828SOL     OW 5618   0.642   0.450   2.578
 1828SOL    HW1 5619   0.565   0.478   2.529
 1828SOL    HW2 5620   0.708   0.431   2.511
 1829SOL     OW 5621   2.687   0.622   0.347
 1829SOL    HW1 5622   2.607   0.610   0.297
 1829SOL    HW2 5623   2.683   0.554   0.415
 1830SOL     OW 5624   0.286   0.362   1.071
 1830SOL    HW1 5625   0.301   0.304   1.145
 1830SOL    HW2 5626   0.308   0.310   0.994
 1831SOL     OW 5627   0.039   0.759   0.171
 1831SOL    HW1 5628   0.075   0.675   0.141
 1831SOL    HW2 5629  -0.009   0.737   0.251
 1832SOL     OW 5630   0.395   1.623   0.492
 1832SOL    HW1 5631   0.381   1.664   0.407
 1832SOL    HW2 5632   0.317   1.571   0.507
 1833SOL     OW 5633   3.013   1.549   1.105
 1833SOL    HW1 5634   2.942   1.516   1.160
 1833SOL    HW2 5635   2.981   1.539   1.015
 1834SOL     OW 5636   2.789   3.541   3.446
 1834SOL    HW1 5637   2.872   3.588   3.457
 1834SOL    HW2 5638   2.723   3.609   3.436
 1835SOL     OW 5639   3.552   3.416   1.828
 1835SOL    HW1 5640   3.575   3.497   1.874
 1835SOL    HW2 5641   3.545   3.441   1.736
 1836SOL     OW 5642   2.413   2.887   0.137
 1836SOL    HW1 5643   2.331   2.931   0.114
 1836SOL    HW2 5644   2.481   2.951   0.113
 1837SOL     OW 5645   0.964   3.520   0.545
 1837SOL    HW1 5646   1.031   3.491   0.608
 1837SOL    HW2 5647   0.883   3.521   0.596
 1838SOL     OW 5648   3.807   2.821   1.543
 1838SOL    HW1 5649   3.895   2.787   1.554
 1838SOL    HW2 5650   3.763   2.758   1.485
 1839SOL     OW 5651   2.662   0.724   0.675
 1839SOL    HW1 5652   2.688   0.684   0.758
 1839SOL    HW2 5653   2.573   0.754   0.690
 1840SOL     OW 5654   1.660   1.048   3.267
 1840SOL    HW1 5655   1.580   1.095   3.244
 1840SOL    HW2 5656   1.656   0.968   3.214
 1841SOL     OW 5657   1.695   3.300   3.302
 1841SOL    HW1 5658   1.675   3.245   3.226
 1841SOL    HW2 5659   1.750   3.370   3.266
 1842SOL     OW 5660   3.264   2.148   2.727
 1842SOL    HW1 5661   3.298   2.220   2.674
 1842SOL    HW2 5662   3.254   2.075   2.665
 1843SOL     OW 5663   3.488   2.837   3.050
 1843SOL    HW1 5664   3.580   2.838   3.025
 1843SOL    HW2 5665   3.475   2.918   3.098
 1844SOL     OW 5666   2.874   2.015   2.632
 1844SOL    HW1 5667   2.796   2.061   2.603
 1844SOL    HW2 5668   2.939   2.030   2.563
 1845SOL     OW 5669   0.848   0.026   3.250
 1845SOL    HW1 5670   0.868   0.089   3.319
 1845SOL    HW2 5671   0.753   0.016   3.254
 1846SOL     OW 5672   1.422   1.379   2.425
 1846SOL    HW1 5673   1.404   1.413   2.338
 1846SOL    HW2 5674   1.381   1.442   2.484
 1847SOL     OW 5675   3.586   1.939   1.370
 1847SOL    HW1 5676   3.659   1.919   1.429
 1847SOL    HW2 5677   3.588   2.035   1.361
 1848SOL     OW 5678   1.994   2.360   1.566
 1848SOL    HW1 5679   1.977   2.394   1.654
 1848SOL    HW2 5680   2.080   2.396   1.543
 1849SOL     OW 5681   3.532   1.661   1.261
 1849SOL    HW1 5682   3.473   1.611   1.317
 1849SOL    HW2 5683   3.534   1.749   1.299
 1850SOL     OW 5684   1.405   3.745   0.019
 1850SOL    HW1 5685   1.449   3.660   0.016
 1850SOL    HW2 5686   1.314   3.725   0.043
 1851SOL     OW 5687   0.913   3.539   3.425
 1851SOL    HW1 5688   0.968   3.595   3.371
 1851SOL    HW2 5689   0.889   3.466   3.369
 1852SOL     OW 5690   0.800   2.015   1.970
 1852SOL    HW1 5691   0.840   2.016   2.057
 1852SOL    HW2 5692   0.825   1.930   1.933
 1853SOL     OW 5693   1.605   0.635   1.734
 1853SOL    HW1 5694   1.609   0.594   1.648
 1853SOL    HW2 5695   1.694   0.666   1.750
 1854SOL     OW 5696   0.947   3.778   0.268
 1854SOL    HW1 5697   0.949   3.865   0.229
 1854SOL    HW2 5698   0.877   3.782   0.334
 1855SOL     OW 5699   1.467   3.132   0.399
 1855SOL    HW1 5700   1.545   3.077   0.389
 1855SOL    HW2 5701   1.394   3.074   0.375
 1856SOL     OW 5702   3.626   2.246   3.226
 1856SOL    HW1 5703   3.654   2.162   3.262
 1856SOL    HW2 5704   3.705   2.301   3.230
 1857SOL     OW 5705   2.472   0.836   0.396
 1857SOL    HW1 5706   2.567   0.824   0.390
 1857SOL    HW2 5707   2.439   0.749   0.419
 1858SOL     OW 5708   0.592   1.892   2.573
 1858SOL    HW1 5709   0.600   1.801   2.547
 1858SOL    HW2 5710   0.508   1.920   2.538
 1859SOL     OW 5711   0.219   0.168   0.338
 1859SOL    HW1 5712   0.148   0.220   0.299
 1859SOL    HW2 5713   0.297   0.195   0.290
 1860SOL     OW 5714   3.265   1.666   0.201
 1860SOL    HW1 5715   3.216   1.747   0.216
 1860SOL    HW2 5716   3.250   1.614   0.280
 1861SOL     OW 5717   3.479   1.409   0.738
 1861SOL    HW1 5718   3.507   1.500   0.743
 1861SOL    HW2 5719   3.496   1.374   0.826
 1862SOL     OW 5720   3.378   0.073   0.891
 1862SOL    HW1 5721   3.381   0.000   0.829
 1862SOL    HW2 5722   3.291   0.111   0.878
 1863SOL     OW 5723   3.449   3.107   3.724
 1863SOL    HW1 5724   3.412   3.121   3.637
 1863SOL    HW2 5725   3.483   3.017   3.721
 1864SOL     OW 5726   0.662   1.199   0.476
 1864SOL    HW1 5727   0.581   1.211   0.526
 1864SOL    HW2 5728   0.689   1.288   0.455
 1865SOL     OW 5729   2.433   2.519   1.070
 1865SOL    HW1 5730   2.352   2.514   1.121
 1865SOL    HW2 5731   2.497   2.470   1.123
 1866SOL     OW 5732   1.089   0.275   2.493
 1866SOL    HW1 5733   1.140   0.193   2.500
 1866SOL    HW2 5734   1.015   0.253   2.437
 1867SOL     OW 5735   2.720   3.344   0.507
 1867SOL    HW1 5736   2.662   3.409   0.546
 1867SOL    HW2 5737   2.805   3.361   0.547
 1868SOL     OW 5738   3.760   2.134   1.811
 1868SOL    HW1 5739   3.714   2.177   1.739
 1868SOL    HW2 5740   3.845   2.109   1.774
 1869SOL     OW 5741   0.162   2.360   1.668
 1869SOL    HW1 5742   0.101   2.322   1.732
 1869SOL    HW2 5743   0.167   2.453   1.692
 1870SOL     OW 5744   2.441   2.331   1.684
 1870SOL    HW1 5745   2.376   2.360   1.619
 1870SOL    HW2 5746   2.457   2.409   1.737
 1871SOL     OW 5747   1.628   3.365   0.478
 1871SOL    HW1 5748   1.664   3.285   0.515
 1871SOL    HW2 5749   1.537   3.342   0.455
 1872SOL     OW 5750   1.050   1.305   3.696
 1872SOL    HW1 5751   1.062   1.326   3.789
 1872SOL    HW2 5752   1.015   1.216   3.695
 1873SOL     OW 5753   0.132   1.374   2.400
 1873SOL    HW1 5754   0.227   1.384   2.397
 1873SOL    HW2 5755   0.105   1.366   2.309
 1874SOL     OW 5756   1.544   1.810   1.295
 1874SOL    HW1 5757   1.467   1.798   1.350
 1874SOL    HW2 5758   1.562   1.904   1.300
 1875SOL     OW 5759   2.288   2.571   0.759
 1875SOL    HW1 5760   2.343   2.620   0.698
 1875SOL    HW2 5761   2.325   2.591   0.845
 1876SOL     OW 5762   2.114   3.524   3.945
 1876SOL    HW1 5763   2.173   3.454   3.919
 1876SOL    HW2 5764   2.028   3.495   3.917
 1877SOL     OW 5765   3.199   2.659   2.372
 1877SOL    HW1 5766   3.251   2.588   2.409
 1877SOL    HW2 5767   3.242   2.739   2.403
 1878SOL     OW 5768   1.213   1.107   1.696
 1878SOL    HW1 5769   1.261   1.026   1.676
 1878SOL    HW2 5770   1.221   1.116   1.791
 1879SOL     OW 5771   1.017   1.078   1.508
 1879SOL    HW1 5772   0.979   0.990   1.513
 1879SOL    HW2 5773   1.078   1.081   1.581
 1880SOL     OW 5774   1.979   2.730   3.169
 1880SOL    HW1 5775   2.064   2.758   3.205
 1880SOL    HW2 5776   2.003   2.670   3.098
 1881SOL     OW 5777   1.698   2.707   2.576
 1881SOL    HW1 5778   1.740   2.787   2.544
 1881SOL    HW2 5779   1.745   2.636   2.532
 1882SOL     OW 5780   2.296   3.298   1.009
 1882SOL    HW1 5781   2.296   3.271   0.917
 1882SOL    HW2 5782   2.245   3.379   1.011
 1883SOL     OW 5783   1.178   0.573   3.081
 1883SOL    HW1 5784   1.189   0.667   3.066
 1883SOL    HW2 5785   1.090   0.554   3.050
 1884SOL     OW 5786   1.018   2.514   0.472
 1884SOL    HW1 5787   1.109   2.496   0.491
 1884SOL    HW2 5788   0.987   2.438   0.424
 1885SOL     OW 5789   1.475   0.933   1.119
 1885SOL    HW1 5790   1.424   1.013   1.112
 1885SOL    HW2 5791   1.445   0.878   1.047
 1886SOL     OW 5792   1.932   0.341   0.503
 1886SOL    HW1 5793   1.967   0.394   0.574
 1886SOL    HW2 5794   1.962   0.252   0.523
 1887SOL     OW 5795   2.588   0.490   2.552
 1887SOL    HW1 5796   2.495   0.501   2.531
 1887SOL    HW2 5797   2.633   0.510   2.470
 1888SOL     OW 5798   3.243   0.969   2.285
 1888SOL    HW1 5799   3.322   0.922   2.259
 1888SOL    HW2 5800   3.173   0.905   2.277
 1889SOL     OW 5801   0.885   1.378   2.810
 1889SOL    HW1 5802   0.862   1.368   2.902
 1889SOL    HW2 5803   0.824   1.444   2.777
 1890SOL     OW 5804   1.506   3.871   3.740
 1890SOL    HW1 5805   1.560   3.949   3.748
 1890SOL    HW2 5806   1.469   3.858   3.828
 1891SOL     OW 5807   0.414   3.014   0.756
 1891SOL    HW1 5808   0.331   2.967   0.744
 1891SOL    HW2 5809   0.481   2.951   0.729
 1892SOL     OW 5810   3.281   1.185   2.446
 1892SOL    HW1 5811   3.285   1.261   2.388
 1892SOL    HW2 5812   3.268   1.110   2.388
 1893SOL     OW 5813   3.060   3.307   2.053
 1893SOL    HW1 5814   3.130   3.343   1.998
 1893SOL    HW2 5815   2.981   3.351   2.022
 1894SOL     OW 5816   3.057   0.861   1.597
 1894SOL    HW1 5817   3.147   0.832   1.588
 1894SOL    HW2 5818   3.007   0.781   1.613
 1895SOL     OW 5819   3.760   0.793   3.313
 1895SOL    HW1 5820   3.854   0.806   3.325
 1895SOL    HW2 5821   3.742   0.831   3.227
 1896SOL     OW 5822   1.237   0.496   2.329
 1896SOL    HW1 5823   1.194   0.531   2.251
 1896SOL    HW2 5824   1.172   0.437   2.367
 1897SOL     OW 5825   0.666   3.627   3.302
 1897SOL    HW1 5826   0.674   3.641   3.208
 1897SOL    HW2 5827   0.748   3.585   3.327
 1898SOL     OW 5828   1.919   0.326   2.865
 1898SOL    HW1 5829   2.008   0.347   2.838
 1898SOL    HW2 5830   1.921   0.328   2.961
 1899SOL     OW 5831   3.355   3.363   3.332
 1899SOL    HW1 5832   3.426   3.306   3.302
 1899SOL    HW2 5833   3.340   3.423   3.259
 1900SOL     OW 5834   1.261  -0.007   2.768
 1900SOL    HW1 5835   1.299  -0.053   2.842
 1900SOL    HW2 5836   1.270   0.086   2.790
 1901SOL     OW 5837   1.792   3.869   2.215
 1901SOL    HW1 5838   1.851   3.939   2.243
 1901SOL    HW2 5839   1.738   3.909   2.146
 1902SOL     OW 5840   1.940   2.831   2.501
 1902SOL    HW1 5841   2.015   2.782   2.468
 1902SOL    HW2 5842   1.966   2.923   2.493
 1903SOL     OW 5843   1.100   2.765   3.112
 1903SOL    HW1 5844   1.035   2.720   3.058
 1903SOL    HW2 5845   1.183   2.750   3.066
 1904SOL     OW 5846   3.016   3.332   3.350
 1904SOL    HW1 5847   3.027   3.254   3.295
 1904SOL    HW2 5848   3.009   3.405   3.288
 1905SOL     OW 5849   1.946   0.060   1.528
 1905SOL    HW1 5850   1.897   0.032   1.451
 1905SOL    HW2 5851   1.901   0.018   1.601
 1906SOL     OW 5852   1.125   0.007   0.652
 1906SOL    HW1 5853   1.220  -0.001   0.653
 1906SOL    HW2 5854   1.105   0.053   0.571
 1907SOL     OW 5855   1.871   2.010   1.118
 1907SOL    HW1 5856   1.944   1.996   1.058
 1907SOL    HW2 5857   1.819   2.078   1.077
 1908SOL     OW 5858   0.697   1.141   1.959
 1908SOL    HW1 5859   0.690   1.110   1.869
 1908SOL    HW2 5860   0.637   1.217   1.963
 1909SOL     OW 5861   0.053   0.827   3.183
 1909SOL    HW1 5862   0.034   0.733   3.187
 1909SOL    HW2 5863   0.100   0.838   3.100
 1910SOL     OW 5864   3.899   0.570   3.107
 1910SOL    HW1 5865   3.809   0.558   3.139
 1910SOL    HW2 5866   3.890   0.578   3.012
 1911SOL     OW 5867   2.450   3.708   0.929
 1911SOL    HW1 5868   2.520   3.657   0.969
 1911SOL    HW2 5869   2.450   3.791   0.977
 1912SOL     OW 5870   3.649   2.106   2.077
 1912SOL    HW1 5871   3.596   2.028   2.060
 1912SOL    HW2 5872   3.694   2.122   1.994
 1913SOL     OW 5873   1.200   3.265   3.636
 1913SOL    HW1 5874   1.159   3.209   3.702
 1913SOL    HW2 5875   1.186   3.218   3.554
 1914SOL     OW 5876   3.070   1.522   1.711
 1914SOL    HW1 5877   3.010   1.542   1.783
 1914SOL    HW2 5878   3.132   1.460   1.748
 1915SOL     OW 5879   1.361   3.413   2.009
 1915SOL    HW1 5880   1.374   3.331   2.056
 1915SOL    HW2 5881   1.442   3.463   2.025
 1916SOL     OW 5882   0.592   3.912   2.862
 1916SOL    HW1 5883   0.638   3.994   2.881
 1916SOL    HW2 5884   0.502   3.928   2.891
 1917SOL     OW 5885   0.724   2.660   2.678
 1917SOL    HW1 5886   0.786   2.688   2.611
 1917SOL    HW2 5887   0.679   2.740   2.704
 1918NA      NA 5888   0.122   3.704   0.885
 1919NA      NA 5889   1.148   3.479   1.910
   3.96100   3.96100   3.96100   0.00000   0.00000   0.00000   0.00000   0.00000   0.00000
