Generated with MDTraj, t= 26946.0
 5889
    1TYR      N    1   3.389   4.106   0.371
    1TYR     H1    2   3.468   4.116   0.438
    1TYR     H2    3   3.393   4.011   0.327
    1TYR     H3    4   3.410   4.178   0.299
    1TYR     CA    5   3.255   4.146   0.426
    1TYR     HA    6   3.262   4.239   0.481
    1TYR     CB    7   3.156   4.159   0.301
    1TYR    HB1    8   3.213   4.216   0.224
    1TYR    HB2    9   3.138   4.063   0.247
    1TYR     CG   10   3.031   4.223   0.323
    1TYR    CD1   11   2.914   4.146   0.335
    1TYR    HD1   12   2.931   4.039   0.336
    1TYR    CE1   13   2.785   4.206   0.367
    1TYR    HE1   14   2.701   4.139   0.370
    1TYR     CZ   15   2.780   4.349   0.389
    1TYR     OH   16   2.662   4.407   0.432
    1TYR     HH   17   2.676   4.502   0.423
    1TYR    CD2   18   3.025   4.367   0.342
    1TYR    HD2   19   3.101   4.440   0.320
    1TYR    CE2   20   2.903   4.422   0.385
    1TYR    HE2   21   2.904   4.528   0.403
    1TYR      C   22   3.204   4.045   0.529
    1TYR      O   23   3.278   3.951   0.554
    2TYR      N   24   3.082   4.067   0.584
    2TYR     HN   25   3.030   4.142   0.544
    2TYR     CA   26   3.029   3.983   0.686
    2TYR     HA   27   3.104   3.974   0.763
    2TYR     CB   28   2.902   4.047   0.735
    2TYR    HB1   29   2.843   4.059   0.642
    2TYR    HB2   30   2.846   3.978   0.802
    2TYR     CG   31   2.929   4.185   0.790
    2TYR    CD1   32   3.008   4.193   0.901
    2TYR    HD1   33   3.063   4.107   0.937
    2TYR    CE1   34   3.036   4.310   0.962
    2TYR    HE1   35   3.098   4.314   1.051
    2TYR     CZ   36   2.986   4.430   0.909
    2TYR     OH   37   3.018   4.558   0.967
    2TYR     HH   38   3.061   4.539   1.051
    2TYR    CD2   39   2.863   4.303   0.744
    2TYR    HD2   40   2.792   4.286   0.664
    2TYR    CE2   41   2.892   4.424   0.803
    2TYR    HE2   42   2.840   4.514   0.773
    2TYR      C   43   3.006   3.848   0.642
    2TYR      O   44   2.923   3.818   0.557
    3ASP      N   45   3.086   3.751   0.689
    3ASP     HN   46   3.150   3.768   0.764
    3ASP     CA   47   3.075   3.617   0.629
    3ASP     HA   48   3.073   3.635   0.523
    3ASP     CB   49   3.204   3.531   0.665
    3ASP    HB1   50   3.224   3.540   0.774
    3ASP    HB2   51   3.178   3.426   0.640
    3ASP     CG   52   3.322   3.576   0.590
    3ASP    OD1   53   3.297   3.645   0.492
    3ASP    OD2   54   3.433   3.543   0.629
    3ASP      C   55   2.953   3.534   0.676
    3ASP      O   56   2.910   3.553   0.787
    4PRO      N   57   2.889   3.452   0.596
    4PRO     CD   58   2.944   3.405   0.466
    4PRO    HD1   59   3.042   3.359   0.489
    4PRO    HD2   60   2.956   3.495   0.402
    4PRO     CA   61   2.772   3.382   0.628
    4PRO     HA   62   2.705   3.453   0.676
    4PRO     CB   63   2.719   3.319   0.498
    4PRO    HB1   64   2.660   3.226   0.507
    4PRO    HB2   65   2.661   3.403   0.452
    4PRO     CG   66   2.851   3.301   0.412
    4PRO    HG1   67   2.884   3.199   0.440
    4PRO    HG2   68   2.838   3.298   0.301
    4PRO      C   69   2.794   3.269   0.721
    4PRO      O   70   2.698   3.215   0.772
    5GLU      N   71   2.923   3.224   0.742
    5GLU     HN   72   2.996   3.271   0.694
    5GLU     CA   73   2.954   3.112   0.828
    5GLU     HA   74   2.911   3.016   0.802
    5GLU     CB   75   3.104   3.084   0.823
    5GLU    HB1   76   3.119   2.998   0.892
    5GLU    HB2   77   3.123   3.042   0.722
    5GLU     CG   78   3.215   3.188   0.861
    5GLU    HG1   79   3.223   3.258   0.776
    5GLU    HG2   80   3.185   3.242   0.954
    5GLU     CD   81   3.347   3.134   0.904
    5GLU    OE1   82   3.354   3.041   0.994
    5GLU    OE2   83   3.455   3.179   0.856
    5GLU      C   84   2.913   3.140   0.973
    5GLU      O   85   2.850   3.050   1.024
    6THR      N   86   2.933   3.259   1.032
    6THR     HN   87   2.972   3.332   0.976
    6THR     CA   88   2.894   3.297   1.172
    6THR     HA   89   2.926   3.219   1.239
    6THR     CB   90   2.975   3.427   1.208
    6THR     HB   91   2.934   3.465   1.304
    6THR    OG1   92   2.961   3.522   1.106
    6THR    HG1   93   3.030   3.588   1.116
    6THR    CG2   94   3.124   3.399   1.228
    6THR   HG21   95   3.137   3.326   1.310
    6THR   HG22   96   3.166   3.347   1.139
    6THR   HG23   97   3.177   3.495   1.250
    6THR      C   98   2.745   3.323   1.188
    6THR      O   99   2.686   3.266   1.278
    7GLY      N  100   2.686   3.412   1.107
    7GLY     HN  101   2.745   3.465   1.046
    7GLY     CA  102   2.543   3.444   1.114
    7GLY    HA1  103   2.502   3.469   1.017
    7GLY    HA2  104   2.493   3.360   1.161
    7GLY      C  105   2.505   3.551   1.211
    7GLY      O  106   2.390   3.563   1.254
    8THR      N  107   2.597   3.637   1.252
    8THR     HN  108   2.691   3.625   1.223
    8THR     CA  109   2.574   3.736   1.363
    8THR     HA  110   2.490   3.698   1.419
    8THR     CB  111   2.709   3.759   1.436
    8THR     HB  112   2.779   3.820   1.375
    8THR    OG1  113   2.772   3.642   1.474
    8THR    HG1  114   2.861   3.664   1.502
    8THR    CG2  115   2.688   3.841   1.566
    8THR   HG21  116   2.776   3.874   1.625
    8THR   HG22  117   2.634   3.931   1.530
    8THR   HG23  118   2.620   3.783   1.631
    8THR      C  119   2.526   3.864   1.310
    8THR      O  120   2.443   3.927   1.377
    9TRP      N  121   2.578   3.897   1.190
    9TRP     HN  122   2.634   3.842   1.129
    9TRP     CA  123   2.529   4.023   1.122
    9TRP     HA  124   2.527   4.104   1.194
    9TRP     CB  125   2.646   4.058   1.019
    9TRP    HB1  126   2.744   4.041   1.069
    9TRP    HB2  127   2.638   3.986   0.936
    9TRP     CG  128   2.622   4.201   0.973
    9TRP    CD1  129   2.625   4.309   1.049
    9TRP    HD1  130   2.680   4.318   1.141
    9TRP    NE1  131   2.587   4.421   0.969
    9TRP    HE1  132   2.580   4.513   1.003
    9TRP    CE2  133   2.542   4.372   0.851
    9TRP    CD2  134   2.566   4.238   0.841
    9TRP    CE3  135   2.538   4.161   0.729
    9TRP    HE3  136   2.546   4.054   0.721
    9TRP    CZ3  137   2.474   4.228   0.617
    9TRP    HZ3  138   2.446   4.178   0.526
    9TRP    CZ2  139   2.485   4.442   0.743
    9TRP    HZ2  140   2.482   4.549   0.745
    9TRP    CH2  141   2.445   4.368   0.629
    9TRP    HH2  142   2.401   4.407   0.538
    9TRP      C  143   2.389   4.009   1.051
    9TRP      O  144   2.314   4.104   1.039
   10TYR      N  145   2.358   3.884   1.012
   10TYR     HN  146   2.418   3.811   1.043
   10TYR     CA  147   2.247   3.847   0.927
   10TYR     HA  148   2.236   3.930   0.858
   10TYR     CB  149   2.281   3.722   0.841
   10TYR    HB1  150   2.293   3.639   0.914
   10TYR    HB2  151   2.186   3.696   0.790
   10TYR     CG  152   2.392   3.754   0.738
   10TYR    CD1  153   2.523   3.708   0.746
   10TYR    HD1  154   2.555   3.650   0.832
   10TYR    CE1  155   2.617   3.733   0.642
   10TYR    HE1  156   2.721   3.703   0.652
   10TYR     CZ  157   2.578   3.814   0.535
   10TYR     OH  158   2.653   3.848   0.432
   10TYR     HH  159   2.741   3.831   0.466
   10TYR    CD2  160   2.354   3.833   0.631
   10TYR    HD2  161   2.250   3.859   0.620
   10TYR    CE2  162   2.450   3.873   0.536
   10TYR    HE2  163   2.425   3.935   0.452
   10TYR      C  164   2.119   3.835   1.015
   10TYR    OT1  165   2.129   3.797   1.135
   10TYR    OT2  166   2.007   3.865   0.969
   11SOL     OW  167   3.315   1.388   1.962
   11SOL    HW1  168   3.397   1.423   1.998
   11SOL    HW2  169   3.292   1.316   2.021
   12SOL     OW  170   3.361   3.798   1.842
   12SOL    HW1  171   3.281   3.820   1.794
   12SOL    HW2  172   3.329   3.770   1.928
   13SOL     OW  173   0.676   0.917   2.122
   13SOL    HW1  174   0.709   0.881   2.204
   13SOL    HW2  175   0.738   0.886   2.056
   14SOL     OW  176   0.546   2.308   3.511
   14SOL    HW1  177   0.456   2.281   3.495
   14SOL    HW2  178   0.539   2.379   3.575
   15SOL     OW  179   2.398   2.852   2.512
   15SOL    HW1  180   2.412   2.935   2.466
   15SOL    HW2  181   2.436   2.866   2.598
   16SOL     OW  182   0.548   3.181   3.621
   16SOL    HW1  183   0.575   3.174   3.712
   16SOL    HW2  184   0.463   3.136   3.618
   17SOL     OW  185   1.388   0.895   2.025
   17SOL    HW1  186   1.481   0.885   2.001
   17SOL    HW2  187   1.341   0.854   1.952
   18SOL     OW  188   0.954   1.968   3.303
   18SOL    HW1  189   0.947   2.060   3.330
   18SOL    HW2  190   1.030   1.966   3.244
   19SOL     OW  191   3.717   1.876   1.069
   19SOL    HW1  192   3.786   1.929   1.109
   19SOL    HW2  193   3.762   1.825   1.002
   20SOL     OW  194   0.146   1.197   2.568
   20SOL    HW1  195   0.170   1.109   2.598
   20SOL    HW2  196   0.087   1.182   2.495
   21SOL     OW  197   0.067   0.673   0.244
   21SOL    HW1  198   0.129   0.679   0.316
   21SOL    HW2  199   0.107   0.611   0.182
   22SOL     OW  200   0.158   2.378   0.654
   22SOL    HW1  201   0.104   2.438   0.704
   22SOL    HW2  202   0.097   2.331   0.598
   23SOL     OW  203   0.546   2.001   0.840
   23SOL    HW1  204   0.479   2.025   0.903
   23SOL    HW2  205   0.553   2.077   0.782
   24SOL     OW  206   0.694   1.821   2.462
   24SOL    HW1  207   0.702   1.888   2.394
   24SOL    HW2  208   0.612   1.777   2.444
   25SOL     OW  209   3.865   3.710   0.607
   25SOL    HW1  210   3.813   3.677   0.680
   25SOL    HW2  211   3.810   3.698   0.530
   26SOL     OW  212   0.495   3.864   1.576
   26SOL    HW1  213   0.490   3.769   1.566
   26SOL    HW2  214   0.431   3.885   1.644
   27SOL     OW  215   0.688   2.384   3.842
   27SOL    HW1  216   0.651   2.432   3.767
   27SOL    HW2  217   0.773   2.424   3.857
   28SOL     OW  218   3.641   3.781   2.456
   28SOL    HW1  219   3.671   3.840   2.386
   28SOL    HW2  220   3.671   3.823   2.537
   29SOL     OW  221   2.723   2.089   3.710
   29SOL    HW1  222   2.725   2.185   3.702
   29SOL    HW2  223   2.804   2.060   3.669
   30SOL     OW  224   2.513   3.114   1.788
   30SOL    HW1  225   2.468   3.031   1.774
   30SOL    HW2  226   2.464   3.157   1.858
   31SOL     OW  227   1.140   1.693   0.747
   31SOL    HW1  228   1.206   1.641   0.792
   31SOL    HW2  229   1.059   1.644   0.759
   32SOL     OW  230   1.613   2.495  -0.019
   32SOL    HW1  231   1.605   2.441   0.060
   32SOL    HW2  232   1.536   2.551  -0.017
   33SOL     OW  233   3.286   3.447   0.297
   33SOL    HW1  234   3.315   3.516   0.357
   33SOL    HW2  235   3.260   3.375   0.354
   34SOL     OW  236   3.094   3.740   1.373
   34SOL    HW1  237   3.102   3.675   1.443
   34SOL    HW2  238   3.135   3.819   1.409
   35SOL     OW  239   1.289   2.030   1.420
   35SOL    HW1  240   1.213   2.030   1.362
   35SOL    HW2  241   1.260   2.077   1.498
   36SOL     OW  242   0.409   2.211   1.778
   36SOL    HW1  243   0.403   2.139   1.715
   36SOL    HW2  244   0.502   2.236   1.776
   37SOL     OW  245   0.350   0.157   2.968
   37SOL    HW1  246   0.315   0.126   2.884
   37SOL    HW2  247   0.352   0.079   3.024
   38SOL     OW  248   0.258   0.722   0.736
   38SOL    HW1  249   0.301   0.648   0.778
   38SOL    HW2  250   0.223   0.773   0.810
   39SOL     OW  251   0.937   2.210   0.829
   39SOL    HW1  252   0.988   2.186   0.753
   39SOL    HW2  253   0.859   2.254   0.793
   40SOL     OW  254   0.883   0.996   0.369
   40SOL    HW1  255   0.836   0.982   0.451
   40SOL    HW2  256   0.953   1.058   0.392
   41SOL     OW  257   3.032   0.215   2.820
   41SOL    HW1  258   3.028   0.310   2.811
   41SOL    HW2  259   2.975   0.195   2.894
   42SOL     OW  260   0.048   2.134   0.788
   42SOL    HW1  261   0.054   2.143   0.883
   42SOL    HW2  262   0.043   2.224   0.755
   43SOL     OW  263   2.996   3.123   1.974
   43SOL    HW1  264   2.936   3.180   1.927
   43SOL    HW2  265   3.061   3.183   2.012
   44SOL     OW  266   3.703   3.884   2.703
   44SOL    HW1  267   3.655   3.967   2.707
   44SOL    HW2  268   3.656   3.827   2.763
   45SOL     OW  269   2.035   0.445   3.788
   45SOL    HW1  270   2.019   0.352   3.772
   45SOL    HW2  271   1.948   0.480   3.811
   46SOL     OW  272   0.654   3.172   1.479
   46SOL    HW1  273   0.579   3.171   1.419
   46SOL    HW2  274   0.629   3.111   1.549
   47SOL     OW  275   1.104   0.052   0.709
   47SOL    HW1  276   1.124   0.002   0.789
   47SOL    HW2  277   1.163   0.127   0.712
   48SOL     OW  278   3.989   3.437   2.721
   48SOL    HW1  279   3.958   3.443   2.631
   48SOL    HW2  280   3.910   3.417   2.772
   49SOL     OW  281   2.328   1.009   0.265
   49SOL    HW1  282   2.274   0.943   0.310
   49SOL    HW2  283   2.265   1.074   0.234
   50SOL     OW  284   1.649   1.576   0.998
   50SOL    HW1  285   1.656   1.491   1.043
   50SOL    HW2  286   1.555   1.594   0.997
   51SOL     OW  287   1.981   3.239   2.085
   51SOL    HW1  288   1.967   3.333   2.075
   51SOL    HW2  289   1.956   3.220   2.175
   52SOL     OW  290   0.849   1.274   1.899
   52SOL    HW1  291   0.892   1.343   1.849
   52SOL    HW2  292   0.794   1.320   1.963
   53SOL     OW  293   3.371   2.316   1.058
   53SOL    HW1  294   3.319   2.295   0.980
   53SOL    HW2  295   3.319   2.283   1.131
   54SOL     OW  296   3.606   1.137   2.035
   54SOL    HW1  297   3.599   1.129   1.940
   54SOL    HW2  298   3.516   1.130   2.066
   55SOL     OW  299   0.246   0.417   3.105
   55SOL    HW1  300   0.305   0.428   3.180
   55SOL    HW2  301   0.275   0.336   3.064
   56SOL     OW  302   0.154   2.428  -0.020
   56SOL    HW1  303   0.158   2.416   0.075
   56SOL    HW2  304   0.061   2.417  -0.041
   57SOL     OW  305   1.287   3.796   0.625
   57SOL    HW1  306   1.322   3.885   0.612
   57SOL    HW2  307   1.192   3.807   0.618
   58SOL     OW  308   3.303   2.530   1.766
   58SOL    HW1  309   3.240   2.551   1.835
   58SOL    HW2  310   3.380   2.498   1.813
   59SOL     OW  311   2.599   1.042   2.757
   59SOL    HW1  312   2.630   1.049   2.667
   59SOL    HW2  313   2.516   1.089   2.757
   60SOL     OW  314   1.418   3.022   2.956
   60SOL    HW1  315   1.478   3.094   2.974
   60SOL    HW2  316   1.381   3.042   2.870
   61SOL     OW  317   1.459   2.718   0.898
   61SOL    HW1  318   1.378   2.770   0.893
   61SOL    HW2  319   1.434   2.640   0.947
   62SOL     OW  320   3.120   1.197   2.534
   62SOL    HW1  321   3.198   1.146   2.554
   62SOL    HW2  322   3.127   1.275   2.590
   63SOL     OW  323   2.630   2.639   2.140
   63SOL    HW1  324   2.642   2.731   2.117
   63SOL    HW2  325   2.710   2.614   2.185
   64SOL     OW  326   2.387   0.569   3.630
   64SOL    HW1  327   2.331   0.500   3.665
   64SOL    HW2  328   2.337   0.650   3.643
   65SOL     OW  329   2.243   0.030   3.888
   65SOL    HW1  330   2.174  -0.033   3.867
   65SOL    HW2  331   2.247   0.031   3.983
   66SOL     OW  332   0.072   0.342   2.656
   66SOL    HW1  333   0.122   0.402   2.600
   66SOL    HW2  334   0.136   0.276   2.683
   67SOL     OW  335   3.402   1.806   2.410
   67SOL    HW1  336   3.324   1.762   2.376
   67SOL    HW2  337   3.369   1.865   2.477
   68SOL     OW  338   2.185   1.229   0.152
   68SOL    HW1  339   2.253   1.291   0.127
   68SOL    HW2  340   2.114   1.283   0.186
   69SOL     OW  341   1.741   3.063   2.391
   69SOL    HW1  342   1.721   3.097   2.478
   69SOL    HW2  343   1.820   3.010   2.403
   70SOL     OW  344   3.666   1.744   3.311
   70SOL    HW1  345   3.637   1.729   3.221
   70SOL    HW2  346   3.728   1.673   3.329
   71SOL     OW  347   0.311   1.487   1.777
   71SOL    HW1  348   0.235   1.445   1.817
   71SOL    HW2  349   0.357   1.416   1.732
   72SOL     OW  350   0.783   3.356   1.937
   72SOL    HW1  351   0.739   3.275   1.911
   72SOL    HW2  352   0.714   3.408   1.977
   73SOL     OW  353   3.537   1.416   2.118
   73SOL    HW1  354   3.571   1.326   2.120
   73SOL    HW2  355   3.547   1.448   2.207
   74SOL     OW  356   1.642   3.774   3.876
   74SOL    HW1  357   1.683   3.804   3.795
   74SOL    HW2  358   1.668   3.839   3.942
   75SOL     OW  359   1.251   2.209  -0.011
   75SOL    HW1  360   1.270   2.121   0.024
   75SOL    HW2  361   1.162   2.227   0.016
   76SOL     OW  362   3.689   2.539   1.772
   76SOL    HW1  363   3.609   2.501   1.806
   76SOL    HW2  364   3.757   2.476   1.796
   77SOL     OW  365   3.242   2.614   2.005
   77SOL    HW1  366   3.330   2.625   2.041
   77SOL    HW2  367   3.212   2.703   1.987
   78SOL     OW  368   1.614   1.992   0.322
   78SOL    HW1  369   1.593   2.056   0.255
   78SOL    HW2  370   1.682   2.034   0.375
   79SOL     OW  371   3.165   3.191   2.197
   79SOL    HW1  372   3.185   3.280   2.228
   79SOL    HW2  373   3.231   3.136   2.239
   80SOL     OW  374   1.883   2.724   1.547
   80SOL    HW1  375   1.939   2.801   1.549
   80SOL    HW2  376   1.914   2.669   1.620
   81SOL     OW  377   3.005   1.725   2.498
   81SOL    HW1  378   3.076   1.699   2.440
   81SOL    HW2  379   3.026   1.683   2.582
   82SOL     OW  380   1.470   1.982   3.606
   82SOL    HW1  381   1.498   1.892   3.590
   82SOL    HW2  382   1.506   2.003   3.692
   83SOL     OW  383   0.093   0.757   2.774
   83SOL    HW1  384   0.163   0.795   2.721
   83SOL    HW2  385   0.110   0.663   2.772
   84SOL     OW  386   0.249   2.891   1.960
   84SOL    HW1  387   0.161   2.897   1.998
   84SOL    HW2  388   0.274   2.799   1.973
   85SOL     OW  389   2.665   1.271   3.129
   85SOL    HW1  390   2.626   1.187   3.152
   85SOL    HW2  391   2.696   1.307   3.212
   86SOL     OW  392   1.900   1.613   3.757
   86SOL    HW1  393   1.869   1.552   3.824
   86SOL    HW2  394   1.983   1.646   3.791
   87SOL     OW  395   1.540   2.510   2.140
   87SOL    HW1  396   1.546   2.415   2.125
   87SOL    HW2  397   1.622   2.532   2.185
   88SOL     OW  398   2.226   0.651   1.488
   88SOL    HW1  399   2.205   0.730   1.438
   88SOL    HW2  400   2.321   0.649   1.493
   89SOL     OW  401   0.940   3.748   0.668
   89SOL    HW1  402   0.959   3.838   0.645
   89SOL    HW2  403   0.892   3.754   0.751
   90SOL     OW  404   0.052   0.827   1.345
   90SOL    HW1  405   0.063   0.747   1.396
   90SOL    HW2  406   0.100   0.893   1.394
   91SOL     OW  407   1.874   3.296   3.506
   91SOL    HW1  408   1.809   3.307   3.437
   91SOL    HW2  409   1.858   3.368   3.566
   92SOL     OW  410   2.250   2.156   3.449
   92SOL    HW1  411   2.163   2.160   3.488
   92SOL    HW2  412   2.258   2.237   3.399
   93SOL     OW  413   3.207   1.346   2.740
   93SOL    HW1  414   3.184   1.264   2.785
   93SOL    HW2  415   3.270   1.389   2.799
   94SOL     OW  416   2.780   3.736   1.058
   94SOL    HW1  417   2.851   3.797   1.080
   94SOL    HW2  418   2.819   3.677   0.994
   95SOL     OW  419   0.381   2.039   2.149
   95SOL    HW1  420   0.310   1.984   2.115
   95SOL    HW2  421   0.435   1.979   2.201
   96SOL     OW  422   1.928   3.500   2.019
   96SOL    HW1  423   2.020   3.522   2.029
   96SOL    HW2  424   1.902   3.540   1.936
   97SOL     OW  425   0.480   1.952   3.430
   97SOL    HW1  426   0.457   1.990   3.346
   97SOL    HW2  427   0.565   1.989   3.451
   98SOL     OW  428   2.610   3.533   3.572
   98SOL    HW1  429   2.705   3.530   3.559
   98SOL    HW2  430   2.576   3.567   3.489
   99SOL     OW  431   0.507   0.523   0.579
   99SOL    HW1  432   0.580   0.481   0.533
   99SOL    HW2  433   0.467   0.581   0.513
  100SOL     OW  434   1.864   3.628   1.782
  100SOL    HW1  435   1.768   3.623   1.779
  100SOL    HW2  436   1.890   3.645   1.691
  101SOL     OW  437   0.305   3.307   3.903
  101SOL    HW1  438   0.224   3.335   3.947
  101SOL    HW2  439   0.374   3.350   3.953
  102SOL     OW  440   1.496   2.942   0.565
  102SOL    HW1  441   1.496   3.037   0.554
  102SOL    HW2  442   1.432   2.911   0.501
  103SOL     OW  443   3.148   0.965   2.026
  103SOL    HW1  444   3.063   0.997   2.057
  103SOL    HW2  445   3.141   0.869   2.033
  104SOL     OW  446   2.609   2.188   1.231
  104SOL    HW1  447   2.609   2.107   1.181
  104SOL    HW2  448   2.684   2.181   1.290
  105SOL     OW  449   1.601   0.321   2.642
  105SOL    HW1  450   1.681   0.280   2.607
  105SOL    HW2  451   1.550   0.342   2.564
  106SOL     OW  452   0.693   1.522   0.518
  106SOL    HW1  453   0.717   1.450   0.458
  106SOL    HW2  454   0.692   1.600   0.462
  107SOL     OW  455   3.438   3.214   3.440
  107SOL    HW1  456   3.440   3.202   3.346
  107SOL    HW2  457   3.351   3.185   3.467
  108SOL     OW  458   1.954   1.649   2.038
  108SOL    HW1  459   2.045   1.679   2.039
  108SOL    HW2  460   1.944   1.601   2.120
  109SOL     OW  461   0.209   0.666   0.474
  109SOL    HW1  462   0.188   0.606   0.546
  109SOL    HW2  463   0.199   0.754   0.513
  110SOL     OW  464   1.009   2.833   3.384
  110SOL    HW1  465   1.101   2.851   3.366
  110SOL    HW2  466   0.968   2.827   3.298
  111SOL     OW  467   3.885   3.688   1.078
  111SOL    HW1  468   3.835   3.632   1.138
  111SOL    HW2  469   3.972   3.649   1.076
  112SOL     OW  470   0.437   3.445   2.169
  112SOL    HW1  471   0.522   3.474   2.202
  112SOL    HW2  472   0.429   3.488   2.084
  113SOL     OW  473   2.563   2.590   3.386
  113SOL    HW1  474   2.516   2.627   3.461
  113SOL    HW2  475   2.652   2.577   3.417
  114SOL     OW  476   2.390   3.195   3.502
  114SOL    HW1  477   2.416   3.238   3.583
  114SOL    HW2  478   2.473   3.170   3.460
  115SOL     OW  479   0.032   3.704   3.722
  115SOL    HW1  480  -0.006   3.652   3.650
  115SOL    HW2  481   0.126   3.697   3.709
  116SOL     OW  482   2.217   1.474   3.724
  116SOL    HW1  483   2.220   1.548   3.785
  116SOL    HW2  484   2.143   1.421   3.754
  117SOL     OW  485   0.740   1.708   0.294
  117SOL    HW1  486   0.707   1.752   0.216
  117SOL    HW2  487   0.790   1.775   0.341
  118SOL     OW  488   0.280   2.785   0.482
  118SOL    HW1  489   0.341   2.719   0.450
  118SOL    HW2  490   0.226   2.807   0.407
  119SOL     OW  491   3.764   2.228   3.410
  119SOL    HW1  492   3.778   2.155   3.471
  119SOL    HW2  493   3.745   2.303   3.466
  120SOL     OW  494   0.610   3.518   2.490
  120SOL    HW1  495   0.688   3.490   2.442
  120SOL    HW2  496   0.643   3.547   2.575
  121SOL     OW  497   2.031   3.816   3.843
  121SOL    HW1  498   2.008   3.726   3.867
  121SOL    HW2  499   1.987   3.829   3.759
  122SOL     OW  500   3.200   2.765   1.231
  122SOL    HW1  501   3.217   2.858   1.218
  122SOL    HW2  502   3.254   2.741   1.307
  123SOL     OW  503   2.257   3.355   2.223
  123SOL    HW1  504   2.231   3.268   2.253
  123SOL    HW2  505   2.178   3.392   2.184
  124SOL     OW  506   2.274   1.304   3.378
  124SOL    HW1  507   2.264   1.383   3.325
  124SOL    HW2  508   2.337   1.328   3.446
  125SOL     OW  509   1.910   0.981   3.014
  125SOL    HW1  510   1.815   0.982   3.008
  125SOL    HW2  511   1.931   1.055   3.071
  126SOL     OW  512   3.573   0.618   3.644
  126SOL    HW1  513   3.539   0.706   3.632
  126SOL    HW2  514   3.496   0.563   3.660
  127SOL     OW  515   1.228   3.944   2.595
  127SOL    HW1  516   1.318   3.939   2.563
  127SOL    HW2  517   1.225   3.881   2.668
  128SOL     OW  518   1.804   0.630   2.796
  128SOL    HW1  519   1.765   0.622   2.709
  128SOL    HW2  520   1.896   0.609   2.782
  129SOL     OW  521   0.591   3.668   0.602
  129SOL    HW1  522   0.625   3.678   0.513
  129SOL    HW2  523   0.651   3.607   0.644
  130SOL     OW  524   1.247   3.917   1.744
  130SOL    HW1  525   1.278   3.936   1.656
  130SOL    HW2  526   1.202   3.997   1.771
  131SOL     OW  527   2.627   0.449   3.714
  131SOL    HW1  528   2.687   0.523   3.724
  131SOL    HW2  529   2.545   0.489   3.683
  132SOL     OW  530   1.351   0.363   0.114
  132SOL    HW1  531   1.360   0.448   0.072
  132SOL    HW2  532   1.440   0.329   0.117
  133SOL     OW  533   0.590   0.748   3.885
  133SOL    HW1  534   0.639   0.666   3.892
  133SOL    HW2  535   0.658   0.816   3.886
  134SOL     OW  536   3.372   1.467   0.966
  134SOL    HW1  537   3.415   1.536   1.015
  134SOL    HW2  538   3.396   1.386   1.012
  135SOL     OW  539   1.011   2.109   2.024
  135SOL    HW1  540   1.035   2.175   2.089
  135SOL    HW2  541   1.046   2.142   1.942
  136SOL     OW  542   2.858   0.835   0.031
  136SOL    HW1  543   2.898   0.916   0.001
  136SOL    HW2  544   2.820   0.857   0.116
  137SOL     OW  545   2.923   3.353   3.615
  137SOL    HW1  546   2.889   3.436   3.582
  137SOL    HW2  547   2.917   3.294   3.540
  138SOL     OW  548   1.784   2.512   2.901
  138SOL    HW1  549   1.827   2.446   2.846
  138SOL    HW2  550   1.701   2.528   2.857
  139SOL     OW  551   0.449   1.697   3.493
  139SOL    HW1  552   0.437   1.789   3.472
  139SOL    HW2  553   0.541   1.679   3.473
  140SOL     OW  554   1.715   3.009   2.092
  140SOL    HW1  555   1.801   3.029   2.057
  140SOL    HW2  556   1.730   2.992   2.185
  141SOL     OW  557   3.234   0.338   3.875
  141SOL    HW1  558   3.249   0.397   3.802
  141SOL    HW2  559   3.146   0.361   3.906
  142SOL     OW  560   2.698   2.174   3.351
  142SOL    HW1  561   2.724   2.140   3.265
  142SOL    HW2  562   2.664   2.098   3.398
  143SOL     OW  563   2.226   3.111   1.670
  143SOL    HW1  564   2.223   3.029   1.621
  143SOL    HW2  565   2.312   3.148   1.647
  144SOL     OW  566   0.403   2.779   2.943
  144SOL    HW1  567   0.403   2.683   2.942
  144SOL    HW2  568   0.448   2.802   3.025
  145SOL     OW  569   3.211   0.637   3.780
  145SOL    HW1  570   3.199   0.731   3.799
  145SOL    HW2  571   3.130   0.611   3.735
  146SOL     OW  572   1.355   2.124   2.221
  146SOL    HW1  573   1.361   2.069   2.144
  146SOL    HW2  574   1.436   2.176   2.219
  147SOL     OW  575   0.144   0.962   3.912
  147SOL    HW1  576   0.121   0.880   3.955
  147SOL    HW2  577   0.236   0.976   3.934
  148SOL     OW  578   2.032   1.907   0.227
  148SOL    HW1  579   2.033   1.825   0.277
  148SOL    HW2  580   2.033   1.976   0.293
  149SOL     OW  581   1.327   0.561   1.368
  149SOL    HW1  582   1.287   0.632   1.417
  149SOL    HW2  583   1.261   0.536   1.303
  150SOL     OW  584   0.571   1.593   2.058
  150SOL    HW1  585   0.479   1.602   2.035
  150SOL    HW2  586   0.616   1.656   2.001
  151SOL     OW  587   2.292   1.687   0.612
  151SOL    HW1  588   2.293   1.600   0.573
  151SOL    HW2  589   2.293   1.671   0.706
  152SOL     OW  590   0.951   0.479   0.281
  152SOL    HW1  591   1.032   0.437   0.310
  152SOL    HW2  592   0.979   0.546   0.220
  153SOL     OW  593   2.347   3.033   0.128
  153SOL    HW1  594   2.335   2.961   0.189
  153SOL    HW2  595   2.418   3.085   0.166
  154SOL     OW  596   3.396   2.286   2.086
  154SOL    HW1  597   3.324   2.325   2.136
  154SOL    HW2  598   3.389   2.192   2.102
  155SOL     OW  599   1.001   2.592   3.116
  155SOL    HW1  600   0.941   2.585   3.189
  155SOL    HW2  601   0.993   2.683   3.086
  156SOL     OW  602   2.137   2.106   1.308
  156SOL    HW1  603   2.067   2.046   1.281
  156SOL    HW2  604   2.092   2.189   1.322
  157SOL     OW  605   1.869   0.329   3.056
  157SOL    HW1  606   1.907   0.362   3.137
  157SOL    HW2  607   1.799   0.391   3.035
  158SOL     OW  608   3.408   0.405   1.063
  158SOL    HW1  609   3.438   0.474   1.122
  158SOL    HW2  610   3.486   0.354   1.044
  159SOL     OW  611   2.532   1.918   3.656
  159SOL    HW1  612   2.615   1.960   3.682
  159SOL    HW2  613   2.468   1.950   3.720
  160SOL     OW  614   1.170   1.061   1.733
  160SOL    HW1  615   1.082   1.096   1.718
  160SOL    HW2  616   1.213   1.129   1.786
  161SOL     OW  617   1.967   0.014   3.130
  161SOL    HW1  618   2.003  -0.050   3.068
  161SOL    HW2  619   1.941   0.088   3.075
  162SOL     OW  620   0.553   3.492   2.989
  162SOL    HW1  621   0.462   3.501   2.961
  162SOL    HW2  622   0.586   3.582   2.991
  163SOL     OW  623   0.023   0.983   0.561
  163SOL    HW1  624   0.108   0.982   0.516
  163SOL    HW2  625  -0.021   1.061   0.527
  164SOL     OW  626   2.028   2.928   2.826
  164SOL    HW1  627   2.045   3.019   2.850
  164SOL    HW2  628   1.932   2.920   2.829
  165SOL     OW  629   2.291   3.845   2.842
  165SOL    HW1  630   2.359   3.875   2.781
  165SOL    HW2  631   2.239   3.923   2.859
  166SOL     OW  632   0.106   0.526   1.447
  166SOL    HW1  633   0.054   0.556   1.521
  166SOL    HW2  634   0.046   0.472   1.395
  167SOL     OW  635   1.796   0.353   1.625
  167SOL    HW1  636   1.746   0.434   1.629
  167SOL    HW2  637   1.882   0.379   1.592
  168SOL     OW  638   2.902   2.726   0.355
  168SOL    HW1  639   2.921   2.732   0.261
  168SOL    HW2  640   2.952   2.649   0.384
  169SOL     OW  641   0.375   1.732   1.840
  169SOL    HW1  642   0.394   1.763   1.751
  169SOL    HW2  643   0.363   1.637   1.830
  170SOL     OW  644   3.082   0.022   2.664
  170SOL    HW1  645   3.012   0.021   2.598
  170SOL    HW2  646   3.059   0.095   2.722
  171SOL     OW  647   2.959   0.347   3.712
  171SOL    HW1  648   2.983   0.368   3.802
  171SOL    HW2  649   2.899   0.416   3.686
  172SOL     OW  650   0.700   3.360   3.465
  172SOL    HW1  651   0.647   3.300   3.517
  172SOL    HW2  652   0.665   3.352   3.376
  173SOL     OW  653   3.802   2.962   0.233
  173SOL    HW1  654   3.769   3.047   0.264
  173SOL    HW2  655   3.781   2.961   0.139
  174SOL     OW  656   3.162   0.503   1.524
  174SOL    HW1  657   3.158   0.428   1.584
  174SOL    HW2  658   3.205   0.572   1.575
  175SOL     OW  659   2.507   3.524   1.903
  175SOL    HW1  660   2.466   3.607   1.878
  175SOL    HW2  661   2.597   3.547   1.923
  176SOL     OW  662   3.064   0.868   2.738
  176SOL    HW1  663   3.025   0.785   2.762
  176SOL    HW2  664   3.033   0.930   2.803
  177SOL     OW  665   1.461   3.048   2.021
  177SOL    HW1  666   1.553   3.024   2.031
  177SOL    HW2  667   1.445   3.041   1.927
  178SOL     OW  668   0.489   1.884   2.718
  178SOL    HW1  669   0.456   1.800   2.748
  178SOL    HW2  670   0.581   1.868   2.695
  179SOL     OW  671   1.684   3.451   2.151
  179SOL    HW1  672   1.744   3.443   2.076
  179SOL    HW2  673   1.702   3.374   2.204
  180SOL     OW  674   1.065   0.372   0.553
  180SOL    HW1  675   1.109   0.435   0.496
  180SOL    HW2  676   1.100   0.388   0.640
  181SOL     OW  677   1.257   1.948   0.119
  181SOL    HW1  678   1.229   1.956   0.210
  181SOL    HW2  679   1.179   1.971   0.068
  182SOL     OW  680   3.587   2.610   3.277
  182SOL    HW1  681   3.592   2.700   3.310
  182SOL    HW2  682   3.582   2.556   3.356
  183SOL     OW  683   1.736   2.868   3.598
  183SOL    HW1  684   1.795   2.832   3.664
  183SOL    HW2  685   1.790   2.877   3.519
  184SOL     OW  686   0.086   2.140   3.916
  184SOL    HW1  687   0.013   2.161   3.858
  184SOL    HW2  688   0.156   2.201   3.889
  185SOL     OW  689   1.258   2.585   1.438
  185SOL    HW1  690   1.188   2.645   1.412
  185SOL    HW2  691   1.313   2.578   1.360
  186SOL     OW  692   1.547   0.187   1.909
  186SOL    HW1  693   1.511   0.256   1.854
  186SOL    HW2  694   1.568   0.230   1.992
  187SOL     OW  695   2.589   3.771   2.227
  187SOL    HW1  696   2.570   3.724   2.308
  187SOL    HW2  697   2.505   3.809   2.201
  188SOL     OW  698   3.564   1.731   3.907
  188SOL    HW1  699   3.528   1.815   3.881
  188SOL    HW2  700   3.652   1.729   3.868
  189SOL     OW  701   2.637   1.405   1.937
  189SOL    HW1  702   2.728   1.398   1.908
  189SOL    HW2  703   2.586   1.419   1.857
  190SOL     OW  704   2.578   1.028   0.374
  190SOL    HW1  705   2.491   1.008   0.340
  190SOL    HW2  706   2.580   1.123   0.384
  191SOL     OW  707   2.562   1.509   0.235
  191SOL    HW1  708   2.484   1.539   0.189
  191SOL    HW2  709   2.635   1.534   0.178
  192SOL     OW  710   1.795   2.988   1.772
  192SOL    HW1  711   1.815   2.925   1.703
  192SOL    HW2  712   1.869   3.049   1.771
  193SOL     OW  713   0.890   1.312   3.924
  193SOL    HW1  714   0.961   1.312   3.859
  193SOL    HW2  715   0.813   1.284   3.875
  194SOL     OW  716   2.176   1.245   1.973
  194SOL    HW1  717   2.231   1.238   2.051
  194SOL    HW2  718   2.090   1.213   2.002
  195SOL     OW  719   0.638   1.056   1.809
  195SOL    HW1  720   0.693   1.123   1.768
  195SOL    HW2  721   0.695   1.015   1.874
  196SOL     OW  722   0.099   2.079   1.983
  196SOL    HW1  723   0.042   2.015   1.940
  196SOL    HW2  724   0.167   2.026   2.024
  197SOL     OW  725   3.733   3.034   2.097
  197SOL    HW1  726   3.762   3.110   2.148
  197SOL    HW2  727   3.691   2.977   2.161
  198SOL     OW  728   3.709   1.847   2.828
  198SOL    HW1  729   3.672   1.898   2.756
  198SOL    HW2  730   3.687   1.756   2.807
  199SOL     OW  731   1.623   0.859   1.859
  199SOL    HW1  732   1.636   0.929   1.794
  199SOL    HW2  733   1.667   0.783   1.821
  200SOL     OW  734   0.532   0.087   1.929
  200SOL    HW1  735   0.580   0.022   1.980
  200SOL    HW2  736   0.597   0.122   1.868
  201SOL     OW  737   3.783   0.619   1.123
  201SOL    HW1  738   3.754   0.556   1.057
  201SOL    HW2  739   3.877   0.630   1.107
  202SOL     OW  740   2.003   0.091   0.559
  202SOL    HW1  741   1.985   0.155   0.628
  202SOL    HW2  742   2.087   0.119   0.522
  203SOL     OW  743   2.036   0.545   3.236
  203SOL    HW1  744   2.019   0.520   3.327
  203SOL    HW2  745   2.025   0.640   3.234
  204SOL     OW  746   3.582   2.487   3.510
  204SOL    HW1  747   3.545   2.539   3.582
  204SOL    HW2  748   3.528   2.408   3.507
  205SOL     OW  749   0.588   0.709   2.454
  205SOL    HW1  750   0.556   0.689   2.542
  205SOL    HW2  751   0.546   0.643   2.398
  206SOL     OW  752   2.008   0.166   1.010
  206SOL    HW1  753   2.090   0.190   1.053
  206SOL    HW2  754   2.005   0.070   1.015
  207SOL     OW  755   3.659   3.674   3.772
  207SOL    HW1  756   3.693   3.596   3.729
  207SOL    HW2  757   3.729   3.701   3.832
  208SOL     OW  758   2.237   2.119   0.197
  208SOL    HW1  759   2.163   2.089   0.144
  208SOL    HW2  760   2.220   2.082   0.284
  209SOL     OW  761   2.953   1.957   3.560
  209SOL    HW1  762   3.024   1.990   3.506
  209SOL    HW2  763   2.905   1.896   3.504
  210SOL     OW  764   0.537   0.874   3.203
  210SOL    HW1  765   0.549   0.818   3.279
  210SOL    HW2  766   0.575   0.825   3.130
  211SOL     OW  767   0.603   3.625   0.299
  211SOL    HW1  768   0.696   3.634   0.319
  211SOL    HW2  769   0.582   3.703   0.248
  212SOL     OW  770   0.908   2.821   0.156
  212SOL    HW1  771   0.863   2.834   0.072
  212SOL    HW2  772   0.841   2.836   0.222
  213SOL     OW  773   1.476   1.781   0.730
  213SOL    HW1  774   1.406   1.830   0.774
  213SOL    HW2  775   1.548   1.844   0.723
  214SOL     OW  776   0.407   3.608   3.270
  214SOL    HW1  777   0.501   3.601   3.287
  214SOL    HW2  778   0.385   3.699   3.288
  215SOL     OW  779   3.302   3.661   2.984
  215SOL    HW1  780   3.340   3.608   3.054
  215SOL    HW2  781   3.377   3.689   2.933
  216SOL     OW  782   0.704   1.098   0.593
  216SOL    HW1  783   0.622   1.049   0.595
  216SOL    HW2  784   0.723   1.117   0.684
  217SOL     OW  785   2.346   1.649   0.052
  217SOL    HW1  786   2.396   1.722   0.016
  217SOL    HW2  787   2.263   1.687   0.079
  218SOL     OW  788   3.855   0.318   1.615
  218SOL    HW1  789   3.761   0.305   1.628
  218SOL    HW2  790   3.878   0.389   1.675
  219SOL     OW  791   2.990   0.901   3.509
  219SOL    HW1  792   2.897   0.884   3.525
  219SOL    HW2  793   3.006   0.870   3.420
  220SOL     OW  794   1.072   0.503   3.333
  220SOL    HW1  795   1.003   0.500   3.400
  220SOL    HW2  796   1.152   0.522   3.382
  221SOL     OW  797   2.808   3.634   0.069
  221SOL    HW1  798   2.878   3.598   0.014
  221SOL    HW2  799   2.733   3.578   0.051
  222SOL     OW  800   3.664   1.791   1.710
  222SOL    HW1  801   3.638   1.882   1.724
  222SOL    HW2  802   3.605   1.760   1.641
  223SOL     OW  803   0.911   1.814   3.504
  223SOL    HW1  804   0.936   1.847   3.418
  223SOL    HW2  805   0.905   1.892   3.559
  224SOL     OW  806   0.612   1.010   2.571
  224SOL    HW1  807   0.640   1.094   2.536
  224SOL    HW2  808   0.676   0.947   2.537
  225SOL     OW  809   2.581   3.500   3.965
  225SOL    HW1  810   2.540   3.564   3.907
  225SOL    HW2  811   2.525   3.423   3.961
  226SOL     OW  812   1.121   3.758   3.396
  226SOL    HW1  813   1.123   3.734   3.303
  226SOL    HW2  814   1.195   3.710   3.434
  227SOL     OW  815   0.799   3.782   0.901
  227SOL    HW1  816   0.738   3.854   0.888
  227SOL    HW2  817   0.844   3.803   0.983
  228SOL     OW  818   3.595   1.501   0.789
  228SOL    HW1  819   3.640   1.478   0.871
  228SOL    HW2  820   3.518   1.444   0.788
  229SOL     OW  821   0.633   1.214   3.848
  229SOL    HW1  822   0.666   1.169   3.770
  229SOL    HW2  823   0.610   1.302   3.817
  230SOL     OW  824   1.936   0.039   1.253
  230SOL    HW1  825   2.021   0.083   1.254
  230SOL    HW2  826   1.882   0.089   1.313
  231SOL     OW  827   0.625   2.813   3.741
  231SOL    HW1  828   0.590   2.894   3.703
  231SOL    HW2  829   0.698   2.789   3.683
  232SOL     OW  830   1.257   1.102   2.167
  232SOL    HW1  831   1.285   1.020   2.126
  232SOL    HW2  832   1.337   1.139   2.203
  233SOL     OW  833   3.574   2.933   2.324
  233SOL    HW1  834   3.545   2.956   2.412
  233SOL    HW2  835   3.496   2.944   2.270
  234SOL     OW  836   0.693   0.643   2.921
  234SOL    HW1  837   0.774   0.691   2.904
  234SOL    HW2  838   0.713   0.553   2.897
  235SOL     OW  839   1.944   1.835   2.404
  235SOL    HW1  840   1.854   1.868   2.405
  235SOL    HW2  841   1.988   1.883   2.474
  236SOL     OW  842   3.501   0.653   1.217
  236SOL    HW1  843   3.592   0.651   1.188
  236SOL    HW2  844   3.452   0.682   1.141
  237SOL     OW  845   2.686   0.156   3.663
  237SOL    HW1  846   2.698   0.242   3.705
  237SOL    HW2  847   2.775   0.126   3.644
  238SOL     OW  848   3.671   3.434   2.179
  238SOL    HW1  849   3.651   3.373   2.251
  238SOL    HW2  850   3.766   3.429   2.169
  239SOL     OW  851   3.548   0.323   3.007
  239SOL    HW1  852   3.628   0.343   3.056
  239SOL    HW2  853   3.513   0.244   3.049
  240SOL     OW  854   1.284   1.212   0.807
  240SOL    HW1  855   1.379   1.225   0.806
  240SOL    HW2  856   1.272   1.120   0.787
  241SOL     OW  857   0.156   2.891   2.504
  241SOL    HW1  858   0.194   2.852   2.425
  241SOL    HW2  859   0.094   2.956   2.471
  242SOL     OW  860   3.110   2.870   3.835
  242SOL    HW1  861   3.173   2.908   3.896
  242SOL    HW2  862   3.076   2.946   3.787
  243SOL     OW  863   1.416   2.805   1.211
  243SOL    HW1  864   1.336   2.824   1.162
  243SOL    HW2  865   1.472   2.881   1.197
  244SOL     OW  866   0.100   2.812   2.752
  244SOL    HW1  867   0.117   2.842   2.663
  244SOL    HW2  868   0.008   2.833   2.768
  245SOL     OW  869   3.191   1.080   1.733
  245SOL    HW1  870   3.280   1.116   1.739
  245SOL    HW2  871   3.157   1.086   1.822
  246SOL     OW  872   0.345   1.857   0.299
  246SOL    HW1  873   0.374   1.785   0.354
  246SOL    HW2  874   0.426   1.900   0.271
  247SOL     OW  875   2.166   1.549   1.232
  247SOL    HW1  876   2.232   1.597   1.284
  247SOL    HW2  877   2.129   1.615   1.174
  248SOL     OW  878   2.449   0.506   1.803
  248SOL    HW1  879   2.462   0.597   1.778
  248SOL    HW2  880   2.355   0.498   1.819
  249SOL     OW  881   2.282   1.951   3.217
  249SOL    HW1  882   2.297   1.896   3.294
  249SOL    HW2  883   2.194   1.986   3.229
  250SOL     OW  884   3.150   3.134   3.427
  250SOL    HW1  885   3.183   3.063   3.372
  250SOL    HW2  886   3.055   3.129   3.420
  251SOL     OW  887   1.051   1.491   1.062
  251SOL    HW1  888   0.982   1.425   1.056
  251SOL    HW2  889   1.006   1.570   1.091
  252SOL     OW  890   0.762   0.328   0.168
  252SOL    HW1  891   0.807   0.402   0.209
  252SOL    HW2  892   0.832   0.273   0.133
  253SOL     OW  893   1.258   1.699   0.499
  253SOL    HW1  894   1.189   1.696   0.566
  253SOL    HW2  895   1.309   1.777   0.522
  254SOL     OW  896   0.307   1.189   0.338
  254SOL    HW1  897   0.221   1.204   0.299
  254SOL    HW2  898   0.316   1.094   0.338
  255SOL     OW  899   1.461   3.894   2.482
  255SOL    HW1  900   1.457   3.931   2.394
  255SOL    HW2  901   1.506   3.810   2.471
  256SOL     OW  902   1.377   2.360   2.602
  256SOL    HW1  903   1.323   2.394   2.673
  256SOL    HW2  904   1.353   2.267   2.596
  257SOL     OW  905   0.865   1.789   2.920
  257SOL    HW1  906   0.798   1.780   2.987
  257SOL    HW2  907   0.933   1.728   2.945
  258SOL     OW  908   3.916   0.402   3.074
  258SOL    HW1  909   4.011   0.413   3.080
  258SOL    HW2  910   3.883   0.438   3.156
  259SOL     OW  911   3.457   3.821   0.728
  259SOL    HW1  912   3.426   3.859   0.646
  259SOL    HW2  913   3.450   3.726   0.714
  260SOL     OW  914   0.623   1.337   1.323
  260SOL    HW1  915   0.592   1.413   1.274
  260SOL    HW2  916   0.554   1.321   1.387
  261SOL     OW  917   3.197   3.106   0.213
  261SOL    HW1  918   3.208   3.126   0.306
  261SOL    HW2  919   3.115   3.058   0.207
  262SOL     OW  920   2.184   1.795   2.291
  262SOL    HW1  921   2.099   1.781   2.332
  262SOL    HW2  922   2.211   1.709   2.261
  263SOL     OW  923   1.300   2.903   3.852
  263SOL    HW1  924   1.237   2.953   3.903
  263SOL    HW2  925   1.359   2.865   3.916
  264SOL     OW  926   2.391   3.290   1.969
  264SOL    HW1  927   2.338   3.303   2.048
  264SOL    HW2  928   2.423   3.377   1.947
  265SOL     OW  929   1.025   0.712   3.778
  265SOL    HW1  930   0.953   0.775   3.767
  265SOL    HW2  931   1.076   0.720   3.697
  266SOL     OW  932   1.133   2.892   1.960
  266SOL    HW1  933   1.199   2.878   1.892
  266SOL    HW2  934   1.051   2.865   1.919
  267SOL     OW  935   2.227   0.837   3.322
  267SOL    HW1  936   2.236   0.853   3.228
  267SOL    HW2  937   2.179   0.913   3.355
  268SOL     OW  938   3.115   1.152   2.888
  268SOL    HW1  939   3.023   1.137   2.868
  268SOL    HW2  940   3.124   1.128   2.980
  269SOL     OW  941   2.319   0.379   3.409
  269SOL    HW1  942   2.386   0.357   3.475
  269SOL    HW2  943   2.345   0.328   3.332
  270SOL     OW  944   2.693   2.972   0.013
  270SOL    HW1  945   2.665   3.060   0.035
  270SOL    HW2  946   2.641   2.915   0.070
  271SOL     OW  947   0.515   3.811   0.135
  271SOL    HW1  948   0.490   3.777   0.050
  271SOL    HW2  949   0.585   3.874   0.116
  272SOL     OW  950   1.607   2.191   0.107
  272SOL    HW1  951   1.552   2.263   0.139
  272SOL    HW2  952   1.694   2.209   0.144
  273SOL     OW  953   0.672   2.761   3.986
  273SOL    HW1  954   0.665   2.786   3.894
  273SOL    HW2  955   0.671   2.665   3.985
  274SOL     OW  956   1.617   0.287   0.126
  274SOL    HW1  957   1.632   0.344   0.050
  274SOL    HW2  958   1.703   0.249   0.144
  275SOL     OW  959   0.424   0.949   0.607
  275SOL    HW1  960   0.438   0.922   0.517
  275SOL    HW2  961   0.381   0.874   0.649
  276SOL     OW  962   0.341   2.933   3.659
  276SOL    HW1  963   0.309   2.850   3.625
  276SOL    HW2  964   0.262   2.981   3.684
  277SOL     OW  965   3.861   1.312   3.553
  277SOL    HW1  966   3.936   1.327   3.610
  277SOL    HW2  967   3.835   1.222   3.571
  278SOL     OW  968   2.066   0.127   2.408
  278SOL    HW1  969   2.003   0.099   2.341
  278SOL    HW2  970   2.080   0.220   2.390
  279SOL     OW  971   1.381   1.250   1.539
  279SOL    HW1  972   1.388   1.275   1.447
  279SOL    HW2  973   1.296   1.285   1.567
  280SOL     OW  974   2.938   3.676   3.179
  280SOL    HW1  975   2.876   3.724   3.124
  280SOL    HW2  976   3.021   3.723   3.167
  281SOL     OW  977   2.744   2.128   3.088
  281SOL    HW1  978   2.738   2.057   3.023
  281SOL    HW2  979   2.827   2.171   3.068
  282SOL     OW  980   2.970   1.511   0.405
  282SOL    HW1  981   2.945   1.573   0.336
  282SOL    HW2  982   3.030   1.450   0.362
  283SOL     OW  983   3.969   2.890   2.057
  283SOL    HW1  984   3.928   2.977   2.056
  283SOL    HW2  985   3.905   2.834   2.101
  284SOL     OW  986   0.125   3.137   2.292
  284SOL    HW1  987   0.192   3.080   2.255
  284SOL    HW2  988   0.170   3.181   2.365
  285SOL     OW  989   3.514   2.703   1.453
  285SOL    HW1  990   3.436   2.650   1.436
  285SOL    HW2  991   3.489   2.761   1.524
  286SOL     OW  992   2.896   0.249   3.047
  286SOL    HW1  993   2.817   0.233   3.098
  286SOL    HW2  994   2.967   0.247   3.111
  287SOL     OW  995   1.241   0.412   0.803
  287SOL    HW1  996   1.274   0.497   0.775
  287SOL    HW2  997   1.191   0.429   0.883
  288SOL     OW  998   1.540   2.349   0.876
  288SOL    HW1  999   1.530   2.320   0.785
  288SOL    HW2 1000   1.631   2.328   0.898
  289SOL     OW 1001   2.526   1.783   0.387
  289SOL    HW1 1002   2.546   1.695   0.419
  289SOL    HW2 1003   2.610   1.815   0.352
  290SOL     OW 1004   1.830   1.572   2.488
  290SOL    HW1 1005   1.915   1.610   2.510
  290SOL    HW2 1006   1.843   1.532   2.402
  291SOL     OW 1007   0.517   0.254   0.941
  291SOL    HW1 1008   0.527   0.342   0.976
  291SOL    HW2 1009   0.514   0.267   0.846
  292SOL     OW 1010   2.664   2.027   3.966
  292SOL    HW1 1011   2.706   1.940   3.969
  292SOL    HW2 1012   2.667   2.051   3.873
  293SOL     OW 1013   0.724   1.958   2.221
  293SOL    HW1 1014   0.785   2.027   2.196
  293SOL    HW2 1015   0.670   1.943   2.144
  294SOL     OW 1016   3.885   1.460   2.183
  294SOL    HW1 1017   3.829   1.479   2.259
  294SOL    HW2 1018   3.827   1.472   2.108
  295SOL     OW 1019   2.885   1.694   0.195
  295SOL    HW1 1020   2.818   1.761   0.206
  295SOL    HW2 1021   2.962   1.741   0.163
  296SOL     OW 1022   2.750   0.419   2.708
  296SOL    HW1 1023   2.655   0.419   2.717
  296SOL    HW2 1024   2.781   0.478   2.777
  297SOL     OW 1025   3.515   1.167   3.142
  297SOL    HW1 1026   3.474   1.163   3.229
  297SOL    HW2 1027   3.588   1.228   3.153
  298SOL     OW 1028   3.281   3.768   2.086
  298SOL    HW1 1029   3.371   3.760   2.118
  298SOL    HW2 1030   3.244   3.841   2.136
  299SOL     OW 1031   3.519   0.615   3.225
  299SOL    HW1 1032   3.606   0.654   3.220
  299SOL    HW2 1033   3.469   0.660   3.157
  300SOL     OW 1034   3.233   3.125   1.499
  300SOL    HW1 1035   3.226   3.101   1.406
  300SOL    HW2 1036   3.327   3.127   1.517
  301SOL     OW 1037   2.489   2.519   0.334
  301SOL    HW1 1038   2.479   2.540   0.241
  301SOL    HW2 1039   2.463   2.598   0.380
  302SOL     OW 1040   1.744   1.802   2.607
  302SOL    HW1 1041   1.764   1.722   2.559
  302SOL    HW2 1042   1.827   1.827   2.648
  303SOL     OW 1043   3.272   0.706   1.673
  303SOL    HW1 1044   3.332   0.762   1.623
  303SOL    HW2 1045   3.312   0.698   1.759
  304SOL     OW 1046   2.517   0.917   3.711
  304SOL    HW1 1047   2.423   0.919   3.693
  304SOL    HW2 1048   2.524   0.911   3.806
  305SOL     OW 1049   2.450   2.674   0.094
  305SOL    HW1 1050   2.379   2.717   0.143
  305SOL    HW2 1051   2.409   2.644   0.013
  306SOL     OW 1052   2.542   2.741   3.750
  306SOL    HW1 1053   2.631   2.756   3.780
  306SOL    HW2 1054   2.513   2.827   3.718
  307SOL     OW 1055   1.102   1.647   3.019
  307SOL    HW1 1056   1.169   1.578   3.015
  307SOL    HW2 1057   1.148   1.726   2.989
  308SOL     OW 1058   2.356   2.012   3.845
  308SOL    HW1 1059   2.415   2.069   3.894
  308SOL    HW2 1060   2.273   2.061   3.842
  309SOL     OW 1061   2.062   0.593   2.686
  309SOL    HW1 1062   2.142   0.627   2.726
  309SOL    HW2 1063   2.090   0.515   2.638
  310SOL     OW 1064   3.698   1.288   1.772
  310SOL    HW1 1065   3.713   1.347   1.698
  310SOL    HW2 1066   3.754   1.323   1.841
  311SOL     OW 1067   1.866   1.470   3.126
  311SOL    HW1 1068   1.869   1.526   3.048
  311SOL    HW2 1069   1.779   1.484   3.162
  312SOL     OW 1070   0.759   2.817   0.833
  312SOL    HW1 1071   0.825   2.867   0.880
  312SOL    HW2 1072   0.767   2.847   0.742
  313SOL     OW 1073   0.115   1.593   0.975
  313SOL    HW1 1074   0.155   1.680   0.969
  313SOL    HW2 1075   0.187   1.532   0.964
  314SOL     OW 1076   1.741   2.110   3.580
  314SOL    HW1 1077   1.664   2.054   3.570
  314SOL    HW2 1078   1.706   2.193   3.613
  315SOL     OW 1079   2.693   3.199   3.686
  315SOL    HW1 1080   2.613   3.232   3.726
  315SOL    HW2 1081   2.751   3.275   3.682
  316SOL     OW 1082   1.006   3.433   0.439
  316SOL    HW1 1083   1.012   3.474   0.525
  316SOL    HW2 1084   0.921   3.390   0.438
  317SOL     OW 1085   0.168   2.885   3.026
  317SOL    HW1 1086   0.178   2.828   3.103
  317SOL    HW2 1087   0.207   2.836   2.954
  318SOL     OW 1088   2.213   0.441   2.493
  318SOL    HW1 1089   2.209   0.399   2.408
  318SOL    HW2 1090   2.240   0.531   2.475
  319SOL     OW 1091   2.435   3.904   3.159
  319SOL    HW1 1092   2.471   3.853   3.086
  319SOL    HW2 1093   2.501   3.896   3.228
  320SOL     OW 1094   0.550   0.752   1.792
  320SOL    HW1 1095   0.639   0.771   1.821
  320SOL    HW2 1096   0.540   0.802   1.711
  321SOL     OW 1097   3.816   0.140   3.115
  321SOL    HW1 1098   3.828   0.217   3.061
  321SOL    HW2 1099   3.855   0.163   3.199
  322SOL     OW 1100   2.914   3.156   2.477
  322SOL    HW1 1101   2.865   3.079   2.447
  322SOL    HW2 1102   2.984   3.167   2.413
  323SOL     OW 1103   2.813   0.774   0.967
  323SOL    HW1 1104   2.726   0.745   0.996
  323SOL    HW2 1105   2.871   0.701   0.991
  324SOL     OW 1106   1.328   3.770   3.728
  324SOL    HW1 1107   1.401   3.726   3.685
  324SOL    HW2 1108   1.299   3.709   3.796
  325SOL     OW 1109   2.448   1.001   0.663
  325SOL    HW1 1110   2.489   0.987   0.577
  325SOL    HW2 1111   2.395   1.079   0.651
  326SOL     OW 1112   2.998   1.079   0.366
  326SOL    HW1 1113   3.065   1.018   0.336
  326SOL    HW2 1114   2.915   1.037   0.340
  327SOL     OW 1115   1.034   1.234   0.498
  327SOL    HW1 1116   1.115   1.240   0.446
  327SOL    HW2 1117   0.976   1.299   0.459
  328SOL     OW 1118   1.379   1.705   3.159
  328SOL    HW1 1119   1.322   1.722   3.235
  328SOL    HW2 1120   1.341   1.757   3.088
  329SOL     OW 1121   1.828   0.597   1.908
  329SOL    HW1 1122   1.894   0.633   1.967
  329SOL    HW2 1123   1.862   0.615   1.820
  330SOL     OW 1124   3.497   2.014   1.833
  330SOL    HW1 1125   3.401   2.005   1.833
  330SOL    HW2 1126   3.512   2.104   1.859
  331SOL     OW 1127   2.962   3.500   3.861
  331SOL    HW1 1128   3.033   3.457   3.909
  331SOL    HW2 1129   2.950   3.446   3.782
  332SOL     OW 1130   0.856   0.757   3.540
  332SOL    HW1 1131   0.902   0.674   3.523
  332SOL    HW2 1132   0.767   0.730   3.561
  333SOL     OW 1133   0.557   3.123   0.968
  333SOL    HW1 1134   0.620   3.194   0.982
  333SOL    HW2 1135   0.506   3.151   0.892
  334SOL     OW 1136   2.539   0.739   1.064
  334SOL    HW1 1137   2.516   0.748   1.156
  334SOL    HW2 1138   2.486   0.804   1.019
  335SOL     OW 1139   1.305   0.543   2.431
  335SOL    HW1 1140   1.345   0.613   2.379
  335SOL    HW2 1141   1.364   0.468   2.419
  336SOL     OW 1142   2.230   2.363   0.084
  336SOL    HW1 1143   2.223   2.446   0.132
  336SOL    HW2 1144   2.232   2.296   0.152
  337SOL     OW 1145   2.197   1.549   1.663
  337SOL    HW1 1146   2.168   1.630   1.620
  337SOL    HW2 1147   2.117   1.509   1.695
  338SOL     OW 1148   0.062   1.564   0.634
  338SOL    HW1 1149   0.131   1.627   0.654
  338SOL    HW2 1150   0.104   1.479   0.638
  339SOL     OW 1151   0.894   1.529   1.845
  339SOL    HW1 1152   0.922   1.517   1.936
  339SOL    HW2 1153   0.860   1.619   1.842
  340SOL     OW 1154   2.794   3.688   2.810
  340SOL    HW1 1155   2.811   3.658   2.721
  340SOL    HW2 1156   2.880   3.686   2.852
  341SOL     OW 1157   2.703   0.712   1.350
  341SOL    HW1 1158   2.699   0.677   1.262
  341SOL    HW2 1159   2.754   0.648   1.399
  342SOL     OW 1160   3.902   0.646   1.635
  342SOL    HW1 1161   3.808   0.634   1.624
  342SOL    HW2 1162   3.910   0.723   1.691
  343SOL     OW 1163   2.113   3.538   1.214
  343SOL    HW1 1164   2.097   3.622   1.171
  343SOL    HW2 1165   2.201   3.548   1.253
  344SOL     OW 1166   1.483   3.210   0.538
  344SOL    HW1 1167   1.578   3.224   0.546
  344SOL    HW2 1168   1.444   3.293   0.565
  345SOL     OW 1169   2.007   2.219   3.562
  345SOL    HW1 1170   1.921   2.177   3.563
  345SOL    HW2 1171   2.037   2.217   3.653
  346SOL     OW 1172   2.254   0.839   3.593
  346SOL    HW1 1173   2.162   0.842   3.619
  346SOL    HW2 1174   2.254   0.868   3.501
  347SOL     OW 1175   3.810   0.077   0.673
  347SOL    HW1 1176   3.853   0.100   0.755
  347SOL    HW2 1177   3.802  -0.018   0.675
  348SOL     OW 1178  -0.000   1.183   3.906
  348SOL    HW1 1179  -0.065   1.167   3.838
  348SOL    HW2 1180   0.074   1.128   3.881
  349SOL     OW 1181   3.381   1.440   3.793
  349SOL    HW1 1182   3.475   1.449   3.809
  349SOL    HW2 1183   3.364   1.496   3.718
  350SOL     OW 1184   0.712   3.209   0.244
  350SOL    HW1 1185   0.778   3.268   0.206
  350SOL    HW2 1186   0.634   3.225   0.192
  351SOL     OW 1187   1.490   1.270   1.269
  351SOL    HW1 1188   1.396   1.266   1.251
  351SOL    HW2 1189   1.507   1.362   1.290
  352SOL     OW 1190   0.213   3.244   0.552
  352SOL    HW1 1191   0.248   3.321   0.507
  352SOL    HW2 1192   0.127   3.272   0.584
  353SOL     OW 1193   0.177   1.722   3.286
  353SOL    HW1 1194   0.107   1.783   3.307
  353SOL    HW2 1195   0.215   1.700   3.371
  354SOL     OW 1196   2.489   1.041   3.089
  354SOL    HW1 1197   2.465   0.969   3.031
  354SOL    HW2 1198   2.436   1.114   3.059
  355SOL     OW 1199   2.167   3.391   2.668
  355SOL    HW1 1200   2.082   3.433   2.651
  355SOL    HW2 1201   2.195   3.426   2.752
  356SOL     OW 1202   3.908   1.436   0.390
  356SOL    HW1 1203   3.966   1.478   0.454
  356SOL    HW2 1204   3.926   1.482   0.308
  357SOL     OW 1205   2.261   2.952   3.554
  357SOL    HW1 1206   2.201   2.936   3.627
  357SOL    HW2 1207   2.289   3.042   3.565
  358SOL     OW 1208   2.283   0.409   1.051
  358SOL    HW1 1209   2.289   0.314   1.041
  358SOL    HW2 1210   2.367   0.441   1.017
  359SOL     OW 1211   0.227   2.250   3.464
  359SOL    HW1 1212   0.175   2.187   3.416
  359SOL    HW2 1213   0.166   2.290   3.526
  360SOL     OW 1214   0.818   3.011   1.029
  360SOL    HW1 1215   0.724   3.006   1.011
  360SOL    HW2 1216   0.855   3.058   0.954
  361SOL     OW 1217   0.752   2.879   0.364
  361SOL    HW1 1218   0.745   2.904   0.456
  361SOL    HW2 1219   0.664   2.887   0.329
  362SOL     OW 1220   2.180   3.435   1.863
  362SOL    HW1 1221   2.248   3.371   1.883
  362SOL    HW2 1222   2.150   3.412   1.776
  363SOL     OW 1223   1.426   2.058   3.310
  363SOL    HW1 1224   1.481   1.986   3.339
  363SOL    HW2 1225   1.432   2.123   3.380
  364SOL     OW 1226   0.343   2.929   1.068
  364SOL    HW1 1227   0.359   3.023   1.068
  364SOL    HW2 1228   0.343   2.905   0.975
  365SOL     OW 1229   2.943   0.618   2.510
  365SOL    HW1 1230   2.961   0.551   2.576
  365SOL    HW2 1231   3.017   0.678   2.515
  366SOL     OW 1232   3.343   3.513   0.037
  366SOL    HW1 1233   3.272   3.451   0.022
  366SOL    HW2 1234   3.357   3.509   0.132
  367SOL     OW 1235   3.813   3.293   0.168
  367SOL    HW1 1236   3.796   3.254   0.083
  367SOL    HW2 1237   3.761   3.374   0.169
  368SOL     OW 1238   2.273   2.326   3.029
  368SOL    HW1 1239   2.201   2.383   3.056
  368SOL    HW2 1240   2.352   2.368   3.064
  369SOL     OW 1241   0.289   1.285   3.901
  369SOL    HW1 1242   0.277   1.255   3.991
  369SOL    HW2 1243   0.350   1.358   3.908
  370SOL     OW 1244   0.747   1.299   0.369
  370SOL    HW1 1245   0.719   1.255   0.289
  370SOL    HW2 1246   0.750   1.230   0.435
  371SOL     OW 1247   3.807   2.934   2.997
  371SOL    HW1 1248   3.788   3.012   3.049
  371SOL    HW2 1249   3.902   2.923   3.005
  372SOL     OW 1250   1.894   1.680   3.346
  372SOL    HW1 1251   1.958   1.635   3.400
  372SOL    HW2 1252   1.891   1.630   3.265
  373SOL     OW 1253   3.165   2.497   3.238
  373SOL    HW1 1254   3.071   2.506   3.224
  373SOL    HW2 1255   3.188   2.570   3.296
  374SOL     OW 1256   3.123   2.276   2.480
  374SOL    HW1 1257   3.069   2.229   2.416
  374SOL    HW2 1258   3.155   2.352   2.433
  375SOL     OW 1259   3.730   1.975   3.862
  375SOL    HW1 1260   3.754   1.997   3.952
  375SOL    HW2 1261   3.758   1.884   3.852
  376SOL     OW 1262   1.632   1.834   3.414
  376SOL    HW1 1263   1.716   1.816   3.373
  376SOL    HW2 1264   1.638   1.792   3.500
  377SOL     OW 1265   2.346   0.874   2.681
  377SOL    HW1 1266   2.399   0.948   2.710
  377SOL    HW2 1267   2.275   0.914   2.631
  378SOL     OW 1268   2.195   0.839   0.433
  378SOL    HW1 1269   2.279   0.807   0.465
  378SOL    HW2 1270   2.131   0.780   0.472
  379SOL     OW 1271   0.078   0.484   0.705
  379SOL    HW1 1272   0.118   0.472   0.791
  379SOL    HW2 1273   0.134   0.434   0.645
  380SOL     OW 1274   2.451   1.445   2.768
  380SOL    HW1 1275   2.424   1.440   2.860
  380SOL    HW2 1276   2.402   1.519   2.733
  381SOL     OW 1277   0.241   2.321   2.025
  381SOL    HW1 1278   0.316   2.308   1.968
  381SOL    HW2 1279   0.182   2.248   2.005
  382SOL     OW 1280   1.215   2.467   2.814
  382SOL    HW1 1281   1.157   2.400   2.778
  382SOL    HW2 1282   1.159   2.545   2.823
  383SOL     OW 1283   2.977   2.301   3.551
  383SOL    HW1 1284   2.883   2.280   3.553
  383SOL    HW2 1285   3.001   2.310   3.643
  384SOL     OW 1286   0.178   2.382   2.281
  384SOL    HW1 1287   0.141   2.464   2.251
  384SOL    HW2 1288   0.221   2.345   2.204
  385SOL     OW 1289   2.578   3.635   2.997
  385SOL    HW1 1290   2.651   3.659   2.940
  385SOL    HW2 1291   2.545   3.553   2.960
  386SOL     OW 1292   3.275   1.819   2.784
  386SOL    HW1 1293   3.215   1.889   2.757
  386SOL    HW2 1294   3.357   1.864   2.804
  387SOL     OW 1295   2.595   3.572   3.289
  387SOL    HW1 1296   2.595   3.487   3.246
  387SOL    HW2 1297   2.564   3.633   3.222
  388SOL     OW 1298   3.281   3.150   2.889
  388SOL    HW1 1299   3.340   3.221   2.864
  388SOL    HW2 1300   3.222   3.189   2.953
  389SOL     OW 1301   1.282   1.483   0.905
  389SOL    HW1 1302   1.210   1.477   0.968
  389SOL    HW2 1303   1.301   1.392   0.882
  390SOL     OW 1304   2.100   2.337   0.941
  390SOL    HW1 1305   2.145   2.367   1.020
  390SOL    HW2 1306   2.170   2.309   0.883
  391SOL     OW 1307   2.928   2.859   2.777
  391SOL    HW1 1308   2.844   2.865   2.821
  391SOL    HW2 1309   2.979   2.931   2.812
  392SOL     OW 1310   0.398   0.710   1.388
  392SOL    HW1 1311   0.373   0.699   1.480
  392SOL    HW2 1312   0.490   0.683   1.386
  393SOL     OW 1313   3.091   1.610   2.709
  393SOL    HW1 1314   3.151   1.672   2.751
  393SOL    HW2 1315   3.112   1.526   2.750
  394SOL     OW 1316   0.169   3.723   0.510
  394SOL    HW1 1317   0.205   3.757   0.592
  394SOL    HW2 1318   0.081   3.694   0.532
  395SOL     OW 1319   0.484   1.815   1.169
  395SOL    HW1 1320   0.410   1.787   1.223
  395SOL    HW2 1321   0.469   1.908   1.152
  396SOL     OW 1322   3.157   0.718   3.293
  396SOL    HW1 1323   3.094   0.753   3.230
  396SOL    HW2 1324   3.151   0.623   3.282
  397SOL     OW 1325   0.093   0.694   2.300
  397SOL    HW1 1326   0.160   0.717   2.364
  397SOL    HW2 1327   0.090   0.598   2.302
  398SOL     OW 1328   0.944   3.095   0.345
  398SOL    HW1 1329   0.865   3.133   0.305
  398SOL    HW2 1330   0.914   3.012   0.382
  399SOL     OW 1331   0.696   3.476   0.936
  399SOL    HW1 1332   0.633   3.485   0.865
  399SOL    HW2 1333   0.752   3.554   0.930
  400SOL     OW 1334   0.008   2.278   0.461
  400SOL    HW1 1335   0.070   2.238   0.399
  400SOL    HW2 1336  -0.057   2.210   0.476
  401SOL     OW 1337   1.979   3.186   1.808
  401SOL    HW1 1338   2.058   3.141   1.778
  401SOL    HW2 1339   1.990   3.193   1.903
  402SOL     OW 1340   2.021   1.311   1.191
  402SOL    HW1 1341   2.094   1.256   1.219
  402SOL    HW2 1342   2.052   1.401   1.203
  403SOL     OW 1343   1.869   3.585   0.651
  403SOL    HW1 1344   1.911   3.667   0.674
  403SOL    HW2 1345   1.925   3.547   0.583
  404SOL     OW 1346   1.843   1.375   1.564
  404SOL    HW1 1347   1.874   1.444   1.622
  404SOL    HW2 1348   1.825   1.419   1.481
  405SOL     OW 1349   2.357   1.382   0.013
  405SOL    HW1 1350   2.448   1.373  -0.015
  405SOL    HW2 1351   2.354   1.467   0.057
  406SOL     OW 1352   3.789   0.015   0.078
  406SOL    HW1 1353   3.785   0.104   0.112
  406SOL    HW2 1354   3.750   0.020  -0.010
  407SOL     OW 1355   1.146   2.782   3.639
  407SOL    HW1 1356   1.196   2.799   3.559
  407SOL    HW2 1357   1.210   2.790   3.710
  408SOL     OW 1358   3.401   2.984   2.133
  408SOL    HW1 1359   3.381   3.041   2.059
  408SOL    HW2 1360   3.404   2.896   2.095
  409SOL     OW 1361   3.739   2.113   2.179
  409SOL    HW1 1362   3.783   2.156   2.252
  409SOL    HW2 1363   3.720   2.025   2.210
  410SOL     OW 1364   0.912   3.725   2.134
  410SOL    HW1 1365   0.988   3.774   2.164
  410SOL    HW2 1366   0.944   3.671   2.062
  411SOL     OW 1367   0.779   2.632   0.405
  411SOL    HW1 1368   0.699   2.591   0.438
  411SOL    HW2 1369   0.751   2.719   0.377
  412SOL     OW 1370   1.092   2.514   0.928
  412SOL    HW1 1371   1.138   2.433   0.906
  412SOL    HW2 1372   1.076   2.508   1.022
  413SOL     OW 1373   0.758   2.565   3.270
  413SOL    HW1 1374   0.734   2.473   3.271
  413SOL    HW2 1375   0.776   2.586   3.362
  414SOL     OW 1376   0.968   1.277   2.961
  414SOL    HW1 1377   0.913   1.340   2.915
  414SOL    HW2 1378   0.925   1.264   3.045
  415SOL     OW 1379   1.501   3.027   1.757
  415SOL    HW1 1380   1.504   3.019   1.661
  415SOL    HW2 1381   1.592   3.046   1.782
  416SOL     OW 1382   3.090   2.366   3.811
  416SOL    HW1 1383   3.066   2.433   3.875
  416SOL    HW2 1384   3.154   2.409   3.755
  417SOL     OW 1385   1.662   2.222   2.164
  417SOL    HW1 1386   1.726   2.288   2.137
  417SOL    HW2 1387   1.696   2.187   2.246
  418SOL     OW 1388   3.091   1.251   0.942
  418SOL    HW1 1389   3.057   1.165   0.917
  418SOL    HW2 1390   3.092   1.302   0.861
  419SOL     OW 1391   3.564   2.087   3.241
  419SOL    HW1 1392   3.631   2.069   3.175
  419SOL    HW2 1393   3.603   2.153   3.298
  420SOL     OW 1394   2.162   2.332   1.728
  420SOL    HW1 1395   2.123   2.346   1.814
  420SOL    HW2 1396   2.095   2.285   1.678
  421SOL     OW 1397   3.807   0.249   3.824
  421SOL    HW1 1398   3.770   0.183   3.766
  421SOL    HW2 1399   3.878   0.289   3.773
  422SOL     OW 1400   1.937   2.782   3.764
  422SOL    HW1 1401   1.972   2.847   3.824
  422SOL    HW2 1402   1.964   2.698   3.800
  423SOL     OW 1403   0.475   2.780   1.270
  423SOL    HW1 1404   0.455   2.794   1.178
  423SOL    HW2 1405   0.496   2.867   1.304
  424SOL     OW 1406   3.470   2.869   3.062
  424SOL    HW1 1407   3.524   2.810   3.010
  424SOL    HW2 1408   3.531   2.908   3.125
  425SOL     OW 1409   1.010   2.660   2.790
  425SOL    HW1 1410   0.940   2.700   2.738
  425SOL    HW2 1411   0.982   2.673   2.881
  426SOL     OW 1412   3.384   0.726   1.951
  426SOL    HW1 1413   3.361   0.812   1.986
  426SOL    HW2 1414   3.477   0.716   1.972
  427SOL     OW 1415   1.413   1.487   2.788
  427SOL    HW1 1416   1.345   1.455   2.846
  427SOL    HW2 1417   1.476   1.416   2.783
  428SOL     OW 1418   2.254   2.025   2.692
  428SOL    HW1 1419   2.260   2.120   2.695
  428SOL    HW2 1420   2.278   1.997   2.780
  429SOL     OW 1421   3.841   1.678   0.916
  429SOL    HW1 1422   3.923   1.635   0.939
  429SOL    HW2 1423   3.835   1.671   0.821
  430SOL     OW 1424   3.418   1.018   2.942
  430SOL    HW1 1425   3.511   1.035   2.934
  430SOL    HW2 1426   3.382   1.099   2.979
  431SOL     OW 1427   3.412   1.159   0.331
  431SOL    HW1 1428   3.348   1.088   0.332
  431SOL    HW2 1429   3.368   1.231   0.287
  432SOL     OW 1430   3.284   2.774   0.944
  432SOL    HW1 1431   3.294   2.758   1.038
  432SOL    HW2 1432   3.325   2.860   0.930
  433SOL     OW 1433   1.665   2.962   0.812
  433SOL    HW1 1434   1.703   2.889   0.861
  433SOL    HW2 1435   1.570   2.947   0.818
  434SOL     OW 1436   3.745   2.076   3.021
  434SOL    HW1 1437   3.720   2.005   2.963
  434SOL    HW2 1438   3.693   2.151   2.991
  435SOL     OW 1439   0.035   2.355   3.636
  435SOL    HW1 1440   0.002   2.423   3.578
  435SOL    HW2 1441  -0.014   2.277   3.611
  436SOL     OW 1442   1.944   3.279   3.093
  436SOL    HW1 1443   1.929   3.360   3.141
  436SOL    HW2 1444   1.924   3.210   3.156
  437SOL     OW 1445   1.276   1.128   3.527
  437SOL    HW1 1446   1.189   1.119   3.566
  437SOL    HW2 1447   1.337   1.114   3.600
  438SOL     OW 1448   3.289   3.630   1.061
  438SOL    HW1 1449   3.341   3.657   1.137
  438SOL    HW2 1450   3.347   3.572   1.011
  439SOL     OW 1451   3.021   2.909   0.543
  439SOL    HW1 1452   3.005   2.924   0.450
  439SOL    HW2 1453   2.996   2.817   0.557
  440SOL     OW 1454   1.408   3.906   1.484
  440SOL    HW1 1455   1.426   3.990   1.442
  440SOL    HW2 1456   1.435   3.841   1.419
  441SOL     OW 1457   1.869   2.595   0.064
  441SOL    HW1 1458   1.775   2.612   0.066
  441SOL    HW2 1459   1.886   2.562  -0.024
  442SOL     OW 1460   0.336   2.532   0.346
  442SOL    HW1 1461   0.371   2.458   0.296
  442SOL    HW2 1462   0.241   2.519   0.346
  443SOL     OW 1463   0.908   1.236   1.255
  443SOL    HW1 1464   0.926   1.180   1.180
  443SOL    HW2 1465   0.823   1.277   1.235
  444SOL     OW 1466   2.608   0.380   1.395
  444SOL    HW1 1467   2.682   0.437   1.418
  444SOL    HW2 1468   2.638   0.332   1.318
  445SOL     OW 1469   1.382   0.027   3.291
  445SOL    HW1 1470   1.451   0.068   3.240
  445SOL    HW2 1471   1.427  -0.008   3.368
  446SOL     OW 1472   3.897   0.890   1.794
  446SOL    HW1 1473   3.822   0.949   1.788
  446SOL    HW2 1474   3.924   0.894   1.885
  447SOL     OW 1475   0.612   3.202   2.173
  447SOL    HW1 1476   0.624   3.241   2.259
  447SOL    HW2 1477   0.555   3.263   2.126
  448SOL     OW 1478   1.148   3.915   1.349
  448SOL    HW1 1479   1.136   3.891   1.440
  448SOL    HW2 1480   1.220   3.859   1.319
  449SOL     OW 1481   0.837   2.224   1.088
  449SOL    HW1 1482   0.825   2.318   1.104
  449SOL    HW2 1483   0.894   2.221   1.011
  450SOL     OW 1484   2.010   0.681   2.381
  450SOL    HW1 1485   1.968   0.706   2.463
  450SOL    HW2 1486   2.104   0.695   2.397
  451SOL     OW 1487   3.787   2.297   1.104
  451SOL    HW1 1488   3.728   2.357   1.057
  451SOL    HW2 1489   3.874   2.317   1.070
  452SOL     OW 1490   3.765   2.140   1.601
  452SOL    HW1 1491   3.825   2.205   1.565
  452SOL    HW2 1492   3.679   2.181   1.595
  453SOL     OW 1493   3.583   0.371   3.908
  453SOL    HW1 1494   3.667   0.365   3.862
  453SOL    HW2 1495   3.537   0.291   3.884
  454SOL     OW 1496   0.379   2.019   3.729
  454SOL    HW1 1497   0.377   2.053   3.639
  454SOL    HW2 1498   0.360   2.095   3.784
  455SOL     OW 1499   1.836   3.564   2.410
  455SOL    HW1 1500   1.770   3.621   2.449
  455SOL    HW2 1501   1.786   3.506   2.352
  456SOL     OW 1502   0.014   3.175   1.396
  456SOL    HW1 1503  -0.002   3.103   1.456
  456SOL    HW2 1504   0.052   3.244   1.451
  457SOL     OW 1505   2.081   3.229   0.645
  457SOL    HW1 1506   2.100   3.146   0.601
  457SOL    HW2 1507   2.130   3.223   0.728
  458SOL     OW 1508   0.738   0.638   2.174
  458SOL    HW1 1509   0.656   0.670   2.210
  458SOL    HW2 1510   0.801   0.645   2.246
  459SOL     OW 1511   1.510   2.171   0.627
  459SOL    HW1 1512   1.468   2.116   0.561
  459SOL    HW2 1513   1.551   2.110   0.688
  460SOL     OW 1514   3.941   0.167   0.448
  460SOL    HW1 1515   4.031   0.189   0.470
  460SOL    HW2 1516   3.903   0.135   0.529
  461SOL     OW 1517   3.404   0.126   2.083
  461SOL    HW1 1518   3.347   0.193   2.120
  461SOL    HW2 1519   3.460   0.099   2.156
  462SOL     OW 1520   1.482   0.407   3.272
  462SOL    HW1 1521   1.530   0.438   3.195
  462SOL    HW2 1522   1.390   0.411   3.246
  463SOL     OW 1523   0.844   0.329   3.776
  463SOL    HW1 1524   0.896   0.289   3.845
  463SOL    HW2 1525   0.758   0.288   3.784
  464SOL     OW 1526   1.810   2.084   0.480
  464SOL    HW1 1527   1.863   2.006   0.493
  464SOL    HW2 1528   1.834   2.142   0.552
  465SOL     OW 1529   1.049   0.206   2.809
  465SOL    HW1 1530   1.027   0.220   2.717
  465SOL    HW2 1531   1.144   0.217   2.812
  466SOL     OW 1532   1.315   0.767   2.272
  466SOL    HW1 1533   1.340   0.830   2.205
  466SOL    HW2 1534   1.279   0.820   2.343
  467SOL     OW 1535   2.978   1.268   2.265
  467SOL    HW1 1536   2.934   1.197   2.219
  467SOL    HW2 1537   2.992   1.234   2.354
  468SOL     OW 1538   0.685   0.173   1.755
  468SOL    HW1 1539   0.773   0.205   1.736
  468SOL    HW2 1540   0.632   0.201   1.680
  469SOL     OW 1541   0.430   3.001   0.578
  469SOL    HW1 1542   0.399   3.045   0.499
  469SOL    HW2 1543   0.374   2.924   0.587
  470SOL     OW 1544   2.970   0.235   1.472
  470SOL    HW1 1545   2.945   0.327   1.460
  470SOL    HW2 1546   2.932   0.211   1.557
  471SOL     OW 1547   1.996   2.954   1.547
  471SOL    HW1 1548   2.083   2.944   1.508
  471SOL    HW2 1549   1.954   3.021   1.495
  472SOL     OW 1550   0.277   1.147   1.237
  472SOL    HW1 1551   0.208   1.110   1.182
  472SOL    HW2 1552   0.258   1.113   1.325
  473SOL     OW 1553   0.445   1.524   3.945
  473SOL    HW1 1554   0.514   1.537   3.880
  473SOL    HW2 1555   0.392   1.604   3.940
  474SOL     OW 1556   1.465   2.967   3.621
  474SOL    HW1 1557   1.442   2.938   3.709
  474SOL    HW2 1558   1.551   2.928   3.604
  475SOL     OW 1559   1.651   3.411   2.693
  475SOL    HW1 1560   1.693   3.356   2.760
  475SOL    HW2 1561   1.573   3.445   2.737
  476SOL     OW 1562   1.574   2.555   2.707
  476SOL    HW1 1563   1.517   2.492   2.661
  476SOL    HW2 1564   1.514   2.605   2.762
  477SOL     OW 1565   2.374   3.472   2.525
  477SOL    HW1 1566   2.301   3.430   2.571
  477SOL    HW2 1567   2.351   3.464   2.432
  478SOL     OW 1568   3.063   2.652   2.679
  478SOL    HW1 1569   2.994   2.627   2.618
  478SOL    HW2 1570   3.020   2.707   2.744
  479SOL     OW 1571   3.042   2.568   3.519
  479SOL    HW1 1572   3.037   2.473   3.520
  479SOL    HW2 1573   3.103   2.590   3.590
  480SOL     OW 1574   1.670   1.169   0.110
  480SOL    HW1 1575   1.647   1.213   0.192
  480SOL    HW2 1576   1.748   1.119   0.130
  481SOL     OW 1577   3.174   3.861   0.981
  481SOL    HW1 1578   3.091   3.884   1.022
  481SOL    HW2 1579   3.201   3.781   1.025
  482SOL     OW 1580   1.673   3.410   0.276
  482SOL    HW1 1581   1.669   3.439   0.367
  482SOL    HW2 1582   1.599   3.454   0.234
  483SOL     OW 1583   3.915   3.876   1.383
  483SOL    HW1 1584   3.979   3.932   1.338
  483SOL    HW2 1585   3.905   3.800   1.327
  484SOL     OW 1586   3.709   1.025   3.432
  484SOL    HW1 1587   3.727   1.009   3.339
  484SOL    HW2 1588   3.624   1.068   3.433
  485SOL     OW 1589   3.433   1.174   1.807
  485SOL    HW1 1590   3.392   1.238   1.865
  485SOL    HW2 1591   3.519   1.210   1.789
  486SOL     OW 1592   0.171   0.087   1.268
  486SOL    HW1 1593   0.204   0.168   1.309
  486SOL    HW2 1594   0.204   0.090   1.179
  487SOL     OW 1595   0.238   0.095   1.724
  487SOL    HW1 1596   0.231   0.120   1.816
  487SOL    HW2 1597   0.151   0.109   1.688
  488SOL     OW 1598   0.406   3.835   2.577
  488SOL    HW1 1599   0.440   3.824   2.488
  488SOL    HW2 1600   0.346   3.761   2.589
  489SOL     OW 1601   0.898   3.278   1.479
  489SOL    HW1 1602   0.908   3.335   1.555
  489SOL    HW2 1603   0.806   3.251   1.481
  490SOL     OW 1604   1.921   3.504   2.686
  490SOL    HW1 1605   1.877   3.516   2.602
  490SOL    HW2 1606   1.873   3.560   2.747
  491SOL     OW 1607   0.508   1.166   0.767
  491SOL    HW1 1608   0.495   1.161   0.862
  491SOL    HW2 1609   0.451   1.098   0.731
  492SOL     OW 1610   2.466   0.862   1.899
  492SOL    HW1 1611   2.375   0.844   1.922
  492SOL    HW2 1612   2.499   0.914   1.972
  493SOL     OW 1613   2.243   1.226   1.311
  493SOL    HW1 1614   2.312   1.290   1.293
  493SOL    HW2 1615   2.274   1.179   1.389
  494SOL     OW 1616   2.746   0.682   1.859
  494SOL    HW1 1617   2.712   0.727   1.782
  494SOL    HW2 1618   2.839   0.670   1.841
  495SOL     OW 1619   1.232   1.250   1.165
  495SOL    HW1 1620   1.153   1.304   1.166
  495SOL    HW2 1621   1.205   1.170   1.120
  496SOL     OW 1622   0.836   3.098   1.819
  496SOL    HW1 1623   0.896   3.138   1.756
  496SOL    HW2 1624   0.862   3.134   1.904
  497SOL     OW 1625   2.713   1.596   1.569
  497SOL    HW1 1626   2.757   1.639   1.643
  497SOL    HW2 1627   2.622   1.626   1.576
  498SOL     OW 1628   3.445   3.731   1.239
  498SOL    HW1 1629   3.500   3.791   1.288
  498SOL    HW2 1630   3.475   3.644   1.265
  499SOL     OW 1631   3.593   1.266   3.723
  499SOL    HW1 1632   3.658   1.195   3.727
  499SOL    HW2 1633   3.509   1.221   3.733
  500SOL     OW 1634   3.228   3.506   2.021
  500SOL    HW1 1635   3.270   3.591   2.032
  500SOL    HW2 1636   3.145   3.513   2.069
  501SOL     OW 1637   0.646   3.416   3.873
  501SOL    HW1 1638   0.666   3.334   3.829
  501SOL    HW2 1639   0.598   3.390   3.952
  502SOL     OW 1640   1.709   2.498   1.501
  502SOL    HW1 1641   1.693   2.587   1.534
  502SOL    HW2 1642   1.706   2.508   1.405
  503SOL     OW 1643   2.474   3.447   2.784
  503SOL    HW1 1644   2.471   3.491   2.698
  503SOL    HW2 1645   2.499   3.357   2.764
  504SOL     OW 1646   0.977   0.178   0.012
  504SOL    HW1 1647   1.042   0.194   0.081
  504SOL    HW2 1648   0.986   0.085  -0.009
  505SOL     OW 1649   3.939   1.988   1.726
  505SOL    HW1 1650   3.871   2.029   1.672
  505SOL    HW2 1651   3.934   1.895   1.704
  506SOL     OW 1652   1.710   0.346   0.671
  506SOL    HW1 1653   1.802   0.361   0.692
  506SOL    HW2 1654   1.709   0.259   0.630
  507SOL     OW 1655   0.520   3.751   2.347
  507SOL    HW1 1656   0.562   3.760   2.261
  507SOL    HW2 1657   0.531   3.658   2.369
  508SOL     OW 1658   3.090   3.782   0.185
  508SOL    HW1 1659   3.081   3.708   0.126
  508SOL    HW2 1660   3.000   3.815   0.196
  509SOL     OW 1661   2.344   1.298   2.228
  509SOL    HW1 1662   2.367   1.349   2.306
  509SOL    HW2 1663   2.428   1.280   2.185
  510SOL     OW 1664   3.324   2.631   2.780
  510SOL    HW1 1665   3.253   2.610   2.719
  510SOL    HW2 1666   3.336   2.725   2.773
  511SOL     OW 1667   1.339   2.022   0.937
  511SOL    HW1 1668   1.249   2.000   0.962
  511SOL    HW2 1669   1.393   1.956   0.981
  512SOL     OW 1670   2.090   3.330   1.045
  512SOL    HW1 1671   2.111   3.418   1.076
  512SOL    HW2 1672   2.090   3.276   1.124
  513SOL     OW 1673   2.248   1.551   2.145
  513SOL    HW1 1674   2.283   1.575   2.059
  513SOL    HW2 1675   2.316   1.496   2.184
  514SOL     OW 1676   1.601   0.751   0.258
  514SOL    HW1 1677   1.650   0.677   0.223
  514SOL    HW2 1678   1.541   0.713   0.321
  515SOL     OW 1679   0.710   1.655   3.451
  515SOL    HW1 1680   0.782   1.717   3.460
  515SOL    HW2 1681   0.753   1.570   3.439
  516SOL     OW 1682   0.419   1.000   3.935
  516SOL    HW1 1683   0.477   0.931   3.904
  516SOL    HW2 1684   0.443   1.076   3.882
  517SOL     OW 1685   3.606   3.077   3.227
  517SOL    HW1 1686   3.523   3.117   3.202
  517SOL    HW2 1687   3.671   3.146   3.210
  518SOL     OW 1688   0.382   3.548   0.988
  518SOL    HW1 1689   0.428   3.489   0.928
  518SOL    HW2 1690   0.331   3.490   1.044
  519SOL     OW 1691   1.199   1.183   3.147
  519SOL    HW1 1692   1.152   1.115   3.195
  519SOL    HW2 1693   1.274   1.204   3.203
  520SOL     OW 1694   2.616   0.706   0.497
  520SOL    HW1 1695   2.577   0.665   0.575
  520SOL    HW2 1696   2.695   0.749   0.529
  521SOL     OW 1697   0.406   1.005   1.676
  521SOL    HW1 1698   0.473   1.030   1.740
  521SOL    HW2 1699   0.455   0.958   1.608
  522SOL     OW 1700   3.927   0.802   3.032
  522SOL    HW1 1701   3.984   0.876   3.049
  522SOL    HW2 1702   3.949   0.774   2.943
  523SOL     OW 1703   0.067   0.709   0.954
  523SOL    HW1 1704   0.074   0.630   0.901
  523SOL    HW2 1705   0.003   0.763   0.907
  524SOL     OW 1706   3.735   3.421   3.582
  524SOL    HW1 1707   3.788   3.415   3.503
  524SOL    HW2 1708   3.798   3.427   3.654
  525SOL     OW 1709   2.412   0.920   1.290
  525SOL    HW1 1710   2.406   0.927   1.386
  525SOL    HW2 1711   2.452   1.003   1.263
  526SOL     OW 1712   3.665   1.343   1.322
  526SOL    HW1 1713   3.723   1.272   1.348
  526SOL    HW2 1714   3.713   1.390   1.254
  527SOL     OW 1715   0.193   3.381   1.882
  527SOL    HW1 1716   0.285   3.386   1.910
  527SOL    HW2 1717   0.167   3.471   1.866
  528SOL     OW 1718   0.727   0.495   1.112
  528SOL    HW1 1719   0.739   0.531   1.200
  528SOL    HW2 1720   0.632   0.492   1.101
  529SOL     OW 1721   0.548   1.256   0.120
  529SOL    HW1 1722   0.582   1.232   0.034
  529SOL    HW2 1723   0.482   1.189   0.139
  530SOL     OW 1724   3.265   3.638   2.535
  530SOL    HW1 1725   3.180   3.624   2.493
  530SOL    HW2 1726   3.276   3.733   2.537
  531SOL     OW 1727   0.924   0.720   2.793
  531SOL    HW1 1728   0.914   0.785   2.723
  531SOL    HW2 1729   0.960   0.643   2.749
  532SOL     OW 1730   0.677   0.073   1.194
  532SOL    HW1 1731   0.637   0.111   1.272
  532SOL    HW2 1732   0.610   0.014   1.160
  533SOL     OW 1733   1.843   2.446   2.127
  533SOL    HW1 1734   1.837   2.539   2.106
  533SOL    HW2 1735   1.855   2.444   2.222
  534SOL     OW 1736   0.366   0.090   2.263
  534SOL    HW1 1737   0.412   0.013   2.230
  534SOL    HW2 1738   0.420   0.122   2.335
  535SOL     OW 1739   1.160   0.787   2.898
  535SOL    HW1 1740   1.158   0.882   2.900
  535SOL    HW2 1741   1.070   0.760   2.882
  536SOL     OW 1742   3.329   0.906   3.343
  536SOL    HW1 1743   3.272   0.830   3.329
  536SOL    HW2 1744   3.392   0.902   3.272
  537SOL     OW 1745   1.118   1.870   3.767
  537SOL    HW1 1746   1.144   1.779   3.752
  537SOL    HW2 1747   1.060   1.867   3.842
  538SOL     OW 1748   0.471   0.287   0.328
  538SOL    HW1 1749   0.507   0.198   0.332
  538SOL    HW2 1750   0.539   0.337   0.283
  539SOL     OW 1751   1.386   3.502   2.405
  539SOL    HW1 1752   1.317   3.564   2.429
  539SOL    HW2 1753   1.380   3.495   2.309
  540SOL     OW 1754   0.170   2.007   3.331
  540SOL    HW1 1755   0.098   1.972   3.279
  540SOL    HW2 1756   0.235   2.036   3.267
  541SOL     OW 1757   3.337   0.707   2.302
  541SOL    HW1 1758   3.370   0.796   2.293
  541SOL    HW2 1759   3.414   0.656   2.326
  542SOL     OW 1760   1.381   0.728   3.689
  542SOL    HW1 1761   1.439   0.657   3.660
  542SOL    HW2 1762   1.302   0.718   3.635
  543SOL     OW 1763   0.913   1.551   0.786
  543SOL    HW1 1764   0.840   1.557   0.724
  543SOL    HW2 1765   0.890   1.478   0.844
  544SOL     OW 1766   1.630   0.481   3.052
  544SOL    HW1 1767   1.712   0.530   3.051
  544SOL    HW2 1768   1.571   0.530   2.994
  545SOL     OW 1769   0.540   3.743   3.830
  545SOL    HW1 1770   0.589   3.801   3.772
  545SOL    HW2 1771   0.558   3.655   3.797
  546SOL     OW 1772   0.699   3.520   2.183
  546SOL    HW1 1773   0.748   3.602   2.183
  546SOL    HW2 1774   0.746   3.463   2.244
  547SOL     OW 1775   2.577   3.136   0.246
  547SOL    HW1 1776   2.617   3.070   0.303
  547SOL    HW2 1777   2.562   3.212   0.304
  548SOL     OW 1778   0.568   1.922   0.496
  548SOL    HW1 1779   0.559   2.018   0.491
  548SOL    HW2 1780   0.662   1.909   0.509
  549SOL     OW 1781   1.261   2.896   1.726
  549SOL    HW1 1782   1.345   2.941   1.733
  549SOL    HW2 1783   1.274   2.831   1.657
  550SOL     OW 1784   1.821  -0.025   3.362
  550SOL    HW1 1785   1.765   0.052   3.348
  550SOL    HW2 1786   1.878  -0.026   3.285
  551SOL     OW 1787   3.641   3.887   1.451
  551SOL    HW1 1788   3.635   3.838   1.533
  551SOL    HW2 1789   3.731   3.875   1.423
  552SOL     OW 1790   1.175   0.464   3.793
  552SOL    HW1 1791   1.224   0.507   3.863
  552SOL    HW2 1792   1.090   0.509   3.794
  553SOL     OW 1793   3.461   0.792   0.975
  553SOL    HW1 1794   3.481   0.724   0.911
  553SOL    HW2 1795   3.458   0.873   0.925
  554SOL     OW 1796   0.258   3.832   3.343
  554SOL    HW1 1797   0.178   3.791   3.375
  554SOL    HW2 1798   0.258   3.919   3.382
  555SOL     OW 1799   0.543   2.523   1.278
  555SOL    HW1 1800   0.519   2.533   1.370
  555SOL    HW2 1801   0.567   2.612   1.250
  556SOL     OW 1802   1.665   3.686   3.105
  556SOL    HW1 1803   1.614   3.767   3.110
  556SOL    HW2 1804   1.608   3.619   3.143
  557SOL     OW 1805   1.941   3.777   0.367
  557SOL    HW1 1806   1.865   3.790   0.423
  557SOL    HW2 1807   2.015   3.815   0.416
  558SOL     OW 1808   3.844   2.918   3.597
  558SOL    HW1 1809   3.788   2.986   3.558
  558SOL    HW2 1810   3.783   2.865   3.648
  559SOL     OW 1811   0.921   2.842   1.819
  559SOL    HW1 1812   0.898   2.932   1.799
  559SOL    HW2 1813   0.945   2.804   1.734
  560SOL     OW 1814   0.490   2.164   2.629
  560SOL    HW1 1815   0.419   2.194   2.571
  560SOL    HW2 1816   0.483   2.068   2.627
  561SOL     OW 1817   1.644   3.686   2.615
  561SOL    HW1 1818   1.618   3.600   2.647
  561SOL    HW2 1819   1.631   3.745   2.689
  562SOL     OW 1820   2.479   2.347   3.868
  562SOL    HW1 1821   2.473   2.441   3.853
  562SOL    HW2 1822   2.390   2.321   3.893
  563SOL     OW 1823   0.950   3.763   1.596
  563SOL    HW1 1824   0.860   3.781   1.622
  563SOL    HW2 1825   1.000   3.764   1.677
  564SOL     OW 1826   3.606   3.235   2.471
  564SOL    HW1 1827   3.597   3.144   2.443
  564SOL    HW2 1828   3.560   3.239   2.555
  565SOL     OW 1829   3.412   0.759   3.034
  565SOL    HW1 1830   3.405   0.683   2.976
  565SOL    HW2 1831   3.413   0.834   2.975
  566SOL     OW 1832   2.475   0.242   2.434
  566SOL    HW1 1833   2.518   0.209   2.355
  566SOL    HW2 1834   2.410   0.304   2.402
  567SOL     OW 1835   2.137   0.214   0.311
  567SOL    HW1 1836   2.203   0.279   0.287
  567SOL    HW2 1837   2.171   0.131   0.278
  568SOL     OW 1838   2.391   2.797   3.155
  568SOL    HW1 1839   2.405   2.722   3.097
  568SOL    HW2 1840   2.433   2.771   3.238
  569SOL     OW 1841   1.930   3.822   2.003
  569SOL    HW1 1842   1.969   3.813   1.916
  569SOL    HW2 1843   1.990   3.776   2.061
  570SOL     OW 1844   3.566   0.453   2.172
  570SOL    HW1 1845   3.564   0.412   2.086
  570SOL    HW2 1846   3.639   0.516   2.167
  571SOL     OW 1847   3.300   1.493   0.490
  571SOL    HW1 1848   3.256   1.473   0.408
  571SOL    HW2 1849   3.374   1.432   0.494
  572SOL     OW 1850   1.713   0.277   3.680
  572SOL    HW1 1851   1.797   0.232   3.685
  572SOL    HW2 1852   1.648   0.207   3.682
  573SOL     OW 1853   0.786   0.637   1.341
  573SOL    HW1 1854   0.840   0.682   1.276
  573SOL    HW2 1855   0.841   0.631   1.419
  574SOL     OW 1856   3.221   0.830   0.378
  574SOL    HW1 1857   3.215   0.871   0.464
  574SOL    HW2 1858   3.253   0.742   0.395
  575SOL     OW 1859   3.842   0.926   0.060
  575SOL    HW1 1860   3.907   0.978   0.012
  575SOL    HW2 1861   3.826   0.851   0.003
  576SOL     OW 1862   1.068   2.241   0.235
  576SOL    HW1 1863   1.000   2.276   0.292
  576SOL    HW2 1864   1.121   2.185   0.292
  577SOL     OW 1865   3.172   1.911   1.501
  577SOL    HW1 1866   3.093   1.957   1.476
  577SOL    HW2 1867   3.243   1.971   1.480
  578SOL     OW 1868   2.455   3.630   3.774
  578SOL    HW1 1869   2.433   3.721   3.753
  578SOL    HW2 1870   2.525   3.608   3.712
  579SOL     OW 1871   2.758   0.838   2.892
  579SOL    HW1 1872   2.697   0.911   2.887
  579SOL    HW2 1873   2.783   0.821   2.801
  580SOL     OW 1874   1.938   2.140   1.607
  580SOL    HW1 1875   1.860   2.183   1.642
  580SOL    HW2 1876   1.963   2.195   1.533
  581SOL     OW 1877   0.134   0.987   2.286
  581SOL    HW1 1878   0.167   0.897   2.291
  581SOL    HW2 1879   0.212   1.041   2.279
  582SOL     OW 1880   1.934   1.472   1.793
  582SOL    HW1 1881   1.951   1.514   1.877
  582SOL    HW2 1882   1.883   1.394   1.814
  583SOL     OW 1883   1.146   2.488   0.101
  583SOL    HW1 1884   1.116   2.430   0.171
  583SOL    HW2 1885   1.185   2.429   0.036
  584SOL     OW 1886   0.806   2.489   1.136
  584SOL    HW1 1887   0.784   2.499   1.229
  584SOL    HW2 1888   0.898   2.514   1.130
  585SOL     OW 1889   2.878   2.642   2.229
  585SOL    HW1 1890   2.892   2.630   2.135
  585SOL    HW2 1891   2.950   2.698   2.256
  586SOL     OW 1892   2.629   0.331   1.933
  586SOL    HW1 1893   2.689   0.402   1.953
  586SOL    HW2 1894   2.549   0.375   1.903
  587SOL     OW 1895   3.731   2.914   2.740
  587SOL    HW1 1896   3.741   2.939   2.832
  587SOL    HW2 1897   3.788   2.975   2.692
  588SOL     OW 1898   0.073   0.631   1.970
  588SOL    HW1 1899   0.033   0.682   2.041
  588SOL    HW2 1900   0.140   0.689   1.934
  589SOL     OW 1901   1.238   2.395   0.480
  589SOL    HW1 1902   1.170   2.455   0.449
  589SOL    HW2 1903   1.319   2.445   0.472
  590SOL     OW 1904   1.284   0.260   3.662
  590SOL    HW1 1905   1.246   0.328   3.718
  590SOL    HW2 1906   1.209   0.217   3.622
  591SOL     OW 1907   0.865   2.541   0.009
  591SOL    HW1 1908   0.917   2.588   0.073
  591SOL    HW2 1909   0.893   2.575  -0.076
  592SOL     OW 1910   2.165   0.860   1.233
  592SOL    HW1 1911   2.168   0.828   1.143
  592SOL    HW2 1912   2.257   0.873   1.257
  593SOL     OW 1913   1.554   0.576   1.499
  593SOL    HW1 1914   1.628   0.587   1.439
  593SOL    HW2 1915   1.477   0.581   1.443
  594SOL     OW 1916   2.270   0.707   2.431
  594SOL    HW1 1917   2.314   0.759   2.499
  594SOL    HW2 1918   2.329   0.709   2.357
  595SOL     OW 1919   0.754   1.220   2.423
  595SOL    HW1 1920   0.724   1.308   2.402
  595SOL    HW2 1921   0.840   1.233   2.463
  596SOL     OW 1922   2.437   1.367   3.036
  596SOL    HW1 1923   2.402   1.433   3.097
  596SOL    HW2 1924   2.518   1.337   3.076
  597SOL     OW 1925   2.305   3.983   0.219
  597SOL    HW1 1926   2.294   3.897   0.258
  597SOL    HW2 1927   2.399   3.988   0.199
  598SOL     OW 1928   2.760   0.329   3.457
  598SOL    HW1 1929   2.729   0.374   3.535
  598SOL    HW2 1930   2.760   0.237   3.480
  599SOL     OW 1931   2.878   0.023   2.482
  599SOL    HW1 1932   2.854  -0.030   2.406
  599SOL    HW2 1933   2.821   0.100   2.477
  600SOL     OW 1934   3.672   1.842   2.222
  600SOL    HW1 1935   3.618   1.789   2.281
  600SOL    HW2 1936   3.625   1.841   2.139
  601SOL     OW 1937   2.060   3.333   0.047
  601SOL    HW1 1938   1.996   3.261   0.051
  601SOL    HW2 1939   2.022   3.401   0.102
  602SOL     OW 1940   2.051   2.510   3.840
  602SOL    HW1 1941   2.123   2.514   3.776
  602SOL    HW2 1942   2.079   2.445   3.904
  603SOL     OW 1943   1.281   3.584   3.931
  603SOL    HW1 1944   1.335   3.555   4.004
  603SOL    HW2 1945   1.204   3.527   3.934
  604SOL     OW 1946   1.737   3.743   1.308
  604SOL    HW1 1947   1.792   3.723   1.384
  604SOL    HW2 1948   1.674   3.807   1.340
  605SOL     OW 1949   1.896   3.292   2.330
  605SOL    HW1 1950   1.921   3.323   2.417
  605SOL    HW2 1951   1.802   3.274   2.336
  606SOL     OW 1952   0.568   1.535   2.519
  606SOL    HW1 1953   0.497   1.596   2.537
  606SOL    HW2 1954   0.614   1.527   2.602
  607SOL     OW 1955   2.885   0.576   3.597
  607SOL    HW1 1956   2.909   0.555   3.507
  607SOL    HW2 1957   2.851   0.665   3.592
  608SOL     OW 1958   1.043   3.502   2.013
  608SOL    HW1 1959   1.086   3.443   2.075
  608SOL    HW2 1960   0.951   3.478   2.017
  609SOL     OW 1961   0.812   1.791   1.927
  609SOL    HW1 1962   0.755   1.865   1.948
  609SOL    HW2 1963   0.873   1.786   2.001
  610SOL     OW 1964   2.052   3.699   2.253
  610SOL    HW1 1965   2.080   3.730   2.339
  610SOL    HW2 1966   1.967   3.658   2.269
  611SOL     OW 1967   1.277   0.378   2.834
  611SOL    HW1 1968   1.207   0.403   2.774
  611SOL    HW2 1969   1.352   0.432   2.807
  612SOL     OW 1970   2.110   0.473   0.829
  612SOL    HW1 1971   2.077   0.507   0.913
  612SOL    HW2 1972   2.197   0.439   0.850
  613SOL     OW 1973   3.448   3.524   3.490
  613SOL    HW1 1974   3.434   3.430   3.475
  613SOL    HW2 1975   3.539   3.531   3.517
  614SOL     OW 1976   2.844   2.904   1.773
  614SOL    HW1 1977   2.926   2.912   1.725
  614SOL    HW2 1978   2.821   2.994   1.796
  615SOL     OW 1979   2.726   2.093   2.141
  615SOL    HW1 1980   2.648   2.107   2.088
  615SOL    HW2 1981   2.743   1.999   2.135
  616SOL     OW 1982   1.476   3.923   0.317
  616SOL    HW1 1983   1.457   3.880   0.234
  616SOL    HW2 1984   1.491   3.852   0.379
  617SOL     OW 1985   0.943   2.050   2.541
  617SOL    HW1 1986   0.900   1.975   2.583
  617SOL    HW2 1987   0.983   2.013   2.462
  618SOL     OW 1988   1.143   0.485   1.737
  618SOL    HW1 1989   1.238   0.496   1.728
  618SOL    HW2 1990   1.133   0.423   1.809
  619SOL     OW 1991   1.504   0.532   1.934
  619SOL    HW1 1992   1.543   0.471   1.996
  619SOL    HW2 1993   1.564   0.533   1.860
  620SOL     OW 1994   1.399   3.715   1.947
  620SOL    HW1 1995   1.391   3.808   1.967
  620SOL    HW2 1996   1.387   3.709   1.853
  621SOL     OW 1997   2.348   0.844   2.961
  621SOL    HW1 1998   2.332   0.806   2.874
  621SOL    HW2 1999   2.386   0.772   3.011
  622SOL     OW 2000   2.506   2.361   3.181
  622SOL    HW1 2001   2.569   2.297   3.214
  622SOL    HW2 2002   2.482   2.413   3.258
  623SOL     OW 2003   1.289   3.305   3.273
  623SOL    HW1 2004   1.297   3.219   3.313
  623SOL    HW2 2005   1.238   3.357   3.335
  624SOL     OW 2006   3.269   2.596   1.462
  624SOL    HW1 2007   3.294   2.519   1.513
  624SOL    HW2 2008   3.175   2.608   1.479
  625SOL     OW 2009   3.377   2.347   1.547
  625SOL    HW1 2010   3.377   2.377   1.638
  625SOL    HW2 2011   3.465   2.367   1.515
  626SOL     OW 2012   1.075   2.777   1.355
  626SOL    HW1 2013   0.984   2.750   1.368
  626SOL    HW2 2014   1.068   2.860   1.307
  627SOL     OW 2015   3.447   3.228   0.593
  627SOL    HW1 2016   3.452   3.324   0.593
  627SOL    HW2 2017   3.452   3.204   0.685
  628SOL     OW 2018   0.273   0.784   1.857
  628SOL    HW1 2019   0.287   0.877   1.873
  628SOL    HW2 2020   0.361   0.746   1.857
  629SOL     OW 2021   1.356   0.193   0.694
  629SOL    HW1 2022   1.330   0.279   0.729
  629SOL    HW2 2023   1.427   0.164   0.751
  630SOL     OW 2024   1.233   3.092   0.461
  630SOL    HW1 2025   1.308   3.139   0.496
  630SOL    HW2 2026   1.195   3.152   0.396
  631SOL     OW 2027   3.354   0.982   2.672
  631SOL    HW1 2028   3.380   1.028   2.752
  631SOL    HW2 2029   3.268   0.946   2.691
  632SOL     OW 2030   0.712   3.878   3.629
  632SOL    HW1 2031   0.806   3.893   3.618
  632SOL    HW2 2032   0.702   3.783   3.619
  633SOL     OW 2033   3.652   1.491   0.114
  633SOL    HW1 2034   3.677   1.420   0.173
  633SOL    HW2 2035   3.721   1.492   0.048
  634SOL     OW 2036   3.617   2.936   0.515
  634SOL    HW1 2037   3.661   3.003   0.463
  634SOL    HW2 2038   3.545   2.981   0.559
  635SOL     OW 2039   3.183   0.021   1.413
  635SOL    HW1 2040   3.230   0.043   1.332
  635SOL    HW2 2041   3.117   0.089   1.422
  636SOL     OW 2042   0.200   1.382   1.362
  636SOL    HW1 2043   0.261   1.373   1.289
  636SOL    HW2 2044   0.119   1.341   1.331
  637SOL     OW 2045   3.121   0.404   1.810
  637SOL    HW1 2046   3.208   0.378   1.841
  637SOL    HW2 2047   3.061   0.349   1.859
  638SOL     OW 2048   2.095   1.073   3.389
  638SOL    HW1 2049   2.086   1.096   3.297
  638SOL    HW2 2050   2.121   1.155   3.432
  639SOL     OW 2051   0.726   2.239   2.385
  639SOL    HW1 2052   0.760   2.153   2.408
  639SOL    HW2 2053   0.711   2.282   2.470
  640SOL     OW 2054   3.648   3.943   3.772
  640SOL    HW1 2055   3.616   3.858   3.744
  640SOL    HW2 2056   3.570   3.993   3.794
  641SOL     OW 2057   3.733   1.179   0.733
  641SOL    HW1 2058   3.649   1.162   0.691
  641SOL    HW2 2059   3.795   1.184   0.660
  642SOL     OW 2060   1.245   3.263   2.998
  642SOL    HW1 2061   1.225   3.297   3.085
  642SOL    HW2 2062   1.172   3.204   2.978
  643SOL     OW 2063   1.640   0.778   1.240
  643SOL    HW1 2064   1.563   0.769   1.185
  643SOL    HW2 2065   1.636   0.868   1.272
  644SOL     OW 2066   2.435   1.509   0.973
  644SOL    HW1 2067   2.474   1.544   0.893
  644SOL    HW2 2068   2.355   1.465   0.943
  645SOL     OW 2069   3.953   0.409   3.662
  645SOL    HW1 2070   3.870   0.414   3.615
  645SOL    HW2 2071   4.013   0.463   3.612
  646SOL     OW 2072   2.623   2.702   1.761
  646SOL    HW1 2073   2.614   2.624   1.816
  646SOL    HW2 2074   2.718   2.711   1.750
  647SOL     OW 2075   2.068   0.736   3.030
  647SOL    HW1 2076   2.026   0.822   3.020
  647SOL    HW2 2077   2.152   0.745   2.986
  648SOL     OW 2078   0.454   2.057   0.080
  648SOL    HW1 2079   0.542   2.094   0.087
  648SOL    HW2 2080   0.462   1.993   0.010
  649SOL     OW 2081   0.066   3.174   0.832
  649SOL    HW1 2082   0.023   3.186   0.747
  649SOL    HW2 2083  -0.006   3.171   0.895
  650SOL     OW 2084   3.283   1.741   0.618
  650SOL    HW1 2085   3.271   1.701   0.704
  650SOL    HW2 2086   3.289   1.667   0.558
  651SOL     OW 2087   3.104   1.736   1.241
  651SOL    HW1 2088   3.130   1.807   1.183
  651SOL    HW2 2089   3.087   1.661   1.183
  652SOL     OW 2090   1.776   2.069   1.002
  652SOL    HW1 2091   1.787   2.163   1.016
  652SOL    HW2 2092   1.729   2.038   1.079
  653SOL     OW 2093   3.030   2.512   0.476
  653SOL    HW1 2094   3.109   2.526   0.529
  653SOL    HW2 2095   3.049   2.433   0.426
  654SOL     OW 2096   1.159   2.964   2.439
  654SOL    HW1 2097   1.217   2.943   2.366
  654SOL    HW2 2098   1.094   2.893   2.438
  655SOL     OW 2099   1.224   3.348   1.657
  655SOL    HW1 2100   1.151   3.288   1.648
  655SOL    HW2 2101   1.256   3.334   1.747
  656SOL     OW 2102   2.993   1.261   1.431
  656SOL    HW1 2103   2.953   1.226   1.511
  656SOL    HW2 2104   3.023   1.349   1.456
  657SOL     OW 2105   0.431   0.484   1.072
  657SOL    HW1 2106   0.394   0.455   1.155
  657SOL    HW2 2107   0.398   0.573   1.060
  658SOL     OW 2108   0.587   2.843   1.925
  658SOL    HW1 2109   0.552   2.843   2.014
  658SOL    HW2 2110   0.594   2.751   1.902
  659SOL     OW 2111   2.848   1.778   1.393
  659SOL    HW1 2112   2.917   1.754   1.332
  659SOL    HW2 2113   2.808   1.695   1.418
  660SOL     OW 2114   2.527   0.632   3.401
  660SOL    HW1 2115   2.460   0.607   3.464
  660SOL    HW2 2116   2.483   0.629   3.316
  661SOL     OW 2117   3.868   1.033   3.683
  661SOL    HW1 2118   3.856   1.017   3.590
  661SOL    HW2 2119   3.882   0.946   3.721
  662SOL     OW 2120   2.377   1.642   1.890
  662SOL    HW1 2121   2.406   1.585   1.819
  662SOL    HW2 2122   2.298   1.685   1.856
  663SOL     OW 2123   1.611   3.647   1.796
  663SOL    HW1 2124   1.579   3.643   1.886
  663SOL    HW2 2125   1.533   3.633   1.742
  664SOL     OW 2126   3.642   0.799   2.028
  664SOL    HW1 2127   3.698   0.773   2.102
  664SOL    HW2 2128   3.669   0.888   2.007
  665SOL     OW 2129   3.129   1.170   3.194
  665SOL    HW1 2130   3.142   1.146   3.286
  665SOL    HW2 2131   3.042   1.136   3.172
  666SOL     OW 2132   3.593   2.714   2.877
  666SOL    HW1 2133   3.640   2.765   2.811
  666SOL    HW2 2134   3.517   2.679   2.831
  667SOL     OW 2135   1.680   0.551   0.931
  667SOL    HW1 2136   1.637   0.532   0.847
  667SOL    HW2 2137   1.616   0.526   0.997
  668SOL     OW 2138   1.122   0.798   0.319
  668SOL    HW1 2139   1.085   0.735   0.257
  668SOL    HW2 2140   1.093   0.883   0.287
  669SOL     OW 2141   1.372   2.852   0.331
  669SOL    HW1 2142   1.306   2.788   0.357
  669SOL    HW2 2143   1.321   2.927   0.300
  670SOL     OW 2144   0.303   2.599   3.385
  670SOL    HW1 2145   0.279   2.685   3.353
  670SOL    HW2 2146   0.279   2.600   3.478
  671SOL     OW 2147   3.642   0.806   0.495
  671SOL    HW1 2148   3.699   0.825   0.420
  671SOL    HW2 2149   3.630   0.890   0.538
  672SOL     OW 2150   3.049   1.916   0.621
  672SOL    HW1 2151   3.135   1.874   0.618
  672SOL    HW2 2152   2.992   1.850   0.661
  673SOL     OW 2153   2.931   0.465   2.029
  673SOL    HW1 2154   2.991   0.540   2.020
  673SOL    HW2 2155   2.902   0.470   2.120
  674SOL     OW 2156   0.106   0.083   2.350
  674SOL    HW1 2157   0.125   0.020   2.281
  674SOL    HW2 2158   0.186   0.134   2.359
  675SOL     OW 2159   0.891   0.340   1.620
  675SOL    HW1 2160   0.934   0.407   1.566
  675SOL    HW2 2161   0.875   0.268   1.559
  676SOL     OW 2162   1.726   1.945   2.993
  676SOL    HW1 2163   1.671   1.978   3.063
  676SOL    HW2 2164   1.813   1.981   3.011
  677SOL     OW 2165   1.959   3.820   0.727
  677SOL    HW1 2166   1.981   3.889   0.665
  677SOL    HW2 2167   1.976   3.859   0.813
  678SOL     OW 2168   1.979   1.656   0.319
  678SOL    HW1 2169   1.935   1.665   0.403
  678SOL    HW2 2170   1.911   1.675   0.254
  679SOL     OW 2171   1.448   3.604   1.039
  679SOL    HW1 2172   1.476   3.628   0.951
  679SOL    HW2 2173   1.354   3.589   1.031
  680SOL     OW 2174   0.365   3.148   1.447
  680SOL    HW1 2175   0.359   3.101   1.530
  680SOL    HW2 2176   0.374   3.080   1.381
  681SOL     OW 2177   3.141   1.175   1.194
  681SOL    HW1 2178   3.080   1.209   1.259
  681SOL    HW2 2179   3.113   1.215   1.111
  682SOL     OW 2180   3.873   0.363   1.347
  682SOL    HW1 2181   3.873   0.328   1.436
  682SOL    HW2 2182   3.818   0.301   1.298
  683SOL     OW 2183   1.840   2.705   0.861
  683SOL    HW1 2184   1.862   2.726   0.952
  683SOL    HW2 2185   1.809   2.615   0.864
  684SOL     OW 2186   3.343   0.099   0.867
  684SOL    HW1 2187   3.284   0.035   0.909
  684SOL    HW2 2188   3.394   0.047   0.804
  685SOL     OW 2189   3.826   2.033   0.160
  685SOL    HW1 2190   3.875   1.987   0.229
  685SOL    HW2 2191   3.889   2.096   0.124
  686SOL     OW 2192   2.451   1.952   0.692
  686SOL    HW1 2193   2.516   2.021   0.677
  686SOL    HW2 2194   2.412   1.938   0.605
  687SOL     OW 2195   3.428   0.419   0.291
  687SOL    HW1 2196   3.511   0.467   0.294
  687SOL    HW2 2197   3.374   0.469   0.230
  688SOL     OW 2198   2.935   2.987   0.170
  688SOL    HW1 2199   2.866   2.991   0.236
  688SOL    HW2 2200   2.896   3.028   0.092
  689SOL     OW 2201   2.344   2.576   3.794
  689SOL    HW1 2202   2.419   2.633   3.781
  689SOL    HW2 2203   2.313   2.556   3.706
  690SOL     OW 2204   3.405   2.217   2.727
  690SOL    HW1 2205   3.397   2.224   2.632
  690SOL    HW2 2206   3.315   2.219   2.759
  691SOL     OW 2207   0.700   2.962   0.622
  691SOL    HW1 2208   0.606   2.966   0.640
  691SOL    HW2 2209   0.733   3.049   0.648
  692SOL     OW 2210   2.212   2.302   2.753
  692SOL    HW1 2211   2.238   2.336   2.839
  692SOL    HW2 2212   2.244   2.369   2.691
  693SOL     OW 2213   3.166   0.118   1.884
  693SOL    HW1 2214   3.180   0.051   1.817
  693SOL    HW2 2215   3.251   0.127   1.927
  694SOL     OW 2216   2.930   1.563   3.782
  694SOL    HW1 2217   2.984   1.632   3.743
  694SOL    HW2 2218   2.914   1.502   3.710
  695SOL     OW 2219   0.940   3.178   3.832
  695SOL    HW1 2220   0.952   3.110   3.766
  695SOL    HW2 2221   1.023   3.224   3.834
  696SOL     OW 2222   2.989   0.178   1.216
  696SOL    HW1 2223   3.083   0.159   1.206
  696SOL    HW2 2224   2.979   0.193   1.310
  697SOL     OW 2225   1.403   3.460   0.191
  697SOL    HW1 2226   1.377   3.517   0.263
  697SOL    HW2 2227   1.330   3.399   0.180
  698SOL     OW 2228   2.986   2.354   0.894
  698SOL    HW1 2229   3.026   2.416   0.955
  698SOL    HW2 2230   3.043   2.277   0.896
  699SOL     OW 2231   1.203   0.207   2.397
  699SOL    HW1 2232   1.212   0.131   2.455
  699SOL    HW2 2233   1.141   0.179   2.330
  700SOL     OW 2234   2.874   1.048   2.010
  700SOL    HW1 2235   2.903   0.997   1.935
  700SOL    HW2 2236   2.891   1.139   1.985
  701SOL     OW 2237   3.815   3.163   3.901
  701SOL    HW1 2238   3.905   3.130   3.903
  701SOL    HW2 2239   3.787   3.147   3.811
  702SOL     OW 2240   3.747   0.999   1.520
  702SOL    HW1 2241   3.676   1.056   1.489
  702SOL    HW2 2242   3.768   0.944   1.444
  703SOL     OW 2243   2.701   2.916   0.373
  703SOL    HW1 2244   2.632   2.894   0.436
  703SOL    HW2 2245   2.771   2.854   0.392
  704SOL     OW 2246   0.343   0.753   0.120
  704SOL    HW1 2247   0.354   0.659   0.139
  704SOL    HW2 2248   0.380   0.763   0.032
  705SOL     OW 2249   0.701   3.689   1.310
  705SOL    HW1 2250   0.643   3.732   1.248
  705SOL    HW2 2251   0.642   3.652   1.376
  706SOL     OW 2252   3.321   3.807   0.319
  706SOL    HW1 2253   3.304   3.753   0.396
  706SOL    HW2 2254   3.239   3.804   0.269
  707SOL     OW 2255   0.907   2.404   2.236
  707SOL    HW1 2256   0.845   2.358   2.293
  707SOL    HW2 2257   0.956   2.461   2.294
  708SOL     OW 2258   2.367   2.353   0.738
  708SOL    HW1 2259   2.369   2.448   0.752
  708SOL    HW2 2260   2.422   2.318   0.809
  709SOL     OW 2261   3.539   3.190   1.537
  709SOL    HW1 2262   3.526   3.103   1.500
  709SOL    HW2 2263   3.550   3.175   1.631
  710SOL     OW 2264   3.316   1.752   3.462
  710SOL    HW1 2265   3.263   1.737   3.540
  710SOL    HW2 2266   3.277   1.829   3.421
  711SOL     OW 2267   0.347   1.379   1.060
  711SOL    HW1 2268   0.420   1.434   1.088
  711SOL    HW2 2269   0.377   1.289   1.073
  712SOL     OW 2270   3.626   3.441   1.869
  712SOL    HW1 2271   3.630   3.452   1.964
  712SOL    HW2 2272   3.666   3.521   1.834
  713SOL     OW 2273   2.180   2.933   1.016
  713SOL    HW1 2274   2.222   2.848   1.027
  713SOL    HW2 2275   2.222   2.989   1.081
  714SOL     OW 2276   1.786   3.098   0.618
  714SOL    HW1 2277   1.869   3.054   0.602
  714SOL    HW2 2278   1.752   3.057   0.698
  715SOL     OW 2279   3.843   2.752   0.745
  715SOL    HW1 2280   3.771   2.750   0.682
  715SOL    HW2 2281   3.844   2.842   0.778
  716SOL     OW 2282   3.601   1.750   0.312
  716SOL    HW1 2283   3.677   1.728   0.365
  716SOL    HW2 2284   3.570   1.834   0.347
  717SOL     OW 2285   3.547   2.844   1.705
  717SOL    HW1 2286   3.601   2.765   1.699
  717SOL    HW2 2287   3.608   2.913   1.732
  718SOL     OW 2288   2.568   1.557   0.572
  718SOL    HW1 2289   2.569   1.616   0.647
  718SOL    HW2 2290   2.596   1.472   0.608
  719SOL     OW 2291   2.150   0.360   2.260
  719SOL    HW1 2292   2.199   0.313   2.193
  719SOL    HW2 2293   2.079   0.403   2.212
  720SOL     OW 2294   2.816   2.790   3.198
  720SOL    HW1 2295   2.814   2.697   3.220
  720SOL    HW2 2296   2.798   2.794   3.104
  721SOL     OW 2297   2.975   0.006   3.865
  721SOL    HW1 2298   3.007   0.071   3.928
  721SOL    HW2 2299   2.911  -0.045   3.914
  722SOL     OW 2300   0.083   1.397   2.933
  722SOL    HW1 2301  -0.003   1.355   2.929
  722SOL    HW2 2302   0.073   1.477   2.882
  723SOL     OW 2303   2.485   2.575   2.373
  723SOL    HW1 2304   2.544   2.584   2.298
  723SOL    HW2 2305   2.529   2.621   2.444
  724SOL     OW 2306   0.723   3.563   1.698
  724SOL    HW1 2307   0.756   3.643   1.739
  724SOL    HW2 2308   0.792   3.498   1.713
  725SOL     OW 2309   0.717   1.624   2.724
  725SOL    HW1 2310   0.737   1.682   2.797
  725SOL    HW2 2311   0.803   1.600   2.689
  726SOL     OW 2312   3.532   1.923   3.546
  726SOL    HW1 2313   3.592   1.966   3.485
  726SOL    HW2 2314   3.508   1.841   3.502
  727SOL     OW 2315   3.366   2.055   3.068
  727SOL    HW1 2316   3.384   2.122   3.001
  727SOL    HW2 2317   3.421   2.080   3.142
  728SOL     OW 2318   0.062   2.623   3.141
  728SOL    HW1 2319   0.062   2.539   3.187
  728SOL    HW2 2320  -0.028   2.633   3.110
  729SOL     OW 2321   1.850   0.127   1.853
  729SOL    HW1 2322   1.779   0.063   1.849
  729SOL    HW2 2323   1.808   0.211   1.834
  730SOL     OW 2324   3.706   1.121   2.931
  730SOL    HW1 2325   3.677   1.209   2.953
  730SOL    HW2 2326   3.749   1.130   2.846
  731SOL     OW 2327   1.724   3.378   0.564
  731SOL    HW1 2328   1.797   3.316   0.556
  731SOL    HW2 2329   1.754   3.442   0.628
  732SOL     OW 2330   2.371   1.184   2.704
  732SOL    HW1 2331   2.409   1.262   2.744
  732SOL    HW2 2332   2.282   1.211   2.679
  733SOL     OW 2333   0.554   2.288   0.979
  733SOL    HW1 2334   0.588   2.277   1.068
  733SOL    HW2 2335   0.578   2.378   0.955
  734SOL     OW 2336   1.432   0.354   1.632
  734SOL    HW1 2337   1.485   0.432   1.615
  734SOL    HW2 2338   1.406   0.323   1.545
  735SOL     OW 2339   3.870   1.705   3.577
  735SOL    HW1 2340   3.945   1.663   3.536
  735SOL    HW2 2341   3.824   1.749   3.505
  736SOL     OW 2342   3.864   2.408   2.743
  736SOL    HW1 2343   3.818   2.440   2.665
  736SOL    HW2 2344   3.800   2.352   2.786
  737SOL     OW 2345   2.717   2.731   2.929
  737SOL    HW1 2346   2.634   2.725   2.976
  737SOL    HW2 2347   2.722   2.649   2.879
  738SOL     OW 2348   0.144   0.542   3.907
  738SOL    HW1 2349   0.133   0.456   3.947
  738SOL    HW2 2350   0.069   0.550   3.847
  739SOL     OW 2351   3.198   2.003   1.821
  739SOL    HW1 2352   3.166   1.918   1.794
  739SOL    HW2 2353   3.149   2.024   1.900
  740SOL     OW 2354   1.696   1.843   3.914
  740SOL    HW1 2355   1.610   1.882   3.931
  740SOL    HW2 2356   1.694   1.818   3.822
  741SOL     OW 2357   3.809   2.610   1.130
  741SOL    HW1 2358   3.904   2.600   1.116
  741SOL    HW2 2359   3.801   2.626   1.224
  742SOL     OW 2360   3.128   1.603   3.009
  742SOL    HW1 2361   3.044   1.559   3.002
  742SOL    HW2 2362   3.178   1.550   3.071
  743SOL     OW 2363   0.989   2.029   0.059
  743SOL    HW1 2364   0.974   2.092   0.130
  743SOL    HW2 2365   0.916   1.967   0.067
  744SOL     OW 2366   2.821   3.282   2.687
  744SOL    HW1 2367   2.727   3.278   2.670
  744SOL    HW2 2368   2.861   3.231   2.615
  745SOL     OW 2369   1.606   1.559   0.625
  745SOL    HW1 2370   1.564   1.641   0.652
  745SOL    HW2 2371   1.533   1.501   0.602
  746SOL     OW 2372   3.246   2.480   0.688
  746SOL    HW1 2373   3.275   2.566   0.716
  746SOL    HW2 2374   3.323   2.424   0.700
  747SOL     OW 2375   3.681   2.519   2.519
  747SOL    HW1 2376   3.645   2.607   2.528
  747SOL    HW2 2377   3.616   2.473   2.466
  748SOL     OW 2378   2.504   1.796   2.421
  748SOL    HW1 2379   2.527   1.714   2.377
  748SOL    HW2 2380   2.412   1.810   2.398
  749SOL     OW 2381   0.668   2.355   2.641
  749SOL    HW1 2382   0.614   2.435   2.643
  749SOL    HW2 2383   0.604   2.284   2.644
  750SOL     OW 2384   1.372   2.409   3.033
  750SOL    HW1 2385   1.422   2.483   3.069
  750SOL    HW2 2386   1.334   2.442   2.952
  751SOL     OW 2387   0.357   2.374   3.264
  751SOL    HW1 2388   0.359   2.468   3.281
  751SOL    HW2 2389   0.290   2.340   3.324
  752SOL     OW 2390   2.100   0.124   1.938
  752SOL    HW1 2391   2.014   0.119   1.897
  752SOL    HW2 2392   2.148   0.050   1.901
  753SOL     OW 2393   1.906   1.090   0.448
  753SOL    HW1 2394   1.902   1.031   0.523
  753SOL    HW2 2395   1.929   1.175   0.485
  754SOL     OW 2396   3.024   2.295   0.319
  754SOL    HW1 2397   2.932   2.287   0.293
  754SOL    HW2 2398   3.073   2.258   0.246
  755SOL     OW 2399   0.257   2.613   1.959
  755SOL    HW1 2400   0.217   2.533   1.925
  755SOL    HW2 2401   0.346   2.588   1.981
  756SOL     OW 2402   3.382   0.460   2.597
  756SOL    HW1 2403   3.384   0.374   2.555
  756SOL    HW2 2404   3.437   0.516   2.542
  757SOL     OW 2405   2.711   2.505   0.530
  757SOL    HW1 2406   2.782   2.462   0.481
  757SOL    HW2 2407   2.643   2.521   0.465
  758SOL     OW 2408   1.565   0.183   0.894
  758SOL    HW1 2409   1.602   0.264   0.860
  758SOL    HW2 2410   1.504   0.210   0.962
  759SOL     OW 2411   1.762   0.552   1.336
  759SOL    HW1 2412   1.750   0.632   1.285
  759SOL    HW2 2413   1.792   0.487   1.272
  760SOL     OW 2414   0.980   3.646   0.132
  760SOL    HW1 2415   1.030   3.722   0.103
  760SOL    HW2 2416   0.957   3.666   0.223
  761SOL     OW 2417   1.280   1.253   0.335
  761SOL    HW1 2418   1.261   1.274   0.243
  761SOL    HW2 2419   1.346   1.184   0.330
  762SOL     OW 2420   0.182   0.485   3.481
  762SOL    HW1 2421   0.182   0.562   3.425
  762SOL    HW2 2422   0.245   0.426   3.441
  763SOL     OW 2423   0.534   2.930   2.174
  763SOL    HW1 2424   0.566   3.012   2.136
  763SOL    HW2 2425   0.614   2.882   2.197
  764SOL     OW 2426   2.949   2.756   0.980
  764SOL    HW1 2427   2.942   2.740   0.886
  764SOL    HW2 2428   3.013   2.827   0.987
  765SOL     OW 2429   1.086   3.031   2.863
  765SOL    HW1 2430   1.032   3.021   2.785
  765SOL    HW2 2431   1.175   3.046   2.829
  766SOL     OW 2432   2.513   3.756   0.170
  766SOL    HW1 2433   2.550   3.787   0.253
  766SOL    HW2 2434   2.586   3.714   0.126
  767SOL     OW 2435   0.270   3.367   3.225
  767SOL    HW1 2436   0.308   3.452   3.247
  767SOL    HW2 2437   0.213   3.384   3.150
  768SOL     OW 2438   3.205   3.158   0.465
  768SOL    HW1 2439   3.165   3.085   0.512
  768SOL    HW2 2440   3.288   3.173   0.510
  769SOL     OW 2441   1.404   3.697   3.299
  769SOL    HW1 2442   1.424   3.776   3.349
  769SOL    HW2 2443   1.428   3.625   3.357
  770SOL     OW 2444   2.360   0.355   0.219
  770SOL    HW1 2445   2.438   0.366   0.273
  770SOL    HW2 2446   2.382   0.395   0.135
  771SOL     OW 2447   1.971   1.989   2.658
  771SOL    HW1 2448   1.929   2.074   2.669
  771SOL    HW2 2449   2.063   2.005   2.676
  772SOL     OW 2450   3.851   1.528   3.356
  772SOL    HW1 2451   3.870   1.465   3.425
  772SOL    HW2 2452   3.908   1.502   3.284
  773SOL     OW 2453   0.129   1.555   0.167
  773SOL    HW1 2454   0.149   1.645   0.141
  773SOL    HW2 2455   0.209   1.524   0.210
  774SOL     OW 2456   3.453   2.205   2.428
  774SOL    HW1 2457   3.540   2.171   2.448
  774SOL    HW2 2458   3.469   2.284   2.377
  775SOL     OW 2459   0.133   2.494   2.912
  775SOL    HW1 2460   0.133   2.560   2.981
  775SOL    HW2 2461   0.050   2.507   2.866
  776SOL     OW 2462   1.649   2.328   3.721
  776SOL    HW1 2463   1.572   2.374   3.688
  776SOL    HW2 2464   1.680   2.382   3.793
  777SOL     OW 2465   0.556   1.263   3.172
  777SOL    HW1 2466   0.483   1.211   3.139
  777SOL    HW2 2467   0.524   1.300   3.254
  778SOL     OW 2468   0.920   1.756   1.021
  778SOL    HW1 2469   0.861   1.829   1.036
  778SOL    HW2 2470   0.883   1.710   0.946
  779SOL     OW 2471   2.692   1.270   2.185
  779SOL    HW1 2472   2.667   1.304   2.100
  779SOL    HW2 2473   2.666   1.178   2.183
  780SOL     OW 2474   0.833   3.198   0.748
  780SOL    HW1 2475   0.857   3.290   0.761
  780SOL    HW2 2476   0.916   3.151   0.747
  781SOL     OW 2477   3.201   1.214   3.883
  781SOL    HW1 2478   3.279   1.159   3.880
  781SOL    HW2 2479   3.226   1.294   3.836
  782SOL     OW 2480   1.615   0.474   3.895
  782SOL    HW1 2481   1.698   0.523   3.899
  782SOL    HW2 2482   1.608   0.445   3.805
  783SOL     OW 2483   1.088   3.887   0.036
  783SOL    HW1 2484   1.162   3.947   0.028
  783SOL    HW2 2485   1.080   3.846  -0.050
  784SOL     OW 2486   1.920   1.895   1.256
  784SOL    HW1 2487   1.902   1.816   1.205
  784SOL    HW2 2488   1.836   1.941   1.257
  785SOL     OW 2489   3.008   2.091   1.164
  785SOL    HW1 2490   2.934   2.092   1.225
  785SOL    HW2 2491   3.052   2.175   1.179
  786SOL     OW 2492   2.543   3.320   1.536
  786SOL    HW1 2493   2.596   3.308   1.458
  786SOL    HW2 2494   2.597   3.287   1.608
  787SOL     OW 2495   2.627   0.616   2.137
  787SOL    HW1 2496   2.651   0.641   2.048
  787SOL    HW2 2497   2.695   0.554   2.164
  788SOL     OW 2498   3.613   2.427   0.920
  788SOL    HW1 2499   3.564   2.506   0.946
  788SOL    HW2 2500   3.552   2.355   0.937
  789SOL     OW 2501   2.818   1.714   1.785
  789SOL    HW1 2502   2.909   1.696   1.811
  789SOL    HW2 2503   2.823   1.796   1.737
  790SOL     OW 2504   0.537   1.178   2.174
  790SOL    HW1 2505   0.601   1.108   2.163
  790SOL    HW2 2506   0.582   1.242   2.230
  791SOL     OW 2507   2.609   2.435   1.871
  791SOL    HW1 2508   2.569   2.351   1.890
  791SOL    HW2 2509   2.617   2.478   1.956
  792SOL     OW 2510   1.385   0.264   1.389
  792SOL    HW1 2511   1.415   0.354   1.375
  792SOL    HW2 2512   1.296   0.263   1.355
  793SOL     OW 2513   3.341   1.620   1.839
  793SOL    HW1 2514   3.317   1.534   1.874
  793SOL    HW2 2515   3.412   1.602   1.778
  794SOL     OW 2516   1.595   1.557   3.065
  794SOL    HW1 2517   1.508   1.596   3.070
  794SOL    HW2 2518   1.648   1.623   3.020
  795SOL     OW 2519   2.282   2.132   2.054
  795SOL    HW1 2520   2.202   2.182   2.039
  795SOL    HW2 2521   2.290   2.074   1.979
  796SOL     OW 2522   2.696   2.970   2.457
  796SOL    HW1 2523   2.709   2.887   2.501
  796SOL    HW2 2524   2.655   2.947   2.374
  797SOL     OW 2525   2.549   2.834   1.321
  797SOL    HW1 2526   2.497   2.757   1.346
  797SOL    HW2 2527   2.628   2.797   1.280
  798SOL     OW 2528   3.337   2.907   2.798
  798SOL    HW1 2529   3.389   2.886   2.876
  798SOL    HW2 2530   3.291   2.988   2.821
  799SOL     OW 2531   0.049   3.912   2.590
  799SOL    HW1 2532  -0.046   3.924   2.581
  799SOL    HW2 2533   0.085   3.947   2.509
  800SOL     OW 2534   0.465   1.370   0.453
  800SOL    HW1 2535   0.555   1.342   0.468
  800SOL    HW2 2536   0.425   1.297   0.405
  801SOL     OW 2537   0.302   3.362   1.204
  801SOL    HW1 2538   0.256   3.286   1.239
  801SOL    HW2 2539   0.392   3.352   1.235
  802SOL     OW 2540   0.631   0.142   3.754
  802SOL    HW1 2541   0.667   0.063   3.714
  802SOL    HW2 2542   0.557   0.166   3.698
  803SOL     OW 2543   2.169   3.065   2.301
  803SOL    HW1 2544   2.134   3.052   2.389
  803SOL    HW2 2545   2.258   3.098   2.315
  804SOL     OW 2546   1.524   0.543   2.827
  804SOL    HW1 2547   1.586   0.546   2.753
  804SOL    HW2 2548   1.461   0.612   2.808
  805SOL     OW 2549   0.271   0.102   0.992
  805SOL    HW1 2550   0.350   0.153   0.975
  805SOL    HW2 2551   0.300   0.011   0.985
  806SOL     OW 2552   0.436   2.597   0.007
  806SOL    HW1 2553   0.476   2.683   0.019
  806SOL    HW2 2554   0.370   2.591   0.076
  807SOL     OW 2555   0.350   3.849   1.855
  807SOL    HW1 2556   0.425   3.899   1.886
  807SOL    HW2 2557   0.297   3.913   1.807
  808SOL     OW 2558   0.532   2.206   2.919
  808SOL    HW1 2559   0.616   2.160   2.927
  808SOL    HW2 2560   0.503   2.188   2.830
  809SOL     OW 2561   2.625   1.427   3.930
  809SOL    HW1 2562   2.707   1.443   3.883
  809SOL    HW2 2563   2.649   1.373   4.005
  810SOL     OW 2564   2.907   3.793   3.518
  810SOL    HW1 2565   2.937   3.831   3.436
  810SOL    HW2 2566   2.965   3.830   3.584
  811SOL     OW 2567   1.483   2.479   3.328
  811SOL    HW1 2568   1.526   2.427   3.259
  811SOL    HW2 2569   1.450   2.414   3.389
  812SOL     OW 2570   0.291   1.293   2.349
  812SOL    HW1 2571   0.381   1.264   2.336
  812SOL    HW2 2572   0.281   1.295   2.444
  813SOL     OW 2573   1.307   0.088   0.011
  813SOL    HW1 2574   1.396   0.053   0.004
  813SOL    HW2 2575   1.319   0.181   0.030
  814SOL     OW 2576   1.416   1.403   0.487
  814SOL    HW1 2577   1.358   1.337   0.449
  814SOL    HW2 2578   1.363   1.483   0.488
  815SOL     OW 2579   0.670   0.622   3.315
  815SOL    HW1 2580   0.729   0.566   3.264
  815SOL    HW2 2581   0.701   0.613   3.406
  816SOL     OW 2582   1.665   3.920   1.715
  816SOL    HW1 2583   1.647   3.841   1.766
  816SOL    HW2 2584   1.601   3.984   1.748
  817SOL     OW 2585   1.746   1.000   2.470
  817SOL    HW1 2586   1.760   1.082   2.516
  817SOL    HW2 2587   1.775   0.932   2.531
  818SOL     OW 2588   2.914   2.497   0.017
  818SOL    HW1 2589   2.833   2.544  -0.005
  818SOL    HW2 2590   2.884   2.414   0.053
  819SOL     OW 2591   1.542   3.936   2.237
  819SOL    HW1 2592   1.494   3.956   2.156
  819SOL    HW2 2593   1.581   3.850   2.221
  820SOL     OW 2594   0.806   2.769   3.525
  820SOL    HW1 2595   0.898   2.784   3.501
  820SOL    HW2 2596   0.756   2.824   3.466
  821SOL     OW 2597   2.015   1.083   3.912
  821SOL    HW1 2598   2.099   1.115   3.943
  821SOL    HW2 2599   1.970   1.055   3.992
  822SOL     OW 2600   0.323   0.379   1.312
  822SOL    HW1 2601   0.261   0.429   1.365
  822SOL    HW2 2602   0.407   0.388   1.358
  823SOL     OW 2603   0.488   3.419   0.777
  823SOL    HW1 2604   0.462   3.333   0.746
  823SOL    HW2 2605   0.433   3.480   0.728
  824SOL     OW 2606   2.144   0.882   1.674
  824SOL    HW1 2607   2.214   0.824   1.642
  824SOL    HW2 2608   2.112   0.926   1.595
  825SOL     OW 2609   0.897   1.507   2.126
  825SOL    HW1 2610   0.922   1.593   2.162
  825SOL    HW2 2611   0.818   1.483   2.175
  826SOL     OW 2612   1.898   3.022   1.273
  826SOL    HW1 2613   1.992   3.038   1.269
  826SOL    HW2 2614   1.859   3.092   1.221
  827SOL     OW 2615   1.116   2.729   0.778
  827SOL    HW1 2616   1.116   2.684   0.694
  827SOL    HW2 2617   1.106   2.659   0.843
  828SOL     OW 2618   1.840   2.823   0.542
  828SOL    HW1 2619   1.820   2.791   0.630
  828SOL    HW2 2620   1.758   2.815   0.494
  829SOL     OW 2621   1.331   0.663   2.661
  829SOL    HW1 2622   1.298   0.749   2.634
  829SOL    HW2 2623   1.325   0.609   2.582
  830SOL     OW 2624   0.958   2.362   1.945
  830SOL    HW1 2625   0.931   2.359   2.037
  830SOL    HW2 2626   1.052   2.380   1.948
  831SOL     OW 2627   2.115   1.273   2.385
  831SOL    HW1 2628   2.200   1.277   2.342
  831SOL    HW2 2629   2.084   1.184   2.369
  832SOL     OW 2630   1.673   1.063   1.332
  832SOL    HW1 2631   1.744   1.083   1.270
  832SOL    HW2 2632   1.601   1.120   1.305
  833SOL     OW 2633   0.285   0.072   0.092
  833SOL    HW1 2634   0.276   0.034   0.179
  833SOL    HW2 2635   0.379   0.089   0.084
  834SOL     OW 2636   1.016   3.315   1.101
  834SOL    HW1 2637   1.053   3.305   1.189
  834SOL    HW2 2638   0.957   3.390   1.109
  835SOL     OW 2639   0.841   3.547   2.661
  835SOL    HW1 2640   0.857   3.578   2.750
  835SOL    HW2 2641   0.900   3.600   2.606
  836SOL     OW 2642   1.591   2.050   1.945
  836SOL    HW1 2643   1.614   2.106   2.019
  836SOL    HW2 2644   1.504   2.018   1.965
  837SOL     OW 2645   1.609   2.871   2.707
  837SOL    HW1 2646   1.607   2.780   2.678
  837SOL    HW2 2647   1.518   2.901   2.696
  838SOL     OW 2648   0.676   0.679   0.780
  838SOL    HW1 2649   0.636   0.618   0.720
  838SOL    HW2 2650   0.770   0.665   0.770
  839SOL     OW 2651   0.784   0.893   1.206
  839SOL    HW1 2652   0.824   0.896   1.293
  839SOL    HW2 2653   0.723   0.967   1.204
  840SOL     OW 2654   0.933   3.476   0.722
  840SOL    HW1 2655   0.969   3.565   0.728
  840SOL    HW2 2656   1.010   3.420   0.721
  841SOL     OW 2657   1.265   0.922   2.545
  841SOL    HW1 2658   1.319   0.981   2.493
  841SOL    HW2 2659   1.190   0.975   2.571
  842SOL     OW 2660   3.527   3.815   2.889
  842SOL    HW1 2661   3.456   3.877   2.904
  842SOL    HW2 2662   3.583   3.823   2.967
  843SOL     OW 2663   2.907   0.443   1.292
  843SOL    HW1 2664   2.925   0.371   1.232
  843SOL    HW2 2665   2.989   0.494   1.293
  844SOL     OW 2666   0.135   0.320   0.115
  844SOL    HW1 2667   0.042   0.308   0.135
  844SOL    HW2 2668   0.167   0.231   0.099
  845SOL     OW 2669   1.767   0.742   0.653
  845SOL    HW1 2670   1.852   0.753   0.695
  845SOL    HW2 2671   1.781   0.670   0.591
  846SOL     OW 2672   3.196   2.154   0.859
  846SOL    HW1 2673   3.227   2.063   0.854
  846SOL    HW2 2674   3.265   2.205   0.815
  847SOL     OW 2675   1.180   1.791   1.126
  847SOL    HW1 2676   1.105   1.732   1.122
  847SOL    HW2 2677   1.144   1.873   1.160
  848SOL     OW 2678   1.955   2.118   0.786
  848SOL    HW1 2679   1.978   2.209   0.803
  848SOL    HW2 2680   1.904   2.091   0.862
  849SOL     OW 2681   1.344   2.772   2.985
  849SOL    HW1 2682   1.309   2.766   2.896
  849SOL    HW2 2683   1.402   2.848   2.983
  850SOL     OW 2684   3.907   1.934   3.207
  850SOL    HW1 2685   3.831   1.886   3.239
  850SOL    HW2 2686   3.870   2.002   3.150
  851SOL     OW 2687   3.224   0.944   1.421
  851SOL    HW1 2688   3.249   0.989   1.340
  851SOL    HW2 2689   3.206   1.014   1.483
  852SOL     OW 2690   3.749   1.037   1.093
  852SOL    HW1 2691   3.691   0.970   1.131
  852SOL    HW2 2692   3.832   0.991   1.079
  853SOL     OW 2693   2.291   2.681   1.023
  853SOL    HW1 2694   2.268   2.600   1.070
  853SOL    HW2 2695   2.359   2.654   0.962
  854SOL     OW 2696   0.042   1.738   1.529
  854SOL    HW1 2697   0.086   1.678   1.588
  854SOL    HW2 2698  -0.048   1.705   1.523
  855SOL     OW 2699   2.379   3.916   2.126
  855SOL    HW1 2700   2.419   3.992   2.084
  855SOL    HW2 2701   2.317   3.953   2.188
  856SOL     OW 2702   0.222   1.556   3.628
  856SOL    HW1 2703   0.207   1.606   3.708
  856SOL    HW2 2704   0.314   1.571   3.607
  857SOL     OW 2705   1.459   1.443   3.278
  857SOL    HW1 2706   1.424   1.531   3.292
  857SOL    HW2 2707   1.538   1.457   3.226
  858SOL     OW 2708   3.184   0.477   3.084
  858SOL    HW1 2709   3.105   0.482   3.030
  858SOL    HW2 2710   3.256   0.480   3.020
  859SOL     OW 2711   1.062   0.099   2.163
  859SOL    HW1 2712   1.051   0.174   2.105
  859SOL    HW2 2713   0.973   0.072   2.186
  860SOL     OW 2714   1.407   3.453   1.420
  860SOL    HW1 2715   1.454   3.370   1.436
  860SOL    HW2 2716   1.458   3.497   1.352
  861SOL     OW 2717   1.011   3.824   2.502
  861SOL    HW1 2718   0.935   3.879   2.482
  861SOL    HW2 2719   1.070   3.882   2.550
  862SOL     OW 2720   1.826   2.378   0.931
  862SOL    HW1 2721   1.810   2.405   1.021
  862SOL    HW2 2722   1.917   2.349   0.930
  863SOL     OW 2723   2.353   3.309   3.177
  863SOL    HW1 2724   2.332   3.301   3.270
  863SOL    HW2 2725   2.325   3.226   3.139
  864SOL     OW 2726   1.288   0.540   2.111
  864SOL    HW1 2727   1.339   0.499   2.041
  864SOL    HW2 2728   1.285   0.633   2.088
  865SOL     OW 2729   0.865   0.407   3.182
  865SOL    HW1 2730   0.956   0.416   3.209
  865SOL    HW2 2731   0.819   0.374   3.260
  866SOL     OW 2732   2.681   2.937   3.581
  866SOL    HW1 2733   2.756   2.880   3.601
  866SOL    HW2 2734   2.700   3.019   3.627
  867SOL     OW 2735   1.040   1.195   2.511
  867SOL    HW1 2736   1.110   1.250   2.546
  867SOL    HW2 2737   1.037   1.217   2.418
  868SOL     OW 2738   1.678   1.037   3.717
  868SOL    HW1 2739   1.750   1.046   3.778
  868SOL    HW2 2740   1.720   1.011   3.635
  869SOL     OW 2741   2.441   2.704   1.574
  869SOL    HW1 2742   2.441   2.614   1.542
  869SOL    HW2 2743   2.510   2.705   1.641
  870SOL     OW 2744   3.485   0.797   1.525
  870SOL    HW1 2745   3.480   0.749   1.442
  870SOL    HW2 2746   3.564   0.851   1.516
  871SOL     OW 2747   1.441   3.650   0.769
  871SOL    HW1 2748   1.518   3.702   0.749
  871SOL    HW2 2749   1.369   3.696   0.727
  872SOL     OW 2750   3.979   2.675   0.120
  872SOL    HW1 2751   3.900   2.712   0.082
  872SOL    HW2 2752   3.948   2.622   0.194
  873SOL     OW 2753   0.541   2.558   3.633
  873SOL    HW1 2754   0.551   2.646   3.669
  873SOL    HW2 2755   0.449   2.552   3.607
  874SOL     OW 2756   0.219   3.143   2.725
  874SOL    HW1 2757   0.255   3.228   2.699
  874SOL    HW2 2758   0.296   3.088   2.739
  875SOL     OW 2759   0.978   3.336   3.082
  875SOL    HW1 2760   0.926   3.310   3.006
  875SOL    HW2 2761   0.956   3.271   3.149
  876SOL     OW 2762   1.131   3.546   1.449
  876SOL    HW1 2763   1.188   3.478   1.485
  876SOL    HW2 2764   1.190   3.603   1.400
  877SOL     OW 2765   3.478   1.930   1.158
  877SOL    HW1 2766   3.517   1.922   1.245
  877SOL    HW2 2767   3.552   1.922   1.098
  878SOL     OW 2768   2.415   3.071   1.305
  878SOL    HW1 2769   2.460   2.986   1.308
  878SOL    HW2 2770   2.483   3.135   1.326
  879SOL     OW 2771   3.040   3.811   2.352
  879SOL    HW1 2772   3.010   3.882   2.409
  879SOL    HW2 2773   3.113   3.849   2.304
  880SOL     OW 2774   0.815   0.105   2.318
  880SOL    HW1 2775   0.845   0.196   2.324
  880SOL    HW2 2776   0.790   0.082   2.408
  881SOL     OW 2777   1.161   1.080   1.407
  881SOL    HW1 2778   1.116   1.163   1.415
  881SOL    HW2 2779   1.244   1.092   1.454
  882SOL     OW 2780   2.667   1.913   1.119
  882SOL    HW1 2781   2.674   1.829   1.075
  882SOL    HW2 2782   2.688   1.894   1.210
  883SOL     OW 2783   3.524   0.880   3.569
  883SOL    HW1 2784   3.606   0.923   3.546
  883SOL    HW2 2785   3.468   0.894   3.493
  884SOL     OW 2786   3.190   1.699   2.278
  884SOL    HW1 2787   3.260   1.682   2.214
  884SOL    HW2 2788   3.127   1.629   2.263
  885SOL     OW 2789   1.604   0.822  -0.005
  885SOL    HW1 2790   1.524   0.871  -0.023
  885SOL    HW2 2791   1.619   0.833   0.089
  886SOL     OW 2792   0.735   1.062   3.166
  886SOL    HW1 2793   0.674   0.990   3.176
  886SOL    HW2 2794   0.680   1.139   3.150
  887SOL     OW 2795   2.092   2.732   0.529
  887SOL    HW1 2796   2.000   2.754   0.520
  887SOL    HW2 2797   2.104   2.653   0.476
  888SOL     OW 2798   2.168   1.610   3.436
  888SOL    HW1 2799   2.218   1.675   3.486
  888SOL    HW2 2800   2.176   1.530   3.487
  889SOL     OW 2801   0.745   2.739   2.779
  889SOL    HW1 2802   0.697   2.718   2.859
  889SOL    HW2 2803   0.682   2.722   2.709
  890SOL     OW 2804   0.732   0.922   0.877
  890SOL    HW1 2805   0.653   0.955   0.921
  890SOL    HW2 2806   0.703   0.844   0.831
  891SOL     OW 2807   1.205   0.817   1.547
  891SOL    HW1 2808   1.247   0.813   1.632
  891SOL    HW2 2809   1.227   0.904   1.513
  892SOL     OW 2810   3.296   0.372   2.155
  892SOL    HW1 2811   3.386   0.403   2.168
  892SOL    HW2 2812   3.243   0.429   2.210
  893SOL     OW 2813   0.523   2.926   0.222
  893SOL    HW1 2814   0.441   2.899   0.180
  893SOL    HW2 2815   0.589   2.916   0.153
  894SOL     OW 2816   1.679   0.193   2.291
  894SOL    HW1 2817   1.771   0.168   2.294
  894SOL    HW2 2818   1.632   0.110   2.277
  895SOL     OW 2819   3.062   1.610   1.527
  895SOL    HW1 2820   2.982   1.659   1.544
  895SOL    HW2 2821   3.118   1.671   1.479
  896SOL     OW 2822   3.726   0.161   1.241
  896SOL    HW1 2823   3.774   0.114   1.172
  896SOL    HW2 2824   3.660   0.099   1.271
  897SOL     OW 2825   3.071   0.713   0.163
  897SOL    HW1 2826   2.999   0.752   0.114
  897SOL    HW2 2827   3.067   0.757   0.249
  898SOL     OW 2828   0.251   2.821   0.168
  898SOL    HW1 2829   0.214   2.892   0.221
  898SOL    HW2 2830   0.178   2.761   0.155
  899SOL     OW 2831   1.729   0.080   0.527
  899SOL    HW1 2832   1.823   0.096   0.521
  899SOL    HW2 2833   1.696   0.096   0.438
  900SOL     OW 2834   3.735   2.746   2.156
  900SOL    HW1 2835   3.768   2.657   2.167
  900SOL    HW2 2836   3.710   2.773   2.245
  901SOL     OW 2837   1.440   1.863   2.555
  901SOL    HW1 2838   1.459   1.927   2.623
  901SOL    HW2 2839   1.526   1.831   2.528
  902SOL     OW 2840   1.246   1.383   1.871
  902SOL    HW1 2841   1.338   1.380   1.846
  902SOL    HW2 2842   1.210   1.459   1.823
  903SOL     OW 2843   0.098   3.479   1.045
  903SOL    HW1 2844   0.128   3.427   0.971
  903SOL    HW2 2845   0.062   3.416   1.107
  904SOL     OW 2846   0.897   2.962   2.643
  904SOL    HW1 2847   0.853   2.896   2.698
  904SOL    HW2 2848   0.936   2.911   2.572
  905SOL     OW 2849   0.101   1.930   3.626
  905SOL    HW1 2850   0.177   1.907   3.680
  905SOL    HW2 2851   0.136   1.934   3.537
  906SOL     OW 2852   0.606  -0.009   0.888
  906SOL    HW1 2853   0.560  -0.064   0.952
  906SOL    HW2 2854   0.588   0.081   0.918
  907SOL     OW 2855   1.440   2.486   3.614
  907SOL    HW1 2856   1.452   2.573   3.576
  907SOL    HW2 2857   1.356   2.491   3.659
  908SOL     OW 2858   3.847   1.220   2.713
  908SOL    HW1 2859   3.930   1.211   2.761
  908SOL    HW2 2860   3.856   1.158   2.640
  909SOL     OW 2861   0.293   3.764   1.294
  909SOL    HW1 2862   0.261   3.679   1.324
  909SOL    HW2 2863   0.284   3.821   1.370
  910SOL     OW 2864   3.152   3.350   3.045
  910SOL    HW1 2865   3.152   3.371   2.951
  910SOL    HW2 2866   3.064   3.373   3.074
  911SOL     OW 2867   1.855   3.211   1.574
  911SOL    HW1 2868   1.934   3.249   1.535
  911SOL    HW2 2869   1.877   3.202   1.667
  912SOL     OW 2870   1.825   0.652   3.858
  912SOL    HW1 2871   1.843   0.648   3.764
  912SOL    HW2 2872   1.748   0.707   3.865
  913SOL     OW 2873   3.728   3.383   2.877
  913SOL    HW1 2874   3.674   3.440   2.931
  913SOL    HW2 2875   3.690   3.389   2.789
  914SOL     OW 2876   0.144   2.062   0.311
  914SOL    HW1 2877   0.215   2.001   0.290
  914SOL    HW2 2878   0.134   2.054   0.406
  915SOL     OW 2879   3.679   0.529   0.353
  915SOL    HW1 2880   3.664   0.614   0.395
  915SOL    HW2 2881   3.705   0.551   0.263
  916SOL     OW 2882   1.942   2.558   3.534
  916SOL    HW1 2883   1.933   2.648   3.565
  916SOL    HW2 2884   1.983   2.511   3.606
  917SOL     OW 2885   3.297   3.022  -0.016
  917SOL    HW1 2886   3.364   3.085  -0.042
  917SOL    HW2 2887   3.260   3.059   0.064
  918SOL     OW 2888   1.341   3.259   3.786
  918SOL    HW1 2889   1.341   3.183   3.727
  918SOL    HW2 2890   1.428   3.257   3.826
  919SOL     OW 2891   0.687   2.036   3.194
  919SOL    HW1 2892   0.712   1.966   3.134
  919SOL    HW2 2893   0.738   2.020   3.273
  920SOL     OW 2894   1.881   2.090   3.878
  920SOL    HW1 2895   1.842   2.022   3.933
  920SOL    HW2 2896   1.811   2.112   3.816
  921SOL     OW 2897   1.535   2.257   1.370
  921SOL    HW1 2898   1.448   2.217   1.370
  921SOL    HW2 2899   1.555   2.273   1.462
  922SOL     OW 2900   1.814   0.146   0.260
  922SOL    HW1 2901   1.812   0.082   0.189
  922SOL    HW2 2902   1.907   0.160   0.278
  923SOL     OW 2903   2.440   3.144   2.364
  923SOL    HW1 2904   2.455   3.178   2.453
  923SOL    HW2 2905   2.476   3.212   2.307
  924SOL     OW 2906   1.067   0.559   0.980
  924SOL    HW1 2907   0.993   0.515   1.021
  924SOL    HW2 2908   1.028   0.629   0.928
  925SOL     OW 2909   3.845   2.347   3.930
  925SOL    HW1 2910   3.795   2.341   4.012
  925SOL    HW2 2911   3.794   2.405   3.875
  926SOL     OW 2912   2.576   1.287   0.426
  926SOL    HW1 2913   2.544   1.300   0.515
  926SOL    HW2 2914   2.577   1.375   0.388
  927SOL     OW 2915   3.222   3.732   3.532
  927SOL    HW1 2916   3.225   3.749   3.626
  927SOL    HW2 2917   3.278   3.655   3.520
  928SOL     OW 2918   3.204   2.602   3.749
  928SOL    HW1 2919   3.291   2.599   3.789
  928SOL    HW2 2920   3.165   2.683   3.781
  929SOL     OW 2921   3.471   1.170   3.415
  929SOL    HW1 2922   3.486   1.246   3.471
  929SOL    HW2 2923   3.391   1.130   3.450
  930SOL     OW 2924   0.400   2.918   2.685
  930SOL    HW1 2925   0.319   2.885   2.647
  930SOL    HW2 2926   0.408   2.873   2.769
  931SOL     OW 2927   1.874   2.381   3.316
  931SOL    HW1 2928   1.861   2.460   3.263
  931SOL    HW2 2929   1.895   2.414   3.403
  932SOL     OW 2930   1.792   2.646   3.152
  932SOL    HW1 2931   1.728   2.716   3.168
  932SOL    HW2 2932   1.770   2.613   3.065
  933SOL     OW 2933   3.583   3.488   3.104
  933SOL    HW1 2934   3.540   3.545   3.168
  933SOL    HW2 2935   3.519   3.419   3.086
  934SOL     OW 2936   3.437   2.524   1.220
  934SOL    HW1 2937   3.487   2.463   1.274
  934SOL    HW2 2938   3.411   2.473   1.143
  935SOL     OW 2939   3.812   1.711   3.824
  935SOL    HW1 2940   3.828   1.713   3.729
  935SOL    HW2 2941   3.858   1.633   3.854
  936SOL     OW 2942   0.782   0.450   0.493
  936SOL    HW1 2943   0.806   0.522   0.435
  936SOL    HW2 2944   0.861   0.396   0.499
  937SOL     OW 2945   0.860   2.263   0.415
  937SOL    HW1 2946   0.767   2.248   0.398
  937SOL    HW2 2947   0.862   2.322   0.490
  938SOL     OW 2948   3.081   3.320   1.638
  938SOL    HW1 2949   3.142   3.324   1.711
  938SOL    HW2 2950   3.111   3.247   1.584
  939SOL     OW 2951   3.413   2.021   2.163
  939SOL    HW1 2952   3.419   1.926   2.153
  939SOL    HW2 2953   3.447   2.038   2.250
  940SOL     OW 2954   2.503   1.913   2.658
  940SOL    HW1 2955   2.408   1.901   2.664
  940SOL    HW2 2956   2.527   1.871   2.576
  941SOL     OW 2957   1.718   0.050   1.467
  941SOL    HW1 2958   1.700  -0.012   1.539
  941SOL    HW2 2959   1.740   0.132   1.511
  942SOL     OW 2960   2.968   0.029   3.302
  942SOL    HW1 2961   3.033  -0.004   3.240
  942SOL    HW2 2962   3.019   0.079   3.366
  943SOL     OW 2963   2.045   3.436   0.484
  943SOL    HW1 2964   2.120   3.431   0.424
  943SOL    HW2 2965   2.053   3.359   0.540
  944SOL     OW 2966   2.275   0.123   3.060
  944SOL    HW1 2967   2.191   0.084   3.083
  944SOL    HW2 2968   2.340   0.068   3.104
  945SOL     OW 2969   2.608   1.615   2.122
  945SOL    HW1 2970   2.615   1.527   2.084
  945SOL    HW2 2971   2.522   1.646   2.094
  946SOL     OW 2972   1.050   0.155   3.541
  946SOL    HW1 2973   1.058   0.121   3.452
  946SOL    HW2 2974   0.973   0.212   3.538
  947SOL     OW 2975   0.491   0.345   1.917
  947SOL    HW1 2976   0.499   0.253   1.892
  947SOL    HW2 2977   0.544   0.392   1.852
  948SOL     OW 2978   0.346   0.531   2.702
  948SOL    HW1 2979   0.400   0.474   2.757
  948SOL    HW2 2980   0.363   0.501   2.613
  949SOL     OW 2981   0.363   0.454   2.449
  949SOL    HW1 2982   0.409   0.374   2.473
  949SOL    HW2 2983   0.366   0.455   2.354
  950SOL     OW 2984   2.819   3.405   2.295
  950SOL    HW1 2985   2.770   3.345   2.238
  950SOL    HW2 2986   2.855   3.349   2.363
  951SOL     OW 2987   1.120   3.383   3.832
  951SOL    HW1 2988   1.204   3.344   3.807
  951SOL    HW2 2989   1.096   3.436   3.756
  952SOL     OW 2990   1.538   0.876   0.636
  952SOL    HW1 2991   1.624   0.835   0.646
  952SOL    HW2 2992   1.492   0.820   0.573
  953SOL     OW 2993   3.909   2.034   2.754
  953SOL    HW1 2994   3.899   2.029   2.849
  953SOL    HW2 2995   3.944   1.948   2.729
  954SOL     OW 2996   2.610   0.139   0.091
  954SOL    HW1 2997   2.529   0.183   0.117
  954SOL    HW2 2998   2.655   0.203   0.036
  955SOL     OW 2999   3.645   3.854   3.418
  955SOL    HW1 3000   3.562   3.824   3.380
  955SOL    HW2 3001   3.627   3.863   3.512
  956SOL     OW 3002   2.196   3.265   3.707
  956SOL    HW1 3003   2.189   3.195   3.772
  956SOL    HW2 3004   2.126   3.327   3.731
  957SOL     OW 3005   1.127   0.395   2.586
  957SOL    HW1 3006   1.124   0.475   2.534
  957SOL    HW2 3007   1.169   0.330   2.529
  958SOL     OW 3008   0.182   0.370   1.920
  958SOL    HW1 3009   0.256   0.408   1.871
  958SOL    HW2 3010   0.119   0.442   1.928
  959SOL     OW 3011   3.926   3.083   2.604
  959SOL    HW1 3012   3.925   3.141   2.528
  959SOL    HW2 3013   4.012   3.099   2.645
  960SOL     OW 3014   3.537   1.069   0.578
  960SOL    HW1 3015   3.470   1.104   0.637
  960SOL    HW2 3016   3.509   1.096   0.490
  961SOL     OW 3017   0.633   0.469   1.737
  961SOL    HW1 3018   0.641   0.555   1.777
  961SOL    HW2 3019   0.717   0.453   1.694
  962SOL     OW 3020   0.560   1.096   3.574
  962SOL    HW1 3021   0.580   1.079   3.482
  962SOL    HW2 3022   0.498   1.169   3.572
  963SOL     OW 3023   0.171   0.452   0.937
  963SOL    HW1 3024   0.260   0.425   0.957
  963SOL    HW2 3025   0.119   0.372   0.949
  964SOL     OW 3026   2.066   3.360   1.457
  964SOL    HW1 3027   2.111   3.433   1.501
  964SOL    HW2 3028   2.005   3.403   1.397
  965SOL     OW 3029   3.623   2.280   2.881
  965SOL    HW1 3030   3.600   2.365   2.918
  965SOL    HW2 3031   3.551   2.262   2.819
  966SOL     OW 3032   2.442   2.260   0.498
  966SOL    HW1 3033   2.447   2.336   0.441
  966SOL    HW2 3034   2.420   2.295   0.584
  967SOL     OW 3035   3.472   3.453   1.606
  967SOL    HW1 3036   3.505   3.364   1.598
  967SOL    HW2 3037   3.462   3.484   1.516
  968SOL     OW 3038   3.393   1.486   3.417
  968SOL    HW1 3039   3.374   1.575   3.388
  968SOL    HW2 3040   3.471   1.495   3.472
  969SOL     OW 3041   2.375   1.527   3.250
  969SOL    HW1 3042   2.300   1.574   3.286
  969SOL    HW2 3043   2.451   1.580   3.275
  970SOL     OW 3044   2.981   1.862   0.904
  970SOL    HW1 3045   2.986   1.937   0.963
  970SOL    HW2 3046   3.043   1.882   0.834
  971SOL     OW 3047   2.138   3.802   2.499
  971SOL    HW1 3048   2.129   3.897   2.494
  971SOL    HW2 3049   2.101   3.779   2.584
  972SOL     OW 3050   2.656   3.018   3.183
  972SOL    HW1 3051   2.740   2.979   3.162
  972SOL    HW2 3052   2.615   2.956   3.242
  973SOL     OW 3053   2.090   0.662   0.617
  973SOL    HW1 3054   2.114   0.592   0.677
  973SOL    HW2 3055   2.020   0.626   0.564
  974SOL     OW 3056   0.805   0.935   3.834
  974SOL    HW1 3057   0.862   0.984   3.893
  974SOL    HW2 3058   0.824   0.970   3.747
  975SOL     OW 3059   3.631   0.570   1.701
  975SOL    HW1 3060   3.577   0.648   1.714
  975SOL    HW2 3061   3.625   0.553   1.607
  976SOL     OW 3062   0.554   0.178   3.257
  976SOL    HW1 3063   0.493   0.198   3.186
  976SOL    HW2 3064   0.564   0.083   3.254
  977SOL     OW 3065   3.376   3.964   0.054
  977SOL    HW1 3066   3.350   3.902   0.122
  977SOL    HW2 3067   3.469   3.981   0.072
  978SOL     OW 3068   0.337   1.230   3.609
  978SOL    HW1 3069   0.309   1.222   3.700
  978SOL    HW2 3070   0.292   1.309   3.577
  979SOL     OW 3071   2.250   3.431   0.298
  979SOL    HW1 3072   2.286   3.350   0.337
  979SOL    HW2 3073   2.270   3.423   0.205
  980SOL     OW 3074   1.653   1.719   3.656
  980SOL    HW1 3075   1.723   1.663   3.687
  980SOL    HW2 3076   1.573   1.671   3.675
  981SOL     OW 3077   3.696   2.750   3.950
  981SOL    HW1 3078   3.629   2.691   3.916
  981SOL    HW2 3079   3.673   2.836   3.916
  982SOL     OW 3080   1.480   3.428   3.105
  982SOL    HW1 3081   1.418   3.388   3.166
  982SOL    HW2 3082   1.438   3.420   3.019
  983SOL     OW 3083   0.000   3.284   3.399
  983SOL    HW1 3084   0.086   3.267   3.360
  983SOL    HW2 3085  -0.006   3.222   3.472
  984SOL     OW 3086   2.865   0.765   0.572
  984SOL    HW1 3087   2.879   0.859   0.575
  984SOL    HW2 3088   2.953   0.727   0.580
  985SOL     OW 3089   0.626   3.248   2.907
  985SOL    HW1 3090   0.714   3.233   2.872
  985SOL    HW2 3091   0.626   3.341   2.933
  986SOL     OW 3092   3.299   1.279   1.406
  986SOL    HW1 3093   3.314   1.373   1.394
  986SOL    HW2 3094   3.247   1.253   1.331
  987SOL     OW 3095   2.352   0.882   0.911
  987SOL    HW1 3096   2.265   0.845   0.896
  987SOL    HW2 3097   2.384   0.906   0.824
  988SOL     OW 3098   1.815   3.176   0.163
  988SOL    HW1 3099   1.739   3.133   0.201
  988SOL    HW2 3100   1.823   3.259   0.212
  989SOL     OW 3101   2.471   3.555   1.628
  989SOL    HW1 3102   2.472   3.470   1.585
  989SOL    HW2 3103   2.539   3.550   1.695
  990SOL     OW 3104   1.742   3.086   3.205
  990SOL    HW1 3105   1.808   3.019   3.220
  990SOL    HW2 3106   1.688   3.085   3.284
  991SOL     OW 3107   3.703   0.373   0.620
  991SOL    HW1 3108   3.788   0.329   0.620
  991SOL    HW2 3109   3.715   0.447   0.560
  992SOL     OW 3110   1.722   0.871   2.194
  992SOL    HW1 3111   1.690   0.930   2.126
  992SOL    HW2 3112   1.717   0.923   2.275
  993SOL     OW 3113   1.966   2.593   1.332
  993SOL    HW1 3114   1.941   2.640   1.411
  993SOL    HW2 3115   1.936   2.649   1.260
  994SOL     OW 3116   3.829   3.704   0.070
  994SOL    HW1 3117   3.818   3.793   0.101
  994SOL    HW2 3118   3.921   3.683   0.086
  995SOL     OW 3119   1.365   0.030   2.046
  995SOL    HW1 3120   1.393   0.091   1.978
  995SOL    HW2 3121   1.289   0.072   2.085
  996SOL     OW 3122   0.441   3.596   1.930
  996SOL    HW1 3123   0.495   3.593   1.852
  996SOL    HW2 3124   0.401   3.683   1.928
  997SOL     OW 3125   2.624   1.060   3.327
  997SOL    HW1 3126   2.553   1.032   3.269
  997SOL    HW2 3127   2.579   1.091   3.406
  998SOL     OW 3128   1.081   3.091   1.673
  998SOL    HW1 3129   1.139   3.019   1.698
  998SOL    HW2 3130   1.091   3.097   1.578
  999SOL     OW 3131   2.779   3.158   1.811
  999SOL    HW1 3132   2.686   3.136   1.802
  999SOL    HW2 3133   2.786   3.246   1.776
 1000SOL     OW 3134   1.147   0.734   3.522
 1000SOL    HW1 3135   1.089   0.787   3.468
 1000SOL    HW2 3136   1.230   0.733   3.475
 1001SOL     OW 3137   1.169   2.426   3.713
 1001SOL    HW1 3138   1.140   2.363   3.779
 1001SOL    HW2 3139   1.115   2.504   3.730
 1002SOL     OW 3140   2.277   1.326   0.790
 1002SOL    HW1 3141   2.266   1.290   0.877
 1002SOL    HW2 3142   2.188   1.343   0.759
 1003SOL     OW 3143   0.517   2.180   0.469
 1003SOL    HW1 3144   0.482   2.219   0.549
 1003SOL    HW2 3145   0.476   2.229   0.398
 1004SOL     OW 3146   2.738   2.345   3.755
 1004SOL    HW1 3147   2.759   2.435   3.730
 1004SOL    HW2 3148   2.656   2.352   3.802
 1005SOL     OW 3149   3.491   1.243   1.123
 1005SOL    HW1 3150   3.569   1.256   1.070
 1005SOL    HW2 3151   3.524   1.223   1.211
 1006SOL     OW 3152   3.947   3.822   3.290
 1006SOL    HW1 3153   3.864   3.859   3.321
 1006SOL    HW2 3154   3.974   3.879   3.219
 1007SOL     OW 3155   2.070   1.784   1.526
 1007SOL    HW1 3156   2.014   1.828   1.591
 1007SOL    HW2 3157   2.043   1.822   1.442
 1008SOL     OW 3158   0.264   3.151   3.362
 1008SOL    HW1 3159   0.291   3.210   3.292
 1008SOL    HW2 3160   0.250   3.207   3.438
 1009SOL     OW 3161   3.057   3.093   3.681
 1009SOL    HW1 3162   3.119   3.150   3.636
 1009SOL    HW2 3163   2.987   3.152   3.710
 1010SOL     OW 3164   3.386   3.375   2.735
 1010SOL    HW1 3165   3.445   3.448   2.718
 1010SOL    HW2 3166   3.301   3.416   2.754
 1011SOL     OW 3167   3.596   3.695   0.450
 1011SOL    HW1 3168   3.563   3.643   0.524
 1011SOL    HW2 3169   3.517   3.723   0.404
 1012SOL     OW 3170   1.981   0.398   2.016
 1012SOL    HW1 3171   2.004   0.310   1.987
 1012SOL    HW2 3172   1.898   0.417   1.971
 1013SOL     OW 3173   3.344   3.090   1.903
 1013SOL    HW1 3174   3.352   3.181   1.872
 1013SOL    HW2 3175   3.287   3.048   1.839
 1014SOL     OW 3176   0.852   2.422   0.653
 1014SOL    HW1 3177   0.915   2.479   0.696
 1014SOL    HW2 3178   0.767   2.466   0.665
 1015SOL     OW 3179   2.481   1.479   2.414
 1015SOL    HW1 3180   2.567   1.489   2.375
 1015SOL    HW2 3181   2.498   1.456   2.506
 1016SOL     OW 3182   3.385   2.224   0.037
 1016SOL    HW1 3183   3.439   2.201   0.112
 1016SOL    HW2 3184   3.446   2.265  -0.025
 1017SOL     OW 3185   2.156   3.830   1.420
 1017SOL    HW1 3186   2.226   3.894   1.427
 1017SOL    HW2 3187   2.137   3.825   1.326
 1018SOL     OW 3188   2.858   2.769   1.235
 1018SOL    HW1 3189   2.859   2.863   1.253
 1018SOL    HW2 3190   2.897   2.760   1.148
 1019SOL     OW 3191   2.210   2.462   1.153
 1019SOL    HW1 3192   2.133   2.466   1.210
 1019SOL    HW2 3193   2.274   2.410   1.202
 1020SOL     OW 3194   2.919   2.051   0.419
 1020SOL    HW1 3195   2.920   2.137   0.460
 1020SOL    HW2 3196   2.977   1.998   0.475
 1021SOL     OW 3197   2.423   2.231   1.025
 1021SOL    HW1 3198   2.515   2.245   1.049
 1021SOL    HW2 3199   2.377   2.227   1.109
 1022SOL     OW 3200   2.059   2.243   2.433
 1022SOL    HW1 3201   2.118   2.292   2.376
 1022SOL    HW2 3202   2.087   2.152   2.423
 1023SOL     OW 3203   1.411   0.984   3.730
 1023SOL    HW1 3204   1.505   1.001   3.722
 1023SOL    HW2 3205   1.404   0.889   3.734
 1024SOL     OW 3206   0.937   1.726   2.575
 1024SOL    HW1 3207   0.849   1.754   2.549
 1024SOL    HW2 3208   0.962   1.662   2.509
 1025SOL     OW 3209   0.045   2.550   1.356
 1025SOL    HW1 3210  -0.033   2.597   1.386
 1025SOL    HW2 3211   0.118   2.593   1.400
 1026SOL     OW 3212   0.776   0.248   3.397
 1026SOL    HW1 3213   0.799   0.166   3.352
 1026SOL    HW2 3214   0.680   0.249   3.395
 1027SOL     OW 3215   3.839   0.207   2.490
 1027SOL    HW1 3216   3.923   0.187   2.449
 1027SOL    HW2 3217   3.861   0.262   2.565
 1028SOL     OW 3218   0.272   0.543   1.692
 1028SOL    HW1 3219   0.225   0.538   1.609
 1028SOL    HW2 3220   0.257   0.633   1.722
 1029SOL     OW 3221   0.955   2.248   1.630
 1029SOL    HW1 3222   0.934   2.155   1.639
 1029SOL    HW2 3223   0.908   2.291   1.701
 1030SOL     OW 3224   3.581   2.965   1.263
 1030SOL    HW1 3225   3.531   2.936   1.186
 1030SOL    HW2 3226   3.601   2.885   1.311
 1031SOL     OW 3227   1.230   2.123   2.592
 1031SOL    HW1 3228   1.138   2.112   2.615
 1031SOL    HW2 3229   1.245   2.060   2.522
 1032SOL     OW 3230   3.029   0.126   3.572
 1032SOL    HW1 3231   3.023   0.215   3.609
 1032SOL    HW2 3232   3.059   0.072   3.645
 1033SOL     OW 3233   1.489   1.641   1.671
 1033SOL    HW1 3234   1.560   1.611   1.613
 1033SOL    HW2 3235   1.534   1.674   1.748
 1034SOL     OW 3236   1.329   0.498   3.487
 1034SOL    HW1 3237   1.347   0.427   3.549
 1034SOL    HW2 3238   1.404   0.498   3.428
 1035SOL     OW 3239   3.659   0.911   2.571
 1035SOL    HW1 3240   3.582   0.928   2.625
 1035SOL    HW2 3241   3.707   0.844   2.619
 1036SOL     OW 3242   1.059   2.633   0.488
 1036SOL    HW1 3243   0.965   2.645   0.481
 1036SOL    HW2 3244   1.093   2.656   0.401
 1037SOL     OW 3245   1.183   1.995   3.555
 1037SOL    HW1 3246   1.157   1.959   3.640
 1037SOL    HW2 3247   1.276   1.974   3.548
 1038SOL     OW 3248   1.475   2.547   0.442
 1038SOL    HW1 3249   1.489   2.622   0.384
 1038SOL    HW2 3250   1.521   2.569   0.523
 1039SOL     OW 3251   3.824   0.273   0.231
 1039SOL    HW1 3252   3.883   0.257   0.305
 1039SOL    HW2 3253   3.757   0.331   0.267
 1040SOL     OW 3254   3.125   2.742   1.695
 1040SOL    HW1 3255   3.199   2.682   1.699
 1040SOL    HW2 3256   3.064   2.701   1.633
 1041SOL     OW 3257   1.291   2.609   2.138
 1041SOL    HW1 3258   1.284   2.703   2.152
 1041SOL    HW2 3259   1.377   2.585   2.174
 1042SOL     OW 3260   2.427   3.071   3.063
 1042SOL    HW1 3261   2.522   3.076   3.062
 1042SOL    HW2 3262   2.408   2.978   3.075
 1043SOL     OW 3263   3.754   1.670   0.655
 1043SOL    HW1 3264   3.687   1.615   0.696
 1043SOL    HW2 3265   3.821   1.608   0.626
 1044SOL     OW 3266   3.825   3.904   2.282
 1044SOL    HW1 3267   3.896   3.844   2.256
 1044SOL    HW2 3268   3.859   3.991   2.264
 1045SOL     OW 3269   1.167   3.352   0.840
 1045SOL    HW1 3270   1.194   3.260   0.843
 1045SOL    HW2 3271   1.096   3.358   0.904
 1046SOL     OW 3272   2.488   2.897   3.402
 1046SOL    HW1 3273   2.554   2.890   3.471
 1046SOL    HW2 3274   2.409   2.925   3.447
 1047SOL     OW 3275   2.657   1.164   1.470
 1047SOL    HW1 3276   2.691   1.099   1.409
 1047SOL    HW2 3277   2.714   1.240   1.458
 1048SOL     OW 3278   2.627   0.855   1.683
 1048SOL    HW1 3279   2.668   0.941   1.674
 1048SOL    HW2 3280   2.575   0.861   1.764
 1049SOL     OW 3281   0.176   2.692   3.847
 1049SOL    HW1 3282   0.151   2.632   3.918
 1049SOL    HW2 3283   0.134   2.775   3.869
 1050SOL     OW 3284   0.707   3.612   3.312
 1050SOL    HW1 3285   0.771   3.608   3.240
 1050SOL    HW2 3286   0.696   3.521   3.338
 1051SOL     OW 3287   0.595   2.743   3.146
 1051SOL    HW1 3288   0.644   2.664   3.168
 1051SOL    HW2 3289   0.529   2.750   3.216
 1052SOL     OW 3290   3.283   0.565   0.119
 1052SOL    HW1 3291   3.210   0.627   0.123
 1052SOL    HW2 3292   3.309   0.565   0.027
 1053SOL     OW 3293   1.656   2.782   0.375
 1053SOL    HW1 3294   1.595   2.854   0.359
 1053SOL    HW2 3295   1.717   2.786   0.300
 1054SOL     OW 3296   1.363   3.442   3.547
 1054SOL    HW1 3297   1.425   3.438   3.474
 1054SOL    HW2 3298   1.408   3.396   3.618
 1055SOL     OW 3299   2.203   2.590   1.879
 1055SOL    HW1 3300   2.136   2.656   1.896
 1055SOL    HW2 3301   2.204   2.581   1.784
 1056SOL     OW 3302   3.734   2.191   1.926
 1056SOL    HW1 3303   3.799   2.127   1.897
 1056SOL    HW2 3304   3.726   2.176   2.020
 1057SOL     OW 3305   1.797   3.649   0.971
 1057SOL    HW1 3306   1.752   3.676   0.891
 1057SOL    HW2 3307   1.861   3.584   0.943
 1058SOL     OW 3308   0.670   2.096   1.271
 1058SOL    HW1 3309   0.683   2.001   1.277
 1058SOL    HW2 3310   0.731   2.125   1.203
 1059SOL     OW 3311   1.323   3.305   1.943
 1059SOL    HW1 3312   1.366   3.226   1.975
 1059SOL    HW2 3313   1.391   3.372   1.945
 1060SOL     OW 3314   1.680   0.667   3.380
 1060SOL    HW1 3315   1.735   0.745   3.374
 1060SOL    HW2 3316   1.593   0.696   3.353
 1061SOL     OW 3317   2.358   0.697   0.007
 1061SOL    HW1 3318   2.263   0.700  -0.008
 1061SOL    HW2 3319   2.384   0.789   0.010
 1062SOL     OW 3320   2.305   0.315   3.757
 1062SOL    HW1 3321   2.212   0.299   3.770
 1062SOL    HW2 3322   2.339   0.330   3.846
 1063SOL     OW 3323   0.102   3.434   0.132
 1063SOL    HW1 3324   0.018   3.402   0.165
 1063SOL    HW2 3325   0.105   3.525   0.161
 1064SOL     OW 3326   1.823   2.248   0.215
 1064SOL    HW1 3327   1.888   2.278   0.151
 1064SOL    HW2 3328   1.851   2.288   0.298
 1065SOL     OW 3329   2.132   2.562   3.312
 1065SOL    HW1 3330   2.060   2.579   3.373
 1065SOL    HW2 3331   2.091   2.561   3.226
 1066SOL     OW 3332   2.055   0.299   1.352
 1066SOL    HW1 3333   2.083   0.275   1.440
 1066SOL    HW2 3334   2.130   0.344   1.314
 1067SOL     OW 3335   2.371   1.916   1.642
 1067SOL    HW1 3336   2.348   1.951   1.556
 1067SOL    HW2 3337   2.288   1.881   1.676
 1068SOL     OW 3338   1.063   1.309   2.244
 1068SOL    HW1 3339   0.998   1.308   2.173
 1068SOL    HW2 3340   1.122   1.237   2.224
 1069SOL     OW 3341   2.562   1.948   3.374
 1069SOL    HW1 3342   2.546   1.966   3.466
 1069SOL    HW2 3343   2.488   1.988   3.328
 1070SOL     OW 3344   2.755   0.864   0.278
 1070SOL    HW1 3345   2.713   0.782   0.304
 1070SOL    HW2 3346   2.705   0.932   0.323
 1071SOL     OW 3347   2.468   3.340   3.720
 1071SOL    HW1 3348   2.388   3.330   3.772
 1071SOL    HW2 3349   2.468   3.431   3.693
 1072SOL     OW 3350   0.373   2.307   0.222
 1072SOL    HW1 3351   0.425   2.339   0.148
 1072SOL    HW2 3352   0.318   2.238   0.184
 1073SOL     OW 3353   0.180   1.735   3.821
 1073SOL    HW1 3354   0.172   1.771   3.910
 1073SOL    HW2 3355   0.109   1.776   3.772
 1074SOL     OW 3356   0.448   1.424   3.362
 1074SOL    HW1 3357   0.471   1.488   3.430
 1074SOL    HW2 3358   0.358   1.445   3.339
 1075SOL     OW 3359   3.444   1.452   2.981
 1075SOL    HW1 3360   3.365   1.453   3.035
 1075SOL    HW2 3361   3.514   1.433   3.042
 1076SOL     OW 3362   2.215   3.579   1.534
 1076SOL    HW1 3363   2.308   3.589   1.554
 1076SOL    HW2 3364   2.198   3.644   1.466
 1077SOL     OW 3365   2.866   1.972   1.665
 1077SOL    HW1 3366   2.814   2.052   1.675
 1077SOL    HW2 3367   2.952   1.995   1.700
 1078SOL     OW 3368   3.900   1.432  -0.006
 1078SOL    HW1 3369   3.981   1.470   0.027
 1078SOL    HW2 3370   3.919   1.339  -0.015
 1079SOL     OW 3371   3.489   1.657   1.144
 1079SOL    HW1 3372   3.485   1.748   1.116
 1079SOL    HW2 3373   3.567   1.653   1.200
 1080SOL     OW 3374   0.904   0.927   1.477
 1080SOL    HW1 3375   0.999   0.932   1.469
 1080SOL    HW2 3376   0.882   0.994   1.542
 1081SOL     OW 3377   0.501   2.491   2.976
 1081SOL    HW1 3378   0.453   2.440   3.042
 1081SOL    HW2 3379   0.554   2.426   2.930
 1082SOL     OW 3380   3.855   2.102   3.639
 1082SOL    HW1 3381   3.922   2.038   3.614
 1082SOL    HW2 3382   3.807   2.060   3.710
 1083SOL     OW 3383   2.699   3.935   1.887
 1083SOL    HW1 3384   2.711   3.854   1.937
 1083SOL    HW2 3385   2.605   3.954   1.896
 1084SOL     OW 3386   1.508   0.546   0.643
 1084SOL    HW1 3387   1.559   0.466   0.654
 1084SOL    HW2 3388   1.572   0.617   0.648
 1085SOL     OW 3389   1.650   1.079   1.674
 1085SOL    HW1 3390   1.605   1.013   1.622
 1085SOL    HW2 3391   1.710   1.121   1.613
 1086SOL     OW 3392   3.155   1.977   3.402
 1086SOL    HW1 3393   3.103   1.947   3.327
 1086SOL    HW2 3394   3.196   2.058   3.372
 1087SOL     OW 3395   3.558   3.150   3.691
 1087SOL    HW1 3396   3.540   3.198   3.610
 1087SOL    HW2 3397   3.526   3.208   3.760
 1088SOL     OW 3398   3.885   2.532   3.459
 1088SOL    HW1 3399   3.793   2.551   3.443
 1088SOL    HW2 3400   3.932   2.607   3.423
 1089SOL     OW 3401   1.026   2.208   3.629
 1089SOL    HW1 3402   1.053   2.127   3.586
 1089SOL    HW2 3403   1.107   2.258   3.640
 1090SOL     OW 3404   0.055   2.770   3.416
 1090SOL    HW1 3405   0.042   2.830   3.342
 1090SOL    HW2 3406   0.006   2.810   3.488
 1091SOL     OW 3407   0.418   0.426   3.309
 1091SOL    HW1 3408   0.451   0.358   3.368
 1091SOL    HW2 3409   0.485   0.494   3.311
 1092SOL     OW 3410   2.208   3.458   2.918
 1092SOL    HW1 3411   2.185   3.463   3.011
 1092SOL    HW2 3412   2.303   3.466   2.917
 1093SOL     OW 3413   1.672   2.041   1.277
 1093SOL    HW1 3414   1.639   2.127   1.299
 1093SOL    HW2 3415   1.629   1.981   1.338
 1094SOL     OW 3416   0.501   3.597   1.535
 1094SOL    HW1 3417   0.586   3.570   1.570
 1094SOL    HW2 3418   0.442   3.524   1.554
 1095SOL     OW 3419   1.897   2.884   3.313
 1095SOL    HW1 3420   1.988   2.907   3.295
 1095SOL    HW2 3421   1.887   2.796   3.277
 1096SOL     OW 3422   1.486   1.061   2.379
 1096SOL    HW1 3423   1.556   1.049   2.444
 1096SOL    HW2 3424   1.528   1.107   2.307
 1097SOL     OW 3425   1.498   2.148   3.055
 1097SOL    HW1 3426   1.455   2.233   3.053
 1097SOL    HW2 3427   1.521   2.135   3.147
 1098SOL     OW 3428   1.248   1.884   2.969
 1098SOL    HW1 3429   1.254   1.956   3.033
 1098SOL    HW2 3430   1.303   1.912   2.896
 1099SOL     OW 3431   3.224   3.435   2.308
 1099SOL    HW1 3432   3.224   3.494   2.383
 1099SOL    HW2 3433   3.271   3.484   2.240
 1100SOL     OW 3434   0.863   1.414   3.416
 1100SOL    HW1 3435   0.957   1.420   3.429
 1100SOL    HW2 3436   0.849   1.443   3.326
 1101SOL     OW 3437   1.216   2.173   1.639
 1101SOL    HW1 3438   1.135   2.223   1.632
 1101SOL    HW2 3439   1.285   2.239   1.642
 1102SOL     OW 3440   0.720   3.842   1.736
 1102SOL    HW1 3441   0.649   3.851   1.672
 1102SOL    HW2 3442   0.740   3.932   1.761
 1103SOL     OW 3443   1.557   3.883   3.482
 1103SOL    HW1 3444   1.538   3.912   3.572
 1103SOL    HW2 3445   1.649   3.908   3.469
 1104SOL     OW 3446   1.182   2.044   0.386
 1104SOL    HW1 3447   1.127   2.010   0.457
 1104SOL    HW2 3448   1.271   2.038   0.419
 1105SOL     OW 3449   0.669   2.219   1.920
 1105SOL    HW1 3450   0.619   2.240   1.999
 1105SOL    HW2 3451   0.755   2.258   1.936
 1106SOL     OW 3452   1.075   3.165   1.998
 1106SOL    HW1 3453   1.148   3.225   1.982
 1106SOL    HW2 3454   1.098   3.087   1.948
 1107SOL     OW 3455   0.079   2.383   0.985
 1107SOL    HW1 3456   0.123   2.373   1.069
 1107SOL    HW2 3457   0.113   2.465   0.949
 1108SOL     OW 3458   3.524   2.562   3.887
 1108SOL    HW1 3459   3.528   2.467   3.885
 1108SOL    HW2 3460   3.495   2.584   3.976
 1109SOL     OW 3461   3.586   2.187   3.753
 1109SOL    HW1 3462   3.606   2.189   3.659
 1109SOL    HW2 3463   3.602   2.096   3.779
 1110SOL     OW 3464   0.580   3.756   3.021
 1110SOL    HW1 3465   0.499   3.806   3.033
 1110SOL    HW2 3466   0.629   3.769   3.102
 1111SOL     OW 3467   1.610   1.993   0.787
 1111SOL    HW1 3468   1.703   2.017   0.792
 1111SOL    HW2 3469   1.584   1.979   0.878
 1112SOL     OW 3470   2.632   3.318   3.118
 1112SOL    HW1 3471   2.648   3.224   3.128
 1112SOL    HW2 3472   2.542   3.323   3.084
 1113SOL     OW 3473   3.136   1.779   3.685
 1113SOL    HW1 3474   3.213   1.831   3.709
 1113SOL    HW2 3475   3.067   1.844   3.670
 1114SOL     OW 3476   3.702   3.848   3.087
 1114SOL    HW1 3477   3.766   3.799   3.138
 1114SOL    HW2 3478   3.738   3.937   3.083
 1115SOL     OW 3479   1.981   0.976   1.877
 1115SOL    HW1 3480   2.044   0.929   1.823
 1115SOL    HW2 3481   1.938   0.908   1.929
 1116SOL     OW 3482   0.924   1.030   3.514
 1116SOL    HW1 3483   0.879   0.945   3.516
 1116SOL    HW2 3484   0.984   1.023   3.440
 1117SOL     OW 3485   1.704   1.258   3.378
 1117SOL    HW1 3486   1.617   1.254   3.338
 1117SOL    HW2 3487   1.697   1.326   3.445
 1118SOL     OW 3488   3.014   1.496   2.110
 1118SOL    HW1 3489   3.089   1.460   2.063
 1118SOL    HW2 3490   2.989   1.427   2.172
 1119SOL     OW 3491   3.199   2.417   2.959
 1119SOL    HW1 3492   3.214   2.454   3.046
 1119SOL    HW2 3493   3.249   2.473   2.901
 1120SOL     OW 3494   3.530   3.476   1.275
 1120SOL    HW1 3495   3.620   3.450   1.296
 1120SOL    HW2 3496   3.495   3.402   1.225
 1121SOL     OW 3497   2.982   3.136   2.872
 1121SOL    HW1 3498   2.906   3.188   2.843
 1121SOL    HW2 3499   3.055   3.172   2.822
 1122SOL     OW 3500   2.480   0.410   2.687
 1122SOL    HW1 3501   2.519   0.363   2.613
 1122SOL    HW2 3502   2.444   0.340   2.742
 1123SOL     OW 3503   3.453   2.247   3.494
 1123SOL    HW1 3504   3.412   2.235   3.408
 1123SOL    HW2 3505   3.423   2.173   3.546
 1124SOL     OW 3506   3.641   1.511   3.592
 1124SOL    HW1 3507   3.708   1.570   3.626
 1124SOL    HW2 3508   3.672   1.423   3.615
 1125SOL     OW 3509   3.134   0.681   2.102
 1125SOL    HW1 3510   3.161   0.693   2.193
 1125SOL    HW2 3511   3.212   0.648   2.058
 1126SOL     OW 3512   3.597   3.917   0.270
 1126SOL    HW1 3513   3.639   3.852   0.326
 1126SOL    HW2 3514   3.658   3.927   0.196
 1127SOL     OW 3515   0.370   1.555   0.294
 1127SOL    HW1 3516   0.382   1.480   0.352
 1127SOL    HW2 3517   0.421   1.533   0.216
 1128SOL     OW 3518   3.008   0.419   0.028
 1128SOL    HW1 3519   2.958   0.393   0.105
 1128SOL    HW2 3520   3.027   0.511   0.041
 1129SOL     OW 3521   0.977   2.265   1.374
 1129SOL    HW1 3522   0.938   2.346   1.340
 1129SOL    HW2 3523   0.955   2.265   1.467
 1130SOL     OW 3524   3.747   1.292   0.996
 1130SOL    HW1 3525   3.746   1.198   1.017
 1130SOL    HW2 3526   3.771   1.295   0.903
 1131SOL     OW 3527   0.392   0.909   2.302
 1131SOL    HW1 3528   0.466   0.963   2.332
 1131SOL    HW2 3529   0.392   0.918   2.207
 1132SOL     OW 3530   2.456   0.190   3.548
 1132SOL    HW1 3531   2.543   0.191   3.587
 1132SOL    HW2 3532   2.398   0.221   3.617
 1133SOL     OW 3533   1.975   2.449   2.633
 1133SOL    HW1 3534   1.999   2.396   2.558
 1133SOL    HW2 3535   2.059   2.476   2.671
 1134SOL     OW 3536   3.630   2.311   0.591
 1134SOL    HW1 3537   3.660   2.236   0.538
 1134SOL    HW2 3538   3.710   2.358   0.614
 1135SOL     OW 3539   1.351   2.254   3.479
 1135SOL    HW1 3540   1.346   2.330   3.538
 1135SOL    HW2 3541   1.316   2.182   3.530
 1136SOL     OW 3542   3.078   2.218   1.636
 1136SOL    HW1 3543   3.060   2.281   1.706
 1136SOL    HW2 3544   3.159   2.175   1.663
 1137SOL     OW 3545   2.469   0.249   1.591
 1137SOL    HW1 3546   2.501   0.294   1.513
 1137SOL    HW2 3547   2.525   0.280   1.662
 1138SOL     OW 3548   2.777   0.281   2.474
 1138SOL    HW1 3549   2.811   0.319   2.554
 1138SOL    HW2 3550   2.682   0.280   2.486
 1139SOL     OW 3551   2.406   0.990   0.023
 1139SOL    HW1 3552   2.384   0.979   0.115
 1139SOL    HW2 3553   2.378   1.079   0.002
 1140SOL     OW 3554   0.409   1.288   1.529
 1140SOL    HW1 3555   0.378   1.198   1.519
 1140SOL    HW2 3556   0.336   1.341   1.496
 1141SOL     OW 3557   0.404   1.581   0.630
 1141SOL    HW1 3558   0.449   1.537   0.558
 1141SOL    HW2 3559   0.385   1.511   0.693
 1142SOL     OW 3560   1.281   1.471   0.056
 1142SOL    HW1 3561   1.243   1.519   0.130
 1142SOL    HW2 3562   1.375   1.480   0.067
 1143SOL     OW 3563   0.624   1.628   3.730
 1143SOL    HW1 3564   0.698   1.633   3.670
 1143SOL    HW2 3565   0.591   1.717   3.735
 1144SOL     OW 3566   1.703   1.163   3.060
 1144SOL    HW1 3567   1.706   1.256   3.036
 1144SOL    HW2 3568   1.616   1.152   3.099
 1145SOL     OW 3569   0.317   0.861   2.573
 1145SOL    HW1 3570   0.367   0.870   2.491
 1145SOL    HW2 3571   0.384   0.850   2.640
 1146SOL     OW 3572   0.619   3.338   3.203
 1146SOL    HW1 3573   0.555   3.268   3.198
 1146SOL    HW2 3574   0.598   3.395   3.129
 1147SOL     OW 3575   3.109   0.183   2.255
 1147SOL    HW1 3576   3.062   0.141   2.183
 1147SOL    HW2 3577   3.128   0.271   2.222
 1148SOL     OW 3578   1.595   2.691   0.658
 1148SOL    HW1 3579   1.550   2.715   0.739
 1148SOL    HW2 3580   1.586   2.768   0.602
 1149SOL     OW 3581   3.818   0.433   1.922
 1149SOL    HW1 3582   3.767   0.464   1.847
 1149SOL    HW2 3583   3.888   0.497   1.932
 1150SOL     OW 3584   2.296   1.233   1.756
 1150SOL    HW1 3585   2.271   1.253   1.846
 1150SOL    HW2 3586   2.216   1.200   1.716
 1151SOL     OW 3587   2.435   1.380   1.244
 1151SOL    HW1 3588   2.510   1.380   1.303
 1151SOL    HW2 3589   2.427   1.470   1.214
 1152SOL     OW 3590   3.233   1.661   0.859
 1152SOL    HW1 3591   3.189   1.712   0.928
 1152SOL    HW2 3592   3.256   1.579   0.901
 1153SOL     OW 3593   0.673   1.774   3.119
 1153SOL    HW1 3594   0.590   1.734   3.094
 1153SOL    HW2 3595   0.675   1.768   3.215
 1154SOL     OW 3596   1.978   3.575   3.512
 1154SOL    HW1 3597   2.015   3.663   3.516
 1154SOL    HW2 3598   2.051   3.520   3.482
 1155SOL     OW 3599   3.795   0.730   2.717
 1155SOL    HW1 3600   3.796   0.638   2.743
 1155SOL    HW2 3601   3.884   0.761   2.734
 1156SOL     OW 3602   2.889   1.039   3.164
 1156SOL    HW1 3603   2.800   1.036   3.199
 1156SOL    HW2 3604   2.909   0.948   3.141
 1157SOL     OW 3605   1.225   1.603   1.667
 1157SOL    HW1 3606   1.320   1.611   1.678
 1157SOL    HW2 3607   1.190   1.687   1.698
 1158SOL     OW 3608   2.978   2.665   1.501
 1158SOL    HW1 3609   2.956   2.727   1.431
 1158SOL    HW2 3610   2.970   2.579   1.460
 1159SOL     OW 3611   1.202   3.047   0.134
 1159SOL    HW1 3612   1.123   3.063   0.186
 1159SOL    HW2 3613   1.265   3.113   0.164
 1160SOL     OW 3614   2.876   0.449   2.289
 1160SOL    HW1 3615   2.824   0.398   2.351
 1160SOL    HW2 3616   2.912   0.521   2.341
 1161SOL     OW 3617   2.090   0.686   3.936
 1161SOL    HW1 3618   2.102   0.600   3.896
 1161SOL    HW2 3619   1.999   0.710   3.915
 1162SOL     OW 3620   2.725   1.924   0.263
 1162SOL    HW1 3621   2.787   1.984   0.305
 1162SOL    HW2 3622   2.665   1.980   0.215
 1163SOL     OW 3623   1.199   0.918   1.137
 1163SOL    HW1 3624   1.130   0.961   1.087
 1163SOL    HW2 3625   1.189   0.951   1.226
 1164SOL     OW 3626   0.134   2.008   0.568
 1164SOL    HW1 3627   0.124   2.047   0.655
 1164SOL    HW2 3628   0.202   1.941   0.579
 1165SOL     OW 3629   2.733   1.253   0.131
 1165SOL    HW1 3630   2.708   1.246   0.223
 1165SOL    HW2 3631   2.732   1.163   0.098
 1166SOL     OW 3632   0.693   3.902   2.814
 1166SOL    HW1 3633   0.781   3.889   2.848
 1166SOL    HW2 3634   0.636   3.854   2.874
 1167SOL     OW 3635   2.396   2.638   2.876
 1167SOL    HW1 3636   2.426   2.585   2.802
 1167SOL    HW2 3637   2.310   2.669   2.850
 1168SOL     OW 3638   3.872   3.583   1.338
 1168SOL    HW1 3639   3.812   3.515   1.369
 1168SOL    HW2 3640   3.959   3.547   1.354
 1169SOL     OW 3641   3.625   1.891   1.394
 1169SOL    HW1 3642   3.676   1.972   1.397
 1169SOL    HW2 3643   3.691   1.822   1.383
 1170SOL     OW 3644   0.878   3.359   0.098
 1170SOL    HW1 3645   0.886   3.330   0.008
 1170SOL    HW2 3646   0.956   3.413   0.113
 1171SOL     OW 3647   3.522   1.971   2.667
 1171SOL    HW1 3648   3.582   2.007   2.601
 1171SOL    HW2 3649   3.471   2.047   2.697
 1172SOL     OW 3650   0.377   0.460   3.753
 1172SOL    HW1 3651   0.407   0.389   3.810
 1172SOL    HW2 3652   0.292   0.485   3.788
 1173SOL     OW 3653   1.242   3.120   1.126
 1173SOL    HW1 3654   1.158   3.162   1.111
 1173SOL    HW2 3655   1.264   3.140   1.216
 1174SOL     OW 3656   3.395   0.647   0.479
 1174SOL    HW1 3657   3.421   0.567   0.433
 1174SOL    HW2 3658   3.478   0.689   0.502
 1175SOL     OW 3659   0.761   3.177   2.478
 1175SOL    HW1 3660   0.815   3.126   2.539
 1175SOL    HW2 3661   0.673   3.140   2.487
 1176SOL     OW 3662   0.096   0.999   1.102
 1176SOL    HW1 3663   0.098   0.930   1.168
 1176SOL    HW2 3664   0.074   0.953   1.021
 1177SOL     OW 3665   1.911   2.573   1.805
 1177SOL    HW1 3666   1.857   2.508   1.851
 1177SOL    HW2 3667   1.884   2.657   1.842
 1178SOL     OW 3668   1.762   2.132   3.217
 1178SOL    HW1 3669   1.798   2.058   3.265
 1178SOL    HW2 3670   1.796   2.209   3.262
 1179SOL     OW 3671   1.144   3.261   1.355
 1179SOL    HW1 3672   1.220   3.298   1.400
 1179SOL    HW2 3673   1.069   3.303   1.396
 1180SOL     OW 3674   2.410   2.352   1.302
 1180SOL    HW1 3675   2.423   2.348   1.397
 1180SOL    HW2 3676   2.482   2.301   1.266
 1181SOL     OW 3677   1.406   1.945   0.501
 1181SOL    HW1 3678   1.456   1.916   0.577
 1181SOL    HW2 3679   1.472   1.958   0.433
 1182SOL     OW 3680   3.309   3.343   1.804
 1182SOL    HW1 3681   3.308   3.389   1.888
 1182SOL    HW2 3682   3.360   3.400   1.746
 1183SOL     OW 3683   1.584   3.392   3.371
 1183SOL    HW1 3684   1.546   3.305   3.384
 1183SOL    HW2 3685   1.621   3.390   3.283
 1184SOL     OW 3686   3.903   0.941   0.867
 1184SOL    HW1 3687   3.833   1.004   0.884
 1184SOL    HW2 3688   3.929   0.956   0.776
 1185SOL     OW 3689   2.439   3.224   0.669
 1185SOL    HW1 3690   2.522   3.222   0.716
 1185SOL    HW2 3691   2.372   3.224   0.738
 1186SOL     OW 3692   0.315   0.391   2.171
 1186SOL    HW1 3693   0.348   0.302   2.184
 1186SOL    HW2 3694   0.309   0.401   2.076
 1187SOL     OW 3695   0.683   3.149   3.878
 1187SOL    HW1 3696   0.773   3.147   3.848
 1187SOL    HW2 3697   0.675   3.073   3.936
 1188SOL     OW 3698   3.874   0.621   3.235
 1188SOL    HW1 3699   3.862   0.646   3.143
 1188SOL    HW2 3700   3.932   0.689   3.271
 1189SOL     OW 3701   1.626   3.517   3.801
 1189SOL    HW1 3702   1.663   3.506   3.713
 1189SOL    HW2 3703   1.626   3.612   3.814
 1190SOL     OW 3704   2.198   3.412   3.432
 1190SOL    HW1 3705   2.117   3.362   3.435
 1190SOL    HW2 3706   2.259   3.363   3.487
 1191SOL     OW 3707   2.924   2.032   2.639
 1191SOL    HW1 3708   2.880   1.994   2.562
 1191SOL    HW2 3709   2.857   2.087   2.680
 1192SOL     OW 3710   3.365   3.556   3.233
 1192SOL    HW1 3711   3.389   3.564   3.326
 1192SOL    HW2 3712   3.282   3.507   3.234
 1193SOL     OW 3713   1.343   3.032   3.230
 1193SOL    HW1 3714   1.288   2.957   3.254
 1193SOL    HW2 3715   1.332   3.039   3.135
 1194SOL     OW 3716   0.363   2.284   3.856
 1194SOL    HW1 3717   0.279   2.328   3.871
 1194SOL    HW2 3718   0.425   2.356   3.842
 1195SOL     OW 3719   0.040   0.726   3.634
 1195SOL    HW1 3720   0.091   0.804   3.609
 1195SOL    HW2 3721   0.077   0.655   3.582
 1196SOL     OW 3722   0.031   2.468   1.817
 1196SOL    HW1 3723  -0.027   2.403   1.857
 1196SOL    HW2 3724   0.096   2.415   1.770
 1197SOL     OW 3725   2.152   3.839   1.764
 1197SOL    HW1 3726   2.176   3.747   1.773
 1197SOL    HW2 3727   2.159   3.856   1.670
 1198SOL     OW 3728   2.346   1.944   0.964
 1198SOL    HW1 3729   2.385   2.031   0.969
 1198SOL    HW2 3730   2.338   1.927   0.870
 1199SOL     OW 3731   2.057   0.997   2.284
 1199SOL    HW1 3732   1.995   0.990   2.357
 1199SOL    HW2 3733   2.018   0.946   2.213
 1200SOL     OW 3734   3.867   1.739   2.412
 1200SOL    HW1 3735   3.783   1.732   2.458
 1200SOL    HW2 3736   3.842   1.756   2.321
 1201SOL     OW 3737   1.345   1.942   2.006
 1201SOL    HW1 3738   1.368   1.852   2.032
 1201SOL    HW2 3739   1.286   1.931   1.932
 1202SOL     OW 3740   3.343   3.205   3.168
 1202SOL    HW1 3741   3.259   3.250   3.168
 1202SOL    HW2 3742   3.320   3.113   3.153
 1203SOL     OW 3743   1.074   2.014   0.962
 1203SOL    HW1 3744   1.044   1.923   0.953
 1203SOL    HW2 3745   1.010   2.065   0.913
 1204SOL     OW 3746   0.286   2.503   3.671
 1204SOL    HW1 3747   0.202   2.463   3.694
 1204SOL    HW2 3748   0.293   2.578   3.729
 1205SOL     OW 3749   2.896   3.139   3.131
 1205SOL    HW1 3750   2.936   3.110   3.049
 1205SOL    HW2 3751   2.885   3.234   3.120
 1206SOL     OW 3752   1.640   3.819   0.703
 1206SOL    HW1 3753   1.679   3.903   0.677
 1206SOL    HW2 3754   1.691   3.754   0.654
 1207SOL     OW 3755   1.765   3.084   2.698
 1207SOL    HW1 3756   1.723   3.000   2.679
 1207SOL    HW2 3757   1.728   3.110   2.782
 1208SOL     OW 3758   1.480   2.582   1.840
 1208SOL    HW1 3759   1.456   2.567   1.932
 1208SOL    HW2 3760   1.556   2.640   1.844
 1209SOL     OW 3761   0.971   0.728   0.786
 1209SOL    HW1 3762   0.955   0.774   0.703
 1209SOL    HW2 3763   0.950   0.792   0.854
 1210SOL     OW 3764   3.873   3.303   1.121
 1210SOL    HW1 3765   3.892   3.255   1.202
 1210SOL    HW2 3766   3.778   3.294   1.109
 1211SOL     OW 3767   0.738   3.367   0.513
 1211SOL    HW1 3768   0.706   3.305   0.447
 1211SOL    HW2 3769   0.701   3.335   0.596
 1212SOL     OW 3770   0.038   1.155   0.205
 1212SOL    HW1 3771   0.006   1.175   0.117
 1212SOL    HW2 3772  -0.035   1.180   0.263
 1213SOL     OW 3773   3.585   2.750   1.060
 1213SOL    HW1 3774   3.524   2.687   1.099
 1213SOL    HW2 3775   3.670   2.728   1.098
 1214SOL     OW 3776   2.490   0.681   1.512
 1214SOL    HW1 3777   2.547   0.702   1.438
 1214SOL    HW2 3778   2.518   0.742   1.581
 1215SOL     OW 3779   0.247   0.273   0.529
 1215SOL    HW1 3780   0.310   0.238   0.593
 1215SOL    HW2 3781   0.299   0.289   0.451
 1216SOL     OW 3782   2.399   3.731   2.436
 1216SOL    HW1 3783   2.315   3.776   2.423
 1216SOL    HW2 3784   2.377   3.653   2.487
 1217SOL     OW 3785   0.662   3.933   0.612
 1217SOL    HW1 3786   0.644   3.978   0.694
 1217SOL    HW2 3787   0.626   3.845   0.624
 1218SOL     OW 3788   3.432   0.169   3.818
 1218SOL    HW1 3789   3.383   0.246   3.848
 1218SOL    HW2 3790   3.386   0.095   3.857
 1219SOL     OW 3791   3.918   1.192   1.573
 1219SOL    HW1 3792   3.908   1.198   1.668
 1219SOL    HW2 3793   3.867   1.115   1.549
 1220SOL     OW 3794   3.565   3.725   1.682
 1220SOL    HW1 3795   3.538   3.633   1.674
 1220SOL    HW2 3796   3.503   3.763   1.743
 1221SOL     OW 3797   3.928   3.453   2.260
 1221SOL    HW1 3798   3.880   3.502   2.327
 1221SOL    HW2 3799   4.019   3.480   2.271
 1222SOL     OW 3800   1.879   1.654   2.915
 1222SOL    HW1 3801   1.818   1.719   2.880
 1222SOL    HW2 3802   1.949   1.705   2.954
 1223SOL     OW 3803   1.923   2.382   0.419
 1223SOL    HW1 3804   1.869   2.421   0.488
 1223SOL    HW2 3805   1.967   2.308   0.462
 1224SOL     OW 3806   2.240   2.475   2.291
 1224SOL    HW1 3807   2.313   2.517   2.246
 1224SOL    HW2 3808   2.280   2.427   2.363
 1225SOL     OW 3809   1.478   3.026   1.037
 1225SOL    HW1 3810   1.401   3.083   1.038
 1225SOL    HW2 3811   1.539   3.069   0.977
 1226SOL     OW 3812   0.122   2.221   1.698
 1226SOL    HW1 3813   0.216   2.204   1.699
 1226SOL    HW2 3814   0.083   2.143   1.739
 1227SOL     OW 3815   1.139   1.058   2.912
 1227SOL    HW1 3816   1.136   1.146   2.874
 1227SOL    HW2 3817   1.173   1.072   3.000
 1228SOL     OW 3818   1.051   3.192   2.392
 1228SOL    HW1 3819   1.098   3.111   2.413
 1228SOL    HW2 3820   0.999   3.171   2.314
 1229SOL     OW 3821   2.526   0.660   2.588
 1229SOL    HW1 3822   2.497   0.575   2.620
 1229SOL    HW2 3823   2.490   0.723   2.651
 1230SOL     OW 3824   1.702   2.016   2.434
 1230SOL    HW1 3825   1.719   1.947   2.498
 1230SOL    HW2 3826   1.686   2.094   2.486
 1231SOL     OW 3827   3.875   0.500   2.819
 1231SOL    HW1 3828   3.907   0.424   2.770
 1231SOL    HW2 3829   3.888   0.477   2.911
 1232SOL     OW 3830   1.999   1.293   0.703
 1232SOL    HW1 3831   1.908   1.322   0.696
 1232SOL    HW2 3832   1.995   1.215   0.758
 1233SOL     OW 3833   0.990   3.865   3.635
 1233SOL    HW1 3834   1.005   3.860   3.541
 1233SOL    HW2 3835   1.006   3.957   3.657
 1234SOL     OW 3836   1.947   1.354   0.240
 1234SOL    HW1 3837   1.860   1.324   0.266
 1234SOL    HW2 3838   1.982   1.398   0.317
 1235SOL     OW 3839   2.110   1.316   2.649
 1235SOL    HW1 3840   2.116   1.407   2.680
 1235SOL    HW2 3841   2.096   1.323   2.555
 1236SOL     OW 3842   1.881   0.693   1.637
 1236SOL    HW1 3843   1.880   0.782   1.602
 1236SOL    HW2 3844   1.866   0.637   1.561
 1237SOL     OW 3845   0.177   1.450   3.216
 1237SOL    HW1 3846   0.146   1.450   3.126
 1237SOL    HW2 3847   0.220   1.535   3.227
 1238SOL     OW 3848   0.182   3.520   1.377
 1238SOL    HW1 3849   0.183   3.469   1.457
 1238SOL    HW2 3850   0.234   3.469   1.315
 1239SOL     OW 3851   1.931   2.799   1.112
 1239SOL    HW1 3852   2.007   2.848   1.081
 1239SOL    HW2 3853   1.907   2.841   1.194
 1240SOL     OW 3854   1.603   3.494   1.228
 1240SOL    HW1 3855   1.671   3.556   1.253
 1240SOL    HW2 3856   1.569   3.528   1.145
 1241SOL     OW 3857   0.313   3.867   3.085
 1241SOL    HW1 3858   0.308   3.783   3.040
 1241SOL    HW2 3859   0.280   3.849   3.173
 1242SOL     OW 3860   1.568   0.067   2.745
 1242SOL    HW1 3861   1.552   0.034   2.657
 1242SOL    HW2 3862   1.595   0.158   2.732
 1243SOL     OW 3863   0.957   0.011   3.303
 1243SOL    HW1 3864   1.005  -0.055   3.354
 1243SOL    HW2 3865   1.026   0.061   3.258
 1244SOL     OW 3866   0.400   2.095   1.542
 1244SOL    HW1 3867   0.383   2.003   1.519
 1244SOL    HW2 3868   0.391   2.142   1.459
 1245SOL     OW 3869   3.789   0.103   3.541
 1245SOL    HW1 3870   3.837   0.078   3.620
 1245SOL    HW2 3871   3.749   0.021   3.511
 1246SOL     OW 3872   0.962   2.607   3.714
 1246SOL    HW1 3873   1.002   2.692   3.698
 1246SOL    HW2 3874   0.922   2.583   3.631
 1247SOL     OW 3875   2.728   2.329   1.522
 1247SOL    HW1 3876   2.688   2.252   1.563
 1247SOL    HW2 3877   2.657   2.393   1.519
 1248SOL     OW 3878   0.461   0.346   1.555
 1248SOL    HW1 3879   0.371   0.347   1.587
 1248SOL    HW2 3880   0.506   0.411   1.610
 1249SOL     OW 3881   1.681   3.715   2.175
 1249SOL    HW1 3882   1.745   3.747   2.112
 1249SOL    HW2 3883   1.682   3.620   2.165
 1250SOL     OW 3884   3.199   0.956   0.637
 1250SOL    HW1 3885   3.238   1.009   0.706
 1250SOL    HW2 3886   3.146   0.891   0.685
 1251SOL     OW 3887   2.962   3.596   2.174
 1251SOL    HW1 3888   2.904   3.527   2.206
 1251SOL    HW2 3889   2.974   3.655   2.249
 1252SOL     OW 3890   0.715   3.882   3.220
 1252SOL    HW1 3891   0.794   3.931   3.240
 1252SOL    HW2 3892   0.716   3.808   3.281
 1253SOL     OW 3893   3.769   2.567   3.056
 1253SOL    HW1 3894   3.716   2.602   2.985
 1253SOL    HW2 3895   3.716   2.580   3.135
 1254SOL     OW 3896   2.619   2.101   1.621
 1254SOL    HW1 3897   2.610   2.048   1.542
 1254SOL    HW2 3898   2.557   2.063   1.683
 1255SOL     OW 3899   1.094   1.593   3.842
 1255SOL    HW1 3900   1.165   1.547   3.888
 1255SOL    HW2 3901   1.019   1.588   3.902
 1256SOL     OW 3902   2.667   2.900   2.011
 1256SOL    HW1 3903   2.577   2.900   1.979
 1256SOL    HW2 3904   2.718   2.863   1.940
 1257SOL     OW 3905   3.439   2.499   2.390
 1257SOL    HW1 3906   3.376   2.552   2.439
 1257SOL    HW2 3907   3.394   2.480   2.307
 1258SOL     OW 3908   2.982   3.880   1.152
 1258SOL    HW1 3909   3.008   3.840   1.235
 1258SOL    HW2 3910   2.977   3.974   1.172
 1259SOL     OW 3911   1.141   0.353   1.236
 1259SOL    HW1 3912   1.072   0.310   1.185
 1259SOL    HW2 3913   1.128   0.446   1.219
 1260SOL     OW 3914   1.016   1.162   0.769
 1260SOL    HW1 3915   1.085   1.216   0.808
 1260SOL    HW2 3916   1.017   1.186   0.676
 1261SOL     OW 3917   1.684   1.705   1.857
 1261SOL    HW1 3918   1.753   1.661   1.907
 1261SOL    HW2 3919   1.686   1.795   1.888
 1262SOL     OW 3920   3.253   1.409   3.188
 1262SOL    HW1 3921   3.319   1.402   3.256
 1262SOL    HW2 3922   3.212   1.323   3.184
 1263SOL     OW 3923   3.814   3.724   2.028
 1263SOL    HW1 3924   3.738   3.778   2.007
 1263SOL    HW2 3925   3.851   3.699   1.943
 1264SOL     OW 3926   0.046   1.773   2.635
 1264SOL    HW1 3927   0.123   1.820   2.601
 1264SOL    HW2 3928   0.001   1.742   2.556
 1265SOL     OW 3929   3.244   1.078   3.526
 1265SOL    HW1 3930   3.199   1.030   3.594
 1265SOL    HW2 3931   3.254   1.015   3.454
 1266SOL     OW 3932   2.733   0.808   3.592
 1266SOL    HW1 3933   2.670   0.863   3.640
 1266SOL    HW2 3934   2.695   0.797   3.505
 1267SOL     OW 3935   2.551   1.925   1.863
 1267SOL    HW1 3936   2.591   1.839   1.850
 1267SOL    HW2 3937   2.477   1.926   1.802
 1268SOL     OW 3938   1.925   3.856   2.725
 1268SOL    HW1 3939   1.874   3.787   2.768
 1268SOL    HW2 3940   1.935   3.924   2.792
 1269SOL     OW 3941   0.988   0.958   2.641
 1269SOL    HW1 3942   0.927   0.974   2.713
 1269SOL    HW2 3943   0.990   1.040   2.591
 1270SOL     OW 3944   2.747   1.449   2.695
 1270SOL    HW1 3945   2.743   1.427   2.602
 1270SOL    HW2 3946   2.657   1.446   2.725
 1271SOL     OW 3947   2.779   0.569   3.327
 1271SOL    HW1 3948   2.690   0.604   3.336
 1271SOL    HW2 3949   2.770   0.476   3.345
 1272SOL     OW 3950   2.881   2.963   2.177
 1272SOL    HW1 3951   2.786   2.976   2.173
 1272SOL    HW2 3952   2.916   3.031   2.120
 1273SOL     OW 3953   3.510   0.135   2.728
 1273SOL    HW1 3954   3.448   0.102   2.793
 1273SOL    HW2 3955   3.547   0.214   2.768
 1274SOL     OW 3956   0.664   1.769   1.373
 1274SOL    HW1 3957   0.753   1.790   1.346
 1274SOL    HW2 3958   0.614   1.764   1.291
 1275SOL     OW 3959   3.364   2.086   1.461
 1275SOL    HW1 3960   3.375   2.173   1.500
 1275SOL    HW2 3961   3.393   2.096   1.371
 1276SOL     OW 3962   3.178   2.074   2.696
 1276SOL    HW1 3963   3.090   2.037   2.705
 1276SOL    HW2 3964   3.168   2.144   2.631
 1277SOL     OW 3965   3.181   3.046   1.231
 1277SOL    HW1 3966   3.107   3.099   1.204
 1277SOL    HW2 3967   3.239   3.045   1.155
 1278SOL     OW 3968   0.347   3.480   0.477
 1278SOL    HW1 3969   0.429   3.529   0.468
 1278SOL    HW2 3970   0.283   3.545   0.505
 1279SOL     OW 3971   0.224   3.487   2.348
 1279SOL    HW1 3972   0.241   3.519   2.437
 1279SOL    HW2 3973   0.309   3.492   2.304
 1280SOL     OW 3974   2.741   1.835   0.600
 1280SOL    HW1 3975   2.655   1.847   0.560
 1280SOL    HW2 3976   2.773   1.924   0.614
 1281SOL     OW 3977   0.530   0.635   3.611
 1281SOL    HW1 3978   0.551   0.679   3.693
 1281SOL    HW2 3979   0.473   0.562   3.637
 1282SOL     OW 3980   0.910   1.137   1.655
 1282SOL    HW1 3981   0.930   1.201   1.586
 1282SOL    HW2 3982   0.880   1.190   1.729
 1283SOL     OW 3983   2.945   2.219   0.675
 1283SOL    HW1 3984   3.022   2.162   0.681
 1283SOL    HW2 3985   2.968   2.295   0.729
 1284SOL     OW 3986   2.961   2.444   1.758
 1284SOL    HW1 3987   2.920   2.365   1.792
 1284SOL    HW2 3988   2.900   2.475   1.691
 1285SOL     OW 3989   2.431   0.780   2.230
 1285SOL    HW1 3990   2.496   0.851   2.234
 1285SOL    HW2 3991   2.482   0.703   2.207
 1286SOL     OW 3992   1.225   2.745   3.241
 1286SOL    HW1 3993   1.200   2.653   3.251
 1286SOL    HW2 3994   1.262   2.751   3.153
 1287SOL     OW 3995   3.712   1.141   0.216
 1287SOL    HW1 3996   3.740   1.066   0.164
 1287SOL    HW2 3997   3.617   1.144   0.203
 1288SOL     OW 3998   3.202   3.708   3.808
 1288SOL    HW1 3999   3.208   3.641   3.876
 1288SOL    HW2 4000   3.252   3.782   3.843
 1289SOL     OW 4001   1.143   0.226   0.236
 1289SOL    HW1 4002   1.184   0.146   0.271
 1289SOL    HW2 4003   1.217   0.278   0.205
 1290SOL     OW 4004   0.608   1.971   1.979
 1290SOL    HW1 4005   0.631   2.059   1.950
 1290SOL    HW2 4006   0.515   1.962   1.959
 1291SOL     OW 4007   0.982   1.028   1.021
 1291SOL    HW1 4008   0.995   1.060   0.932
 1291SOL    HW2 4009   0.903   0.974   1.015
 1292SOL     OW 4010   2.893   1.432   3.533
 1292SOL    HW1 4011   2.980   1.403   3.506
 1292SOL    HW2 4012   2.837   1.411   3.458
 1293SOL     OW 4013   1.820   1.303   1.006
 1293SOL    HW1 4014   1.863   1.320   1.090
 1293SOL    HW2 4015   1.876   1.238   0.963
 1294SOL     OW 4016   3.871   1.089   2.489
 1294SOL    HW1 4017   3.825   1.017   2.532
 1294SOL    HW2 4018   3.857   1.075   2.396
 1295SOL     OW 4019   1.656   0.380   2.079
 1295SOL    HW1 4020   1.672   0.316   2.149
 1295SOL    HW2 4021   1.703   0.458   2.108
 1296SOL     OW 4022   1.399   1.640   1.098
 1296SOL    HW1 4023   1.335   1.699   1.137
 1296SOL    HW2 4024   1.351   1.595   1.029
 1297SOL     OW 4025   1.105   3.370   3.482
 1297SOL    HW1 4026   1.193   3.366   3.519
 1297SOL    HW2 4027   1.092   3.463   3.463
 1298SOL     OW 4028   2.824   2.466   2.845
 1298SOL    HW1 4029   2.850   2.386   2.891
 1298SOL    HW2 4030   2.890   2.475   2.776
 1299SOL     OW 4031   2.882   3.412   3.105
 1299SOL    HW1 4032   2.885   3.497   3.149
 1299SOL    HW2 4033   2.790   3.386   3.108
 1300SOL     OW 4034   2.409   3.763   1.890
 1300SOL    HW1 4035   2.386   3.792   1.979
 1300SOL    HW2 4036   2.376   3.833   1.834
 1301SOL     OW 4037   1.021   1.520   2.737
 1301SOL    HW1 4038   1.043   1.603   2.778
 1301SOL    HW2 4039   1.056   1.527   2.648
 1302SOL     OW 4040   1.627   1.122   2.088
 1302SOL    HW1 4041   1.698   1.178   2.057
 1302SOL    HW2 4042   1.558   1.132   2.023
 1303SOL     OW 4043   0.326   2.498   1.135
 1303SOL    HW1 4044   0.389   2.453   1.079
 1303SOL    HW2 4045   0.375   2.521   1.214
 1304SOL     OW 4046   2.028   2.014   2.031
 1304SOL    HW1 4047   1.993   2.104   2.033
 1304SOL    HW2 4048   1.960   1.961   2.072
 1305SOL     OW 4049   3.454   0.403   1.844
 1305SOL    HW1 4050   3.482   0.325   1.796
 1305SOL    HW2 4051   3.524   0.467   1.829
 1306SOL     OW 4052   2.782   2.603   3.548
 1306SOL    HW1 4053   2.842   2.571   3.480
 1306SOL    HW2 4054   2.840   2.637   3.616
 1307SOL     OW 4055   0.221   1.848   2.037
 1307SOL    HW1 4056   0.216   1.777   2.102
 1307SOL    HW2 4057   0.256   1.806   1.958
 1308SOL     OW 4058   1.383   0.728   0.441
 1308SOL    HW1 4059   1.365   0.646   0.487
 1308SOL    HW2 4060   1.301   0.749   0.396
 1309SOL     OW 4061   1.549   1.119   0.809
 1309SOL    HW1 4062   1.548   1.049   0.744
 1309SOL    HW2 4063   1.595   1.081   0.884
 1310SOL     OW 4064   3.850   2.329   2.391
 1310SOL    HW1 4065   3.943   2.340   2.371
 1310SOL    HW2 4066   3.820   2.416   2.417
 1311SOL     OW 4067   3.827   1.651   3.027
 1311SOL    HW1 4068   3.919   1.663   3.002
 1311SOL    HW2 4069   3.781   1.722   2.982
 1312SOL     OW 4070   0.452   0.216   2.531
 1312SOL    HW1 4071   0.537   0.242   2.567
 1312SOL    HW2 4072   0.431   0.134   2.575
 1313SOL     OW 4073   2.737   2.678   2.487
 1313SOL    HW1 4074   2.777   2.591   2.483
 1313SOL    HW2 4075   2.753   2.716   2.400
 1314SOL     OW 4076   2.780   2.280   0.151
 1314SOL    HW1 4077   2.699   2.253   0.194
 1314SOL    HW2 4078   2.787   2.222   0.075
 1315SOL     OW 4079   3.431   0.090   3.133
 1315SOL    HW1 4080   3.431   0.160   3.198
 1315SOL    HW2 4081   3.428   0.009   3.184
 1316SOL     OW 4082   1.380   0.828   3.379
 1316SOL    HW1 4083   1.394   0.829   3.284
 1316SOL    HW2 4084   1.349   0.916   3.400
 1317SOL     OW 4085   2.930   1.428   3.111
 1317SOL    HW1 4086   2.976   1.354   3.149
 1317SOL    HW2 4087   2.839   1.399   3.104
 1318SOL     OW 4088   2.159   2.697   2.787
 1318SOL    HW1 4089   2.177   2.709   2.694
 1318SOL    HW2 4090   2.109   2.774   2.812
 1319SOL     OW 4091   0.179   1.036   1.498
 1319SOL    HW1 4092   0.223   1.013   1.580
 1319SOL    HW2 4093   0.111   1.098   1.525
 1320SOL     OW 4094   2.053   2.484   3.030
 1320SOL    HW1 4095   1.968   2.485   2.986
 1320SOL    HW2 4096   2.102   2.556   2.990
 1321SOL     OW 4097   0.526   2.262   2.182
 1321SOL    HW1 4098   0.462   2.191   2.190
 1321SOL    HW2 4099   0.594   2.239   2.245
 1322SOL     OW 4100   1.393   3.431   2.797
 1322SOL    HW1 4101   1.411   3.380   2.718
 1322SOL    HW2 4102   1.321   3.386   2.840
 1323SOL     OW 4103   2.206   3.047   3.874
 1323SOL    HW1 4104   2.120   3.028   3.911
 1323SOL    HW2 4105   2.265   3.049   3.949
 1324SOL     OW 4106   3.517   2.993   2.594
 1324SOL    HW1 4107   3.440   2.984   2.650
 1324SOL    HW2 4108   3.587   2.950   2.642
 1325SOL     OW 4109   2.171   0.179   2.705
 1325SOL    HW1 4110   2.185   0.115   2.635
 1325SOL    HW2 4111   2.237   0.247   2.689
 1326SOL     OW 4112   1.166   0.038   2.976
 1326SOL    HW1 4113   1.170   0.095   3.053
 1326SOL    HW2 4114   1.114   0.087   2.912
 1327SOL     OW 4115   0.724   2.094   3.480
 1327SOL    HW1 4116   0.749   2.116   3.570
 1327SOL    HW2 4117   0.656   2.158   3.458
 1328SOL     OW 4118   0.855   2.536   1.409
 1328SOL    HW1 4119   0.819   2.624   1.404
 1328SOL    HW2 4120   0.852   2.514   1.502
 1329SOL     OW 4121   3.797   3.515   3.262
 1329SOL    HW1 4122   3.786   3.424   3.291
 1329SOL    HW2 4123   3.730   3.527   3.194
 1330SOL     OW 4124   0.992   3.601   3.135
 1330SOL    HW1 4125   0.988   3.516   3.091
 1330SOL    HW2 4126   1.079   3.635   3.114
 1331SOL     OW 4127   0.279   2.649   1.413
 1331SOL    HW1 4128   0.359   2.686   1.377
 1331SOL    HW2 4129   0.297   2.639   1.507
 1332SOL     OW 4130   1.609   3.262   1.403
 1332SOL    HW1 4131   1.622   3.335   1.342
 1332SOL    HW2 4132   1.697   3.232   1.424
 1333SOL     OW 4133   3.341   1.062   0.993
 1333SOL    HW1 4134   3.397   1.119   1.046
 1333SOL    HW2 4135   3.253   1.074   1.029
 1334SOL     OW 4136   2.494   2.913   0.667
 1334SOL    HW1 4137   2.475   3.007   0.673
 1334SOL    HW2 4138   2.557   2.897   0.737
 1335SOL     OW 4139   2.025   1.896   0.505
 1335SOL    HW1 4140   2.120   1.898   0.516
 1335SOL    HW2 4141   1.997   1.818   0.553
 1336SOL     OW 4142   2.053   1.850   2.993
 1336SOL    HW1 4143   2.141   1.848   2.956
 1336SOL    HW2 4144   2.046   1.937   3.033
 1337SOL     OW 4145   3.127   3.357   0.066
 1337SOL    HW1 4146   3.105   3.360   0.159
 1337SOL    HW2 4147   3.154   3.267   0.050
 1338SOL     OW 4148   3.480   3.641   2.251
 1338SOL    HW1 4149   3.529   3.561   2.230
 1338SOL    HW2 4150   3.537   3.690   2.309
 1339SOL     OW 4151   2.702   1.911   2.877
 1339SOL    HW1 4152   2.627   1.909   2.819
 1339SOL    HW2 4153   2.765   1.851   2.837
 1340SOL     OW 4154   0.977   2.838   3.041
 1340SOL    HW1 4155   1.063   2.859   3.006
 1340SOL    HW2 4156   0.916   2.888   2.986
 1341SOL     OW 4157   2.307   0.605   2.805
 1341SOL    HW1 4158   2.276   0.558   2.882
 1341SOL    HW2 4159   2.377   0.550   2.770
 1342SOL     OW 4160   3.626   1.470   2.377
 1342SOL    HW1 4161   3.699   1.416   2.408
 1342SOL    HW2 4162   3.612   1.534   2.446
 1343SOL     OW 4163   2.524   1.180   3.563
 1343SOL    HW1 4164   2.449   1.138   3.606
 1343SOL    HW2 4165   2.515   1.273   3.587
 1344SOL     OW 4166   2.984   2.261   2.994
 1344SOL    HW1 4167   3.054   2.326   2.991
 1344SOL    HW2 4168   3.029   2.179   3.014
 1345SOL     OW 4169   3.142   1.361   3.491
 1345SOL    HW1 4170   3.173   1.275   3.520
 1345SOL    HW2 4171   3.222   1.408   3.466
 1346SOL     OW 4172   0.995   2.315   2.735
 1346SOL    HW1 4173   0.948   2.328   2.817
 1346SOL    HW2 4174   0.959   2.233   2.700
 1347SOL     OW 4175   3.515   1.765   1.988
 1347SOL    HW1 4176   3.524   1.837   1.925
 1347SOL    HW2 4177   3.456   1.703   1.946
 1348SOL     OW 4178   2.764   1.671   3.096
 1348SOL    HW1 4179   2.746   1.728   3.021
 1348SOL    HW2 4180   2.817   1.601   3.059
 1349SOL     OW 4181   0.821   1.227   3.657
 1349SOL    HW1 4182   0.793   1.294   3.595
 1349SOL    HW2 4183   0.860   1.159   3.603
 1350SOL     OW 4184   1.306   3.278   2.546
 1350SOL    HW1 4185   1.215   3.258   2.522
 1350SOL    HW2 4186   1.335   3.339   2.478
 1351SOL     OW 4187   0.411   3.342   2.552
 1351SOL    HW1 4188   0.480   3.407   2.539
 1351SOL    HW2 4189   0.455   3.258   2.535
 1352SOL     OW 4190   2.424   0.194   2.832
 1352SOL    HW1 4191   2.441   0.117   2.776
 1352SOL    HW2 4192   2.354   0.165   2.890
 1353SOL     OW 4193   0.655   1.388   0.791
 1353SOL    HW1 4194   0.603   1.312   0.765
 1353SOL    HW2 4195   0.636   1.455   0.725
 1354SOL     OW 4196   1.396   0.213   0.400
 1354SOL    HW1 4197   1.439   0.135   0.365
 1354SOL    HW2 4198   1.375   0.190   0.490
 1355SOL     OW 4199   3.323   0.541   3.436
 1355SOL    HW1 4200   3.381   0.537   3.360
 1355SOL    HW2 4201   3.284   0.628   3.432
 1356SOL     OW 4202   3.742   3.351   1.419
 1356SOL    HW1 4203   3.822   3.301   1.407
 1356SOL    HW2 4204   3.681   3.288   1.459
 1357SOL     OW 4205   1.861   3.290   0.831
 1357SOL    HW1 4206   1.910   3.336   0.763
 1357SOL    HW2 4207   1.884   3.198   0.818
 1358SOL     OW 4208   3.718   3.470   0.748
 1358SOL    HW1 4209   3.674   3.489   0.831
 1358SOL    HW2 4210   3.714   3.375   0.740
 1359SOL     OW 4211   2.326   3.774   3.439
 1359SOL    HW1 4212   2.326   3.845   3.375
 1359SOL    HW2 4213   2.352   3.816   3.521
 1360SOL     OW 4214   1.264   2.286   0.947
 1360SOL    HW1 4215   1.354   2.314   0.931
 1360SOL    HW2 4216   1.265   2.191   0.934
 1361SOL     OW 4217   1.082   0.372   2.015
 1361SOL    HW1 4218   0.993   0.403   2.031
 1361SOL    HW2 4219   1.133   0.405   2.089
 1362SOL     OW 4220   0.037   3.479   3.096
 1362SOL    HW1 4221  -0.023   3.497   3.169
 1362SOL    HW2 4222  -0.012   3.419   3.040
 1363SOL     OW 4223   0.097   2.257   2.631
 1363SOL    HW1 4224   0.031   2.314   2.670
 1363SOL    HW2 4225   0.080   2.170   2.668
 1364SOL     OW 4226   0.028   0.189   0.917
 1364SOL    HW1 4227  -0.039   0.126   0.944
 1364SOL    HW2 4228   0.111   0.150   0.946
 1365SOL     OW 4229   3.153   3.855   3.128
 1365SOL    HW1 4230   3.197   3.844   3.212
 1365SOL    HW2 4231   3.202   3.799   3.068
 1366SOL     OW 4232   0.120   1.722   2.950
 1366SOL    HW1 4233   0.147   1.776   3.025
 1366SOL    HW2 4234   0.151   1.770   2.874
 1367SOL     OW 4235   0.864   3.130   2.156
 1367SOL    HW1 4236   0.780   3.170   2.136
 1367SOL    HW2 4237   0.926   3.171   2.095
 1368SOL     OW 4238   0.286   1.603   2.458
 1368SOL    HW1 4239   0.238   1.686   2.455
 1368SOL    HW2 4240   0.249   1.559   2.535
 1369SOL     OW 4241   2.631   1.655   3.663
 1369SOL    HW1 4242   2.685   1.642   3.585
 1369SOL    HW2 4243   2.578   1.732   3.644
 1370SOL     OW 4244   0.287   2.203   2.444
 1370SOL    HW1 4245   0.267   2.273   2.381
 1370SOL    HW2 4246   0.231   2.222   2.519
 1371SOL     OW 4247   2.675   1.584   1.129
 1371SOL    HW1 4248   2.747   1.590   1.066
 1371SOL    HW2 4249   2.596   1.578   1.074
 1372SOL     OW 4250   1.686   3.190   2.946
 1372SOL    HW1 4251   1.710   3.152   3.030
 1372SOL    HW2 4252   1.731   3.274   2.944
 1373SOL     OW 4253   2.307   1.133   1.001
 1373SOL    HW1 4254   2.350   1.049   0.982
 1373SOL    HW2 4255   2.335   1.153   1.091
 1374SOL     OW 4256   3.809   2.452   0.747
 1374SOL    HW1 4257   3.735   2.443   0.807
 1374SOL    HW2 4258   3.840   2.542   0.762
 1375SOL     OW 4259   3.294   1.737   0.223
 1375SOL    HW1 4260   3.262   1.825   0.204
 1375SOL    HW2 4261   3.268   1.722   0.314
 1376SOL     OW 4262   1.171   1.889   1.801
 1376SOL    HW1 4263   1.169   1.958   1.734
 1376SOL    HW2 4264   1.086   1.896   1.845
 1377SOL     OW 4265   2.348   0.634   3.166
 1377SOL    HW1 4266   2.283   0.644   3.235
 1377SOL    HW2 4267   2.309   0.571   3.105
 1378SOL     OW 4268   2.091   1.214   1.578
 1378SOL    HW1 4269   2.125   1.249   1.496
 1378SOL    HW2 4270   2.019   1.272   1.601
 1379SOL     OW 4271   3.075   2.156   3.991
 1379SOL    HW1 4272   3.113   2.223   3.933
 1379SOL    HW2 4273   3.003   2.119   3.941
 1380SOL     OW 4274   2.768   0.800   2.606
 1380SOL    HW1 4275   2.822   0.739   2.555
 1380SOL    HW2 4276   2.681   0.761   2.605
 1381SOL     OW 4277   2.580   3.182   2.626
 1381SOL    HW1 4278   2.516   3.139   2.681
 1381SOL    HW2 4279   2.614   3.113   2.570
 1382SOL     OW 4280   1.632   0.011   3.049
 1382SOL    HW1 4281   1.642   0.053   2.963
 1382SOL    HW2 4282   1.721  -0.002   3.080
 1383SOL     OW 4283   1.822   3.678   2.899
 1383SOL    HW1 4284   1.765   3.702   2.972
 1383SOL    HW2 4285   1.907   3.659   2.940
 1384SOL     OW 4286   3.102   0.892   3.745
 1384SOL    HW1 4287   3.061   0.974   3.771
 1384SOL    HW2 4288   3.055   0.865   3.667
 1385SOL     OW 4289   3.280   0.001   2.332
 1385SOL    HW1 4290   3.239   0.083   2.303
 1385SOL    HW2 4291   3.281   0.007   2.427
 1386SOL     OW 4292   0.042   2.546   0.373
 1386SOL    HW1 4293   0.022   2.457   0.403
 1386SOL    HW2 4294  -0.029   2.600   0.408
 1387SOL     OW 4295   2.936   2.687   0.673
 1387SOL    HW1 4296   2.851   2.650   0.699
 1387SOL    HW2 4297   2.957   2.642   0.591
 1388SOL     OW 4298   2.009   3.034   2.555
 1388SOL    HW1 4299   2.045   2.961   2.607
 1388SOL    HW2 4300   1.951   3.080   2.615
 1389SOL     OW 4301   2.191   0.225   1.598
 1389SOL    HW1 4302   2.284   0.229   1.573
 1389SOL    HW2 4303   2.175   0.309   1.641
 1390SOL     OW 4304   1.104   1.375   1.541
 1390SOL    HW1 4305   1.091   1.437   1.469
 1390SOL    HW2 4306   1.113   1.430   1.619
 1391SOL     OW 4307   0.251   0.766   3.065
 1391SOL    HW1 4308   0.255   0.671   3.062
 1391SOL    HW2 4309   0.280   0.794   2.979
 1392SOL     OW 4310   0.226   1.830   0.891
 1392SOL    HW1 4311   0.297   1.824   0.826
 1392SOL    HW2 4312   0.220   1.923   0.911
 1393SOL     OW 4313   0.037   3.314   1.656
 1393SOL    HW1 4314  -0.012   3.373   1.713
 1393SOL    HW2 4315   0.050   3.236   1.709
 1394SOL     OW 4316   2.498   2.583   0.786
 1394SOL    HW1 4317   2.523   2.663   0.740
 1394SOL    HW2 4318   2.580   2.544   0.814
 1395SOL     OW 4319   1.199   1.385   2.895
 1395SOL    HW1 4320   1.133   1.434   2.845
 1395SOL    HW2 4321   1.148   1.329   2.953
 1396SOL     OW 4322   0.792   1.842   0.053
 1396SOL    HW1 4323   0.824   1.754   0.035
 1396SOL    HW2 4324   0.720   1.855  -0.008
 1397SOL     OW 4325   3.918   1.413   1.173
 1397SOL    HW1 4326   3.863   1.361   1.115
 1397SOL    HW2 4327   3.999   1.427   1.124
 1398SOL     OW 4328   2.828   1.159   2.865
 1398SOL    HW1 4329   2.810   1.242   2.910
 1398SOL    HW2 4330   2.745   1.135   2.825
 1399SOL     OW 4331   0.683   2.421   0.221
 1399SOL    HW1 4332   0.717   2.499   0.266
 1399SOL    HW2 4333   0.704   2.435   0.129
 1400SOL     OW 4334   3.766   1.401   3.007
 1400SOL    HW1 4335   3.775   1.496   3.013
 1400SOL    HW2 4336   3.744   1.374   3.096
 1401SOL     OW 4337   2.241   3.182   0.869
 1401SOL    HW1 4338   2.231   3.094   0.905
 1401SOL    HW2 4339   2.194   3.238   0.930
 1402SOL     OW 4340   2.984   0.900   1.791
 1402SOL    HW1 4341   2.998   0.806   1.782
 1402SOL    HW2 4342   3.040   0.939   1.723
 1403SOL     OW 4343   2.836   3.552   3.449
 1403SOL    HW1 4344   2.870   3.640   3.462
 1403SOL    HW2 4345   2.762   3.563   3.389
 1404SOL     OW 4346   2.044   2.306   2.012
 1404SOL    HW1 4347   2.087   2.366   2.073
 1404SOL    HW2 4348   1.950   2.320   2.027
 1405SOL     OW 4349   2.796   1.905   2.441
 1405SOL    HW1 4350   2.846   1.823   2.443
 1405SOL    HW2 4351   2.708   1.879   2.416
 1406SOL     OW 4352   3.460   2.441   0.382
 1406SOL    HW1 4353   3.372   2.433   0.421
 1406SOL    HW2 4354   3.520   2.421   0.454
 1407SOL     OW 4355   1.791   3.259   1.140
 1407SOL    HW1 4356   1.697   3.248   1.131
 1407SOL    HW2 4357   1.816   3.311   1.063
 1408SOL     OW 4358   2.967   2.144   2.284
 1408SOL    HW1 4359   2.888   2.158   2.232
 1408SOL    HW2 4360   2.955   2.059   2.325
 1409SOL     OW 4361   0.957   3.838   2.845
 1409SOL    HW1 4362   0.966   3.745   2.867
 1409SOL    HW2 4363   0.999   3.883   2.918
 1410SOL     OW 4364   1.093   0.173   1.805
 1410SOL    HW1 4365   1.101   0.231   1.880
 1410SOL    HW2 4366   1.048   0.226   1.739
 1411SOL     OW 4367   0.976   3.427   1.721
 1411SOL    HW1 4368   1.055   3.480   1.709
 1411SOL    HW2 4369   0.974   3.407   1.814
 1412SOL     OW 4370   1.453   1.762   0.213
 1412SOL    HW1 4371   1.541   1.798   0.200
 1412SOL    HW2 4372   1.395   1.826   0.171
 1413SOL     OW 4373   0.233   1.812   1.330
 1413SOL    HW1 4374   0.181   1.749   1.280
 1413SOL    HW2 4375   0.177   1.833   1.405
 1414SOL     OW 4376   1.392   0.864   3.076
 1414SOL    HW1 4377   1.469   0.867   3.018
 1414SOL    HW2 4378   1.324   0.822   3.024
 1415SOL     OW 4379   0.741   1.411   2.928
 1415SOL    HW1 4380   0.667   1.381   2.980
 1415SOL    HW2 4381   0.709   1.488   2.882
 1416SOL     OW 4382   1.653   0.828   2.914
 1416SOL    HW1 4383   1.711   0.755   2.893
 1416SOL    HW2 4384   1.618   0.856   2.829
 1417SOL     OW 4385   0.501   0.345   2.812
 1417SOL    HW1 4386   0.467   0.269   2.857
 1417SOL    HW2 4387   0.596   0.335   2.816
 1418SOL     OW 4388   3.175   2.427   2.194
 1418SOL    HW1 4389   3.117   2.442   2.269
 1418SOL    HW2 4390   3.170   2.509   2.144
 1419SOL     OW 4391   3.555   0.554   2.426
 1419SOL    HW1 4392   3.638   0.544   2.473
 1419SOL    HW2 4393   3.570   0.511   2.341
 1420SOL     OW 4394   0.353   1.003   2.022
 1420SOL    HW1 4395   0.330   1.086   2.063
 1420SOL    HW2 4396   0.428   1.024   1.966
 1421SOL     OW 4397   2.052   3.834   3.543
 1421SOL    HW1 4398   2.034   3.921   3.506
 1421SOL    HW2 4399   2.147   3.834   3.557
 1422SOL     OW 4400   3.296   2.953   3.239
 1422SOL    HW1 4401   3.218   2.899   3.252
 1422SOL    HW2 4402   3.348   2.905   3.174
 1423SOL     OW 4403   3.802   0.445   0.909
 1423SOL    HW1 4404   3.857   0.422   0.835
 1423SOL    HW2 4405   3.756   0.364   0.931
 1424SOL     OW 4406   3.567   0.213   1.670
 1424SOL    HW1 4407   3.540   0.160   1.594
 1424SOL    HW2 4408   3.596   0.149   1.735
 1425SOL     OW 4409   2.554   2.179   1.961
 1425SOL    HW1 4410   2.580   2.090   1.938
 1425SOL    HW2 4411   2.473   2.168   2.010
 1426SOL     OW 4412   1.803   2.249   2.855
 1426SOL    HW1 4413   1.749   2.205   2.920
 1426SOL    HW2 4414   1.893   2.234   2.883
 1427SOL     OW 4415   0.274   3.606   2.919
 1427SOL    HW1 4416   0.202   3.564   2.967
 1427SOL    HW2 4417   0.240   3.617   2.830
 1428SOL     OW 4418   2.266   3.740   0.318
 1428SOL    HW1 4419   2.311   3.737   0.233
 1428SOL    HW2 4420   2.265   3.649   0.347
 1429SOL     OW 4421   3.788   3.427   2.515
 1429SOL    HW1 4422   3.727   3.354   2.512
 1429SOL    HW2 4423   3.737   3.502   2.484
 1430SOL     OW 4424   1.529   1.492   0.185
 1430SOL    HW1 4425   1.624   1.484   0.173
 1430SOL    HW2 4426   1.516   1.582   0.213
 1431SOL     OW 4427   0.910   3.533   1.244
 1431SOL    HW1 4428   0.826   3.580   1.238
 1431SOL    HW2 4429   0.943   3.555   1.331
 1432SOL     OW 4430   2.432   1.475   3.567
 1432SOL    HW1 4431   2.360   1.466   3.628
 1432SOL    HW2 4432   2.506   1.505   3.620
 1433SOL     OW 4433   2.249   2.876   1.501
 1433SOL    HW1 4434   2.314   2.934   1.460
 1433SOL    HW2 4435   2.297   2.796   1.520
 1434SOL     OW 4436   0.618   2.600   0.957
 1434SOL    HW1 4437   0.696   2.563   0.998
 1434SOL    HW2 4438   0.652   2.664   0.894
 1435SOL     OW 4439   3.591   1.595   2.783
 1435SOL    HW1 4440   3.556   1.582   2.871
 1435SOL    HW2 4441   3.558   1.520   2.733
 1436SOL     OW 4442   3.451   2.621   0.166
 1436SOL    HW1 4443   3.381   2.678   0.199
 1436SOL    HW2 4444   3.469   2.561   0.238
 1437SOL     OW 4445   1.981   0.261   0.766
 1437SOL    HW1 4446   1.975   0.213   0.848
 1437SOL    HW2 4447   2.024   0.343   0.790
 1438SOL     OW 4448   2.266   1.868   3.557
 1438SOL    HW1 4449   2.269   1.960   3.528
 1438SOL    HW2 4450   2.355   1.851   3.589
 1439SOL     OW 4451   1.341   1.648   2.030
 1439SOL    HW1 4452   1.332   1.557   2.001
 1439SOL    HW2 4453   1.294   1.652   2.113
 1440SOL     OW 4454   0.835   2.355   2.979
 1440SOL    HW1 4455   0.858   2.444   3.006
 1440SOL    HW2 4456   0.752   2.338   3.023
 1441SOL     OW 4457   3.621   3.183   0.349
 1441SOL    HW1 4458   3.538   3.217   0.382
 1441SOL    HW2 4459   3.648   3.245   0.282
 1442SOL     OW 4460   0.354   2.058   3.115
 1442SOL    HW1 4461   0.305   2.136   3.090
 1442SOL    HW2 4462   0.439   2.068   3.073
 1443SOL     OW 4463   0.236   2.851   2.263
 1443SOL    HW1 4464   0.159   2.855   2.206
 1443SOL    HW2 4465   0.310   2.843   2.203
 1444SOL     OW 4466   2.580   1.697   3.285
 1444SOL    HW1 4467   2.572   1.785   3.320
 1444SOL    HW2 4468   2.644   1.704   3.214
 1445SOL     OW 4469   0.241   3.306   3.652
 1445SOL    HW1 4470   0.253   3.300   3.747
 1445SOL    HW2 4471   0.323   3.344   3.621
 1446SOL     OW 4472   1.109   3.689   1.801
 1446SOL    HW1 4473   1.179   3.754   1.791
 1446SOL    HW2 4474   1.133   3.642   1.881
 1447SOL     OW 4475   1.355   3.724   1.260
 1447SOL    HW1 4476   1.299   3.703   1.185
 1447SOL    HW2 4477   1.444   3.714   1.228
 1448SOL     OW 4478   2.781   3.379   1.655
 1448SOL    HW1 4479   2.872   3.373   1.624
 1448SOL    HW2 4480   2.736   3.430   1.587
 1449SOL     OW 4481   1.860   3.920   0.086
 1449SOL    HW1 4482   1.839   3.837   0.128
 1449SOL    HW2 4483   1.919   3.897   0.015
 1450SOL     OW 4484   1.983   2.953   0.078
 1450SOL    HW1 4485   1.917   2.899   0.121
 1450SOL    HW2 4486   1.947   3.041   0.078
 1451SOL     OW 4487   1.013   1.105   2.008
 1451SOL    HW1 4488   1.098   1.150   2.013
 1451SOL    HW2 4489   0.957   1.167   1.962
 1452SOL     OW 4490   3.914   0.051   1.642
 1452SOL    HW1 4491   3.879   0.017   1.560
 1452SOL    HW2 4492   3.885   0.142   1.644
 1453SOL     OW 4493   0.715   0.095   2.592
 1453SOL    HW1 4494   0.742   0.064   2.679
 1453SOL    HW2 4495   0.661   0.024   2.558
 1454SOL     OW 4496   2.240   2.057   2.344
 1454SOL    HW1 4497   2.286   2.083   2.264
 1454SOL    HW2 4498   2.235   1.961   2.338
 1455SOL     OW 4499   0.339   0.732   1.087
 1455SOL    HW1 4500   0.248   0.721   1.061
 1455SOL    HW2 4501   0.336   0.739   1.182
 1456SOL     OW 4502   0.883   3.300   2.798
 1456SOL    HW1 4503   0.962   3.274   2.750
 1456SOL    HW2 4504   0.845   3.370   2.745
 1457SOL     OW 4505   3.012   1.797   3.214
 1457SOL    HW1 4506   3.065   1.730   3.171
 1457SOL    HW2 4507   2.924   1.785   3.178
 1458SOL     OW 4508   1.868   1.556   0.839
 1458SOL    HW1 4509   1.867   1.464   0.864
 1458SOL    HW2 4510   1.793   1.594   0.885
 1459SOL     OW 4511   2.162   1.823   1.849
 1459SOL    HW1 4512   2.150   1.855   1.938
 1459SOL    HW2 4513   2.075   1.830   1.809
 1460SOL     OW 4514   2.822   2.794   3.797
 1460SOL    HW1 4515   2.785   2.873   3.836
 1460SOL    HW2 4516   2.912   2.790   3.830
 1461SOL     OW 4517   2.088   0.808   0.846
 1461SOL    HW1 4518   2.086   0.746   0.773
 1461SOL    HW2 4519   2.035   0.767   0.914
 1462SOL     OW 4520   0.891   0.468   3.549
 1462SOL    HW1 4521   0.863   0.434   3.634
 1462SOL    HW2 4522   0.859   0.403   3.485
 1463SOL     OW 4523   2.672   0.978   0.840
 1463SOL    HW1 4524   2.731   0.906   0.862
 1463SOL    HW2 4525   2.607   0.939   0.781
 1464SOL     OW 4526   0.520   3.092   2.488
 1464SOL    HW1 4527   0.485   3.046   2.411
 1464SOL    HW2 4528   0.485   3.042   2.562
 1465SOL     OW 4529   2.158   3.168   1.279
 1465SOL    HW1 4530   2.247   3.140   1.301
 1465SOL    HW2 4531   2.142   3.243   1.336
 1466SOL     OW 4532   1.216   3.640   2.734
 1466SOL    HW1 4533   1.241   3.722   2.778
 1466SOL    HW2 4534   1.277   3.575   2.770
 1467SOL     OW 4535   0.258   3.858   0.741
 1467SOL    HW1 4536   0.230   3.949   0.753
 1467SOL    HW2 4537   0.288   3.831   0.828
 1468SOL     OW 4538   2.930   2.658   1.949
 1468SOL    HW1 4539   2.950   2.736   1.897
 1468SOL    HW2 4540   2.953   2.585   1.892
 1469SOL     OW 4541   2.078   1.580   2.728
 1469SOL    HW1 4542   1.993   1.553   2.764
 1469SOL    HW2 4543   2.120   1.629   2.799
 1470SOL     OW 4544   1.842   1.604   1.199
 1470SOL    HW1 4545   1.897   1.593   1.122
 1470SOL    HW2 4546   1.753   1.599   1.166
 1471SOL     OW 4547   2.892   2.428   2.543
 1471SOL    HW1 4548   2.973   2.379   2.526
 1471SOL    HW2 4549   2.841   2.372   2.601
 1472SOL     OW 4550   1.802   3.802   3.641
 1472SOL    HW1 4551   1.868   3.840   3.584
 1472SOL    HW2 4552   1.782   3.717   3.602
 1473SOL     OW 4553   1.185   1.147   3.815
 1473SOL    HW1 4554   1.260   1.096   3.786
 1473SOL    HW2 4555   1.221   1.234   3.835
 1474SOL     OW 4556   3.313   1.975   3.786
 1474SOL    HW1 4557   3.326   2.068   3.804
 1474SOL    HW2 4558   3.386   1.952   3.728
 1475SOL     OW 4559   2.259   0.856   2.056
 1475SOL    HW1 4560   2.193   0.917   2.090
 1475SOL    HW2 4561   2.322   0.846   2.128
 1476SOL     OW 4562   1.718   2.340   1.173
 1476SOL    HW1 4563   1.720   2.435   1.185
 1476SOL    HW2 4564   1.641   2.311   1.222
 1477SOL     OW 4565   2.984   0.630   1.713
 1477SOL    HW1 4566   3.037   0.556   1.741
 1477SOL    HW2 4567   3.035   0.673   1.645
 1478SOL     OW 4568   2.080   0.413   3.492
 1478SOL    HW1 4569   2.093   0.453   3.578
 1478SOL    HW2 4570   2.168   0.399   3.458
 1479SOL     OW 4571   1.363   2.408   1.625
 1479SOL    HW1 4572   1.399   2.466   1.691
 1479SOL    HW2 4573   1.311   2.465   1.568
 1480SOL     OW 4574   0.450   1.809   1.530
 1480SOL    HW1 4575   0.379   1.757   1.491
 1480SOL    HW2 4576   0.529   1.776   1.486
 1481SOL     OW 4577   2.937   1.115   0.694
 1481SOL    HW1 4578   2.863   1.176   0.695
 1481SOL    HW2 4579   2.969   1.118   0.604
 1482SOL     OW 4580   2.630   0.208   2.184
 1482SOL    HW1 4581   2.659   0.262   2.111
 1482SOL    HW2 4582   2.705   0.153   2.206
 1483SOL     OW 4583   3.166   1.321   0.261
 1483SOL    HW1 4584   3.108   1.364   0.198
 1483SOL    HW2 4585   3.108   1.265   0.312
 1484SOL     OW 4586   2.410   3.908   3.669
 1484SOL    HW1 4587   2.454   3.978   3.620
 1484SOL    HW2 4588   2.381   3.951   3.750
 1485SOL     OW 4589   0.579   1.082   1.250
 1485SOL    HW1 4590   0.490   1.114   1.236
 1485SOL    HW2 4591   0.616   1.145   1.312
 1486SOL     OW 4592   3.006   2.393   1.444
 1486SOL    HW1 4593   2.911   2.379   1.442
 1486SOL    HW2 4594   3.039   2.323   1.500
 1487SOL     OW 4595   1.540   1.336   1.803
 1487SOL    HW1 4596   1.520   1.264   1.743
 1487SOL    HW2 4597   1.617   1.379   1.765
 1488SOL     OW 4598   1.674   0.198   3.362
 1488SOL    HW1 4599   1.627   0.248   3.295
 1488SOL    HW2 4600   1.670   0.252   3.440
 1489SOL     OW 4601   0.790   2.080   2.889
 1489SOL    HW1 4602   0.818   2.160   2.934
 1489SOL    HW2 4603   0.872   2.033   2.870
 1490SOL     OW 4604   3.375   1.388   0.106
 1490SOL    HW1 4605   3.363   1.387   0.011
 1490SOL    HW2 4606   3.305   1.332   0.139
 1491SOL     OW 4607   1.258   0.424   3.105
 1491SOL    HW1 4608   1.256   0.402   3.012
 1491SOL    HW2 4609   1.247   0.519   3.107
 1492SOL     OW 4610   0.273   1.900   2.491
 1492SOL    HW1 4611   0.251   1.989   2.465
 1492SOL    HW2 4612   0.340   1.910   2.559
 1493SOL     OW 4613   3.557   0.149   0.578
 1493SOL    HW1 4614   3.594   0.236   0.591
 1493SOL    HW2 4615   3.627   0.089   0.603
 1494SOL     OW 4616   3.454   1.954   0.475
 1494SOL    HW1 4617   3.389   1.896   0.514
 1494SOL    HW2 4618   3.497   1.996   0.550
 1495SOL     OW 4619   1.459   0.308   2.402
 1495SOL    HW1 4620   1.382   0.259   2.372
 1495SOL    HW2 4621   1.533   0.259   2.367
 1496SOL     OW 4622   1.309   0.950   0.728
 1496SOL    HW1 4623   1.271   0.948   0.641
 1496SOL    HW2 4624   1.395   0.909   0.717
 1497SOL     OW 4625   3.561   2.041   0.857
 1497SOL    HW1 4626   3.575   2.054   0.951
 1497SOL    HW2 4627   3.642   2.001   0.826
 1498SOL     OW 4628   0.180   1.575   2.161
 1498SOL    HW1 4629   0.101   1.524   2.179
 1498SOL    HW2 4630   0.233   1.566   2.240
 1499SOL     OW 4631   2.634   3.915   3.339
 1499SOL    HW1 4632   2.714   3.946   3.298
 1499SOL    HW2 4633   2.663   3.867   3.416
 1500SOL     OW 4634   2.438   2.850   1.866
 1500SOL    HW1 4635   2.480   2.804   1.793
 1500SOL    HW2 4636   2.383   2.783   1.907
 1501SOL     OW 4637   1.929   0.833   2.618
 1501SOL    HW1 4638   1.964   0.751   2.651
 1501SOL    HW2 4639   1.983   0.901   2.660
 1502SOL     OW 4640   3.561   0.208   0.949
 1502SOL    HW1 4641   3.554   0.126   0.999
 1502SOL    HW2 4642   3.492   0.202   0.883
 1503SOL     OW 4643   0.743   0.716   0.418
 1503SOL    HW1 4644   0.776   0.744   0.333
 1503SOL    HW2 4645   0.648   0.727   0.412
 1504SOL     OW 4646   3.521   3.578   2.601
 1504SOL    HW1 4647   3.570   3.645   2.553
 1504SOL    HW2 4648   3.430   3.592   2.577
 1505SOL     OW 4649   3.413   1.034   2.364
 1505SOL    HW1 4650   3.502   1.071   2.364
 1505SOL    HW2 4651   3.398   1.009   2.455
 1506SOL     OW 4652   1.717   3.516   3.564
 1506SOL    HW1 4653   1.802   3.548   3.532
 1506SOL    HW2 4654   1.675   3.478   3.487
 1507SOL     OW 4655   2.836   0.965   1.353
 1507SOL    HW1 4656   2.899   0.952   1.424
 1507SOL    HW2 4657   2.802   0.877   1.336
 1508SOL     OW 4658   0.807   2.819   1.421
 1508SOL    HW1 4659   0.827   2.887   1.357
 1508SOL    HW2 4660   0.735   2.854   1.472
 1509SOL     OW 4661   2.804   1.816   2.107
 1509SOL    HW1 4662   2.868   1.768   2.160
 1509SOL    HW2 4663   2.725   1.763   2.110
 1510SOL     OW 4664   1.752   1.646   1.516
 1510SOL    HW1 4665   1.829   1.673   1.466
 1510SOL    HW2 4666   1.765   1.684   1.603
 1511SOL     OW 4667   2.980   1.440   0.102
 1511SOL    HW1 4668   2.985   1.464   0.010
 1511SOL    HW2 4669   2.922   1.505   0.141
 1512SOL     OW 4670   1.686   2.755   1.856
 1512SOL    HW1 4671   1.700   2.746   1.950
 1512SOL    HW2 4672   1.696   2.848   1.838
 1513SOL     OW 4673   1.078   1.916   0.630
 1513SOL    HW1 4674   1.083   1.862   0.709
 1513SOL    HW2 4675   1.123   1.997   0.654
 1514SOL     OW 4676   0.977   0.638   1.556
 1514SOL    HW1 4677   1.018   0.588   1.626
 1514SOL    HW2 4678   1.043   0.702   1.529
 1515SOL     OW 4679   1.436   3.773   0.102
 1515SOL    HW1 4680   1.512   3.733   0.061
 1515SOL    HW2 4681   1.361   3.732   0.059
 1516SOL     OW 4682   2.553   1.299   0.702
 1516SOL    HW1 4683   2.465   1.288   0.738
 1516SOL    HW2 4684   2.611   1.256   0.766
 1517SOL     OW 4685   0.874   1.988   1.671
 1517SOL    HW1 4686   0.873   1.941   1.754
 1517SOL    HW2 4687   0.789   2.032   1.667
 1518SOL     OW 4688   3.016   2.527   1.119
 1518SOL    HW1 4689   2.967   2.595   1.073
 1518SOL    HW2 4690   3.086   2.574   1.165
 1519SOL     OW 4691   2.046   1.664   1.022
 1519SOL    HW1 4692   2.006   1.741   0.982
 1519SOL    HW2 4693   2.035   1.594   0.958
 1520SOL     OW 4694   0.654   1.440   2.270
 1520SOL    HW1 4695   0.636   1.498   2.343
 1520SOL    HW2 4696   0.595   1.468   2.201
 1521SOL     OW 4697   3.677   2.390   0.189
 1521SOL    HW1 4698   3.656   2.301   0.216
 1521SOL    HW2 4699   3.630   2.445   0.252
 1522SOL     OW 4700   3.637   3.509   0.165
 1522SOL    HW1 4701   3.546   3.536   0.158
 1522SOL    HW2 4702   3.687   3.586   0.138
 1523SOL     OW 4703   0.863   1.923   0.432
 1523SOL    HW1 4704   0.930   1.910   0.499
 1523SOL    HW2 4705   0.867   2.016   0.412
 1524SOL     OW 4706   1.812   0.554   3.569
 1524SOL    HW1 4707   1.815   0.463   3.540
 1524SOL    HW2 4708   1.755   0.598   3.506
 1525SOL     OW 4709   1.750   1.726   0.219
 1525SOL    HW1 4710   1.708   1.786   0.280
 1525SOL    HW2 4711   1.758   1.776   0.138
 1526SOL     OW 4712   2.024   0.162   3.457
 1526SOL    HW1 4713   1.975   0.150   3.376
 1526SOL    HW2 4714   2.042   0.256   3.460
 1527SOL     OW 4715   1.911   0.071   2.181
 1527SOL    HW1 4716   1.879  -0.015   2.151
 1527SOL    HW2 4717   1.965   0.102   2.108
 1528SOL     OW 4718   2.379   0.091   1.775
 1528SOL    HW1 4719   2.456   0.107   1.719
 1528SOL    HW2 4720   2.318   0.161   1.752
 1529SOL     OW 4721   1.149   1.994   2.357
 1529SOL    HW1 4722   1.205   2.059   2.315
 1529SOL    HW2 4723   1.203   1.915   2.363
 1530SOL     OW 4724   2.252   2.827   0.282
 1530SOL    HW1 4725   2.305   2.797   0.356
 1530SOL    HW2 4726   2.173   2.773   0.285
 1531SOL     OW 4727   1.304   3.070   2.696
 1531SOL    HW1 4728   1.329   3.148   2.646
 1531SOL    HW2 4729   1.256   3.015   2.633
 1532SOL     OW 4730   3.417   1.779   1.557
 1532SOL    HW1 4731   3.462   1.824   1.486
 1532SOL    HW2 4732   3.344   1.837   1.580
 1533SOL     OW 4733   3.227   2.226   3.298
 1533SOL    HW1 4734   3.226   2.222   3.203
 1533SOL    HW2 4735   3.196   2.314   3.319
 1534SOL     OW 4736   1.542   1.846   1.443
 1534SOL    HW1 4737   1.532   1.812   1.532
 1534SOL    HW2 4738   1.461   1.895   1.427
 1535SOL     OW 4739   1.545   0.470   0.341
 1535SOL    HW1 4740   1.464   0.441   0.382
 1535SOL    HW2 4741   1.576   0.393   0.293
 1536SOL     OW 4742   2.553   1.130   1.197
 1536SOL    HW1 4743   2.554   1.223   1.223
 1536SOL    HW2 4744   2.615   1.125   1.124
 1537SOL     OW 4745   3.211   2.665   2.437
 1537SOL    HW1 4746   3.178   2.730   2.374
 1537SOL    HW2 4747   3.197   2.706   2.522
 1538SOL     OW 4748   1.987   2.158   3.023
 1538SOL    HW1 4749   2.064   2.210   3.043
 1538SOL    HW2 4750   1.928   2.174   3.097
 1539SOL     OW 4751   0.451   0.966   0.991
 1539SOL    HW1 4752   0.422   1.000   1.076
 1539SOL    HW2 4753   0.434   0.872   0.995
 1540SOL     OW 4754   1.000   0.095   0.470
 1540SOL    HW1 4755   1.028   0.065   0.557
 1540SOL    HW2 4756   0.979   0.187   0.483
 1541SOL     OW 4757   2.908   1.319   1.920
 1541SOL    HW1 4758   2.952   1.328   1.836
 1541SOL    HW2 4759   2.910   1.408   1.958
 1542SOL     OW 4760   0.679   3.889   2.130
 1542SOL    HW1 4761   0.733   3.946   2.184
 1542SOL    HW2 4762   0.739   3.821   2.100
 1543SOL     OW 4763   0.017   0.950   2.043
 1543SOL    HW1 4764   0.009   0.952   2.138
 1543SOL    HW2 4765   0.100   0.995   2.025
 1544SOL     OW 4766   0.869   3.423   2.371
 1544SOL    HW1 4767   0.848   3.334   2.400
 1544SOL    HW2 4768   0.964   3.427   2.373
 1545SOL     OW 4769   0.150   1.832   0.097
 1545SOL    HW1 4770   0.103   1.916   0.103
 1545SOL    HW2 4771   0.221   1.841   0.160
 1546SOL     OW 4772   0.171   2.306   1.241
 1546SOL    HW1 4773   0.189   2.400   1.240
 1546SOL    HW2 4774   0.253   2.266   1.271
 1547SOL     OW 4775   0.657   2.125   1.583
 1547SOL    HW1 4776   0.570   2.085   1.577
 1547SOL    HW2 4777   0.685   2.135   1.492
 1548SOL     OW 4778   2.840   1.634   0.917
 1548SOL    HW1 4779   2.865   1.726   0.921
 1548SOL    HW2 4780   2.864   1.606   0.829
 1549SOL     OW 4781   2.857   2.216   1.871
 1549SOL    HW1 4782   2.769   2.222   1.909
 1549SOL    HW2 4783   2.911   2.178   1.940
 1550SOL     OW 4784   2.817   1.040   2.517
 1550SOL    HW1 4785   2.905   1.060   2.550
 1550SOL    HW2 4786   2.803   0.948   2.539
 1551SOL     OW 4787   2.490   0.452   3.952
 1551SOL    HW1 4788   2.546   0.464   3.875
 1551SOL    HW2 4789   2.444   0.535   3.962
 1552SOL     OW 4790   0.292   2.968   1.658
 1552SOL    HW1 4791   0.198   2.955   1.651
 1552SOL    HW2 4792   0.307   2.984   1.752
 1553SOL     OW 4793   2.675   0.976   2.191
 1553SOL    HW1 4794   2.715   0.990   2.105
 1553SOL    HW2 4795   2.745   0.938   2.244
 1554SOL     OW 4796   1.742   2.429   0.626
 1554SOL    HW1 4797   1.720   2.347   0.669
 1554SOL    HW2 4798   1.663   2.483   0.634
 1555SOL     OW 4799   0.028   2.978   1.620
 1555SOL    HW1 4800   0.001   2.998   1.709
 1555SOL    HW2 4801  -0.016   2.895   1.599
 1556SOL     OW 4802   2.922   0.711   3.148
 1556SOL    HW1 4803   2.868   0.659   3.207
 1556SOL    HW2 4804   2.868   0.724   3.071
 1557SOL     OW 4805   0.162   0.728   3.345
 1557SOL    HW1 4806   0.185   0.806   3.396
 1557SOL    HW2 4807   0.182   0.752   3.254
 1558SOL     OW 4808   0.916   1.499   3.168
 1558SOL    HW1 4809   0.967   1.576   3.144
 1558SOL    HW2 4810   0.853   1.488   3.097
 1559SOL     OW 4811   3.685   0.590   0.058
 1559SOL    HW1 4812   3.719   0.618  -0.027
 1559SOL    HW2 4813   3.619   0.524   0.037
 1560SOL     OW 4814   0.327   0.498   0.191
 1560SOL    HW1 4815   0.249   0.456   0.154
 1560SOL    HW2 4816   0.368   0.429   0.244
 1561SOL     OW 4817   0.236   1.987   2.856
 1561SOL    HW1 4818   0.329   1.964   2.853
 1561SOL    HW2 4819   0.230   2.055   2.923
 1562SOL     OW 4820   2.821   1.718   3.460
 1562SOL    HW1 4821   2.832   1.729   3.365
 1562SOL    HW2 4822   2.882   1.649   3.483
 1563SOL     OW 4823   1.370   0.603   3.939
 1563SOL    HW1 4824   1.351   0.641   3.853
 1563SOL    HW2 4825   1.454   0.643   3.964
 1564SOL     OW 4826   1.681   1.308   0.379
 1564SOL    HW1 4827   1.598   1.356   0.384
 1564SOL    HW2 4828   1.703   1.289   0.470
 1565SOL     OW 4829   1.463   1.566   3.758
 1565SOL    HW1 4830   1.476   1.472   3.757
 1565SOL    HW2 4831   1.429   1.584   3.846
 1566SOL     OW 4832   3.397   3.274   3.893
 1566SOL    HW1 4833   3.426   3.305   3.979
 1566SOL    HW2 4834   3.359   3.351   3.852
 1567SOL     OW 4835   2.517   2.905   2.778
 1567SOL    HW1 4836   2.487   2.840   2.842
 1567SOL    HW2 4837   2.603   2.873   2.749
 1568SOL     OW 4838   1.411   0.346   1.079
 1568SOL    HW1 4839   1.349   0.404   1.124
 1568SOL    HW2 4840   1.465   0.310   1.149
 1569SOL     OW 4841   3.119   1.417   1.738
 1569SOL    HW1 4842   3.205   1.378   1.755
 1569SOL    HW2 4843   3.134   1.479   1.668
 1570SOL     OW 4844   2.205   0.601   1.893
 1570SOL    HW1 4845   2.155   0.546   1.953
 1570SOL    HW2 4846   2.213   0.685   1.938
 1571SOL     OW 4847   2.851   2.468   3.218
 1571SOL    HW1 4848   2.813   2.458   3.131
 1571SOL    HW2 4849   2.836   2.384   3.260
 1572SOL     OW 4850   2.136   2.187   0.542
 1572SOL    HW1 4851   2.231   2.183   0.529
 1572SOL    HW2 4852   2.121   2.140   0.623
 1573SOL     OW 4853   1.544   1.873   1.043
 1573SOL    HW1 4854   1.549   1.781   1.015
 1573SOL    HW2 4855   1.578   1.873   1.132
 1574SOL     OW 4856   3.097   1.489   1.075
 1574SOL    HW1 4857   3.168   1.441   1.033
 1574SOL    HW2 4858   3.018   1.439   1.055
 1575SOL     OW 4859   0.976   0.885   2.189
 1575SOL    HW1 4860   0.996   0.923   2.274
 1575SOL    HW2 4861   0.972   0.960   2.130
 1576SOL     OW 4862   2.744   1.759   3.894
 1576SOL    HW1 4863   2.821   1.703   3.887
 1576SOL    HW2 4864   2.685   1.727   3.825
 1577SOL     OW 4865   0.680   2.954   3.335
 1577SOL    HW1 4866   0.608   2.925   3.279
 1577SOL    HW2 4867   0.684   3.049   3.322
 1578SOL     OW 4868   0.907   0.360   2.386
 1578SOL    HW1 4869   0.942   0.365   2.475
 1578SOL    HW2 4870   0.926   0.446   2.348
 1579SOL     OW 4871   1.722   1.295   0.637
 1579SOL    HW1 4872   1.646   1.272   0.691
 1579SOL    HW2 4873   1.719   1.391   0.633
 1580SOL     OW 4874   1.950   0.769   2.106
 1580SOL    HW1 4875   1.869   0.792   2.149
 1580SOL    HW2 4876   1.991   0.705   2.165
 1581SOL     OW 4877   3.823   3.729   1.750
 1581SOL    HW1 4878   3.823   3.822   1.731
 1581SOL    HW2 4879   3.734   3.700   1.728
 1582SOL     OW 4880   1.645   1.315   3.788
 1582SOL    HW1 4881   1.635   1.230   3.745
 1582SOL    HW2 4882   1.658   1.294   3.880
 1583SOL     OW 4883   0.122   3.153   2.987
 1583SOL    HW1 4884   0.122   3.171   2.893
 1583SOL    HW2 4885   0.153   3.063   2.995
 1584SOL     OW 4886   3.508   1.543   1.615
 1584SOL    HW1 4887   3.483   1.491   1.539
 1584SOL    HW2 4888   3.471   1.630   1.598
 1585SOL     OW 4889   0.792   1.405   1.016
 1585SOL    HW1 4890   0.739   1.478   1.048
 1585SOL    HW2 4891   0.747   1.377   0.936
 1586SOL     OW 4892   3.610   3.141   1.808
 1586SOL    HW1 4893   3.549   3.089   1.861
 1586SOL    HW2 4894   3.615   3.226   1.854
 1587SOL     OW 4895   0.580   0.137   1.457
 1587SOL    HW1 4896   0.537   0.059   1.492
 1587SOL    HW2 4897   0.536   0.210   1.501
 1588SOL     OW 4898   1.612   3.249   3.881
 1588SOL    HW1 4899   1.591   3.339   3.855
 1588SOL    HW2 4900   1.707   3.243   3.875
 1589SOL     OW 4901   2.169   2.686   2.506
 1589SOL    HW1 4902   2.152   2.658   2.416
 1589SOL    HW2 4903   2.231   2.758   2.498
 1590SOL     OW 4904   3.409   1.044   3.817
 1590SOL    HW1 4905   3.418   0.963   3.768
 1590SOL    HW2 4906   3.419   1.018   3.909
 1591SOL     OW 4907   3.064   0.493   2.758
 1591SOL    HW1 4908   3.155   0.514   2.777
 1591SOL    HW2 4909   3.067   0.440   2.679
 1592SOL     OW 4910   3.613   0.964   1.757
 1592SOL    HW1 4911   3.625   1.016   1.677
 1592SOL    HW2 4912   3.528   0.993   1.792
 1593SOL     OW 4913   2.390   1.739   1.184
 1593SOL    HW1 4914   2.482   1.714   1.185
 1593SOL    HW2 4915   2.379   1.788   1.103
 1594SOL     OW 4916   0.416   2.206   1.303
 1594SOL    HW1 4917   0.490   2.158   1.264
 1594SOL    HW2 4918   0.455   2.289   1.333
 1595SOL     OW 4919   2.326   0.222   2.083
 1595SOL    HW1 4920   2.280   0.174   2.014
 1595SOL    HW2 4921   2.414   0.236   2.049
 1596SOL     OW 4922   3.555   3.858   0.993
 1596SOL    HW1 4923   3.515   3.804   1.061
 1596SOL    HW2 4924   3.532   3.815   0.911
 1597SOL     OW 4925   2.807   2.049   1.396
 1597SOL    HW1 4926   2.812   1.957   1.423
 1597SOL    HW2 4927   2.829   2.098   1.475
 1598SOL     OW 4928   2.139   2.177   3.862
 1598SOL    HW1 4929   2.161   2.241   3.929
 1598SOL    HW2 4930   2.043   2.173   3.864
 1599SOL     OW 4931   3.658   0.547   1.420
 1599SOL    HW1 4932   3.721   0.482   1.387
 1599SOL    HW2 4933   3.585   0.542   1.359
 1600SOL     OW 4934   2.847   1.688   2.817
 1600SOL    HW1 4935   2.801   1.615   2.777
 1600SOL    HW2 4936   2.937   1.680   2.785
 1601SOL     OW 4937   0.316   3.369   1.628
 1601SOL    HW1 4938   0.315   3.289   1.575
 1601SOL    HW2 4939   0.249   3.353   1.695
 1602SOL     OW 4940   1.459   2.375   0.227
 1602SOL    HW1 4941   1.486   2.399   0.316
 1602SOL    HW2 4942   1.364   2.371   0.232
 1603SOL     OW 4943   0.445   0.754   2.840
 1603SOL    HW1 4944   0.397   0.672   2.827
 1603SOL    HW2 4945   0.535   0.726   2.858
 1604SOL     OW 4946   3.574   2.871   3.734
 1604SOL    HW1 4947   3.566   2.965   3.714
 1604SOL    HW2 4948   3.491   2.833   3.704
 1605SOL     OW 4949   0.423   2.620   0.758
 1605SOL    HW1 4950   0.480   2.645   0.831
 1605SOL    HW2 4951   0.341   2.667   0.774
 1606SOL     OW 4952   1.545   2.747   3.239
 1606SOL    HW1 4953   1.526   2.657   3.264
 1606SOL    HW2 4954   1.462   2.793   3.247
 1607SOL     OW 4955   3.353   2.866   3.570
 1607SOL    HW1 4956   3.315   2.906   3.492
 1607SOL    HW2 4957   3.298   2.897   3.642
 1608SOL     OW 4958   1.084   2.488   1.200
 1608SOL    HW1 4959   1.129   2.422   1.253
 1608SOL    HW2 4960   1.101   2.571   1.246
 1609SOL     OW 4961   2.360   2.484   2.613
 1609SOL    HW1 4962   2.365   2.410   2.553
 1609SOL    HW2 4963   2.297   2.543   2.573
 1610SOL     OW 4964   1.989   1.936   3.317
 1610SOL    HW1 4965   2.018   1.946   3.407
 1610SOL    HW2 4966   1.965   1.844   3.310
 1611SOL     OW 4967   0.833   1.570   0.041
 1611SOL    HW1 4968   0.751   1.561   0.090
 1611SOL    HW2 4969   0.870   1.481   0.040
 1612SOL     OW 4970   0.722   3.623   3.629
 1612SOL    HW1 4971   0.695   3.537   3.597
 1612SOL    HW2 4972   0.761   3.605   3.715
 1613SOL     OW 4973   0.833   0.780   1.888
 1613SOL    HW1 4974   0.908   0.775   1.830
 1613SOL    HW2 4975   0.850   0.715   1.956
 1614SOL     OW 4976   0.604   0.039   0.344
 1614SOL    HW1 4977   0.682   0.024   0.290
 1614SOL    HW2 4978   0.636   0.034   0.434
 1615SOL     OW 4979   0.173   3.694   2.677
 1615SOL    HW1 4980   0.116   3.771   2.668
 1615SOL    HW2 4981   0.112   3.621   2.687
 1616SOL     OW 4982   3.529   0.574   0.816
 1616SOL    HW1 4983   3.467   0.501   0.811
 1616SOL    HW2 4984   3.613   0.536   0.791
 1617SOL     OW 4985   0.948   3.828   1.146
 1617SOL    HW1 4986   0.869   3.836   1.200
 1617SOL    HW2 4987   1.014   3.880   1.191
 1618SOL     OW 4988   3.272   0.153   1.153
 1618SOL    HW1 4989   3.317   0.237   1.149
 1618SOL    HW2 4990   3.277   0.118   1.064
 1619SOL     OW 4991   3.962   3.974   3.720
 1619SOL    HW1 4992   3.963   3.879   3.725
 1619SOL    HW2 4993   3.925   4.002   3.804
 1620SOL     OW 4994   0.856   0.179   1.431
 1620SOL    HW1 4995   0.909   0.167   1.352
 1620SOL    HW2 4996   0.769   0.148   1.406
 1621SOL     OW 4997   3.310   0.085   2.912
 1621SOL    HW1 4998   3.336   0.087   3.004
 1621SOL    HW2 4999   3.221   0.120   2.911
 1622SOL     OW 5000   3.033   3.583   1.585
 1622SOL    HW1 5001   3.046   3.488   1.586
 1622SOL    HW2 5002   3.026   3.607   1.678
 1623SOL     OW 5003   1.989   0.178   3.735
 1623SOL    HW1 5004   2.000   0.166   3.641
 1623SOL    HW2 5005   2.044   0.110   3.774
 1624SOL     OW 5006   3.473   0.120   3.531
 1624SOL    HW1 5007   3.469   0.186   3.600
 1624SOL    HW2 5008   3.550   0.145   3.479
 1625SOL     OW 5009   0.367   2.685   1.690
 1625SOL    HW1 5010   0.363   2.780   1.678
 1625SOL    HW2 5011   0.322   2.670   1.773
 1626SOL     OW 5012   1.705   2.248   2.593
 1626SOL    HW1 5013   1.764   2.250   2.668
 1626SOL    HW2 5014   1.623   2.285   2.627
 1627SOL     OW 5015   3.811   3.243   3.126
 1627SOL    HW1 5016   3.899   3.220   3.097
 1627SOL    HW2 5017   3.772   3.287   3.050
 1628SOL     OW 5018   3.707   3.165   0.738
 1628SOL    HW1 5019   3.625   3.177   0.786
 1628SOL    HW2 5020   3.708   3.072   0.716
 1629SOL     OW 5021   2.826   3.895   0.119
 1629SOL    HW1 5022   2.742   3.940   0.120
 1629SOL    HW2 5023   2.804   3.803   0.109
 1630SOL     OW 5024   3.804   1.971   0.736
 1630SOL    HW1 5025   3.881   2.027   0.751
 1630SOL    HW2 5026   3.832   1.884   0.764
 1631SOL     OW 5027   3.100   3.442   2.791
 1631SOL    HW1 5028   3.115   3.536   2.790
 1631SOL    HW2 5029   3.014   3.430   2.752
 1632SOL     OW 5030   3.431   0.943   0.115
 1632SOL    HW1 5031   3.395   0.953   0.203
 1632SOL    HW2 5032   3.481   0.861   0.118
 1633SOL     OW 5033   3.102   0.668   0.657
 1633SOL    HW1 5034   3.184   0.698   0.616
 1633SOL    HW2 5035   3.128   0.637   0.743
 1634SOL     OW 5036   0.399   2.288   0.705
 1634SOL    HW1 5037   0.315   2.320   0.671
 1634SOL    HW2 5038   0.445   2.367   0.734
 1635SOL     OW 5039   3.105   3.698   2.816
 1635SOL    HW1 5040   3.156   3.690   2.896
 1635SOL    HW2 5041   3.115   3.790   2.790
 1636SOL     OW 5042   2.731   3.692   2.029
 1636SOL    HW1 5043   2.792   3.643   2.084
 1636SOL    HW2 5044   2.666   3.726   2.091
 1637SOL     OW 5045   1.010   0.990   3.210
 1637SOL    HW1 5046   0.942   1.058   3.202
 1637SOL    HW2 5047   0.981   0.921   3.151
 1638SOL     OW 5048   3.072   0.358   2.523
 1638SOL    HW1 5049   3.022   0.311   2.456
 1638SOL    HW2 5050   3.163   0.355   2.491
 1639SOL     OW 5051   0.118   3.717   0.153
 1639SOL    HW1 5052   0.079   3.790   0.201
 1639SOL    HW2 5053   0.204   3.750   0.125
 1640SOL     OW 5054   1.363   1.805   2.294
 1640SOL    HW1 5055   1.384   1.793   2.386
 1640SOL    HW2 5056   1.437   1.855   2.259
 1641SOL     OW 5057   2.218   0.435   3.027
 1641SOL    HW1 5058   2.224   0.340   3.018
 1641SOL    HW2 5059   2.152   0.449   3.096
 1642SOL     OW 5060   1.948   3.533   0.223
 1642SOL    HW1 5061   1.873   3.482   0.254
 1642SOL    HW2 5062   1.984   3.572   0.303
 1643SOL     OW 5063   0.142   3.635   1.823
 1643SOL    HW1 5064   0.209   3.703   1.812
 1643SOL    HW2 5065   0.078   3.654   1.754
 1644SOL     OW 5066   0.266   1.379   2.738
 1644SOL    HW1 5067   0.209   1.331   2.678
 1644SOL    HW2 5068   0.229   1.363   2.825
 1645SOL     OW 5069   2.678   1.452   3.363
 1645SOL    HW1 5070   2.615   1.450   3.435
 1645SOL    HW2 5071   2.638   1.510   3.298
 1646SOL     OW 5072   1.835   2.713   2.127
 1646SOL    HW1 5073   1.875   2.700   2.213
 1646SOL    HW2 5074   1.889   2.780   2.085
 1647SOL     OW 5075   3.366   2.699   0.460
 1647SOL    HW1 5076   3.382   2.712   0.553
 1647SOL    HW2 5077   3.443   2.734   0.416
 1648SOL     OW 5078   1.039   0.662   0.102
 1648SOL    HW1 5079   0.943   0.672   0.101
 1648SOL    HW2 5080   1.064   0.667   0.009
 1649SOL     OW 5081   1.659   0.577   2.541
 1649SOL    HW1 5082   1.650   0.488   2.575
 1649SOL    HW2 5083   1.684   0.565   2.449
 1650SOL     OW 5084   0.513   1.702   0.844
 1650SOL    HW1 5085   0.480   1.678   0.757
 1650SOL    HW2 5086   0.534   1.795   0.836
 1651SOL     OW 5087   3.337   3.896   3.351
 1651SOL    HW1 5088   3.366   3.969   3.406
 1651SOL    HW2 5089   3.279   3.846   3.408
 1652SOL     OW 5090   2.401   1.104   1.504
 1652SOL    HW1 5091   2.495   1.119   1.493
 1652SOL    HW2 5092   2.381   1.138   1.591
 1653SOL     OW 5093   3.132   2.877   1.943
 1653SOL    HW1 5094   3.069   2.949   1.949
 1653SOL    HW2 5095   3.135   2.856   1.850
 1654SOL     OW 5096   3.917   3.881   0.348
 1654SOL    HW1 5097   3.992   3.837   0.389
 1654SOL    HW2 5098   3.913   3.967   0.390
 1655SOL     OW 5099   1.385   0.708   1.085
 1655SOL    HW1 5100   1.322   0.655   1.035
 1655SOL    HW2 5101   1.335   0.786   1.110
 1656SOL     OW 5102   3.909   1.832   0.373
 1656SOL    HW1 5103   3.961   1.865   0.446
 1656SOL    HW2 5104   3.973   1.793   0.313
 1657SOL     OW 5105   0.602   1.889   3.807
 1657SOL    HW1 5106   0.649   1.970   3.790
 1657SOL    HW2 5107   0.517   1.901   3.766
 1658SOL     OW 5108   0.373   2.071   1.017
 1658SOL    HW1 5109   0.358   2.154   0.972
 1658SOL    HW2 5110   0.293   2.058   1.069
 1659SOL     OW 5111   0.643   2.946   1.672
 1659SOL    HW1 5112   0.621   2.890   1.747
 1659SOL    HW2 5113   0.705   3.009   1.707
 1660SOL     OW 5114   2.769   0.529   1.547
 1660SOL    HW1 5115   2.841   0.582   1.580
 1660SOL    HW2 5116   2.696   0.548   1.606
 1661SOL     OW 5117   1.487   3.168   0.252
 1661SOL    HW1 5118   1.482   3.155   0.347
 1661SOL    HW2 5119   1.510   3.261   0.242
 1662SOL     OW 5120   1.201   2.488   1.885
 1662SOL    HW1 5121   1.222   2.530   1.969
 1662SOL    HW2 5122   1.265   2.525   1.824
 1663SOL     OW 5123   0.260   3.817   3.818
 1663SOL    HW1 5124   0.266   3.883   3.887
 1663SOL    HW2 5125   0.350   3.787   3.805
 1664SOL     OW 5126   1.362   0.715   1.766
 1664SOL    HW1 5127   1.450   0.752   1.767
 1664SOL    HW2 5128   1.369   0.635   1.818
 1665SOL     OW 5129   2.877   3.156   3.402
 1665SOL    HW1 5130   2.878   3.140   3.308
 1665SOL    HW2 5131   2.785   3.146   3.427
 1666SOL     OW 5132   1.818   2.363   2.382
 1666SOL    HW1 5133   1.747   2.345   2.443
 1666SOL    HW2 5134   1.890   2.307   2.410
 1667SOL     OW 5135   3.783   1.101   2.240
 1667SOL    HW1 5136   3.722   1.096   2.166
 1667SOL    HW2 5137   3.859   1.148   2.206
 1668SOL     OW 5138   0.615   3.357   1.184
 1668SOL    HW1 5139   0.665   3.425   1.229
 1668SOL    HW2 5140   0.638   3.369   1.092
 1669SOL     OW 5141   1.955   0.664   0.227
 1669SOL    HW1 5142   1.930   0.616   0.148
 1669SOL    HW2 5143   2.044   0.694   0.209
 1670SOL     OW 5144   1.850   0.570   0.476
 1670SOL    HW1 5145   1.826   0.478   0.465
 1670SOL    HW2 5146   1.870   0.599   0.387
 1671SOL     OW 5147   2.881   1.635   0.636
 1671SOL    HW1 5148   2.822   1.702   0.601
 1671SOL    HW2 5149   2.900   1.578   0.561
 1672SOL     OW 5150   0.102   1.207   3.356
 1672SOL    HW1 5151   0.164   1.156   3.304
 1672SOL    HW2 5152   0.125   1.298   3.337
 1673SOL     OW 5153   3.492   1.763   3.040
 1673SOL    HW1 5154   3.417   1.743   2.984
 1673SOL    HW2 5155   3.459   1.829   3.100
 1674SOL     OW 5156   2.358   2.263   2.487
 1674SOL    HW1 5157   2.432   2.228   2.438
 1674SOL    HW2 5158   2.298   2.189   2.497
 1675SOL     OW 5159   1.662   2.651   1.172
 1675SOL    HW1 5160   1.591   2.716   1.167
 1675SOL    HW2 5161   1.703   2.654   1.086
 1676SOL     OW 5162   2.330   3.174   0.425
 1676SOL    HW1 5163   2.284   3.090   0.436
 1676SOL    HW2 5164   2.369   3.192   0.510
 1677SOL     OW 5165   1.858   0.351   1.173
 1677SOL    HW1 5166   1.909   0.320   1.248
 1677SOL    HW2 5167   1.878   0.289   1.103
 1678SOL     OW 5168   3.733   2.682   0.251
 1678SOL    HW1 5169   3.694   2.698   0.165
 1678SOL    HW2 5170   3.735   2.767   0.294
 1679SOL     OW 5171   2.071   3.206   2.870
 1679SOL    HW1 5172   2.051   3.239   2.957
 1679SOL    HW2 5173   2.074   3.284   2.814
 1680SOL     OW 5174   1.621   1.208   2.788
 1680SOL    HW1 5175   1.648   1.179   2.875
 1680SOL    HW2 5176   1.543   1.156   2.768
 1681SOL     OW 5177   2.278   1.868   0.417
 1681SOL    HW1 5178   2.354   1.847   0.363
 1681SOL    HW2 5179   2.281   1.805   0.488
 1682SOL     OW 5180   1.913   0.681   0.996
 1682SOL    HW1 5181   1.873   0.732   1.068
 1682SOL    HW2 5182   1.844   0.621   0.969
 1683SOL     OW 5183   1.527   2.062   3.847
 1683SOL    HW1 5184   1.572   2.106   3.919
 1683SOL    HW2 5185   1.449   2.114   3.832
 1684SOL     OW 5186   3.446   0.305   3.315
 1684SOL    HW1 5187   3.376   0.325   3.377
 1684SOL    HW2 5188   3.482   0.390   3.290
 1685SOL     OW 5189   1.059   1.557   2.389
 1685SOL    HW1 5190   1.144   1.565   2.433
 1685SOL    HW2 5191   1.063   1.472   2.345
 1686SOL     OW 5192   2.462   1.695   1.475
 1686SOL    HW1 5193   2.442   1.761   1.542
 1686SOL    HW2 5194   2.427   1.731   1.394
 1687SOL     OW 5195   3.818   2.801   1.759
 1687SOL    HW1 5196   3.851   2.842   1.839
 1687SOL    HW2 5197   3.812   2.708   1.781
 1688SOL     OW 5198  -0.011   1.678   1.986
 1688SOL    HW1 5199   0.061   1.635   2.033
 1688SOL    HW2 5200  -0.015   1.766   2.023
 1689SOL     OW 5201   1.976   0.140   2.890
 1689SOL    HW1 5202   2.053   0.147   2.834
 1689SOL    HW2 5203   1.954   0.230   2.913
 1690SOL     OW 5204   1.144   2.700   0.243
 1690SOL    HW1 5205   1.069   2.750   0.211
 1690SOL    HW2 5206   1.149   2.623   0.186
 1691SOL     OW 5207   3.477   3.459   0.907
 1691SOL    HW1 5208   3.476   3.487   0.816
 1691SOL    HW2 5209   3.471   3.364   0.903
 1692SOL     OW 5210   3.736   2.110   2.557
 1692SOL    HW1 5211   3.789   2.079   2.629
 1692SOL    HW2 5212   3.798   2.156   2.499
 1693SOL     OW 5213   3.299   1.554   1.343
 1693SOL    HW1 5214   3.206   1.571   1.356
 1693SOL    HW2 5215   3.326   1.621   1.280
 1694SOL     OW 5216   1.022   3.026   0.734
 1694SOL    HW1 5217   1.029   2.931   0.730
 1694SOL    HW2 5218   1.113   3.057   0.730
 1695SOL     OW 5219   0.883   3.671   0.411
 1695SOL    HW1 5220   0.912   3.580   0.423
 1695SOL    HW2 5221   0.877   3.706   0.500
 1696SOL     OW 5222   3.339   0.378   0.805
 1696SOL    HW1 5223   3.305   0.288   0.810
 1696SOL    HW2 5224   3.361   0.400   0.895
 1697SOL     OW 5225   0.389   1.629   2.784
 1697SOL    HW1 5226   0.330   1.625   2.860
 1697SOL    HW2 5227   0.388   1.541   2.748
 1698SOL     OW 5228   0.836   2.852   2.195
 1698SOL    HW1 5229   0.858   2.945   2.183
 1698SOL    HW2 5230   0.849   2.813   2.109
 1699SOL     OW 5231   1.446   1.182   3.303
 1699SOL    HW1 5232   1.438   1.276   3.286
 1699SOL    HW2 5233   1.398   1.168   3.384
 1700SOL     OW 5234   3.263   3.414   3.697
 1700SOL    HW1 5235   3.192   3.416   3.634
 1700SOL    HW2 5236   3.279   3.507   3.717
 1701SOL     OW 5237   0.177   1.295   0.606
 1701SOL    HW1 5238   0.254   1.273   0.553
 1701SOL    HW2 5239   0.123   1.215   0.604
 1702SOL     OW 5240   0.631   0.856   1.545
 1702SOL    HW1 5241   0.722   0.883   1.546
 1702SOL    HW2 5242   0.628   0.786   1.479
 1703SOL     OW 5243   1.231   1.638   3.602
 1703SOL    HW1 5244   1.162   1.595   3.653
 1703SOL    HW2 5245   1.311   1.617   3.648
 1704SOL     OW 5246   0.165   2.773   0.750
 1704SOL    HW1 5247   0.070   2.758   0.744
 1704SOL    HW2 5248   0.191   2.794   0.660
 1705SOL     OW 5249   0.319   1.824   0.622
 1705SOL    HW1 5250   0.379   1.864   0.559
 1705SOL    HW2 5251   0.340   1.731   0.621
 1706SOL     OW 5252   2.041   2.899   2.062
 1706SOL    HW1 5253   2.115   2.929   2.010
 1706SOL    HW2 5254   2.062   2.928   2.151
 1707SOL     OW 5255   3.811   3.951   1.010
 1707SOL    HW1 5256   3.724   3.912   1.011
 1707SOL    HW2 5257   3.868   3.886   1.050
 1708SOL     OW 5258   0.212   0.929   0.298
 1708SOL    HW1 5259   0.128   0.962   0.267
 1708SOL    HW2 5260   0.235   0.861   0.235
 1709SOL     OW 5261   2.298   3.090   2.677
 1709SOL    HW1 5262   2.301   3.044   2.761
 1709SOL    HW2 5263   2.233   3.159   2.689
 1710SOL     OW 5264   1.940   2.322   1.355
 1710SOL    HW1 5265   1.973   2.412   1.355
 1710SOL    HW2 5266   1.855   2.327   1.312
 1711SOL     OW 5267   1.360   3.594   1.672
 1711SOL    HW1 5268   1.372   3.533   1.600
 1711SOL    HW2 5269   1.266   3.608   1.676
 1712SOL     OW 5270   3.140   3.429   3.354
 1712SOL    HW1 5271   3.141   3.337   3.380
 1712SOL    HW2 5272   3.050   3.447   3.330
 1713SOL     OW 5273   1.741   2.305   1.681
 1713SOL    HW1 5274   1.746   2.385   1.630
 1713SOL    HW2 5275   1.651   2.304   1.716
 1714SOL     OW 5276   3.202   1.982   0.202
 1714SOL    HW1 5277   3.135   2.029   0.153
 1714SOL    HW2 5278   3.275   2.044   0.209
 1715SOL     OW 5279   1.155   3.278   0.269
 1715SOL    HW1 5280   1.076   3.223   0.263
 1715SOL    HW2 5281   1.128   3.351   0.325
 1716SOL     OW 5282   0.758   2.121   3.766
 1716SOL    HW1 5283   0.724   2.188   3.826
 1716SOL    HW2 5284   0.848   2.148   3.749
 1717SOL     OW 5285   0.101   2.990   0.335
 1717SOL    HW1 5286   0.009   2.965   0.324
 1717SOL    HW2 5287   0.104   3.034   0.420
 1718SOL     OW 5288   2.077   2.559   0.267
 1718SOL    HW1 5289   2.011   2.593   0.207
 1718SOL    HW2 5290   2.028   2.500   0.325
 1719SOL     OW 5291   2.693   1.298   2.464
 1719SOL    HW1 5292   2.736   1.216   2.486
 1719SOL    HW2 5293   2.681   1.295   2.369
 1720SOL     OW 5294   2.030   1.077   0.867
 1720SOL    HW1 5295   2.081   1.071   0.948
 1720SOL    HW2 5296   2.049   0.995   0.821
 1721SOL     OW 5297   0.381   3.188   0.771
 1721SOL    HW1 5298   0.394   3.142   0.688
 1721SOL    HW2 5299   0.293   3.226   0.764
 1722SOL     OW 5300   2.905   0.102   2.034
 1722SOL    HW1 5301   2.827   0.078   1.984
 1722SOL    HW2 5302   2.975   0.048   1.996
 1723SOL     OW 5303   2.415   2.428   1.609
 1723SOL    HW1 5304   2.476   2.448   1.681
 1723SOL    HW2 5305   2.343   2.381   1.650
 1724SOL     OW 5306   1.132   3.588   2.464
 1724SOL    HW1 5307   1.145   3.591   2.559
 1724SOL    HW2 5308   1.090   3.671   2.444
 1725SOL     OW 5309   3.083   2.061   2.047
 1725SOL    HW1 5310   3.088   2.097   2.135
 1725SOL    HW2 5311   3.066   1.968   2.059
 1726SOL     OW 5312   1.488   1.077   0.323
 1726SOL    HW1 5313   1.574   1.116   0.336
 1726SOL    HW2 5314   1.494   0.992   0.367
 1727SOL     OW 5315   3.905   3.432   3.780
 1727SOL    HW1 5316   3.939   3.492   3.846
 1727SOL    HW2 5317   3.902   3.347   3.825
 1728SOL     OW 5318   3.627   2.404   1.508
 1728SOL    HW1 5319   3.709   2.415   1.459
 1728SOL    HW2 5320   3.645   2.445   1.593
 1729SOL     OW 5321   0.992   1.064   0.045
 1729SOL    HW1 5322   0.948   1.144   0.073
 1729SOL    HW2 5323   1.063   1.095  -0.011
 1730SOL     OW 5324   3.688   1.339   3.263
 1730SOL    HW1 5325   3.669   1.383   3.345
 1730SOL    HW2 5326   3.754   1.273   3.286
 1731SOL     OW 5327   3.214   1.916   1.082
 1731SOL    HW1 5328   3.206   2.005   1.114
 1731SOL    HW2 5329   3.303   1.889   1.106
 1732SOL     OW 5330   2.615   0.173   3.118
 1732SOL    HW1 5331   2.552   0.108   3.087
 1732SOL    HW2 5332   2.601   0.177   3.213
 1733SOL     OW 5333   1.456   0.065   3.691
 1733SOL    HW1 5334   1.411   0.149   3.701
 1733SOL    HW2 5335   1.385   0.000   3.692
 1734SOL     OW 5336   0.928   3.055   1.277
 1734SOL    HW1 5337   0.899   3.070   1.187
 1734SOL    HW2 5338   0.932   3.143   1.315
 1735SOL     OW 5339   2.197   2.984   0.577
 1735SOL    HW1 5340   2.174   2.916   0.514
 1735SOL    HW2 5341   2.169   2.950   0.661
 1736SOL     OW 5342   1.190   2.107   3.116
 1736SOL    HW1 5343   1.161   2.198   3.115
 1736SOL    HW2 5344   1.275   2.110   3.160
 1737SOL     OW 5345   2.076   3.723   3.036
 1737SOL    HW1 5346   2.148   3.701   3.094
 1737SOL    HW2 5347   2.118   3.742   2.952
 1738SOL     OW 5348   2.687   2.103   0.657
 1738SOL    HW1 5349   2.649   2.172   0.604
 1738SOL    HW2 5350   2.771   2.137   0.685
 1739SOL     OW 5351   3.912   3.105   1.833
 1739SOL    HW1 5352   3.817   3.116   1.841
 1739SOL    HW2 5353   3.947   3.133   1.917
 1740SOL     OW 5354   1.964   1.352   3.891
 1740SOL    HW1 5355   1.966   1.391   3.979
 1740SOL    HW2 5356   1.957   1.258   3.907
 1741SOL     OW 5357   0.937   2.796   2.449
 1741SOL    HW1 5358   0.933   2.707   2.483
 1741SOL    HW2 5359   0.903   2.789   2.360
 1742SOL     OW 5360   1.838   1.225   1.837
 1742SOL    HW1 5361   1.901   1.156   1.857
 1742SOL    HW2 5362   1.760   1.178   1.807
 1743SOL     OW 5363   3.407   0.213   2.466
 1743SOL    HW1 5364   3.446   0.177   2.545
 1743SOL    HW2 5365   3.474   0.205   2.399
 1744SOL     OW 5366   3.510   2.379   1.871
 1744SOL    HW1 5367   3.581   2.315   1.863
 1744SOL    HW2 5368   3.450   2.341   1.936
 1745SOL     OW 5369   2.157   2.932   3.290
 1745SOL    HW1 5370   2.184   2.953   3.380
 1745SOL    HW2 5371   2.238   2.911   3.245
 1746SOL     OW 5372   3.737   0.956   3.167
 1746SOL    HW1 5373   3.716   1.024   3.102
 1746SOL    HW2 5374   3.799   0.898   3.122
 1747SOL     OW 5375   3.039   0.942   0.884
 1747SOL    HW1 5376   2.968   0.902   0.934
 1747SOL    HW2 5377   2.996   0.987   0.811
 1748SOL     OW 5378   3.765   2.091   0.488
 1748SOL    HW1 5379   3.791   2.026   0.423
 1748SOL    HW2 5380   3.753   2.041   0.569
 1749SOL     OW 5381   3.785   2.466   2.116
 1749SOL    HW1 5382   3.782   2.410   2.194
 1749SOL    HW2 5383   3.695   2.467   2.084
 1750SOL     OW 5384   3.870   1.398   2.459
 1750SOL    HW1 5385   3.870   1.303   2.468
 1750SOL    HW2 5386   3.882   1.430   2.548
 1751SOL     OW 5387   3.587   2.861   3.398
 1751SOL    HW1 5388   3.608   2.948   3.363
 1751SOL    HW2 5389   3.551   2.878   3.485
 1752SOL     OW 5390   3.961   2.349   3.226
 1752SOL    HW1 5391   3.961   2.387   3.314
 1752SOL    HW2 5392   3.870   2.322   3.210
 1753SOL     OW 5393   1.891   0.985   0.186
 1753SOL    HW1 5394   1.875   0.892   0.201
 1753SOL    HW2 5395   1.906   1.022   0.273
 1754SOL     OW 5396   2.697   3.255   2.074
 1754SOL    HW1 5397   2.715   3.186   2.010
 1754SOL    HW2 5398   2.634   3.313   2.030
 1755SOL     OW 5399   0.804   0.431   1.997
 1755SOL    HW1 5400   0.762   0.486   2.063
 1755SOL    HW2 5401   0.733   0.381   1.958
 1756SOL     OW 5402   0.355   1.767   3.091
 1756SOL    HW1 5403   0.353   1.863   3.097
 1756SOL    HW2 5404   0.312   1.737   3.172
 1757SOL     OW 5405   0.589   2.619   2.579
 1757SOL    HW1 5406   0.516   2.588   2.632
 1757SOL    HW2 5407   0.555   2.624   2.490
 1758SOL     OW 5408   3.722   0.819   1.317
 1758SOL    HW1 5409   3.743   0.788   1.229
 1758SOL    HW2 5410   3.743   0.746   1.374
 1759SOL     OW 5411   1.087   2.061   1.234
 1759SOL    HW1 5412   1.075   2.072   1.139
 1759SOL    HW2 5413   1.054   2.142   1.272
 1760SOL     OW 5414   3.772   1.616   1.422
 1760SOL    HW1 5415   3.833   1.582   1.356
 1760SOL    HW2 5416   3.723   1.540   1.451
 1761SOL     OW 5417   1.372   3.860   2.855
 1761SOL    HW1 5418   1.441   3.912   2.816
 1761SOL    HW2 5419   1.313   3.924   2.894
 1762SOL     OW 5420   1.187   2.173   0.640
 1762SOL    HW1 5421   1.263   2.177   0.698
 1762SOL    HW2 5422   1.192   2.254   0.588
 1763SOL     OW 5423   0.826   0.820   0.175
 1763SOL    HW1 5424   0.876   0.854   0.101
 1763SOL    HW2 5425   0.832   0.888   0.242
 1764SOL     OW 5426   2.764   1.233   0.900
 1764SOL    HW1 5427   2.784   1.215   0.992
 1764SOL    HW2 5428   2.732   1.149   0.866
 1765SOL     OW 5429   3.221   0.808   1.144
 1765SOL    HW1 5430   3.281   0.816   1.070
 1765SOL    HW2 5431   3.145   0.860   1.119
 1766SOL     OW 5432   2.947   3.679   1.823
 1766SOL    HW1 5433   2.979   3.642   1.906
 1766SOL    HW2 5434   2.853   3.691   1.838
 1767SOL     OW 5435   3.514   1.127   1.485
 1767SOL    HW1 5436   3.493   1.213   1.449
 1767SOL    HW2 5437   3.438   1.103   1.537
 1768SOL     OW 5438   1.240   3.692   3.061
 1768SOL    HW1 5439   1.307   3.706   3.128
 1768SOL    HW2 5440   1.277   3.734   2.983
 1769SOL     OW 5441   1.272   2.741   2.730
 1769SOL    HW1 5442   1.296   2.731   2.637
 1769SOL    HW2 5443   1.181   2.714   2.735
 1770SOL     OW 5444   2.836   0.184   1.737
 1770SOL    HW1 5445   2.816   0.129   1.812
 1770SOL    HW2 5446   2.807   0.271   1.762
 1771SOL     OW 5447   1.159   0.178   3.220
 1771SOL    HW1 5448   1.180   0.271   3.210
 1771SOL    HW2 5449   1.242   0.138   3.246
 1772SOL     OW 5450   3.924   0.242   3.351
 1772SOL    HW1 5451   3.873   0.180   3.403
 1772SOL    HW2 5452   3.925   0.322   3.404
 1773SOL     OW 5453   2.268   3.597   3.200
 1773SOL    HW1 5454   2.264   3.640   3.286
 1773SOL    HW2 5455   2.293   3.507   3.219
 1774SOL     OW 5456   1.257   0.457   0.374
 1774SOL    HW1 5457   1.277   0.489   0.286
 1774SOL    HW2 5458   1.291   0.368   0.375
 1775SOL     OW 5459   2.957   1.110   0.034
 1775SOL    HW1 5460   3.045   1.140   0.011
 1775SOL    HW2 5461   2.908   1.190   0.048
 1776SOL     OW 5462   0.550   2.544   0.534
 1776SOL    HW1 5463   0.481   2.523   0.470
 1776SOL    HW2 5464   0.504   2.584   0.607
 1777SOL     OW 5465   1.782   0.552   2.275
 1777SOL    HW1 5466   1.867   0.559   2.317
 1777SOL    HW2 5467   1.772   0.633   2.226
 1778SOL     OW 5468   0.474   0.739   0.385
 1778SOL    HW1 5469   0.387   0.700   0.393
 1778SOL    HW2 5470   0.483   0.762   0.293
 1779SOL     OW 5471   0.804   0.335   2.926
 1779SOL    HW1 5472   0.856   0.258   2.902
 1779SOL    HW2 5473   0.823   0.349   3.019
 1780SOL     OW 5474   1.810   1.000   3.427
 1780SOL    HW1 5475   1.752   1.074   3.407
 1780SOL    HW2 5476   1.879   1.006   3.361
 1781SOL     OW 5477   0.825   1.079   2.805
 1781SOL    HW1 5478   0.885   1.124   2.864
 1781SOL    HW2 5479   0.742   1.126   2.815
 1782SOL     OW 5480   3.784   2.108   1.325
 1782SOL    HW1 5481   3.836   2.159   1.386
 1782SOL    HW2 5482   3.765   2.168   1.253
 1783SOL     OW 5483   1.185   1.772   3.371
 1783SOL    HW1 5484   1.176   1.723   3.453
 1783SOL    HW2 5485   1.229   1.853   3.397
 1784SOL     OW 5486   3.107   2.038   3.060
 1784SOL    HW1 5487   3.087   1.946   3.079
 1784SOL    HW2 5488   3.202   2.041   3.056
 1785SOL     OW 5489   2.328   1.945   2.939
 1785SOL    HW1 5490   2.396   2.011   2.923
 1785SOL    HW2 5491   2.315   1.947   3.034
 1786SOL     OW 5492   3.085   1.739   1.773
 1786SOL    HW1 5493   3.088   1.687   1.692
 1786SOL    HW2 5494   3.148   1.697   1.831
 1787SOL     OW 5495   2.755   2.495   0.807
 1787SOL    HW1 5496   2.821   2.431   0.834
 1787SOL    HW2 5497   2.734   2.471   0.716
 1788SOL     OW 5498   1.996   1.205   3.164
 1788SOL    HW1 5499   1.919   1.246   3.204
 1788SOL    HW2 5500   2.045   1.278   3.127
 1789SOL     OW 5501   2.323   1.673   2.901
 1789SOL    HW1 5502   2.309   1.767   2.893
 1789SOL    HW2 5503   2.395   1.665   2.965
 1790SOL     OW 5504   1.562   3.018   0.022
 1790SOL    HW1 5505   1.555   3.082  -0.049
 1790SOL    HW2 5506   1.536   3.066   0.100
 1791SOL     OW 5507   0.447   3.115   3.130
 1791SOL    HW1 5508   0.513   3.112   3.060
 1791SOL    HW2 5509   0.388   3.186   3.104
 1792SOL     OW 5510   0.374   2.508   2.719
 1792SOL    HW1 5511   0.298   2.467   2.679
 1792SOL    HW2 5512   0.344   2.535   2.806
 1793SOL     OW 5513   0.095   0.409   2.310
 1793SOL    HW1 5514   0.067   0.321   2.334
 1793SOL    HW2 5515   0.161   0.395   2.242
 1794SOL     OW 5516   0.682   2.316   3.234
 1794SOL    HW1 5517   0.697   2.221   3.231
 1794SOL    HW2 5518   0.595   2.325   3.272
 1795SOL     OW 5519   1.514   3.138   3.400
 1795SOL    HW1 5520   1.461   3.087   3.338
 1795SOL    HW2 5521   1.520   3.082   3.478
 1796SOL     OW 5522   2.364   1.963   1.379
 1796SOL    HW1 5523   2.365   1.902   1.305
 1796SOL    HW2 5524   2.287   2.018   1.363
 1797SOL     OW 5525   1.175   1.635   0.260
 1797SOL    HW1 5526   1.230   1.659   0.335
 1797SOL    HW2 5527   1.088   1.667   0.282
 1798SOL     OW 5528   1.299   3.081   0.795
 1798SOL    HW1 5529   1.355   3.143   0.748
 1798SOL    HW2 5530   1.357   3.007   0.814
 1799SOL     OW 5531   1.040   3.604   3.711
 1799SOL    HW1 5532   1.067   3.688   3.674
 1799SOL    HW2 5533   0.956   3.622   3.754
 1800SOL     OW 5534   0.738   1.938   1.015
 1800SOL    HW1 5535   0.765   2.028   1.031
 1800SOL    HW2 5536   0.668   1.945   0.950
 1801SOL     OW 5537   1.740   1.261   2.551
 1801SOL    HW1 5538   1.712   1.250   2.642
 1801SOL    HW2 5539   1.726   1.354   2.534
 1802SOL     OW 5540   3.814   1.194   0.461
 1802SOL    HW1 5541   3.843   1.285   0.450
 1802SOL    HW2 5542   3.770   1.172   0.379
 1803SOL     OW 5543   0.171   0.980   3.537
 1803SOL    HW1 5544   0.176   1.044   3.466
 1803SOL    HW2 5545   0.226   1.016   3.606
 1804SOL     OW 5546   0.625   1.594   1.067
 1804SOL    HW1 5547   0.598   1.619   0.978
 1804SOL    HW2 5548   0.589   1.664   1.123
 1805SOL     OW 5549   0.512   3.794   1.112
 1805SOL    HW1 5550   0.523   3.706   1.076
 1805SOL    HW2 5551   0.438   3.787   1.171
 1806SOL     OW 5552   2.021   1.489   2.249
 1806SOL    HW1 5553   2.091   1.490   2.184
 1806SOL    HW2 5554   2.038   1.412   2.302
 1807SOL     OW 5555   1.872   3.524   3.217
 1807SOL    HW1 5556   1.805   3.581   3.179
 1807SOL    HW2 5557   1.951   3.579   3.218
 1808SOL     OW 5558   3.603   3.207   1.093
 1808SOL    HW1 5559   3.564   3.187   1.008
 1808SOL    HW2 5560   3.574   3.136   1.151
 1809SOL     OW 5561   1.413   1.030   2.765
 1809SOL    HW1 5562   1.392   0.973   2.691
 1809SOL    HW2 5563   1.344   1.012   2.829
 1810SOL     OW 5564   0.358   2.877   3.294
 1810SOL    HW1 5565   0.378   2.911   3.206
 1810SOL    HW2 5566   0.321   2.952   3.340
 1811SOL     OW 5567   0.561   0.179   0.061
 1811SOL    HW1 5568   0.631   0.227   0.105
 1811SOL    HW2 5569   0.592   0.168  -0.029
 1812SOL     OW 5570   1.902   1.888   1.725
 1812SOL    HW1 5571   1.812   1.905   1.751
 1812SOL    HW2 5572   1.937   1.973   1.698
 1813SOL     OW 5573   0.492   3.415   0.143
 1813SOL    HW1 5574   0.431   3.421   0.217
 1813SOL    HW2 5575   0.545   3.494   0.148
 1814SOL     OW 5576   1.634   2.952   1.417
 1814SOL    HW1 5577   1.724   2.964   1.387
 1814SOL    HW2 5578   1.608   3.038   1.452
 1815SOL     OW 5579   0.231   0.111   3.587
 1815SOL    HW1 5580   0.145   0.153   3.583
 1815SOL    HW2 5581   0.215   0.027   3.630
 1816SOL     OW 5582   0.034   3.569   3.468
 1816SOL    HW1 5583   0.002   3.637   3.409
 1816SOL    HW2 5584   0.038   3.490   3.413
 1817SOL     OW 5585   3.781   0.721   2.257
 1817SOL    HW1 5586   3.737   0.727   2.342
 1817SOL    HW2 5587   3.874   0.721   2.278
 1818SOL     OW 5588   1.365   3.546   2.137
 1818SOL    HW1 5589   1.426   3.606   2.180
 1818SOL    HW2 5590   1.347   3.587   2.053
 1819SOL     OW 5591   2.561   1.724   0.782
 1819SOL    HW1 5592   2.503   1.800   0.785
 1819SOL    HW2 5593   2.643   1.759   0.746
 1820SOL     OW 5594   3.457   2.768   1.959
 1820SOL    HW1 5595   3.464   2.744   1.867
 1820SOL    HW2 5596   3.548   2.774   1.989
 1821SOL     OW 5597   1.192   2.847   1.073
 1821SOL    HW1 5598   1.212   2.940   1.081
 1821SOL    HW2 5599   1.142   2.839   0.992
 1822SOL     OW 5600   2.448   3.960   2.630
 1822SOL    HW1 5601   2.484   3.880   2.593
 1822SOL    HW2 5602   2.459   4.025   2.560
 1823SOL     OW 5603   1.279   1.605   2.573
 1823SOL    HW1 5604   1.314   1.583   2.659
 1823SOL    HW2 5605   1.290   1.700   2.566
 1824SOL     OW 5606   3.029   0.748   1.433
 1824SOL    HW1 5607   3.076   0.669   1.407
 1824SOL    HW2 5608   3.094   0.818   1.427
 1825SOL     OW 5609   0.299   3.918   0.335
 1825SOL    HW1 5610   0.269   3.843   0.385
 1825SOL    HW2 5611   0.386   3.893   0.303
 1826SOL     OW 5612   3.924   2.308   1.482
 1826SOL    HW1 5613   3.988   2.303   1.553
 1826SOL    HW2 5614   3.971   2.354   1.412
 1827SOL     OW 5615   1.271   1.337   2.527
 1827SOL    HW1 5616   1.278   1.428   2.555
 1827SOL    HW2 5617   1.361   1.306   2.521
 1828SOL     OW 5618   3.447   2.702   0.731
 1828SOL    HW1 5619   3.400   2.710   0.814
 1828SOL    HW2 5620   3.527   2.753   0.743
 1829SOL     OW 5621   2.125   0.463   1.681
 1829SOL    HW1 5622   2.127   0.506   1.766
 1829SOL    HW2 5623   2.115   0.534   1.618
 1830SOL     OW 5624   2.847   1.174   1.156
 1830SOL    HW1 5625   2.860   1.111   1.227
 1830SOL    HW2 5626   2.828   1.256   1.201
 1831SOL     OW 5627   0.109   3.804   2.163
 1831SOL    HW1 5628   0.162   3.728   2.184
 1831SOL    HW2 5629   0.053   3.776   2.091
 1832SOL     OW 5630   1.905   0.979   1.515
 1832SOL    HW1 5631   1.960   1.054   1.538
 1832SOL    HW2 5632   1.900   0.983   1.420
 1833SOL     OW 5633   0.482   0.251   0.668
 1833SOL    HW1 5634   0.550   0.215   0.610
 1833SOL    HW2 5635   0.482   0.345   0.649
 1834SOL     OW 5636   3.361   1.223   0.762
 1834SOL    HW1 5637   3.290   1.287   0.771
 1834SOL    HW2 5638   3.348   1.164   0.837
 1835SOL     OW 5639   1.574   3.254   0.914
 1835SOL    HW1 5640   1.659   3.270   0.871
 1835SOL    HW2 5641   1.511   3.298   0.857
 1836SOL     OW 5642   1.544   0.888   1.527
 1836SOL    HW1 5643   1.597   0.939   1.466
 1836SOL    HW2 5644   1.510   0.816   1.475
 1837SOL     OW 5645   1.566   1.556   1.294
 1837SOL    HW1 5646   1.532   1.631   1.245
 1837SOL    HW2 5647   1.634   1.594   1.351
 1838SOL     OW 5648   0.758   2.633   1.954
 1838SOL    HW1 5649   0.790   2.709   1.905
 1838SOL    HW2 5650   0.836   2.579   1.968
 1839SOL     OW 5651   0.245   3.776   1.019
 1839SOL    HW1 5652   0.269   3.684   1.005
 1839SOL    HW2 5653   0.219   3.779   1.112
 1840SOL     OW 5654   1.648   3.368   2.412
 1840SOL    HW1 5655   1.642   3.373   2.508
 1840SOL    HW2 5656   1.574   3.419   2.380
 1841SOL     OW 5657   1.649   3.919   1.061
 1841SOL    HW1 5658   1.617   3.932   0.971
 1841SOL    HW2 5659   1.608   3.989   1.111
 1842SOL     OW 5660   2.459   1.448   1.706
 1842SOL    HW1 5661   2.442   1.361   1.741
 1842SOL    HW2 5662   2.380   1.471   1.658
 1843SOL     OW 5663   1.271   2.892   2.202
 1843SOL    HW1 5664   1.191   2.906   2.152
 1843SOL    HW2 5665   1.334   2.952   2.163
 1844SOL     OW 5666   1.297   3.655   0.369
 1844SOL    HW1 5667   1.299   3.676   0.463
 1844SOL    HW2 5668   1.250   3.728   0.330
 1845SOL     OW 5669   0.504   2.443   1.572
 1845SOL    HW1 5670   0.471   2.514   1.626
 1845SOL    HW2 5671   0.449   2.368   1.594
 1846SOL     OW 5672   2.084   1.788   3.936
 1846SOL    HW1 5673   2.057   1.821   4.021
 1846SOL    HW2 5674   2.142   1.855   3.900
 1847SOL     OW 5675   3.400   0.521   2.887
 1847SOL    HW1 5676   3.472   0.481   2.935
 1847SOL    HW2 5677   3.395   0.471   2.805
 1848SOL     OW 5678   3.542   2.118   0.218
 1848SOL    HW1 5679   3.614   2.063   0.187
 1848SOL    HW2 5680   3.504   2.069   0.291
 1849SOL     OW 5681   2.008   2.923   0.780
 1849SOL    HW1 5682   1.967   2.836   0.779
 1849SOL    HW2 5683   2.063   2.922   0.858
 1850SOL     OW 5684   2.296   2.583   3.527
 1850SOL    HW1 5685   2.289   2.678   3.511
 1850SOL    HW2 5686   2.257   2.543   3.449
 1851SOL     OW 5687   0.944   3.023   3.634
 1851SOL    HW1 5688   0.973   2.953   3.576
 1851SOL    HW2 5689   0.903   3.087   3.576
 1852SOL     OW 5690   0.087   1.236   2.127
 1852SOL    HW1 5691   0.037   1.311   2.160
 1852SOL    HW2 5692   0.159   1.225   2.189
 1853SOL     OW 5693   0.887   2.522   2.553
 1853SOL    HW1 5694   0.807   2.470   2.557
 1853SOL    HW2 5695   0.945   2.483   2.619
 1854SOL     OW 5696   3.923   3.365   0.597
 1854SOL    HW1 5697   3.872   3.429   0.647
 1854SOL    HW2 5698   3.860   3.328   0.535
 1855SOL     OW 5699   3.843   0.850   0.301
 1855SOL    HW1 5700   3.803   0.876   0.219
 1855SOL    HW2 5701   3.910   0.786   0.276
 1856SOL     OW 5702   1.556   1.990   2.789
 1856SOL    HW1 5703   1.534   2.053   2.857
 1856SOL    HW2 5704   1.613   1.926   2.833
 1857SOL     OW 5705   0.183   2.248   3.020
 1857SOL    HW1 5706   0.122   2.300   3.072
 1857SOL    HW2 5707   0.197   2.300   2.941
 1858SOL     OW 5708   3.212   2.279   1.281
 1858SOL    HW1 5709   3.155   2.356   1.282
 1858SOL    HW2 5710   3.227   2.260   1.374
 1859SOL     OW 5711   3.785   2.663   1.496
 1859SOL    HW1 5712   3.777   2.698   1.585
 1859SOL    HW2 5713   3.707   2.694   1.451
 1860SOL     OW 5714   0.285   1.045   3.166
 1860SOL    HW1 5715   0.360   0.991   3.192
 1860SOL    HW2 5716   0.291   1.049   3.070
 1861SOL     OW 5717   2.354   3.343   0.024
 1861SOL    HW1 5718   2.259   3.348   0.014
 1861SOL    HW2 5719   2.368   3.272   0.087
 1862SOL     OW 5720   3.894   1.530   2.742
 1862SOL    HW1 5721   3.810   1.573   2.759
 1862SOL    HW2 5722   3.959   1.601   2.747
 1863SOL     OW 5723   0.425   1.042   2.872
 1863SOL    HW1 5724   0.406   0.949   2.866
 1863SOL    HW2 5725   0.485   1.060   2.800
 1864SOL     OW 5726   2.661   2.804   0.899
 1864SOL    HW1 5727   2.729   2.856   0.943
 1864SOL    HW2 5728   2.670   2.716   0.935
 1865SOL     OW 5729   3.802   1.542   1.808
 1865SOL    HW1 5730   3.757   1.621   1.780
 1865SOL    HW2 5731   3.871   1.572   1.866
 1866SOL     OW 5732   3.639   0.219   2.302
 1866SOL    HW1 5733   3.700   0.229   2.376
 1866SOL    HW2 5734   3.692   0.177   2.234
 1867SOL     OW 5735   0.502   2.527   2.070
 1867SOL    HW1 5736   0.588   2.560   2.098
 1867SOL    HW2 5737   0.490   2.446   2.119
 1868SOL     OW 5738   3.427   2.243   0.762
 1868SOL    HW1 5739   3.473   2.164   0.789
 1868SOL    HW2 5740   3.490   2.289   0.705
 1869SOL     OW 5741   3.637   1.695   2.537
 1869SOL    HW1 5742   3.606   1.659   2.620
 1869SOL    HW2 5743   3.557   1.725   2.493
 1870SOL     OW 5744   3.775   0.194   2.055
 1870SOL    HW1 5745   3.830   0.138   2.001
 1870SOL    HW2 5746   3.771   0.277   2.008
 1871SOL     OW 5747   0.891   0.308   1.114
 1871SOL    HW1 5748   0.835   0.384   1.102
 1871SOL    HW2 5749   0.837   0.233   1.088
 1872SOL     OW 5750   2.400   2.728   0.503
 1872SOL    HW1 5751   2.335   2.679   0.554
 1872SOL    HW2 5752   2.427   2.799   0.562
 1873SOL     OW 5753   1.974   0.894   3.692
 1873SOL    HW1 5754   1.979   0.969   3.752
 1873SOL    HW2 5755   1.943   0.931   3.610
 1874SOL     OW 5756   2.526   2.120   0.278
 1874SOL    HW1 5757   2.454   2.118   0.215
 1874SOL    HW2 5758   2.490   2.166   0.354
 1875SOL     OW 5759   0.123   2.068   1.112
 1875SOL    HW1 5760   0.090   1.992   1.159
 1875SOL    HW2 5761   0.088   2.143   1.159
 1876SOL     OW 5762   1.397   3.397   0.716
 1876SOL    HW1 5763   1.419   3.488   0.737
 1876SOL    HW2 5764   1.313   3.382   0.759
 1877SOL     OW 5765   0.173   3.043   3.868
 1877SOL    HW1 5766   0.220   3.125   3.881
 1877SOL    HW2 5767   0.232   2.975   3.900
 1878SOL     OW 5768   2.707   1.423   1.336
 1878SOL    HW1 5769   2.712   1.485   1.264
 1878SOL    HW2 5770   2.677   1.475   1.411
 1879SOL     OW 5771   3.552   0.032   1.869
 1879SOL    HW1 5772   3.488  -0.038   1.858
 1879SOL    HW2 5773   3.551   0.050   1.963
 1880SOL     OW 5774   0.106   2.708   1.071
 1880SOL    HW1 5775   0.142   2.796   1.080
 1880SOL    HW2 5776   0.157   2.655   1.133
 1881SOL     OW 5777   2.501   2.151   2.960
 1881SOL    HW1 5778   2.569   2.185   3.018
 1881SOL    HW2 5779   2.431   2.216   2.965
 1882SOL     OW 5780   3.125   1.407   0.720
 1882SOL    HW1 5781   3.188   1.441   0.657
 1882SOL    HW2 5782   3.068   1.482   0.739
 1883SOL     OW 5783   3.351   1.162   2.142
 1883SOL    HW1 5784   3.353   1.146   2.236
 1883SOL    HW2 5785   3.294   1.094   2.106
 1884SOL     OW 5786   3.781   0.506   3.488
 1884SOL    HW1 5787   3.806   0.545   3.404
 1884SOL    HW2 5788   3.703   0.555   3.515
 1885SOL     OW 5789   1.433   2.781   1.544
 1885SOL    HW1 5790   1.498   2.807   1.479
 1885SOL    HW2 5791   1.378   2.718   1.498
 1886SOL     OW 5792   0.918   1.884   1.396
 1886SOL    HW1 5793   0.890   1.943   1.466
 1886SOL    HW2 5794   0.983   1.934   1.347
 1887SOL     OW 5795   1.891   1.674   0.599
 1887SOL    HW1 5796   1.902   1.649   0.690
 1887SOL    HW2 5797   1.807   1.636   0.574
 1888SOL     OW 5798   1.596   0.170   1.251
 1888SOL    HW1 5799   1.603   0.169   1.347
 1888SOL    HW2 5800   1.687   0.170   1.221
 1889SOL     OW 5801   1.934   3.735   1.535
 1889SOL    HW1 5802   2.011   3.774   1.494
 1889SOL    HW2 5803   1.897   3.805   1.588
 1890SOL     OW 5804   3.054   2.809   3.357
 1890SOL    HW1 5805   2.965   2.819   3.322
 1890SOL    HW2 5806   3.046   2.737   3.420
 1891SOL     OW 5807   0.583   3.036   1.256
 1891SOL    HW1 5808   0.576   3.077   1.170
 1891SOL    HW2 5809   0.660   3.077   1.296
 1892SOL     OW 5810   3.144   3.896   1.696
 1892SOL    HW1 5811   3.068   3.838   1.692
 1892SOL    HW2 5812   3.157   3.925   1.606
 1893SOL     OW 5813   1.123   3.629   1.099
 1893SOL    HW1 5814   1.062   3.702   1.091
 1893SOL    HW2 5815   1.072   3.558   1.138
 1894SOL     OW 5816   2.035   1.060   2.716
 1894SOL    HW1 5817   2.006   1.077   2.805
 1894SOL    HW2 5818   2.079   1.140   2.689
 1895SOL     OW 5819   3.582   2.923   0.836
 1895SOL    HW1 5820   3.533   3.002   0.859
 1895SOL    HW2 5821   3.592   2.875   0.919
 1896SOL     OW 5822   3.092   2.831   2.247
 1896SOL    HW1 5823   3.123   2.838   2.156
 1896SOL    HW2 5824   3.011   2.882   2.249
 1897SOL     OW 5825   3.949   1.225   1.879
 1897SOL    HW1 5826   3.942   1.132   1.857
 1897SOL    HW2 5827   3.985   1.227   1.967
 1898SOL     OW 5828   2.795   3.876   3.006
 1898SOL    HW1 5829   2.795   3.836   2.919
 1898SOL    HW2 5830   2.780   3.969   2.990
 1899SOL     OW 5831   2.703   2.171   2.698
 1899SOL    HW1 5832   2.663   2.090   2.665
 1899SOL    HW2 5833   2.639   2.206   2.759
 1900SOL     OW 5834   0.901   3.195   3.415
 1900SOL    HW1 5835   0.827   3.254   3.427
 1900SOL    HW2 5836   0.979   3.249   3.430
 1901SOL     OW 5837   1.024   0.606   2.254
 1901SOL    HW1 5838   1.023   0.681   2.193
 1901SOL    HW2 5839   1.116   0.579   2.256
 1902SOL     OW 5840   0.973   1.779   2.195
 1902SOL    HW1 5841   0.977   1.762   2.289
 1902SOL    HW2 5842   1.032   1.854   2.182
 1903SOL     OW 5843   0.033   3.228   2.056
 1903SOL    HW1 5844   0.085   3.304   2.029
 1903SOL    HW2 5845   0.063   3.210   2.146
 1904SOL     OW 5846   0.827   3.612   3.879
 1904SOL    HW1 5847   0.890   3.615   3.951
 1904SOL    HW2 5848   0.756   3.556   3.912
 1905SOL     OW 5849   0.262   0.078   2.712
 1905SOL    HW1 5850   0.179   0.031   2.716
 1905SOL    HW2 5851   0.318   0.025   2.655
 1906SOL     OW 5852   3.148   0.549   1.229
 1906SOL    HW1 5853   3.175   0.637   1.200
 1906SOL    HW2 5854   3.202   0.532   1.306
 1907SOL     OW 5855   1.861   2.702   2.412
 1907SOL    HW1 5856   1.796   2.762   2.448
 1907SOL    HW2 5857   1.855   2.624   2.467
 1908SOL     OW 5858   3.798   0.744   3.804
 1908SOL    HW1 5859   3.873   0.750   3.745
 1908SOL    HW2 5860   3.742   0.678   3.765
 1909SOL     OW 5861   3.326   3.906   2.604
 1909SOL    HW1 5862   3.385   3.967   2.647
 1909SOL    HW2 5863   3.238   3.933   2.632
 1910SOL     OW 5864   1.111   0.626   1.230
 1910SOL    HW1 5865   1.118   0.718   1.257
 1910SOL    HW2 5866   1.101   0.630   1.135
 1911SOL     OW 5867   1.955   1.033   1.246
 1911SOL    HW1 5868   2.041   0.991   1.252
 1911SOL    HW2 5869   1.974   1.123   1.218
 1912SOL     OW 5870   1.813   0.148   2.578
 1912SOL    HW1 5871   1.843   0.068   2.622
 1912SOL    HW2 5872   1.885   0.172   2.520
 1913SOL     OW 5873   0.431   0.291   3.548
 1913SOL    HW1 5874   0.362   0.227   3.565
 1913SOL    HW2 5875   0.416   0.359   3.613
 1914SOL     OW 5876   1.767   1.444   3.574
 1914SOL    HW1 5877   1.829   1.513   3.598
 1914SOL    HW2 5878   1.737   1.409   3.658
 1915SOL     OW 5879   1.448   2.751   0.080
 1915SOL    HW1 5880   1.408   2.769   0.165
 1915SOL    HW2 5881   1.510   2.823   0.067
 1916SOL     OW 5882   1.113   3.869   0.314
 1916SOL    HW1 5883   1.099   3.896   0.224
 1916SOL    HW2 5884   1.073   3.938   0.367
 1917SOL     OW 5885   0.752   0.532   3.921
 1917SOL    HW1 5886   0.815   0.488   3.864
 1917SOL    HW2 5887   0.744   0.474   3.997
 1918NA      NA 5888   1.862   3.817   1.132
 1919NA      NA 5889   3.486   1.629   0.134
   3.96100   3.96100   3.96100   0.00000   0.00000   0.00000   0.00000   0.00000   0.00000
