Generated with MDTraj, t= 13973.0
 5889
    1TYR      N    1   1.475   3.453   2.061
    1TYR     H1    2   1.569   3.431   2.100
    1TYR     H2    3   1.493   3.508   1.975
    1TYR     H3    4   1.422   3.516   2.125
    1TYR     CA    5   1.389   3.335   2.028
    1TYR     HA    6   1.362   3.281   2.118
    1TYR     CB    7   1.268   3.392   1.951
    1TYR    HB1    8   1.216   3.452   2.028
    1TYR    HB2    9   1.307   3.450   1.865
    1TYR     CG   10   1.170   3.288   1.916
    1TYR    CD1   11   1.104   3.215   2.009
    1TYR    HD1   12   1.122   3.223   2.115
    1TYR    CE1   13   1.022   3.105   1.967
    1TYR    HE1   14   0.979   3.051   2.050
    1TYR     CZ   15   0.999   3.078   1.831
    1TYR     OH   16   0.907   2.983   1.771
    1TYR     HH   17   0.839   2.963   1.837
    1TYR    CD2   18   1.143   3.274   1.783
    1TYR    HD2   19   1.187   3.334   1.706
    1TYR    CE2   20   1.066   3.162   1.740
    1TYR    HE2   21   1.040   3.150   1.636
    1TYR      C   22   1.492   3.252   1.944
    1TYR      O   23   1.609   3.286   1.928
    2TYR      N   24   1.450   3.142   1.885
    2TYR     HN   25   1.356   3.112   1.894
    2TYR     CA   26   1.540   3.064   1.813
    2TYR     HA   27   1.627   3.030   1.868
    2TYR     CB   28   1.462   2.934   1.763
    2TYR    HB1   29   1.395   2.954   1.676
    2TYR    HB2   30   1.533   2.858   1.725
    2TYR     CG   31   1.377   2.869   1.875
    2TYR    CD1   32   1.241   2.841   1.856
    2TYR    HD1   33   1.193   2.865   1.763
    2TYR    CE1   34   1.154   2.812   1.970
    2TYR    HE1   35   1.050   2.785   1.968
    2TYR     CZ   36   1.220   2.800   2.090
    2TYR     OH   37   1.149   2.774   2.208
    2TYR     HH   38   1.208   2.785   2.283
    2TYR    CD2   39   1.438   2.855   2.005
    2TYR    HD2   40   1.543   2.876   2.014
    2TYR    CE2   41   1.354   2.830   2.112
    2TYR    HE2   42   1.407   2.821   2.205
    2TYR      C   43   1.581   3.139   1.685
    2TYR      O   44   1.528   3.248   1.660
    3ASP      N   45   1.666   3.082   1.592
    3ASP     HN   46   1.703   2.994   1.623
    3ASP     CA   47   1.691   3.141   1.459
    3ASP     HA   48   1.600   3.191   1.431
    3ASP     CB   49   1.809   3.242   1.463
    3ASP    HB1   50   1.787   3.309   1.549
    3ASP    HB2   51   1.909   3.196   1.476
    3ASP     CG   52   1.812   3.335   1.341
    3ASP    OD1   53   1.820   3.282   1.228
    3ASP    OD2   54   1.811   3.456   1.362
    3ASP      C   55   1.707   3.024   1.358
    3ASP      O   56   1.777   2.930   1.398
    4PRO      N   57   1.658   3.030   1.237
    4PRO     CD   58   1.542   3.110   1.202
    4PRO    HD1   59   1.546   3.214   1.239
    4PRO    HD2   60   1.450   3.060   1.240
    4PRO     CA   61   1.678   2.918   1.143
    4PRO     HA   62   1.660   2.824   1.193
    4PRO     CB   63   1.565   2.945   1.037
    4PRO    HB1   64   1.575   2.910   0.932
    4PRO    HB2   65   1.467   2.898   1.063
    4PRO     CG   66   1.539   3.103   1.052
    4PRO    HG1   67   1.620   3.170   1.016
    4PRO    HG2   68   1.441   3.143   1.018
    4PRO      C   69   1.813   2.923   1.077
    4PRO      O   70   1.862   2.821   1.018
    5GLU      N   71   1.876   3.041   1.089
    5GLU     HN   72   1.843   3.125   1.131
    5GLU     CA   73   2.010   3.059   1.033
    5GLU     HA   74   2.027   3.010   0.938
    5GLU     CB   75   2.037   3.199   0.980
    5GLU    HB1   76   2.021   3.271   1.064
    5GLU    HB2   77   2.142   3.212   0.946
    5GLU     CG   78   1.932   3.233   0.868
    5GLU    HG1   79   1.949   3.160   0.786
    5GLU    HG2   80   1.826   3.218   0.897
    5GLU     CD   81   1.955   3.375   0.827
    5GLU    OE1   82   2.041   3.399   0.733
    5GLU    OE2   83   1.901   3.468   0.895
    5GLU      C   84   2.120   3.018   1.135
    5GLU      O   85   2.222   2.965   1.095
    6THR      N   86   2.098   3.038   1.269
    6THR     HN   87   2.015   3.084   1.300
    6THR     CA   88   2.183   2.971   1.366
    6THR     HA   89   2.285   2.984   1.333
    6THR     CB   90   2.163   3.010   1.515
    6THR     HB   91   2.221   2.941   1.581
    6THR    OG1   92   2.030   2.986   1.567
    6THR    HG1   93   2.022   3.007   1.661
    6THR    CG2   94   2.181   3.163   1.538
    6THR   HG21   95   2.112   3.215   1.468
    6THR   HG22   96   2.163   3.204   1.640
    6THR   HG23   97   2.278   3.207   1.507
    6THR      C   98   2.158   2.824   1.367
    6THR      O   99   2.253   2.746   1.355
    7GLY      N  100   2.029   2.783   1.372
    7GLY     HN  101   1.961   2.854   1.385
    7GLY     CA  102   1.993   2.643   1.357
    7GLY    HA1  103   1.932   2.633   1.268
    7GLY    HA2  104   2.079   2.583   1.333
    7GLY      C  105   1.918   2.579   1.470
    7GLY      O  106   1.900   2.459   1.484
    8THR      N  107   1.886   2.665   1.568
    8THR     HN  108   1.887   2.765   1.566
    8THR     CA  109   1.820   2.618   1.689
    8THR     HA  110   1.872   2.530   1.721
    8THR     CB  111   1.839   2.720   1.804
    8THR     HB  112   1.796   2.690   1.902
    8THR    OG1  113   1.786   2.850   1.784
    8THR    HG1  114   1.804   2.902   1.863
    8THR    CG2  115   1.990   2.738   1.828
    8THR   HG21  116   2.035   2.644   1.867
    8THR   HG22  117   2.036   2.776   1.734
    8THR   HG23  118   2.003   2.813   1.908
    8THR      C  119   1.679   2.570   1.682
    8THR      O  120   1.621   2.537   1.782
    9TRP      N  121   1.622   2.557   1.556
    9TRP     HN  122   1.669   2.600   1.479
    9TRP     CA  123   1.506   2.480   1.523
    9TRP     HA  124   1.423   2.497   1.591
    9TRP     CB  125   1.446   2.519   1.388
    9TRP    HB1  126   1.522   2.515   1.307
    9TRP    HB2  127   1.372   2.442   1.357
    9TRP     CG  128   1.377   2.657   1.371
    9TRP    CD1  129   1.385   2.772   1.449
    9TRP    HD1  130   1.431   2.768   1.546
    9TRP    NE1  131   1.313   2.872   1.389
    9TRP    HE1  132   1.319   2.966   1.411
    9TRP    CE2  133   1.260   2.825   1.274
    9TRP    CD2  134   1.299   2.691   1.258
    9TRP    CE3  135   1.259   2.610   1.154
    9TRP    HE3  136   1.289   2.507   1.152
    9TRP    CZ3  137   1.168   2.666   1.060
    9TRP    HZ3  138   1.139   2.598   0.981
    9TRP    CZ2  139   1.166   2.884   1.180
    9TRP    HZ2  140   1.134   2.986   1.195
    9TRP    CH2  141   1.112   2.800   1.082
    9TRP    HH2  142   1.036   2.846   1.020
    9TRP      C  143   1.538   2.333   1.536
    9TRP      O  144   1.441   2.253   1.565
   10TYR      N  145   1.658   2.281   1.514
   10TYR     HN  146   1.729   2.347   1.491
   10TYR     CA  147   1.686   2.137   1.503
   10TYR     HA  148   1.596   2.088   1.467
   10TYR     CB  149   1.802   2.122   1.399
   10TYR    HB1  150   1.899   2.155   1.442
   10TYR    HB2  151   1.814   2.011   1.397
   10TYR     CG  152   1.776   2.167   1.257
   10TYR    CD1  153   1.666   2.120   1.192
   10TYR    HD1  154   1.612   2.035   1.230
   10TYR    CE1  155   1.635   2.166   1.060
   10TYR    HE1  156   1.562   2.122   0.994
   10TYR     CZ  157   1.705   2.276   1.008
   10TYR     OH  158   1.680   2.336   0.882
   10TYR     HH  159   1.750   2.399   0.864
   10TYR    CD2  160   1.847   2.273   1.203
   10TYR    HD2  161   1.929   2.310   1.261
   10TYR    CE2  162   1.807   2.331   1.086
   10TYR    HE2  163   1.861   2.415   1.044
   10TYR      C  164   1.728   2.087   1.630
   10TYR    OT1  165   1.698   1.972   1.669
   10TYR    OT2  166   1.802   2.161   1.703
   11SOL     OW  167   2.918   0.557   3.390
   11SOL    HW1  168   2.942   0.466   3.403
   11SOL    HW2  169   2.822   0.556   3.382
   12SOL     OW  170   2.186   2.082   2.992
   12SOL    HW1  171   2.255   2.059   2.930
   12SOL    HW2  172   2.109   2.036   2.959
   13SOL     OW  173   3.824   2.639   1.291
   13SOL    HW1  174   3.801   2.636   1.198
   13SOL    HW2  175   3.920   2.633   1.292
   14SOL     OW  176   3.841   3.248   1.161
   14SOL    HW1  177   3.837   3.329   1.109
   14SOL    HW2  178   3.752   3.238   1.194
   15SOL     OW  179   1.358   0.501   2.634
   15SOL    HW1  180   1.278   0.535   2.674
   15SOL    HW2  181   1.422   0.572   2.642
   16SOL     OW  182   2.369   3.645   0.383
   16SOL    HW1  183   2.343   3.734   0.408
   16SOL    HW2  184   2.434   3.620   0.449
   17SOL     OW  185   1.008   1.713   0.856
   17SOL    HW1  186   1.038   1.753   0.775
   17SOL    HW2  187   1.030   1.620   0.847
   18SOL     OW  188   0.832   3.269   3.751
   18SOL    HW1  189   0.824   3.216   3.830
   18SOL    HW2  190   0.926   3.278   3.738
   19SOL     OW  191   3.344   2.839   1.431
   19SOL    HW1  192   3.342   2.802   1.519
   19SOL    HW2  193   3.415   2.792   1.387
   20SOL     OW  194   0.087   0.434   0.646
   20SOL    HW1  195   0.061   0.514   0.601
   20SOL    HW2  196   0.040   0.364   0.601
   21SOL     OW  197   0.795   0.292   3.691
   21SOL    HW1  198   0.865   0.229   3.712
   21SOL    HW2  199   0.765   0.266   3.604
   22SOL     OW  200   0.872   0.043   0.078
   22SOL    HW1  201   0.925   0.116   0.045
   22SOL    HW2  202   0.822   0.081   0.151
   23SOL     OW  203   0.733   3.150   2.184
   23SOL    HW1  204   0.763   3.241   2.193
   23SOL    HW2  205   0.732   3.116   2.274
   24SOL     OW  206   3.191   3.608   3.206
   24SOL    HW1  207   3.194   3.532   3.148
   24SOL    HW2  208   3.211   3.572   3.292
   25SOL     OW  209   2.971   1.730   0.252
   25SOL    HW1  210   2.900   1.785   0.283
   25SOL    HW2  211   2.958   1.723   0.157
   26SOL     OW  212   3.583   1.598   1.617
   26SOL    HW1  213   3.665   1.582   1.570
   26SOL    HW2  214   3.516   1.595   1.550
   27SOL     OW  215   3.645   3.257   0.793
   27SOL    HW1  216   3.672   3.348   0.782
   27SOL    HW2  217   3.564   3.262   0.843
   28SOL     OW  218   1.586   0.178   0.204
   28SOL    HW1  219   1.608   0.229   0.282
   28SOL    HW2  220   1.493   0.197   0.189
   29SOL     OW  221   2.594   1.535   2.925
   29SOL    HW1  222   2.657   1.583   2.979
   29SOL    HW2  223   2.637   1.526   2.841
   30SOL     OW  224   0.456   0.044   0.796
   30SOL    HW1  225   0.455  -0.031   0.737
   30SOL    HW2  226   0.448   0.006   0.883
   31SOL     OW  227   0.208   0.208   1.913
   31SOL    HW1  228   0.113   0.211   1.900
   31SOL    HW2  229   0.232   0.298   1.935
   32SOL     OW  230   0.810   3.451   0.119
   32SOL    HW1  231   0.762   3.508   0.179
   32SOL    HW2  232   0.877   3.507   0.081
   33SOL     OW  233   3.397   3.051   3.763
   33SOL    HW1  234   3.362   3.118   3.821
   33SOL    HW2  235   3.389   2.970   3.813
   34SOL     OW  236   0.402   0.149   1.690
   34SOL    HW1  237   0.394   0.201   1.609
   34SOL    HW2  238   0.336   0.187   1.749
   35SOL     OW  239   2.014   0.348   2.331
   35SOL    HW1  240   1.924   0.345   2.299
   35SOL    HW2  241   2.068   0.335   2.253
   36SOL     OW  242   2.491   1.930   2.453
   36SOL    HW1  243   2.530   1.853   2.413
   36SOL    HW2  244   2.429   1.895   2.517
   37SOL     OW  245   3.703   2.247   3.575
   37SOL    HW1  246   3.677   2.184   3.643
   37SOL    HW2  247   3.620   2.277   3.538
   38SOL     OW  248   2.963   2.231   1.673
   38SOL    HW1  249   2.881   2.240   1.625
   38SOL    HW2  250   2.998   2.320   1.678
   39SOL     OW  251   0.692   0.729   3.834
   39SOL    HW1  252   0.754   0.780   3.885
   39SOL    HW2  253   0.702   0.640   3.865
   40SOL     OW  254   2.703   0.196   3.230
   40SOL    HW1  255   2.628   0.141   3.253
   40SOL    HW2  256   2.679   0.283   3.261
   41SOL     OW  257   2.584   2.244   3.202
   41SOL    HW1  258   2.493   2.220   3.220
   41SOL    HW2  259   2.631   2.160   3.200
   42SOL     OW  260   0.593   2.561   3.241
   42SOL    HW1  261   0.514   2.528   3.285
   42SOL    HW2  262   0.664   2.509   3.279
   43SOL     OW  263   1.306   1.258   1.734
   43SOL    HW1  264   1.331   1.166   1.747
   43SOL    HW2  265   1.362   1.306   1.794
   44SOL     OW  266   3.583   3.669   2.977
   44SOL    HW1  267   3.644   3.723   2.926
   44SOL    HW2  268   3.502   3.671   2.926
   45SOL     OW  269   3.101   1.116   2.153
   45SOL    HW1  270   3.162   1.186   2.130
   45SOL    HW2  271   3.015   1.150   2.128
   46SOL     OW  272   0.543   3.877   2.706
   46SOL    HW1  273   0.470   3.879   2.645
   46SOL    HW2  274   0.579   3.966   2.705
   47SOL     OW  275   1.455   2.974   3.874
   47SOL    HW1  276   1.501   2.920   3.810
   47SOL    HW2  277   1.380   2.921   3.901
   48SOL     OW  278   0.154   1.835   2.106
   48SOL    HW1  279   0.167   1.868   2.017
   48SOL    HW2  280   0.081   1.775   2.099
   49SOL     OW  281   0.763   0.978   0.010
   49SOL    HW1  282   0.845   0.984   0.058
   49SOL    HW2  283   0.752   1.065  -0.029
   50SOL     OW  284   0.366   3.264   3.546
   50SOL    HW1  285   0.340   3.222   3.629
   50SOL    HW2  286   0.298   3.330   3.531
   51SOL     OW  287   2.060   0.921   3.280
   51SOL    HW1  288   2.093   0.867   3.209
   51SOL    HW2  289   1.981   0.876   3.311
   52SOL     OW  290   1.148   1.769   2.740
   52SOL    HW1  291   1.115   1.816   2.817
   52SOL    HW2  292   1.204   1.832   2.696
   53SOL     OW  293   0.353   0.977   1.360
   53SOL    HW1  294   0.416   0.978   1.287
   53SOL    HW2  295   0.268   0.989   1.319
   54SOL     OW  296   0.531   0.960   0.965
   54SOL    HW1  297   0.473   0.936   0.893
   54SOL    HW2  298   0.619   0.936   0.934
   55SOL     OW  299   1.297   3.579   2.231
   55SOL    HW1  300   1.229   3.552   2.293
   55SOL    HW2  301   1.278   3.672   2.214
   56SOL     OW  302   3.818   3.048   2.528
   56SOL    HW1  303   3.767   3.128   2.541
   56SOL    HW2  304   3.754   2.983   2.501
   57SOL     OW  305   3.246   1.645   2.943
   57SOL    HW1  306   3.282   1.716   2.890
   57SOL    HW2  307   3.166   1.681   2.981
   58SOL     OW  308   3.423   1.889   1.296
   58SOL    HW1  309   3.496   1.827   1.298
   58SOL    HW2  310   3.345   1.835   1.292
   59SOL     OW  311   0.269   1.918   1.861
   59SOL    HW1  312   0.314   1.861   1.799
   59SOL    HW2  313   0.338   1.948   1.920
   60SOL     OW  314   0.301   2.278   2.085
   60SOL    HW1  315   0.390   2.312   2.094
   60SOL    HW2  316   0.291   2.218   2.159
   61SOL     OW  317   2.403   3.199   0.746
   61SOL    HW1  318   2.338   3.152   0.693
   61SOL    HW2  319   2.443   3.260   0.685
   62SOL     OW  320   1.285   1.194   3.729
   62SOL    HW1  321   1.256   1.275   3.687
   62SOL    HW2  322   1.230   1.187   3.807
   63SOL     OW  323   3.553   2.725   0.799
   63SOL    HW1  324   3.597   2.806   0.775
   63SOL    HW2  325   3.462   2.751   0.815
   64SOL     OW  326   0.679   0.116   0.277
   64SOL    HW1  327   0.680   0.035   0.328
   64SOL    HW2  328   0.684   0.185   0.343
   65SOL     OW  329   3.358   3.943   0.743
   65SOL    HW1  330   3.413   4.007   0.788
   65SOL    HW2  331   3.367   3.863   0.796
   66SOL     OW  332   3.113   3.667   2.339
   66SOL    HW1  333   3.025   3.654   2.305
   66SOL    HW2  334   3.122   3.762   2.348
   67SOL     OW  335   2.048   3.316   3.289
   67SOL    HW1  336   2.050   3.250   3.358
   67SOL    HW2  337   2.116   3.379   3.314
   68SOL     OW  338   1.637   2.747   0.380
   68SOL    HW1  339   1.558   2.705   0.412
   68SOL    HW2  340   1.649   2.823   0.438
   69SOL     OW  341   0.248   0.913   0.174
   69SOL    HW1  342   0.303   0.905   0.096
   69SOL    HW2  343   0.192   0.989   0.156
   70SOL     OW  344   2.886   2.495   0.331
   70SOL    HW1  345   2.945   2.495   0.256
   70SOL    HW2  346   2.825   2.567   0.313
   71SOL     OW  347   0.501   3.729   2.388
   71SOL    HW1  348   0.490   3.679   2.469
   71SOL    HW2  349   0.455   3.677   2.322
   72SOL     OW  350   0.801   3.525   3.404
   72SOL    HW1  351   0.747   3.486   3.473
   72SOL    HW2  352   0.811   3.616   3.430
   73SOL     OW  353   1.309   3.621   0.345
   73SOL    HW1  354   1.328   3.589   0.256
   73SOL    HW2  355   1.333   3.713   0.342
   74SOL     OW  356   3.883   2.668   2.268
   74SOL    HW1  357   3.912   2.581   2.293
   74SOL    HW2  358   3.962   2.713   2.240
   75SOL     OW  359   1.193   1.394   0.665
   75SOL    HW1  360   1.220   1.485   0.648
   75SOL    HW2  361   1.127   1.402   0.733
   76SOL     OW  362   3.467   1.371   0.497
   76SOL    HW1  363   3.464   1.458   0.459
   76SOL    HW2  364   3.537   1.326   0.450
   77SOL     OW  365   0.764   2.773   3.348
   77SOL    HW1  366   0.739   2.697   3.295
   77SOL    HW2  367   0.839   2.811   3.301
   78SOL     OW  368   1.194   0.724   1.665
   78SOL    HW1  369   1.213   0.728   1.572
   78SOL    HW2  370   1.274   0.753   1.708
   79SOL     OW  371   3.817   3.345   3.190
   79SOL    HW1  372   3.859   3.291   3.256
   79SOL    HW2  373   3.857   3.317   3.107
   80SOL     OW  374   2.711   0.276   0.092
   80SOL    HW1  375   2.721   0.229   0.009
   80SOL    HW2  376   2.789   0.333   0.096
   81SOL     OW  377   0.555   0.314   2.252
   81SOL    HW1  378   0.540   0.333   2.159
   81SOL    HW2  379   0.650   0.300   2.258
   82SOL     OW  380   2.095   3.116   2.543
   82SOL    HW1  381   2.154   3.043   2.560
   82SOL    HW2  382   2.118   3.181   2.609
   83SOL     OW  383   3.498   1.062   0.276
   83SOL    HW1  384   3.408   1.030   0.271
   83SOL    HW2  385   3.511   1.111   0.195
   84SOL     OW  386   1.356   3.506   0.578
   84SOL    HW1  387   1.339   3.539   0.489
   84SOL    HW2  388   1.451   3.500   0.583
   85SOL     OW  389   3.878   0.514   2.408
   85SOL    HW1  390   3.883   0.597   2.455
   85SOL    HW2  391   3.785   0.491   2.408
   86SOL     OW  392   3.654   2.975   0.744
   86SOL    HW1  393   3.627   3.053   0.793
   86SOL    HW2  394   3.699   3.009   0.667
   87SOL     OW  395   1.958   2.414   1.972
   87SOL    HW1  396   1.874   2.369   1.980
   87SOL    HW2  397   1.999   2.375   1.895
   88SOL     OW  398   1.577   3.281   3.363
   88SOL    HW1  399   1.579   3.352   3.299
   88SOL    HW2  400   1.668   3.252   3.370
   89SOL     OW  401   0.820   0.673   3.351
   89SOL    HW1  402   0.844   0.734   3.421
   89SOL    HW2  403   0.902   0.631   3.326
   90SOL     OW  404   0.225   3.796   3.415
   90SOL    HW1  405   0.159   3.863   3.397
   90SOL    HW2  406   0.190   3.748   3.490
   91SOL     OW  407   2.663   2.440   2.468
   91SOL    HW1  408   2.603   2.480   2.406
   91SOL    HW2  409   2.629   2.352   2.482
   92SOL     OW  410   3.226   1.651   1.141
   92SOL    HW1  411   3.148   1.704   1.154
   92SOL    HW2  412   3.211   1.605   1.059
   93SOL     OW  413   2.142   3.215   2.250
   93SOL    HW1  414   2.216   3.263   2.287
   93SOL    HW2  415   2.110   3.162   2.322
   94SOL     OW  416   0.131   3.056   1.902
   94SOL    HW1  417   0.121   3.069   1.997
   94SOL    HW2  418   0.136   3.145   1.866
   95SOL     OW  419   3.010   3.194   1.997
   95SOL    HW1  420   2.966   3.266   1.953
   95SOL    HW2  421   3.046   3.140   1.927
   96SOL     OW  422   2.995   0.941   1.471
   96SOL    HW1  423   3.087   0.917   1.456
   96SOL    HW2  424   2.949   0.909   1.394
   97SOL     OW  425   3.212   0.937   1.005
   97SOL    HW1  426   3.267   0.925   0.928
   97SOL    HW2  427   3.251   0.880   1.072
   98SOL     OW  428   2.126   2.919   3.144
   98SOL    HW1  429   2.184   2.847   3.169
   98SOL    HW2  430   2.148   2.937   3.053
   99SOL     OW  431   0.319   3.905   3.139
   99SOL    HW1  432   0.325   3.828   3.195
   99SOL    HW2  433   0.256   3.962   3.183
  100SOL     OW  434   2.529   2.306   2.248
  100SOL    HW1  435   2.552   2.265   2.332
  100SOL    HW2  436   2.451   2.259   2.219
  101SOL     OW  437   0.504   0.874   2.303
  101SOL    HW1  438   0.481   0.896   2.393
  101SOL    HW2  439   0.476   0.783   2.293
  102SOL     OW  440   0.456   0.401   2.910
  102SOL    HW1  441   0.441   0.407   2.816
  102SOL    HW2  442   0.549   0.383   2.919
  103SOL     OW  443   0.394   1.712   3.171
  103SOL    HW1  444   0.370   1.724   3.079
  103SOL    HW2  445   0.315   1.678   3.212
  104SOL     OW  446   0.033   2.579   2.720
  104SOL    HW1  447   0.093   2.568   2.647
  104SOL    HW2  448   0.089   2.574   2.798
  105SOL     OW  449   3.300   3.479   1.349
  105SOL    HW1  450   3.388   3.480   1.311
  105SOL    HW2  451   3.287   3.389   1.379
  106SOL     OW  452   1.051   2.990   2.449
  106SOL    HW1  453   1.024   2.956   2.364
  106SOL    HW2  454   0.981   3.050   2.475
  107SOL     OW  455   3.596   0.515   3.095
  107SOL    HW1  456   3.566   0.598   3.133
  107SOL    HW2  457   3.678   0.537   3.051
  108SOL     OW  458   2.808   1.681   3.089
  108SOL    HW1  459   2.855   1.716   3.014
  108SOL    HW2  460   2.846   1.594   3.103
  109SOL     OW  461   3.044   3.894   3.788
  109SOL    HW1  462   3.001   3.848   3.716
  109SOL    HW2  463   3.086   3.970   3.746
  110SOL     OW  464   3.751   3.791   0.150
  110SOL    HW1  465   3.787   3.846   0.220
  110SOL    HW2  466   3.724   3.853   0.082
  111SOL     OW  467   0.468   3.777   3.604
  111SOL    HW1  468   0.432   3.802   3.689
  111SOL    HW2  469   0.392   3.774   3.546
  112SOL     OW  470   0.203   2.211   1.088
  112SOL    HW1  471   0.296   2.192   1.097
  112SOL    HW2  472   0.198   2.277   1.018
  113SOL     OW  473   1.271   0.519   0.578
  113SOL    HW1  474   1.280   0.602   0.531
  113SOL    HW2  475   1.180   0.517   0.608
  114SOL     OW  476   1.049   1.020   1.091
  114SOL    HW1  477   1.011   1.072   1.163
  114SOL    HW2  478   1.135   1.058   1.077
  115SOL     OW  479   1.744   1.667   3.373
  115SOL    HW1  480   1.664   1.614   3.370
  115SOL    HW2  481   1.747   1.710   3.288
  116SOL     OW  482   0.391   0.565   2.259
  116SOL    HW1  483   0.439   0.488   2.290
  116SOL    HW2  484   0.324   0.529   2.201
  117SOL     OW  485   2.221   2.314   0.866
  117SOL    HW1  486   2.147   2.342   0.813
  117SOL    HW2  487   2.285   2.384   0.856
  118SOL     OW  488   2.845   2.726   2.722
  118SOL    HW1  489   2.923   2.731   2.667
  118SOL    HW2  490   2.782   2.676   2.670
  119SOL     OW  491   1.309   2.815   0.076
  119SOL    HW1  492   1.329   2.893   0.128
  119SOL    HW2  493   1.386   2.759   0.088
  120SOL     OW  494   2.988   2.304   3.751
  120SOL    HW1  495   2.962   2.212   3.758
  120SOL    HW2  496   2.909   2.349   3.721
  121SOL     OW  497   3.192   1.923   3.689
  121SOL    HW1  498   3.180   2.012   3.656
  121SOL    HW2  499   3.186   1.867   3.612
  122SOL     OW  500   3.437   3.946   0.092
  122SOL    HW1  501   3.448   3.856   0.063
  122SOL    HW2  502   3.492   3.997   0.032
  123SOL     OW  503   3.198   0.456   1.003
  123SOL    HW1  504   3.103   0.453   1.016
  123SOL    HW2  505   3.214   0.390   0.935
  124SOL     OW  506   0.774   1.033   1.214
  124SOL    HW1  507   0.702   1.068   1.162
  124SOL    HW2  508   0.808   1.108   1.262
  125SOL     OW  509   1.907   0.683   1.357
  125SOL    HW1  510   1.945   0.643   1.435
  125SOL    HW2  511   1.914   0.778   1.373
  126SOL     OW  512   0.208   2.705   1.914
  126SOL    HW1  513   0.292   2.673   1.880
  126SOL    HW2  514   0.142   2.656   1.864
  127SOL     OW  515   1.724   2.272   1.931
  127SOL    HW1  516   1.750   2.245   1.843
  127SOL    HW2  517   1.664   2.203   1.960
  128SOL     OW  518   0.806   3.118   2.486
  128SOL    HW1  519   0.757   3.197   2.511
  128SOL    HW2  520   0.757   3.046   2.524
  129SOL     OW  521   2.962   2.656   1.636
  129SOL    HW1  522   2.992   2.684   1.723
  129SOL    HW2  523   3.005   2.572   1.622
  130SOL     OW  524   2.768   1.080   0.118
  130SOL    HW1  525   2.709   1.156   0.117
  130SOL    HW2  526   2.840   1.105   0.060
  131SOL     OW  527   0.897   0.779   2.012
  131SOL    HW1  528   0.903   0.824   1.928
  131SOL    HW2  529   0.880   0.849   2.075
  132SOL     OW  530   3.076   3.922   2.303
  132SOL    HW1  531   3.066   3.954   2.213
  132SOL    HW2  532   3.086   4.001   2.356
  133SOL     OW  533   1.553   0.227   3.452
  133SOL    HW1  534   1.631   0.278   3.473
  133SOL    HW2  535   1.504   0.282   3.391
  134SOL     OW  536   3.574   2.142   2.307
  134SOL    HW1  537   3.661   2.105   2.321
  134SOL    HW2  538   3.590   2.231   2.276
  135SOL     OW  539   3.426   2.554   2.148
  135SOL    HW1  540   3.396   2.532   2.060
  135SOL    HW2  541   3.497   2.616   2.135
  136SOL     OW  542   2.719   0.109   2.329
  136SOL    HW1  543   2.749   0.034   2.381
  136SOL    HW2  544   2.784   0.119   2.260
  137SOL     OW  545   3.035   0.699   2.884
  137SOL    HW1  546   2.956   0.739   2.920
  137SOL    HW2  547   3.028   0.606   2.907
  138SOL     OW  548   3.301   2.422   2.345
  138SOL    HW1  549   3.289   2.477   2.423
  138SOL    HW2  550   3.345   2.479   2.283
  139SOL     OW  551   0.632   1.560   0.030
  139SOL    HW1  552   0.554   1.510   0.053
  139SOL    HW2  553   0.691   1.497  -0.011
  140SOL     OW  554   3.409   3.765   3.644
  140SOL    HW1  555   3.415   3.815   3.563
  140SOL    HW2  556   3.492   3.781   3.689
  141SOL     OW  557   3.772   0.090   3.277
  141SOL    HW1  558   3.786   0.159   3.212
  141SOL    HW2  559   3.710   0.030   3.235
  142SOL     OW  560   2.372   3.341   2.306
  142SOL    HW1  561   2.410   3.340   2.394
  142SOL    HW2  562   2.446   3.323   2.248
  143SOL     OW  563   1.896   1.508   1.509
  143SOL    HW1  564   1.846   1.439   1.553
  143SOL    HW2  565   1.870   1.589   1.555
  144SOL     OW  566   2.069   1.404   0.383
  144SOL    HW1  567   1.987   1.361   0.409
  144SOL    HW2  568   2.133   1.332   0.376
  145SOL     OW  569   0.684   0.145   2.620
  145SOL    HW1  570   0.776   0.172   2.614
  145SOL    HW2  571   0.634   0.225   2.602
  146SOL     OW  572   3.943   1.626   2.183
  146SOL    HW1  573   3.858   1.616   2.226
  146SOL    HW2  574   3.994   1.550   2.212
  147SOL     OW  575   1.051   3.316   2.580
  147SOL    HW1  576   1.023   3.402   2.612
  147SOL    HW2  577   0.973   3.262   2.583
  148SOL     OW  578   1.676   2.449   3.150
  148SOL    HW1  579   1.752   2.444   3.207
  148SOL    HW2  580   1.689   2.529   3.099
  149SOL     OW  581   0.478   2.009   2.035
  149SOL    HW1  582   0.463   2.075   2.102
  149SOL    HW2  583   0.535   2.053   1.971
  150SOL     OW  584   1.343   2.310   2.727
  150SOL    HW1  585   1.408   2.291   2.659
  150SOL    HW2  586   1.367   2.252   2.799
  151SOL     OW  587   3.038   3.196   0.167
  151SOL    HW1  588   3.095   3.122   0.187
  151SOL    HW2  589   2.969   3.158   0.112
  152SOL     OW  590   0.880   1.650   2.914
  152SOL    HW1  591   0.966   1.691   2.927
  152SOL    HW2  592   0.848   1.633   3.003
  153SOL     OW  593   1.892   2.966   0.493
  153SOL    HW1  594   1.933   3.040   0.449
  153SOL    HW2  595   1.798   2.979   0.482
  154SOL     OW  596   0.445   1.548   0.956
  154SOL    HW1  597   0.528   1.533   1.002
  154SOL    HW2  598   0.445   1.642   0.938
  155SOL     OW  599   2.938   2.955   2.171
  155SOL    HW1  600   2.909   3.042   2.142
  155SOL    HW2  601   2.869   2.896   2.140
  156SOL     OW  602   0.359   3.559   0.331
  156SOL    HW1  603   0.272   3.581   0.300
  156SOL    HW2  604   0.348   3.543   0.425
  157SOL     OW  605   2.439   0.215   1.468
  157SOL    HW1  606   2.346   0.195   1.459
  157SOL    HW2  607   2.480   0.129   1.482
  158SOL     OW  608   2.289   3.440   1.923
  158SOL    HW1  609   2.230   3.370   1.949
  158SOL    HW2  610   2.251   3.477   1.844
  159SOL     OW  611   1.543   0.585   2.345
  159SOL    HW1  612   1.592   0.566   2.425
  159SOL    HW2  613   1.462   0.626   2.375
  160SOL     OW  614   1.946   1.797   3.500
  160SOL    HW1  615   2.016   1.733   3.507
  160SOL    HW2  616   1.873   1.749   3.461
  161SOL     OW  617   0.109   3.695   3.626
  161SOL    HW1  618   0.116   3.641   3.705
  161SOL    HW2  619   0.045   3.762   3.648
  162SOL     OW  620   3.605   3.079   2.102
  162SOL    HW1  621   3.638   3.072   2.013
  162SOL    HW2  622   3.597   3.173   2.118
  163SOL     OW  623   2.504   0.456   1.353
  163SOL    HW1  624   2.469   0.535   1.394
  163SOL    HW2  625   2.466   0.384   1.403
  164SOL     OW  626   3.662   0.166   1.263
  164SOL    HW1  627   3.596   0.218   1.216
  164SOL    HW2  628   3.612   0.121   1.332
  165SOL     OW  629   1.746   0.579   3.258
  165SOL    HW1  630   1.655   0.590   3.230
  165SOL    HW2  631   1.777   0.503   3.208
  166SOL     OW  632   1.728   1.557   0.372
  166SOL    HW1  633   1.787   1.482   0.377
  166SOL    HW2  634   1.699   1.558   0.281
  167SOL     OW  635   0.207   2.016   1.388
  167SOL    HW1  636   0.175   2.089   1.442
  167SOL    HW2  637   0.221   2.054   1.302
  168SOL     OW  638   3.591   1.925   1.531
  168SOL    HW1  639   3.550   1.943   1.615
  168SOL    HW2  640   3.528   1.956   1.466
  169SOL     OW  641   3.641   3.453   1.881
  169SOL    HW1  642   3.598   3.427   1.799
  169SOL    HW2  643   3.613   3.388   1.945
  170SOL     OW  644   2.243   3.848   0.524
  170SOL    HW1  645   2.237   3.780   0.591
  170SOL    HW2  646   2.186   3.919   0.556
  171SOL     OW  647   2.316   0.155   0.911
  171SOL    HW1  648   2.279   0.231   0.865
  171SOL    HW2  649   2.239   0.109   0.945
  172SOL     OW  650   2.487   0.024   3.332
  172SOL    HW1  651   2.396   0.035   3.302
  172SOL    HW2  652   2.483   0.039   3.426
  173SOL     OW  653   3.955   0.149   2.727
  173SOL    HW1  654   4.027   0.183   2.673
  173SOL    HW2  655   3.885   0.131   2.664
  174SOL     OW  656   2.857   2.244   1.104
  174SOL    HW1  657   2.882   2.292   1.183
  174SOL    HW2  658   2.789   2.183   1.133
  175SOL     OW  659   0.230   0.959   3.345
  175SOL    HW1  660   0.292   0.909   3.399
  175SOL    HW2  661   0.206   0.899   3.275
  176SOL     OW  662   1.843   3.409   1.820
  176SOL    HW1  663   1.752   3.389   1.843
  176SOL    HW2  664   1.885   3.323   1.810
  177SOL     OW  665   3.035   0.254   3.469
  177SOL    HW1  666   3.070   0.166   3.461
  177SOL    HW2  667   2.992   0.256   3.554
  178SOL     OW  668   3.579   3.337   3.739
  178SOL    HW1  669   3.544   3.359   3.826
  178SOL    HW2  670   3.545   3.249   3.722
  179SOL     OW  671   3.757   0.409   0.792
  179SOL    HW1  672   3.800   0.364   0.866
  179SOL    HW2  673   3.799   0.495   0.789
  180SOL     OW  674   3.076   1.379   1.776
  180SOL    HW1  675   3.150   1.319   1.764
  180SOL    HW2  676   3.010   1.347   1.715
  181SOL     OW  677   1.318   0.264   3.607
  181SOL    HW1  678   1.261   0.217   3.546
  181SOL    HW2  679   1.407   0.250   3.574
  182SOL     OW  680   1.780   2.089   0.715
  182SOL    HW1  681   1.820   2.168   0.678
  182SOL    HW2  682   1.699   2.120   0.756
  183SOL     OW  683   1.526   1.972   0.014
  183SOL    HW1  684   1.621   1.960   0.015
  183SOL    HW2  685   1.499   1.962   0.105
  184SOL     OW  686   2.546   2.218   0.988
  184SOL    HW1  687   2.521   2.222   0.896
  184SOL    HW2  688   2.620   2.278   0.996
  185SOL     OW  689   0.459   1.368   0.093
  185SOL    HW1  690   0.517   1.320   0.034
  185SOL    HW2  691   0.377   1.317   0.092
  186SOL     OW  692   0.171   1.576   2.565
  186SOL    HW1  693   0.181   1.566   2.660
  186SOL    HW2  694   0.099   1.638   2.555
  187SOL     OW  695   0.349   2.552   0.101
  187SOL    HW1  696   0.320   2.547   0.010
  187SOL    HW2  697   0.438   2.518   0.100
  188SOL     OW  698   0.507   0.898   3.704
  188SOL    HW1  699   0.496   0.856   3.618
  188SOL    HW2  700   0.570   0.841   3.749
  189SOL     OW  701   1.720   0.283   2.613
  189SOL    HW1  702   1.696   0.376   2.614
  189SOL    HW2  703   1.816   0.283   2.609
  190SOL     OW  704   1.996   3.526   1.514
  190SOL    HW1  705   1.935   3.510   1.586
  190SOL    HW2  706   1.956   3.481   1.439
  191SOL     OW  707   2.748   0.086   0.307
  191SOL    HW1  708   2.740   0.170   0.352
  191SOL    HW2  709   2.733   0.106   0.215
  192SOL     OW  710   1.977   1.454   1.808
  192SOL    HW1  711   1.989   1.549   1.806
  192SOL    HW2  712   2.065   1.419   1.806
  193SOL     OW  713   3.189   1.493   0.935
  193SOL    HW1  714   3.117   1.447   0.892
  193SOL    HW2  715   3.266   1.472   0.884
  194SOL     OW  716   3.038   3.862   2.657
  194SOL    HW1  717   3.120   3.903   2.630
  194SOL    HW2  718   3.054   3.768   2.649
  195SOL     OW  719   1.499   1.046   1.115
  195SOL    HW1  720   1.423   1.007   1.158
  195SOL    HW2  721   1.559   0.973   1.102
  196SOL     OW  722   2.324   2.218   1.996
  196SOL    HW1  723   2.324   2.139   1.941
  196SOL    HW2  724   2.309   2.290   1.934
  197SOL     OW  725   3.865   3.563   1.786
  197SOL    HW1  726   3.790   3.518   1.825
  197SOL    HW2  727   3.926   3.493   1.765
  198SOL     OW  728   2.770   2.563   2.063
  198SOL    HW1  729   2.857   2.579   2.100
  198SOL    HW2  730   2.755   2.469   2.075
  199SOL     OW  731   3.866   1.318   1.253
  199SOL    HW1  732   3.772   1.334   1.260
  199SOL    HW2  733   3.896   1.380   1.186
  200SOL     OW  734   3.124   2.310   2.685
  200SOL    HW1  735   3.133   2.336   2.777
  200SOL    HW2  736   3.054   2.366   2.651
  201SOL     OW  737   2.649   1.374   2.121
  201SOL    HW1  738   2.581   1.317   2.085
  201SOL    HW2  739   2.606   1.460   2.129
  202SOL     OW  740   3.056   3.940   1.454
  202SOL    HW1  741   3.010   3.859   1.476
  202SOL    HW2  742   3.128   3.912   1.396
  203SOL     OW  743   2.350   1.186   2.367
  203SOL    HW1  744   2.414   1.255   2.384
  203SOL    HW2  745   2.392   1.106   2.401
  204SOL     OW  746   0.042   3.601   0.768
  204SOL    HW1  747   0.074   3.690   0.776
  204SOL    HW2  748   0.109   3.547   0.811
  205SOL     OW  749   0.810   2.448   3.705
  205SOL    HW1  750   0.850   2.525   3.662
  205SOL    HW2  751   0.824   2.463   3.798
  206SOL     OW  752   1.337   3.649   3.700
  206SOL    HW1  753   1.388   3.695   3.633
  206SOL    HW2  754   1.381   3.671   3.783
  207SOL     OW  755   3.884   3.174   3.722
  207SOL    HW1  756   3.796   3.210   3.735
  207SOL    HW2  757   3.941   3.230   3.774
  208SOL     OW  758   2.218   1.152   3.564
  208SOL    HW1  759   2.130   1.125   3.592
  208SOL    HW2  760   2.250   1.206   3.637
  209SOL     OW  761   3.700   2.680   1.865
  209SOL    HW1  762   3.735   2.756   1.819
  209SOL    HW2  763   3.709   2.607   1.803
  210SOL     OW  764   0.586   1.383   3.015
  210SOL    HW1  765   0.673   1.354   2.988
  210SOL    HW2  766   0.599   1.475   3.039
  211SOL     OW  767   1.972   1.860   0.532
  211SOL    HW1  768   2.006   1.771   0.530
  211SOL    HW2  769   2.003   1.896   0.615
  212SOL     OW  770   2.404   1.394   2.728
  212SOL    HW1  771   2.371   1.317   2.774
  212SOL    HW2  772   2.474   1.427   2.785
  213SOL     OW  773   2.141   3.925   3.320
  213SOL    HW1  774   2.172   3.890   3.404
  213SOL    HW2  775   2.153   3.852   3.259
  214SOL     OW  776   2.922   2.139   0.262
  214SOL    HW1  777   2.965   2.055   0.249
  214SOL    HW2  778   2.982   2.189   0.317
  215SOL     OW  779   0.978   0.417   1.847
  215SOL    HW1  780   1.029   0.386   1.772
  215SOL    HW2  781   1.018   0.502   1.869
  216SOL     OW  782   0.013   1.032   1.663
  216SOL    HW1  783   0.051   1.083   1.592
  216SOL    HW2  784   0.085   0.978   1.696
  217SOL     OW  785   2.122   2.498   0.233
  217SOL    HW1  786   2.168   2.582   0.229
  217SOL    HW2  787   2.188   2.436   0.262
  218SOL     OW  788   0.865   2.554   1.156
  218SOL    HW1  789   0.911   2.584   1.235
  218SOL    HW2  790   0.822   2.472   1.184
  219SOL     OW  791   2.883   2.689   3.210
  219SOL    HW1  792   2.841   2.614   3.168
  219SOL    HW2  793   2.811   2.737   3.251
  220SOL     OW  794   3.364   1.279   3.000
  220SOL    HW1  795   3.441   1.336   2.996
  220SOL    HW2  796   3.374   1.219   2.926
  221SOL     OW  797  -0.007   1.004   3.474
  221SOL    HW1  798   0.080   1.005   3.435
  221SOL    HW2  799   0.001   0.946   3.550
  222SOL     OW  800   3.607   3.233   2.461
  222SOL    HW1  801   3.515   3.222   2.486
  222SOL    HW2  802   3.604   3.261   2.369
  223SOL     OW  803   3.018   1.552   1.475
  223SOL    HW1  804   3.062   1.503   1.544
  223SOL    HW2  805   3.050   1.642   1.484
  224SOL     OW  806   2.669   3.344   3.825
  224SOL    HW1  807   2.668   3.302   3.911
  224SOL    HW2  808   2.755   3.386   3.820
  225SOL     OW  809   2.384   2.522   0.813
  225SOL    HW1  810   2.478   2.535   0.802
  225SOL    HW2  811   2.347   2.547   0.728
  226SOL     OW  812   0.658   1.665   3.587
  226SOL    HW1  813   0.600   1.741   3.589
  226SOL    HW2  814   0.601   1.590   3.598
  227SOL     OW  815   2.562   1.207   1.840
  227SOL    HW1  816   2.623   1.277   1.819
  227SOL    HW2  817   2.616   1.137   1.875
  228SOL     OW  818   3.586   1.619   2.072
  228SOL    HW1  819   3.616   1.567   2.147
  228SOL    HW2  820   3.575   1.708   2.108
  229SOL     OW  821   1.235   0.067   3.423
  229SOL    HW1  822   1.226  -0.025   3.446
  229SOL    HW2  823   1.259   0.066   3.330
  230SOL     OW  824   3.752   1.334   2.515
  230SOL    HW1  825   3.841   1.301   2.531
  230SOL    HW2  826   3.697   1.256   2.519
  231SOL     OW  827   2.332   0.824   1.075
  231SOL    HW1  828   2.298   0.796   0.990
  231SOL    HW2  829   2.264   0.882   1.110
  232SOL     OW  830   2.106   1.951   0.278
  232SOL    HW1  831   2.110   1.882   0.345
  232SOL    HW2  832   2.029   2.002   0.301
  233SOL     OW  833   2.865   1.415   3.112
  233SOL    HW1  834   2.842   1.343   3.171
  233SOL    HW2  835   2.872   1.374   3.026
  234SOL     OW  836   1.862   2.122   0.346
  234SOL    HW1  837   1.810   2.177   0.404
  234SOL    HW2  838   1.868   2.038   0.390
  235SOL     OW  839   0.621   3.666   1.159
  235SOL    HW1  840   0.675   3.588   1.172
  235SOL    HW2  841   0.542   3.649   1.210
  236SOL     OW  842   3.660   0.836   3.613
  236SOL    HW1  843   3.702   0.863   3.694
  236SOL    HW2  844   3.582   0.892   3.606
  237SOL     OW  845   1.424   2.578   3.079
  237SOL    HW1  846   1.454   2.664   3.049
  237SOL    HW2  847   1.504   2.525   3.081
  238SOL     OW  848   1.790   3.376  -0.013
  238SOL    HW1  849   1.743   3.409   0.063
  238SOL    HW2  850   1.732   3.310  -0.050
  239SOL     OW  851   3.551   2.782   3.165
  239SOL    HW1  852   3.513   2.785   3.078
  239SOL    HW2  853   3.518   2.860   3.208
  240SOL     OW  854   3.707   3.106   1.834
  240SOL    HW1  855   3.757   3.168   1.886
  240SOL    HW2  856   3.770   3.072   1.770
  241SOL     OW  857   3.025   2.677   1.131
  241SOL    HW1  858   3.086   2.751   1.125
  241SOL    HW2  859   2.938   2.718   1.126
  242SOL     OW  860   3.446   3.036   1.754
  242SOL    HW1  861   3.532   2.997   1.741
  242SOL    HW2  862   3.443   3.109   1.692
  243SOL     OW  863   1.191   2.649   0.555
  243SOL    HW1  864   1.101   2.653   0.522
  243SOL    HW2  865   1.191   2.705   0.633
  244SOL     OW  866   2.468   3.868   1.450
  244SOL    HW1  867   2.395   3.812   1.426
  244SOL    HW2  868   2.534   3.852   1.382
  245SOL     OW  869   0.928   2.460   0.740
  245SOL    HW1  870   0.932   2.478   0.646
  245SOL    HW2  871   1.017   2.432   0.762
  246SOL     OW  872   1.878   0.060   1.924
  246SOL    HW1  873   1.862   0.019   2.009
  246SOL    HW2  874   1.873  -0.012   1.862
  247SOL     OW  875   3.753   1.806   2.742
  247SOL    HW1  876   3.721   1.878   2.687
  247SOL    HW2  877   3.756   1.844   2.830
  248SOL     OW  878   3.861   3.855   1.272
  248SOL    HW1  879   3.817   3.939   1.280
  248SOL    HW2  880   3.848   3.813   1.358
  249SOL     OW  881   1.410   1.831   2.401
  249SOL    HW1  882   1.459   1.765   2.450
  249SOL    HW2  883   1.332   1.847   2.455
  250SOL     OW  884   3.601   2.896   2.381
  250SOL    HW1  885   3.595   2.826   2.316
  250SOL    HW2  886   3.584   2.976   2.331
  251SOL     OW  887   1.144   2.560   2.909
  251SOL    HW1  888   1.225   2.527   2.950
  251SOL    HW2  889   1.173   2.630   2.850
  252SOL     OW  890   3.062   3.198   2.610
  252SOL    HW1  891   3.036   3.110   2.585
  252SOL    HW2  892   2.991   3.254   2.578
  253SOL     OW  893   2.020   0.202   3.298
  253SOL    HW1  894   2.055   0.113   3.306
  253SOL    HW2  895   1.989   0.224   3.386
  254SOL     OW  896   3.259   1.877   0.755
  254SOL    HW1  897   3.280   1.970   0.750
  254SOL    HW2  898   3.257   1.858   0.849
  255SOL     OW  899   1.325   1.445   0.324
  255SOL    HW1  900   1.373   1.454   0.406
  255SOL    HW2  901   1.340   1.528   0.278
  256SOL     OW  902   0.671   1.255   3.931
  256SOL    HW1  903   0.750   1.303   3.906
  256SOL    HW2  904   0.641   1.214   3.850
  257SOL     OW  905   3.811   0.531   1.222
  257SOL    HW1  906   3.716   0.547   1.218
  257SOL    HW2  907   3.849   0.595   1.162
  258SOL     OW  908   0.452   3.040   3.442
  258SOL    HW1  909   0.539   3.043   3.481
  258SOL    HW2  910   0.412   3.124   3.465
  259SOL     OW  911   2.028   3.895   2.854
  259SOL    HW1  912   1.995   3.889   2.764
  259SOL    HW2  913   1.955   3.932   2.903
  260SOL     OW  914   3.012   3.323   1.664
  260SOL    HW1  915   2.994   3.374   1.584
  260SOL    HW2  916   3.051   3.386   1.724
  261SOL     OW  917   1.004   1.861   3.037
  261SOL    HW1  918   1.080   1.837   3.090
  261SOL    HW2  919   1.005   1.957   3.036
  262SOL     OW  920   2.651   1.204   1.157
  262SOL    HW1  921   2.687   1.191   1.069
  262SOL    HW2  922   2.728   1.203   1.215
  263SOL     OW  923   0.566   1.930   3.242
  263SOL    HW1  924   0.634   1.939   3.174
  263SOL    HW2  925   0.502   1.871   3.203
  264SOL     OW  926   1.157   3.518   2.435
  264SOL    HW1  927   1.158   3.426   2.462
  264SOL    HW2  928   1.064   3.539   2.425
  265SOL     OW  929   0.862   2.663   0.904
  265SOL    HW1  930   0.873   2.627   0.992
  265SOL    HW2  931   0.870   2.587   0.846
  266SOL     OW  932   3.591   0.444   2.359
  266SOL    HW1  933   3.554   0.525   2.325
  266SOL    HW2  934   3.571   0.379   2.291
  267SOL     OW  935   0.713   0.842   2.565
  267SOL    HW1  936   0.741   0.929   2.594
  267SOL    HW2  937   0.640   0.819   2.622
  268SOL     OW  938   2.291   2.893   0.729
  268SOL    HW1  939   2.237   2.837   0.785
  268SOL    HW2  940   2.247   2.978   0.729
  269SOL     OW  941   0.353   2.578   3.786
  269SOL    HW1  942   0.429   2.602   3.733
  269SOL    HW2  943   0.298   2.656   3.786
  270SOL     OW  944   0.509   1.460   3.545
  270SOL    HW1  945   0.545   1.381   3.505
  270SOL    HW2  946   0.416   1.442   3.554
  271SOL     OW  947   3.232   3.838   1.724
  271SOL    HW1  948   3.293   3.846   1.798
  271SOL    HW2  949   3.161   3.898   1.746
  272SOL     OW  950   3.304   1.013   3.623
  272SOL    HW1  951   3.341   1.006   3.711
  272SOL    HW2  952   3.280   1.106   3.615
  273SOL     OW  953   2.414   3.369   3.232
  273SOL    HW1  954   2.475   3.425   3.280
  273SOL    HW2  955   2.328   3.407   3.248
  274SOL     OW  956   3.515   1.218   2.213
  274SOL    HW1  957   3.520   1.146   2.150
  274SOL    HW2  958   3.576   1.283   2.180
  275SOL     OW  959   3.153   3.160   2.316
  275SOL    HW1  960   3.188   3.103   2.248
  275SOL    HW2  961   3.138   3.244   2.272
  276SOL     OW  962   1.942   1.240   1.287
  276SOL    HW1  963   1.942   1.335   1.278
  276SOL    HW2  964   1.916   1.225   1.378
  277SOL     OW  965   3.843   0.224   2.201
  277SOL    HW1  966   3.917   0.184   2.156
  277SOL    HW2  967   3.884   0.285   2.264
  278SOL     OW  968   1.083   1.568   2.577
  278SOL    HW1  969   1.139   1.632   2.621
  278SOL    HW2  970   1.002   1.568   2.627
  279SOL     OW  971   1.398   3.407   1.126
  279SOL    HW1  972   1.360   3.431   1.041
  279SOL    HW2  973   1.492   3.401   1.109
  280SOL     OW  974   1.283   3.160   2.504
  280SOL    HW1  975   1.191   3.162   2.532
  280SOL    HW2  976   1.316   3.247   2.525
  281SOL     OW  977   1.147   2.762   3.493
  281SOL    HW1  978   1.062   2.758   3.536
  281SOL    HW2  979   1.198   2.693   3.533
  282SOL     OW  980   1.061   0.899   0.039
  282SOL    HW1  981   1.089   0.834  -0.026
  282SOL    HW2  982   1.141   0.925   0.084
  283SOL     OW  983   3.587   0.489   3.488
  283SOL    HW1  984   3.544   0.484   3.402
  283SOL    HW2  985   3.559   0.574   3.523
  284SOL     OW  986   2.532   0.968   0.996
  284SOL    HW1  987   2.466   0.909   1.033
  284SOL    HW2  988   2.585   0.994   1.072
  285SOL     OW  989   2.226   0.600   0.438
  285SOL    HW1  990   2.221   0.549   0.518
  285SOL    HW2  991   2.249   0.536   0.370
  286SOL     OW  992   1.058   1.401   3.383
  286SOL    HW1  993   0.967   1.431   3.391
  286SOL    HW2  994   1.051   1.308   3.363
  287SOL     OW  995   3.686   3.544   0.045
  287SOL    HW1  996   3.758   3.515  -0.012
  287SOL    HW2  997   3.724   3.613   0.099
  288SOL     OW  998   0.904   3.141   1.224
  288SOL    HW1  999   0.992   3.160   1.192
  288SOL    HW2 1000   0.880   3.219   1.275
  289SOL     OW 1001   1.769   3.113   2.512
  289SOL    HW1 1002   1.840   3.098   2.576
  289SOL    HW2 1003   1.778   3.040   2.450
  290SOL     OW 1004   3.155   3.447   2.213
  290SOL    HW1 1005   3.149   3.495   2.130
  290SOL    HW2 1006   3.151   3.514   2.281
  291SOL     OW 1007   1.241   0.696   1.373
  291SOL    HW1 1008   1.244   0.758   1.300
  291SOL    HW2 1009   1.330   0.696   1.408
  292SOL     OW 1010   0.585   1.245   0.741
  292SOL    HW1 1011   0.577   1.339   0.726
  292SOL    HW2 1012   0.548   1.205   0.662
  293SOL     OW 1013   3.726   2.459  -0.005
  293SOL    HW1 1014   3.660   2.422   0.053
  293SOL    HW2 1015   3.714   2.554   0.003
  294SOL     OW 1016   1.736   3.826   0.567
  294SOL    HW1 1017   1.700   3.912   0.545
  294SOL    HW2 1018   1.820   3.824   0.521
  295SOL     OW 1019   1.233   1.563   1.386
  295SOL    HW1 1020   1.247   1.475   1.420
  295SOL    HW2 1021   1.266   1.621   1.454
  296SOL     OW 1022   3.182   3.251   3.141
  296SOL    HW1 1023   3.116   3.182   3.138
  296SOL    HW2 1024   3.218   3.247   3.229
  297SOL     OW 1025   1.753   2.440   2.331
  297SOL    HW1 1026   1.781   2.513   2.276
  297SOL    HW2 1027   1.658   2.438   2.321
  298SOL     OW 1028   1.830   3.832   3.658
  298SOL    HW1 1029   1.790   3.905   3.705
  298SOL    HW2 1030   1.883   3.787   3.724
  299SOL     OW 1031   2.237   2.738   0.202
  299SOL    HW1 1032   2.208   2.708   0.116
  299SOL    HW2 1033   2.325   2.774   0.187
  300SOL     OW 1034   3.128   3.607   1.706
  300SOL    HW1 1035   3.162   3.696   1.713
  300SOL    HW2 1036   3.092   3.601   1.618
  301SOL     OW 1037   2.164   1.691   0.867
  301SOL    HW1 1038   2.138   1.746   0.793
  301SOL    HW2 1039   2.095   1.704   0.932
  302SOL     OW 1040   1.455   0.451   1.570
  302SOL    HW1 1041   1.404   0.407   1.639
  302SOL    HW2 1042   1.544   0.417   1.581
  303SOL     OW 1043   2.313   1.804   2.633
  303SOL    HW1 1044   2.240   1.861   2.657
  303SOL    HW2 1045   2.341   1.764   2.716
  304SOL     OW 1046   1.672   3.425   1.053
  304SOL    HW1 1047   1.723   3.367   1.109
  304SOL    HW2 1048   1.728   3.442   0.978
  305SOL     OW 1049   1.011   2.620   1.432
  305SOL    HW1 1050   0.936   2.659   1.477
  305SOL    HW2 1051   1.082   2.682   1.448
  306SOL     OW 1052   3.590   3.663   1.667
  306SOL    HW1 1053   3.604   3.582   1.618
  306SOL    HW2 1054   3.526   3.712   1.615
  307SOL     OW 1055   1.854   0.178   0.349
  307SOL    HW1 1056   1.791   0.156   0.281
  307SOL    HW2 1057   1.802   0.218   0.418
  308SOL     OW 1058   2.145   1.102   3.019
  308SOL    HW1 1059   2.215   1.085   2.956
  308SOL    HW2 1060   2.139   1.198   3.024
  309SOL     OW 1061   3.088   1.812   3.205
  309SOL    HW1 1062   3.102   1.841   3.115
  309SOL    HW2 1063   3.009   1.758   3.201
  310SOL     OW 1064   2.366   3.840   1.838
  310SOL    HW1 1065   2.435   3.906   1.833
  310SOL    HW2 1066   2.327   3.852   1.924
  311SOL     OW 1067   1.339   2.269   2.063
  311SOL    HW1 1068   1.384   2.201   2.114
  311SOL    HW2 1069   1.392   2.348   2.077
  312SOL     OW 1070   1.892   0.788   2.962
  312SOL    HW1 1071   1.981   0.815   2.984
  312SOL    HW2 1072   1.836   0.854   3.004
  313SOL     OW 1073   3.731   2.639   2.714
  313SOL    HW1 1074   3.686   2.569   2.666
  313SOL    HW2 1075   3.824   2.615   2.710
  314SOL     OW 1076   2.211   1.290   1.710
  314SOL    HW1 1077   2.202   1.203   1.747
  314SOL    HW2 1078   2.274   1.281   1.639
  315SOL     OW 1079   2.141   2.367   2.173
  315SOL    HW1 1080   2.182   2.299   2.119
  315SOL    HW2 1081   2.058   2.386   2.128
  316SOL     OW 1082   0.665   0.066   3.832
  316SOL    HW1 1083   0.725   0.051   3.906
  316SOL    HW2 1084   0.720   0.105   3.764
  317SOL     OW 1085   3.740   0.282   1.500
  317SOL    HW1 1086   3.778   0.275   1.412
  317SOL    HW2 1087   3.674   0.212   1.502
  318SOL     OW 1088   2.059   3.094   1.842
  318SOL    HW1 1089   2.044   3.176   1.889
  318SOL    HW2 1090   2.115   3.042   1.900
  319SOL     OW 1091   1.785   0.312   0.597
  319SOL    HW1 1092   1.860   0.296   0.654
  319SOL    HW2 1093   1.780   0.407   0.590
  320SOL     OW 1094   1.901   2.686   0.314
  320SOL    HW1 1095   1.897   2.635   0.233
  320SOL    HW2 1096   1.811   2.715   0.329
  321SOL     OW 1097   3.054   3.955   3.465
  321SOL    HW1 1098   3.110   3.928   3.393
  321SOL    HW2 1099   3.090   3.910   3.542
  322SOL     OW 1100   1.309   3.163   1.443
  322SOL    HW1 1101   1.268   3.180   1.358
  322SOL    HW2 1102   1.258   3.216   1.505
  323SOL     OW 1103   3.407   0.912   2.551
  323SOL    HW1 1104   3.359   0.857   2.490
  323SOL    HW2 1105   3.352   0.914   2.630
  324SOL     OW 1106   0.184   2.682   0.750
  324SOL    HW1 1107   0.123   2.670   0.677
  324SOL    HW2 1108   0.164   2.768   0.785
  325SOL     OW 1109   0.166   2.335   3.123
  325SOL    HW1 1110   0.126   2.263   3.172
  325SOL    HW2 1111   0.219   2.381   3.189
  326SOL     OW 1112   0.815   1.773   2.250
  326SOL    HW1 1113   0.876   1.706   2.277
  326SOL    HW2 1114   0.860   1.820   2.180
  327SOL     OW 1115   1.265   1.990   2.583
  327SOL    HW1 1116   1.334   1.994   2.650
  327SOL    HW2 1117   1.208   2.065   2.603
  328SOL     OW 1118   3.867   3.718   3.095
  328SOL    HW1 1119   3.884   3.779   3.023
  328SOL    HW2 1120   3.863   3.632   3.053
  329SOL     OW 1121   1.720   1.001  -0.010
  329SOL    HW1 1122   1.647   1.042   0.037
  329SOL    HW2 1123   1.758   0.941   0.055
  330SOL     OW 1124   0.038   1.485   0.721
  330SOL    HW1 1125   0.127   1.467   0.752
  330SOL    HW2 1126   0.032   1.580   0.718
  331SOL     OW 1127   2.278   2.179   1.687
  331SOL    HW1 1128   2.203   2.237   1.700
  331SOL    HW2 1129   2.322   2.212   1.609
  332SOL     OW 1130   0.040   3.257   2.602
  332SOL    HW1 1131  -0.011   3.181   2.572
  332SOL    HW2 1132  -0.022   3.330   2.599
  333SOL     OW 1133   2.478   2.745   2.465
  333SOL    HW1 1134   2.459   2.694   2.387
  333SOL    HW2 1135   2.499   2.680   2.532
  334SOL     OW 1136   2.045   1.408   0.063
  334SOL    HW1 1137   2.054   1.432   0.156
  334SOL    HW2 1138   2.027   1.314   0.065
  335SOL     OW 1139   2.610   2.147   1.258
  335SOL    HW1 1140   2.567   2.179   1.178
  335SOL    HW2 1141   2.554   2.179   1.329
  336SOL     OW 1142   3.572   0.150   0.268
  336SOL    HW1 1143   3.488   0.131   0.226
  336SOL    HW2 1144   3.560   0.236   0.308
  337SOL     OW 1145   0.298   0.769   1.517
  337SOL    HW1 1146   0.258   0.804   1.596
  337SOL    HW2 1147   0.319   0.845   1.464
  338SOL     OW 1148   3.467   1.710   2.681
  338SOL    HW1 1149   3.490   1.724   2.773
  338SOL    HW2 1150   3.533   1.759   2.632
  339SOL     OW 1151   2.658   3.250   1.147
  339SOL    HW1 1152   2.613   3.203   1.076
  339SOL    HW2 1153   2.607   3.330   1.159
  340SOL     OW 1154   0.044   3.632   2.708
  340SOL    HW1 1155   0.002   3.704   2.755
  340SOL    HW2 1156   0.018   3.554   2.755
  341SOL     OW 1157   2.542   3.007   3.916
  341SOL    HW1 1158   2.482   3.075   3.885
  341SOL    HW2 1159   2.555   2.950   3.841
  342SOL     OW 1160   3.778   1.307   1.585
  342SOL    HW1 1161   3.765   1.359   1.506
  342SOL    HW2 1162   3.788   1.217   1.554
  343SOL     OW 1163   2.348   3.794   0.148
  343SOL    HW1 1164   2.390   3.715   0.182
  343SOL    HW2 1165   2.335   3.849   0.226
  344SOL     OW 1166   1.214   0.692   3.134
  344SOL    HW1 1167   1.284   0.714   3.195
  344SOL    HW2 1168   1.149   0.645   3.187
  345SOL     OW 1169   3.635   0.771   2.654
  345SOL    HW1 1170   3.572   0.831   2.615
  345SOL    HW2 1171   3.582   0.706   2.701
  346SOL     OW 1172   3.361   3.518   2.636
  346SOL    HW1 1173   3.368   3.438   2.687
  346SOL    HW2 1174   3.414   3.502   2.558
  347SOL     OW 1175   2.846   3.333   3.306
  347SOL    HW1 1176   2.819   3.339   3.214
  347SOL    HW2 1177   2.824   3.243   3.331
  348SOL     OW 1178   2.514   0.763   2.079
  348SOL    HW1 1179   2.472   0.847   2.060
  348SOL    HW2 1180   2.607   0.785   2.086
  349SOL     OW 1181   3.499   0.271   2.176
  349SOL    HW1 1182   3.505   0.182   2.210
  349SOL    HW2 1183   3.545   0.268   2.092
  350SOL     OW 1184   0.729   2.275   3.237
  350SOL    HW1 1185   0.669   2.201   3.238
  350SOL    HW2 1186   0.742   2.296   3.330
  351SOL     OW 1187   3.185   1.203   1.491
  351SOL    HW1 1188   3.111   1.142   1.493
  351SOL    HW2 1189   3.170   1.255   1.412
  352SOL     OW 1190   0.368   3.659   3.264
  352SOL    HW1 1191   0.319   3.577   3.271
  352SOL    HW2 1192   0.326   3.717   3.327
  353SOL     OW 1193   0.063   1.091   2.267
  353SOL    HW1 1194   0.026   1.133   2.345
  353SOL    HW2 1195  -0.014   1.071   2.213
  354SOL     OW 1196   2.513   1.713   0.384
  354SOL    HW1 1197   2.536   1.727   0.476
  354SOL    HW2 1198   2.434   1.764   0.371
  355SOL     OW 1199   3.539   1.655   3.852
  355SOL    HW1 1200   3.586   1.731   3.885
  355SOL    HW2 1201   3.593   1.622   3.780
  356SOL     OW 1202   3.489   0.497   0.903
  356SOL    HW1 1203   3.472   0.578   0.950
  356SOL    HW2 1204   3.413   0.487   0.846
  357SOL     OW 1205   3.611   0.787   0.143
  357SOL    HW1 1206   3.637   0.702   0.180
  357SOL    HW2 1207   3.649   0.852   0.202
  358SOL     OW 1208   0.506   2.027   2.503
  358SOL    HW1 1209   0.532   1.944   2.464
  358SOL    HW2 1210   0.425   2.009   2.549
  359SOL     OW 1211   1.872   0.582   0.329
  359SOL    HW1 1212   1.902   0.609   0.416
  359SOL    HW2 1213   1.948   0.594   0.272
  360SOL     OW 1214   1.185   3.216   2.785
  360SOL    HW1 1215   1.167   3.284   2.721
  360SOL    HW2 1216   1.129   3.143   2.759
  361SOL     OW 1217   1.033   1.121   3.303
  361SOL    HW1 1218   0.956   1.164   3.267
  361SOL    HW2 1219   1.033   1.034   3.264
  362SOL     OW 1220   0.442   3.220   0.577
  362SOL    HW1 1221   0.467   3.135   0.615
  362SOL    HW2 1222   0.350   3.210   0.556
  363SOL     OW 1223   2.073   0.761   0.188
  363SOL    HW1 1224   2.116   0.770   0.273
  363SOL    HW2 1225   2.130   0.808   0.127
  364SOL     OW 1226   0.996   3.661   0.076
  364SOL    HW1 1227   1.009   3.755   0.068
  364SOL    HW2 1228   1.085   3.624   0.080
  365SOL     OW 1229   2.642   1.094   2.285
  365SOL    HW1 1230   2.676   1.183   2.285
  365SOL    HW2 1231   2.660   1.061   2.373
  366SOL     OW 1232   0.919   2.571   0.460
  366SOL    HW1 1233   0.851   2.543   0.399
  366SOL    HW2 1234   0.895   2.661   0.483
  367SOL     OW 1235   0.495   0.871   0.032
  367SOL    HW1 1236   0.494   0.790  -0.018
  367SOL    HW2 1237   0.583   0.906   0.020
  368SOL     OW 1238   1.403   0.266   2.939
  368SOL    HW1 1239   1.384   0.265   2.845
  368SOL    HW2 1240   1.328   0.309   2.979
  369SOL     OW 1241   1.988   3.535   1.125
  369SOL    HW1 1242   1.971   3.460   1.181
  369SOL    HW2 1243   1.930   3.523   1.050
  370SOL     OW 1244   3.129   2.681   1.843
  370SOL    HW1 1245   3.114   2.750   1.907
  370SOL    HW2 1246   3.224   2.676   1.834
  371SOL     OW 1247   1.547   1.669   0.896
  371SOL    HW1 1248   1.634   1.688   0.863
  371SOL    HW2 1249   1.513   1.754   0.927
  372SOL     OW 1250   0.430   2.482   1.855
  372SOL    HW1 1251   0.433   2.386   1.858
  372SOL    HW2 1252   0.432   2.503   1.762
  373SOL     OW 1253   2.679   1.402   3.674
  373SOL    HW1 1254   2.636   1.333   3.623
  373SOL    HW2 1255   2.755   1.358   3.713
  374SOL     OW 1256   3.756   3.806   0.610
  374SOL    HW1 1257   3.770   3.887   0.659
  374SOL    HW2 1258   3.669   3.776   0.638
  375SOL     OW 1259   1.199   1.166   0.514
  375SOL    HW1 1260   1.206   1.240   0.574
  375SOL    HW2 1261   1.238   1.093   0.561
  376SOL     OW 1262   1.014   0.115   3.789
  376SOL    HW1 1263   1.019   0.020   3.774
  376SOL    HW2 1264   1.100   0.139   3.821
  377SOL     OW 1265   3.207   3.056   1.851
  377SOL    HW1 1266   3.286   3.041   1.799
  377SOL    HW2 1267   3.240   3.082   1.937
  378SOL     OW 1268   0.219   2.825   3.656
  378SOL    HW1 1269   0.126   2.803   3.667
  378SOL    HW2 1270   0.229   2.909   3.701
  379SOL     OW 1271   2.516   3.218   1.386
  379SOL    HW1 1272   2.541   3.242   1.297
  379SOL    HW2 1273   2.528   3.123   1.388
  380SOL     OW 1274   1.947   3.844   0.406
  380SOL    HW1 1275   2.007   3.911   0.372
  380SOL    HW2 1276   1.919   3.795   0.328
  381SOL     OW 1277   1.900   1.234   2.182
  381SOL    HW1 1278   1.986   1.275   2.180
  381SOL    HW2 1279   1.918   1.141   2.169
  382SOL     OW 1280   3.770   1.290   0.741
  382SOL    HW1 1281   3.724   1.364   0.702
  382SOL    HW2 1282   3.844   1.328   0.788
  383SOL     OW 1283   0.695   3.565   3.034
  383SOL    HW1 1284   0.646   3.484   3.022
  383SOL    HW2 1285   0.741   3.577   2.951
  384SOL     OW 1286   2.884   1.181   3.752
  384SOL    HW1 1287   2.930   1.172   3.835
  384SOL    HW2 1288   2.938   1.133   3.689
  385SOL     OW 1289   0.801   3.404   2.265
  385SOL    HW1 1290   0.826   3.416   2.356
  385SOL    HW2 1291   0.796   3.493   2.229
  386SOL     OW 1292   1.430   1.433   3.463
  386SOL    HW1 1293   1.443   1.527   3.478
  386SOL    HW2 1294   1.348   1.413   3.507
  387SOL     OW 1295   0.568   1.083   0.229
  387SOL    HW1 1296   0.645   1.106   0.176
  387SOL    HW2 1297   0.496   1.077   0.166
  388SOL     OW 1298   0.974   2.467   2.726
  388SOL    HW1 1299   0.944   2.382   2.758
  388SOL    HW2 1300   1.048   2.490   2.783
  389SOL     OW 1301   0.342   2.152   0.070
  389SOL    HW1 1302   0.303   2.064   0.062
  389SOL    HW2 1303   0.434   2.135   0.091
  390SOL     OW 1304   2.577   1.199   3.504
  390SOL    HW1 1305   2.487   1.217   3.479
  390SOL    HW2 1306   2.626   1.203   3.422
  391SOL     OW 1307   1.865   1.916   2.381
  391SOL    HW1 1308   1.841   2.008   2.369
  391SOL    HW2 1309   1.956   1.911   2.353
  392SOL     OW 1310   1.114   1.312   1.981
  392SOL    HW1 1311   1.171   1.260   1.925
  392SOL    HW2 1312   1.167   1.332   2.059
  393SOL     OW 1313   0.393   2.459   0.978
  393SOL    HW1 1314   0.439   2.471   0.895
  393SOL    HW2 1315   0.414   2.537   1.028
  394SOL     OW 1316   1.142   1.245   0.274
  394SOL    HW1 1317   1.194   1.325   0.285
  394SOL    HW2 1318   1.164   1.191   0.350
  395SOL     OW 1319   2.647   2.748   3.336
  395SOL    HW1 1320   2.612   2.660   3.354
  395SOL    HW2 1321   2.572   2.806   3.346
  396SOL     OW 1322   0.022   1.656   3.020
  396SOL    HW1 1323   0.025   1.618   2.932
  396SOL    HW2 1324   0.082   1.730   3.016
  397SOL     OW 1325   2.741   3.608   2.596
  397SOL    HW1 1326   2.717   3.615   2.688
  397SOL    HW2 1327   2.658   3.596   2.550
  398SOL     OW 1328   0.924   1.822   3.883
  398SOL    HW1 1329   0.964   1.877   3.816
  398SOL    HW2 1330   0.925   1.734   3.846
  399SOL     OW 1331   1.414   2.595   0.378
  399SOL    HW1 1332   1.336   2.628   0.422
  399SOL    HW2 1333   1.392   2.506   0.353
  400SOL     OW 1334   1.257   2.272   1.780
  400SOL    HW1 1335   1.277   2.225   1.862
  400SOL    HW2 1336   1.339   2.269   1.731
  401SOL     OW 1337   0.611   0.877   0.397
  401SOL    HW1 1338   0.601   0.932   0.320
  401SOL    HW2 1339   0.523   0.874   0.436
  402SOL     OW 1340   1.850   2.747   0.639
  402SOL    HW1 1341   1.932   2.738   0.687
  402SOL    HW2 1342   1.860   2.827   0.589
  403SOL     OW 1343   0.820   1.676   0.171
  403SOL    HW1 1344   0.750   1.646   0.113
  403SOL    HW2 1345   0.897   1.682   0.116
  404SOL     OW 1346   0.127   2.507   1.653
  404SOL    HW1 1347   0.207   2.469   1.618
  404SOL    HW2 1348   0.107   2.456   1.731
  405SOL     OW 1349   0.746   0.185   2.009
  405SOL    HW1 1350   0.831   0.170   1.969
  405SOL    HW2 1351   0.766   0.204   2.101
  406SOL     OW 1352   3.215   2.684   0.459
  406SOL    HW1 1353   3.208   2.596   0.496
  406SOL    HW2 1354   3.125   2.713   0.450
  407SOL     OW 1355   1.412   0.969   1.840
  407SOL    HW1 1356   1.486   0.912   1.860
  407SOL    HW2 1357   1.370   0.984   1.925
  408SOL     OW 1358   2.502   0.610   2.568
  408SOL    HW1 1359   2.557   0.680   2.534
  408SOL    HW2 1360   2.531   0.599   2.658
  409SOL     OW 1361   2.533   0.079   3.602
  409SOL    HW1 1362   2.621   0.070   3.567
  409SOL    HW2 1363   2.541   0.062   3.696
  410SOL     OW 1364   0.728   0.545   1.975
  410SOL    HW1 1365   0.784   0.476   2.010
  410SOL    HW2 1366   0.786   0.622   1.971
  411SOL     OW 1367   3.895   0.732   0.637
  411SOL    HW1 1368   3.948   0.736   0.557
  411SOL    HW2 1369   3.857   0.819   0.645
  412SOL     OW 1370   3.471   3.223   3.091
  412SOL    HW1 1371   3.509   3.298   3.135
  412SOL    HW2 1372   3.376   3.235   3.100
  413SOL     OW 1373   2.962   2.940   0.920
  413SOL    HW1 1374   2.942   2.903   0.834
  413SOL    HW2 1375   2.877   2.945   0.964
  414SOL     OW 1376   3.668   2.727   3.927
  414SOL    HW1 1377   3.644   2.799   3.986
  414SOL    HW2 1378   3.652   2.762   3.839
  415SOL     OW 1379   2.928   0.424   1.092
  415SOL    HW1 1380   2.905   0.332   1.079
  415SOL    HW2 1381   2.881   0.450   1.172
  416SOL     OW 1382   0.248   2.907   0.884
  416SOL    HW1 1383   0.322   2.967   0.893
  416SOL    HW2 1384   0.194   2.945   0.815
  417SOL     OW 1385   2.991   3.203   0.445
  417SOL    HW1 1386   2.976   3.117   0.485
  417SOL    HW2 1387   2.980   3.189   0.351
  418SOL     OW 1388   3.927   1.901   1.180
  418SOL    HW1 1389   3.922   1.891   1.275
  418SOL    HW2 1390   3.842   1.939   1.155
  419SOL     OW 1391   1.649   3.570   3.236
  419SOL    HW1 1392   1.584   3.603   3.175
  419SOL    HW2 1393   1.688   3.648   3.275
  420SOL     OW 1394   0.581   1.421   1.405
  420SOL    HW1 1395   0.540   1.335   1.416
  420SOL    HW2 1396   0.593   1.452   1.495
  421SOL     OW 1397   1.697   0.566   1.855
  421SOL    HW1 1398   1.639   0.642   1.849
  421SOL    HW2 1399   1.646   0.500   1.900
  422SOL     OW 1400   0.767   1.708   1.904
  422SOL    HW1 1401   0.722   1.660   1.974
  422SOL    HW2 1402   0.698   1.760   1.863
  423SOL     OW 1403   0.061   2.846   1.123
  423SOL    HW1 1404   0.098   2.843   1.035
  423SOL    HW2 1405   0.089   2.763   1.163
  424SOL     OW 1406   2.205   0.539   2.673
  424SOL    HW1 1407   2.131   0.600   2.672
  424SOL    HW2 1408   2.259   0.569   2.747
  425SOL     OW 1409   0.591   0.804   2.043
  425SOL    HW1 1410   0.673   0.759   2.021
  425SOL    HW2 1411   0.580   0.790   2.137
  426SOL     OW 1412   3.893   3.278   1.983
  426SOL    HW1 1413   3.946   3.357   1.991
  426SOL    HW2 1414   3.900   3.235   2.068
  427SOL     OW 1415   0.972   0.786   0.290
  427SOL    HW1 1416   0.955   0.835   0.371
  427SOL    HW2 1417   0.973   0.852   0.222
  428SOL     OW 1418   1.022   0.057   1.858
  428SOL    HW1 1419   1.067   0.116   1.797
  428SOL    HW2 1420   0.938   0.038   1.815
  429SOL     OW 1421   2.231   0.239   3.693
  429SOL    HW1 1422   2.274   0.267   3.775
  429SOL    HW2 1423   2.293   0.263   3.624
  430SOL     OW 1424   0.644   2.555   0.388
  430SOL    HW1 1425   0.625   2.556   0.294
  430SOL    HW2 1426   0.571   2.507   0.427
  431SOL     OW 1427   0.228   1.223   0.066
  431SOL    HW1 1428   0.158   1.161   0.047
  431SOL    HW2 1429   0.246   1.266  -0.019
  432SOL     OW 1430   0.384   1.260   2.344
  432SOL    HW1 1431   0.414   1.290   2.258
  432SOL    HW2 1432   0.460   1.215   2.382
  433SOL     OW 1433   2.460   2.821   1.144
  433SOL    HW1 1434   2.432   2.898   1.094
  433SOL    HW2 1435   2.411   2.826   1.226
  434SOL     OW 1436   1.370   0.935   1.563
  434SOL    HW1 1437   1.449   0.897   1.524
  434SOL    HW2 1438   1.395   0.958   1.652
  435SOL     OW 1439   1.333   0.083   3.830
  435SOL    HW1 1440   1.317   0.150   3.764
  435SOL    HW2 1441   1.421   0.050   3.809
  436SOL     OW 1442   1.738   2.724   3.835
  436SOL    HW1 1443   1.682   2.750   3.762
  436SOL    HW2 1444   1.679   2.683   3.898
  437SOL     OW 1445   2.535   2.488   3.361
  437SOL    HW1 1446   2.453   2.465   3.317
  437SOL    HW2 1447   2.597   2.420   3.332
  438SOL     OW 1448   1.891   2.987   3.854
  438SOL    HW1 1449   1.818   3.042   3.826
  438SOL    HW2 1450   1.861   2.898   3.838
  439SOL     OW 1451   0.531   1.344   3.273
  439SOL    HW1 1452   0.546   1.329   3.180
  439SOL    HW2 1453   0.477   1.423   3.276
  440SOL     OW 1454   2.563   2.617   2.997
  440SOL    HW1 1455   2.607   2.589   3.077
  440SOL    HW2 1456   2.598   2.704   2.979
  441SOL     OW 1457   0.453   3.287   0.237
  441SOL    HW1 1458   0.503   3.289   0.319
  441SOL    HW2 1459   0.422   3.377   0.225
  442SOL     OW 1460   2.696   1.847   3.353
  442SOL    HW1 1461   2.684   1.845   3.258
  442SOL    HW2 1462   2.776   1.798   3.368
  443SOL     OW 1463   1.522   2.578   3.520
  443SOL    HW1 1464   1.572   2.519   3.577
  443SOL    HW2 1465   1.430   2.558   3.540
  444SOL     OW 1466   3.423   2.515   2.815
  444SOL    HW1 1467   3.387   2.492   2.901
  444SOL    HW2 1468   3.488   2.583   2.833
  445SOL     OW 1469   3.093   0.337   0.731
  445SOL    HW1 1470   3.118   0.261   0.679
  445SOL    HW2 1471   3.052   0.301   0.809
  446SOL     OW 1472   1.765   1.708   1.627
  446SOL    HW1 1473   1.674   1.685   1.645
  446SOL    HW2 1474   1.772   1.800   1.653
  447SOL     OW 1475   1.492   1.126   0.085
  447SOL    HW1 1476   1.456   1.166   0.164
  447SOL    HW2 1477   1.483   1.194   0.018
  448SOL     OW 1478   1.780   1.488   0.079
  448SOL    HW1 1479   1.870   1.477   0.050
  448SOL    HW2 1480   1.763   1.412   0.136
  449SOL     OW 1481   1.215   2.720   3.209
  449SOL    HW1 1482   1.199   2.733   3.303
  449SOL    HW2 1483   1.280   2.650   3.206
  450SOL     OW 1484   2.976   3.045   3.077
  450SOL    HW1 1485   2.967   3.109   3.007
  450SOL    HW2 1486   2.887   3.035   3.111
  451SOL     OW 1487   3.459   0.291   1.094
  451SOL    HW1 1488   3.370   0.305   1.061
  451SOL    HW2 1489   3.508   0.366   1.061
  452SOL     OW 1490   3.523   3.916   2.231
  452SOL    HW1 1491   3.542   3.903   2.324
  452SOL    HW2 1492   3.557   3.837   2.189
  453SOL     OW 1493   1.846   1.268   0.565
  453SOL    HW1 1494   1.809   1.188   0.603
  453SOL    HW2 1495   1.867   1.323   0.641
  454SOL     OW 1496   0.703   3.908   2.395
  454SOL    HW1 1497   0.676   3.974   2.460
  454SOL    HW2 1498   0.651   3.830   2.418
  455SOL     OW 1499   2.160   0.408   1.404
  455SOL    HW1 1500   2.100   0.406   1.329
  455SOL    HW2 1501   2.168   0.317   1.431
  456SOL     OW 1502   1.984   2.199   3.202
  456SOL    HW1 1503   2.067   2.216   3.158
  456SOL    HW2 1504   1.986   2.257   3.279
  457SOL     OW 1505   0.594   2.567   2.443
  457SOL    HW1 1506   0.613   2.580   2.536
  457SOL    HW2 1507   0.534   2.638   2.421
  458SOL     OW 1508   1.262   0.052   3.148
  458SOL    HW1 1509   1.268   0.062   3.053
  458SOL    HW2 1510   1.348   0.018   3.174
  459SOL     OW 1511   2.909   3.722   1.496
  459SOL    HW1 1512   2.867   3.698   1.579
  459SOL    HW2 1513   2.943   3.640   1.461
  460SOL     OW 1514   1.922   2.171   0.075
  460SOL    HW1 1515   1.907   2.121   0.155
  460SOL    HW2 1516   1.913   2.263   0.102
  461SOL     OW 1517   2.663   3.544   0.445
  461SOL    HW1 1518   2.738   3.599   0.421
  461SOL    HW2 1519   2.687   3.509   0.531
  462SOL     OW 1520   2.455   0.170   0.152
  462SOL    HW1 1521   2.545   0.202   0.144
  462SOL    HW2 1522   2.448   0.137   0.241
  463SOL     OW 1523   3.150   2.413   2.936
  463SOL    HW1 1524   3.201   2.430   3.014
  463SOL    HW2 1525   3.088   2.486   2.932
  464SOL     OW 1526   2.336   2.160   3.719
  464SOL    HW1 1527   2.399   2.214   3.672
  464SOL    HW2 1528   2.251   2.196   3.695
  465SOL     OW 1529   1.405   0.473   1.310
  465SOL    HW1 1530   1.365   0.554   1.279
  465SOL    HW2 1531   1.418   0.486   1.404
  466SOL     OW 1532   2.483   3.462   1.190
  466SOL    HW1 1533   2.428   3.513   1.131
  466SOL    HW2 1534   2.474   3.504   1.275
  467SOL     OW 1535   0.665   2.401   1.345
  467SOL    HW1 1536   0.600   2.394   1.276
  467SOL    HW2 1537   0.631   2.466   1.405
  468SOL     OW 1538   3.565   0.669   0.618
  468SOL    HW1 1539   3.476   0.660   0.653
  468SOL    HW2 1540   3.581   0.763   0.615
  469SOL     OW 1541   1.741   0.345   1.140
  469SOL    HW1 1542   1.717   0.266   1.190
  469SOL    HW2 1543   1.660   0.394   1.134
  470SOL     OW 1544   3.060   2.545   2.156
  470SOL    HW1 1545   3.080   2.634   2.127
  470SOL    HW2 1546   3.142   2.497   2.148
  471SOL     OW 1547   2.857   1.133   0.432
  471SOL    HW1 1548   2.837   1.101   0.344
  471SOL    HW2 1549   2.771   1.146   0.472
  472SOL     OW 1550   3.706   2.665   0.535
  472SOL    HW1 1551   3.631   2.725   0.535
  472SOL    HW2 1552   3.762   2.696   0.464
  473SOL     OW 1553   1.232   3.408   3.695
  473SOL    HW1 1554   1.248   3.497   3.726
  473SOL    HW2 1555   1.197   3.419   3.607
  474SOL     OW 1556   2.424   2.862   3.439
  474SOL    HW1 1557   2.393   2.865   3.348
  474SOL    HW2 1558   2.400   2.947   3.475
  475SOL     OW 1559   2.430   3.886   0.830
  475SOL    HW1 1560   2.401   3.975   0.848
  475SOL    HW2 1561   2.352   3.842   0.796
  476SOL     OW 1562   1.038   3.786   3.747
  476SOL    HW1 1563   1.116   3.785   3.803
  476SOL    HW2 1564   1.012   3.694   3.742
  477SOL     OW 1565   1.320   2.143   0.695
  477SOL    HW1 1566   1.327   2.079   0.624
  477SOL    HW2 1567   1.227   2.141   0.719
  478SOL     OW 1568   3.611   3.889   3.153
  478SOL    HW1 1569   3.637   3.799   3.131
  478SOL    HW2 1570   3.552   3.915   3.082
  479SOL     OW 1571   3.910   2.182   3.014
  479SOL    HW1 1572   3.979   2.248   3.017
  479SOL    HW2 1573   3.847   2.210   3.081
  480SOL     OW 1574   1.943   1.733   1.059
  480SOL    HW1 1575   2.012   1.726   1.125
  480SOL    HW2 1576   1.861   1.727   1.109
  481SOL     OW 1577   3.900   3.235   0.192
  481SOL    HW1 1578   3.933   3.155   0.152
  481SOL    HW2 1579   3.959   3.250   0.267
  482SOL     OW 1580   2.515   3.850   2.408
  482SOL    HW1 1581   2.606   3.847   2.378
  482SOL    HW2 1582   2.513   3.924   2.469
  483SOL     OW 1583   1.284   0.709   2.366
  483SOL    HW1 1584   1.270   0.637   2.304
  483SOL    HW2 1585   1.218   0.774   2.342
  484SOL     OW 1586   0.779   3.788   1.648
  484SOL    HW1 1587   0.781   3.735   1.568
  484SOL    HW2 1588   0.730   3.735   1.710
  485SOL     OW 1589   3.950   3.373   3.919
  485SOL    HW1 1590   3.929   3.340   4.006
  485SOL    HW2 1591   3.990   3.459   3.934
  486SOL     OW 1592   0.094   3.359   2.305
  486SOL    HW1 1593   0.129   3.340   2.392
  486SOL    HW2 1594   0.120   3.450   2.288
  487SOL     OW 1595   2.862   3.802   1.232
  487SOL    HW1 1596   2.768   3.820   1.232
  487SOL    HW2 1597   2.879   3.765   1.319
  488SOL     OW 1598   1.198  -0.006   2.766
  488SOL    HW1 1599   1.122   0.034   2.809
  488SOL    HW2 1600   1.240   0.067   2.719
  489SOL     OW 1601   2.927   3.397   3.787
  489SOL    HW1 1602   2.962   3.389   3.699
  489SOL    HW2 1603   2.985   3.459   3.831
  490SOL     OW 1604   0.323  -0.016   2.530
  490SOL    HW1 1605   0.359   0.010   2.445
  490SOL    HW2 1606   0.280   0.063   2.563
  491SOL     OW 1607   1.432   3.493   1.589
  491SOL    HW1 1608   1.457   3.403   1.609
  491SOL    HW2 1609   1.498   3.547   1.633
  492SOL     OW 1610   1.680   2.189   3.542
  492SOL    HW1 1611   1.690   2.132   3.465
  492SOL    HW2 1612   1.644   2.131   3.609
  493SOL     OW 1613   1.449   3.758   1.070
  493SOL    HW1 1614   1.489   3.695   1.130
  493SOL    HW2 1615   1.433   3.708   0.990
  494SOL     OW 1616   3.795   1.303   2.120
  494SOL    HW1 1617   3.777   1.310   2.026
  494SOL    HW2 1618   3.831   1.216   2.132
  495SOL     OW 1619   2.563   0.337   0.398
  495SOL    HW1 1620   2.613   0.413   0.368
  495SOL    HW2 1621   2.611   0.305   0.474
  496SOL     OW 1622   1.130   2.131   3.379
  496SOL    HW1 1623   1.174   2.190   3.317
  496SOL    HW2 1624   1.073   2.189   3.430
  497SOL     OW 1625   1.787   1.746   2.835
  497SOL    HW1 1626   1.707   1.771   2.789
  497SOL    HW2 1627   1.774   1.654   2.860
  498SOL     OW 1628   2.588   1.638   1.878
  498SOL    HW1 1629   2.547   1.674   1.957
  498SOL    HW2 1630   2.661   1.697   1.860
  499SOL     OW 1631   1.432   3.960   2.493
  499SOL    HW1 1632   1.362   3.940   2.431
  499SOL    HW2 1633   1.445   3.878   2.540
  500SOL     OW 1634   0.681   0.644   1.464
  500SOL    HW1 1635   0.614   0.685   1.518
  500SOL    HW2 1636   0.645   0.559   1.440
  501SOL     OW 1637   0.186   0.783   3.097
  501SOL    HW1 1638   0.205   0.691   3.077
  501SOL    HW2 1639   0.095   0.783   3.127
  502SOL     OW 1640   2.267   0.388   3.058
  502SOL    HW1 1641   2.250   0.355   3.147
  502SOL    HW2 1642   2.334   0.329   3.024
  503SOL     OW 1643   2.682   2.220   0.711
  503SOL    HW1 1644   2.691   2.293   0.650
  503SOL    HW2 1645   2.669   2.143   0.655
  504SOL     OW 1646   1.739   1.084   0.748
  504SOL    HW1 1647   1.692   1.008   0.781
  504SOL    HW2 1648   1.705   1.158   0.798
  505SOL     OW 1649   1.729   1.233   3.795
  505SOL    HW1 1650   1.736   1.168   3.866
  505SOL    HW2 1651   1.647   1.279   3.813
  506SOL     OW 1652   0.071   0.496   2.656
  506SOL    HW1 1653   0.017   0.572   2.677
  506SOL    HW2 1654   0.047   0.475   2.566
  507SOL     OW 1655   3.939   0.094   0.758
  507SOL    HW1 1656   3.887   0.130   0.830
  507SOL    HW2 1657   4.002   0.035   0.801
  508SOL     OW 1658   2.625   3.212   2.265
  508SOL    HW1 1659   2.577   3.130   2.254
  508SOL    HW2 1660   2.681   3.197   2.341
  509SOL     OW 1661   2.139   0.403   0.921
  509SOL    HW1 1662   2.215   0.423   0.975
  509SOL    HW2 1663   2.067   0.451   0.963
  510SOL     OW 1664   2.171   0.761   3.076
  510SOL    HW1 1665   2.234   0.689   3.065
  510SOL    HW2 1666   2.222   0.840   3.061
  511SOL     OW 1667   3.644   1.711   1.279
  511SOL    HW1 1668   3.717   1.685   1.335
  511SOL    HW2 1669   3.582   1.638   1.285
  512SOL     OW 1670   3.795   3.623   3.346
  512SOL    HW1 1671   3.832   3.658   3.265
  512SOL    HW2 1672   3.735   3.555   3.319
  513SOL     OW 1673   3.705   2.950   1.415
  513SOL    HW1 1674   3.768   2.896   1.461
  513SOL    HW2 1675   3.726   2.938   1.322
  514SOL     OW 1676   0.532   3.056   0.894
  514SOL    HW1 1677   0.602   3.072   0.957
  514SOL    HW2 1678   0.458   3.106   0.929
  515SOL     OW 1679   0.389   2.397   1.576
  515SOL    HW1 1680   0.419   2.306   1.579
  515SOL    HW2 1681   0.468   2.448   1.555
  516SOL     OW 1682   3.834   0.794   2.465
  516SOL    HW1 1683   3.798   0.875   2.429
  516SOL    HW2 1684   3.788   0.783   2.548
  517SOL     OW 1685   1.972   0.287   3.541
  517SOL    HW1 1686   2.001   0.373   3.571
  517SOL    HW2 1687   1.990   0.229   3.616
  518SOL     OW 1688   1.464   0.987   2.451
  518SOL    HW1 1689   1.389   0.975   2.393
  518SOL    HW2 1690   1.502   1.070   2.423
  519SOL     OW 1691   0.033   3.159   0.968
  519SOL    HW1 1692   0.018   3.066   0.986
  519SOL    HW2 1693  -0.034   3.204   1.019
  520SOL     OW 1694   2.629   3.812   0.626
  520SOL    HW1 1695   2.621   3.721   0.599
  520SOL    HW2 1696   2.564   3.822   0.696
  521SOL     OW 1697   3.965   1.131   3.879
  521SOL    HW1 1698   3.934   1.154   3.792
  521SOL    HW2 1699   3.888   1.096   3.924
  522SOL     OW 1700   0.828   1.117   1.669
  522SOL    HW1 1701   0.777   1.158   1.738
  522SOL    HW2 1702   0.820   1.176   1.594
  523SOL     OW 1703   2.912   2.392   1.323
  523SOL    HW1 1704   2.915   2.487   1.335
  523SOL    HW2 1705   2.846   2.362   1.385
  524SOL     OW 1706   1.280   3.243   3.355
  524SOL    HW1 1707   1.245   3.296   3.283
  524SOL    HW2 1708   1.374   3.261   3.355
  525SOL     OW 1709   3.637   2.819   1.627
  525SOL    HW1 1710   3.644   2.725   1.610
  525SOL    HW2 1711   3.624   2.858   1.540
  526SOL     OW 1712   0.419   2.513   2.149
  526SOL    HW1 1713   0.382   2.525   2.061
  526SOL    HW2 1714   0.513   2.530   2.138
  527SOL     OW 1715   2.396   0.806   1.674
  527SOL    HW1 1716   2.347   0.858   1.610
  527SOL    HW2 1717   2.338   0.801   1.750
  528SOL     OW 1718   1.159   0.361   1.177
  528SOL    HW1 1719   1.244   0.392   1.209
  528SOL    HW2 1720   1.113   0.332   1.256
  529SOL     OW 1721   3.415   0.997   1.216
  529SOL    HW1 1722   3.440   0.991   1.124
  529SOL    HW2 1723   3.433   1.088   1.240
  530SOL     OW 1724   0.966   1.260   1.217
  530SOL    HW1 1725   1.041   1.320   1.222
  530SOL    HW2 1726   0.925   1.280   1.132
  531SOL     OW 1727   3.090   3.230   0.935
  531SOL    HW1 1728   3.130   3.196   1.015
  531SOL    HW2 1729   3.008   3.182   0.927
  532SOL     OW 1730   2.797   3.061   3.377
  532SOL    HW1 1731   2.840   2.976   3.378
  532SOL    HW2 1732   2.777   3.079   3.469
  533SOL     OW 1733   1.778   0.747   3.713
  533SOL    HW1 1734   1.820   0.786   3.636
  533SOL    HW2 1735   1.845   0.750   3.781
  534SOL     OW 1736   1.887   3.744   0.824
  534SOL    HW1 1737   1.821   3.761   0.757
  534SOL    HW2 1738   1.882   3.650   0.841
  535SOL     OW 1739   1.761   3.763   1.162
  535SOL    HW1 1740   1.772   3.670   1.184
  535SOL    HW2 1741   1.789   3.768   1.070
  536SOL     OW 1742   1.516   2.278   2.539
  536SOL    HW1 1743   1.509   2.343   2.469
  536SOL    HW2 1744   1.543   2.198   2.495
  537SOL     OW 1745   1.199   2.017   1.177
  537SOL    HW1 1746   1.222   2.030   1.269
  537SOL    HW2 1747   1.155   1.932   1.174
  538SOL     OW 1748   3.848   3.846   3.463
  538SOL    HW1 1749   3.857   3.912   3.394
  538SOL    HW2 1750   3.806   3.772   3.419
  539SOL     OW 1751   1.430   0.984   3.611
  539SOL    HW1 1752   1.430   0.916   3.678
  539SOL    HW2 1753   1.378   1.055   3.649
  540SOL     OW 1754   3.283   1.966   2.175
  540SOL    HW1 1755   3.217   1.996   2.238
  540SOL    HW2 1756   3.241   1.893   2.129
  541SOL     OW 1757   1.114   3.174   0.915
  541SOL    HW1 1758   1.135   3.232   0.842
  541SOL    HW2 1759   1.057   3.107   0.876
  542SOL     OW 1760   0.279   0.265   0.800
  542SOL    HW1 1761   0.254   0.249   0.709
  542SOL    HW2 1762   0.360   0.214   0.812
  543SOL     OW 1763   3.858   0.261   3.077
  543SOL    HW1 1764   3.939   0.229   3.037
  543SOL    HW2 1765   3.811   0.304   3.004
  544SOL     OW 1766   1.690   3.665   1.520
  544SOL    HW1 1767   1.647   3.702   1.443
  544SOL    HW2 1768   1.752   3.602   1.484
  545SOL     OW 1769   3.873   2.324   0.881
  545SOL    HW1 1770   3.819   2.332   0.959
  545SOL    HW2 1771   3.886   2.415   0.852
  546SOL     OW 1772   1.439   1.391   1.927
  546SOL    HW1 1773   1.500   1.324   1.959
  546SOL    HW2 1774   1.430   1.453   1.999
  547SOL     OW 1775   3.394   1.022   3.867
  547SOL    HW1 1776   3.418   1.086   3.935
  547SOL    HW2 1777   3.409   0.937   3.908
  548SOL     OW 1778   3.566   1.864   3.313
  548SOL    HW1 1779   3.583   1.850   3.406
  548SOL    HW2 1780   3.631   1.810   3.268
  549SOL     OW 1781   3.031   2.727   2.512
  549SOL    HW1 1782   3.049   2.803   2.457
  549SOL    HW2 1783   3.114   2.679   2.515
  550SOL     OW 1784   2.737   3.377   3.050
  550SOL    HW1 1785   2.719   3.284   3.036
  550SOL    HW2 1786   2.653   3.414   3.074
  551SOL     OW 1787   0.537   2.345   0.760
  551SOL    HW1 1788   0.601   2.384   0.701
  551SOL    HW2 1789   0.589   2.295   0.823
  552SOL     OW 1790   0.566   2.932   1.376
  552SOL    HW1 1791   0.639   2.926   1.314
  552SOL    HW2 1792   0.505   2.864   1.348
  553SOL     OW 1793   2.981   2.635   2.942
  553SOL    HW1 1794   2.923   2.681   2.882
  553SOL    HW2 1795   2.957   2.668   3.029
  554SOL     OW 1796   3.688   1.886  -0.018
  554SOL    HW1 1797   3.664   1.845   0.065
  554SOL    HW2 1798   3.675   1.980  -0.002
  555SOL     OW 1799   1.746   2.795   2.526
  555SOL    HW1 1800   1.796   2.832   2.599
  555SOL    HW2 1801   1.664   2.766   2.566
  556SOL     OW 1802   0.255   2.991   1.288
  556SOL    HW1 1803   0.210   2.926   1.233
  556SOL    HW2 1804   0.275   2.944   1.369
  557SOL     OW 1805   2.968   3.841   1.917
  557SOL    HW1 1806   2.960   3.916   1.859
  557SOL    HW2 1807   2.889   3.842   1.970
  558SOL     OW 1808   3.464   1.629   3.162
  558SOL    HW1 1809   3.459   1.714   3.119
  558SOL    HW2 1810   3.381   1.586   3.140
  559SOL     OW 1811   1.286   3.534   0.904
  559SOL    HW1 1812   1.205   3.580   0.884
  559SOL    HW2 1813   1.302   3.480   0.826
  560SOL     OW 1814   1.784   0.389   1.405
  560SOL    HW1 1815   1.853   0.454   1.394
  560SOL    HW2 1816   1.737   0.388   1.322
  561SOL     OW 1817   3.762   0.889   3.881
  561SOL    HW1 1818   3.839   0.838   3.855
  561SOL    HW2 1819   3.712   0.830   3.937
  562SOL     OW 1820   0.503   2.252   3.775
  562SOL    HW1 1821   0.438   2.310   3.816
  562SOL    HW2 1822   0.536   2.198   3.847
  563SOL     OW 1823   3.930   3.219   2.951
  563SOL    HW1 1824   3.979   3.207   2.870
  563SOL    HW2 1825   3.923   3.131   2.988
  564SOL     OW 1826   3.276   2.181   0.023
  564SOL    HW1 1827   3.202   2.127   0.051
  564SOL    HW2 1828   3.353   2.127   0.041
  565SOL     OW 1829   0.058   0.966   0.383
  565SOL    HW1 1830  -0.010   0.994   0.322
  565SOL    HW2 1831   0.020   0.981   0.469
  566SOL     OW 1832   1.040   2.125   3.019
  566SOL    HW1 1833   1.093   2.199   3.048
  566SOL    HW2 1834   0.978   2.162   2.956
  567SOL     OW 1835   2.852   0.795   3.671
  567SOL    HW1 1836   2.823   0.848   3.745
  567SOL    HW2 1837   2.929   0.748   3.703
  568SOL     OW 1838   1.366   3.860   1.866
  568SOL    HW1 1839   1.334   3.874   1.777
  568SOL    HW2 1840   1.343   3.941   1.913
  569SOL     OW 1841   0.216   1.432   0.255
  569SOL    HW1 1842   0.183   1.513   0.215
  569SOL    HW2 1843   0.224   1.370   0.183
  570SOL     OW 1844   0.938   0.503   2.858
  570SOL    HW1 1845   0.862   0.448   2.877
  570SOL    HW2 1846   0.906   0.567   2.794
  571SOL     OW 1847   2.297   1.115   3.311
  571SOL    HW1 1848   2.211   1.096   3.275
  571SOL    HW2 1849   2.283   1.121   3.406
  572SOL     OW 1850   1.778   3.937   2.171
  572SOL    HW1 1851   1.742   3.854   2.202
  572SOL    HW2 1852   1.770   3.996   2.245
  573SOL     OW 1853   0.887   2.720   3.607
  573SOL    HW1 1854   0.812   2.766   3.569
  573SOL    HW2 1855   0.903   2.765   3.690
  574SOL     OW 1856   0.915   0.716   2.684
  574SOL    HW1 1857   0.993   0.765   2.656
  574SOL    HW2 1858   0.842   0.760   2.641
  575SOL     OW 1859   0.152   3.444   3.515
  575SOL    HW1 1860   0.121   3.519   3.566
  575SOL    HW2 1861   0.091   3.438   3.442
  576SOL     OW 1862   3.139   3.454   2.969
  576SOL    HW1 1863   3.189   3.417   2.896
  576SOL    HW2 1864   3.138   3.385   3.035
  577SOL     OW 1865   3.342   0.337   2.642
  577SOL    HW1 1866   3.314   0.297   2.724
  577SOL    HW2 1867   3.303   0.425   2.644
  578SOL     OW 1868   2.742   2.790   1.053
  578SOL    HW1 1869   2.690   2.782   0.973
  578SOL    HW2 1870   2.677   2.804   1.122
  579SOL     OW 1871   1.891   2.499   0.068
  579SOL    HW1 1872   1.979   2.496   0.107
  579SOL    HW2 1873   1.903   2.547  -0.014
  580SOL     OW 1874   3.758   0.448   0.521
  580SOL    HW1 1875   3.724   0.397   0.594
  580SOL    HW2 1876   3.739   0.539   0.544
  581SOL     OW 1877   2.328   0.593   2.189
  581SOL    HW1 1878   2.379   0.544   2.253
  581SOL    HW2 1879   2.391   0.653   2.149
  582SOL     OW 1880   1.536   2.805   3.667
  582SOL    HW1 1881   1.518   2.725   3.617
  582SOL    HW2 1882   1.534   2.875   3.601
  583SOL     OW 1883   3.194   3.894   3.241
  583SOL    HW1 1884   3.196   3.805   3.207
  583SOL    HW2 1885   3.141   3.943   3.177
  584SOL     OW 1886   0.096   0.435   1.246
  584SOL    HW1 1887   0.001   0.447   1.248
  584SOL    HW2 1888   0.112   0.386   1.165
  585SOL     OW 1889   0.911   1.269   0.830
  585SOL    HW1 1890   0.901   1.200   0.764
  585SOL    HW2 1891   0.823   1.284   0.863
  586SOL     OW 1892   1.341   0.427   3.829
  586SOL    HW1 1893   1.434   0.448   3.833
  586SOL    HW2 1894   1.330   0.378   3.747
  587SOL     OW 1895   1.872   3.405   3.119
  587SOL    HW1 1896   1.795   3.433   3.168
  587SOL    HW2 1897   1.928   3.363   3.183
  588SOL     OW 1898   3.843   2.220   1.966
  588SOL    HW1 1899   3.840   2.224   2.061
  588SOL    HW2 1900   3.805   2.134   1.945
  589SOL     OW 1901   3.125   2.259   0.702
  589SOL    HW1 1902   3.074   2.218   0.772
  589SOL    HW2 1903   3.216   2.238   0.723
  590SOL     OW 1904   1.274   2.785   0.775
  590SOL    HW1 1905   1.357   2.743   0.755
  590SOL    HW2 1906   1.236   2.733   0.845
  591SOL     OW 1907   2.639   3.245   2.589
  591SOL    HW1 1908   2.706   3.296   2.543
  591SOL    HW2 1909   2.689   3.193   2.652
  592SOL     OW 1910   2.460   1.900   0.852
  592SOL    HW1 1911   2.528   1.956   0.889
  592SOL    HW2 1912   2.379   1.948   0.868
  593SOL     OW 1913   2.058   3.058   3.634
  593SOL    HW1 1914   2.093   3.147   3.637
  593SOL    HW2 1915   2.040   3.037   3.726
  594SOL     OW 1916   3.038   1.501   3.610
  594SOL    HW1 1917   3.128   1.528   3.593
  594SOL    HW2 1918   3.041   1.461   3.697
  595SOL     OW 1919   1.451   2.010   1.769
  595SOL    HW1 1920   1.432   2.095   1.728
  595SOL    HW2 1921   1.536   1.985   1.733
  596SOL     OW 1922   3.590   3.327   2.167
  596SOL    HW1 1923   3.662   3.385   2.146
  596SOL    HW2 1924   3.535   3.377   2.228
  597SOL     OW 1925   3.509   2.350   1.539
  597SOL    HW1 1926   3.477   2.298   1.466
  597SOL    HW2 1927   3.523   2.286   1.609
  598SOL     OW 1928   1.190   1.293   1.513
  598SOL    HW1 1929   1.233   1.279   1.597
  598SOL    HW2 1930   1.097   1.279   1.531
  599SOL     OW 1931   3.869   2.924   2.859
  599SOL    HW1 1932   3.780   2.953   2.843
  599SOL    HW2 1933   3.878   2.926   2.954
  600SOL     OW 1934   0.417   1.449   2.619
  600SOL    HW1 1935   0.505   1.487   2.610
  600SOL    HW2 1936   0.364   1.495   2.554
  601SOL     OW 1937   1.559   1.471   1.413
  601SOL    HW1 1938   1.592   1.561   1.414
  601SOL    HW2 1939   1.553   1.447   1.506
  602SOL     OW 1940   2.851   1.937   3.590
  602SOL    HW1 1941   2.883   1.862   3.641
  602SOL    HW2 1942   2.778   1.970   3.641
  603SOL     OW 1943   1.330   2.289   3.696
  603SOL    HW1 1944   1.300   2.199   3.684
  603SOL    HW2 1945   1.404   2.282   3.757
  604SOL     OW 1946   2.876   3.596   3.418
  604SOL    HW1 1947   2.876   3.505   3.389
  604SOL    HW2 1948   2.811   3.639   3.361
  605SOL     OW 1949   1.964   2.347   2.770
  605SOL    HW1 1950   1.991   2.267   2.725
  605SOL    HW2 1951   2.007   2.418   2.722
  606SOL     OW 1952   1.522   3.267   0.117
  606SOL    HW1 1953   1.467   3.201   0.159
  606SOL    HW2 1954   1.551   3.226   0.036
  607SOL     OW 1955   1.185   3.823   1.169
  607SOL    HW1 1956   1.255   3.815   1.104
  607SOL    HW2 1957   1.199   3.749   1.228
  608SOL     OW 1958   1.480   0.769   2.682
  608SOL    HW1 1959   1.424   0.790   2.756
  608SOL    HW2 1960   1.482   0.849   2.629
  609SOL     OW 1961   1.252   3.806   3.934
  609SOL    HW1 1962   1.257   3.806   4.030
  609SOL    HW2 1963   1.278   3.894   3.909
  610SOL     OW 1964   1.304   0.670   0.842
  610SOL    HW1 1965   1.280   0.597   0.784
  610SOL    HW2 1966   1.232   0.732   0.832
  611SOL     OW 1967   0.675   1.608   3.139
  611SOL    HW1 1968   0.716   1.602   3.226
  611SOL    HW2 1969   0.604   1.672   3.150
  612SOL     OW 1970   2.295   2.126   2.736
  612SOL    HW1 1971   2.221   2.092   2.685
  612SOL    HW2 1972   2.299   2.219   2.713
  613SOL     OW 1973   2.435   3.672   2.914
  613SOL    HW1 1974   2.363   3.654   2.974
  613SOL    HW2 1975   2.416   3.760   2.880
  614SOL     OW 1976   0.817   2.802   2.487
  614SOL    HW1 1977   0.789   2.756   2.566
  614SOL    HW2 1978   0.749   2.782   2.423
  615SOL     OW 1979   3.008   0.793   1.962
  615SOL    HW1 1980   3.072   0.862   1.945
  615SOL    HW2 1981   2.926   0.840   1.980
  616SOL     OW 1982   1.541   3.827   1.348
  616SOL    HW1 1983   1.565   3.820   1.256
  616SOL    HW2 1984   1.470   3.764   1.361
  617SOL     OW 1985   3.109   2.728   0.181
  617SOL    HW1 1986   3.203   2.713   0.167
  617SOL    HW2 1987   3.068   2.645   0.157
  618SOL     OW 1988   2.817   0.937   3.406
  618SOL    HW1 1989   2.837   0.891   3.487
  618SOL    HW2 1990   2.901   0.942   3.360
  619SOL     OW 1991   3.360   0.210   1.766
  619SOL    HW1 1992   3.332   0.138   1.822
  619SOL    HW2 1993   3.320   0.288   1.804
  620SOL     OW 1994   3.634   2.399   2.245
  620SOL    HW1 1995   3.567   2.466   2.230
  620SOL    HW2 1996   3.711   2.432   2.199
  621SOL     OW 1997   0.678   1.568   2.550
  621SOL    HW1 1998   0.640   1.640   2.499
  621SOL    HW2 1999   0.675   1.598   2.640
  622SOL     OW 2000   3.979   3.011   3.494
  622SOL    HW1 2001   3.940   2.925   3.509
  622SOL    HW2 2002   3.962   3.060   3.575
  623SOL     OW 2003   2.008   2.466   0.785
  623SOL    HW1 2004   2.018   2.473   0.690
  623SOL    HW2 2005   2.019   2.556   0.817
  624SOL     OW 2006   3.779   1.901   3.001
  624SOL    HW1 2007   3.820   1.987   3.009
  624SOL    HW2 2008   3.847   1.840   3.028
  625SOL     OW 2009   1.908   0.441   3.794
  625SOL    HW1 2010   1.942   0.500   3.726
  625SOL    HW2 2011   1.975   0.443   3.862
  626SOL     OW 2012   0.199   0.670   0.507
  626SOL    HW1 2013   0.239   0.645   0.424
  626SOL    HW2 2014   0.266   0.652   0.573
  627SOL     OW 2015   0.111   2.344   1.879
  627SOL    HW1 2016   0.159   2.337   1.962
  627SOL    HW2 2017   0.019   2.336   1.903
  628SOL     OW 2018   0.214   0.504   3.060
  628SOL    HW1 2019   0.246   0.505   3.150
  628SOL    HW2 2020   0.283   0.460   3.010
  629SOL     OW 2021   3.086   1.517   2.750
  629SOL    HW1 2022   3.104   1.553   2.663
  629SOL    HW2 2023   3.145   1.564   2.808
  630SOL     OW 2024   1.074   0.570   3.335
  630SOL    HW1 2025   1.047   0.478   3.337
  630SOL    HW2 2026   1.088   0.592   3.427
  631SOL     OW 2027   1.512  -0.006   3.213
  631SOL    HW1 2028   1.559   0.071   3.182
  631SOL    HW2 2029   1.551  -0.025   3.298
  632SOL     OW 2030   0.926   1.233   2.345
  632SOL    HW1 2031   0.853   1.284   2.380
  632SOL    HW2 2032   0.965   1.289   2.278
  633SOL     OW 2033   0.006   1.855   3.344
  633SOL    HW1 2034  -0.036   1.929   3.387
  633SOL    HW2 2035   0.069   1.822   3.408
  634SOL     OW 2036   0.131   1.269   0.549
  634SOL    HW1 2037   0.073   1.335   0.587
  634SOL    HW2 2038   0.154   1.305   0.463
  635SOL     OW 2039   0.483   3.015   2.612
  635SOL    HW1 2040   0.550   2.999   2.678
  635SOL    HW2 2041   0.513   2.965   2.536
  636SOL     OW 2042   2.226   0.895   1.957
  636SOL    HW1 2043   2.156   0.869   2.018
  636SOL    HW2 2044   2.299   0.919   2.014
  637SOL     OW 2045   1.792   2.914   2.786
  637SOL    HW1 2046   1.826   2.994   2.825
  637SOL    HW2 2047   1.721   2.887   2.845
  638SOL     OW 2048   2.285   1.229   3.825
  638SOL    HW1 2049   2.369   1.210   3.867
  638SOL    HW2 2050   2.232   1.150   3.838
  639SOL     OW 2051   2.823   0.060   2.722
  639SOL    HW1 2052   2.893  -0.001   2.697
  639SOL    HW2 2053   2.811   0.045   2.816
  640SOL     OW 2054   2.649   2.852   0.768
  640SOL    HW1 2055   2.693   2.767   0.772
  640SOL    HW2 2056   2.593   2.846   0.691
  641SOL     OW 2057   1.537   0.505   1.006
  641SOL    HW1 2058   1.528   0.466   0.919
  641SOL    HW2 2059   1.449   0.535   1.028
  642SOL     OW 2060   2.757   1.001   2.894
  642SOL    HW1 2061   2.784   0.928   2.949
  642SOL    HW2 2062   2.821   1.070   2.913
  643SOL     OW 2063   2.542   1.728   0.658
  643SOL    HW1 2064   2.520   1.787   0.730
  643SOL    HW2 2065   2.595   1.659   0.699
  644SOL     OW 2066   2.133   3.771   1.166
  644SOL    HW1 2067   2.097   3.683   1.158
  644SOL    HW2 2068   2.189   3.767   1.243
  645SOL     OW 2069   1.628   3.568   0.603
  645SOL    HW1 2070   1.647   3.661   0.591
  645SOL    HW2 2071   1.715   3.528   0.613
  646SOL     OW 2072   3.015   2.881   1.395
  646SOL    HW1 2073   3.008   2.942   1.468
  646SOL    HW2 2074   3.103   2.844   1.402
  647SOL     OW 2075   2.708   3.436   0.688
  647SOL    HW1 2076   2.689   3.487   0.767
  647SOL    HW2 2077   2.803   3.427   0.688
  648SOL     OW 2078   0.235   0.157   2.882
  648SOL    HW1 2079   0.243   0.063   2.865
  648SOL    HW2 2080   0.231   0.163   2.978
  649SOL     OW 2081   3.517   0.272   3.625
  649SOL    HW1 2082   3.536   0.359   3.590
  649SOL    HW2 2083   3.602   0.235   3.648
  650SOL     OW 2084   3.817   1.020   2.101
  650SOL    HW1 2085   3.762   0.946   2.130
  650SOL    HW2 2086   3.811   1.018   2.006
  651SOL     OW 2087   2.186   0.180   0.227
  651SOL    HW1 2088   2.277   0.151   0.220
  651SOL    HW2 2089   2.161   0.160   0.317
  652SOL     OW 2090   2.107   1.650   2.223
  652SOL    HW1 2091   2.091   1.558   2.205
  652SOL    HW2 2092   2.033   1.677   2.277
  653SOL     OW 2093   3.134   0.199   0.971
  653SOL    HW1 2094   3.047   0.162   0.983
  653SOL    HW2 2095   3.184   0.168   1.046
  654SOL     OW 2096   3.710   1.724   1.830
  654SOL    HW1 2097   3.679   1.683   1.750
  654SOL    HW2 2098   3.665   1.677   1.900
  655SOL     OW 2099   1.032   0.254   0.225
  655SOL    HW1 2100   1.069   0.341   0.209
  655SOL    HW2 2101   1.041   0.241   0.319
  656SOL     OW 2102   1.496   1.355   3.879
  656SOL    HW1 2103   1.500   1.441   3.921
  656SOL    HW2 2104   1.464   1.373   3.791
  657SOL     OW 2105   1.014   3.807   2.020
  657SOL    HW1 2106   1.019   3.727   1.967
  657SOL    HW2 2107   1.022   3.878   1.956
  658SOL     OW 2108   3.537   0.604   1.207
  658SOL    HW1 2109   3.575   0.688   1.232
  658SOL    HW2 2110   3.520   0.559   1.290
  659SOL     OW 2111   2.371   0.458   1.673
  659SOL    HW1 2112   2.422   0.498   1.743
  659SOL    HW2 2113   2.421   0.381   1.647
  660SOL     OW 2114   3.853   1.689   0.957
  660SOL    HW1 2115   3.869   1.767   1.010
  660SOL    HW2 2116   3.864   1.616   1.018
  661SOL     OW 2117   3.073   0.899   3.247
  661SOL    HW1 2118   3.157   0.937   3.271
  661SOL    HW2 2119   3.078   0.809   3.279
  662SOL     OW 2120   0.589   3.299   2.765
  662SOL    HW1 2121   0.495   3.293   2.749
  662SOL    HW2 2122   0.600   3.267   2.855
  663SOL     OW 2123   2.631   2.665   0.333
  663SOL    HW1 2124   2.589   2.734   0.385
  663SOL    HW2 2125   2.606   2.685   0.243
  664SOL     OW 2126   3.524   3.696   0.667
  664SOL    HW1 2127   3.473   3.696   0.748
  664SOL    HW2 2128   3.458   3.706   0.598
  665SOL     OW 2129   2.860   0.770   2.314
  665SOL    HW1 2130   2.857   0.675   2.302
  665SOL    HW2 2131   2.774   0.793   2.348
  666SOL     OW 2132   1.188   0.351   2.436
  666SOL    HW1 2133   1.134   0.409   2.382
  666SOL    HW2 2134   1.278   0.373   2.411
  667SOL     OW 2135   2.081   3.594   0.390
  667SOL    HW1 2136   2.173   3.609   0.410
  667SOL    HW2 2137   2.036   3.673   0.422
  668SOL     OW 2138   2.632   2.589   0.742
  668SOL    HW1 2139   2.635   2.548   0.656
  668SOL    HW2 2140   2.686   2.533   0.797
  669SOL     OW 2141   1.410   0.182   1.412
  669SOL    HW1 2142   1.474   0.207   1.479
  669SOL    HW2 2143   1.396   0.262   1.362
  670SOL     OW 2144   3.482   1.559   1.096
  670SOL    HW1 2145   3.392   1.585   1.116
  670SOL    HW2 2146   3.502   1.603   1.014
  671SOL     OW 2147   1.566   1.809   1.438
  671SOL    HW1 2148   1.492   1.798   1.498
  671SOL    HW2 2149   1.624   1.870   1.483
  672SOL     OW 2150   0.585   3.447   0.793
  672SOL    HW1 2151   0.546   3.455   0.880
  672SOL    HW2 2152   0.524   3.390   0.745
  673SOL     OW 2153   2.675   1.994   1.900
  673SOL    HW1 2154   2.729   1.924   1.863
  673SOL    HW2 2155   2.621   1.952   1.966
  674SOL     OW 2156   2.917   1.764   3.940
  674SOL    HW1 2157   2.845   1.821   3.967
  674SOL    HW2 2158   2.887   1.724   3.858
  675SOL     OW 2159   1.782   2.395   3.384
  675SOL    HW1 2160   1.835   2.427   3.457
  675SOL    HW2 2161   1.725   2.329   3.424
  676SOL     OW 2162   2.707   2.832   2.147
  676SOL    HW1 2163   2.704   2.741   2.118
  676SOL    HW2 2164   2.619   2.866   2.127
  677SOL     OW 2165   1.417   0.378   3.242
  677SOL    HW1 2166   1.464   0.424   3.173
  677SOL    HW2 2167   1.325   0.378   3.212
  678SOL     OW 2168   0.533   2.132   1.508
  678SOL    HW1 2169   0.622   2.107   1.532
  678SOL    HW2 2170   0.516   2.085   1.426
  679SOL     OW 2171   1.915   3.421   0.521
  679SOL    HW1 2172   1.953   3.409   0.608
  679SOL    HW2 2173   1.977   3.478   0.476
  680SOL     OW 2174   1.206   3.265   0.633
  680SOL    HW1 2175   1.200   3.219   0.550
  680SOL    HW2 2176   1.226   3.356   0.610
  681SOL     OW 2177   2.610   3.882   1.224
  681SOL    HW1 2178   2.554   3.828   1.168
  681SOL    HW2 2179   2.597   3.971   1.193
  682SOL     OW 2180   1.913   3.498   2.708
  682SOL    HW1 2181   1.835   3.535   2.751
  682SOL    HW2 2182   1.887   3.409   2.685
  683SOL     OW 2183   2.199   3.538   0.942
  683SOL    HW1 2184   2.163   3.483   0.873
  683SOL    HW2 2185   2.124   3.559   0.997
  684SOL     OW 2186   2.952   3.637   0.781
  684SOL    HW1 2187   2.964   3.694   0.704
  684SOL    HW2 2188   2.892   3.685   0.837
  685SOL     OW 2189   1.992   0.925   1.465
  685SOL    HW1 2190   1.960   1.015   1.458
  685SOL    HW2 2191   2.059   0.928   1.533
  686SOL     OW 2192   2.716   3.769   2.994
  686SOL    HW1 2193   2.622   3.749   2.994
  686SOL    HW2 2194   2.756   3.695   2.950
  687SOL     OW 2195   3.141   2.189   0.408
  687SOL    HW1 2196   3.147   2.220   0.498
  687SOL    HW2 2197   3.164   2.096   0.412
  688SOL     OW 2198   1.344   0.216   2.669
  688SOL    HW1 2199   1.316   0.304   2.643
  688SOL    HW2 2200   1.393   0.183   2.594
  689SOL     OW 2201   3.511   0.317   0.017
  689SOL    HW1 2202   3.573   0.245   0.006
  689SOL    HW2 2203   3.564   0.391   0.046
  690SOL     OW 2204   0.369   3.501   0.990
  690SOL    HW1 2205   0.391   3.594   0.993
  690SOL    HW2 2206   0.345   3.480   1.080
  691SOL     OW 2207   0.440   0.593   1.636
  691SOL    HW1 2208   0.383   0.638   1.573
  691SOL    HW2 2209   0.397   0.510   1.653
  692SOL     OW 2210   0.560   1.193   1.107
  692SOL    HW1 2211   0.539   1.137   1.032
  692SOL    HW2 2212   0.474   1.217   1.143
  693SOL     OW 2213   2.516   3.557   1.807
  693SOL    HW1 2214   2.461   3.635   1.798
  693SOL    HW2 2215   2.456   3.490   1.840
  694SOL     OW 2216   1.994   2.496   0.504
  694SOL    HW1 2217   1.939   2.571   0.478
  694SOL    HW2 2218   2.073   2.504   0.450
  695SOL     OW 2219   1.009   0.089   1.228
  695SOL    HW1 2220   0.982   0.093   1.137
  695SOL    HW2 2221   1.070   0.016   1.232
  696SOL     OW 2222   3.718   2.583   1.563
  696SOL    HW1 2223   3.706   2.488   1.569
  696SOL    HW2 2224   3.780   2.594   1.491
  697SOL     OW 2225   2.217   2.389   1.129
  697SOL    HW1 2226   2.208   2.352   1.042
  697SOL    HW2 2227   2.195   2.317   1.188
  698SOL     OW 2228   2.076   1.975   2.668
  698SOL    HW1 2229   2.046   1.979   2.577
  698SOL    HW2 2230   1.995   1.976   2.720
  699SOL     OW 2231   1.198   0.671   3.890
  699SOL    HW1 2232   1.277   0.718   3.863
  699SOL    HW2 2233   1.223   0.579   3.885
  700SOL     OW 2234   3.022   3.772   0.054
  700SOL    HW1 2235   3.081   3.814   0.117
  700SOL    HW2 2236   3.028   3.826  -0.025
  701SOL     OW 2237   0.123   2.827   2.148
  701SOL    HW1 2238   0.102   2.919   2.134
  701SOL    HW2 2239   0.168   2.800   2.068
  702SOL     OW 2240   3.590   1.586   3.424
  702SOL    HW1 2241   3.513   1.529   3.423
  702SOL    HW2 2242   3.591   1.627   3.338
  703SOL     OW 2243   3.757   1.650   3.611
  703SOL    HW1 2244   3.808   1.713   3.561
  703SOL    HW2 2245   3.679   1.634   3.558
  704SOL     OW 2246   0.178   3.802   1.486
  704SOL    HW1 2247   0.082   3.792   1.482
  704SOL    HW2 2248   0.198   3.803   1.580
  705SOL     OW 2249   2.523   1.384   2.484
  705SOL    HW1 2250   2.599   1.441   2.490
  705SOL    HW2 2251   2.480   1.392   2.568
  706SOL     OW 2252  -0.004   2.023   0.396
  706SOL    HW1 2253   0.075   2.076   0.412
  706SOL    HW2 2254  -0.009   1.964   0.471
  707SOL     OW 2255   0.653   1.697   0.401
  707SOL    HW1 2256   0.616   1.613   0.374
  707SOL    HW2 2257   0.699   1.729   0.324
  708SOL     OW 2258   1.682   0.118   2.393
  708SOL    HW1 2259   1.595   0.079   2.395
  708SOL    HW2 2260   1.691   0.160   2.478
  709SOL     OW 2261   2.386   1.088   0.769
  709SOL    HW1 2262   2.302   1.095   0.815
  709SOL    HW2 2263   2.444   1.044   0.832
  710SOL     OW 2264   2.104   3.255   2.804
  710SOL    HW1 2265   2.150   3.237   2.885
  710SOL    HW2 2266   2.020   3.211   2.813
  711SOL     OW 2267   2.909   2.594   3.852
  711SOL    HW1 2268   2.877   2.676   3.888
  711SOL    HW2 2269   2.830   2.550   3.819
  712SOL     OW 2270   2.906   1.579   2.326
  712SOL    HW1 2271   2.935   1.514   2.262
  712SOL    HW2 2272   2.987   1.619   2.358
  713SOL     OW 2273   2.112   3.527   0.111
  713SOL    HW1 2274   2.104   3.531   0.207
  713SOL    HW2 2275   2.084   3.438   0.089
  714SOL     OW 2276   0.933   0.250   2.580
  714SOL    HW1 2277   0.957   0.208   2.663
  714SOL    HW2 2278   1.017   0.275   2.541
  715SOL     OW 2279   0.606   1.940   3.712
  715SOL    HW1 2280   0.552   1.996   3.768
  715SOL    HW2 2281   0.548   1.916   3.639
  716SOL     OW 2282   2.169   1.451   1.062
  716SOL    HW1 2283   2.083   1.410   1.058
  716SOL    HW2 2284   2.229   1.379   1.083
  717SOL     OW 2285   3.832   1.811   0.647
  717SOL    HW1 2286   3.893   1.756   0.695
  717SOL    HW2 2287   3.785   1.861   0.714
  718SOL     OW 2288   2.029   2.280   1.706
  718SOL    HW1 2289   2.009   2.340   1.635
  718SOL    HW2 2290   1.949   2.230   1.718
  719SOL     OW 2291   1.160   0.850   2.609
  719SOL    HW1 2292   1.144   0.935   2.568
  719SOL    HW2 2293   1.225   0.808   2.553
  720SOL     OW 2294   1.223   3.185   0.073
  720SOL    HW1 2295   1.176   3.119   0.124
  720SOL    HW2 2296   1.189   3.175  -0.016
  721SOL     OW 2297   1.828   0.134   3.766
  721SOL    HW1 2298   1.912   0.139   3.813
  721SOL    HW2 2299   1.788   0.220   3.780
  722SOL     OW 2300   3.939   1.408   3.933
  722SOL    HW1 2301   3.845   1.413   3.954
  722SOL    HW2 2302   3.961   1.315   3.946
  723SOL     OW 2303   1.310   3.498   2.988
  723SOL    HW1 2304   1.253   3.547   2.929
  723SOL    HW2 2305   1.374   3.561   3.019
  724SOL     OW 2306   3.631   3.732   1.953
  724SOL    HW1 2307   3.700   3.686   2.000
  724SOL    HW2 2308   3.627   3.688   1.868
  725SOL     OW 2309   0.950   3.031   0.746
  725SOL    HW1 2310   0.904   3.075   0.674
  725SOL    HW2 2311   0.954   2.939   0.719
  726SOL     OW 2312   2.206   1.441   2.560
  726SOL    HW1 2313   2.285   1.417   2.610
  726SOL    HW2 2314   2.240   1.478   2.479
  727SOL     OW 2315   2.663   1.905   1.369
  727SOL    HW1 2316   2.687   1.994   1.343
  727SOL    HW2 2317   2.592   1.881   1.310
  728SOL     OW 2318   3.792   1.262   2.811
  728SOL    HW1 2319   3.703   1.231   2.824
  728SOL    HW2 2320   3.784   1.356   2.798
  729SOL     OW 2321   1.534   3.342   2.360
  729SOL    HW1 2322   1.605   3.401   2.336
  729SOL    HW2 2323   1.554   3.260   2.315
  730SOL     OW 2324   0.823   1.255   2.078
  730SOL    HW1 2325   0.909   1.225   2.047
  730SOL    HW2 2326   0.769   1.259   1.999
  731SOL     OW 2327   2.551   1.211   0.366
  731SOL    HW1 2328   2.506   1.258   0.436
  731SOL    HW2 2329   2.609   1.276   0.326
  732SOL     OW 2330   0.937   1.961   2.575
  732SOL    HW1 2331   0.998   2.032   2.559
  732SOL    HW2 2332   0.952   1.899   2.503
  733SOL     OW 2333   2.919   2.904   0.207
  733SOL    HW1 2334   2.876   2.912   0.122
  733SOL    HW2 2335   2.982   2.833   0.195
  734SOL     OW 2336   0.331   1.421   1.321
  734SOL    HW1 2337   0.420   1.389   1.304
  734SOL    HW2 2338   0.274   1.364   1.270
  735SOL     OW 2339   2.323   2.109   2.287
  735SOL    HW1 2340   2.331   2.053   2.210
  735SOL    HW2 2341   2.386   2.073   2.349
  736SOL     OW 2342   0.175   2.105   3.353
  736SOL    HW1 2343   0.227   2.148   3.420
  736SOL    HW2 2344   0.098   2.073   3.399
  737SOL     OW 2345   2.368   0.612   2.891
  737SOL    HW1 2346   2.393   0.539   2.948
  737SOL    HW2 2347   2.447   0.666   2.887
  738SOL     OW 2348   3.084   1.119   2.570
  738SOL    HW1 2349   3.125   1.069   2.641
  738SOL    HW2 2350   3.068   1.054   2.502
  739SOL     OW 2351   2.596   1.044   0.564
  739SOL    HW1 2352   2.538   1.074   0.634
  739SOL    HW2 2353   2.567   1.093   0.487
  740SOL     OW 2354   2.271   3.207   3.020
  740SOL    HW1 2355   2.288   3.221   3.113
  740SOL    HW2 2356   2.313   3.281   2.976
  741SOL     OW 2357   3.190   0.100   0.539
  741SOL    HW1 2358   3.259   0.166   0.539
  741SOL    HW2 2359   3.216   0.038   0.607
  742SOL     OW 2360   1.435   3.865   2.819
  742SOL    HW1 2361   1.485   3.945   2.800
  742SOL    HW2 2362   1.344   3.892   2.815
  743SOL     OW 2363   0.494   1.953   1.287
  743SOL    HW1 2364   0.561   1.884   1.290
  743SOL    HW2 2365   0.414   1.909   1.315
  744SOL     OW 2366   3.527   2.435   0.803
  744SOL    HW1 2367   3.521   2.528   0.786
  744SOL    HW2 2368   3.621   2.417   0.808
  745SOL     OW 2369   1.581   2.960   0.532
  745SOL    HW1 2370   1.499   2.993   0.569
  745SOL    HW2 2371   1.636   2.943   0.608
  746SOL     OW 2372   2.526   0.699   0.029
  746SOL    HW1 2373   2.478   0.739   0.102
  746SOL    HW2 2374   2.615   0.735   0.037
  747SOL     OW 2375   1.626   0.503   3.713
  747SOL    HW1 2376   1.662   0.469   3.631
  747SOL    HW2 2377   1.673   0.585   3.728
  748SOL     OW 2378   1.186   3.270   1.179
  748SOL    HW1 2379   1.171   3.258   1.085
  748SOL    HW2 2380   1.259   3.332   1.184
  749SOL     OW 2381   0.749   2.946   1.128
  749SOL    HW1 2382   0.773   3.038   1.140
  749SOL    HW2 2383   0.832   2.898   1.136
  750SOL     OW 2384   3.441   3.426   0.411
  750SOL    HW1 2385   3.454   3.516   0.382
  750SOL    HW2 2386   3.379   3.389   0.349
  751SOL     OW 2387   3.787   1.978   2.374
  751SOL    HW1 2388   3.777   1.996   2.467
  751SOL    HW2 2389   3.859   1.915   2.369
  752SOL     OW 2390   0.556   2.998   3.018
  752SOL    HW1 2391   0.594   2.944   3.087
  752SOL    HW2 2392   0.490   2.942   2.977
  753SOL     OW 2393   0.327   1.693   2.273
  753SOL    HW1 2394   0.247   1.745   2.269
  753SOL    HW2 2395   0.303   1.608   2.236
  754SOL     OW 2396   0.307   3.160   1.010
  754SOL    HW1 2397   0.290   3.174   1.103
  754SOL    HW2 2398   0.220   3.150   0.971
  755SOL     OW 2399   0.624   2.109   0.413
  755SOL    HW1 2400   0.615   2.204   0.398
  755SOL    HW2 2401   0.535   2.076   0.408
  756SOL     OW 2402   3.906   3.382   1.563
  756SOL    HW1 2403   3.817   3.409   1.582
  756SOL    HW2 2404   3.901   3.287   1.552
  757SOL     OW 2405   0.566   0.697   0.760
  757SOL    HW1 2406   0.475   0.726   0.751
  757SOL    HW2 2407   0.560   0.603   0.776
  758SOL     OW 2408   3.032   0.880   0.543
  758SOL    HW1 2409   2.972   0.949   0.570
  758SOL    HW2 2410   3.009   0.806   0.599
  759SOL     OW 2411   3.244   0.583   2.684
  759SOL    HW1 2412   3.184   0.603   2.756
  759SOL    HW2 2413   3.203   0.619   2.606
  760SOL     OW 2414   2.229   3.106   3.290
  760SOL    HW1 2415   2.176   3.177   3.254
  760SOL    HW2 2416   2.191   3.027   3.253
  761SOL     OW 2417   3.317   1.476   3.462
  761SOL    HW1 2418   3.268   1.464   3.380
  761SOL    HW2 2419   3.308   1.393   3.508
  762SOL     OW 2420   2.507   2.972   2.318
  762SOL    HW1 2421   2.418   2.981   2.353
  762SOL    HW2 2422   2.544   2.898   2.366
  763SOL     OW 2423   0.251   1.400   3.582
  763SOL    HW1 2424   0.207   1.479   3.613
  763SOL    HW2 2425   0.179   1.344   3.551
  764SOL     OW 2426   0.251   2.144   0.429
  764SOL    HW1 2427   0.256   2.196   0.509
  764SOL    HW2 2428   0.237   2.209   0.360
  765SOL     OW 2429   2.308   3.932   2.853
  765SOL    HW1 2430   2.213   3.936   2.861
  765SOL    HW2 2431   2.327   3.983   2.774
  766SOL     OW 2432   3.682   1.432   3.949
  766SOL    HW1 2433   3.695   1.493   4.021
  766SOL    HW2 2434   3.625   1.479   3.887
  767SOL     OW 2435   2.711   3.100   0.465
  767SOL    HW1 2436   2.674   3.183   0.495
  767SOL    HW2 2437   2.658   3.076   0.388
  768SOL     OW 2438   1.882   1.641   2.434
  768SOL    HW1 2439   1.840   1.727   2.427
  768SOL    HW2 2440   1.831   1.594   2.499
  769SOL     OW 2441   1.746   0.418   3.475
  769SOL    HW1 2442   1.770   0.478   3.404
  769SOL    HW2 2443   1.823   0.363   3.487
  770SOL     OW 2444   1.425   3.872   0.292
  770SOL    HW1 2445   1.479   3.890   0.215
  770SOL    HW2 2446   1.359   3.941   0.292
  771SOL     OW 2447   3.401   1.475   0.771
  771SOL    HW1 2448   3.458   1.550   0.788
  771SOL    HW2 2449   3.430   1.441   0.687
  772SOL     OW 2450   1.116   0.259   1.635
  772SOL    HW1 2451   1.149   0.320   1.569
  772SOL    HW2 2452   1.097   0.179   1.585
  773SOL     OW 2453   3.596   0.971   0.532
  773SOL    HW1 2454   3.562   1.028   0.600
  773SOL    HW2 2455   3.555   1.002   0.451
  774SOL     OW 2456   0.529   2.845   2.374
  774SOL    HW1 2457   0.434   2.859   2.381
  774SOL    HW2 2458   0.545   2.838   2.280
  775SOL     OW 2459   0.396   3.675   1.855
  775SOL    HW1 2460   0.459   3.713   1.916
  775SOL    HW2 2461   0.380   3.744   1.791
  776SOL     OW 2462   0.504   3.509   2.112
  776SOL    HW1 2463   0.525   3.600   2.093
  776SOL    HW2 2464   0.588   3.465   2.118
  777SOL     OW 2465   3.708   2.176   0.032
  777SOL    HW1 2466   3.667   2.214   0.110
  777SOL    HW2 2467   3.760   2.247  -0.005
  778SOL     OW 2468   2.616   0.222   2.753
  778SOL    HW1 2469   2.646   0.311   2.735
  778SOL    HW2 2470   2.693   0.167   2.737
  779SOL     OW 2471   2.868   0.318   2.431
  779SOL    HW1 2472   2.812   0.241   2.414
  779SOL    HW2 2473   2.864   0.369   2.350
  780SOL     OW 2474   3.412   3.280   2.823
  780SOL    HW1 2475   3.456   3.309   2.902
  780SOL    HW2 2476   3.384   3.190   2.843
  781SOL     OW 2477   1.072   2.355   1.433
  781SOL    HW1 2478   0.996   2.328   1.381
  781SOL    HW2 2479   1.072   2.451   1.426
  782SOL     OW 2480   3.309   0.545   0.710
  782SOL    HW1 2481   3.228   0.496   0.696
  782SOL    HW2 2482   3.284   0.637   0.697
  783SOL     OW 2483   2.589   2.550   3.879
  783SOL    HW1 2484   2.517   2.589   3.829
  783SOL    HW2 2485   2.570   2.456   3.878
  784SOL     OW 2486   2.453   0.359   3.592
  784SOL    HW1 2487   2.505   0.407   3.657
  784SOL    HW2 2488   2.485   0.269   3.597
  785SOL     OW 2489   0.648   2.166   1.862
  785SOL    HW1 2490   0.674   2.116   1.785
  785SOL    HW2 2491   0.722   2.158   1.922
  786SOL     OW 2492   0.842   3.372   3.199
  786SOL    HW1 2493   0.812   3.412   3.280
  786SOL    HW2 2494   0.840   3.443   3.134
  787SOL     OW 2495   2.848   3.617   2.263
  787SOL    HW1 2496   2.825   3.588   2.174
  787SOL    HW2 2497   2.764   3.629   2.307
  788SOL     OW 2498   3.022   3.492   1.415
  788SOL    HW1 2499   2.973   3.448   1.346
  788SOL    HW2 2500   3.110   3.505   1.378
  789SOL     OW 2501   2.700   3.507   0.966
  789SOL    HW1 2502   2.607   3.488   0.957
  789SOL    HW2 2503   2.729   3.452   1.039
  790SOL     OW 2504   1.263   1.649   0.671
  790SOL    HW1 2505   1.195   1.715   0.656
  790SOL    HW2 2506   1.318   1.686   0.740
  791SOL     OW 2507   0.510   2.680   3.588
  791SOL    HW1 2508   0.432   2.722   3.553
  791SOL    HW2 2509   0.549   2.635   3.513
  792SOL     OW 2510   2.055   3.301   2.016
  792SOL    HW1 2511   2.005   3.373   2.053
  792SOL    HW2 2512   2.093   3.256   2.091
  793SOL     OW 2513   1.535   1.607   0.020
  793SOL    HW1 2514   1.494   1.647   0.097
  793SOL    HW2 2515   1.625   1.589   0.047
  794SOL     OW 2516   2.261   0.754   0.658
  794SOL    HW1 2517   2.343   0.708   0.679
  794SOL    HW2 2518   2.249   0.740   0.565
  795SOL     OW 2519   2.431   3.418   3.555
  795SOL    HW1 2520   2.402   3.507   3.576
  795SOL    HW2 2521   2.501   3.431   3.490
  796SOL     OW 2522   0.349   1.680   2.895
  796SOL    HW1 2523   0.283   1.616   2.869
  796SOL    HW2 2524   0.418   1.672   2.828
  797SOL     OW 2525   3.146   3.560   3.838
  797SOL    HW1 2526   3.241   3.564   3.832
  797SOL    HW2 2527   3.120   3.648   3.866
  798SOL     OW 2528   3.696   3.416   3.504
  798SOL    HW1 2529   3.669   3.411   3.596
  798SOL    HW2 2530   3.743   3.498   3.497
  799SOL     OW 2531   0.871   1.606   3.718
  799SOL    HW1 2532   0.923   1.591   3.638
  799SOL    HW2 2533   0.782   1.622   3.686
  800SOL     OW 2534   1.932   2.541   3.689
  800SOL    HW1 2535   1.932   2.636   3.697
  800SOL    HW2 2536   2.023   2.519   3.670
  801SOL     OW 2537   0.169   1.600   1.489
  801SOL    HW1 2538   0.246   1.573   1.439
  801SOL    HW2 2539   0.169   1.543   1.566
  802SOL     OW 2540   1.914   3.635   3.857
  802SOL    HW1 2541   2.005   3.607   3.851
  802SOL    HW2 2542   1.863   3.556   3.838
  803SOL     OW 2543   3.640   2.711   2.142
  803SOL    HW1 2544   3.658   2.717   2.048
  803SOL    HW2 2545   3.727   2.711   2.183
  804SOL     OW 2546   2.997   1.268   3.434
  804SOL    HW1 2547   2.949   1.345   3.463
  804SOL    HW2 2548   2.931   1.211   3.395
  805SOL     OW 2549   2.775   0.470   1.710
  805SOL    HW1 2550   2.835   0.512   1.649
  805SOL    HW2 2551   2.724   0.542   1.748
  806SOL     OW 2552   3.946   2.177   0.686
  806SOL    HW1 2553   3.997   2.105   0.725
  806SOL    HW2 2554   3.909   2.224   0.761
  807SOL     OW 2555   2.586   0.439   3.363
  807SOL    HW1 2556   2.592   0.534   3.369
  807SOL    HW2 2557   2.512   0.417   3.420
  808SOL     OW 2558   2.910   2.902   0.457
  808SOL    HW1 2559   2.852   2.975   0.478
  808SOL    HW2 2560   2.904   2.893   0.362
  809SOL     OW 2561   0.300   0.911   2.913
  809SOL    HW1 2562   0.224   0.960   2.882
  809SOL    HW2 2563   0.267   0.860   2.987
  810SOL     OW 2564   1.744   1.271   0.239
  810SOL    HW1 2565   1.675   1.234   0.294
  810SOL    HW2 2566   1.815   1.208   0.244
  811SOL     OW 2567   3.282   0.887   2.157
  811SOL    HW1 2568   3.215   0.951   2.183
  811SOL    HW2 2569   3.303   0.911   2.066
  812SOL     OW 2570   3.505   1.806   0.614
  812SOL    HW1 2571   3.578   1.856   0.650
  812SOL    HW2 2572   3.433   1.819   0.676
  813SOL     OW 2573   2.498   2.035   2.884
  813SOL    HW1 2574   2.434   2.049   2.815
  813SOL    HW2 2575   2.577   2.081   2.854
  814SOL     OW 2576   2.712   2.216   3.456
  814SOL    HW1 2577   2.792   2.169   3.436
  814SOL    HW2 2578   2.653   2.150   3.492
  815SOL     OW 2579   0.509   0.477   3.375
  815SOL    HW1 2580   0.434   0.460   3.319
  815SOL    HW2 2581   0.564   0.537   3.326
  816SOL     OW 2582   3.387   0.658   2.208
  816SOL    HW1 2583   3.310   0.600   2.207
  816SOL    HW2 2584   3.352   0.744   2.183
  817SOL     OW 2585   0.496   3.711   0.137
  817SOL    HW1 2586   0.444   3.647   0.185
  817SOL    HW2 2587   0.582   3.709   0.180
  818SOL     OW 2588   0.994   0.493   0.626
  818SOL    HW1 2589   0.947   0.427   0.574
  818SOL    HW2 2590   0.934   0.568   0.628
  819SOL     OW 2591   0.580   3.775   2.123
  819SOL    HW1 2592   0.570   3.836   2.051
  819SOL    HW2 2593   0.574   3.829   2.202
  820SOL     OW 2594   1.075   2.698   3.852
  820SOL    HW1 2595   0.987   2.675   3.880
  820SOL    HW2 2596   1.105   2.762   3.916
  821SOL     OW 2597   0.125   0.146   1.090
  821SOL    HW1 2598   0.140   0.082   1.159
  821SOL    HW2 2599   0.213   0.169   1.059
  822SOL     OW 2600   2.764   1.658   3.711
  822SOL    HW1 2601   2.740   1.566   3.699
  822SOL    HW2 2602   2.680   1.703   3.720
  823SOL     OW 2603   2.418   2.452   1.849
  823SOL    HW1 2604   2.486   2.498   1.899
  823SOL    HW2 2605   2.452   2.363   1.840
  824SOL     OW 2606   3.106   3.603   2.630
  824SOL    HW1 2607   3.098   3.599   2.534
  824SOL    HW2 2608   3.189   3.558   2.649
  825SOL     OW 2609   3.025   1.803   2.103
  825SOL    HW1 2610   2.974   1.881   2.083
  825SOL    HW2 2611   2.962   1.739   2.133
  826SOL     OW 2612   3.782   1.327   1.858
  826SOL    HW1 2613   3.859   1.383   1.869
  826SOL    HW2 2614   3.767   1.327   1.763
  827SOL     OW 2615   0.181   0.200   3.877
  827SOL    HW1 2616   0.263   0.241   3.847
  827SOL    HW2 2617   0.152   0.254   3.950
  828SOL     OW 2618   2.757   0.205   1.847
  828SOL    HW1 2619   2.762   0.292   1.806
  828SOL    HW2 2620   2.671   0.172   1.822
  829SOL     OW 2621   3.538   2.378   3.035
  829SOL    HW1 2622   3.523   2.453   3.093
  829SOL    HW2 2623   3.594   2.320   3.086
  830SOL     OW 2624   3.596   2.965   0.056
  830SOL    HW1 2625   3.546   3.004   0.127
  830SOL    HW2 2626   3.656   3.033   0.027
  831SOL     OW 2627   2.605   0.854   2.485
  831SOL    HW1 2628   2.517   0.853   2.448
  831SOL    HW2 2629   2.611   0.939   2.530
  832SOL     OW 2630   1.246   2.147   1.420
  832SOL    HW1 2631   1.190   2.224   1.429
  832SOL    HW2 2632   1.332   2.176   1.451
  833SOL     OW 2633   3.251   3.444   0.643
  833SOL    HW1 2634   3.302   3.490   0.577
  833SOL    HW2 2635   3.303   3.367   0.664
  834SOL     OW 2636   3.081   2.473   0.093
  834SOL    HW1 2637   3.169   2.450   0.061
  834SOL    HW2 2638   3.035   2.503   0.015
  835SOL     OW 2639   2.666   0.601   2.804
  835SOL    HW1 2640   2.666   0.590   2.899
  835SOL    HW2 2641   2.742   0.551   2.774
  836SOL     OW 2642   3.922   3.833   2.071
  836SOL    HW1 2643   4.004   3.882   2.077
  836SOL    HW2 2644   3.899   3.836   1.978
  837SOL     OW 2645   2.396   0.791   0.256
  837SOL    HW1 2646   2.372   0.870   0.305
  837SOL    HW2 2647   2.397   0.722   0.322
  838SOL     OW 2648   3.168   2.470   1.000
  838SOL    HW1 2649   3.138   2.447   0.912
  838SOL    HW2 2650   3.107   2.538   1.029
  839SOL     OW 2651   1.526   1.250   2.672
  839SOL    HW1 2652   1.520   1.254   2.767
  839SOL    HW2 2653   1.458   1.187   2.647
  840SOL     OW 2654   0.587   0.389   1.395
  840SOL    HW1 2655   0.635   0.333   1.456
  840SOL    HW2 2656   0.549   0.329   1.331
  841SOL     OW 2657   3.372   1.448   2.754
  841SOL    HW1 2658   3.418   1.524   2.719
  841SOL    HW2 2659   3.349   1.472   2.844
  842SOL     OW 2660   3.789   1.675   3.247
  842SOL    HW1 2661   3.829   1.630   3.172
  842SOL    HW2 2662   3.856   1.736   3.276
  843SOL     OW 2663   1.631   0.804   0.791
  843SOL    HW1 2664   1.586   0.746   0.852
  843SOL    HW2 2665   1.693   0.747   0.745
  844SOL     OW 2666   0.685   3.621   2.729
  844SOL    HW1 2667   0.598   3.583   2.740
  844SOL    HW2 2668   0.669   3.715   2.718
  845SOL     OW 2669   3.084   1.428   3.880
  845SOL    HW1 2670   3.074   1.439   3.975
  845SOL    HW2 2671   3.113   1.514   3.849
  846SOL     OW 2672   1.585   3.937   3.785
  846SOL    HW1 2673   1.660   3.994   3.803
  846SOL    HW2 2674   1.580   3.879   3.861
  847SOL     OW 2675   1.706   3.319   2.699
  847SOL    HW1 2676   1.615   3.348   2.694
  847SOL    HW2 2677   1.711   3.245   2.639
  848SOL     OW 2678   2.081   0.056   1.012
  848SOL    HW1 2679   2.092  -0.030   1.052
  848SOL    HW2 2680   1.994   0.052   0.972
  849SOL     OW 2681   1.135   2.204   2.592
  849SOL    HW1 2682   1.177   2.283   2.625
  849SOL    HW2 2683   1.068   2.236   2.532
  850SOL     OW 2684   0.486   0.171   0.069
  850SOL    HW1 2685   0.548   0.148   0.139
  850SOL    HW2 2686   0.534   0.152  -0.011
  851SOL     OW 2687   2.339   0.627   1.471
  851SOL    HW1 2688   2.361   0.673   1.552
  851SOL    HW2 2689   2.286   0.553   1.499
  852SOL     OW 2690   3.180   1.596   0.569
  852SOL    HW1 2691   3.221   1.608   0.654
  852SOL    HW2 2692   3.172   1.501   0.559
  853SOL     OW 2693   0.071   1.625   0.123
  853SOL    HW1 2694   0.010   1.683   0.168
  853SOL    HW2 2695   0.016   1.565   0.073
  854SOL     OW 2696   2.262   1.267   1.402
  854SOL    HW1 2697   2.179   1.244   1.360
  854SOL    HW2 2698   2.240   1.344   1.455
  855SOL     OW 2699   0.566   1.005   2.974
  855SOL    HW1 2700   0.537   1.077   3.031
  855SOL    HW2 2701   0.487   0.954   2.958
  856SOL     OW 2702   3.479   0.853   1.569
  856SOL    HW1 2703   3.563   0.813   1.594
  856SOL    HW2 2704   3.481   0.940   1.608
  857SOL     OW 2705   1.926   0.741   1.059
  857SOL    HW1 2706   1.954   0.743   1.150
  857SOL    HW2 2707   2.000   0.778   1.010
  858SOL     OW 2708   3.159   2.450   1.629
  858SOL    HW1 2709   3.226   2.506   1.589
  858SOL    HW2 2710   3.198   2.425   1.713
  859SOL     OW 2711   2.513   1.043   3.792
  859SOL    HW1 2712   2.533   0.972   3.730
  859SOL    HW2 2713   2.561   1.118   3.757
  860SOL     OW 2714   1.430   0.314   0.422
  860SOL    HW1 2715   1.496   0.379   0.399
  860SOL    HW2 2716   1.353   0.339   0.370
  861SOL     OW 2717   3.919   3.857   2.857
  861SOL    HW1 2718   3.893   3.935   2.807
  861SOL    HW2 2719   4.011   3.870   2.876
  862SOL     OW 2720   2.960   2.021   3.349
  862SOL    HW1 2721   2.928   1.979   3.428
  862SOL    HW2 2722   3.014   1.954   3.306
  863SOL     OW 2723   0.511   1.158   1.500
  863SOL    HW1 2724   0.443   1.098   1.469
  863SOL    HW2 2725   0.586   1.101   1.520
  864SOL     OW 2726   2.291   2.395   3.281
  864SOL    HW1 2727   2.304   2.309   3.239
  864SOL    HW2 2728   2.221   2.381   3.344
  865SOL     OW 2729   2.378   1.784   2.872
  865SOL    HW1 2730   2.353   1.772   2.964
  865SOL    HW2 2731   2.448   1.850   2.875
  866SOL     OW 2732   0.971   3.810   2.599
  866SOL    HW1 2733   0.995   3.802   2.692
  866SOL    HW2 2734   1.054   3.826   2.554
  867SOL     OW 2735   2.325   1.190   1.064
  867SOL    HW1 2736   2.264   1.127   1.103
  867SOL    HW2 2737   2.407   1.142   1.057
  868SOL     OW 2738   3.476   2.393   3.534
  868SOL    HW1 2739   3.514   2.467   3.487
  868SOL    HW2 2740   3.390   2.424   3.562
  869SOL     OW 2741   3.079   3.584   1.977
  869SOL    HW1 2742   3.099   3.556   1.888
  869SOL    HW2 2743   3.069   3.679   1.970
  870SOL     OW 2744   1.918   3.886   1.379
  870SOL    HW1 2745   1.993   3.847   1.334
  870SOL    HW2 2746   1.848   3.886   1.313
  871SOL     OW 2747   1.555   2.658   0.124
  871SOL    HW1 2748   1.603   2.664   0.207
  871SOL    HW2 2749   1.584   2.575   0.086
  872SOL     OW 2750   2.562   3.088   0.956
  872SOL    HW1 2751   2.512   3.145   0.897
  872SOL    HW2 2752   2.586   3.013   0.901
  873SOL     OW 2753   1.082   2.666   2.480
  873SOL    HW1 2754   1.006   2.725   2.482
  873SOL    HW2 2755   1.044   2.579   2.476
  874SOL     OW 2756   3.362   1.150   0.587
  874SOL    HW1 2757   3.401   1.126   0.671
  874SOL    HW2 2758   3.398   1.237   0.569
  875SOL     OW 2759   3.195   2.259   3.303
  875SOL    HW1 2760   3.238   2.184   3.343
  875SOL    HW2 2761   3.189   2.324   3.372
  876SOL     OW 2762   3.374   1.556   1.421
  876SOL    HW1 2763   3.322   1.515   1.352
  876SOL    HW2 2764   3.318   1.627   1.454
  877SOL     OW 2765   0.330   0.547   0.743
  877SOL    HW1 2766   0.410   0.499   0.723
  877SOL    HW2 2767   0.273   0.482   0.785
  878SOL     OW 2768   2.359   1.352   1.953
  878SOL    HW1 2769   2.416   1.291   1.906
  878SOL    HW2 2770   2.296   1.381   1.887
  879SOL     OW 2771   0.859   1.336   2.942
  879SOL    HW1 2772   0.893   1.424   2.934
  879SOL    HW2 2773   0.898   1.288   2.869
  880SOL     OW 2774   2.852   1.794   1.774
  880SOL    HW1 2775   2.935   1.838   1.756
  880SOL    HW2 2776   2.817   1.772   1.687
  881SOL     OW 2777   2.592   2.707   1.917
  881SOL    HW1 2778   2.658   2.653   1.961
  881SOL    HW2 2779   2.642   2.766   1.862
  882SOL     OW 2780   0.143   1.507   3.282
  882SOL    HW1 2781   0.154   1.416   3.308
  882SOL    HW2 2782   0.066   1.507   3.226
  883SOL     OW 2783   0.274   2.047   2.656
  883SOL    HW1 2784   0.288   2.133   2.617
  883SOL    HW2 2785   0.251   2.066   2.747
  884SOL     OW 2786   2.263   1.207   0.311
  884SOL    HW1 2787   2.321   1.219   0.235
  884SOL    HW2 2788   2.291   1.123   0.349
  885SOL     OW 2789   0.924   1.571   0.412
  885SOL    HW1 2790   0.926   1.658   0.453
  885SOL    HW2 2791   0.870   1.582   0.334
  886SOL     OW 2792   2.431   3.545   0.656
  886SOL    HW1 2793   2.399   3.511   0.739
  886SOL    HW2 2794   2.511   3.494   0.638
  887SOL     OW 2795   2.486   2.101   3.963
  887SOL    HW1 2796   2.439   2.024   3.995
  887SOL    HW2 2797   2.445   2.121   3.878
  888SOL     OW 2798   0.684   2.722   0.604
  888SOL    HW1 2799   0.695   2.643   0.551
  888SOL    HW2 2800   0.604   2.705   0.655
  889SOL     OW 2801   0.283   3.838   2.852
  889SOL    HW1 2802   0.324   3.828   2.938
  889SOL    HW2 2803   0.356   3.855   2.793
  890SOL     OW 2804   1.652   2.701   2.993
  890SOL    HW1 2805   1.616   2.789   3.001
  890SOL    HW2 2806   1.665   2.689   2.899
  891SOL     OW 2807   3.874   2.789   0.369
  891SOL    HW1 2808   3.922   2.762   0.291
  891SOL    HW2 2809   3.846   2.879   0.350
  892SOL     OW 2810   0.786   0.447   1.136
  892SOL    HW1 2811   0.743   0.455   1.221
  892SOL    HW2 2812   0.744   0.371   1.096
  893SOL     OW 2813   3.012   1.381   0.719
  893SOL    HW1 2814   2.931   1.336   0.744
  893SOL    HW2 2815   3.049   1.327   0.650
  894SOL     OW 2816   1.672   0.490   3.990
  894SOL    HW1 2817   1.735   0.488   3.918
  894SOL    HW2 2818   1.599   0.435   3.960
  895SOL     OW 2819   0.880   0.218   0.534
  895SOL    HW1 2820   0.807   0.170   0.572
  895SOL    HW2 2821   0.956   0.192   0.587
  896SOL     OW 2822   0.664   2.347   3.491
  896SOL    HW1 2823   0.738   2.363   3.549
  896SOL    HW2 2824   0.588   2.341   3.549
  897SOL     OW 2825   1.209   0.198   0.922
  897SOL    HW1 2826   1.212   0.249   1.003
  897SOL    HW2 2827   1.293   0.153   0.919
  898SOL     OW 2828   1.905   1.442   0.750
  898SOL    HW1 2829   1.959   1.507   0.706
  898SOL    HW2 2830   1.947   1.430   0.836
  899SOL     OW 2831   2.171   3.331   3.560
  899SOL    HW1 2832   2.254   3.379   3.562
  899SOL    HW2 2833   2.123   3.363   3.636
  900SOL     OW 2834   3.647   0.849   1.283
  900SOL    HW1 2835   3.699   0.859   1.364
  900SOL    HW2 2836   3.565   0.895   1.301
  901SOL     OW 2837   2.361   3.822   2.128
  901SOL    HW1 2838   2.417   3.821   2.206
  901SOL    HW2 2839   2.324   3.734   2.123
  902SOL     OW 2840   0.860   1.620   1.625
  902SOL    HW1 2841   0.846   1.643   1.717
  902SOL    HW2 2842   0.892   1.530   1.628
  903SOL     OW 2843   2.151   3.531   3.005
  903SOL    HW1 2844   2.130   3.445   2.967
  903SOL    HW2 2845   2.132   3.593   2.935
  904SOL     OW 2846   3.602   3.846   2.493
  904SOL    HW1 2847   3.679   3.800   2.461
  904SOL    HW2 2848   3.636   3.908   2.558
  905SOL     OW 2849   1.713   3.536   2.179
  905SOL    HW1 2850   1.803   3.516   2.152
  905SOL    HW2 2851   1.719   3.622   2.222
  906SOL     OW 2852   0.075   3.496   1.180
  906SOL    HW1 2853   0.115   3.445   1.251
  906SOL    HW2 2854   0.005   3.440   1.148
  907SOL     OW 2855   0.597   0.388   0.763
  907SOL    HW1 2856   0.689   0.369   0.748
  907SOL    HW2 2857   0.584   0.371   0.857
  908SOL     OW 2858   0.677   3.606   1.808
  908SOL    HW1 2859   0.713   3.530   1.852
  908SOL    HW2 2860   0.616   3.570   1.743
  909SOL     OW 2861   0.901   2.460   0.008
  909SOL    HW1 2862   0.960   2.393   0.041
  909SOL    HW2 2863   0.853   2.490   0.085
  910SOL     OW 2864   1.912   1.174   1.540
  910SOL    HW1 2865   1.830   1.217   1.564
  910SOL    HW2 2866   1.952   1.151   1.624
  911SOL     OW 2867   0.832   0.285   2.252
  911SOL    HW1 2868   0.835   0.356   2.317
  911SOL    HW2 2869   0.872   0.210   2.296
  912SOL     OW 2870   2.155   0.493   3.924
  912SOL    HW1 2871   2.240   0.450   3.916
  912SOL    HW2 2872   2.114   0.452   4.000
  913SOL     OW 2873   1.278   1.172   1.026
  913SOL    HW1 2874   1.252   1.235   1.093
  913SOL    HW2 2875   1.373   1.163   1.038
  914SOL     OW 2876   2.776   2.354   2.831
  914SOL    HW1 2877   2.828   2.434   2.825
  914SOL    HW2 2878   2.744   2.340   2.742
  915SOL     OW 2879   1.677   0.297   1.633
  915SOL    HW1 2880   1.724   0.215   1.649
  915SOL    HW2 2881   1.722   0.335   1.557
  916SOL     OW 2882   3.897   0.625   2.080
  916SOL    HW1 2883   3.831   0.680   2.122
  916SOL    HW2 2884   3.845   0.560   2.031
  917SOL     OW 2885   0.374   0.625   0.280
  917SOL    HW1 2886   0.423   0.587   0.207
  917SOL    HW2 2887   0.354   0.714   0.251
  918SOL     OW 2888   1.712   1.860   3.692
  918SOL    HW1 2889   1.790   1.867   3.637
  918SOL    HW2 2890   1.743   1.880   3.780
  919SOL     OW 2891   0.170   2.311   0.211
  919SOL    HW1 2892   0.228   2.257   0.157
  919SOL    HW2 2893   0.128   2.370   0.149
  920SOL     OW 2894   0.427   1.528   1.947
  920SOL    HW1 2895   0.334   1.548   1.949
  920SOL    HW2 2896   0.470   1.611   1.968
  921SOL     OW 2897   2.210   3.551   3.281
  921SOL    HW1 2898   2.145   3.594   3.336
  921SOL    HW2 2899   2.183   3.570   3.191
  922SOL     OW 2900   2.794   0.373   0.603
  922SOL    HW1 2901   2.869   0.317   0.583
  922SOL    HW2 2902   2.761   0.340   0.686
  923SOL     OW 2903   1.134   1.642   2.056
  923SOL    HW1 2904   1.127   1.725   2.010
  923SOL    HW2 2905   1.080   1.582   2.005
  924SOL     OW 2906   3.482   3.534   2.326
  924SOL    HW1 2907   3.390   3.535   2.301
  924SOL    HW2 2908   3.503   3.626   2.343
  925SOL     OW 2909   0.866   1.978   0.148
  925SOL    HW1 2910   0.819   1.901   0.181
  925SOL    HW2 2911   0.917   1.946   0.075
  926SOL     OW 2912   3.371   3.773   0.415
  926SOL    HW1 2913   3.368   3.855   0.463
  926SOL    HW2 2914   3.307   3.784   0.344
  927SOL     OW 2915   1.206   1.481   2.973
  927SOL    HW1 2916   1.189   1.389   2.950
  927SOL    HW2 2917   1.236   1.520   2.892
  928SOL     OW 2918   0.950   0.045   2.314
  928SOL    HW1 2919   0.877  -0.012   2.338
  928SOL    HW2 2920   1.023  -0.015   2.300
  929SOL     OW 2921   1.170   1.012   1.414
  929SOL    HW1 2922   1.238   0.952   1.444
  929SOL    HW2 2923   1.208   1.099   1.425
  930SOL     OW 2924   2.098   1.389   2.958
  930SOL    HW1 2925   2.032   1.432   3.013
  930SOL    HW2 2926   2.153   1.460   2.926
  931SOL     OW 2927   3.206   2.038   2.946
  931SOL    HW1 2928   3.245   2.087   3.018
  931SOL    HW2 2929   3.236   2.083   2.867
  932SOL     OW 2930   1.432   2.629   2.423
  932SOL    HW1 2931   1.377   2.575   2.479
  932SOL    HW2 2932   1.419   2.719   2.456
  933SOL     OW 2933   0.401   2.446   1.260
  933SOL    HW1 2934   0.409   2.390   1.183
  933SOL    HW2 2935   0.389   2.386   1.333
  934SOL     OW 2936   2.289   3.953   3.902
  934SOL    HW1 2937   2.310   3.895   3.975
  934SOL    HW2 2938   2.206   3.994   3.927
  935SOL     OW 2939   1.005   2.196   1.037
  935SOL    HW1 2940   0.988   2.253   1.113
  935SOL    HW2 2941   1.061   2.126   1.072
  936SOL     OW 2942   3.053   3.392   3.552
  936SOL    HW1 2943   3.137   3.403   3.507
  936SOL    HW2 2944   3.016   3.480   3.556
  937SOL     OW 2945   2.171   1.547   1.503
  937SOL    HW1 2946   2.080   1.518   1.517
  937SOL    HW2 2947   2.196   1.591   1.584
  938SOL     OW 2948   3.858   1.633   1.480
  938SOL    HW1 2949   3.857   1.728   1.496
  938SOL    HW2 2950   3.951   1.610   1.475
  939SOL     OW 2951   2.441   1.025   2.079
  939SOL    HW1 2952   2.392   1.104   2.100
  939SOL    HW2 2953   2.509   1.020   2.147
  940SOL     OW 2954   3.695   0.578   0.257
  940SOL    HW1 2955   3.692   0.525   0.337
  940SOL    HW2 2956   3.764   0.538   0.204
  941SOL     OW 2957   0.565   1.864   0.065
  941SOL    HW1 2958   0.595   1.836  -0.022
  941SOL    HW2 2959   0.494   1.804   0.087
  942SOL     OW 2960   2.402   0.737   3.283
  942SOL    HW1 2961   2.364   0.702   3.363
  942SOL    HW2 2962   2.337   0.800   3.251
  943SOL     OW 2963   3.377   0.696   1.024
  943SOL    HW1 2964   3.295   0.648   1.033
  943SOL    HW2 2965   3.429   0.670   1.100
  944SOL     OW 2966   1.448   1.703   0.272
  944SOL    HW1 2967   1.411   1.674   0.355
  944SOL    HW2 2968   1.486   1.788   0.291
  945SOL     OW 2969   0.492   0.775   2.758
  945SOL    HW1 2970   0.452   0.691   2.778
  945SOL    HW2 2971   0.428   0.840   2.787
  946SOL     OW 2972   3.039   2.323   1.947
  946SOL    HW1 2973   2.965   2.270   1.978
  946SOL    HW2 2974   3.017   2.412   1.972
  947SOL     OW 2975   1.104   1.453   0.917
  947SOL    HW1 2976   1.020   1.414   0.892
  947SOL    HW2 2977   1.157   1.378   0.945
  948SOL     OW 2978   1.474   0.197   1.780
  948SOL    HW1 2979   1.495   0.113   1.739
  948SOL    HW2 2980   1.548   0.253   1.760
  949SOL     OW 2981   2.679   3.879   1.968
  949SOL    HW1 2982   2.659   3.896   1.876
  949SOL    HW2 2983   2.635   3.950   2.015
  950SOL     OW 2984   1.679   0.929   1.366
  950SOL    HW1 2985   1.708   0.884   1.445
  950SOL    HW2 2986   1.679   0.861   1.298
  951SOL     OW 2987   2.724   0.516   2.186
  951SOL    HW1 2988   2.629   0.508   2.199
  951SOL    HW2 2989   2.742   0.460   2.111
  952SOL     OW 2990   1.453   2.551   0.804
  952SOL    HW1 2991   1.438   2.482   0.869
  952SOL    HW2 2992   1.535   2.592   0.831
  953SOL     OW 2993   2.786   2.445   3.140
  953SOL    HW1 2994   2.724   2.377   3.166
  953SOL    HW2 2995   2.841   2.403   3.073
  954SOL     OW 2996   1.211   3.648   1.684
  954SOL    HW1 2997   1.292   3.614   1.645
  954SOL    HW2 2998   1.210   3.741   1.659
  955SOL     OW 2999   0.704   3.009   1.954
  955SOL    HW1 3000   0.642   3.078   1.930
  955SOL    HW2 3001   0.725   3.027   2.046
  956SOL     OW 3002   2.750   2.907   1.830
  956SOL    HW1 3003   2.750   2.997   1.864
  956SOL    HW2 3004   2.814   2.908   1.759
  957SOL     OW 3005   0.146   1.744   0.774
  957SOL    HW1 3006   0.138   1.831   0.812
  957SOL    HW2 3007   0.239   1.724   0.777
  958SOL     OW 3008   2.560   3.975   3.858
  958SOL    HW1 3009   2.467   3.975   3.880
  958SOL    HW2 3010   2.599   3.913   3.919
  959SOL     OW 3011   2.128   2.695   3.414
  959SOL    HW1 3012   2.211   2.660   3.448
  959SOL    HW2 3013   2.123   2.662   3.324
  960SOL     OW 3014   0.592   3.499   3.844
  960SOL    HW1 3015   0.679   3.462   3.864
  960SOL    HW2 3016   0.592   3.508   3.749
  961SOL     OW 3017   2.961   3.386   0.643
  961SOL    HW1 3018   3.048   3.417   0.667
  961SOL    HW2 3019   2.969   3.360   0.551
  962SOL     OW 3020   2.602   1.945   3.109
  962SOL    HW1 3021   2.655   1.881   3.061
  962SOL    HW2 3022   2.556   1.994   3.041
  963SOL     OW 3023   0.100   2.276   2.479
  963SOL    HW1 3024   0.191   2.283   2.508
  963SOL    HW2 3025   0.052   2.243   2.555
  964SOL     OW 3026   2.810   0.115   3.858
  964SOL    HW1 3027   2.723   0.076   3.846
  964SOL    HW2 3028   2.868   0.040   3.872
  965SOL     OW 3029   2.873   0.451   2.692
  965SOL    HW1 3030   2.894   0.457   2.599
  965SOL    HW2 3031   2.943   0.396   2.729
  966SOL     OW 3032   0.250   0.969   3.805
  966SOL    HW1 3033   0.332   0.930   3.774
  966SOL    HW2 3034   0.275   1.058   3.831
  967SOL     OW 3035   1.754   1.791   3.123
  967SOL    HW1 3036   1.763   1.884   3.102
  967SOL    HW2 3037   1.681   1.761   3.068
  968SOL     OW 3038   2.730   1.896   0.298
  968SOL    HW1 3039   2.685   1.906   0.381
  968SOL    HW2 3040   2.769   1.982   0.281
  969SOL     OW 3041   0.737   0.382   1.715
  969SOL    HW1 3042   0.821   0.405   1.755
  969SOL    HW2 3043   0.713   0.459   1.664
  970SOL     OW 3044   2.553   0.746   0.812
  970SOL    HW1 3045   2.512   0.795   0.883
  970SOL    HW2 3046   2.558   0.656   0.844
  971SOL     OW 3047   1.621   0.102   2.779
  971SOL    HW1 3048   1.644   0.134   2.867
  971SOL    HW2 3049   1.656   0.168   2.720
  972SOL     OW 3050   1.817   3.756   1.812
  972SOL    HW1 3051   1.861   3.672   1.804
  972SOL    HW2 3052   1.782   3.774   1.725
  973SOL     OW 3053   2.181   2.645   3.912
  973SOL    HW1 3054   2.211   2.709   3.847
  973SOL    HW2 3055   2.222   2.563   3.885
  974SOL     OW 3056   3.556   1.104   0.805
  974SOL    HW1 3057   3.563   1.038   0.875
  974SOL    HW2 3058   3.638   1.153   0.810
  975SOL     OW 3059   1.150   0.218   0.638
  975SOL    HW1 3060   1.191   0.205   0.723
  975SOL    HW2 3061   1.216   0.265   0.586
  976SOL     OW 3062   0.523   2.965   0.644
  976SOL    HW1 3063   0.530   3.005   0.731
  976SOL    HW2 3064   0.580   2.888   0.648
  977SOL     OW 3065   1.779   3.839   2.699
  977SOL    HW1 3066   1.790   3.763   2.756
  977SOL    HW2 3067   1.713   3.892   2.743
  978SOL     OW 3068   2.710   2.795   3.642
  978SOL    HW1 3069   2.628   2.816   3.598
  978SOL    HW2 3070   2.746   2.721   3.592
  979SOL     OW 3071   0.225   0.880   1.762
  979SOL    HW1 3072   0.309   0.925   1.753
  979SOL    HW2 3073   0.224   0.852   1.854
  980SOL     OW 3074   3.125   0.701   3.482
  980SOL    HW1 3075   3.034   0.670   3.472
  980SOL    HW2 3076   3.121   0.761   3.557
  981SOL     OW 3077   0.352   2.989   2.122
  981SOL    HW1 3078   0.367   3.080   2.148
  981SOL    HW2 3079   0.296   2.953   2.191
  982SOL     OW 3080   1.859   2.614   2.138
  982SOL    HW1 3081   1.921   2.686   2.151
  982SOL    HW2 3082   1.904   2.554   2.079
  983SOL     OW 3083   2.734   1.194   3.241
  983SOL    HW1 3084   2.666   1.182   3.174
  983SOL    HW2 3085   2.746   1.106   3.279
  984SOL     OW 3086   2.123   3.044   0.033
  984SOL    HW1 3087   2.034   3.014   0.018
  984SOL    HW2 3088   2.160   2.982   0.096
  985SOL     OW 3089   3.146   2.265   1.403
  985SOL    HW1 3090   3.066   2.319   1.404
  985SOL    HW2 3091   3.205   2.310   1.463
  986SOL     OW 3092   3.837   0.373   0.114
  986SOL    HW1 3093   3.913   0.384   0.171
  986SOL    HW2 3094   3.842   0.281   0.086
  987SOL     OW 3095   3.849   1.028   0.599
  987SOL    HW1 3096   3.759   1.024   0.566
  987SOL    HW2 3097   3.860   1.120   0.625
  988SOL     OW 3098   0.662   2.391   2.955
  988SOL    HW1 3099   0.667   2.332   3.030
  988SOL    HW2 3100   0.582   2.365   2.909
  989SOL     OW 3101   3.836   0.209   0.991
  989SOL    HW1 3102   3.910   0.159   1.023
  989SOL    HW2 3103   3.761   0.176   1.041
  990SOL     OW 3104   1.726   1.346   1.790
  990SOL    HW1 3105   1.812   1.385   1.803
  990SOL    HW2 3106   1.708   1.299   1.871
  991SOL     OW 3107   1.887   1.515   1.243
  991SOL    HW1 3108   1.827   1.578   1.204
  991SOL    HW2 3109   1.869   1.519   1.337
  992SOL     OW 3110   3.131   1.936   1.100
  992SOL    HW1 3111   3.180   2.017   1.118
  992SOL    HW2 3112   3.064   1.933   1.168
  993SOL     OW 3113   2.569   0.786   0.536
  993SOL    HW1 3114   2.616   0.865   0.513
  993SOL    HW2 3115   2.566   0.786   0.632
  994SOL     OW 3116   2.257   2.779   3.660
  994SOL    HW1 3117   2.303   2.861   3.678
  994SOL    HW2 3118   2.224   2.789   3.571
  995SOL     OW 3119   1.966   1.320   2.727
  995SOL    HW1 3120   1.968   1.400   2.673
  995SOL    HW2 3121   2.026   1.339   2.799
  996SOL     OW 3122   0.148   1.426   2.289
  996SOL    HW1 3123   0.194   1.345   2.313
  996SOL    HW2 3124   0.118   1.461   2.373
  997SOL     OW 3125   2.326   0.163   2.057
  997SOL    HW1 3126   2.370   0.199   2.134
  997SOL    HW2 3127   2.297   0.076   2.085
  998SOL     OW 3128   0.966   3.597   1.833
  998SOL    HW1 3129   1.057   3.616   1.808
  998SOL    HW2 3130   0.914   3.628   1.759
  999SOL     OW 3131   0.999   0.898   3.173
  999SOL    HW1 3132   0.906   0.891   3.192
  999SOL    HW2 3133   1.015   0.837   3.101
 1000SOL     OW 3134   0.779   1.050   0.726
 1000SOL    HW1 3135   0.769   0.991   0.800
 1000SOL    HW2 3136   0.718   1.122   0.744
 1001SOL     OW 3137   1.703   2.892   2.260
 1001SOL    HW1 3138   1.739   2.831   2.195
 1001SOL    HW2 3139   1.688   2.838   2.337
 1002SOL     OW 3140   3.534   1.143   2.475
 1002SOL    HW1 3141   3.469   1.098   2.529
 1002SOL    HW2 3142   3.493   1.150   2.389
 1003SOL     OW 3143   1.423   3.214   2.917
 1003SOL    HW1 3144   1.355   3.202   2.851
 1003SOL    HW2 3145   1.406   3.301   2.954
 1004SOL     OW 3146   0.456   1.194   1.913
 1004SOL    HW1 3147   0.363   1.207   1.931
 1004SOL    HW2 3148   0.487   1.139   1.984
 1005SOL     OW 3149   2.971   0.793   1.010
 1005SOL    HW1 3150   3.022   0.872   0.993
 1005SOL    HW2 3151   2.936   0.769   0.924
 1006SOL     OW 3152   3.023   2.164   0.931
 1006SOL    HW1 3153   2.953   2.203   0.983
 1006SOL    HW2 3154   3.082   2.125   0.996
 1007SOL     OW 3155   2.003   1.156   0.102
 1007SOL    HW1 3156   2.076   1.101   0.131
 1007SOL    HW2 3157   1.944   1.095   0.058
 1008SOL     OW 3158   1.658   1.310   3.473
 1008SOL    HW1 3159   1.570   1.348   3.476
 1008SOL    HW2 3160   1.677   1.301   3.380
 1009SOL     OW 3161   2.508   3.583   3.856
 1009SOL    HW1 3162   2.570   3.516   3.828
 1009SOL    HW2 3163   2.523   3.591   3.950
 1010SOL     OW 3164   1.445   1.760   3.032
 1010SOL    HW1 3165   1.446   1.852   3.057
 1010SOL    HW2 3166   1.378   1.721   3.087
 1011SOL     OW 3167   0.257   3.073   0.090
 1011SOL    HW1 3168   0.339   3.027   0.105
 1011SOL    HW2 3169   0.271   3.160   0.129
 1012SOL     OW 3170   0.688   0.440   0.058
 1012SOL    HW1 3171   0.685   0.510   0.123
 1012SOL    HW2 3172   0.686   0.359   0.111
 1013SOL     OW 3173   2.026   0.089  -0.004
 1013SOL    HW1 3174   2.041   0.138   0.076
 1013SOL    HW2 3175   1.997   0.003   0.026
 1014SOL     OW 3176   3.230   1.675   0.331
 1014SOL    HW1 3177   3.209   1.602   0.388
 1014SOL    HW2 3178   3.146   1.711   0.304
 1015SOL     OW 3179   1.239   3.760   2.463
 1015SOL    HW1 3180   1.203   3.672   2.455
 1015SOL    HW2 3181   1.259   3.786   2.373
 1016SOL     OW 3182   3.412   1.395   1.737
 1016SOL    HW1 3183   3.490   1.425   1.783
 1016SOL    HW2 3184   3.394   1.465   1.674
 1017SOL     OW 3185   3.205   2.134   1.764
 1017SOL    HW1 3186   3.112   2.155   1.757
 1017SOL    HW2 3187   3.244   2.212   1.804
 1018SOL     OW 3188   1.765   3.817   3.339
 1018SOL    HW1 3189   1.845   3.827   3.391
 1018SOL    HW2 3190   1.694   3.829   3.401
 1019SOL     OW 3191   2.163   1.870   1.377
 1019SOL    HW1 3192   2.106   1.874   1.454
 1019SOL    HW2 3193   2.174   1.776   1.361
 1020SOL     OW 3194   0.027   2.460   0.035
 1020SOL    HW1 3195   0.051   2.441  -0.056
 1020SOL    HW2 3196  -0.068   2.457   0.036
 1021SOL     OW 3197   3.838   1.529   2.719
 1021SOL    HW1 3198   3.809   1.507   2.630
 1021SOL    HW2 3199   3.810   1.619   2.732
 1022SOL     OW 3200   2.506   1.992   3.518
 1022SOL    HW1 3201   2.558   1.943   3.454
 1022SOL    HW2 3202   2.418   1.954   3.512
 1023SOL     OW 3203   1.792   2.666   3.339
 1023SOL    HW1 3204   1.721   2.607   3.364
 1023SOL    HW2 3205   1.802   2.724   3.414
 1024SOL     OW 3206   0.378   2.446   3.378
 1024SOL    HW1 3207   0.327   2.525   3.398
 1024SOL    HW2 3208   0.337   2.377   3.430
 1025SOL     OW 3209   3.242   1.757   1.832
 1025SOL    HW1 3210   3.178   1.813   1.877
 1025SOL    HW2 3211   3.258   1.685   1.894
 1026SOL     OW 3212   0.296   3.351   2.728
 1026SOL    HW1 3213   0.234   3.278   2.727
 1026SOL    HW2 3214   0.281   3.395   2.811
 1027SOL     OW 3215   3.137   2.979   1.143
 1027SOL    HW1 3216   3.081   2.968   1.219
 1027SOL    HW2 3217   3.077   2.981   1.069
 1028SOL     OW 3218   0.106   2.455   2.271
 1028SOL    HW1 3219   0.103   2.364   2.302
 1028SOL    HW2 3220   0.187   2.460   2.221
 1029SOL     OW 3221   0.927   3.750   1.076
 1029SOL    HW1 3222   0.918   3.690   1.002
 1029SOL    HW2 3223   1.021   3.758   1.090
 1030SOL     OW 3224   3.535   0.096   1.511
 1030SOL    HW1 3225   3.489   0.144   1.581
 1030SOL    HW2 3226   3.519   0.004   1.532
 1031SOL     OW 3227   3.891   0.633   3.875
 1031SOL    HW1 3228   3.881   0.547   3.834
 1031SOL    HW2 3229   3.915   0.613   3.966
 1032SOL     OW 3230   1.818   3.156   3.406
 1032SOL    HW1 3231   1.858   3.121   3.485
 1032SOL    HW2 3232   1.814   3.081   3.346
 1033SOL     OW 3233   2.308   2.642   1.612
 1033SOL    HW1 3234   2.316   2.668   1.521
 1033SOL    HW2 3235   2.357   2.560   1.619
 1034SOL     OW 3236   2.503   2.759   0.104
 1034SOL    HW1 3237   2.552   2.839   0.084
 1034SOL    HW2 3238   2.546   2.691   0.051
 1035SOL     OW 3239   2.179   3.950   1.677
 1035SOL    HW1 3240   2.157   4.012   1.747
 1035SOL    HW2 3241   2.229   3.881   1.721
 1036SOL     OW 3242   3.469   1.972   1.800
 1036SOL    HW1 3243   3.387   2.020   1.808
 1036SOL    HW2 3244   3.444   1.879   1.802
 1037SOL     OW 3245   2.219   3.924   3.602
 1037SOL    HW1 3246   2.234   4.017   3.589
 1037SOL    HW2 3247   2.227   3.912   3.697
 1038SOL     OW 3248   3.292   2.493   3.154
 1038SOL    HW1 3249   3.343   2.570   3.178
 1038SOL    HW2 3250   3.303   2.432   3.227
 1039SOL     OW 3251   2.424   1.817   1.261
 1039SOL    HW1 3252   2.461   1.731   1.240
 1039SOL    HW2 3253   2.329   1.802   1.265
 1040SOL     OW 3254   1.316   3.636   1.338
 1040SOL    HW1 3255   1.346   3.611   1.426
 1040SOL    HW2 3256   1.335   3.559   1.284
 1041SOL     OW 3257   0.840   1.294   1.458
 1041SOL    HW1 3258   0.881   1.269   1.375
 1041SOL    HW2 3259   0.773   1.357   1.434
 1042SOL     OW 3260   2.607   0.478   3.065
 1042SOL    HW1 3261   2.681   0.422   3.042
 1042SOL    HW2 3262   2.556   0.426   3.127
 1043SOL     OW 3263   3.707   3.518   0.775
 1043SOL    HW1 3264   3.791   3.564   0.770
 1043SOL    HW2 3265   3.655   3.556   0.704
 1044SOL     OW 3266   2.447   0.180   1.794
 1044SOL    HW1 3267   2.384   0.187   1.866
 1044SOL    HW2 3268   2.393   0.159   1.717
 1045SOL     OW 3269   0.853   0.963   0.481
 1045SOL    HW1 3270   0.761   0.949   0.459
 1045SOL    HW2 3271   0.851   1.002   0.569
 1046SOL     OW 3272   1.703   0.915   1.880
 1046SOL    HW1 3273   1.751   0.959   1.950
 1046SOL    HW2 3274   1.710   0.975   1.805
 1047SOL     OW 3275   0.303   3.465   0.579
 1047SOL    HW1 3276   0.242   3.464   0.652
 1047SOL    HW2 3277   0.352   3.383   0.587
 1048SOL     OW 3278   3.042   2.938   3.570
 1048SOL    HW1 3279   3.003   2.978   3.648
 1048SOL    HW2 3280   3.095   3.007   3.531
 1049SOL     OW 3281   3.209   3.385   0.283
 1049SOL    HW1 3282   3.165   3.310   0.243
 1049SOL    HW2 3283   3.139   3.433   0.327
 1050SOL     OW 3284   0.105   1.495   1.138
 1050SOL    HW1 3285   0.124   1.559   1.207
 1050SOL    HW2 3286   0.191   1.468   1.106
 1051SOL     OW 3287   1.042   2.122   0.754
 1051SOL    HW1 3288   1.024   2.028   0.765
 1051SOL    HW2 3289   1.021   2.161   0.839
 1052SOL     OW 3290   3.849   2.543   3.282
 1052SOL    HW1 3291   3.863   2.586   3.198
 1052SOL    HW2 3292   3.903   2.593   3.344
 1053SOL     OW 3293   2.422   1.055   1.453
 1053SOL    HW1 3294   2.381   1.140   1.435
 1053SOL    HW2 3295   2.487   1.045   1.384
 1054SOL     OW 3296   3.816   3.892   1.817
 1054SOL    HW1 3297   3.792   3.980   1.844
 1054SOL    HW2 3298   3.759   3.835   1.869
 1055SOL     OW 3299   2.732   2.107   3.773
 1055SOL    HW1 3300   2.768   2.154   3.848
 1055SOL    HW2 3301   2.653   2.065   3.807
 1056SOL     OW 3302   0.611   3.260   3.095
 1056SOL    HW1 3303   0.612   3.170   3.063
 1056SOL    HW2 3304   0.693   3.269   3.143
 1057SOL     OW 3305   3.147   3.535   0.923
 1057SOL    HW1 3306   3.079   3.580   0.873
 1057SOL    HW2 3307   3.132   3.443   0.905
 1058SOL     OW 3308   3.590   1.420   1.310
 1058SOL    HW1 3309   3.548   1.461   1.235
 1058SOL    HW2 3310   3.532   1.439   1.384
 1059SOL     OW 3311   3.284   1.021   3.044
 1059SOL    HW1 3312   3.369   0.976   3.050
 1059SOL    HW2 3313   3.304   1.112   3.067
 1060SOL     OW 3314   0.669   2.661   2.966
 1060SOL    HW1 3315   0.747   2.685   3.016
 1060SOL    HW2 3316   0.658   2.567   2.983
 1061SOL     OW 3317   1.267   1.528   3.220
 1061SOL    HW1 3318   1.256   1.507   3.128
 1061SOL    HW2 3319   1.208   1.469   3.266
 1062SOL     OW 3320   3.865   2.710   3.512
 1062SOL    HW1 3321   3.781   2.749   3.536
 1062SOL    HW2 3322   3.881   2.642   3.577
 1063SOL     OW 3323   1.617   0.474   0.323
 1063SOL    HW1 3324   1.628   0.468   0.229
 1063SOL    HW2 3325   1.696   0.518   0.354
 1064SOL     OW 3326   0.293   0.607   1.235
 1064SOL    HW1 3327   0.209   0.561   1.243
 1064SOL    HW2 3328   0.331   0.603   1.323
 1065SOL     OW 3329   3.798   0.561   1.512
 1065SOL    HW1 3330   3.771   0.470   1.520
 1065SOL    HW2 3331   3.879   0.558   1.461
 1066SOL     OW 3332   0.612   3.373   0.450
 1066SOL    HW1 3333   0.643   3.453   0.492
 1066SOL    HW2 3334   0.541   3.342   0.506
 1067SOL     OW 3335   1.175   1.256   2.816
 1067SOL    HW1 3336   1.196   1.232   2.726
 1067SOL    HW2 3337   1.087   1.222   2.830
 1068SOL     OW 3338   3.927   1.543   1.900
 1068SOL    HW1 3339   3.917   1.559   1.994
 1068SOL    HW2 3340   3.857   1.595   1.860
 1069SOL     OW 3341   0.157   2.130   1.677
 1069SOL    HW1 3342   0.139   2.197   1.743
 1069SOL    HW2 3343   0.211   2.065   1.722
 1070SOL     OW 3344   0.712   1.652   1.028
 1070SOL    HW1 3345   0.656   1.688   0.959
 1070SOL    HW2 3346   0.699   1.710   1.103
 1071SOL     OW 3347   1.077   0.620   3.618
 1071SOL    HW1 3348   1.132   0.664   3.683
 1071SOL    HW2 3349   1.014   0.569   3.669
 1072SOL     OW 3350   3.286   2.686   3.388
 1072SOL    HW1 3351   3.228   2.737   3.331
 1072SOL    HW2 3352   3.351   2.749   3.419
 1073SOL     OW 3353   3.203   1.791   2.637
 1073SOL    HW1 3354   3.278   1.746   2.598
 1073SOL    HW2 3355   3.241   1.864   2.685
 1074SOL     OW 3356   3.393   2.786   1.049
 1074SOL    HW1 3357   3.343   2.741   0.982
 1074SOL    HW2 3358   3.435   2.717   1.099
 1075SOL     OW 3359   0.939   2.693   3.048
 1075SOL    HW1 3360   1.009   2.648   3.001
 1075SOL    HW2 3361   0.969   2.784   3.055
 1076SOL     OW 3362   0.647   2.579   1.545
 1076SOL    HW1 3363   0.677   2.669   1.533
 1076SOL    HW2 3364   0.714   2.539   1.600
 1077SOL     OW 3365   1.497   0.935   0.535
 1077SOL    HW1 3366   1.470   0.845   0.523
 1077SOL    HW2 3367   1.552   0.934   0.614
 1078SOL     OW 3368   1.283   2.273   0.373
 1078SOL    HW1 3369   1.347   2.285   0.303
 1078SOL    HW2 3370   1.218   2.342   0.357
 1079SOL     OW 3371   3.040   2.479   0.582
 1079SOL    HW1 3372   2.967   2.458   0.524
 1079SOL    HW2 3373   3.049   2.402   0.637
 1080SOL     OW 3374   1.708   1.715   1.196
 1080SOL    HW1 3375   1.641   1.767   1.150
 1080SOL    HW2 3376   1.687   1.727   1.289
 1081SOL     OW 3377   1.086   3.168   3.788
 1081SOL    HW1 3378   1.109   3.110   3.716
 1081SOL    HW2 3379   1.134   3.249   3.770
 1082SOL     OW 3380   0.558   0.372   2.549
 1082SOL    HW1 3381   0.482   0.431   2.552
 1082SOL    HW2 3382   0.609   0.403   2.474
 1083SOL     OW 3383   2.514   2.627   2.721
 1083SOL    HW1 3384   2.572   2.588   2.786
 1083SOL    HW2 3385   2.436   2.652   2.770
 1084SOL     OW 3386   3.317   2.390   0.339
 1084SOL    HW1 3387   3.257   2.465   0.334
 1084SOL    HW2 3388   3.259   2.314   0.348
 1085SOL     OW 3389   1.179   2.057   3.716
 1085SOL    HW1 3390   1.119   2.111   3.664
 1085SOL    HW2 3391   1.167   2.088   3.805
 1086SOL     OW 3392   0.234   3.033   1.565
 1086SOL    HW1 3393   0.192   3.119   1.564
 1086SOL    HW2 3394   0.325   3.052   1.587
 1087SOL     OW 3395   1.189   0.778   1.989
 1087SOL    HW1 3396   1.200   0.774   2.084
 1087SOL    HW2 3397   1.094   0.776   1.976
 1088SOL     OW 3398   0.858   2.186   2.081
 1088SOL    HW1 3399   0.945   2.213   2.110
 1088SOL    HW2 3400   0.798   2.250   2.120
 1089SOL     OW 3401   0.682   0.264   3.449
 1089SOL    HW1 3402   0.637   0.348   3.437
 1089SOL    HW2 3403   0.680   0.223   3.363
 1090SOL     OW 3404   2.298   1.909   0.090
 1090SOL    HW1 3405   2.275   1.903   0.183
 1090SOL    HW2 3406   2.252   1.835   0.049
 1091SOL     OW 3407   0.616   3.297   1.677
 1091SOL    HW1 3408   0.645   3.315   1.766
 1091SOL    HW2 3409   0.612   3.202   1.671
 1092SOL     OW 3410   1.708   1.832   0.455
 1092SOL    HW1 3411   1.718   1.741   0.430
 1092SOL    HW2 3412   1.780   1.848   0.517
 1093SOL     OW 3413   3.246   0.994   0.399
 1093SOL    HW1 3414   3.168   0.949   0.433
 1093SOL    HW2 3415   3.296   1.017   0.477
 1094SOL     OW 3416   0.216   3.389   3.235
 1094SOL    HW1 3417   0.293   3.332   3.240
 1094SOL    HW2 3418   0.148   3.342   3.284
 1095SOL     OW 3419   1.814   3.938   3.067
 1095SOL    HW1 3420   1.745   4.002   3.055
 1095SOL    HW2 3421   1.815   3.921   3.161
 1096SOL     OW 3422   1.400   3.014   0.323
 1096SOL    HW1 3423   1.335   2.994   0.391
 1096SOL    HW2 3424   1.482   3.024   0.372
 1097SOL     OW 3425   2.039   2.714   2.400
 1097SOL    HW1 3426   2.022   2.776   2.329
 1097SOL    HW2 3427   1.967   2.730   2.462
 1098SOL     OW 3428   3.276   3.599   3.483
 1098SOL    HW1 3429   3.316   3.638   3.561
 1098SOL    HW2 3430   3.265   3.673   3.423
 1099SOL     OW 3431   2.704   1.929   0.026
 1099SOL    HW1 3432   2.622   1.974   0.007
 1099SOL    HW2 3433   2.703   1.914   0.120
 1100SOL     OW 3434   3.158   0.451   3.805
 1100SOL    HW1 3435   3.187   0.417   3.721
 1100SOL    HW2 3436   3.189   0.387   3.869
 1101SOL     OW 3437   3.443   2.517   1.118
 1101SOL    HW1 3438   3.454   2.476   1.032
 1101SOL    HW2 3439   3.352   2.497   1.142
 1102SOL     OW 3440   3.541   1.935   0.367
 1102SOL    HW1 3441   3.562   2.020   0.405
 1102SOL    HW2 3442   3.519   1.880   0.442
 1103SOL     OW 3443   3.346   3.175   0.759
 1103SOL    HW1 3444   3.387   3.114   0.820
 1103SOL    HW2 3445   3.267   3.204   0.805
 1104SOL     OW 3446   1.843   2.030   3.365
 1104SOL    HW1 3447   1.897   2.082   3.305
 1104SOL    HW2 3448   1.871   1.940   3.350
 1105SOL     OW 3449   2.030   1.904   1.612
 1105SOL    HW1 3450   2.007   1.832   1.670
 1105SOL    HW2 3451   2.020   1.982   1.667
 1106SOL     OW 3452   2.775   2.412   3.638
 1106SOL    HW1 3453   2.827   2.471   3.583
 1106SOL    HW2 3454   2.749   2.341   3.579
 1107SOL     OW 3455   2.633   3.152   3.618
 1107SOL    HW1 3456   2.548   3.133   3.579
 1107SOL    HW2 3457   2.614   3.220   3.683
 1108SOL     OW 3458   0.314   2.330   0.610
 1108SOL    HW1 3459   0.378   2.326   0.681
 1108SOL    HW2 3460   0.239   2.377   0.647
 1109SOL     OW 3461   2.432   1.748   3.170
 1109SOL    HW1 3462   2.491   1.822   3.158
 1109SOL    HW2 3463   2.384   1.768   3.250
 1110SOL     OW 3464   1.370   1.812   1.625
 1110SOL    HW1 3465   1.383   1.893   1.674
 1110SOL    HW2 3466   1.278   1.791   1.635
 1111SOL     OW 3467   2.471   2.385   3.610
 1111SOL    HW1 3468   2.537   2.315   3.611
 1111SOL    HW2 3469   2.480   2.423   3.523
 1112SOL     OW 3470   0.718   2.205   0.936
 1112SOL    HW1 3471   0.747   2.114   0.935
 1112SOL    HW2 3472   0.799   2.256   0.934
 1113SOL     OW 3473   1.383   2.014   3.116
 1113SOL    HW1 3474   1.416   2.100   3.143
 1113SOL    HW2 3475   1.311   1.995   3.176
 1114SOL     OW 3476   3.913   2.074   2.744
 1114SOL    HW1 3477   3.914   2.105   2.835
 1114SOL    HW2 3478   3.822   2.084   2.717
 1115SOL     OW 3479   1.855   0.588   0.683
 1115SOL    HW1 3480   1.943   0.623   0.698
 1115SOL    HW2 3481   1.824   0.564   0.770
 1116SOL     OW 3482   2.894   3.122   3.733
 1116SOL    HW1 3483   2.908   3.216   3.744
 1116SOL    HW2 3484   2.802   3.115   3.707
 1117SOL     OW 3485   2.976   1.699   0.831
 1117SOL    HW1 3486   3.048   1.723   0.771
 1117SOL    HW2 3487   2.967   1.775   0.888
 1118SOL     OW 3488   1.045   3.646   0.813
 1118SOL    HW1 3489   0.996   3.728   0.805
 1118SOL    HW2 3490   1.029   3.600   0.731
 1119SOL     OW 3491   2.069   2.092   2.342
 1119SOL    HW1 3492   2.012   2.103   2.266
 1119SOL    HW2 3493   2.155   2.119   2.312
 1120SOL     OW 3494   3.418   3.508   3.920
 1120SOL    HW1 3495   3.396   3.438   3.982
 1120SOL    HW2 3496   3.490   3.555   3.961
 1121SOL     OW 3497   3.711   1.981   1.968
 1121SOL    HW1 3498   3.688   1.920   2.038
 1121SOL    HW2 3499   3.679   1.938   1.888
 1122SOL     OW 3500   3.448   2.923   3.522
 1122SOL    HW1 3501   3.468   2.998   3.466
 1122SOL    HW2 3502   3.404   2.961   3.598
 1123SOL     OW 3503   1.234   1.347   1.237
 1123SOL    HW1 3504   1.248   1.299   1.318
 1123SOL    HW2 3505   1.207   1.435   1.265
 1124SOL     OW 3506   3.692   3.381   0.487
 1124SOL    HW1 3507   3.734   3.435   0.420
 1124SOL    HW2 3508   3.599   3.387   0.468
 1125SOL     OW 3509   2.250   3.406   2.611
 1125SOL    HW1 3510   2.218   3.372   2.694
 1125SOL    HW2 3511   2.182   3.466   2.582
 1126SOL     OW 3512   3.816   3.747   2.320
 1126SOL    HW1 3513   3.846   3.780   2.236
 1126SOL    HW2 3514   3.895   3.740   2.373
 1127SOL     OW 3515   2.949   3.209   2.871
 1127SOL    HW1 3516   3.009   3.232   2.799
 1127SOL    HW2 3517   2.889   3.145   2.832
 1128SOL     OW 3518   2.421   0.138   2.601
 1128SOL    HW1 3519   2.496   0.167   2.653
 1128SOL    HW2 3520   2.379   0.219   2.574
 1129SOL     OW 3521   0.932   3.552   3.684
 1129SOL    HW1 3522   0.944   3.536   3.590
 1129SOL    HW2 3523   0.853   3.503   3.707
 1130SOL     OW 3524   3.381   1.252   1.065
 1130SOL    HW1 3525   3.353   1.329   1.114
 1130SOL    HW2 3526   3.406   1.286   0.979
 1131SOL     OW 3527   1.417   1.780   3.756
 1131SOL    HW1 3528   1.404   1.850   3.820
 1131SOL    HW2 3529   1.431   1.702   3.809
 1132SOL     OW 3530   0.689   2.783   3.847
 1132SOL    HW1 3531   0.607   2.830   3.858
 1132SOL    HW2 3532   0.673   2.723   3.774
 1133SOL     OW 3533   1.411   1.855   1.055
 1133SOL    HW1 3534   1.354   1.924   1.089
 1133SOL    HW2 3535   1.354   1.778   1.049
 1134SOL     OW 3536   2.322   0.607   3.569
 1134SOL    HW1 3537   2.345   0.514   3.574
 1134SOL    HW2 3538   2.393   0.652   3.614
 1135SOL     OW 3539   3.149   1.923   3.958
 1135SOL    HW1 3540   3.079   1.859   3.977
 1135SOL    HW2 3541   3.163   1.915   3.864
 1136SOL     OW 3542   1.112   2.459   0.288
 1136SOL    HW1 3543   1.067   2.501   0.362
 1136SOL    HW2 3544   1.048   2.397   0.253
 1137SOL     OW 3545   3.211   1.750   1.566
 1137SOL    HW1 3546   3.175   1.837   1.551
 1137SOL    HW2 3547   3.238   1.751   1.658
 1138SOL     OW 3548   3.016   0.101   1.759
 1138SOL    HW1 3549   2.941   0.149   1.795
 1138SOL    HW2 3550   3.021   0.129   1.668
 1139SOL     OW 3551   2.809   0.119   0.936
 1139SOL    HW1 3552   2.791   0.072   1.017
 1139SOL    HW2 3553   2.769   0.066   0.867
 1140SOL     OW 3554   3.844   3.162   0.620
 1140SOL    HW1 3555   3.819   3.215   0.544
 1140SOL    HW2 3556   3.766   3.163   0.676
 1141SOL     OW 3557   0.327   1.172   0.891
 1141SOL    HW1 3558   0.416   1.186   0.858
 1141SOL    HW2 3559   0.277   1.148   0.814
 1142SOL     OW 3560   2.844   3.560   2.867
 1142SOL    HW1 3561   2.910   3.531   2.803
 1142SOL    HW2 3562   2.827   3.482   2.919
 1143SOL     OW 3563   2.079   0.153   0.517
 1143SOL    HW1 3564   2.015   0.148   0.446
 1143SOL    HW2 3565   2.028   0.179   0.594
 1144SOL     OW 3566   0.382   1.923   0.383
 1144SOL    HW1 3567   0.349   1.895   0.298
 1144SOL    HW2 3568   0.331   2.002   0.404
 1145SOL     OW 3569   1.228   0.530   2.167
 1145SOL    HW1 3570   1.165   0.461   2.145
 1145SOL    HW2 3571   1.313   0.492   2.145
 1146SOL     OW 3572   0.010   2.888   1.539
 1146SOL    HW1 3573   0.004   2.870   1.633
 1146SOL    HW2 3574   0.083   2.949   1.530
 1147SOL     OW 3575   0.886   1.369   3.833
 1147SOL    HW1 3576   0.971   1.329   3.815
 1147SOL    HW2 3577   0.895   1.459   3.802
 1148SOL     OW 3578   2.219   2.211   0.125
 1148SOL    HW1 3579   2.141   2.185   0.075
 1148SOL    HW2 3580   2.251   2.129   0.162
 1149SOL     OW 3581   3.146   0.491   2.238
 1149SOL    HW1 3582   3.173   0.404   2.268
 1149SOL    HW2 3583   3.096   0.474   2.159
 1150SOL     OW 3584   2.505   0.141   1.127
 1150SOL    HW1 3585   2.572   0.209   1.129
 1150SOL    HW2 3586   2.452   0.161   1.050
 1151SOL     OW 3587   3.182   0.916   0.137
 1151SOL    HW1 3588   3.230   0.839   0.107
 1151SOL    HW2 3589   3.198   0.919   0.232
 1152SOL     OW 3590   0.692   1.078   2.718
 1152SOL    HW1 3591   0.677   1.008   2.782
 1152SOL    HW2 3592   0.605   1.115   2.702
 1153SOL     OW 3593   1.688   1.155   2.957
 1153SOL    HW1 3594   1.656   1.068   2.982
 1153SOL    HW2 3595   1.760   1.137   2.896
 1154SOL     OW 3596   3.345   0.322   3.116
 1154SOL    HW1 3597   3.395   0.265   3.174
 1154SOL    HW2 3598   3.409   0.384   3.082
 1155SOL     OW 3599   0.408   0.503   3.631
 1155SOL    HW1 3600   0.393   0.410   3.650
 1155SOL    HW2 3601   0.456   0.503   3.548
 1156SOL     OW 3602   3.398   2.197   0.738
 1156SOL    HW1 3603   3.442   2.272   0.778
 1156SOL    HW2 3604   3.445   2.184   0.655
 1157SOL     OW 3605   2.613   1.090   2.600
 1157SOL    HW1 3606   2.683   1.155   2.603
 1157SOL    HW2 3607   2.533   1.140   2.616
 1158SOL     OW 3608   2.416   3.424   1.512
 1158SOL    HW1 3609   2.495   3.429   1.565
 1158SOL    HW2 3610   2.434   3.353   1.450
 1159SOL     OW 3611   0.427   2.715   3.100
 1159SOL    HW1 3612   0.478   2.709   3.019
 1159SOL    HW2 3613   0.475   2.663   3.163
 1160SOL     OW 3614   3.416   0.644   3.655
 1160SOL    HW1 3615   3.374   0.560   3.635
 1160SOL    HW2 3616   3.392   0.701   3.582
 1161SOL     OW 3617   2.758   1.671   1.550
 1161SOL    HW1 3618   2.741   1.710   1.464
 1161SOL    HW2 3619   2.828   1.608   1.534
 1162SOL     OW 3620   0.231   1.216   1.157
 1162SOL    HW1 3621   0.257   1.218   1.065
 1162SOL    HW2 3622   0.141   1.182   1.156
 1163SOL     OW 3623   2.833   3.283   1.335
 1163SOL    HW1 3624   2.754   3.281   1.280
 1163SOL    HW2 3625   2.883   3.206   1.309
 1164SOL     OW 3626   1.586   2.054   2.373
 1164SOL    HW1 3627   1.536   1.974   2.390
 1164SOL    HW2 3628   1.586   2.063   2.278
 1165SOL     OW 3629   2.702   1.506   3.343
 1165SOL    HW1 3630   2.716   1.580   3.284
 1165SOL    HW2 3631   2.681   1.433   3.284
 1166SOL     OW 3632   2.418   1.455   3.133
 1166SOL    HW1 3633   2.413   1.544   3.168
 1166SOL    HW2 3634   2.478   1.462   3.059
 1167SOL     OW 3635   0.107   3.765   2.469
 1167SOL    HW1 3636   0.086   3.730   2.556
 1167SOL    HW2 3637   0.171   3.833   2.486
 1168SOL     OW 3638   0.689   0.065   0.661
 1168SOL    HW1 3639   0.687  -0.020   0.706
 1168SOL    HW2 3640   0.621   0.117   0.704
 1169SOL     OW 3641   1.098   0.311   2.097
 1169SOL    HW1 3642   1.069   0.276   2.012
 1169SOL    HW2 3643   1.028   0.287   2.158
 1170SOL     OW 3644   1.672   1.038   3.538
 1170SOL    HW1 3645   1.642   1.100   3.472
 1170SOL    HW2 3646   1.602   1.038   3.604
 1171SOL     OW 3647   3.738   1.343   0.328
 1171SOL    HW1 3648   3.763   1.374   0.415
 1171SOL    HW2 3649   3.745   1.421   0.273
 1172SOL     OW 3650   3.400   3.900   1.956
 1172SOL    HW1 3651   3.379   3.938   2.041
 1172SOL    HW2 3652   3.465   3.833   1.975
 1173SOL     OW 3653   0.217   2.064   2.263
 1173SOL    HW1 3654   0.234   2.017   2.345
 1173SOL    HW2 3655   0.211   1.995   2.197
 1174SOL     OW 3656   0.317   1.569   0.474
 1174SOL    HW1 3657   0.255   1.552   0.403
 1174SOL    HW2 3658   0.401   1.542   0.439
 1175SOL     OW 3659   0.289   2.716   0.302
 1175SOL    HW1 3660   0.309   2.650   0.235
 1175SOL    HW2 3661   0.371   2.763   0.315
 1176SOL     OW 3662   3.425   1.942   0.060
 1176SOL    HW1 3663   3.332   1.925   0.075
 1176SOL    HW2 3664   3.465   1.934   0.146
 1177SOL     OW 3665   2.623   1.488   1.096
 1177SOL    HW1 3666   2.540   1.511   1.055
 1177SOL    HW2 3667   2.604   1.409   1.147
 1178SOL     OW 3668   2.705   0.559   0.414
 1178SOL    HW1 3669   2.757   0.504   0.472
 1178SOL    HW2 3670   2.638   0.596   0.470
 1179SOL     OW 3671   1.867   1.954   1.893
 1179SOL    HW1 3672   1.858   1.859   1.881
 1179SOL    HW2 3673   1.823   1.992   1.817
 1180SOL     OW 3674   3.733   0.928   3.132
 1180SOL    HW1 3675   3.786   0.853   3.159
 1180SOL    HW2 3676   3.728   0.983   3.210
 1181SOL     OW 3677   3.398   0.301   0.547
 1181SOL    HW1 3678   3.449   0.266   0.620
 1181SOL    HW2 3679   3.404   0.396   0.558
 1182SOL     OW 3680   0.381   3.234   2.224
 1182SOL    HW1 3681   0.351   3.225   2.315
 1182SOL    HW2 3682   0.456   3.293   2.229
 1183SOL     OW 3683   3.246   3.251   3.911
 1183SOL    HW1 3684   3.174   3.190   3.931
 1183SOL    HW2 3685   3.202   3.330   3.880
 1184SOL     OW 3686   2.039   1.925   3.220
 1184SOL    HW1 3687   2.054   2.019   3.210
 1184SOL    HW2 3688   2.042   1.890   3.131
 1185SOL     OW 3689   2.918   2.471   2.554
 1185SOL    HW1 3690   2.947   2.561   2.543
 1185SOL    HW2 3691   2.825   2.473   2.532
 1186SOL     OW 3692   2.370   0.391   2.488
 1186SOL    HW1 3693   2.281   0.418   2.509
 1186SOL    HW2 3694   2.424   0.468   2.506
 1187SOL     OW 3695   2.218   0.451   0.660
 1187SOL    HW1 3696   2.176   0.373   0.624
 1187SOL    HW2 3697   2.203   0.446   0.754
 1188SOL     OW 3698   3.368   3.713   0.880
 1188SOL    HW1 3699   3.353   3.689   0.971
 1188SOL    HW2 3700   3.324   3.646   0.829
 1189SOL     OW 3701   0.543   0.786   1.189
 1189SOL    HW1 3702   0.526   0.833   1.108
 1189SOL    HW2 3703   0.494   0.704   1.180
 1190SOL     OW 3704   3.818   0.472   3.257
 1190SOL    HW1 3705   3.738   0.496   3.210
 1190SOL    HW2 3706   3.847   0.392   3.213
 1191SOL     OW 3707   3.191   2.462   3.504
 1191SOL    HW1 3708   3.112   2.485   3.552
 1191SOL    HW2 3709   3.219   2.544   3.462
 1192SOL     OW 3710   0.103   2.002   0.912
 1192SOL    HW1 3711   0.074   1.947   0.985
 1192SOL    HW2 3712   0.136   2.082   0.953
 1193SOL     OW 3713   2.343   2.243   0.590
 1193SOL    HW1 3714   2.347   2.263   0.497
 1193SOL    HW2 3715   2.360   2.326   0.634
 1194SOL     OW 3716   0.618   2.131   0.072
 1194SOL    HW1 3717   0.606   2.040   0.042
 1194SOL    HW2 3718   0.703   2.131   0.115
 1195SOL     OW 3719   3.625   2.156   0.578
 1195SOL    HW1 3720   3.637   2.239   0.531
 1195SOL    HW2 3721   3.712   2.132   0.608
 1196SOL     OW 3722   0.075   2.853   2.626
 1196SOL    HW1 3723   0.044   2.942   2.609
 1196SOL    HW2 3724   0.028   2.826   2.705
 1197SOL     OW 3725   1.672   0.797   1.123
 1197SOL    HW1 3726   1.756   0.794   1.078
 1197SOL    HW2 3727   1.635   0.710   1.112
 1198SOL     OW 3728   2.301   3.566   2.164
 1198SOL    HW1 3729   2.343   3.529   2.086
 1198SOL    HW2 3730   2.313   3.500   2.232
 1199SOL     OW 3731   1.018   1.921   2.137
 1199SOL    HW1 3732   0.994   2.013   2.131
 1199SOL    HW2 3733   1.112   1.922   2.157
 1200SOL     OW 3734   1.903   0.637   2.329
 1200SOL    HW1 3735   1.811   0.618   2.314
 1200SOL    HW2 3736   1.932   0.571   2.392
 1201SOL     OW 3737   3.550   3.431   1.213
 1201SOL    HW1 3738   3.632   3.449   1.167
 1201SOL    HW2 3739   3.575   3.381   1.290
 1202SOL     OW 3740   1.203   1.445   3.625
 1202SOL    HW1 3741   1.134   1.419   3.565
 1202SOL    HW2 3742   1.194   1.540   3.633
 1203SOL     OW 3743   3.418   2.073   3.137
 1203SOL    HW1 3744   3.449   2.016   3.208
 1203SOL    HW2 3745   3.386   2.152   3.182
 1204SOL     OW 3746   3.274   0.018   2.602
 1204SOL    HW1 3747   3.357   0.008   2.554
 1204SOL    HW2 3748   3.283   0.101   2.648
 1205SOL     OW 3749   2.931   2.608   3.488
 1205SOL    HW1 3750   2.926   2.586   3.395
 1205SOL    HW2 3751   2.977   2.692   3.490
 1206SOL     OW 3752   0.934   2.885   1.483
 1206SOL    HW1 3753   0.946   2.950   1.413
 1206SOL    HW2 3754   0.949   2.935   1.564
 1207SOL     OW 3755   2.330   1.703   1.687
 1207SOL    HW1 3756   2.367   1.780   1.643
 1207SOL    HW2 3757   2.399   1.675   1.747
 1208SOL     OW 3758   3.730   2.364   1.107
 1208SOL    HW1 3759   3.659   2.411   1.150
 1208SOL    HW2 3760   3.795   2.350   1.176
 1209SOL     OW 3761   0.178   2.357   3.717
 1209SOL    HW1 3762   0.216   2.445   3.723
 1209SOL    HW2 3763   0.101   2.369   3.660
 1210SOL     OW 3764   0.250   3.910   0.171
 1210SOL    HW1 3765   0.340   3.908   0.139
 1210SOL    HW2 3766   0.215   3.993   0.139
 1211SOL     OW 3767   2.047   3.590   2.469
 1211SOL    HW1 3768   2.012   3.581   2.558
 1211SOL    HW2 3769   2.002   3.667   2.433
 1212SOL     OW 3770   0.098   3.762   1.126
 1212SOL    HW1 3771   0.018   3.803   1.159
 1212SOL    HW2 3772   0.083   3.668   1.137
 1213SOL     OW 3773   0.411   3.007   1.846
 1213SOL    HW1 3774   0.410   2.991   1.941
 1213SOL    HW2 3775   0.328   3.050   1.828
 1214SOL     OW 3776   1.707   0.972   0.375
 1214SOL    HW1 3777   1.709   0.909   0.303
 1214SOL    HW2 3778   1.622   0.959   0.416
 1215SOL     OW 3779   1.535   0.524   3.043
 1215SOL    HW1 3780   1.612   0.544   2.990
 1215SOL    HW2 3781   1.464   0.516   2.979
 1216SOL     OW 3782   2.788   3.936   3.555
 1216SOL    HW1 3783   2.789   3.840   3.552
 1216SOL    HW2 3784   2.873   3.963   3.520
 1217SOL     OW 3785   2.251   0.889   2.826
 1217SOL    HW1 3786   2.177   0.841   2.788
 1217SOL    HW2 3787   2.325   0.828   2.819
 1218SOL     OW 3788   3.706   2.688   1.031
 1218SOL    HW1 3789   3.625   2.668   0.983
 1218SOL    HW2 3790   3.771   2.705   0.963
 1219SOL     OW 3791   0.713   3.013   3.583
 1219SOL    HW1 3792   0.758   3.038   3.664
 1219SOL    HW2 3793   0.762   3.059   3.514
 1220SOL     OW 3794   1.730   2.158   3.095
 1220SOL    HW1 3795   1.668   2.230   3.076
 1220SOL    HW2 3796   1.809   2.203   3.125
 1221SOL     OW 3797   0.761   1.357   1.050
 1221SOL    HW1 3798   0.730   1.447   1.055
 1221SOL    HW2 3799   0.681   1.304   1.048
 1222SOL     OW 3800   2.676   3.609   2.030
 1222SOL    HW1 3801   2.614   3.577   1.965
 1222SOL    HW2 3802   2.666   3.705   2.028
 1223SOL     OW 3803   3.723   2.241   3.220
 1223SOL    HW1 3804   3.696   2.185   3.293
 1223SOL    HW2 3805   3.726   2.329   3.256
 1224SOL     OW 3806   2.762   0.820   0.044
 1224SOL    HW1 3807   2.757   0.914   0.058
 1224SOL    HW2 3808   2.836   0.792   0.098
 1225SOL     OW 3809   0.190   0.750   2.011
 1225SOL    HW1 3810   0.194   0.787   2.099
 1225SOL    HW2 3811   0.098   0.725   2.000
 1226SOL     OW 3812   0.456   2.685   0.742
 1226SOL    HW1 3813   0.464   2.686   0.837
 1226SOL    HW2 3814   0.362   2.693   0.725
 1227SOL     OW 3815   3.313   2.155   2.401
 1227SOL    HW1 3816   3.293   2.247   2.386
 1227SOL    HW2 3817   3.391   2.139   2.347
 1228SOL     OW 3818   3.494   0.019   2.878
 1228SOL    HW1 3819   3.431  -0.053   2.886
 1228SOL    HW2 3820   3.439   0.096   2.862
 1229SOL     OW 3821   3.250   2.576   2.568
 1229SOL    HW1 3822   3.260   2.534   2.653
 1229SOL    HW2 3823   3.320   2.642   2.565
 1230SOL     OW 3824   0.606   0.265   1.038
 1230SOL    HW1 3825   0.522   0.262   1.084
 1230SOL    HW2 3826   0.646   0.180   1.057
 1231SOL     OW 3827   0.271   1.109   2.546
 1231SOL    HW1 3828   0.302   1.157   2.469
 1231SOL    HW2 3829   0.340   1.122   2.611
 1232SOL     OW 3830   3.570   3.380   1.605
 1232SOL    HW1 3831   3.578   3.308   1.542
 1232SOL    HW2 3832   3.475   3.390   1.617
 1233SOL     OW 3833   2.103   1.706   1.844
 1233SOL    HW1 3834   2.133   1.756   1.920
 1233SOL    HW2 3835   2.166   1.726   1.775
 1234SOL     OW 3836   2.330   2.790   1.843
 1234SOL    HW1 3837   2.404   2.755   1.892
 1234SOL    HW2 3838   2.324   2.733   1.766
 1235SOL     OW 3839   2.944   0.660   0.732
 1235SOL    HW1 3840   2.982   0.573   0.743
 1235SOL    HW2 3841   2.862   0.646   0.686
 1236SOL     OW 3842   3.372   0.978   3.363
 1236SOL    HW1 3843   3.336   1.002   3.448
 1236SOL    HW2 3844   3.450   1.032   3.354
 1237SOL     OW 3845   0.470   3.845   1.639
 1237SOL    HW1 3846   0.433   3.932   1.650
 1237SOL    HW2 3847   0.565   3.859   1.639
 1238SOL     OW 3848   0.472   3.848   3.877
 1238SOL    HW1 3849   0.473   3.807   3.963
 1238SOL    HW2 3850   0.528   3.925   3.886
 1239SOL     OW 3851   0.275   0.721   2.450
 1239SOL    HW1 3852   0.293   0.677   2.367
 1239SOL    HW2 3853   0.203   0.780   2.432
 1240SOL     OW 3854   1.790   3.243   2.232
 1240SOL    HW1 3855   1.774   3.216   2.323
 1240SOL    HW2 3856   1.878   3.282   2.234
 1241SOL     OW 3857   1.280   2.117   0.032
 1241SOL    HW1 3858   1.340   2.043   0.025
 1241SOL    HW2 3859   1.319   2.172   0.100
 1242SOL     OW 3860   2.760   3.601   1.680
 1242SOL    HW1 3861   2.819   3.541   1.726
 1242SOL    HW2 3862   2.672   3.574   1.707
 1243SOL     OW 3863   2.783   0.552   1.298
 1243SOL    HW1 3864   2.698   0.592   1.312
 1243SOL    HW2 3865   2.842   0.598   1.359
 1244SOL     OW 3866   2.588   1.843   2.093
 1244SOL    HW1 3867   2.633   1.816   2.173
 1244SOL    HW2 3868   2.496   1.850   2.120
 1245SOL     OW 3869   0.235   3.297   1.650
 1245SOL    HW1 3870   0.268   3.308   1.740
 1245SOL    HW2 3871   0.156   3.351   1.647
 1246SOL     OW 3872   0.985   2.268   0.512
 1246SOL    HW1 3873   1.013   2.204   0.578
 1246SOL    HW2 3874   1.065   2.318   0.493
 1247SOL     OW 3875   3.274   3.897   1.254
 1247SOL    HW1 3876   3.330   3.957   1.206
 1247SOL    HW2 3877   3.261   3.823   1.194
 1248SOL     OW 3878   2.725   1.536   2.612
 1248SOL    HW1 3879   2.782   1.461   2.594
 1248SOL    HW2 3880   2.778   1.612   2.590
 1249SOL     OW 3881   3.562   1.849   2.205
 1249SOL    HW1 3882   3.488   1.910   2.201
 1249SOL    HW2 3883   3.612   1.877   2.282
 1250SOL     OW 3884   1.106   0.474   1.456
 1250SOL    HW1 3885   1.039   0.521   1.507
 1250SOL    HW2 3886   1.156   0.544   1.413
 1251SOL     OW 3887   2.085   0.702   2.120
 1251SOL    HW1 3888   2.173   0.668   2.108
 1251SOL    HW2 3889   2.034   0.627   2.151
 1252SOL     OW 3890   3.192   1.456   3.215
 1252SOL    HW1 3891   3.206   1.383   3.155
 1252SOL    HW2 3892   3.097   1.467   3.217
 1253SOL     OW 3893   1.643   0.905   3.024
 1253SOL    HW1 3894   1.590   0.856   2.960
 1253SOL    HW2 3895   1.638   0.852   3.104
 1254SOL     OW 3896   3.848   2.622   0.765
 1254SOL    HW1 3897   3.904   2.616   0.687
 1254SOL    HW2 3898   3.770   2.668   0.735
 1255SOL     OW 3899   2.713   1.549   0.831
 1255SOL    HW1 3900   2.788   1.608   0.838
 1255SOL    HW2 3901   2.716   1.497   0.911
 1256SOL     OW 3902   0.781   2.011   3.486
 1256SOL    HW1 3903   0.734   1.995   3.568
 1256SOL    HW2 3904   0.716   2.052   3.429
 1257SOL     OW 3905   1.636   3.509   0.186
 1257SOL    HW1 3906   1.596   3.422   0.180
 1257SOL    HW2 3907   1.641   3.526   0.280
 1258SOL     OW 3908   1.754   0.551   2.911
 1258SOL    HW1 3909   1.797   0.637   2.903
 1258SOL    HW2 3910   1.825   0.491   2.934
 1259SOL     OW 3911   0.534   0.038   1.959
 1259SOL    HW1 3912   0.602   0.095   1.995
 1259SOL    HW2 3913   0.526   0.066   1.868
 1260SOL     OW 3914   3.754   1.020   1.823
 1260SOL    HW1 3915   3.817   1.020   1.750
 1260SOL    HW2 3916   3.669   1.036   1.782
 1261SOL     OW 3917   3.311   0.929   1.869
 1261SOL    HW1 3918   3.297   0.843   1.829
 1261SOL    HW2 3919   3.332   0.987   1.796
 1262SOL     OW 3920   1.016   2.210   0.108
 1262SOL    HW1 3921   1.108   2.186   0.094
 1262SOL    HW2 3922   0.970   2.126   0.111
 1263SOL     OW 3923   0.348   3.590   3.820
 1263SOL    HW1 3924   0.380   3.678   3.803
 1263SOL    HW2 3925   0.426   3.540   3.841
 1264SOL     OW 3926   0.253   3.137   3.760
 1264SOL    HW1 3927   0.163   3.137   3.729
 1264SOL    HW2 3928   0.245   3.132   3.856
 1265SOL     OW 3929   0.730   1.910   3.022
 1265SOL    HW1 3930   0.727   1.960   2.941
 1265SOL    HW2 3931   0.812   1.861   3.017
 1266SOL     OW 3932   2.923   1.285   2.876
 1266SOL    HW1 3933   2.985   1.354   2.853
 1266SOL    HW2 3934   2.978   1.214   2.911
 1267SOL     OW 3935   0.612   3.359   3.572
 1267SOL    HW1 3936   0.520   3.334   3.563
 1267SOL    HW2 3937   0.646   3.302   3.641
 1268SOL     OW 3938   1.638   2.439   3.949
 1268SOL    HW1 3939   1.652   2.410   3.859
 1268SOL    HW2 3940   1.721   2.422   3.993
 1269SOL     OW 3941   3.341   3.749   2.852
 1269SOL    HW1 3942   3.330   3.753   2.757
 1269SOL    HW2 3943   3.260   3.711   2.884
 1270SOL     OW 3944   0.099   0.243   0.235
 1270SOL    HW1 3945   0.069   0.210   0.321
 1270SOL    HW2 3946   0.162   0.311   0.256
 1271SOL     OW 3947   0.182   3.332   1.356
 1271SOL    HW1 3948   0.115   3.311   1.420
 1271SOL    HW2 3949   0.262   3.343   1.407
 1272SOL     OW 3950   1.412   2.267   3.191
 1272SOL    HW1 3951   1.360   2.345   3.172
 1272SOL    HW2 3952   1.495   2.301   3.226
 1273SOL     OW 3953   0.681   1.353   2.380
 1273SOL    HW1 3954   0.666   1.435   2.427
 1273SOL    HW2 3955   0.671   1.377   2.287
 1274SOL     OW 3956   2.862   0.296   3.670
 1274SOL    HW1 3957   2.874   0.382   3.711
 1274SOL    HW2 3958   2.843   0.237   3.743
 1275SOL     OW 3959   0.383   2.590   2.765
 1275SOL    HW1 3960   0.383   2.531   2.690
 1275SOL    HW2 3961   0.396   2.534   2.841
 1276SOL     OW 3962   0.277   0.303   1.438
 1276SOL    HW1 3963   0.229   0.327   1.359
 1276SOL    HW2 3964   0.257   0.373   1.501
 1277SOL     OW 3965   2.376   2.547   2.257
 1277SOL    HW1 3966   2.430   2.469   2.251
 1277SOL    HW2 3967   2.286   2.515   2.263
 1278SOL     OW 3968   2.970   0.520   2.016
 1278SOL    HW1 3969   2.908   0.524   1.943
 1278SOL    HW2 3970   3.002   0.610   2.025
 1279SOL     OW 3971   1.956   2.139   3.619
 1279SOL    HW1 3972   1.892   2.119   3.551
 1279SOL    HW2 3973   1.974   2.055   3.661
 1280SOL     OW 3974   3.403   2.583   1.660
 1280SOL    HW1 3975   3.448   2.507   1.623
 1280SOL    HW2 3976   3.469   2.627   1.713
 1281SOL     OW 3977   2.839   2.873   3.868
 1281SOL    HW1 3978   2.896   2.945   3.841
 1281SOL    HW2 3979   2.803   2.840   3.786
 1282SOL     OW 3980   2.084   1.344   3.312
 1282SOL    HW1 3981   2.050   1.422   3.268
 1282SOL    HW2 3982   2.179   1.354   3.310
 1283SOL     OW 3983   0.577   1.789   2.381
 1283SOL    HW1 3984   0.514   1.726   2.347
 1283SOL    HW2 3985   0.650   1.786   2.319
 1284SOL     OW 3986   2.735   3.820   0.034
 1284SOL    HW1 3987   2.663   3.758   0.022
 1284SOL    HW2 3988   2.813   3.766   0.037
 1285SOL     OW 3989   1.502   1.749   2.748
 1285SOL    HW1 3990   1.518   1.843   2.748
 1285SOL    HW2 3991   1.458   1.732   2.831
 1286SOL     OW 3992   3.688   0.107   2.004
 1286SOL    HW1 3993   3.691   0.020   2.043
 1286SOL    HW2 3994   3.737   0.162   2.065
 1287SOL     OW 3995   0.718   2.026   2.721
 1287SOL    HW1 3996   0.781   1.994   2.657
 1287SOL    HW2 3997   0.638   2.039   2.672
 1288SOL     OW 3998   3.709   0.054   2.668
 1288SOL    HW1 3999   3.651   0.032   2.740
 1288SOL    HW2 4000   3.679   0.139   2.637
 1289SOL     OW 4001   0.476   2.350   0.384
 1289SOL    HW1 4002   0.451   2.348   0.477
 1289SOL    HW2 4003   0.394   2.373   0.339
 1290SOL     OW 4004   0.141   1.638   3.708
 1290SOL    HW1 4005   0.069   1.699   3.726
 1290SOL    HW2 4006   0.141   1.579   3.783
 1291SOL     OW 4007   2.078   1.916   3.781
 1291SOL    HW1 4008   2.130   1.954   3.851
 1291SOL    HW2 4009   2.140   1.861   3.732
 1292SOL     OW 4010   2.687   3.224   2.002
 1292SOL    HW1 4011   2.655   3.237   2.091
 1292SOL    HW2 4012   2.764   3.280   1.995
 1293SOL     OW 4013   3.052   0.941   2.351
 1293SOL    HW1 4014   3.078   0.996   2.276
 1293SOL    HW2 4015   2.976   0.892   2.320
 1294SOL     OW 4016   0.906   1.116   0.231
 1294SOL    HW1 4017   0.981   1.172   0.252
 1294SOL    HW2 4018   0.857   1.109   0.313
 1295SOL     OW 4019   1.226   3.848   2.182
 1295SOL    HW1 4020   1.270   3.928   2.154
 1295SOL    HW2 4021   1.159   3.833   2.115
 1296SOL     OW 4022   2.995   3.001   1.674
 1296SOL    HW1 4023   2.957   3.088   1.662
 1296SOL    HW2 4024   3.076   3.017   1.722
 1297SOL     OW 4025   3.390   2.998   3.258
 1297SOL    HW1 4026   3.316   3.050   3.290
 1297SOL    HW2 4027   3.425   3.049   3.185
 1298SOL     OW 4028   2.216   1.672   3.584
 1298SOL    HW1 4029   2.193   1.601   3.644
 1298SOL    HW2 4030   2.312   1.671   3.582
 1299SOL     OW 4031   0.984   3.531   2.698
 1299SOL    HW1 4032   1.007   3.579   2.778
 1299SOL    HW2 4033   0.894   3.558   2.678
 1300SOL     OW 4034   0.044   3.198   3.320
 1300SOL    HW1 4035   0.033   3.155   3.234
 1300SOL    HW2 4036   0.048   3.125   3.382
 1301SOL     OW 4037   3.237   0.470   3.530
 1301SOL    HW1 4038   3.181   0.420   3.471
 1301SOL    HW2 4039   3.214   0.561   3.515
 1302SOL     OW 4040   0.378   3.600   2.637
 1302SOL    HW1 4041   0.340   3.656   2.704
 1302SOL    HW2 4042   0.333   3.516   2.648
 1303SOL     OW 4043   0.195   3.629   2.245
 1303SOL    HW1 4044   0.185   3.685   2.322
 1303SOL    HW2 4045   0.274   3.661   2.201
 1304SOL     OW 4046   0.915   1.296   0.453
 1304SOL    HW1 4047   1.010   1.307   0.450
 1304SOL    HW2 4048   0.881   1.383   0.431
 1305SOL     OW 4049   2.261   2.682   2.820
 1305SOL    HW1 4050   2.249   2.758   2.877
 1305SOL    HW2 4051   2.175   2.669   2.779
 1306SOL     OW 4052   0.246   1.863   0.073
 1306SOL    HW1 4053   0.202   1.915   0.006
 1306SOL    HW2 4054   0.189   1.787   0.087
 1307SOL     OW 4055   3.246   0.401   1.954
 1307SOL    HW1 4056   3.150   0.398   1.948
 1307SOL    HW2 4057   3.268   0.489   1.925
 1308SOL     OW 4058   3.566   2.377   0.211
 1308SOL    HW1 4059   3.471   2.375   0.222
 1308SOL    HW2 4060   3.600   2.391   0.299
 1309SOL     OW 4061   1.703   1.507   2.928
 1309SOL    HW1 4062   1.732   1.424   2.965
 1309SOL    HW2 4063   1.633   1.536   2.986
 1310SOL     OW 4064   3.233   1.628   3.776
 1310SOL    HW1 4065   3.327   1.617   3.766
 1310SOL    HW2 4066   3.212   1.705   3.723
 1311SOL     OW 4067   2.867   1.619   1.131
 1311SOL    HW1 4068   2.891   1.587   1.044
 1311SOL    HW2 4069   2.786   1.572   1.152
 1312SOL     OW 4070   1.195   0.796   1.125
 1312SOL    HW1 4071   1.129   0.862   1.106
 1312SOL    HW2 4072   1.173   0.723   1.067
 1313SOL     OW 4073   0.176   3.819   0.847
 1313SOL    HW1 4074   0.128   3.813   0.929
 1313SOL    HW2 4075   0.268   3.813   0.873
 1314SOL     OW 4076   0.704   1.310   1.840
 1314SOL    HW1 4077   0.685   1.396   1.803
 1314SOL    HW2 4078   0.618   1.271   1.855
 1315SOL     OW 4079   2.656   1.426   1.694
 1315SOL    HW1 4080   2.625   1.493   1.755
 1315SOL    HW2 4081   2.632   1.459   1.607
 1316SOL     OW 4082   3.275   2.286   3.744
 1316SOL    HW1 4083   3.263   2.248   3.832
 1316SOL    HW2 4084   3.186   2.296   3.710
 1317SOL     OW 4085   1.646   0.726   2.128
 1317SOL    HW1 4086   1.621   0.685   2.211
 1317SOL    HW2 4087   1.568   0.718   2.073
 1318SOL     OW 4088   3.651   2.033   2.629
 1318SOL    HW1 4089   3.584   2.079   2.578
 1318SOL    HW2 4090   3.634   2.060   2.719
 1319SOL     OW 4091   0.636   1.740   1.272
 1319SOL    HW1 4092   0.722   1.719   1.309
 1319SOL    HW2 4093   0.589   1.657   1.271
 1320SOL     OW 4094   0.086   3.111   2.154
 1320SOL    HW1 4095   0.006   3.091   2.203
 1320SOL    HW2 4096   0.127   3.183   2.203
 1321SOL     OW 4097   2.432   1.293   0.592
 1321SOL    HW1 4098   2.390   1.238   0.658
 1321SOL    HW2 4099   2.376   1.370   0.587
 1322SOL     OW 4100   1.103   1.756   1.640
 1322SOL    HW1 4101   1.069   1.840   1.672
 1322SOL    HW2 4102   1.027   1.713   1.601
 1323SOL     OW 4103   3.851   1.890   1.503
 1323SOL    HW1 4104   3.898   1.933   1.575
 1323SOL    HW2 4105   3.759   1.914   1.517
 1324SOL     OW 4106   0.999   3.150   0.398
 1324SOL    HW1 4107   0.974   3.060   0.377
 1324SOL    HW2 4108   0.920   3.201   0.379
 1325SOL     OW 4109   3.341   0.734   3.922
 1325SOL    HW1 4110   3.388   0.711   3.842
 1325SOL    HW2 4111   3.346   0.656   3.977
 1326SOL     OW 4112   1.178   0.457   3.015
 1326SOL    HW1 4113   1.199   0.549   3.029
 1326SOL    HW2 4114   1.084   0.456   2.997
 1327SOL     OW 4115   0.080   3.613   0.014
 1327SOL    HW1 4116   0.069   3.637   0.106
 1327SOL    HW2 4117   0.175   3.609   0.002
 1328SOL     OW 4118   1.056   0.815   0.765
 1328SOL    HW1 4119   0.996   0.767   0.707
 1328SOL    HW2 4120   1.087   0.889   0.712
 1329SOL     OW 4121   3.036   1.429   0.258
 1329SOL    HW1 4122   2.990   1.507   0.289
 1329SOL    HW2 4123   2.991   1.356   0.300
 1330SOL     OW 4124   0.705   0.526   3.155
 1330SOL    HW1 4125   0.682   0.607   3.110
 1330SOL    HW2 4126   0.752   0.553   3.233
 1331SOL     OW 4127   0.493   2.923   3.744
 1331SOL    HW1 4128   0.565   2.934   3.683
 1331SOL    HW2 4129   0.417   2.959   3.699
 1332SOL     OW 4130   2.648   0.539   0.962
 1332SOL    HW1 4131   2.743   0.547   0.966
 1332SOL    HW2 4132   2.625   0.498   1.046
 1333SOL     OW 4133   0.536   1.439   0.371
 1333SOL    HW1 4134   0.504   1.368   0.427
 1333SOL    HW2 4135   0.519   1.410   0.282
 1334SOL     OW 4136   2.777   3.781   0.314
 1334SOL    HW1 4137   2.783   3.876   0.323
 1334SOL    HW2 4138   2.735   3.767   0.229
 1335SOL     OW 4139   2.030   0.790   2.668
 1335SOL    HW1 4140   1.973   0.859   2.701
 1335SOL    HW2 4141   2.052   0.818   2.579
 1336SOL     OW 4142   3.838   2.795   3.127
 1336SOL    HW1 4143   3.853   2.725   3.063
 1336SOL    HW2 4144   3.743   2.803   3.131
 1337SOL     OW 4145   3.462   3.058   0.983
 1337SOL    HW1 4146   3.421   2.974   1.006
 1337SOL    HW2 4147   3.554   3.046   1.005
 1338SOL     OW 4148   2.616   0.683   1.807
 1338SOL    HW1 4149   2.597   0.709   1.897
 1338SOL    HW2 4150   2.546   0.723   1.755
 1339SOL     OW 4151   3.588   1.420   3.001
 1339SOL    HW1 4152   3.676   1.398   3.031
 1339SOL    HW2 4153   3.571   1.507   3.035
 1340SOL     OW 4154   0.860   3.616   2.436
 1340SOL    HW1 4155   0.865   3.699   2.484
 1340SOL    HW2 4156   0.828   3.641   2.349
 1341SOL     OW 4157   3.880   1.406   3.642
 1341SOL    HW1 4158   3.908   1.400   3.734
 1341SOL    HW2 4159   3.847   1.495   3.633
 1342SOL     OW 4160   2.167   3.193   0.584
 1342SOL    HW1 4161   2.148   3.272   0.635
 1342SOL    HW2 4162   2.087   3.178   0.532
 1343SOL     OW 4163   1.769   1.536   2.185
 1343SOL    HW1 4164   1.812   1.456   2.153
 1343SOL    HW2 4165   1.822   1.562   2.261
 1344SOL     OW 4166   3.724   0.750   0.874
 1344SOL    HW1 4167   3.789   0.732   0.805
 1344SOL    HW2 4168   3.682   0.665   0.889
 1345SOL     OW 4169   0.403   3.802   0.999
 1345SOL    HW1 4170   0.487   3.765   1.026
 1345SOL    HW2 4171   0.366   3.838   1.080
 1346SOL     OW 4172   2.024   0.320   1.171
 1346SOL    HW1 4173   2.082   0.270   1.113
 1346SOL    HW2 4174   1.936   0.287   1.150
 1347SOL     OW 4175   3.186   0.190   2.143
 1347SOL    HW1 4176   3.266   0.198   2.092
 1347SOL    HW2 4177   3.214   0.201   2.234
 1348SOL     OW 4178   3.255   0.177   2.855
 1348SOL    HW1 4179   3.237   0.255   2.907
 1348SOL    HW2 4180   3.214   0.106   2.905
 1349SOL     OW 4181   2.229   3.537   1.676
 1349SOL    HW1 4182   2.151   3.521   1.622
 1349SOL    HW2 4183   2.302   3.510   1.621
 1350SOL     OW 4184   1.078   2.860   0.305
 1350SOL    HW1 4185   1.164   2.821   0.288
 1350SOL    HW2 4186   1.059   2.910   0.225
 1351SOL     OW 4187   0.113   3.692   0.284
 1351SOL    HW1 4188   0.052   3.684   0.358
 1351SOL    HW2 4189   0.146   3.781   0.289
 1352SOL     OW 4190   0.153   2.608   1.257
 1352SOL    HW1 4191   0.204   2.545   1.206
 1352SOL    HW2 4192   0.206   2.624   1.335
 1353SOL     OW 4193   1.042   2.959   2.724
 1353SOL    HW1 4194   1.068   2.871   2.753
 1353SOL    HW2 4195   1.058   2.958   2.630
 1354SOL     OW 4196   0.264   2.924   3.251
 1354SOL    HW1 4197   0.318   2.970   3.315
 1354SOL    HW2 4198   0.328   2.877   3.196
 1355SOL     OW 4199   3.260   2.983   0.113
 1355SOL    HW1 4200   3.292   2.893   0.123
 1355SOL    HW2 4201   3.335   3.038   0.136
 1356SOL     OW 4202   3.917   3.579   0.498
 1356SOL    HW1 4203   3.975   3.556   0.571
 1356SOL    HW2 4204   3.865   3.652   0.531
 1357SOL     OW 4205   3.597   3.188   3.363
 1357SOL    HW1 4206   3.680   3.141   3.362
 1357SOL    HW2 4207   3.615   3.269   3.412
 1358SOL     OW 4208   0.101   2.067   3.744
 1358SOL    HW1 4209   0.173   2.105   3.694
 1358SOL    HW2 4210   0.108   2.109   3.830
 1359SOL     OW 4211   1.438   0.961   3.335
 1359SOL    HW1 4212   1.343   0.954   3.331
 1359SOL    HW2 4213   1.456   0.994   3.423
 1360SOL     OW 4214   0.042   3.010   3.112
 1360SOL    HW1 4215   0.128   2.981   3.140
 1360SOL    HW2 4216  -0.014   2.933   3.123
 1361SOL     OW 4217   1.935   3.204   0.354
 1361SOL    HW1 4218   1.919   3.230   0.263
 1361SOL    HW2 4219   1.911   3.281   0.405
 1362SOL     OW 4220   1.862   3.408   3.607
 1362SOL    HW1 4221   1.769   3.397   3.631
 1362SOL    HW2 4222   1.881   3.334   3.550
 1363SOL     OW 4223   1.535   2.174   0.486
 1363SOL    HW1 4224   1.476   2.165   0.561
 1363SOL    HW2 4225   1.607   2.229   0.519
 1364SOL     OW 4226   2.291   0.726   3.847
 1364SOL    HW1 4227   2.233   0.651   3.858
 1364SOL    HW2 4228   2.369   0.704   3.899
 1365SOL     OW 4229   1.934   1.523   3.146
 1365SOL    HW1 4230   1.893   1.565   3.221
 1365SOL    HW2 4231   1.868   1.527   3.077
 1366SOL     OW 4232   0.046   0.827   3.681
 1366SOL    HW1 4233   0.112   0.877   3.729
 1366SOL    HW2 4234   0.018   0.759   3.743
 1367SOL     OW 4235   0.160   2.699   2.978
 1367SOL    HW1 4236   0.192   2.767   2.919
 1367SOL    HW2 4237   0.234   2.680   3.036
 1368SOL     OW 4238   1.250   1.902   3.499
 1368SOL    HW1 4239   1.254   1.932   3.590
 1368SOL    HW2 4240   1.221   1.979   3.450
 1369SOL     OW 4241   2.485   3.579   2.488
 1369SOL    HW1 4242   2.401   3.556   2.527
 1369SOL    HW2 4243   2.470   3.663   2.445
 1370SOL     OW 4244   1.805   0.802   0.152
 1370SOL    HW1 4245   1.894   0.766   0.152
 1370SOL    HW2 4246   1.749   0.729   0.175
 1371SOL     OW 4247   0.828   3.155   3.373
 1371SOL    HW1 4248   0.790   3.234   3.334
 1371SOL    HW2 4249   0.883   3.119   3.304
 1372SOL     OW 4250   1.930   1.411   3.587
 1372SOL    HW1 4251   1.927   1.452   3.674
 1372SOL    HW2 4252   1.897   1.478   3.528
 1373SOL     OW 4253   0.847   2.340   0.283
 1373SOL    HW1 4254   0.891   2.283   0.220
 1373SOL    HW2 4255   0.871   2.305   0.368
 1374SOL     OW 4256   1.842   1.058   2.441
 1374SOL    HW1 4257   1.850   1.145   2.402
 1374SOL    HW2 4258   1.753   1.056   2.477
 1375SOL     OW 4259   0.206   3.023   0.458
 1375SOL    HW1 4260   0.165   2.975   0.531
 1375SOL    HW2 4261   0.212   2.959   0.387
 1376SOL     OW 4262   0.511   0.377   1.925
 1376SOL    HW1 4263   0.560   0.456   1.947
 1376SOL    HW2 4264   0.574   0.322   1.878
 1377SOL     OW 4265   3.651   0.073   3.908
 1377SOL    HW1 4266   3.667   0.086   3.815
 1377SOL    HW2 4267   3.736   0.086   3.949
 1378SOL     OW 4268   2.027   0.576   3.584
 1378SOL    HW1 4269   2.122   0.568   3.578
 1378SOL    HW2 4270   2.005   0.649   3.527
 1379SOL     OW 4271   3.601   2.218   1.781
 1379SOL    HW1 4272   3.560   2.137   1.810
 1379SOL    HW2 4273   3.635   2.259   1.860
 1380SOL     OW 4274   3.217   0.489   1.282
 1380SOL    HW1 4275   3.130   0.519   1.254
 1380SOL    HW2 4276   3.238   0.418   1.222
 1381SOL     OW 4277   3.914   0.742   3.271
 1381SOL    HW1 4278   3.870   0.770   3.351
 1381SOL    HW2 4279   3.885   0.652   3.258
 1382SOL     OW 4280   0.631   3.014   1.636
 1382SOL    HW1 4281   0.580   2.974   1.706
 1382SOL    HW2 4282   0.595   2.977   1.555
 1383SOL     OW 4283   0.811   1.949   0.825
 1383SOL    HW1 4284   0.843   1.866   0.858
 1383SOL    HW2 4285   0.783   1.931   0.736
 1384SOL     OW 4286   2.079   2.719   0.852
 1384SOL    HW1 4287   2.017   2.761   0.912
 1384SOL    HW2 4288   2.143   2.677   0.910
 1385SOL     OW 4289   1.025   3.884   3.208
 1385SOL    HW1 4290   1.066   3.843   3.285
 1385SOL    HW2 4291   1.092   3.944   3.174
 1386SOL     OW 4292   0.949   2.760   0.663
 1386SOL    HW1 4293   0.854   2.762   0.650
 1386SOL    HW2 4294   0.960   2.731   0.754
 1387SOL     OW 4295   0.030   0.678   0.176
 1387SOL    HW1 4296   0.074   0.758   0.148
 1387SOL    HW2 4297   0.029   0.683   0.272
 1388SOL     OW 4298   0.075   2.816   0.158
 1388SOL    HW1 4299   0.108   2.870   0.086
 1388SOL    HW2 4300   0.153   2.782   0.200
 1389SOL     OW 4301   0.083   0.249   3.589
 1389SOL    HW1 4302   0.021   0.318   3.566
 1389SOL    HW2 4303   0.091   0.256   3.684
 1390SOL     OW 4304   2.633   3.116   3.079
 1390SOL    HW1 4305   2.541   3.140   3.074
 1390SOL    HW2 4306   2.650   3.102   3.172
 1391SOL     OW 4307   1.308   2.031   2.870
 1391SOL    HW1 4308   1.342   2.016   2.959
 1391SOL    HW2 4309   1.234   2.090   2.883
 1392SOL     OW 4310   1.221   1.793   3.214
 1392SOL    HW1 4311   1.258   1.824   3.296
 1392SOL    HW2 4312   1.190   1.704   3.233
 1393SOL     OW 4313   1.506   3.006   3.458
 1393SOL    HW1 4314   1.505   3.102   3.450
 1393SOL    HW2 4315   1.452   2.975   3.385
 1394SOL     OW 4316   0.218   0.794   1.071
 1394SOL    HW1 4317   0.293   0.793   1.012
 1394SOL    HW2 4318   0.241   0.732   1.140
 1395SOL     OW 4319   2.742   2.340   1.531
 1395SOL    HW1 4320   2.670   2.285   1.563
 1395SOL    HW2 4321   2.704   2.428   1.527
 1396SOL     OW 4322   3.059   1.455   2.046
 1396SOL    HW1 4323   3.133   1.505   2.082
 1396SOL    HW2 4324   3.075   1.454   1.951
 1397SOL     OW 4325   3.326   2.100   3.481
 1397SOL    HW1 4326   3.347   2.017   3.525
 1397SOL    HW2 4327   3.344   2.167   3.546
 1398SOL     OW 4328   2.740   2.280   2.053
 1398SOL    HW1 4329   2.673   2.274   2.121
 1398SOL    HW2 4330   2.707   2.224   1.983
 1399SOL     OW 4331   1.044   1.870   0.613
 1399SOL    HW1 4332   0.953   1.880   0.587
 1399SOL    HW2 4333   1.093   1.924   0.551
 1400SOL     OW 4334   1.435   1.681   3.517
 1400SOL    HW1 4335   1.396   1.759   3.477
 1400SOL    HW2 4336   1.462   1.711   3.604
 1401SOL     OW 4337   2.272   0.990   0.481
 1401SOL    HW1 4338   2.177   0.991   0.471
 1401SOL    HW2 4339   2.287   0.976   0.574
 1402SOL     OW 4340   3.622   2.751   3.634
 1402SOL    HW1 4341   3.578   2.666   3.640
 1402SOL    HW2 4342   3.568   2.801   3.573
 1403SOL     OW 4343   3.228   0.157   3.685
 1403SOL    HW1 4344   3.279   0.215   3.628
 1403SOL    HW2 4345   3.239   0.193   3.773
 1404SOL     OW 4346   1.791   0.335   2.223
 1404SOL    HW1 4347   1.769   0.310   2.134
 1404SOL    HW2 4348   1.749   0.269   2.278
 1405SOL     OW 4349   3.904   2.584   2.988
 1405SOL    HW1 4350   3.986   2.633   2.985
 1405SOL    HW2 4351   3.883   2.567   2.896
 1406SOL     OW 4352   2.889   1.275   1.604
 1406SOL    HW1 4353   2.818   1.327   1.641
 1406SOL    HW2 4354   2.862   1.184   1.618
 1407SOL     OW 4355   3.671   1.938   1.105
 1407SOL    HW1 4356   3.673   1.878   1.180
 1407SOL    HW2 4357   3.607   2.005   1.129
 1408SOL     OW 4358   3.434   2.171   1.299
 1408SOL    HW1 4359   3.356   2.203   1.255
 1408SOL    HW2 4360   3.424   2.076   1.300
 1409SOL     OW 4361   3.324   1.548   2.077
 1409SOL    HW1 4362   3.418   1.560   2.063
 1409SOL    HW2 4363   3.317   1.487   2.150
 1410SOL     OW 4364   2.993   0.256   1.517
 1410SOL    HW1 4365   3.026   0.172   1.485
 1410SOL    HW2 4366   2.898   0.245   1.522
 1411SOL     OW 4367   1.907   2.104   2.128
 1411SOL    HW1 4368   1.917   2.013   2.098
 1411SOL    HW2 4369   1.881   2.152   2.050
 1412SOL     OW 4370   2.852   1.264   2.604
 1412SOL    HW1 4371   2.861   1.284   2.697
 1412SOL    HW2 4372   2.923   1.204   2.585
 1413SOL     OW 4373   0.235   3.455   2.983
 1413SOL    HW1 4374   0.256   3.548   2.994
 1413SOL    HW2 4375   0.202   3.429   3.069
 1414SOL     OW 4376   0.920   3.056   2.960
 1414SOL    HW1 4377   0.987   3.071   3.026
 1414SOL    HW2 4378   0.968   3.049   2.877
 1415SOL     OW 4379   1.258   3.772   0.640
 1415SOL    HW1 4380   1.234   3.724   0.719
 1415SOL    HW2 4381   1.257   3.705   0.571
 1416SOL     OW 4382   1.787   1.924   0.000
 1416SOL    HW1 4383   1.861   1.984   0.005
 1416SOL    HW2 4384   1.822   1.839   0.026
 1417SOL     OW 4385   0.076   0.090   3.323
 1417SOL    HW1 4386   0.092   0.130   3.408
 1417SOL    HW2 4387  -0.019   0.094   3.312
 1418SOL     OW 4388   3.490   2.291   2.661
 1418SOL    HW1 4389   3.405   2.248   2.673
 1418SOL    HW2 4390   3.486   2.369   2.715
 1419SOL     OW 4391   0.243   0.219   2.627
 1419SOL    HW1 4392   0.255   0.204   2.720
 1419SOL    HW2 4393   0.291   0.300   2.610
 1420SOL     OW 4394   3.244   2.028   1.543
 1420SOL    HW1 4395   3.211   2.100   1.489
 1420SOL    HW2 4396   3.244   2.063   1.632
 1421SOL     OW 4397   2.385   1.162   2.861
 1421SOL    HW1 4398   2.425   1.154   2.948
 1421SOL    HW2 4399   2.391   1.075   2.823
 1422SOL     OW 4400   1.266   2.559   3.639
 1422SOL    HW1 4401   1.277   2.467   3.661
 1422SOL    HW2 4402   1.195   2.589   3.696
 1423SOL     OW 4403   0.438   0.173   1.267
 1423SOL    HW1 4404   0.414   0.084   1.294
 1423SOL    HW2 4405   0.375   0.229   1.310
 1424SOL     OW 4406   2.001   0.258   2.627
 1424SOL    HW1 4407   2.034   0.298   2.547
 1424SOL    HW2 4408   2.078   0.218   2.668
 1425SOL     OW 4409   2.262   1.882   3.397
 1425SOL    HW1 4410   2.240   1.833   3.477
 1425SOL    HW2 4411   2.178   1.892   3.352
 1426SOL     OW 4412   1.595   1.236   3.194
 1426SOL    HW1 4413   1.597   1.151   3.239
 1426SOL    HW2 4414   1.628   1.218   3.106
 1427SOL     OW 4415   2.038   0.858   2.409
 1427SOL    HW1 4416   1.996   0.944   2.404
 1427SOL    HW2 4417   1.974   0.798   2.372
 1428SOL     OW 4418   3.858   2.444   3.703
 1428SOL    HW1 4419   3.805   2.385   3.650
 1428SOL    HW2 4420   3.811   2.451   3.786
 1429SOL     OW 4421   3.887   0.482   3.617
 1429SOL    HW1 4422   3.955   0.543   3.588
 1429SOL    HW2 4423   3.809   0.506   3.568
 1430SOL     OW 4424   2.452   0.236   2.277
 1430SOL    HW1 4425   2.513   0.169   2.306
 1430SOL    HW2 4426   2.432   0.286   2.356
 1431SOL     OW 4427   2.610   2.272   0.212
 1431SOL    HW1 4428   2.681   2.254   0.273
 1431SOL    HW2 4429   2.625   2.213   0.138
 1432SOL     OW 4430   1.091   2.363   3.200
 1432SOL    HW1 4431   0.998   2.377   3.182
 1432SOL    HW2 4432   1.128   2.452   3.206
 1433SOL     OW 4433   3.309   3.088   1.338
 1433SOL    HW1 4434   3.308   2.996   1.365
 1433SOL    HW2 4435   3.332   3.086   1.245
 1434SOL     OW 4436   2.452   0.166   2.994
 1434SOL    HW1 4437   2.415   0.080   2.973
 1434SOL    HW2 4438   2.518   0.181   2.925
 1435SOL     OW 4439   1.585   1.512   3.198
 1435SOL    HW1 4440   1.490   1.522   3.201
 1435SOL    HW2 4441   1.598   1.418   3.184
 1436SOL     OW 4442   3.588   3.492   3.184
 1436SOL    HW1 4443   3.669   3.442   3.190
 1436SOL    HW2 4444   3.599   3.548   3.107
 1437SOL     OW 4445   2.460   1.092   0.113
 1437SOL    HW1 4446   2.510   1.043   0.048
 1437SOL    HW2 4447   2.513   1.086   0.193
 1438SOL     OW 4448   3.493   0.623   2.825
 1438SOL    HW1 4449   3.415   0.593   2.779
 1438SOL    HW2 4450   3.460   0.668   2.903
 1439SOL     OW 4451   0.653   2.642   2.080
 1439SOL    HW1 4452   0.747   2.646   2.096
 1439SOL    HW2 4453   0.640   2.685   1.996
 1440SOL     OW 4454   0.962   1.955   1.850
 1440SOL    HW1 4455   0.960   1.888   1.918
 1440SOL    HW2 4456   0.993   2.034   1.895
 1441SOL     OW 4457   1.481   0.415   2.111
 1441SOL    HW1 4458   1.557   0.369   2.074
 1441SOL    HW2 4459   1.518   0.476   2.174
 1442SOL     OW 4460   1.632   3.891   0.884
 1442SOL    HW1 4461   1.570   3.895   0.812
 1442SOL    HW2 4462   1.582   3.856   0.957
 1443SOL     OW 4463   1.737   0.291   1.953
 1443SOL    HW1 4464   1.732   0.327   1.864
 1443SOL    HW2 4465   1.782   0.207   1.941
 1444SOL     OW 4466   0.594   2.418   0.163
 1444SOL    HW1 4467   0.552   2.392   0.245
 1444SOL    HW2 4468   0.651   2.344   0.139
 1445SOL     OW 4469   2.643   2.869   2.977
 1445SOL    HW1 4470   2.665   2.955   3.011
 1445SOL    HW2 4471   2.628   2.882   2.884
 1446SOL     OW 4472   0.179   3.386   0.829
 1446SOL    HW1 4473   0.137   3.315   0.876
 1446SOL    HW2 4474   0.250   3.415   0.885
 1447SOL     OW 4475   2.560   3.564   3.367
 1447SOL    HW1 4476   2.507   3.601   3.437
 1447SOL    HW2 4477   2.605   3.639   3.329
 1448SOL     OW 4478   3.685   2.411   0.468
 1448SOL    HW1 4479   3.776   2.385   0.458
 1448SOL    HW2 4480   3.688   2.491   0.520
 1449SOL     OW 4481   0.848   3.760   1.358
 1449SOL    HW1 4482   0.900   3.699   1.306
 1449SOL    HW2 4483   0.783   3.794   1.296
 1450SOL     OW 4484   0.696   2.412   2.250
 1450SOL    HW1 4485   0.692   2.490   2.193
 1450SOL    HW2 4486   0.654   2.441   2.331
 1451SOL     OW 4487   1.634   3.178   3.813
 1451SOL    HW1 4488   1.607   3.219   3.731
 1451SOL    HW2 4489   1.569   3.109   3.827
 1452SOL     OW 4490   1.900   0.925   2.106
 1452SOL    HW1 4491   1.964   0.868   2.148
 1452SOL    HW2 4492   1.820   0.872   2.102
 1453SOL     OW 4493   0.343   1.259   3.782
 1453SOL    HW1 4494   0.293   1.307   3.715
 1453SOL    HW2 4495   0.434   1.268   3.754
 1454SOL     OW 4496   3.100   0.035   3.001
 1454SOL    HW1 4497   3.096  -0.059   2.980
 1454SOL    HW2 4498   3.008   0.060   3.013
 1455SOL     OW 4499   3.345   0.827   0.650
 1455SOL    HW1 4500   3.271   0.885   0.630
 1455SOL    HW2 4501   3.387   0.812   0.565
 1456SOL     OW 4502   2.190   3.747   1.422
 1456SOL    HW1 4503   2.168   3.788   1.506
 1456SOL    HW2 4504   2.152   3.659   1.427
 1457SOL     OW 4505   1.227   2.726   2.714
 1457SOL    HW1 4506   1.184   2.707   2.630
 1457SOL    HW2 4507   1.316   2.750   2.690
 1458SOL     OW 4508   2.827   0.069   3.033
 1458SOL    HW1 4509   2.811  -0.025   3.028
 1458SOL    HW2 4510   2.813   0.090   3.126
 1459SOL     OW 4511   0.814   3.653   2.145
 1459SOL    HW1 4512   0.732   3.695   2.123
 1459SOL    HW2 4513   0.881   3.706   2.102
 1460SOL     OW 4514   1.143   1.474   2.295
 1460SOL    HW1 4515   1.149   1.537   2.223
 1460SOL    HW2 4516   1.113   1.526   2.369
 1461SOL     OW 4517   3.461   1.834   2.945
 1461SOL    HW1 4518   3.524   1.853   3.014
 1461SOL    HW2 4519   3.393   1.900   2.956
 1462SOL     OW 4520   2.807   0.929   0.709
 1462SOL    HW1 4521   2.745   0.975   0.651
 1462SOL    HW2 4522   2.751   0.873   0.763
 1463SOL     OW 4523   3.842   1.097   0.195
 1463SOL    HW1 4524   3.813   1.185   0.218
 1463SOL    HW2 4525   3.762   1.050   0.172
 1464SOL     OW 4526   1.452   0.652   1.906
 1464SOL    HW1 4527   1.447   0.569   1.954
 1464SOL    HW2 4528   1.361   0.675   1.888
 1465SOL     OW 4529   2.556   0.702   3.640
 1465SOL    HW1 4530   2.638   0.718   3.593
 1465SOL    HW2 4531   2.580   0.704   3.732
 1466SOL     OW 4532   3.793   3.969   0.372
 1466SOL    HW1 4533   3.761   3.897   0.426
 1466SOL    HW2 4534   3.714   4.014   0.343
 1467SOL     OW 4535   1.302   0.400   0.126
 1467SOL    HW1 4536   1.226   0.454   0.148
 1467SOL    HW2 4537   1.308   0.406   0.030
 1468SOL     OW 4538   1.388   3.386   2.595
 1468SOL    HW1 4539   1.362   3.479   2.592
 1468SOL    HW2 4540   1.452   3.377   2.525
 1469SOL     OW 4541   1.477   0.362   0.747
 1469SOL    HW1 4542   1.482   0.272   0.716
 1469SOL    HW2 4543   1.423   0.407   0.682
 1470SOL     OW 4544   0.818   1.123   3.473
 1470SOL    HW1 4545   0.815   1.194   3.408
 1470SOL    HW2 4546   0.903   1.081   3.458
 1471SOL     OW 4547   2.024   1.855   2.972
 1471SOL    HW1 4548   1.934   1.840   2.942
 1471SOL    HW2 4549   2.077   1.793   2.922
 1472SOL     OW 4550   2.387   3.171   2.626
 1472SOL    HW1 4551   2.480   3.182   2.602
 1472SOL    HW2 4552   2.348   3.256   2.606
 1473SOL     OW 4553   3.563   1.872   3.612
 1473SOL    HW1 4554   3.546   1.961   3.644
 1473SOL    HW2 4555   3.538   1.815   3.685
 1474SOL     OW 4556   3.923   2.073   3.516
 1474SOL    HW1 4557   3.974   2.070   3.597
 1474SOL    HW2 4558   3.859   2.143   3.530
 1475SOL     OW 4559   1.146   1.208   0.004
 1475SOL    HW1 4560   1.075   1.145  -0.005
 1475SOL    HW2 4561   1.149   1.227   0.098
 1476SOL     OW 4562   0.037   1.829   2.576
 1476SOL    HW1 4563  -0.039   1.861   2.625
 1476SOL    HW2 4564   0.108   1.889   2.600
 1477SOL     OW 4565   1.768   2.328   0.540
 1477SOL    HW1 4566   1.702   2.391   0.566
 1477SOL    HW2 4567   1.844   2.381   0.516
 1478SOL     OW 4568   3.095   1.254   0.500
 1478SOL    HW1 4569   3.180   1.212   0.488
 1478SOL    HW2 4570   3.032   1.187   0.474
 1479SOL     OW 4571   0.087   0.435   2.213
 1479SOL    HW1 4572   0.032   0.504   2.175
 1479SOL    HW2 4573   0.093   0.458   2.305
 1480SOL     OW 4574   2.834   2.249   0.034
 1480SOL    HW1 4575   2.894   2.321   0.014
 1480SOL    HW2 4576   2.868   2.211   0.115
 1481SOL     OW 4577   1.644   1.964   2.660
 1481SOL    HW1 4578   1.681   1.971   2.571
 1481SOL    HW2 4579   1.717   1.985   2.718
 1482SOL     OW 4580   3.809   0.367   2.846
 1482SOL    HW1 4581   3.732   0.374   2.789
 1482SOL    HW2 4582   3.866   0.303   2.802
 1483SOL     OW 4583   2.858   1.992   2.417
 1483SOL    HW1 4584   2.937   2.040   2.394
 1483SOL    HW2 4585   2.861   1.985   2.512
 1484SOL     OW 4586   1.179   3.043   3.572
 1484SOL    HW1 4587   1.223   3.096   3.505
 1484SOL    HW2 4588   1.200   2.953   3.548
 1485SOL     OW 4589   0.328   0.541   2.655
 1485SOL    HW1 4590   0.323   0.607   2.586
 1485SOL    HW2 4591   0.238   0.532   2.686
 1486SOL     OW 4592   0.349   0.034   2.263
 1486SOL    HW1 4593   0.370   0.126   2.248
 1486SOL    HW2 4594   0.332  -0.001   2.176
 1487SOL     OW 4595   1.823   0.106   0.903
 1487SOL    HW1 4596   1.772   0.030   0.875
 1487SOL    HW2 4597   1.759   0.163   0.946
 1488SOL     OW 4598   3.345   3.016   2.153
 1488SOL    HW1 4599   3.437   3.018   2.128
 1488SOL    HW2 4600   3.343   2.971   2.238
 1489SOL     OW 4601   2.002   2.716   2.783
 1489SOL    HW1 4602   1.947   2.794   2.792
 1489SOL    HW2 4603   1.940   2.644   2.777
 1490SOL     OW 4604   1.362   0.810   2.919
 1490SOL    HW1 4605   1.309   0.740   2.880
 1490SOL    HW2 4606   1.309   0.843   2.992
 1491SOL     OW 4607   3.630   3.294   0.166
 1491SOL    HW1 4608   3.723   3.280   0.179
 1491SOL    HW2 4609   3.623   3.386   0.141
 1492SOL     OW 4610   1.274   1.049   0.776
 1492SOL    HW1 4611   1.267   1.092   0.861
 1492SOL    HW2 4612   1.334   0.976   0.790
 1493SOL     OW 4613   3.261   1.357   2.232
 1493SOL    HW1 4614   3.344   1.310   2.236
 1493SOL    HW2 4615   3.227   1.354   2.321
 1494SOL     OW 4616   3.790   3.491   1.063
 1494SOL    HW1 4617   3.765   3.490   0.970
 1494SOL    HW2 4618   3.796   3.584   1.085
 1495SOL     OW 4619   2.619   3.862   1.685
 1495SOL    HW1 4620   2.655   3.781   1.648
 1495SOL    HW2 4621   2.541   3.879   1.632
 1496SOL     OW 4622   1.986   1.010   0.453
 1496SOL    HW1 4623   1.921   0.968   0.397
 1496SOL    HW2 4624   1.959   1.102   0.456
 1497SOL     OW 4625   0.591   1.813   1.729
 1497SOL    HW1 4626   0.655   1.870   1.686
 1497SOL    HW2 4627   0.509   1.831   1.683
 1498SOL     OW 4628   2.915   2.061   2.110
 1498SOL    HW1 4629   2.943   2.126   2.175
 1498SOL    HW2 4630   2.826   2.087   2.087
 1499SOL     OW 4631   2.833   1.030   1.666
 1499SOL    HW1 4632   2.741   1.008   1.650
 1499SOL    HW2 4633   2.881   0.982   1.599
 1500SOL     OW 4634   2.575   3.075   0.205
 1500SOL    HW1 4635   2.487   3.090   0.238
 1500SOL    HW2 4636   2.566   3.073   0.110
 1501SOL     OW 4637   0.700   0.927   1.520
 1501SOL    HW1 4638   0.772   0.976   1.559
 1501SOL    HW2 4639   0.649   0.896   1.596
 1502SOL     OW 4640   0.079   1.143   1.435
 1502SOL    HW1 4641   0.042   1.224   1.398
 1502SOL    HW2 4642   0.073   1.080   1.364
 1503SOL     OW 4643   0.332   2.153   3.569
 1503SOL    HW1 4644   0.359   2.207   3.644
 1503SOL    HW2 4645   0.411   2.105   3.545
 1504SOL     OW 4646   2.095   1.153   0.814
 1504SOL    HW1 4647   2.121   1.217   0.747
 1504SOL    HW2 4648   2.023   1.196   0.861
 1505SOL     OW 4649   2.008   3.551   2.161
 1505SOL    HW1 4650   2.029   3.578   2.251
 1505SOL    HW2 4651   2.090   3.562   2.113
 1506SOL     OW 4652   1.104   2.950   3.141
 1506SOL    HW1 4653   1.140   2.863   3.156
 1506SOL    HW2 4654   1.135   3.002   3.216
 1507SOL     OW 4655   0.347   2.885   2.808
 1507SOL    HW1 4656   0.390   2.924   2.731
 1507SOL    HW2 4657   0.341   2.792   2.787
 1508SOL     OW 4658   3.878   0.287   1.763
 1508SOL    HW1 4659   3.841   0.350   1.825
 1508SOL    HW2 4660   3.817   0.288   1.689
 1509SOL     OW 4661   0.828   0.893   0.928
 1509SOL    HW1 4662   0.884   0.848   0.864
 1509SOL    HW2 4663   0.889   0.940   0.985
 1510SOL     OW 4664   3.493   1.636   0.401
 1510SOL    HW1 4665   3.491   1.689   0.481
 1510SOL    HW2 4666   3.410   1.656   0.357
 1511SOL     OW 4667   3.981   2.051   0.076
 1511SOL    HW1 4668   3.977   2.048   0.172
 1511SOL    HW2 4669   3.913   2.114   0.052
 1512SOL     OW 4670   1.741   2.523   2.739
 1512SOL    HW1 4671   1.801   2.465   2.786
 1512SOL    HW2 4672   1.678   2.464   2.697
 1513SOL     OW 4673   3.161   2.814   2.097
 1513SOL    HW1 4674   3.084   2.870   2.107
 1513SOL    HW2 4675   3.235   2.871   2.116
 1514SOL     OW 4676   0.490   3.195   1.330
 1514SOL    HW1 4677   0.568   3.150   1.361
 1514SOL    HW2 4678   0.426   3.126   1.317
 1515SOL     OW 4679   1.003   2.205   1.642
 1515SOL    HW1 4680   1.024   2.265   1.570
 1515SOL    HW2 4681   1.077   2.214   1.702
 1516SOL     OW 4682   0.704   2.963   2.759
 1516SOL    HW1 4683   0.800   2.964   2.754
 1516SOL    HW2 4684   0.685   2.986   2.850
 1517SOL     OW 4685   2.858   0.366   3.011
 1517SOL    HW1 4686   2.903   0.371   3.095
 1517SOL    HW2 4687   2.820   0.278   3.008
 1518SOL     OW 4688   3.234   0.570   1.538
 1518SOL    HW1 4689   3.256   0.661   1.516
 1518SOL    HW2 4690   3.253   0.521   1.459
 1519SOL     OW 4691   0.397   0.782   3.463
 1519SOL    HW1 4692   0.330   0.728   3.505
 1519SOL    HW2 4693   0.434   0.725   3.395
 1520SOL     OW 4694   2.308   1.890   2.124
 1520SOL    HW1 4695   2.287   1.942   2.046
 1520SOL    HW2 4696   2.244   1.818   2.122
 1521SOL     OW 4697   2.217   2.516   3.654
 1521SOL    HW1 4698   2.255   2.603   3.667
 1521SOL    HW2 4699   2.293   2.458   3.647
 1522SOL     OW 4700   0.571   1.512   1.668
 1522SOL    HW1 4701   0.485   1.495   1.708
 1522SOL    HW2 4702   0.587   1.604   1.684
 1523SOL     OW 4703   0.263   2.846   2.399
 1523SOL    HW1 4704   0.226   2.815   2.317
 1523SOL    HW2 4705   0.189   2.886   2.446
 1524SOL     OW 4706   1.005   0.175   2.826
 1524SOL    HW1 4707   0.942   0.148   2.894
 1524SOL    HW2 4708   1.029   0.265   2.850
 1525SOL     OW 4709   2.090   1.599   0.550
 1525SOL    HW1 4710   2.172   1.569   0.591
 1525SOL    HW2 4711   2.070   1.532   0.485
 1526SOL     OW 4712   2.389   3.128   3.504
 1526SOL    HW1 4713   2.387   3.217   3.539
 1526SOL    HW2 4714   2.329   3.129   3.429
 1527SOL     OW 4715   1.555   1.504   1.669
 1527SOL    HW1 4716   1.479   1.524   1.724
 1527SOL    HW2 4717   1.617   1.460   1.727
 1528SOL     OW 4718   1.140   3.758   3.451
 1528SOL    HW1 4719   1.083   3.767   3.528
 1528SOL    HW2 4720   1.170   3.667   3.454
 1529SOL     OW 4721   0.974  -0.030   0.783
 1529SOL    HW1 4722   1.062  -0.013   0.750
 1529SOL    HW2 4723   0.939   0.056   0.805
 1530SOL     OW 4724   1.804   3.044   2.009
 1530SOL    HW1 4725   1.853   3.110   1.960
 1530SOL    HW2 4726   1.775   3.090   2.088
 1531SOL     OW 4727   0.575   3.917   2.983
 1531SOL    HW1 4728   0.543   3.904   2.894
 1531SOL    HW2 4729   0.501   3.893   3.039
 1532SOL     OW 4730   0.084   3.503   2.014
 1532SOL    HW1 4731   0.040   3.583   2.040
 1532SOL    HW2 4732   0.163   3.499   2.069
 1533SOL     OW 4733   2.154   2.088   1.214
 1533SOL    HW1 4734   2.100   2.053   1.144
 1533SOL    HW2 4735   2.146   2.025   1.285
 1534SOL     OW 4736   1.827   0.793   3.413
 1534SOL    HW1 4737   1.795   0.709   3.379
 1534SOL    HW2 4738   1.750   0.849   3.415
 1535SOL     OW 4739   0.513   1.736   2.100
 1535SOL    HW1 4740   0.450   1.729   2.171
 1535SOL    HW2 4741   0.510   1.828   2.074
 1536SOL     OW 4742   2.499   1.674   3.544
 1536SOL    HW1 4743   2.565   1.742   3.532
 1536SOL    HW2 4744   2.529   1.601   3.489
 1537SOL     OW 4745   1.624   0.112   0.538
 1537SOL    HW1 4746   1.557   0.166   0.496
 1537SOL    HW2 4747   1.683   0.174   0.581
 1538SOL     OW 4748   1.603   2.524   0.579
 1538SOL    HW1 4749   1.539   2.546   0.647
 1538SOL    HW2 4750   1.564   2.556   0.498
 1539SOL     OW 4751   3.539   2.111   3.767
 1539SOL    HW1 4752   3.527   2.082   3.858
 1539SOL    HW2 4753   3.464   2.169   3.751
 1540SOL     OW 4754   0.853   2.474   1.725
 1540SOL    HW1 4755   0.920   2.472   1.794
 1540SOL    HW2 4756   0.858   2.387   1.684
 1541SOL     OW 4757   1.541   3.903   3.493
 1541SOL    HW1 4758   1.528   3.996   3.475
 1541SOL    HW2 4759   1.570   3.899   3.584
 1542SOL     OW 4760   2.942   1.743   2.577
 1542SOL    HW1 4761   2.919   1.823   2.529
 1542SOL    HW2 4762   3.038   1.742   2.575
 1543SOL     OW 4763   1.870   0.068   1.600
 1543SOL    HW1 4764   1.904   0.019   1.525
 1543SOL    HW2 4765   1.948   0.096   1.648
 1544SOL     OW 4766   3.881   0.707   2.749
 1544SOL    HW1 4767   3.885   0.679   2.841
 1544SOL    HW2 4768   3.799   0.757   2.743
 1545SOL     OW 4769   3.886   0.571   2.976
 1545SOL    HW1 4770   3.976   0.549   3.001
 1545SOL    HW2 4771   3.860   0.500   2.916
 1546SOL     OW 4772   1.660   1.220   2.070
 1546SOL    HW1 4773   1.606   1.237   2.148
 1546SOL    HW2 4774   1.750   1.223   2.102
 1547SOL     OW 4775   1.090   2.488   1.883
 1547SOL    HW1 4776   1.126   2.570   1.850
 1547SOL    HW2 4777   1.137   2.420   1.835
 1548SOL     OW 4778   1.305   0.731   0.411
 1548SOL    HW1 4779   1.274   0.813   0.372
 1548SOL    HW2 4780   1.330   0.676   0.336
 1549SOL     OW 4781   2.304   0.860   2.357
 1549SOL    HW1 4782   2.218   0.889   2.387
 1549SOL    HW2 4783   2.288   0.776   2.313
 1550SOL     OW 4784   2.675   1.449   0.306
 1550SOL    HW1 4785   2.605   1.514   0.314
 1550SOL    HW2 4786   2.744   1.480   0.364
 1551SOL     OW 4787   0.135   3.256   0.359
 1551SOL    HW1 4788   0.151   3.197   0.433
 1551SOL    HW2 4789   0.223   3.284   0.333
 1552SOL     OW 4790   3.584   2.532   3.289
 1552SOL    HW1 4791   3.557   2.621   3.265
 1552SOL    HW2 4792   3.679   2.532   3.277
 1553SOL     OW 4793   3.827   2.991   2.216
 1553SOL    HW1 4794   3.817   2.901   2.246
 1553SOL    HW2 4795   3.740   3.016   2.185
 1554SOL     OW 4796   2.523   2.936   2.731
 1554SOL    HW1 4797   2.513   2.872   2.661
 1554SOL    HW2 4798   2.470   3.010   2.703
 1555SOL     OW 4799   1.872   0.500   0.954
 1555SOL    HW1 4800   1.838   0.454   1.031
 1555SOL    HW2 4801   1.890   0.589   0.985
 1556SOL     OW 4802   1.020   2.280   3.647
 1556SOL    HW1 4803   0.931   2.317   3.648
 1556SOL    HW2 4804   1.077   2.355   3.662
 1557SOL     OW 4805  -0.010   2.326   0.417
 1557SOL    HW1 4806   0.045   2.309   0.340
 1557SOL    HW2 4807   0.021   2.265   0.483
 1558SOL     OW 4808   2.901   0.480   3.909
 1558SOL    HW1 4809   2.901   0.555   3.968
 1558SOL    HW2 4810   2.975   0.495   3.851
 1559SOL     OW 4811   2.245   2.849   2.523
 1559SOL    HW1 4812   2.171   2.801   2.486
 1559SOL    HW2 4813   2.322   2.814   2.478
 1560SOL     OW 4814   1.945   2.816   3.601
 1560SOL    HW1 4815   1.994   2.892   3.632
 1560SOL    HW2 4816   1.978   2.801   3.512
 1561SOL     OW 4817   1.865   0.360   3.152
 1561SOL    HW1 4818   1.931   0.378   3.085
 1561SOL    HW2 4819   1.906   0.295   3.209
 1562SOL     OW 4820   2.220   0.966   0.042
 1562SOL    HW1 4821   2.304   1.002   0.069
 1562SOL    HW2 4822   2.243   0.898  -0.022
 1563SOL     OW 4823   2.930   1.703   3.450
 1563SOL    HW1 4824   2.866   1.665   3.510
 1563SOL    HW2 4825   3.015   1.676   3.484
 1564SOL     OW 4826   3.239   0.237  -0.013
 1564SOL    HW1 4827   3.323   0.279   0.004
 1564SOL    HW2 4828   3.244   0.154   0.035
 1565SOL     OW 4829   3.173   3.139   3.464
 1565SOL    HW1 4830   3.108   3.205   3.486
 1565SOL    HW2 4831   3.257   3.181   3.480
 1566SOL     OW 4832   2.365   1.995   1.846
 1566SOL    HW1 4833   2.321   2.034   1.770
 1566SOL    HW2 4834   2.458   2.001   1.826
 1567SOL     OW 4835   3.362   3.167   2.535
 1567SOL    HW1 4836   3.298   3.176   2.464
 1567SOL    HW2 4837   3.314   3.195   2.613
 1568SOL     OW 4838   3.765   1.505   0.542
 1568SOL    HW1 4839   3.847   1.513   0.591
 1568SOL    HW2 4840   3.743   1.594   0.517
 1569SOL     OW 4841   1.264   3.936   1.598
 1569SOL    HW1 4842   1.332   3.971   1.540
 1569SOL    HW2 4843   1.182   3.953   1.550
 1570SOL     OW 4844   0.444   1.198   2.719
 1570SOL    HW1 4845   0.400   1.205   2.804
 1570SOL    HW2 4846   0.447   1.288   2.686
 1571SOL     OW 4847   3.597   0.281   2.593
 1571SOL    HW1 4848   3.607   0.330   2.511
 1571SOL    HW2 4849   3.511   0.308   2.626
 1572SOL     OW 4850   0.569   1.811   0.870
 1572SOL    HW1 4851   0.626   1.888   0.862
 1572SOL    HW2 4852   0.536   1.797   0.781
 1573SOL     OW 4853   2.343   2.399   2.664
 1573SOL    HW1 4854   2.369   2.481   2.706
 1573SOL    HW2 4855   2.262   2.421   2.618
 1574SOL     OW 4856   0.441   0.252   3.648
 1574SOL    HW1 4857   0.462   0.175   3.699
 1574SOL    HW2 4858   0.504   0.251   3.576
 1575SOL     OW 4859   0.336   0.919   0.462
 1575SOL    HW1 4860   0.273   0.852   0.489
 1575SOL    HW2 4861   0.317   0.934   0.369
 1576SOL     OW 4862   0.745   3.787   3.560
 1576SOL    HW1 4863   0.661   3.777   3.606
 1576SOL    HW2 4864   0.810   3.791   3.629
 1577SOL     OW 4865   3.292   1.411   0.181
 1577SOL    HW1 4866   3.295   1.482   0.116
 1577SOL    HW2 4867   3.220   1.436   0.239
 1578SOL     OW 4868   2.922   2.030   2.701
 1578SOL    HW1 4869   2.875   2.076   2.770
 1578SOL    HW2 4870   3.013   2.058   2.710
 1579SOL     OW 4871   1.983   0.248   0.759
 1579SOL    HW1 4872   1.920   0.199   0.811
 1579SOL    HW2 4873   2.030   0.302   0.822
 1580SOL     OW 4874   2.936   0.144   0.551
 1580SOL    HW1 4875   3.016   0.112   0.508
 1580SOL    HW2 4876   2.896   0.065   0.587
 1581SOL     OW 4877   0.838   0.839   3.574
 1581SOL    HW1 4878   0.804   0.927   3.589
 1581SOL    HW2 4879   0.853   0.804   3.662
 1582SOL     OW 4880   3.167   1.670   2.310
 1582SOL    HW1 4881   3.134   1.732   2.245
 1582SOL    HW2 4882   3.248   1.636   2.271
 1583SOL     OW 4883   2.325   3.147   3.808
 1583SOL    HW1 4884   2.260   3.111   3.869
 1583SOL    HW2 4885   2.294   3.235   3.789
 1584SOL     OW 4886   1.973   3.642   3.539
 1584SOL    HW1 4887   1.920   3.575   3.581
 1584SOL    HW2 4888   1.925   3.723   3.551
 1585SOL     OW 4889   0.328   0.835   0.820
 1585SOL    HW1 4890   0.292   0.747   0.807
 1585SOL    HW2 4891   0.262   0.894   0.783
 1586SOL     OW 4892   0.889   0.506   3.825
 1586SOL    HW1 4893   0.854   0.474   3.908
 1586SOL    HW2 4894   0.874   0.434   3.764
 1587SOL     OW 4895   1.518   2.475   2.033
 1587SOL    HW1 4896   1.521   2.538   1.960
 1587SOL    HW2 4897   1.609   2.449   2.045
 1588SOL     OW 4898   3.360   3.106   0.481
 1588SOL    HW1 4899   3.293   3.051   0.522
 1588SOL    HW2 4900   3.405   3.147   0.554
 1589SOL     OW 4901   1.489   2.412   2.307
 1589SOL    HW1 4902   1.483   2.433   2.213
 1589SOL    HW2 4903   1.480   2.496   2.351
 1590SOL     OW 4904   3.962   1.048   2.942
 1590SOL    HW1 4905   3.899   1.007   3.002
 1590SOL    HW2 4906   3.923   1.133   2.921
 1591SOL     OW 4907   1.968   1.041   3.723
 1591SOL    HW1 4908   2.006   0.961   3.688
 1591SOL    HW2 4909   1.897   1.011   3.781
 1592SOL     OW 4910   0.549   0.836   1.751
 1592SOL    HW1 4911   0.557   0.826   1.846
 1592SOL    HW2 4912   0.537   0.747   1.718
 1593SOL     OW 4913   2.615   1.989   0.572
 1593SOL    HW1 4914   2.529   2.028   0.563
 1593SOL    HW2 4915   2.599   1.904   0.614
 1594SOL     OW 4916   0.167   1.447   2.802
 1594SOL    HW1 4917   0.088   1.421   2.754
 1594SOL    HW2 4918   0.230   1.377   2.784
 1595SOL     OW 4919   3.099   0.422   2.939
 1595SOL    HW1 4920   3.117   0.436   3.032
 1595SOL    HW2 4921   3.005   0.404   2.936
 1596SOL     OW 4922   3.290   2.106   2.663
 1596SOL    HW1 4923   3.222   2.172   2.678
 1596SOL    HW2 4924   3.288   2.090   2.569
 1597SOL     OW 4925   1.312   1.312   2.440
 1597SOL    HW1 4926   1.326   1.368   2.517
 1597SOL    HW2 4927   1.266   1.368   2.378
 1598SOL     OW 4928   1.558   3.356   3.629
 1598SOL    HW1 4929   1.550   3.320   3.540
 1598SOL    HW2 4930   1.506   3.437   3.626
 1599SOL     OW 4931   2.093   0.222   1.818
 1599SOL    HW1 4932   2.032   0.180   1.879
 1599SOL    HW2 4933   2.062   0.312   1.812
 1600SOL     OW 4934   1.184   2.384   0.761
 1600SOL    HW1 4935   1.209   2.454   0.701
 1600SOL    HW2 4936   1.246   2.313   0.742
 1601SOL     OW 4937   2.426   3.394   0.919
 1601SOL    HW1 4938   2.341   3.435   0.932
 1601SOL    HW2 4939   2.408   3.318   0.863
 1602SOL     OW 4940   0.863   2.259   1.264
 1602SOL    HW1 4941   0.842   2.172   1.296
 1602SOL    HW2 4942   0.785   2.312   1.282
 1603SOL     OW 4943   0.596   3.721   0.705
 1603SOL    HW1 4944   0.616   3.650   0.765
 1603SOL    HW2 4945   0.548   3.679   0.634
 1604SOL     OW 4946   0.453   1.902   3.507
 1604SOL    HW1 4947   0.483   1.903   3.416
 1604SOL    HW2 4948   0.367   1.860   3.504
 1605SOL     OW 4949   3.518   0.748   3.268
 1605SOL    HW1 4950   3.445   0.797   3.306
 1605SOL    HW2 4951   3.589   0.812   3.264
 1606SOL     OW 4952   0.037   0.123   0.475
 1606SOL    HW1 4953   0.024   0.111   0.569
 1606SOL    HW2 4954  -0.027   0.065   0.434
 1607SOL     OW 4955   3.755   2.930   1.143
 1607SOL    HW1 4956   3.849   2.921   1.132
 1607SOL    HW2 4957   3.721   2.841   1.133
 1608SOL     OW 4958   0.243   2.558   2.493
 1608SOL    HW1 4959   0.165   2.546   2.438
 1608SOL    HW2 4960   0.251   2.653   2.503
 1609SOL     OW 4961   2.508   2.560   1.217
 1609SOL    HW1 4962   2.444   2.516   1.161
 1609SOL    HW2 4963   2.478   2.650   1.221
 1610SOL     OW 4964   2.954   3.020   2.428
 1610SOL    HW1 4965   2.947   2.964   2.351
 1610SOL    HW2 4966   3.043   3.056   2.424
 1611SOL     OW 4967   3.248   0.846   1.420
 1611SOL    HW1 4968   3.314   0.873   1.484
 1611SOL    HW2 4969   3.290   0.860   1.335
 1612SOL     OW 4970   3.911   2.343   1.317
 1612SOL    HW1 4971   4.001   2.376   1.319
 1612SOL    HW2 4972   3.891   2.322   1.408
 1613SOL     OW 4973   3.937   3.150   1.435
 1613SOL    HW1 4974   3.894   3.066   1.448
 1613SOL    HW2 4975   3.959   3.153   1.342
 1614SOL     OW 4976   3.716   1.599   0.208
 1614SOL    HW1 4977   3.768   1.671   0.243
 1614SOL    HW2 4978   3.625   1.627   0.219
 1615SOL     OW 4979   3.640   1.333   3.361
 1615SOL    HW1 4980   3.574   1.379   3.309
 1615SOL    HW2 4981   3.679   1.402   3.415
 1616SOL     OW 4982   3.475   1.248   0.069
 1616SOL    HW1 4983   3.542   1.315   0.074
 1616SOL    HW2 4984   3.407   1.278   0.129
 1617SOL     OW 4985   1.906   3.746   0.156
 1617SOL    HW1 4986   1.856   3.727   0.077
 1617SOL    HW2 4987   1.975   3.679   0.157
 1618SOL     OW 4988   3.576   3.188   1.388
 1618SOL    HW1 4989   3.610   3.100   1.401
 1618SOL    HW2 4990   3.488   3.176   1.354
 1619SOL     OW 4991   0.566   1.371   2.137
 1619SOL    HW1 4992   0.501   1.420   2.087
 1619SOL    HW2 4993   0.644   1.369   2.082
 1620SOL     OW 4994   2.240   3.451   3.855
 1620SOL    HW1 4995   2.321   3.495   3.830
 1620SOL    HW2 4996   2.211   3.496   3.935
 1621SOL     OW 4997   1.987   0.448   2.862
 1621SOL    HW1 4998   1.985   0.393   2.783
 1621SOL    HW2 4999   2.078   0.476   2.869
 1622SOL     OW 5000   3.392   1.111   1.652
 1622SOL    HW1 5001   3.425   1.195   1.684
 1622SOL    HW2 5002   3.322   1.134   1.591
 1623SOL     OW 5003   2.323   2.228   1.401
 1623SOL    HW1 5004   2.351   2.305   1.352
 1623SOL    HW2 5005   2.260   2.184   1.343
 1624SOL     OW 5006   3.183   0.719   2.447
 1624SOL    HW1 5007   3.125   0.795   2.430
 1624SOL    HW2 5008   3.159   0.656   2.379
 1625SOL     OW 5009   3.934   1.249   3.292
 1625SOL    HW1 5010   3.886   1.324   3.258
 1625SOL    HW2 5011   3.883   1.219   3.367
 1626SOL     OW 5012   0.238   1.180   3.187
 1626SOL    HW1 5013   0.145   1.172   3.163
 1626SOL    HW2 5014   0.253   1.106   3.247
 1627SOL     OW 5015   2.384   1.936   1.518
 1627SOL    HW1 5016   2.422   1.900   1.438
 1627SOL    HW2 5017   2.297   1.968   1.491
 1628SOL     OW 5018   2.907   0.624   0.245
 1628SOL    HW1 5019   2.837   0.600   0.306
 1628SOL    HW2 5020   2.963   0.683   0.295
 1629SOL     OW 5021   2.571   1.383   1.439
 1629SOL    HW1 5022   2.613   1.297   1.433
 1629SOL    HW2 5023   2.481   1.367   1.412
 1630SOL     OW 5024   0.828   3.205   1.525
 1630SOL    HW1 5025   0.780   3.129   1.556
 1630SOL    HW2 5026   0.775   3.280   1.553
 1631SOL     OW 5027   2.142   0.862   0.876
 1631SOL    HW1 5028   2.106   0.950   0.864
 1631SOL    HW2 5029   2.167   0.834   0.787
 1632SOL     OW 5030   3.626   1.939   0.829
 1632SOL    HW1 5031   3.598   2.029   0.816
 1632SOL    HW2 5032   3.665   1.939   0.917
 1633SOL     OW 5033   0.417   1.797   0.628
 1633SOL    HW1 5034   0.414   1.854   0.551
 1633SOL    HW2 5035   0.372   1.717   0.601
 1634SOL     OW 5036   3.233   0.953   2.781
 1634SOL    HW1 5037   3.264   0.984   2.866
 1634SOL    HW2 5038   3.161   0.893   2.802
 1635SOL     OW 5039   0.914   3.743   2.900
 1635SOL    HW1 5040   0.938   3.801   2.972
 1635SOL    HW2 5041   0.818   3.746   2.899
 1636SOL     OW 5042   2.859   3.424   1.936
 1636SOL    HW1 5043   2.940   3.472   1.957
 1636SOL    HW2 5044   2.789   3.488   1.950
 1637SOL     OW 5045   2.098   1.038   1.730
 1637SOL    HW1 5046   2.082   0.945   1.712
 1637SOL    HW2 5047   2.101   1.043   1.825
 1638SOL     OW 5048   1.007   0.030   1.494
 1638SOL    HW1 5049   0.948  -0.046   1.497
 1638SOL    HW2 5050   1.014   0.051   1.401
 1639SOL     OW 5051   3.727   0.501   1.890
 1639SOL    HW1 5052   3.715   0.582   1.840
 1639SOL    HW2 5053   3.663   0.440   1.854
 1640SOL     OW 5054   2.440   3.702   3.586
 1640SOL    HW1 5055   2.371   3.766   3.568
 1640SOL    HW2 5056   2.458   3.712   3.680
 1641SOL     OW 5057   2.173   3.743   0.776
 1641SOL    HW1 5058   2.208   3.678   0.838
 1641SOL    HW2 5059   2.081   3.752   0.801
 1642SOL     OW 5060   2.848   3.367   2.467
 1642SOL    HW1 5061   2.835   3.375   2.373
 1642SOL    HW2 5062   2.838   3.457   2.500
 1643SOL     OW 5063   3.233   1.923   0.463
 1643SOL    HW1 5064   3.248   1.851   0.403
 1643SOL    HW2 5065   3.214   1.881   0.547
 1644SOL     OW 5066   2.252   2.619   0.606
 1644SOL    HW1 5067   2.195   2.684   0.565
 1644SOL    HW2 5068   2.338   2.661   0.609
 1645SOL     OW 5069   0.240   2.682   3.425
 1645SOL    HW1 5070   0.223   2.763   3.377
 1645SOL    HW2 5071   0.248   2.710   3.517
 1646SOL     OW 5072   2.796   3.835   2.448
 1646SOL    HW1 5073   2.782   3.760   2.506
 1646SOL    HW2 5074   2.892   3.842   2.441
 1647SOL     OW 5075   0.574   0.288   0.486
 1647SOL    HW1 5076   0.483   0.309   0.468
 1647SOL    HW2 5077   0.585   0.308   0.579
 1648SOL     OW 5078   0.992   3.524   1.271
 1648SOL    HW1 5079   1.021   3.487   1.188
 1648SOL    HW2 5080   1.056   3.493   1.335
 1649SOL     OW 5081   0.283   1.440   0.740
 1649SOL    HW1 5082   0.351   1.448   0.807
 1649SOL    HW2 5083   0.329   1.462   0.658
 1650SOL     OW 5084   0.373   0.136   3.364
 1650SOL    HW1 5085   0.322   0.119   3.443
 1650SOL    HW2 5086   0.427   0.058   3.353
 1651SOL     OW 5087   0.161   0.473   1.638
 1651SOL    HW1 5088   0.090   0.409   1.641
 1651SOL    HW2 5089   0.188   0.484   1.729
 1652SOL     OW 5090   3.677   0.060   3.624
 1652SOL    HW1 5091   3.738  -0.003   3.586
 1652SOL    HW2 5092   3.597   0.051   3.572
 1653SOL     OW 5093   3.146   2.677   3.690
 1653SOL    HW1 5094   3.109   2.757   3.653
 1653SOL    HW2 5095   3.079   2.645   3.751
 1654SOL     OW 5096   0.783   3.689   0.256
 1654SOL    HW1 5097   0.864   3.702   0.206
 1654SOL    HW2 5098   0.792   3.747   0.331
 1655SOL     OW 5099   1.082   2.326   2.114
 1655SOL    HW1 5100   1.168   2.290   2.093
 1655SOL    HW2 5101   1.067   2.391   2.046
 1656SOL     OW 5102   0.902   0.332   0.832
 1656SOL    HW1 5103   0.941   0.406   0.786
 1656SOL    HW2 5104   0.971   0.301   0.890
 1657SOL     OW 5105   3.193  -0.008   0.224
 1657SOL    HW1 5106   3.281   0.013   0.193
 1657SOL    HW2 5107   3.187   0.035   0.309
 1658SOL     OW 5108   1.412   3.948   0.726
 1658SOL    HW1 5109   1.358   3.870   0.717
 1658SOL    HW2 5110   1.431   3.974   0.635
 1659SOL     OW 5111   3.524   1.188   2.766
 1659SOL    HW1 5112   3.537   1.151   2.678
 1659SOL    HW2 5113   3.480   1.271   2.752
 1660SOL     OW 5114   0.182   1.453   1.705
 1660SOL    HW1 5115   0.207   1.367   1.741
 1660SOL    HW2 5116   0.115   1.485   1.765
 1661SOL     OW 5117   2.540   0.857   2.844
 1661SOL    HW1 5118   2.575   0.794   2.781
 1661SOL    HW2 5119   2.607   0.925   2.851
 1662SOL     OW 5120   0.291   3.905   1.228
 1662SOL    HW1 5121   0.312   3.871   1.315
 1662SOL    HW2 5122   0.219   3.850   1.197
 1663SOL     OW 5123   0.870   2.231   2.843
 1663SOL    HW1 5124   0.798   2.283   2.879
 1663SOL    HW2 5125   0.828   2.173   2.780
 1664SOL     OW 5126   2.668   2.401   0.494
 1664SOL    HW1 5127   2.739   2.434   0.438
 1664SOL    HW2 5128   2.592   2.398   0.437
 1665SOL     OW 5129   2.149   2.817   0.445
 1665SOL    HW1 5130   2.055   2.830   0.455
 1665SOL    HW2 5131   2.158   2.769   0.362
 1666SOL     OW 5132   2.537   2.910   1.430
 1666SOL    HW1 5133   2.475   2.904   1.502
 1666SOL    HW2 5134   2.612   2.857   1.457
 1667SOL     OW 5135   1.961   1.140   3.430
 1667SOL    HW1 5136   1.999   1.068   3.380
 1667SOL    HW2 5137   2.010   1.217   3.402
 1668SOL     OW 5138   0.344   3.208   2.510
 1668SOL    HW1 5139   0.325   3.258   2.589
 1668SOL    HW2 5140   0.407   3.142   2.539
 1669SOL     OW 5141   0.833   2.796   0.097
 1669SOL    HW1 5142   0.849   2.712   0.141
 1669SOL    HW2 5143   0.773   2.774   0.026
 1670SOL     OW 5144   3.932   1.812   3.807
 1670SOL    HW1 5145   3.975   1.896   3.786
 1670SOL    HW2 5146   3.873   1.833   3.879
 1671SOL     OW 5147   1.067   0.570   1.012
 1671SOL    HW1 5148   0.973   0.583   1.018
 1671SOL    HW2 5149   1.088   0.515   1.087
 1672SOL     OW 5150   2.877   1.255   2.039
 1672SOL    HW1 5151   2.944   1.323   2.032
 1672SOL    HW2 5152   2.804   1.298   2.085
 1673SOL     OW 5153   2.485   1.180   3.120
 1673SOL    HW1 5154   2.423   1.142   3.182
 1673SOL    HW2 5155   2.460   1.273   3.114
 1674SOL     OW 5156   3.625   2.143   2.867
 1674SOL    HW1 5157   3.608   2.224   2.820
 1674SOL    HW2 5158   3.574   2.150   2.947
 1675SOL     OW 5159   1.306   0.969   0.195
 1675SOL    HW1 5160   1.394   0.998   0.169
 1675SOL    HW2 5161   1.255   1.049   0.202
 1676SOL     OW 5162   0.215   1.769   3.501
 1676SOL    HW1 5163   0.242   1.690   3.455
 1676SOL    HW2 5164   0.203   1.741   3.592
 1677SOL     OW 5165   2.753   3.051   2.754
 1677SOL    HW1 5166   2.818   2.985   2.729
 1677SOL    HW2 5167   2.668   3.008   2.740
 1678SOL     OW 5168   3.688   2.419   2.524
 1678SOL    HW1 5169   3.704   2.401   2.431
 1678SOL    HW2 5170   3.604   2.378   2.542
 1679SOL     OW 5171   2.788   0.754   3.059
 1679SOL    HW1 5172   2.701   0.783   3.084
 1679SOL    HW2 5173   2.810   0.686   3.124
 1680SOL     OW 5174   0.608   2.738   0.991
 1680SOL    HW1 5175   0.639   2.818   1.034
 1680SOL    HW2 5176   0.684   2.706   0.943
 1681SOL     OW 5177   0.509   3.431   1.471
 1681SOL    HW1 5178   0.529   3.396   1.558
 1681SOL    HW2 5179   0.502   3.353   1.415
 1682SOL     OW 5180   3.931   2.853   1.821
 1682SOL    HW1 5181   4.001   2.916   1.833
 1682SOL    HW2 5182   3.947   2.786   1.887
 1683SOL     OW 5183   1.524   3.631   1.878
 1683SOL    HW1 5184   1.468   3.707   1.866
 1683SOL    HW2 5185   1.613   3.666   1.883
 1684SOL     OW 5186   3.095   1.197   1.036
 1684SOL    HW1 5187   3.163   1.261   1.056
 1684SOL    HW2 5188   3.134   1.112   1.057
 1685SOL     OW 5189   0.944   0.837   1.750
 1685SOL    HW1 5190   0.941   0.928   1.722
 1685SOL    HW2 5191   1.011   0.797   1.694
 1686SOL     OW 5192   2.391   2.809   3.169
 1686SOL    HW1 5193   2.462   2.819   3.105
 1686SOL    HW2 5194   2.357   2.721   3.153
 1687SOL     OW 5195   3.411   2.769   1.905
 1687SOL    HW1 5196   3.503   2.744   1.917
 1687SOL    HW2 5197   3.413   2.865   1.899
 1688SOL     OW 5198   3.207   1.263   3.609
 1688SOL    HW1 5199   3.128   1.263   3.555
 1688SOL    HW2 5200   3.174   1.264   3.699
 1689SOL     OW 5201   1.907   1.594   3.780
 1689SOL    HW1 5202   1.844   1.650   3.735
 1689SOL    HW2 5203   1.854   1.537   3.835
 1690SOL     OW 5204   0.933   1.812   3.365
 1690SOL    HW1 5205   0.963   1.852   3.284
 1690SOL    HW2 5206   0.887   1.883   3.411
 1691SOL     OW 5207   1.959   1.063   2.770
 1691SOL    HW1 5208   1.994   1.068   2.859
 1691SOL    HW2 5209   1.978   1.148   2.731
 1692SOL     OW 5210   0.681   1.729   2.751
 1692SOL    HW1 5211   0.739   1.700   2.821
 1692SOL    HW2 5212   0.700   1.823   2.741
 1693SOL     OW 5213   2.301   3.158   0.275
 1693SOL    HW1 5214   2.238   3.199   0.215
 1693SOL    HW2 5215   2.247   3.116   0.341
 1694SOL     OW 5216   2.884   1.550   0.454
 1694SOL    HW1 5217   2.886   1.645   0.463
 1694SOL    HW2 5218   2.951   1.519   0.515
 1695SOL     OW 5219   0.837   0.065   3.029
 1695SOL    HW1 5220   0.862   0.044   3.119
 1695SOL    HW2 5221   0.746   0.035   3.022
 1696SOL     OW 5222   2.067   2.345   3.447
 1696SOL    HW1 5223   2.010   2.289   3.499
 1696SOL    HW2 5224   2.111   2.400   3.512
 1697SOL     OW 5225   0.918   2.616   2.132
 1697SOL    HW1 5226   0.952   2.547   2.076
 1697SOL    HW2 5227   0.993   2.673   2.148
 1698SOL     OW 5228   2.827   1.181   0.941
 1698SOL    HW1 5229   2.819   1.144   0.853
 1698SOL    HW2 5230   2.920   1.171   0.962
 1699SOL     OW 5231   3.928   2.858   3.793
 1699SOL    HW1 5232   3.867   2.786   3.808
 1699SOL    HW2 5233   3.872   2.936   3.788
 1700SOL     OW 5234   3.354   3.345   3.393
 1700SOL    HW1 5235   3.351   3.431   3.434
 1700SOL    HW2 5236   3.441   3.311   3.413
 1701SOL     OW 5237   1.790   1.805   0.830
 1701SOL    HW1 5238   1.786   1.901   0.827
 1701SOL    HW2 5239   1.854   1.786   0.899
 1702SOL     OW 5240   2.617   2.173   2.469
 1702SOL    HW1 5241   2.685   2.123   2.423
 1702SOL    HW2 5242   2.552   2.108   2.495
 1703SOL     OW 5243   3.540   0.193   0.775
 1703SOL    HW1 5244   3.490   0.258   0.826
 1703SOL    HW2 5245   3.629   0.228   0.774
 1704SOL     OW 5246   2.382   0.350   3.926
 1704SOL    HW1 5247   2.468   0.390   3.917
 1704SOL    HW2 5248   2.397   0.273   3.981
 1705SOL     OW 5249   1.494   0.800   3.805
 1705SOL    HW1 5250   1.567   0.829   3.858
 1705SOL    HW2 5251   1.527   0.724   3.757
 1706SOL     OW 5252   0.743   2.642   2.697
 1706SOL    HW1 5253   0.813   2.584   2.665
 1706SOL    HW2 5254   0.739   2.625   2.791
 1707SOL     OW 5255   3.214   1.721   3.490
 1707SOL    HW1 5256   3.200   1.735   3.397
 1707SOL    HW2 5257   3.268   1.642   3.496
 1708SOL     OW 5258   0.462   3.658   1.375
 1708SOL    HW1 5259   0.472   3.715   1.451
 1708SOL    HW2 5260   0.466   3.569   1.412
 1709SOL     OW 5261   3.023   1.051   3.022
 1709SOL    HW1 5262   2.986   1.001   3.095
 1709SOL    HW2 5263   3.117   1.052   3.038
 1710SOL     OW 5264   1.673   0.145   1.301
 1710SOL    HW1 5265   1.742   0.132   1.366
 1710SOL    HW2 5266   1.594   0.112   1.344
 1711SOL     OW 5267   0.493   2.165   2.258
 1711SOL    HW1 5268   0.574   2.214   2.249
 1711SOL    HW2 5269   0.507   2.107   2.333
 1712SOL     OW 5270   2.564   2.141   1.599
 1712SOL    HW1 5271   2.479   2.114   1.562
 1712SOL    HW2 5272   2.611   2.059   1.612
 1713SOL     OW 5273   3.631   3.068   2.856
 1713SOL    HW1 5274   3.569   3.121   2.806
 1713SOL    HW2 5275   3.617   3.094   2.947
 1714SOL     OW 5276   3.869   3.720   1.527
 1714SOL    HW1 5277   3.904   3.631   1.525
 1714SOL    HW2 5278   3.798   3.716   1.592
 1715SOL     OW 5279   1.535   2.041   3.714
 1715SOL    HW1 5280   1.598   1.972   3.694
 1715SOL    HW2 5281   1.518   2.031   3.808
 1716SOL     OW 5282   0.265   0.492   1.873
 1716SOL    HW1 5283   0.259   0.584   1.900
 1716SOL    HW2 5284   0.346   0.461   1.914
 1717SOL     OW 5285   3.311   2.916   2.421
 1717SOL    HW1 5286   3.325   2.825   2.446
 1717SOL    HW2 5287   3.348   2.967   2.493
 1718SOL     OW 5288   3.356   2.714   0.150
 1718SOL    HW1 5289   3.425   2.712   0.217
 1718SOL    HW2 5290   3.382   2.647   0.087
 1719SOL     OW 5291   2.360   0.447   0.241
 1719SOL    HW1 5292   2.434   0.413   0.291
 1719SOL    HW2 5293   2.388   0.440   0.150
 1720SOL     OW 5294   0.980   0.812   1.384
 1720SOL    HW1 5295   1.049   0.748   1.370
 1720SOL    HW2 5296   1.023   0.885   1.430
 1721SOL     OW 5297   2.858   0.838   1.265
 1721SOL    HW1 5298   2.768   0.818   1.241
 1721SOL    HW2 5299   2.908   0.821   1.185
 1722SOL     OW 5300   2.236   1.424   0.757
 1722SOL    HW1 5301   2.238   1.519   0.771
 1722SOL    HW2 5302   2.239   1.387   0.846
 1723SOL     OW 5303   2.268   2.053   0.938
 1723SOL    HW1 5304   2.252   2.146   0.926
 1723SOL    HW2 5305   2.279   2.042   1.032
 1724SOL     OW 5306   1.496   0.715   1.482
 1724SOL    HW1 5307   1.472   0.650   1.549
 1724SOL    HW2 5308   1.592   0.721   1.488
 1725SOL     OW 5309   3.542   0.918   2.912
 1725SOL    HW1 5310   3.542   0.994   2.853
 1725SOL    HW2 5311   3.614   0.935   2.973
 1726SOL     OW 5312   1.627   2.977   3.014
 1726SOL    HW1 5313   1.596   3.068   3.010
 1726SOL    HW2 5314   1.710   2.982   3.061
 1727SOL     OW 5315   2.913   3.768   0.543
 1727SOL    HW1 5316   2.897   3.779   0.449
 1727SOL    HW2 5317   2.828   3.780   0.584
 1728SOL     OW 5318   1.466   3.097   2.235
 1728SOL    HW1 5319   1.524   3.022   2.242
 1728SOL    HW2 5320   1.397   3.080   2.299
 1729SOL     OW 5321   2.342   0.477   1.136
 1729SOL    HW1 5322   2.275   0.466   1.204
 1729SOL    HW2 5323   2.423   0.492   1.185
 1730SOL     OW 5324   2.991   2.168   3.112
 1730SOL    HW1 5325   2.981   2.133   3.200
 1730SOL    HW2 5326   3.069   2.224   3.117
 1731SOL     OW 5327   3.471   3.913   3.405
 1731SOL    HW1 5328   3.513   3.870   3.331
 1731SOL    HW2 5329   3.413   3.978   3.365
 1732SOL     OW 5330   0.711   3.893   1.052
 1732SOL    HW1 5331   0.662   3.811   1.055
 1732SOL    HW2 5332   0.801   3.869   1.073
 1733SOL     OW 5333   1.378   3.649   2.669
 1733SOL    HW1 5334   1.427   3.717   2.716
 1733SOL    HW2 5335   1.295   3.691   2.648
 1734SOL     OW 5336   3.090   0.738   3.776
 1734SOL    HW1 5337   3.149   0.770   3.844
 1734SOL    HW2 5338   3.117   0.647   3.762
 1735SOL     OW 5339   3.740   0.832   1.542
 1735SOL    HW1 5340   3.820   0.883   1.553
 1735SOL    HW2 5341   3.769   0.741   1.541
 1736SOL     OW 5342   1.314   1.983   0.469
 1736SOL    HW1 5343   1.286   2.066   0.430
 1736SOL    HW2 5344   1.398   1.964   0.427
 1737SOL     OW 5345   1.657   1.294   0.872
 1737SOL    HW1 5346   1.612   1.312   0.955
 1737SOL    HW2 5347   1.678   1.380   0.837
 1738SOL     OW 5348   1.590   1.790   2.012
 1738SOL    HW1 5349   1.628   1.727   2.074
 1738SOL    HW2 5350   1.521   1.741   1.967
 1739SOL     OW 5351   1.641   3.804   0.059
 1739SOL    HW1 5352   1.629   3.710   0.048
 1739SOL    HW2 5353   1.701   3.812   0.133
 1740SOL     OW 5354   3.303   2.280   2.023
 1740SOL    HW1 5355   3.307   2.207   2.085
 1740SOL    HW2 5356   3.212   2.282   1.994
 1741SOL     OW 5357   2.965   2.764   0.700
 1741SOL    HW1 5358   3.003   2.682   0.669
 1741SOL    HW2 5359   2.913   2.796   0.626
 1742SOL     OW 5360   2.452   0.012   0.389
 1742SOL    HW1 5361   2.380  -0.014   0.447
 1742SOL    HW2 5362   2.531   0.002   0.443
 1743SOL     OW 5363   2.069   1.990   0.774
 1743SOL    HW1 5364   2.008   2.064   0.775
 1743SOL    HW2 5365   2.147   2.023   0.819
 1744SOL     OW 5366   3.012   1.181   0.013
 1744SOL    HW1 5367   3.054   1.265  -0.007
 1744SOL    HW2 5368   3.067   1.143   0.082
 1745SOL     OW 5369   1.562   1.231   2.336
 1745SOL    HW1 5370   1.623   1.284   2.387
 1745SOL    HW2 5371   1.477   1.273   2.348
 1746SOL     OW 5372   3.414   3.332   0.998
 1746SOL    HW1 5373   3.447   3.388   1.069
 1746SOL    HW2 5374   3.420   3.243   1.033
 1747SOL     OW 5375   2.188   0.092   1.425
 1747SOL    HW1 5376   2.169   0.028   1.356
 1747SOL    HW2 5377   2.177   0.043   1.506
 1748SOL     OW 5378   3.088   3.720   2.942
 1748SOL    HW1 5379   3.048   3.725   2.856
 1748SOL    HW2 5380   3.077   3.628   2.969
 1749SOL     OW 5381   3.395   0.200   3.398
 1749SOL    HW1 5382   3.445   0.225   3.475
 1749SOL    HW2 5383   3.305   0.223   3.419
 1750SOL     OW 5384   0.795   0.506   2.397
 1750SOL    HW1 5385   0.783   0.600   2.384
 1750SOL    HW2 5386   0.833   0.498   2.485
 1751SOL     OW 5387   1.077   1.680   3.566
 1751SOL    HW1 5388   1.033   1.718   3.489
 1751SOL    HW2 5389   1.156   1.732   3.576
 1752SOL     OW 5390   0.824   1.293   3.216
 1752SOL    HW1 5391   0.762   1.365   3.227
 1752SOL    HW2 5392   0.834   1.284   3.122
 1753SOL     OW 5393   3.475   2.801   0.417
 1753SOL    HW1 5394   3.433   2.868   0.362
 1753SOL    HW2 5395   3.402   2.749   0.451
 1754SOL     OW 5396   1.021   2.988   0.053
 1754SOL    HW1 5397   0.935   2.945   0.054
 1754SOL    HW2 5398   1.019   3.044  -0.025
 1755SOL     OW 5399   1.135   1.114   2.491
 1755SOL    HW1 5400   1.216   1.154   2.461
 1755SOL    HW2 5401   1.066   1.176   2.467
 1756SOL     OW 5402   1.079   3.480   3.459
 1756SOL    HW1 5403   1.000   3.515   3.418
 1756SOL    HW2 5404   1.099   3.401   3.408
 1757SOL     OW 5405   0.755   3.344   1.897
 1757SOL    HW1 5406   0.848   3.344   1.877
 1757SOL    HW2 5407   0.749   3.304   1.984
 1758SOL     OW 5408   2.438   3.740   1.086
 1758SOL    HW1 5409   2.445   3.746   0.991
 1758SOL    HW2 5410   2.351   3.774   1.106
 1759SOL     OW 5411   0.413   1.230   0.521
 1759SOL    HW1 5412   0.324   1.236   0.556
 1759SOL    HW2 5413   0.419   1.141   0.486
 1760SOL     OW 5414   0.830   3.849   0.483
 1760SOL    HW1 5415   0.869   3.810   0.561
 1760SOL    HW2 5416   0.818   3.942   0.505
 1761SOL     OW 5417   2.703   1.327   0.677
 1761SOL    HW1 5418   2.617   1.312   0.638
 1761SOL    HW2 5419   2.719   1.421   0.667
 1762SOL     OW 5420   2.130   2.641   3.122
 1762SOL    HW1 5421   2.037   2.623   3.130
 1762SOL    HW2 5422   2.155   2.602   3.038
 1763SOL     OW 5423   2.198   2.941   2.011
 1763SOL    HW1 5424   2.270   2.986   2.055
 1763SOL    HW2 5425   2.238   2.900   1.935
 1764SOL     OW 5426   3.276   3.662   1.121
 1764SOL    HW1 5427   3.218   3.632   1.052
 1764SOL    HW2 5428   3.282   3.588   1.181
 1765SOL     OW 5429   3.587   1.668   0.854
 1765SOL    HW1 5430   3.670   1.634   0.821
 1765SOL    HW2 5431   3.605   1.760   0.873
 1766SOL     OW 5432   3.893   2.227   2.230
 1766SOL    HW1 5433   3.903   2.279   2.310
 1766SOL    HW2 5434   3.925   2.140   2.253
 1767SOL     OW 5435   1.940   1.264   0.991
 1767SOL    HW1 5436   1.936   1.218   1.075
 1767SOL    HW2 5437   1.859   1.239   0.946
 1768SOL     OW 5438   3.156   0.233   2.409
 1768SOL    HW1 5439   3.070   0.257   2.442
 1768SOL    HW2 5440   3.217   0.265   2.474
 1769SOL     OW 5441   0.478   2.212   1.129
 1769SOL    HW1 5442   0.490   2.137   1.187
 1769SOL    HW2 5443   0.561   2.219   1.081
 1770SOL     OW 5444   2.771   2.754   1.474
 1770SOL    HW1 5445   2.825   2.793   1.406
 1770SOL    HW2 5446   2.830   2.739   1.547
 1771SOL     OW 5447   2.939   1.878   1.269
 1771SOL    HW1 5448   2.877   1.913   1.333
 1771SOL    HW2 5449   2.889   1.810   1.223
 1772SOL     OW 5450   3.464   3.101   0.243
 1772SOL    HW1 5451   3.494   3.191   0.229
 1772SOL    HW2 5452   3.414   3.105   0.325
 1773SOL     OW 5453   1.991   2.872   2.183
 1773SOL    HW1 5454   1.927   2.923   2.134
 1773SOL    HW2 5455   2.073   2.884   2.135
 1774SOL     OW 5456   1.494   1.424   0.547
 1774SOL    HW1 5457   1.579   1.463   0.568
 1774SOL    HW2 5458   1.465   1.384   0.629
 1775SOL     OW 5459   2.684   3.765   3.264
 1775SOL    HW1 5460   2.657   3.857   3.270
 1775SOL    HW2 5461   2.719   3.756   3.176
 1776SOL     OW 5462   1.426   2.367   0.161
 1776SOL    HW1 5463   1.505   2.367   0.107
 1776SOL    HW2 5464   1.385   2.452   0.143
 1777SOL     OW 5465   2.147   1.326   2.164
 1777SOL    HW1 5466   2.211   1.283   2.221
 1777SOL    HW2 5467   2.199   1.367   2.095
 1778SOL     OW 5468   0.755   0.182   1.512
 1778SOL    HW1 5469   0.750   0.228   1.596
 1778SOL    HW2 5470   0.841   0.140   1.514
 1779SOL     OW 5471   0.667   3.187   0.086
 1779SOL    HW1 5472   0.715   3.265   0.117
 1779SOL    HW2 5473   0.575   3.207   0.102
 1780SOL     OW 5474   1.229   0.087   0.160
 1780SOL    HW1 5475   1.273   0.138   0.093
 1780SOL    HW2 5476   1.151   0.137   0.182
 1781SOL     OW 5477   0.207   1.215   2.037
 1781SOL    HW1 5478   0.183   1.286   2.097
 1781SOL    HW2 5479   0.151   1.142   2.063
 1782SOL     OW 5480   1.506   1.497   2.190
 1782SOL    HW1 5481   1.600   1.516   2.183
 1782SOL    HW2 5482   1.473   1.560   2.254
 1783SOL     OW 5483   3.239   2.819   0.831
 1783SOL    HW1 5484   3.249   2.913   0.840
 1783SOL    HW2 5485   3.165   2.809   0.771
 1784SOL     OW 5486   3.639   0.790   2.144
 1784SOL    HW1 5487   3.575   0.770   2.075
 1784SOL    HW2 5488   3.597   0.761   2.225
 1785SOL     OW 5489   1.997   0.544   1.561
 1785SOL    HW1 5490   1.997   0.491   1.640
 1785SOL    HW2 5491   2.063   0.503   1.505
 1786SOL     OW 5492   0.316   1.815   1.606
 1786SOL    HW1 5493   0.287   1.885   1.548
 1786SOL    HW2 5494   0.247   1.748   1.599
 1787SOL     OW 5495   1.737   1.328   2.528
 1787SOL    HW1 5496   1.672   1.298   2.591
 1787SOL    HW2 5497   1.821   1.310   2.569
 1788SOL     OW 5498   0.692   1.529   0.651
 1788SOL    HW1 5499   0.663   1.564   0.567
 1788SOL    HW2 5500   0.771   1.479   0.630
 1789SOL     OW 5501   0.830   0.719   0.641
 1789SOL    HW1 5502   0.792   0.769   0.569
 1789SOL    HW2 5503   0.754   0.687   0.690
 1790SOL     OW 5504   1.435   1.185   0.356
 1790SOL    HW1 5505   1.444   1.105   0.408
 1790SOL    HW2 5506   1.401   1.249   0.418
 1791SOL     OW 5507   1.349   3.013   0.654
 1791SOL    HW1 5508   1.323   3.092   0.702
 1791SOL    HW2 5509   1.287   2.946   0.684
 1792SOL     OW 5510   3.896   0.104   0.083
 1792SOL    HW1 5511   3.963   0.047   0.045
 1792SOL    HW2 5512   3.935   0.137   0.163
 1793SOL     OW 5513   3.595   0.285   1.836
 1793SOL    HW1 5514   3.625   0.196   1.856
 1793SOL    HW2 5515   3.512   0.272   1.791
 1794SOL     OW 5516   0.446   2.744   1.216
 1794SOL    HW1 5517   0.502   2.723   1.141
 1794SOL    HW2 5518   0.418   2.658   1.248
 1795SOL     OW 5519   2.559   0.764   1.264
 1795SOL    HW1 5520   2.492   0.744   1.329
 1795SOL    HW2 5521   2.520   0.739   1.180
 1796SOL     OW 5522   2.911   0.137   2.104
 1796SOL    HW1 5523   3.004   0.157   2.110
 1796SOL    HW2 5524   2.887   0.156   2.014
 1797SOL     OW 5525   1.665   2.424   3.673
 1797SOL    HW1 5526   1.749   2.461   3.699
 1797SOL    HW2 5527   1.685   2.333   3.649
 1798SOL     OW 5528   0.231   2.165   2.908
 1798SOL    HW1 5529   0.137   2.159   2.927
 1798SOL    HW2 5530   0.270   2.193   2.990
 1799SOL     OW 5531   2.416   1.611   0.987
 1799SOL    HW1 5532   2.453   1.693   0.955
 1799SOL    HW2 5533   2.321   1.626   0.987
 1800SOL     OW 5534   0.728   3.378   2.531
 1800SOL    HW1 5535   0.658   3.372   2.596
 1800SOL    HW2 5536   0.748   3.471   2.527
 1801SOL     OW 5537   0.470   2.915   0.379
 1801SOL    HW1 5538   0.558   2.943   0.354
 1801SOL    HW2 5539   0.466   2.929   0.473
 1802SOL     OW 5540   0.627   1.153   3.684
 1802SOL    HW1 5541   0.580   1.069   3.683
 1802SOL    HW2 5542   0.696   1.141   3.619
 1803SOL     OW 5543   2.612   0.484   3.851
 1803SOL    HW1 5544   2.598   0.562   3.905
 1803SOL    HW2 5545   2.704   0.460   3.866
 1804SOL     OW 5546   0.023   1.014   1.155
 1804SOL    HW1 5547   0.075   0.941   1.121
 1804SOL    HW2 5548  -0.060   1.008   1.106
 1805SOL     OW 5549   2.946   0.532   1.517
 1805SOL    HW1 5550   3.031   0.571   1.495
 1805SOL    HW2 5551   2.964   0.438   1.523
 1806SOL     OW 5552   1.603   1.183   1.384
 1806SOL    HW1 5553   1.615   1.090   1.364
 1806SOL    HW2 5554   1.587   1.224   1.299
 1807SOL     OW 5555   2.255   2.935   2.895
 1807SOL    HW1 5556   2.286   3.021   2.923
 1807SOL    HW2 5557   2.260   2.938   2.800
 1808SOL     OW 5558   1.376   2.897   2.536
 1808SOL    HW1 5559   1.445   2.963   2.534
 1808SOL    HW2 5560   1.294   2.946   2.534
 1809SOL     OW 5561   1.485   1.364   1.133
 1809SOL    HW1 5562   1.523   1.418   1.202
 1809SOL    HW2 5563   1.392   1.357   1.157
 1810SOL     OW 5564   1.626   2.054   2.078
 1810SOL    HW1 5565   1.616   1.979   2.019
 1810SOL    HW2 5566   1.720   2.061   2.092
 1811SOL     OW 5567   2.011   3.268   0.102
 1811SOL    HW1 5568   1.937   3.295   0.047
 1811SOL    HW2 5569   2.051   3.195   0.055
 1812SOL     OW 5570   1.271   3.456   0.089
 1812SOL    HW1 5571   1.233   3.389   0.145
 1812SOL    HW2 5572   1.334   3.409   0.035
 1813SOL     OW 5573   0.208   1.059   0.688
 1813SOL    HW1 5574   0.165   1.127   0.636
 1813SOL    HW2 5575   0.236   0.994   0.623
 1814SOL     OW 5576   0.780   2.006   1.659
 1814SOL    HW1 5577   0.846   1.992   1.727
 1814SOL    HW2 5578   0.830   2.026   1.580
 1815SOL     OW 5579   3.154   2.852   2.985
 1815SOL    HW1 5580   3.095   2.914   3.027
 1815SOL    HW2 5581   3.128   2.767   3.019
 1816SOL     OW 5582   1.762   3.663   2.918
 1816SOL    HW1 5583   1.813   3.602   2.971
 1816SOL    HW2 5584   1.799   3.749   2.936
 1817SOL     OW 5585   2.964   1.776   2.900
 1817SOL    HW1 5586   2.942   1.869   2.896
 1817SOL    HW2 5587   2.940   1.742   2.814
 1818SOL     OW 5588   1.302   1.612   1.031
 1818SOL    HW1 5589   1.391   1.597   1.001
 1818SOL    HW2 5590   1.247   1.571   0.964
 1819SOL     OW 5591   0.734   0.313   2.968
 1819SOL    HW1 5592   0.731   0.367   3.047
 1819SOL    HW2 5593   0.781   0.234   2.995
 1820SOL     OW 5594   2.806   3.782   0.968
 1820SOL    HW1 5595   2.861   3.789   1.046
 1820SOL    HW2 5596   2.744   3.713   0.988
 1821SOL     OW 5597   3.727   3.049   0.323
 1821SOL    HW1 5598   3.634   3.054   0.304
 1821SOL    HW2 5599   3.760   3.137   0.306
 1822SOL     OW 5600   0.837   0.997   2.197
 1822SOL    HW1 5601   0.850   1.092   2.192
 1822SOL    HW2 5602   0.768   0.986   2.263
 1823SOL     OW 5603   3.400   3.794   1.491
 1823SOL    HW1 5604   3.335   3.774   1.558
 1823SOL    HW2 5605   3.351   3.839   1.422
 1824SOL     OW 5606   1.861   2.072   2.829
 1824SOL    HW1 5607   1.836   2.162   2.809
 1824SOL    HW2 5608   1.835   2.060   2.921
 1825SOL     OW 5609   1.120   0.592   0.188
 1825SOL    HW1 5610   1.054   0.635   0.243
 1825SOL    HW2 5611   1.128   0.649   0.111
 1826SOL     OW 5612   2.753   2.464   0.970
 1826SOL    HW1 5613   2.766   2.544   1.021
 1826SOL    HW2 5614   2.802   2.397   1.017
 1827SOL     OW 5615   3.311   2.514   3.882
 1827SOL    HW1 5616   3.303   2.424   3.850
 1827SOL    HW2 5617   3.292   2.569   3.805
 1828SOL     OW 5618   1.511   1.597   2.520
 1828SOL    HW1 5619   1.595   1.555   2.534
 1828SOL    HW2 5620   1.502   1.661   2.591
 1829SOL     OW 5621   3.592   2.791   2.885
 1829SOL    HW1 5622   3.654   2.760   2.819
 1829SOL    HW2 5623   3.602   2.886   2.883
 1830SOL     OW 5624   0.771   3.381   1.296
 1830SOL    HW1 5625   0.838   3.450   1.292
 1830SOL    HW2 5626   0.698   3.422   1.343
 1831SOL     OW 5627   3.842   2.307   1.567
 1831SOL    HW1 5628   3.775   2.264   1.619
 1831SOL    HW2 5629   3.915   2.319   1.627
 1832SOL     OW 5630   0.430   2.319   2.821
 1832SOL    HW1 5631   0.429   2.312   2.726
 1832SOL    HW2 5632   0.366   2.255   2.850
 1833SOL     OW 5633   2.182   1.671   0.036
 1833SOL    HW1 5634   2.144   1.597   0.084
 1833SOL    HW2 5635   2.212   1.632  -0.046
 1834SOL     OW 5636   0.780   1.906   0.524
 1834SOL    HW1 5637   0.745   1.992   0.500
 1834SOL    HW2 5638   0.712   1.844   0.499
 1835SOL     OW 5639   0.362   1.264   2.958
 1835SOL    HW1 5640   0.446   1.299   2.986
 1835SOL    HW2 5641   0.312   1.253   3.039
 1836SOL     OW 5642   0.045   0.450   0.939
 1836SOL    HW1 5643   0.032   0.355   0.941
 1836SOL    HW2 5644   0.035   0.474   0.846
 1837SOL     OW 5645   0.221   3.902   2.012
 1837SOL    HW1 5646   0.241   3.986   1.971
 1837SOL    HW2 5647   0.209   3.842   1.938
 1838SOL     OW 5648   1.698   0.596   2.591
 1838SOL    HW1 5649   1.640   0.666   2.623
 1838SOL    HW2 5650   1.782   0.612   2.633
 1839SOL     OW 5651   1.041   3.542   0.557
 1839SOL    HW1 5652   1.001   3.456   0.570
 1839SOL    HW2 5653   1.011   3.569   0.470
 1840SOL     OW 5654   2.738   0.266   1.390
 1840SOL    HW1 5655   2.646   0.252   1.413
 1840SOL    HW2 5656   2.746   0.361   1.384
 1841SOL     OW 5657   0.794   1.554   3.402
 1841SOL    HW1 5658   0.858   1.625   3.391
 1841SOL    HW2 5659   0.730   1.589   3.463
 1842SOL     OW 5660   0.716   2.998   0.266
 1842SOL    HW1 5661   0.693   3.071   0.208
 1842SOL    HW2 5662   0.736   2.926   0.206
 1843SOL     OW 5663   2.988   2.288   2.300
 1843SOL    HW1 5664   2.971   2.350   2.371
 1843SOL    HW2 5665   3.000   2.343   2.223
 1844SOL     OW 5666   0.046   2.941   0.672
 1844SOL    HW1 5667  -0.026   2.893   0.631
 1844SOL    HW2 5668   0.009   3.027   0.693
 1845SOL     OW 5669   0.405   0.566   3.939
 1845SOL    HW1 5670   0.462   0.491   3.955
 1845SOL    HW2 5671   0.400   0.573   3.844
 1846SOL     OW 5672   3.066   0.327   3.213
 1846SOL    HW1 5673   3.160   0.316   3.202
 1846SOL    HW2 5674   3.043   0.267   3.284
 1847SOL     OW 5675   2.177   1.471   3.785
 1847SOL    HW1 5676   2.197   1.382   3.815
 1847SOL    HW2 5677   2.096   1.494   3.830
 1848SOL     OW 5678   1.584   3.965   1.580
 1848SOL    HW1 5679   1.676   3.991   1.584
 1848SOL    HW2 5680   1.581   3.896   1.514
 1849SOL     OW 5681   2.120   0.835   3.662
 1849SOL    HW1 5682   2.180   0.781   3.713
 1849SOL    HW2 5683   2.173   0.867   3.589
 1850SOL     OW 5684   1.732   3.727   2.442
 1850SOL    HW1 5685   1.656   3.699   2.494
 1850SOL    HW2 5686   1.785   3.779   2.502
 1851SOL     OW 5687   3.790   3.500   2.155
 1851SOL    HW1 5688   3.793   3.562   2.227
 1851SOL    HW2 5689   3.870   3.449   2.163
 1852SOL     OW 5690   1.628   0.209   3.051
 1852SOL    HW1 5691   1.663   0.293   3.079
 1852SOL    HW2 5692   1.547   0.231   3.004
 1853SOL     OW 5693   0.196   3.119   2.829
 1853SOL    HW1 5694   0.216   3.136   2.921
 1853SOL    HW2 5695   0.235   3.034   2.811
 1854SOL     OW 5696   2.158   0.376   2.093
 1854SOL    HW1 5697   2.197   0.295   2.062
 1854SOL    HW2 5698   2.233   0.433   2.114
 1855SOL     OW 5699   3.153   1.387   1.284
 1855SOL    HW1 5700   3.108   1.363   1.203
 1855SOL    HW2 5701   3.088   1.436   1.334
 1856SOL     OW 5702   0.069   2.606   0.507
 1856SOL    HW1 5703   0.148   2.646   0.470
 1856SOL    HW2 5704   0.038   2.546   0.439
 1857SOL     OW 5705   2.775   0.969   1.969
 1857SOL    HW1 5706   2.794   1.059   1.996
 1857SOL    HW2 5707   2.814   0.962   1.882
 1858SOL     OW 5708   2.114   0.773   1.671
 1858SOL    HW1 5709   2.061   0.701   1.638
 1858SOL    HW2 5710   2.175   0.732   1.733
 1859SOL     OW 5711   1.010   2.352   2.385
 1859SOL    HW1 5712   0.942   2.397   2.334
 1859SOL    HW2 5713   1.082   2.339   2.323
 1860SOL     OW 5714   0.122   1.925   3.071
 1860SOL    HW1 5715   0.061   1.970   3.129
 1860SOL    HW2 5716   0.189   1.889   3.130
 1861SOL     OW 5717   3.336   3.293   1.964
 1861SOL    HW1 5718   3.418   3.293   2.013
 1861SOL    HW2 5719   3.268   3.291   2.031
 1862SOL     OW 5720   1.860   2.928   3.217
 1862SOL    HW1 5721   1.856   2.837   3.244
 1862SOL    HW2 5722   1.953   2.944   3.200
 1863SOL     OW 5723   0.946   1.449   1.822
 1863SOL    HW1 5724   0.880   1.379   1.823
 1863SOL    HW2 5725   1.020   1.412   1.871
 1864SOL     OW 5726   1.642   1.098   1.682
 1864SOL    HW1 5727   1.603   1.185   1.682
 1864SOL    HW2 5728   1.642   1.072   1.590
 1865SOL     OW 5729   3.736   1.521   2.307
 1865SOL    HW1 5730   3.777   1.468   2.239
 1865SOL    HW2 5731   3.722   1.460   2.380
 1866SOL     OW 5732   3.313   3.285   1.671
 1866SOL    HW1 5733   3.225   3.259   1.643
 1866SOL    HW2 5734   3.312   3.275   1.766
 1867SOL     OW 5735   0.777   2.014   1.361
 1867SOL    HW1 5736   0.833   1.937   1.352
 1867SOL    HW2 5737   0.696   1.991   1.316
 1868SOL     OW 5738   0.718   0.609   0.281
 1868SOL    HW1 5739   0.638   0.655   0.304
 1868SOL    HW2 5740   0.789   0.665   0.314
 1869SOL     OW 5741  -0.006   1.131   2.535
 1869SOL    HW1 5742  -0.042   1.100   2.619
 1869SOL    HW2 5743   0.086   1.106   2.538
 1870SOL     OW 5744   0.929   1.170   2.741
 1870SOL    HW1 5745   0.947   1.114   2.666
 1870SOL    HW2 5746   0.835   1.160   2.757
 1871SOL     OW 5747   2.032   0.383   0.168
 1871SOL    HW1 5748   2.105   0.326   0.193
 1871SOL    HW2 5749   1.989   0.404   0.251
 1872SOL     OW 5750   1.731   0.773   1.623
 1872SOL    HW1 5751   1.737   0.679   1.638
 1872SOL    HW2 5752   1.754   0.812   1.708
 1873SOL     OW 5753   0.903   1.737   1.330
 1873SOL    HW1 5754   0.929   1.665   1.388
 1873SOL    HW2 5755   0.961   1.730   1.255
 1874SOL     OW 5756   0.376   2.309   2.552
 1874SOL    HW1 5757   0.434   2.248   2.506
 1874SOL    HW2 5758   0.367   2.383   2.492
 1875SOL     OW 5759   2.148   0.997   1.205
 1875SOL    HW1 5760   2.055   1.016   1.195
 1875SOL    HW2 5761   2.159   0.983   1.299
 1876SOL     OW 5762   1.974   0.469   1.826
 1876SOL    HW1 5763   1.897   0.521   1.848
 1876SOL    HW2 5764   2.034   0.482   1.899
 1877SOL     OW 5765   1.307   1.967   2.130
 1877SOL    HW1 5766   1.393   1.962   2.089
 1877SOL    HW2 5767   1.315   1.914   2.209
 1878SOL     OW 5768   1.847   3.200   2.938
 1878SOL    HW1 5769   1.783   3.246   2.883
 1878SOL    HW2 5770   1.866   3.262   3.008
 1879SOL     OW 5771   0.757   0.771   2.989
 1879SOL    HW1 5772   0.722   0.859   2.973
 1879SOL    HW2 5773   0.754   0.728   2.903
 1880SOL     OW 5774   3.528   2.642   1.325
 1880SOL    HW1 5775   3.539   2.598   1.241
 1880SOL    HW2 5776   3.587   2.595   1.384
 1881SOL     OW 5777   2.455   2.828   0.540
 1881SOL    HW1 5778   2.394   2.867   0.602
 1881SOL    HW2 5779   2.408   2.827   0.457
 1882SOL     OW 5780   1.701   2.675   0.846
 1882SOL    HW1 5781   1.740   2.699   0.762
 1882SOL    HW2 5782   1.760   2.712   0.912
 1883SOL     OW 5783   3.808   1.829   0.253
 1883SOL    HW1 5784   3.869   1.874   0.311
 1883SOL    HW2 5785   3.722   1.857   0.284
 1884SOL     OW 5786   2.206   1.660   1.214
 1884SOL    HW1 5787   2.210   1.588   1.151
 1884SOL    HW2 5788   2.187   1.617   1.298
 1885SOL     OW 5789   1.527   1.982   0.296
 1885SOL    HW1 5790   1.613   1.947   0.322
 1885SOL    HW2 5791   1.524   2.069   0.338
 1886SOL     OW 5792   2.035   2.339   2.493
 1886SOL    HW1 5793   1.997   2.257   2.462
 1886SOL    HW2 5794   2.040   2.394   2.415
 1887SOL     OW 5795   3.593   0.941   1.005
 1887SOL    HW1 5796   3.639   0.931   1.088
 1887SOL    HW2 5797   3.626   0.870   0.950
 1888SOL     OW 5798   2.715   1.781   2.358
 1888SOL    HW1 5799   2.770   1.860   2.362
 1888SOL    HW2 5800   2.776   1.708   2.370
 1889SOL     OW 5801   2.915   0.132   1.205
 1889SOL    HW1 5802   2.846   0.168   1.261
 1889SOL    HW2 5803   2.948   0.056   1.254
 1890SOL     OW 5804   3.476   2.738   2.590
 1890SOL    HW1 5805   3.544   2.693   2.641
 1890SOL    HW2 5806   3.525   2.796   2.531
 1891SOL     OW 5807   1.094   0.910   2.283
 1891SOL    HW1 5808   1.108   0.974   2.353
 1891SOL    HW2 5809   1.001   0.917   2.262
 1892SOL     OW 5810   3.197   2.181   1.130
 1892SOL    HW1 5811   3.208   2.260   1.078
 1892SOL    HW2 5812   3.153   2.211   1.210
 1893SOL     OW 5813   1.470   3.716   3.083
 1893SOL    HW1 5814   1.435   3.732   2.996
 1893SOL    HW2 5815   1.498   3.802   3.114
 1894SOL     OW 5816   1.189   0.635   2.795
 1894SOL    HW1 5817   1.108   0.597   2.831
 1894SOL    HW2 5818   1.159   0.701   2.732
 1895SOL     OW 5819   0.710   3.976   3.308
 1895SOL    HW1 5820   0.670   3.927   3.236
 1895SOL    HW2 5821   0.734   3.910   3.372
 1896SOL     OW 5822   1.038   3.380   1.500
 1896SOL    HW1 5823   0.974   3.310   1.491
 1896SOL    HW2 5824   1.004   3.436   1.570
 1897SOL     OW 5825   1.345   0.123   2.024
 1897SOL    HW1 5826   1.279   0.186   2.051
 1897SOL    HW2 5827   1.387   0.163   1.948
 1898SOL     OW 5828   2.082   1.625   2.714
 1898SOL    HW1 5829   2.151   1.590   2.658
 1898SOL    HW2 5830   2.017   1.659   2.653
 1899SOL     OW 5831   3.703   1.052   3.370
 1899SOL    HW1 5832   3.782   1.040   3.422
 1899SOL    HW2 5833   3.679   1.144   3.381
 1900SOL     OW 5834   2.329   2.140   3.211
 1900SOL    HW1 5835   2.282   2.143   3.127
 1900SOL    HW2 5836   2.297   2.061   3.254
 1901SOL     OW 5837   0.282   0.391   3.304
 1901SOL    HW1 5838   0.306   0.301   3.286
 1901SOL    HW2 5839   0.217   0.385   3.375
 1902SOL     OW 5840   2.667   0.712   3.365
 1902SOL    HW1 5841   2.580   0.731   3.329
 1902SOL    HW2 5842   2.718   0.791   3.347
 1903SOL     OW 5843   2.577   3.616   0.167
 1903SOL    HW1 5844   2.655   3.602   0.221
 1903SOL    HW2 5845   2.504   3.592   0.224
 1904SOL     OW 5846   3.207   0.628   1.797
 1904SOL    HW1 5847   3.188   0.578   1.717
 1904SOL    HW2 5848   3.125   0.675   1.814
 1905SOL     OW 5849   0.339   3.414   1.907
 1905SOL    HW1 5850   0.336   3.501   1.867
 1905SOL    HW2 5851   0.388   3.425   1.988
 1906SOL     OW 5852   0.645   3.709   3.240
 1906SOL    HW1 5853   0.575   3.657   3.280
 1906SOL    HW2 5854   0.676   3.656   3.167
 1907SOL     OW 5855   0.105   3.775   1.770
 1907SOL    HW1 5856   0.036   3.709   1.771
 1907SOL    HW2 5857   0.059   3.858   1.756
 1908SOL     OW 5858   3.278   1.310   2.514
 1908SOL    HW1 5859   3.291   1.348   2.601
 1908SOL    HW2 5860   3.202   1.253   2.525
 1909SOL     OW 5861   0.238   0.896   2.225
 1909SOL    HW1 5862   0.314   0.949   2.248
 1909SOL    HW2 5863   0.163   0.954   2.240
 1910SOL     OW 5864   1.087   1.763   1.131
 1910SOL    HW1 5865   1.150   1.691   1.138
 1910SOL    HW2 5866   1.068   1.768   1.037
 1911SOL     OW 5867   2.777   2.114   2.937
 1911SOL    HW1 5868   2.839   2.118   3.009
 1911SOL    HW2 5869   2.779   2.201   2.899
 1912SOL     OW 5870   0.987   0.293   3.341
 1912SOL    HW1 5871   0.936   0.309   3.420
 1912SOL    HW2 5872   0.953   0.210   3.307
 1913SOL     OW 5873   3.333   3.032   2.869
 1913SOL    HW1 5874   3.258   3.009   2.924
 1913SOL    HW2 5875   3.368   2.948   2.840
 1914SOL     OW 5876   1.177   3.252   3.075
 1914SOL    HW1 5877   1.212   3.339   3.053
 1914SOL    HW2 5878   1.185   3.202   2.994
 1915SOL     OW 5879   2.390   2.311   0.335
 1915SOL    HW1 5880   2.476   2.313   0.293
 1915SOL    HW2 5881   2.328   2.298   0.263
 1916SOL     OW 5882   2.589   2.550   1.475
 1916SOL    HW1 5883   2.635   2.632   1.496
 1916SOL    HW2 5884   2.549   2.566   1.390
 1917SOL     OW 5885   2.440   3.387   2.878
 1917SOL    HW1 5886   2.514   3.338   2.841
 1917SOL    HW2 5887   2.468   3.478   2.877
 1918NA      NA 5888   1.827   1.202   3.596
 1919NA      NA 5889   0.727   0.814   1.316
   3.96100   3.96100   3.96100   0.00000   0.00000   0.00000   0.00000   0.00000   0.00000
