Generated with MDTraj, t= 48370.0
 5889
    1TYR      N    1   0.746   2.043   1.626
    1TYR     H1    2   0.737   1.940   1.630
    1TYR     H2    3   0.838   2.076   1.662
    1TYR     H3    4   0.680   2.090   1.693
    1TYR     CA    5   0.713   2.088   1.490
    1TYR     HA    6   0.605   2.082   1.493
    1TYR     CB    7   0.767   2.234   1.458
    1TYR    HB1    8   0.735   2.307   1.537
    1TYR    HB2    9   0.877   2.241   1.444
    1TYR     CG   10   0.709   2.292   1.336
    1TYR    CD1   11   0.788   2.369   1.247
    1TYR    HD1   12   0.892   2.383   1.275
    1TYR    CE1   13   0.733   2.415   1.124
    1TYR    HE1   14   0.796   2.461   1.049
    1TYR     CZ   15   0.596   2.406   1.099
    1TYR     OH   16   0.546   2.463   0.983
    1TYR     HH   17   0.462   2.420   0.965
    1TYR    CD2   18   0.571   2.283   1.305
    1TYR    HD2   19   0.504   2.233   1.374
    1TYR    CE2   20   0.519   2.336   1.192
    1TYR    HE2   21   0.412   2.327   1.181
    1TYR      C   22   0.764   1.996   1.378
    1TYR      O   23   0.690   1.939   1.303
    2TYR      N   24   0.894   1.977   1.357
    2TYR     HN   25   0.972   2.023   1.400
    2TYR     CA   26   0.934   1.876   1.257
    2TYR     HA   27   0.891   1.901   1.161
    2TYR     CB   28   1.090   1.866   1.232
    2TYR    HB1   29   1.131   1.836   1.331
    2TYR    HB2   30   1.126   1.793   1.157
    2TYR     CG   31   1.151   2.006   1.201
    2TYR    CD1   32   1.083   2.130   1.190
    2TYR    HD1   33   0.976   2.122   1.178
    2TYR    CE1   34   1.156   2.244   1.161
    2TYR    HE1   35   1.097   2.333   1.143
    2TYR     CZ   36   1.294   2.246   1.148
    2TYR     OH   37   1.362   2.362   1.102
    2TYR     HH   38   1.451   2.333   1.077
    2TYR    CD2   39   1.294   2.013   1.199
    2TYR    HD2   40   1.338   1.914   1.203
    2TYR    CE2   41   1.368   2.130   1.179
    2TYR    HE2   42   1.473   2.130   1.151
    2TYR      C   43   0.897   1.731   1.278
    2TYR      O   44   0.946   1.671   1.378
    3ASP      N   45   0.820   1.676   1.186
    3ASP     HN   46   0.811   1.722   1.099
    3ASP     CA   47   0.759   1.553   1.193
    3ASP     HA   48   0.710   1.546   1.289
    3ASP     CB   49   0.639   1.550   1.094
    3ASP    HB1   50   0.590   1.649   1.090
    3ASP    HB2   51   0.677   1.511   0.996
    3ASP     CG   52   0.526   1.464   1.153
    3ASP    OD1   53   0.476   1.365   1.088
    3ASP    OD2   54   0.483   1.499   1.263
    3ASP      C   55   0.854   1.436   1.167
    3ASP      O   56   0.945   1.453   1.082
    4PRO      N   57   0.853   1.320   1.236
    4PRO     CD   58   0.794   1.325   1.375
    4PRO    HD1   59   0.685   1.305   1.385
    4PRO    HD2   60   0.807   1.421   1.430
    4PRO     CA   61   0.969   1.229   1.239
    4PRO     HA   62   1.055   1.272   1.190
    4PRO     CB   63   0.997   1.189   1.392
    4PRO    HB1   64   1.036   1.086   1.404
    4PRO    HB2   65   1.073   1.258   1.435
    4PRO     CG   66   0.863   1.217   1.459
    4PRO    HG1   67   0.808   1.120   1.453
    4PRO    HG2   68   0.860   1.244   1.567
    4PRO      C   69   0.932   1.095   1.170
    4PRO      O   70   1.022   1.010   1.165
    5GLU      N   71   0.808   1.090   1.121
    5GLU     HN   72   0.744   1.159   1.156
    5GLU     CA   73   0.754   0.964   1.068
    5GLU     HA   74   0.802   0.881   1.118
    5GLU     CB   75   0.600   0.968   1.090
    5GLU    HB1   76   0.543   1.037   1.025
    5GLU    HB2   77   0.562   0.869   1.058
    5GLU     CG   78   0.558   1.021   1.237
    5GLU    HG1   79   0.632   0.987   1.312
    5GLU    HG2   80   0.558   1.132   1.249
    5GLU     CD   81   0.420   0.974   1.263
    5GLU    OE1   82   0.414   0.881   1.346
    5GLU    OE2   83   0.318   1.029   1.213
    5GLU      C   84   0.798   0.948   0.918
    5GLU      O   85   0.890   0.875   0.879
    6THR      N   86   0.740   1.039   0.842
    6THR     HN   87   0.681   1.105   0.888
    6THR     CA   88   0.767   1.051   0.701
    6THR     HA   89   0.816   0.963   0.660
    6THR     CB   90   0.633   1.067   0.632
    6THR     HB   91   0.560   1.146   0.661
    6THR    OG1   92   0.569   0.942   0.646
    6THR    HG1   93   0.487   0.960   0.599
    6THR    CG2   94   0.660   1.093   0.483
    6THR   HG21   95   0.717   1.007   0.443
    6THR   HG22   96   0.563   1.107   0.430
    6THR   HG23   97   0.715   1.188   0.468
    6THR      C   98   0.856   1.174   0.679
    6THR      O   99   0.947   1.174   0.599
    7GLY      N  100   0.845   1.275   0.763
    7GLY     HN  101   0.769   1.272   0.828
    7GLY     CA  102   0.932   1.387   0.758
    7GLY    HA1  103   0.951   1.406   0.863
    7GLY    HA2  104   1.026   1.360   0.713
    7GLY      C  105   0.870   1.496   0.680
    7GLY      O  106   0.931   1.557   0.597
    8THR      N  107   0.737   1.511   0.696
    8THR     HN  108   0.682   1.436   0.733
    8THR     CA  109   0.667   1.610   0.615
    8THR     HA  110   0.730   1.681   0.563
    8THR     CB  111   0.579   1.535   0.512
    8THR     HB  112   0.523   1.450   0.557
    8THR    OG1  113   0.664   1.475   0.413
    8THR    HG1  114   0.612   1.409   0.365
    8THR    CG2  115   0.481   1.636   0.434
    8THR   HG21  116   0.419   1.580   0.361
    8THR   HG22  117   0.404   1.663   0.509
    8THR   HG23  118   0.525   1.730   0.393
    8THR      C  119   0.580   1.700   0.707
    8THR      O  120   0.475   1.652   0.755
    9TRP      N  121   0.624   1.825   0.729
    9TRP     HN  122   0.701   1.867   0.681
    9TRP     CA  123   0.541   1.906   0.825
    9TRP     HA  124   0.453   1.857   0.864
    9TRP     CB  125   0.628   1.944   0.953
    9TRP    HB1  126   0.565   2.007   1.019
    9TRP    HB2  127   0.651   1.850   1.007
    9TRP     CG  128   0.762   2.006   0.913
    9TRP    CD1  129   0.784   2.144   0.889
    9TRP    HD1  130   0.704   2.216   0.891
    9TRP    NE1  131   0.912   2.156   0.840
    9TRP    HE1  132   0.958   2.243   0.843
    9TRP    CE2  133   0.974   2.035   0.845
    9TRP    CD2  134   0.884   1.936   0.887
    9TRP    CE3  135   0.921   1.807   0.894
    9TRP    HE3  136   0.849   1.730   0.916
    9TRP    CZ3  137   1.048   1.764   0.859
    9TRP    HZ3  138   1.087   1.664   0.861
    9TRP    CZ2  139   1.111   1.998   0.817
    9TRP    HZ2  140   1.190   2.065   0.789
    9TRP    CH2  141   1.144   1.859   0.820
    9TRP    HH2  142   1.246   1.832   0.798
    9TRP      C  143   0.481   2.033   0.761
    9TRP      O  144   0.510   2.078   0.655
   10TYR      N  145   0.379   2.094   0.829
   10TYR     HN  146   0.333   2.062   0.912
   10TYR     CA  147   0.323   2.216   0.777
   10TYR     HA  148   0.399   2.278   0.731
   10TYR     CB  149   0.216   2.176   0.670
   10TYR    HB1  150   0.253   2.095   0.603
   10TYR    HB2  151   0.123   2.138   0.716
   10TYR     CG  152   0.184   2.302   0.591
   10TYR    CD1  153   0.063   2.370   0.607
   10TYR    HD1  154  -0.013   2.333   0.674
   10TYR    CE1  155   0.033   2.486   0.537
   10TYR    HE1  156  -0.059   2.540   0.548
   10TYR     CZ  157   0.138   2.546   0.462
   10TYR     OH  158   0.111   2.660   0.386
   10TYR     HH  159   0.015   2.654   0.379
   10TYR    CD2  160   0.288   2.360   0.519
   10TYR    HD2  161   0.382   2.310   0.505
   10TYR    CE2  162   0.264   2.485   0.454
   10TYR    HE2  163   0.347   2.535   0.406
   10TYR      C  164   0.259   2.294   0.894
   10TYR    OT1  165   0.165   2.249   0.960
   10TYR    OT2  166   0.297   2.411   0.917
   11SOL     OW  167   2.982   2.740   2.322
   11SOL    HW1  168   3.025   2.731   2.407
   11SOL    HW2  169   3.037   2.803   2.275
   12SOL     OW  170   3.675   1.999   3.703
   12SOL    HW1  171   3.761   1.982   3.741
   12SOL    HW2  172   3.619   2.017   3.778
   13SOL     OW  173   2.604   3.557   0.405
   13SOL    HW1  174   2.656   3.618   0.457
   13SOL    HW2  175   2.665   3.488   0.379
   14SOL     OW  176   3.922   0.785   2.900
   14SOL    HW1  177   3.884   0.806   2.815
   14SOL    HW2  178   3.972   0.705   2.885
   15SOL     OW  179   1.320   1.772   3.480
   15SOL    HW1  180   1.374   1.747   3.555
   15SOL    HW2  181   1.313   1.692   3.428
   16SOL     OW  182   3.057   3.828   1.790
   16SOL    HW1  183   3.109   3.748   1.781
   16SOL    HW2  184   3.096   3.873   1.866
   17SOL     OW  185   3.180   1.366   3.666
   17SOL    HW1  186   3.229   1.403   3.739
   17SOL    HW2  187   3.216   1.278   3.654
   18SOL     OW  188   0.594   3.553   3.845
   18SOL    HW1  189   0.672   3.498   3.847
   18SOL    HW2  190   0.528   3.501   3.892
   19SOL     OW  191   0.558   3.105   1.417
   19SOL    HW1  192   0.590   3.022   1.382
   19SOL    HW2  193   0.631   3.166   1.408
   20SOL     OW  194   1.439   1.598   0.708
   20SOL    HW1  195   1.460   1.679   0.754
   20SOL    HW2  196   1.372   1.623   0.644
   21SOL     OW  197   2.427   2.628   0.173
   21SOL    HW1  198   2.439   2.691   0.102
   21SOL    HW2  199   2.452   2.677   0.252
   22SOL     OW  200   1.607   2.976   1.147
   22SOL    HW1  201   1.699   2.996   1.127
   22SOL    HW2  202   1.581   2.913   1.079
   23SOL     OW  203   3.752   3.304   0.507
   23SOL    HW1  204   3.804   3.336   0.580
   23SOL    HW2  205   3.686   3.248   0.547
   24SOL     OW  206   0.812   0.885   3.131
   24SOL    HW1  207   0.849   0.943   3.198
   24SOL    HW2  208   0.719   0.881   3.151
   25SOL     OW  209   0.940   3.376   1.112
   25SOL    HW1  210   0.899   3.418   1.037
   25SOL    HW2  211   0.900   3.417   1.189
   26SOL     OW  212   0.053   3.847   3.400
   26SOL    HW1  213  -0.020   3.881   3.348
   26SOL    HW2  214   0.023   3.852   3.491
   27SOL     OW  215   1.479   1.153   2.074
   27SOL    HW1  216   1.568   1.177   2.102
   27SOL    HW2  217   1.424   1.173   2.150
   28SOL     OW  218   0.281   2.616   1.825
   28SOL    HW1  219   0.343   2.594   1.755
   28SOL    HW2  220   0.223   2.682   1.787
   29SOL     OW  221   2.075   1.436   0.207
   29SOL    HW1  222   1.981   1.449   0.195
   29SOL    HW2  223   2.113   1.456   0.122
   30SOL     OW  224   1.385   2.095   2.390
   30SOL    HW1  225   1.405   2.187   2.372
   30SOL    HW2  226   1.367   2.058   2.304
   31SOL     OW  227   0.939   2.206   0.358
   31SOL    HW1  228   1.016   2.152   0.376
   31SOL    HW2  229   0.900   2.221   0.444
   32SOL     OW  230   1.110   3.539   2.795
   32SOL    HW1  231   1.078   3.471   2.736
   32SOL    HW2  232   1.035   3.560   2.850
   33SOL     OW  233   2.701   0.264   2.530
   33SOL    HW1  234   2.649   0.338   2.563
   33SOL    HW2  235   2.637   0.204   2.492
   34SOL     OW  236   0.954   0.101   3.486
   34SOL    HW1  237   1.034   0.146   3.457
   34SOL    HW2  238   0.948   0.025   3.428
   35SOL     OW  239   2.454   1.290   2.423
   35SOL    HW1  240   2.470   1.244   2.506
   35SOL    HW2  241   2.366   1.263   2.397
   36SOL     OW  242   3.826   0.706   2.621
   36SOL    HW1  243   3.892   0.715   2.552
   36SOL    HW2  244   3.846   0.623   2.663
   37SOL     OW  245   2.329   1.868   3.809
   37SOL    HW1  246   2.333   1.838   3.900
   37SOL    HW2  247   2.364   1.957   3.812
   38SOL     OW  248   3.148   2.891   1.158
   38SOL    HW1  249   3.134   2.872   1.250
   38SOL    HW2  250   3.149   2.986   1.152
   39SOL     OW  251   2.848   1.455   2.927
   39SOL    HW1  252   2.859   1.456   3.022
   39SOL    HW2  253   2.902   1.382   2.897
   40SOL     OW  254   1.443   3.812   0.079
   40SOL    HW1  255   1.521   3.846   0.122
   40SOL    HW2  256   1.467   3.722   0.055
   41SOL     OW  257   0.001   2.957   2.027
   41SOL    HW1  258  -0.025   2.987   1.940
   41SOL    HW2  259   0.083   3.004   2.045
   42SOL     OW  260   3.847   1.052   1.310
   42SOL    HW1  261   3.941   1.045   1.329
   42SOL    HW2  262   3.811   1.099   1.385
   43SOL     OW  263   1.007   2.584   3.082
   43SOL    HW1  264   1.065   2.522   3.037
   43SOL    HW2  265   1.048   2.670   3.067
   44SOL     OW  266   1.861   3.469   2.427
   44SOL    HW1  267   1.859   3.374   2.418
   44SOL    HW2  268   1.776   3.498   2.394
   45SOL     OW  269   3.852   3.562   1.112
   45SOL    HW1  270   3.880   3.604   1.030
   45SOL    HW2  271   3.782   3.619   1.145
   46SOL     OW  272   3.222   2.894   2.218
   46SOL    HW1  273   3.299   2.880   2.273
   46SOL    HW2  274   3.256   2.896   2.129
   47SOL     OW  275   1.760   0.668   2.067
   47SOL    HW1  276   1.751   0.714   1.984
   47SOL    HW2  277   1.670   0.656   2.098
   48SOL     OW  278   0.142   0.467   2.888
   48SOL    HW1  279   0.056   0.472   2.846
   48SOL    HW2  280   0.165   0.374   2.886
   49SOL     OW  281   0.830   3.197   2.042
   49SOL    HW1  282   0.742   3.202   2.005
   49SOL    HW2  283   0.877   3.138   1.984
   50SOL     OW  284   3.500   1.232   3.565
   50SOL    HW1  285   3.410   1.199   3.569
   50SOL    HW2  286   3.493   1.325   3.588
   51SOL     OW  287   1.157   1.406   2.183
   51SOL    HW1  288   1.078   1.362   2.152
   51SOL    HW2  289   1.181   1.465   2.112
   52SOL     OW  290   2.188   3.660   3.331
   52SOL    HW1  291   2.207   3.749   3.359
   52SOL    HW2  292   2.243   3.646   3.254
   53SOL     OW  293   0.556   0.282   2.974
   53SOL    HW1  294   0.644   0.278   3.012
   53SOL    HW2  295   0.499   0.303   3.049
   54SOL     OW  296   2.531   1.663   3.630
   54SOL    HW1  297   2.560   1.620   3.710
   54SOL    HW2  298   2.492   1.745   3.659
   55SOL     OW  299   3.233   3.808   0.760
   55SOL    HW1  300   3.160   3.749   0.782
   55SOL    HW2  301   3.290   3.755   0.704
   56SOL     OW  302   3.141   1.798   1.272
   56SOL    HW1  303   3.185   1.714   1.270
   56SOL    HW2  304   3.093   1.802   1.189
   57SOL     OW  305   2.558   0.979   1.580
   57SOL    HW1  306   2.648   0.947   1.574
   57SOL    HW2  307   2.508   0.921   1.522
   58SOL     OW  308   2.242   1.112   3.886
   58SOL    HW1  309   2.234   1.205   3.911
   58SOL    HW2  310   2.330   1.087   3.914
   59SOL     OW  311   2.672   1.642   0.858
   59SOL    HW1  312   2.762   1.628   0.889
   59SOL    HW2  313   2.670   1.603   0.770
   60SOL     OW  314   3.512   0.820   2.990
   60SOL    HW1  315   3.423   0.788   2.974
   60SOL    HW2  316   3.501   0.890   3.054
   61SOL     OW  317   1.632   1.178   2.612
   61SOL    HW1  318   1.590   1.210   2.692
   61SOL    HW2  319   1.620   1.083   2.615
   62SOL     OW  320   3.491   2.950   0.294
   62SOL    HW1  321   3.431   2.917   0.228
   62SOL    HW2  322   3.495   3.044   0.277
   63SOL     OW  323   2.307   3.327   2.850
   63SOL    HW1  324   2.272   3.351   2.936
   63SOL    HW2  325   2.327   3.233   2.857
   64SOL     OW  326   3.050   3.898   2.365
   64SOL    HW1  327   3.144   3.884   2.355
   64SOL    HW2  328   3.040   3.993   2.373
   65SOL     OW  329   0.281   3.943   2.536
   65SOL    HW1  330   0.247   3.857   2.512
   65SOL    HW2  331   0.370   3.944   2.501
   66SOL     OW  332   2.199   0.214   1.232
   66SOL    HW1  333   2.263   0.143   1.236
   66SOL    HW2  334   2.249   0.294   1.245
   67SOL     OW  335   0.986   3.935   2.064
   67SOL    HW1  336   0.927   3.861   2.047
   67SOL    HW2  337   0.977   3.953   2.157
   68SOL     OW  338   0.532   3.742   1.354
   68SOL    HW1  339   0.476   3.818   1.371
   68SOL    HW2  340   0.552   3.708   1.442
   69SOL     OW  341   3.636   1.797   0.594
   69SOL    HW1  342   3.562   1.851   0.567
   69SOL    HW2  343   3.602   1.743   0.665
   70SOL     OW  344   2.857   2.847   1.732
   70SOL    HW1  345   2.944   2.809   1.744
   70SOL    HW2  346   2.863   2.934   1.771
   71SOL     OW  347   3.525   1.456   0.394
   71SOL    HW1  348   3.620   1.461   0.400
   71SOL    HW2  349   3.505   1.363   0.395
   72SOL     OW  350   1.096   2.817   0.062
   72SOL    HW1  351   1.013   2.798   0.104
   72SOL    HW2  352   1.162   2.795   0.128
   73SOL     OW  353   3.285   0.286   2.933
   73SOL    HW1  354   3.311   0.193   2.931
   73SOL    HW2  355   3.365   0.332   2.959
   74SOL     OW  356   1.962   1.421   0.946
   74SOL    HW1  357   1.884   1.448   0.898
   74SOL    HW2  358   2.019   1.381   0.880
   75SOL     OW  359   0.634   2.474   0.457
   75SOL    HW1  360   0.631   2.486   0.552
   75SOL    HW2  361   0.603   2.384   0.443
   76SOL     OW  362   3.861   1.164   0.436
   76SOL    HW1  363   3.814   1.247   0.422
   76SOL    HW2  364   3.822   1.127   0.515
   77SOL     OW  365   0.946   0.295   2.084
   77SOL    HW1  366   1.029   0.311   2.038
   77SOL    HW2  367   0.924   0.380   2.122
   78SOL     OW  368   0.303   2.808   1.041
   78SOL    HW1  369   0.247   2.804   0.963
   78SOL    HW2  370   0.261   2.872   1.098
   79SOL     OW  371   2.168   3.186   2.017
   79SOL    HW1  372   2.245   3.182   1.961
   79SOL    HW2  373   2.195   3.141   2.098
   80SOL     OW  374   1.691   3.450   2.027
   80SOL    HW1  375   1.747   3.393   2.079
   80SOL    HW2  376   1.606   3.407   2.027
   81SOL     OW  377   0.085   0.910   0.769
   81SOL    HW1  378   0.074   0.909   0.864
   81SOL    HW2  379   0.062   0.822   0.740
   82SOL     OW  380   2.435   1.517   0.616
   82SOL    HW1  381   2.440   1.469   0.699
   82SOL    HW2  382   2.461   1.453   0.549
   83SOL     OW  383   2.074   0.150   0.053
   83SOL    HW1  384   2.029   0.067   0.038
   83SOL    HW2  385   2.139   0.156  -0.017
   84SOL     OW  386   3.329   3.633   1.443
   84SOL    HW1  387   3.346   3.558   1.500
   84SOL    HW2  388   3.415   3.670   1.425
   85SOL     OW  389   3.176   2.473   3.286
   85SOL    HW1  390   3.251   2.426   3.322
   85SOL    HW2  391   3.101   2.441   3.336
   86SOL     OW  392   1.124   3.245   1.427
   86SOL    HW1  393   1.208   3.200   1.416
   86SOL    HW2  394   1.127   3.279   1.517
   87SOL     OW  395   0.291   2.323   2.994
   87SOL    HW1  396   0.287   2.418   2.979
   87SOL    HW2  397   0.199   2.295   2.991
   88SOL     OW  398   3.346   3.447   2.390
   88SOL    HW1  399   3.311   3.487   2.310
   88SOL    HW2  400   3.441   3.453   2.379
   89SOL     OW  401   3.735   2.109   2.510
   89SOL    HW1  402   3.662   2.123   2.450
   89SOL    HW2  403   3.698   2.126   2.597
   90SOL     OW  404   0.989   3.094   1.856
   90SOL    HW1  405   1.045   3.017   1.841
   90SOL    HW2  406   0.954   3.115   1.770
   91SOL     OW  407   1.006   1.113   3.000
   91SOL    HW1  408   0.913   1.112   3.021
   91SOL    HW2  409   1.029   1.206   2.998
   92SOL     OW  410   3.154   0.131   3.288
   92SOL    HW1  411   3.154   0.040   3.258
   92SOL    HW2  412   3.080   0.171   3.242
   93SOL     OW  413   0.462   1.177   2.674
   93SOL    HW1  414   0.420   1.139   2.597
   93SOL    HW2  415   0.418   1.136   2.748
   94SOL     OW  416   2.197   1.749   3.303
   94SOL    HW1  417   2.130   1.690   3.269
   94SOL    HW2  418   2.157   1.788   3.381
   95SOL     OW  419   2.225   0.969   2.938
   95SOL    HW1  420   2.195   1.057   2.916
   95SOL    HW2  421   2.144   0.917   2.940
   96SOL     OW  422   2.185   1.643   0.696
   96SOL    HW1  423   2.161   1.719   0.749
   96SOL    HW2  424   2.280   1.638   0.703
   97SOL     OW  425   1.116   3.543   0.880
   97SOL    HW1  426   1.123   3.516   0.971
   97SOL    HW2  427   1.190   3.501   0.837
   98SOL     OW  428   1.027   0.810   3.859
   98SOL    HW1  429   1.117   0.842   3.851
   98SOL    HW2  430   1.036   0.717   3.876
   99SOL     OW  431   0.280   2.395   1.400
   99SOL    HW1  432   0.264   2.441   1.317
   99SOL    HW2  433   0.215   2.325   1.402
  100SOL     OW  434   0.596   1.369  -0.000
  100SOL    HW1  435   0.571   1.407   0.084
  100SOL    HW2  436   0.514   1.335  -0.036
  101SOL     OW  437   3.830   0.487   2.849
  101SOL    HW1  438   3.783   0.541   2.913
  101SOL    HW2  439   3.761   0.440   2.803
  102SOL     OW  440   2.333   3.661   3.876
  102SOL    HW1  441   2.385   3.739   3.858
  102SOL    HW2  442   2.353   3.602   3.803
  103SOL     OW  443   3.674   1.757   0.149
  103SOL    HW1  444   3.725   1.741   0.228
  103SOL    HW2  445   3.609   1.823   0.175
  104SOL     OW  446   1.274   3.109   1.985
  104SOL    HW1  447   1.280   3.024   1.941
  104SOL    HW2  448   1.180   3.126   1.992
  105SOL     OW  449   2.420   3.232   1.672
  105SOL    HW1  450   2.360   3.199   1.605
  105SOL    HW2  451   2.367   3.292   1.725
  106SOL     OW  452   1.140   2.611   0.404
  106SOL    HW1  453   1.136   2.522   0.368
  106SOL    HW2  454   1.206   2.655   0.350
  107SOL     OW  455   2.994   0.173   1.628
  107SOL    HW1  456   3.068   0.143   1.680
  107SOL    HW2  457   2.956   0.093   1.593
  108SOL     OW  458   0.826   2.107   3.060
  108SOL    HW1  459   0.784   2.025   3.034
  108SOL    HW2  460   0.910   2.080   3.097
  109SOL     OW  461   2.961   1.908   3.542
  109SOL    HW1  462   3.005   1.828   3.513
  109SOL    HW2  463   3.032   1.963   3.576
  110SOL     OW  464   2.043   3.600   2.970
  110SOL    HW1  465   1.957   3.610   2.930
  110SOL    HW2  466   2.102   3.588   2.896
  111SOL     OW  467   2.743   1.544   1.717
  111SOL    HW1  468   2.739   1.639   1.729
  111SOL    HW2  469   2.823   1.517   1.762
  112SOL     OW  470   2.009   0.239   2.715
  112SOL    HW1  471   2.019   0.332   2.737
  112SOL    HW2  472   1.952   0.239   2.638
  113SOL     OW  473   3.914   2.687   1.921
  113SOL    HW1  474   3.924   2.781   1.937
  113SOL    HW2  475   3.927   2.677   1.826
  114SOL     OW  476   0.813   2.168   2.348
  114SOL    HW1  477   0.847   2.079   2.346
  114SOL    HW2  478   0.802   2.192   2.256
  115SOL     OW  479   0.520   0.155   1.049
  115SOL    HW1  480   0.547   0.190   0.964
  115SOL    HW2  481   0.592   0.176   1.108
  116SOL     OW  482   0.737   0.174   1.922
  116SOL    HW1  483   0.767   0.086   1.899
  116SOL    HW2  484   0.814   0.216   1.961
  117SOL     OW  485   3.113   2.565   1.397
  117SOL    HW1  486   3.155   2.628   1.456
  117SOL    HW2  487   3.150   2.480   1.423
  118SOL     OW  488   3.305   1.087   3.015
  118SOL    HW1  489   3.271   1.129   3.094
  118SOL    HW2  490   3.235   1.027   2.988
  119SOL     OW  491   2.020   0.419  -0.008
  119SOL    HW1  492   2.015   0.331   0.029
  119SOL    HW2  493   1.943   0.464   0.026
  120SOL     OW  494   2.894   2.995   0.807
  120SOL    HW1  495   2.902   2.901   0.825
  120SOL    HW2  496   2.896   3.036   0.893
  121SOL     OW  497   1.182   2.873   2.496
  121SOL    HW1  498   1.247   2.923   2.447
  121SOL    HW2  499   1.191   2.903   2.587
  122SOL     OW  500   0.104   3.741   2.487
  122SOL    HW1  501   0.035   3.807   2.477
  122SOL    HW2  502   0.082   3.674   2.422
  123SOL     OW  503   3.304   1.364   0.735
  123SOL    HW1  504   3.310   1.394   0.644
  123SOL    HW2  505   3.285   1.444   0.784
  124SOL     OW  506   3.602   3.688   1.486
  124SOL    HW1  507   3.575   3.695   1.578
  124SOL    HW2  508   3.685   3.735   1.481
  125SOL     OW  509   1.904   1.016   0.423
  125SOL    HW1  510   1.837   1.032   0.489
  125SOL    HW2  511   1.948   1.101   0.413
  126SOL     OW  512   1.544   1.918   2.123
  126SOL    HW1  513   1.621   1.936   2.177
  126SOL    HW2  514   1.507   1.837   2.159
  127SOL     OW  515   0.983   3.160   0.400
  127SOL    HW1  516   0.951   3.080   0.443
  127SOL    HW2  517   1.037   3.203   0.467
  128SOL     OW  518   3.833   0.355   1.577
  128SOL    HW1  519   3.927   0.340   1.575
  128SOL    HW2  520   3.795   0.272   1.604
  129SOL     OW  521   1.284   1.915   3.071
  129SOL    HW1  522   1.217   1.980   3.089
  129SOL    HW2  523   1.256   1.836   3.118
  130SOL     OW  524   0.835   3.299   3.056
  130SOL    HW1  525   0.813   3.374   3.002
  130SOL    HW2  526   0.825   3.224   2.998
  131SOL     OW  527   2.962   3.092   3.868
  131SOL    HW1  528   2.986   3.082   3.960
  131SOL    HW2  529   2.871   3.123   3.871
  132SOL     OW  530   2.696   3.291   3.674
  132SOL    HW1  531   2.680   3.210   3.625
  132SOL    HW2  532   2.725   3.261   3.761
  133SOL     OW  533   0.434   3.703   0.810
  133SOL    HW1  534   0.505   3.656   0.767
  133SOL    HW2  535   0.360   3.642   0.808
  134SOL     OW  536   0.354   2.581   2.423
  134SOL    HW1  537   0.386   2.492   2.437
  134SOL    HW2  538   0.259   2.575   2.435
  135SOL     OW  539   1.556   1.328   3.404
  135SOL    HW1  540   1.625   1.380   3.365
  135SOL    HW2  541   1.531   1.265   3.336
  136SOL     OW  542   0.076   2.646   2.500
  136SOL    HW1  543   0.098   2.721   2.556
  136SOL    HW2  544   0.083   2.680   2.411
  137SOL     OW  545   1.739   2.392   3.461
  137SOL    HW1  546   1.817   2.392   3.407
  137SOL    HW2  547   1.701   2.305   3.449
  138SOL     OW  548   0.450   0.859   0.059
  138SOL    HW1  549   0.415   0.878   0.146
  138SOL    HW2  550   0.390   0.794   0.022
  139SOL     OW  551   0.312   3.441   2.440
  139SOL    HW1  552   0.304   3.420   2.347
  139SOL    HW2  553   0.247   3.384   2.482
  140SOL     OW  554   2.049   1.910   1.289
  140SOL    HW1  555   2.022   1.827   1.249
  140SOL    HW2  556   2.078   1.963   1.215
  141SOL     OW  557   3.211   2.051   0.577
  141SOL    HW1  558   3.257   2.120   0.529
  141SOL    HW2  559   3.121   2.056   0.545
  142SOL     OW  560   3.627   3.780   2.385
  142SOL    HW1  561   3.661   3.824   2.462
  142SOL    HW2  562   3.661   3.830   2.311
  143SOL     OW  563   3.927   2.423   0.974
  143SOL    HW1  564   3.930   2.418   1.069
  143SOL    HW2  565   4.000   2.368   0.945
  144SOL     OW  566   2.575   2.423   1.338
  144SOL    HW1  567   2.628   2.345   1.324
  144SOL    HW2  568   2.484   2.393   1.331
  145SOL     OW  569   0.242   0.263   2.162
  145SOL    HW1  570   0.216   0.322   2.233
  145SOL    HW2  571   0.163   0.253   2.109
  146SOL     OW  572   0.045   3.571   3.448
  146SOL    HW1  573   0.008   3.658   3.435
  146SOL    HW2  574   0.126   3.586   3.498
  147SOL     OW  575   2.667   2.161   1.257
  147SOL    HW1  576   2.582   2.142   1.298
  147SOL    HW2  577   2.649   2.164   1.163
  148SOL     OW  578   1.264   3.022   3.927
  148SOL    HW1  579   1.199   2.952   3.933
  148SOL    HW2  580   1.245   3.080   4.001
  149SOL     OW  581   3.956   0.766   1.995
  149SOL    HW1  582   3.917   0.726   1.918
  149SOL    HW2  583   4.001   0.694   2.039
  150SOL     OW  584   3.407   1.275   1.952
  150SOL    HW1  585   3.400   1.355   2.004
  150SOL    HW2  586   3.494   1.240   1.973
  151SOL     OW  587   3.766   3.247   2.415
  151SOL    HW1  588   3.777   3.187   2.341
  151SOL    HW2  589   3.744   3.331   2.375
  152SOL     OW  590   3.815   3.164   3.685
  152SOL    HW1  591   3.892   3.207   3.647
  152SOL    HW2  592   3.749   3.168   3.616
  153SOL     OW  593   2.244   1.275   2.244
  153SOL    HW1  594   2.274   1.261   2.155
  153SOL    HW2  595   2.165   1.220   2.252
  154SOL     OW  596   0.199   3.920   3.813
  154SOL    HW1  597   0.129   3.890   3.755
  154SOL    HW2  598   0.216   4.010   3.785
  155SOL     OW  599   2.198   2.755   1.409
  155SOL    HW1  600   2.274   2.738   1.464
  155SOL    HW2  601   2.206   2.848   1.384
  156SOL     OW  602   3.716   0.902   2.025
  156SOL    HW1  603   3.801   0.877   1.990
  156SOL    HW2  604   3.653   0.863   1.964
  157SOL     OW  605   3.926   2.075   0.908
  157SOL    HW1  606   3.913   2.158   0.862
  157SOL    HW2  607   4.018   2.077   0.934
  158SOL     OW  608   2.112   0.384   1.785
  158SOL    HW1  609   2.154   0.469   1.780
  158SOL    HW2  610   2.020   0.404   1.802
  159SOL     OW  611   3.542   0.926   3.248
  159SOL    HW1  612   3.485   0.885   3.313
  159SOL    HW2  613   3.570   1.008   3.289
  160SOL     OW  614   1.950   1.543   3.575
  160SOL    HW1  615   1.986   1.460   3.545
  160SOL    HW2  616   1.934   1.531   3.668
  161SOL     OW  617   2.445   0.597   3.616
  161SOL    HW1  618   2.506   0.536   3.658
  161SOL    HW2  619   2.476   0.603   3.526
  162SOL     OW  620   1.331   3.326   0.942
  162SOL    HW1  621   1.317   3.378   1.021
  162SOL    HW2  622   1.257   3.265   0.940
  163SOL     OW  623   1.534   2.879   0.232
  163SOL    HW1  624   1.595   2.835   0.292
  163SOL    HW2  625   1.590   2.934   0.178
  164SOL     OW  626   2.655   3.134   0.302
  164SOL    HW1  627   2.605   3.090   0.371
  164SOL    HW2  628   2.625   3.224   0.303
  165SOL     OW  629   2.202   3.477   3.694
  165SOL    HW1  630   2.178   3.434   3.612
  165SOL    HW2  631   2.128   3.535   3.714
  166SOL     OW  632   2.980   3.153   1.670
  166SOL    HW1  633   2.986   3.196   1.584
  166SOL    HW2  634   2.890   3.120   1.674
  167SOL     OW  635   3.507   1.630   1.183
  167SOL    HW1  636   3.477   1.570   1.115
  167SOL    HW2  637   3.594   1.597   1.206
  168SOL     OW  638   3.421   3.533   3.436
  168SOL    HW1  639   3.403   3.627   3.429
  168SOL    HW2  640   3.495   3.527   3.496
  169SOL     OW  641   3.376   1.659   1.654
  169SOL    HW1  642   3.360   1.692   1.566
  169SOL    HW2  643   3.370   1.736   1.710
  170SOL     OW  644   0.152   1.312   0.350
  170SOL    HW1  645   0.138   1.407   0.351
  170SOL    HW2  646   0.100   1.280   0.424
  171SOL     OW  647   1.993   0.281   2.404
  171SOL    HW1  648   2.051   0.340   2.355
  171SOL    HW2  649   1.992   0.200   2.353
  172SOL     OW  650   2.491   3.317   1.203
  172SOL    HW1  651   2.547   3.287   1.274
  172SOL    HW2  652   2.549   3.367   1.145
  173SOL     OW  653   0.049   2.941   0.299
  173SOL    HW1  654  -0.047   2.932   0.302
  173SOL    HW2  655   0.081   2.853   0.282
  174SOL     OW  656   3.397   0.429   2.451
  174SOL    HW1  657   3.436   0.516   2.453
  174SOL    HW2  658   3.317   0.438   2.503
  175SOL     OW  659   2.022   1.563   2.892
  175SOL    HW1  660   2.118   1.570   2.887
  175SOL    HW2  661   1.991   1.653   2.880
  176SOL     OW  662   0.941   3.733   1.496
  176SOL    HW1  663   1.004   3.787   1.449
  176SOL    HW2  664   0.907   3.673   1.430
  177SOL     OW  665   1.375   3.007   2.328
  177SOL    HW1  666   1.461   2.996   2.286
  177SOL    HW2  667   1.336   3.082   2.284
  178SOL     OW  668   3.073   3.860   0.113
  178SOL    HW1  669   3.042   3.773   0.136
  178SOL    HW2  670   3.127   3.888   0.188
  179SOL     OW  671   2.204   3.430   0.151
  179SOL    HW1  672   2.180   3.338   0.136
  179SOL    HW2  673   2.143   3.459   0.219
  180SOL     OW  674   3.611   2.322   2.317
  180SOL    HW1  675   3.624   2.411   2.283
  180SOL    HW2  676   3.528   2.293   2.278
  181SOL     OW  677   1.525   3.542   0.068
  181SOL    HW1  678   1.579   3.466   0.050
  181SOL    HW2  679   1.443   3.526   0.022
  182SOL     OW  680   3.242   0.087   0.337
  182SOL    HW1  681   3.225   0.123   0.250
  182SOL    HW2  682   3.160   0.042   0.360
  183SOL     OW  683   1.739   2.136   2.190
  183SOL    HW1  684   1.820   2.178   2.219
  183SOL    HW2  685   1.713   2.186   2.112
  184SOL     OW  686   0.187   1.495   0.594
  184SOL    HW1  687   0.216   1.578   0.555
  184SOL    HW2  688   0.129   1.522   0.666
  185SOL     OW  689   1.246   2.022   0.192
  185SOL    HW1  690   1.278   1.978   0.114
  185SOL    HW2  691   1.321   2.075   0.222
  186SOL     OW  692   1.545   0.798   3.741
  186SOL    HW1  693   1.592   0.824   3.662
  186SOL    HW2  694   1.614   0.777   3.804
  187SOL     OW  695   0.653   0.162   1.562
  187SOL    HW1  696   0.639   0.227   1.631
  187SOL    HW2  697   0.566   0.127   1.544
  188SOL     OW  698   1.735   0.378   2.384
  188SOL    HW1  699   1.683   0.304   2.414
  188SOL    HW2  700   1.825   0.347   2.390
  189SOL     OW  701   1.830   3.861   3.920
  189SOL    HW1  702   1.781   3.858   4.002
  189SOL    HW2  703   1.912   3.816   3.939
  190SOL     OW  704   3.191   2.397   0.659
  190SOL    HW1  705   3.215   2.388   0.751
  190SOL    HW2  706   3.108   2.350   0.651
  191SOL     OW  707   2.646   1.217   0.699
  191SOL    HW1  708   2.661   1.149   0.765
  191SOL    HW2  709   2.582   1.276   0.739
  192SOL     OW  710   1.924   3.800   2.443
  192SOL    HW1  711   1.927   3.711   2.478
  192SOL    HW2  712   1.888   3.790   2.355
  193SOL     OW  713   2.914   2.587   3.542
  193SOL    HW1  714   2.959   2.636   3.611
  193SOL    HW2  715   2.862   2.653   3.496
  194SOL     OW  716   2.927   1.757   2.096
  194SOL    HW1  717   3.020   1.734   2.094
  194SOL    HW2  718   2.908   1.767   2.190
  195SOL     OW  719   0.219   3.584   0.673
  195SOL    HW1  720   0.245   3.649   0.608
  195SOL    HW2  721   0.287   3.517   0.668
  196SOL     OW  722   1.886   2.811   1.160
  196SOL    HW1  723   1.926   2.898   1.158
  196SOL    HW2  724   1.957   2.753   1.189
  197SOL     OW  725   0.734   1.199   1.912
  197SOL    HW1  726   0.757   1.121   1.862
  197SOL    HW2  727   0.647   1.223   1.881
  198SOL     OW  728   2.366   2.347   0.573
  198SOL    HW1  729   2.302   2.382   0.511
  198SOL    HW2  730   2.324   2.268   0.608
  199SOL     OW  731   1.501   2.654   2.713
  199SOL    HW1  732   1.563   2.726   2.725
  199SOL    HW2  733   1.474   2.630   2.802
  200SOL     OW  734   2.064   2.047   1.033
  200SOL    HW1  735   2.143   2.100   1.026
  200SOL    HW2  736   1.994   2.102   0.997
  201SOL     OW  737   0.795   1.476   1.889
  201SOL    HW1  738   0.836   1.512   1.809
  201SOL    HW2  739   0.793   1.382   1.874
  202SOL     OW  740   1.002   2.562   1.746
  202SOL    HW1  741   1.058   2.501   1.794
  202SOL    HW2  742   0.932   2.584   1.807
  203SOL     OW  743   3.972   3.123   3.026
  203SOL    HW1  744   3.906   3.117   2.958
  203SOL    HW2  745   3.929   3.169   3.098
  204SOL     OW  746   3.041   0.869   1.208
  204SOL    HW1  747   2.973   0.929   1.239
  204SOL    HW2  748   3.069   0.822   1.286
  205SOL     OW  749   3.131   2.362   1.948
  205SOL    HW1  750   3.103   2.401   1.864
  205SOL    HW2  751   3.103   2.425   2.014
  206SOL     OW  752   3.071   1.348   2.744
  206SOL    HW1  753   3.126   1.336   2.823
  206SOL    HW2  754   3.076   1.264   2.699
  207SOL     OW  755   1.375   2.486   3.978
  207SOL    HW1  756   1.391   2.502   3.885
  207SOL    HW2  757   1.323   2.405   3.979
  208SOL     OW  758   1.479   3.285   1.551
  208SOL    HW1  759   1.477   3.194   1.579
  208SOL    HW2  760   1.460   3.282   1.457
  209SOL     OW  761   2.841   1.094   1.451
  209SOL    HW1  762   2.918   1.145   1.425
  209SOL    HW2  763   2.782   1.158   1.489
  210SOL     OW  764   2.062   0.224   0.987
  210SOL    HW1  765   2.116   0.242   0.909
  210SOL    HW2  766   2.117   0.250   1.060
  211SOL     OW  767   3.959   3.943   1.785
  211SOL    HW1  768   3.999   3.870   1.738
  211SOL    HW2  769   3.879   3.906   1.823
  212SOL     OW  770   0.493   1.539   3.165
  212SOL    HW1  771   0.467   1.619   3.118
  212SOL    HW2  772   0.585   1.553   3.186
  213SOL     OW  773   3.051   1.261   1.364
  213SOL    HW1  774   3.042   1.316   1.442
  213SOL    HW2  775   3.123   1.200   1.385
  214SOL     OW  776   3.456   1.165   0.415
  214SOL    HW1  777   3.386   1.136   0.356
  214SOL    HW2  778   3.530   1.109   0.394
  215SOL     OW  779   3.945   0.751   1.388
  215SOL    HW1  780   3.941   0.768   1.294
  215SOL    HW2  781   3.987   0.829   1.425
  216SOL     OW  782   0.210   3.195   3.375
  216SOL    HW1  783   0.259   3.139   3.315
  216SOL    HW2  784   0.275   3.224   3.439
  217SOL     OW  785   0.132   1.124   2.632
  217SOL    HW1  786   0.071   1.097   2.702
  217SOL    HW2  787   0.110   1.216   2.616
  218SOL     OW  788   3.502   3.609   3.951
  218SOL    HW1  789   3.510   3.666   3.875
  218SOL    HW2  790   3.591   3.580   3.968
  219SOL     OW  791   0.010   0.267   0.479
  219SOL    HW1  792   0.066   0.339   0.507
  219SOL    HW2  793   0.050   0.188   0.517
  220SOL     OW  794   0.412   0.243   3.968
  220SOL    HW1  795   0.464   0.284   3.898
  220SOL    HW2  796   0.463   0.167   3.994
  221SOL     OW  797   2.860   1.526   2.278
  221SOL    HW1  798   2.858   1.586   2.203
  221SOL    HW2  799   2.870   1.583   2.354
  222SOL     OW  800   1.185   3.497   2.465
  222SOL    HW1  801   1.217   3.425   2.520
  222SOL    HW2  802   1.255   3.563   2.470
  223SOL     OW  803   1.921   0.889   2.583
  223SOL    HW1  804   1.950   0.953   2.518
  223SOL    HW2  805   1.849   0.843   2.539
  224SOL     OW  806   1.788   1.107   3.687
  224SOL    HW1  807   1.855   1.075   3.626
  224SOL    HW2  808   1.837   1.134   3.765
  225SOL     OW  809   1.629   2.105   3.592
  225SOL    HW1  810   1.559   2.128   3.654
  225SOL    HW2  811   1.708   2.102   3.647
  226SOL     OW  812   3.672   0.832   3.839
  226SOL    HW1  813   3.718   0.823   3.923
  226SOL    HW2  814   3.711   0.765   3.783
  227SOL     OW  815   2.902   3.947   3.617
  227SOL    HW1  816   2.863   3.920   3.534
  227SOL    HW2  817   2.929   3.865   3.659
  228SOL     OW  818   2.324   0.104   0.241
  228SOL    HW1  819   2.232   0.115   0.220
  228SOL    HW2  820   2.371   0.153   0.174
  229SOL     OW  821   2.375   2.691   1.633
  229SOL    HW1  822   2.350   2.603   1.660
  229SOL    HW2  823   2.436   2.721   1.700
  230SOL     OW  824   1.788   0.617   3.866
  230SOL    HW1  825   1.775   0.559   3.791
  230SOL    HW2  826   1.721   0.590   3.929
  231SOL     OW  827   1.434   0.976   0.250
  231SOL    HW1  828   1.430   0.918   0.175
  231SOL    HW2  829   1.431   0.918   0.326
  232SOL     OW  830   3.815   3.471   0.060
  232SOL    HW1  831   3.897   3.428   0.082
  232SOL    HW2  832   3.747   3.409   0.089
  233SOL     OW  833   2.524   1.817   2.096
  233SOL    HW1  834   2.470   1.750   2.054
  233SOL    HW2  835   2.556   1.871   2.023
  234SOL     OW  836   1.116   0.721   0.138
  234SOL    HW1  837   1.124   0.791   0.203
  234SOL    HW2  838   1.040   0.746   0.086
  235SOL     OW  839   0.017   2.246   2.652
  235SOL    HW1  840   0.077   2.177   2.678
  235SOL    HW2  841  -0.049   2.202   2.598
  236SOL     OW  842   3.817   0.762   0.134
  236SOL    HW1  843   3.741   0.736   0.186
  236SOL    HW2  844   3.871   0.813   0.194
  237SOL     OW  845   2.944   0.107   0.942
  237SOL    HW1  846   2.862   0.131   0.897
  237SOL    HW2  847   3.013   0.145   0.887
  238SOL     OW  848   2.579   3.985   0.852
  238SOL    HW1  849   2.610   3.902   0.814
  238SOL    HW2  850   2.489   3.967   0.877
  239SOL     OW  851   1.776   1.508   1.750
  239SOL    HW1  852   1.855   1.553   1.778
  239SOL    HW2  853   1.740   1.470   1.830
  240SOL     OW  854   0.419   3.500   1.970
  240SOL    HW1  855   0.507   3.485   2.005
  240SOL    HW2  856   0.413   3.440   1.895
  241SOL     OW  857   0.218   1.530   3.474
  241SOL    HW1  858   0.127   1.557   3.470
  241SOL    HW2  859   0.250   1.564   3.557
  242SOL     OW  860   0.503   0.479   0.487
  242SOL    HW1  861   0.447   0.548   0.453
  242SOL    HW2  862   0.528   0.428   0.410
  243SOL     OW  863   2.421   2.682   3.142
  243SOL    HW1  864   2.414   2.590   3.117
  243SOL    HW2  865   2.335   2.704   3.178
  244SOL     OW  866   1.033   2.334   2.896
  244SOL    HW1  867   1.001   2.301   2.812
  244SOL    HW2  868   1.005   2.269   2.960
  245SOL     OW  869   1.729   0.708   2.903
  245SOL    HW1  870   1.725   0.632   2.844
  245SOL    HW2  871   1.674   0.774   2.861
  246SOL     OW  872   3.081   1.202   1.088
  246SOL    HW1  873   3.171   1.180   1.115
  246SOL    HW2  874   3.036   1.221   1.171
  247SOL     OW  875   1.847   0.296   3.182
  247SOL    HW1  876   1.826   0.355   3.255
  247SOL    HW2  877   1.889   0.221   3.223
  248SOL     OW  878   0.356   3.922   0.983
  248SOL    HW1  879   0.407   3.893   0.907
  248SOL    HW2  880   0.411   3.989   1.024
  249SOL     OW  881   3.957   2.424   2.982
  249SOL    HW1  882   3.953   2.456   2.892
  249SOL    HW2  883   3.874   2.452   3.020
  250SOL     OW  884   3.068   1.740   2.362
  250SOL    HW1  885   2.991   1.771   2.410
  250SOL    HW2  886   3.106   1.673   2.419
  251SOL     OW  887   2.077   3.984   2.278
  251SOL    HW1  888   2.019   3.935   2.335
  251SOL    HW2  889   2.054   3.956   2.189
  252SOL     OW  890   1.503   2.513   2.479
  252SOL    HW1  891   1.518   2.563   2.560
  252SOL    HW2  892   1.415   2.538   2.452
  253SOL     OW  893   2.019   0.529   2.768
  253SOL    HW1  894   2.068   0.562   2.693
  253SOL    HW2  895   2.044   0.587   2.841
  254SOL     OW  896   1.688   1.500   0.889
  254SOL    HW1  897   1.658   1.466   0.805
  254SOL    HW2  898   1.611   1.496   0.946
  255SOL     OW  899   0.743   1.921   0.284
  255SOL    HW1  900   0.811   1.928   0.351
  255SOL    HW2  901   0.698   2.006   0.287
  256SOL     OW  902   3.462   2.072   2.409
  256SOL    HW1  903   3.412   1.998   2.445
  256SOL    HW2  904   3.400   2.116   2.350
  257SOL     OW  905   3.166   1.969   2.919
  257SOL    HW1  906   3.255   1.983   2.887
  257SOL    HW2  907   3.111   2.021   2.861
  258SOL     OW  908   0.516   0.502   3.530
  258SOL    HW1  909   0.599   0.530   3.492
  258SOL    HW2  910   0.451   0.560   3.491
  259SOL     OW  911   2.046   3.740   0.050
  259SOL    HW1  912   2.142   3.734   0.042
  259SOL    HW2  913   2.028   3.716   0.141
  260SOL     OW  914   3.824   3.056   2.791
  260SOL    HW1  915   3.743   3.106   2.783
  260SOL    HW2  916   3.830   3.005   2.710
  261SOL     OW  917   2.782   3.356   0.522
  261SOL    HW1  918   2.746   3.268   0.515
  261SOL    HW2  919   2.877   3.345   0.515
  262SOL     OW  920   3.748   3.881   2.624
  262SOL    HW1  921   3.725   3.967   2.591
  262SOL    HW2  922   3.729   3.885   2.717
  263SOL     OW  923   3.649   1.031   2.884
  263SOL    HW1  924   3.682   0.995   2.801
  263SOL    HW2  925   3.621   0.955   2.934
  264SOL     OW  926   3.575   2.143   0.411
  264SOL    HW1  927   3.594   2.123   0.503
  264SOL    HW2  928   3.531   2.066   0.378
  265SOL     OW  929   1.693   3.587   3.611
  265SOL    HW1  930   1.621   3.586   3.548
  265SOL    HW2  931   1.668   3.521   3.676
  266SOL     OW  932   3.283   3.910   1.577
  266SOL    HW1  933   3.273   3.841   1.512
  266SOL    HW2  934   3.211   3.896   1.638
  267SOL     OW  935   3.148   0.478   1.031
  267SOL    HW1  936   3.239   0.451   1.022
  267SOL    HW2  937   3.111   0.419   1.096
  268SOL     OW  938   3.219   3.087   3.810
  268SOL    HW1  939   3.124   3.087   3.819
  268SOL    HW2  940   3.239   3.173   3.773
  269SOL     OW  941   3.203   0.145   1.829
  269SOL    HW1  942   3.288   0.106   1.805
  269SOL    HW2  943   3.180   0.102   1.911
  270SOL     OW  944   0.518   2.410   2.733
  270SOL    HW1  945   0.565   2.384   2.812
  270SOL    HW2  946   0.583   2.402   2.663
  271SOL     OW  947   3.870   2.424   3.767
  271SOL    HW1  948   3.832   2.337   3.780
  271SOL    HW2  949   3.934   2.412   3.697
  272SOL     OW  950   3.294   3.290   3.436
  272SOL    HW1  951   3.369   3.244   3.399
  272SOL    HW2  952   3.319   3.382   3.436
  273SOL     OW  953   1.658   0.107   2.428
  273SOL    HW1  954   1.691   0.020   2.449
  273SOL    HW2  955   1.569   0.093   2.396
  274SOL     OW  956   1.957   2.739   2.263
  274SOL    HW1  957   1.869   2.704   2.267
  274SOL    HW2  958   1.994   2.722   2.349
  275SOL     OW  959   1.200   1.814   1.583
  275SOL    HW1  960   1.179   1.818   1.490
  275SOL    HW2  961   1.283   1.767   1.588
  276SOL     OW  962   0.237   0.887   3.009
  276SOL    HW1  963   0.154   0.914   2.969
  276SOL    HW2  964   0.296   0.961   2.994
  277SOL     OW  965   3.330   1.474   2.134
  277SOL    HW1  966   3.363   1.540   2.195
  277SOL    HW2  967   3.311   1.398   2.189
  278SOL     OW  968   2.942   1.832   1.045
  278SOL    HW1  969   2.861   1.805   1.088
  278SOL    HW2  970   2.919   1.839   0.952
  279SOL     OW  971   1.118   0.571   3.663
  279SOL    HW1  972   1.045   0.627   3.691
  279SOL    HW2  973   1.079   0.512   3.598
  280SOL     OW  974   0.184   1.773   1.520
  280SOL    HW1  975   0.095   1.737   1.525
  280SOL    HW2  976   0.175   1.852   1.467
  281SOL     OW  977   1.763   0.985   1.662
  281SOL    HW1  978   1.685   0.968   1.610
  281SOL    HW2  979   1.782   1.077   1.647
  282SOL     OW  980   3.920   1.843   1.923
  282SOL    HW1  981   3.837   1.806   1.953
  282SOL    HW2  982   3.900   1.934   1.902
  283SOL     OW  983   2.019   2.861   0.081
  283SOL    HW1  984   1.973   2.880   0.163
  283SOL    HW2  985   1.955   2.811   0.030
  284SOL     OW  986   3.584   0.343   2.744
  284SOL    HW1  987   3.540   0.374   2.666
  284SOL    HW2  988   3.607   0.252   2.725
  285SOL     OW  989   2.394   3.637   0.182
  285SOL    HW1  990   2.337   3.561   0.197
  285SOL    HW2  991   2.375   3.664   0.093
  286SOL     OW  992   0.267   0.827   1.605
  286SOL    HW1  993   0.180   0.867   1.606
  286SOL    HW2  994   0.305   0.854   1.522
  287SOL     OW  995   2.598   1.314   1.761
  287SOL    HW1  996   2.665   1.270   1.813
  287SOL    HW2  997   2.643   1.387   1.720
  288SOL     OW  998   2.805   0.735   0.395
  288SOL    HW1  999   2.800   0.641   0.379
  288SOL    HW2 1000   2.717   0.767   0.376
  289SOL     OW 1001   3.699   1.655   3.325
  289SOL    HW1 1002   3.703   1.560   3.317
  289SOL    HW2 1003   3.766   1.687   3.265
  290SOL     OW 1004   2.685   3.577   3.818
  290SOL    HW1 1005   2.682   3.558   3.912
  290SOL    HW2 1006   2.690   3.491   3.777
  291SOL     OW 1007   1.223   0.266   2.945
  291SOL    HW1 1008   1.262   0.351   2.965
  291SOL    HW2 1009   1.141   0.287   2.901
  292SOL     OW 1010   3.308   2.209   2.745
  292SOL    HW1 1011   3.342   2.270   2.679
  292SOL    HW2 1012   3.213   2.218   2.739
  293SOL     OW 1013   3.748   0.275   2.257
  293SOL    HW1 1014   3.764   0.365   2.230
  293SOL    HW2 1015   3.652   0.265   2.252
  294SOL     OW 1016   2.859   1.896   2.639
  294SOL    HW1 1017   2.815   1.830   2.694
  294SOL    HW2 1018   2.842   1.979   2.683
  295SOL     OW 1019   3.173   3.384   0.106
  295SOL    HW1 1020   3.195   3.403   0.015
  295SOL    HW2 1021   3.099   3.323   0.101
  296SOL     OW 1022   0.609   1.442   1.613
  296SOL    HW1 1023   0.690   1.493   1.616
  296SOL    HW2 1024   0.542   1.505   1.586
  297SOL     OW 1025   1.746   0.125   1.746
  297SOL    HW1 1026   1.758   0.209   1.791
  297SOL    HW2 1027   1.677   0.143   1.682
  298SOL     OW 1028   3.204   2.321   0.921
  298SOL    HW1 1029   3.113   2.303   0.943
  298SOL    HW2 1030   3.254   2.264   0.979
  299SOL     OW 1031   0.341   3.730   3.578
  299SOL    HW1 1032   0.340   3.824   3.591
  299SOL    HW2 1033   0.427   3.712   3.539
  300SOL     OW 1034   2.610   2.768   2.284
  300SOL    HW1 1035   2.591   2.851   2.328
  300SOL    HW2 1036   2.678   2.790   2.220
  301SOL     OW 1037   2.256   0.296   3.563
  301SOL    HW1 1038   2.213   0.283   3.479
  301SOL    HW2 1039   2.345   0.261   3.551
  302SOL     OW 1040   3.639   2.414   0.323
  302SOL    HW1 1041   3.617   2.324   0.349
  302SOL    HW2 1042   3.574   2.435   0.256
  303SOL     OW 1043   1.187   2.801   3.121
  303SOL    HW1 1044   1.178   2.892   3.150
  303SOL    HW2 1045   1.241   2.759   3.188
  304SOL     OW 1046   2.449   3.021   3.138
  304SOL    HW1 1047   2.459   3.116   3.129
  304SOL    HW2 1048   2.423   3.008   3.229
  305SOL     OW 1049   3.405   3.272   1.612
  305SOL    HW1 1050   3.327   3.252   1.560
  305SOL    HW2 1051   3.477   3.233   1.562
  306SOL     OW 1052   1.775   0.610   1.329
  306SOL    HW1 1053   1.699   0.570   1.370
  306SOL    HW2 1054   1.847   0.548   1.346
  307SOL     OW 1055   3.241   3.235   1.137
  307SOL    HW1 1056   3.281   3.319   1.116
  307SOL    HW2 1057   3.266   3.178   1.065
  308SOL     OW 1058   3.213   1.158   2.086
  308SOL    HW1 1059   3.172   1.117   2.010
  308SOL    HW2 1060   3.274   1.222   2.050
  309SOL     OW 1061   3.295   3.421   0.445
  309SOL    HW1 1062   3.335   3.471   0.375
  309SOL    HW2 1063   3.321   3.467   0.525
  310SOL     OW 1064   2.596   2.855   0.694
  310SOL    HW1 1065   2.691   2.848   0.698
  310SOL    HW2 1066   2.565   2.793   0.761
  311SOL     OW 1067   1.378   0.618   1.058
  311SOL    HW1 1068   1.452   0.624   0.997
  311SOL    HW2 1069   1.313   0.677   1.021
  312SOL     OW 1070   0.939   1.265   2.098
  312SOL    HW1 1071   0.859   1.267   2.045
  312SOL    HW2 1072   0.940   1.178   2.137
  313SOL     OW 1073   1.699   3.787   3.215
  313SOL    HW1 1074   1.788   3.765   3.187
  313SOL    HW2 1075   1.710   3.864   3.271
  314SOL     OW 1076   3.921   0.861   3.586
  314SOL    HW1 1077   3.957   0.914   3.656
  314SOL    HW2 1078   3.985   0.865   3.515
  315SOL     OW 1079   0.316   0.648   3.844
  315SOL    HW1 1080   0.224   0.624   3.849
  315SOL    HW2 1081   0.323   0.698   3.763
  316SOL     OW 1082   1.847   0.212   3.531
  316SOL    HW1 1083   1.869   0.304   3.547
  316SOL    HW2 1084   1.826   0.177   3.618
  317SOL     OW 1085   2.372   1.389   3.282
  317SOL    HW1 1086   2.318   1.468   3.276
  317SOL    HW2 1087   2.385   1.376   3.376
  318SOL     OW 1088   0.128   0.143   0.877
  318SOL    HW1 1089   0.058   0.182   0.930
  318SOL    HW2 1090   0.179   0.091   0.940
  319SOL     OW 1091   3.537   2.801   2.348
  319SOL    HW1 1092   3.579   2.879   2.383
  319SOL    HW2 1093   3.587   2.728   2.385
  320SOL     OW 1094   0.704   2.235   2.113
  320SOL    HW1 1095   0.695   2.289   2.035
  320SOL    HW2 1096   0.683   2.147   2.085
  321SOL     OW 1097   2.657   1.741   3.864
  321SOL    HW1 1098   2.654   1.803   3.936
  321SOL    HW2 1099   2.708   1.668   3.897
  322SOL     OW 1100   1.309   0.548   1.423
  322SOL    HW1 1101   1.248   0.534   1.351
  322SOL    HW2 1102   1.254   0.557   1.500
  323SOL     OW 1103   3.460   0.234   2.278
  323SOL    HW1 1104   3.452   0.312   2.334
  323SOL    HW2 1105   3.370   0.204   2.268
  324SOL     OW 1106   2.491   2.812   0.003
  324SOL    HW1 1107   2.573   2.824   0.050
  324SOL    HW2 1108   2.478   2.894  -0.044
  325SOL     OW 1109   1.176   3.267   3.592
  325SOL    HW1 1110   1.188   3.356   3.623
  325SOL    HW2 1111   1.260   3.245   3.550
  326SOL     OW 1112   2.575   3.829   1.579
  326SOL    HW1 1113   2.664   3.862   1.570
  326SOL    HW2 1114   2.554   3.792   1.494
  327SOL     OW 1115   3.611   2.545   0.570
  327SOL    HW1 1116   3.627   2.498   0.488
  327SOL    HW2 1117   3.634   2.483   0.639
  328SOL     OW 1118   2.336   1.862   2.653
  328SOL    HW1 1119   2.395   1.915   2.599
  328SOL    HW2 1120   2.280   1.816   2.591
  329SOL     OW 1121   0.316   2.371   0.011
  329SOL    HW1 1122   0.359   2.329   0.085
  329SOL    HW2 1123   0.342   2.463   0.017
  330SOL     OW 1124   0.962   0.158   0.579
  330SOL    HW1 1125   1.017   0.224   0.622
  330SOL    HW2 1126   0.909   0.208   0.518
  331SOL     OW 1127   2.903   0.294   1.864
  331SOL    HW1 1128   2.930   0.238   1.791
  331SOL    HW2 1129   2.817   0.261   1.889
  332SOL     OW 1130   1.138   3.338   1.679
  332SOL    HW1 1131   1.071   3.405   1.694
  332SOL    HW2 1132   1.145   3.291   1.762
  333SOL     OW 1133   1.745   2.852   0.824
  333SOL    HW1 1134   1.703   2.895   0.749
  333SOL    HW2 1135   1.680   2.860   0.895
  334SOL     OW 1136   1.142   3.922   1.653
  334SOL    HW1 1137   1.190   3.852   1.609
  334SOL    HW2 1138   1.163   4.001   1.602
  335SOL     OW 1139   2.199   0.855   1.236
  335SOL    HW1 1140   2.117   0.860   1.287
  335SOL    HW2 1141   2.217   0.946   1.213
  336SOL     OW 1142   2.745   1.239   2.709
  336SOL    HW1 1143   2.794   1.183   2.769
  336SOL    HW2 1144   2.781   1.327   2.723
  337SOL     OW 1145   3.782   0.243   1.859
  337SOL    HW1 1146   3.704   0.294   1.879
  337SOL    HW2 1147   3.757   0.189   1.784
  338SOL     OW 1148   3.389   2.188   0.716
  338SOL    HW1 1149   3.329   2.114   0.703
  338SOL    HW2 1150   3.336   2.266   0.697
  339SOL     OW 1151   0.113   0.940   1.054
  339SOL    HW1 1152   0.069   0.944   1.139
  339SOL    HW2 1153   0.206   0.937   1.074
  340SOL     OW 1154   0.075   0.943   3.852
  340SOL    HW1 1155   0.087   0.862   3.902
  340SOL    HW2 1156   0.122   1.009   3.902
  341SOL     OW 1157   3.610   1.580   3.880
  341SOL    HW1 1158   3.601   1.625   3.796
  341SOL    HW2 1159   3.598   1.649   3.945
  342SOL     OW 1160   0.794   2.791   2.897
  342SOL    HW1 1161   0.816   2.752   2.812
  342SOL    HW2 1162   0.764   2.718   2.950
  343SOL     OW 1163   1.809   3.876   1.918
  343SOL    HW1 1164   1.821   3.789   1.880
  343SOL    HW2 1165   1.799   3.934   1.842
  344SOL     OW 1166   3.266   0.734   0.149
  344SOL    HW1 1167   3.175   0.730   0.179
  344SOL    HW2 1168   3.265   0.693   0.063
  345SOL     OW 1169   1.637   0.173   1.163
  345SOL    HW1 1170   1.689   0.221   1.228
  345SOL    HW2 1171   1.656   0.216   1.080
  346SOL     OW 1172   1.855   0.390   0.450
  346SOL    HW1 1173   1.942   0.352   0.449
  346SOL    HW2 1174   1.855   0.450   0.525
  347SOL     OW 1175   3.755   0.713   3.284
  347SOL    HW1 1176   3.812   0.730   3.359
  347SOL    HW2 1177   3.714   0.797   3.265
  348SOL     OW 1178   0.769   0.990   3.803
  348SOL    HW1 1179   0.847   0.937   3.816
  348SOL    HW2 1180   0.780   1.064   3.862
  349SOL     OW 1181   3.611   1.417   2.725
  349SOL    HW1 1182   3.540   1.354   2.734
  349SOL    HW2 1183   3.684   1.366   2.691
  350SOL     OW 1184   1.559   1.402   1.593
  350SOL    HW1 1185   1.630   1.424   1.653
  350SOL    HW2 1186   1.495   1.472   1.604
  351SOL     OW 1187   1.681   2.152   1.617
  351SOL    HW1 1188   1.624   2.175   1.690
  351SOL    HW2 1189   1.768   2.180   1.645
  352SOL     OW 1190   0.737   2.429   2.467
  352SOL    HW1 1191   0.702   2.354   2.419
  352SOL    HW2 1192   0.827   2.403   2.490
  353SOL     OW 1193   3.059   2.714   0.331
  353SOL    HW1 1194   2.975   2.759   0.344
  353SOL    HW2 1195   3.072   2.716   0.236
  354SOL     OW 1196   3.451   2.817   3.010
  354SOL    HW1 1197   3.497   2.784   2.933
  354SOL    HW2 1198   3.358   2.814   2.986
  355SOL     OW 1199   3.113   0.503   1.864
  355SOL    HW1 1200   3.082   0.413   1.871
  355SOL    HW2 1201   3.068   0.538   1.787
  356SOL     OW 1202   0.387   2.030   3.007
  356SOL    HW1 1203   0.379   2.050   2.914
  356SOL    HW2 1204   0.342   2.103   3.051
  357SOL     OW 1205   3.743   0.165   3.829
  357SOL    HW1 1206   3.812   0.148   3.893
  357SOL    HW2 1207   3.694   0.239   3.864
  358SOL     OW 1208   0.881   1.907   0.538
  358SOL    HW1 1209   0.949   1.844   0.515
  358SOL    HW2 1210   0.929   1.984   0.567
  359SOL     OW 1211   3.480   0.749   1.979
  359SOL    HW1 1212   3.417   0.741   2.051
  359SOL    HW2 1213   3.426   0.749   1.900
  360SOL     OW 1214   3.437   2.361   3.829
  360SOL    HW1 1215   3.472   2.317   3.906
  360SOL    HW2 1216   3.424   2.292   3.765
  361SOL     OW 1217   1.921   3.612   3.778
  361SOL    HW1 1218   1.926   3.696   3.824
  361SOL    HW2 1219   1.843   3.620   3.724
  362SOL     OW 1220   3.920   0.706   0.615
  362SOL    HW1 1221   3.864   0.747   0.549
  362SOL    HW2 1222   3.880   0.621   0.632
  363SOL     OW 1223   0.320   0.668   1.217
  363SOL    HW1 1224   0.277   0.633   1.295
  363SOL    HW2 1225   0.341   0.759   1.240
  364SOL     OW 1226   1.144   2.009   0.463
  364SOL    HW1 1227   1.228   2.055   0.472
  364SOL    HW2 1228   1.166   1.927   0.420
  365SOL     OW 1229   3.824   2.596   0.280
  365SOL    HW1 1230   3.892   2.576   0.216
  365SOL    HW2 1231   3.780   2.512   0.296
  366SOL     OW 1232   1.202   1.383   0.485
  366SOL    HW1 1233   1.215   1.428   0.568
  366SOL    HW2 1234   1.150   1.306   0.508
  367SOL     OW 1235   0.820   0.698   2.340
  367SOL    HW1 1236   0.852   0.788   2.326
  367SOL    HW2 1237   0.819   0.688   2.435
  368SOL     OW 1238   3.300   0.687   0.915
  368SOL    HW1 1239   3.247   0.610   0.935
  368SOL    HW2 1240   3.239   0.760   0.922
  369SOL     OW 1241   1.309   0.991   2.877
  369SOL    HW1 1242   1.297   0.964   2.967
  369SOL    HW2 1243   1.232   1.044   2.857
  370SOL     OW 1244   3.753   1.805   1.420
  370SOL    HW1 1245   3.752   1.890   1.464
  370SOL    HW2 1246   3.807   1.750   1.477
  371SOL     OW 1247   0.560   2.814   0.890
  371SOL    HW1 1248   0.527   2.739   0.842
  371SOL    HW2 1249   0.504   2.819   0.968
  372SOL     OW 1250   3.072   2.173   2.604
  372SOL    HW1 1251   3.103   2.240   2.542
  372SOL    HW2 1252   2.989   2.144   2.567
  373SOL     OW 1253   2.245   1.000   1.980
  373SOL    HW1 1254   2.174   1.007   2.044
  373SOL    HW2 1255   2.230   0.916   1.936
  374SOL     OW 1256   0.064   3.165   0.956
  374SOL    HW1 1257   0.128   3.195   1.021
  374SOL    HW2 1258   0.057   3.071   0.973
  375SOL     OW 1259   1.652   3.370   3.789
  375SOL    HW1 1260   1.728   3.318   3.763
  375SOL    HW2 1261   1.604   3.314   3.850
  376SOL     OW 1262   2.037   1.027   0.971
  376SOL    HW1 1263   2.018   0.956   1.032
  376SOL    HW2 1264   1.966   1.090   0.985
  377SOL     OW 1265   3.078   0.224   0.734
  377SOL    HW1 1266   3.152   0.259   0.685
  377SOL    HW2 1267   3.051   0.147   0.684
  378SOL     OW 1268   1.438   3.226   3.939
  378SOL    HW1 1269   1.390   3.302   3.906
  378SOL    HW2 1270   1.373   3.156   3.943
  379SOL     OW 1271   2.206   2.392   1.643
  379SOL    HW1 1272   2.211   2.387   1.738
  379SOL    HW2 1273   2.149   2.467   1.625
  380SOL     OW 1274   0.616   3.694   1.614
  380SOL    HW1 1275   0.552   3.732   1.675
  380SOL    HW2 1276   0.695   3.746   1.629
  381SOL     OW 1277   1.949   0.235   1.538
  381SOL    HW1 1278   1.876   0.186   1.578
  381SOL    HW2 1279   2.024   0.177   1.546
  382SOL     OW 1280   1.720   2.246   2.806
  382SOL    HW1 1281   1.777   2.180   2.767
  382SOL    HW2 1282   1.763   2.270   2.887
  383SOL     OW 1283   1.272   0.930   1.234
  383SOL    HW1 1284   1.187   0.972   1.219
  383SOL    HW2 1285   1.255   0.837   1.219
  384SOL     OW 1286   0.198   1.970   2.637
  384SOL    HW1 1287   0.183   1.997   2.546
  384SOL    HW2 1288   0.267   2.029   2.668
  385SOL     OW 1289   2.250   0.760   0.981
  385SOL    HW1 1290   2.200   0.762   1.063
  385SOL    HW2 1291   2.321   0.823   0.994
  386SOL     OW 1292   2.562   0.316   0.268
  386SOL    HW1 1293   2.511   0.284   0.342
  386SOL    HW2 1294   2.555   0.247   0.202
  387SOL     OW 1295   0.675   2.453   1.951
  387SOL    HW1 1296   0.728   2.533   1.959
  387SOL    HW2 1297   0.659   2.445   1.857
  388SOL     OW 1298   0.643   1.755   1.909
  388SOL    HW1 1299   0.558   1.711   1.916
  388SOL    HW2 1300   0.707   1.687   1.932
  389SOL     OW 1301   0.504   1.166   1.607
  389SOL    HW1 1302   0.477   1.183   1.517
  389SOL    HW2 1303   0.569   1.233   1.626
  390SOL     OW 1304   2.527   0.354   1.121
  390SOL    HW1 1305   2.534   0.259   1.111
  390SOL    HW2 1306   2.506   0.386   1.033
  391SOL     OW 1307   2.513   0.778   1.789
  391SOL    HW1 1308   2.498   0.849   1.727
  391SOL    HW2 1309   2.557   0.819   1.864
  392SOL     OW 1310   0.816   2.702   1.903
  392SOL    HW1 1311   0.795   2.753   1.824
  392SOL    HW2 1312   0.789   2.759   1.975
  393SOL     OW 1313   2.146   1.873   2.065
  393SOL    HW1 1314   2.116   1.843   2.151
  393SOL    HW2 1315   2.077   1.846   2.005
  394SOL     OW 1316   2.799   2.614   2.510
  394SOL    HW1 1317   2.836   2.662   2.436
  394SOL    HW2 1318   2.708   2.643   2.515
  395SOL     OW 1319   3.660   1.542   0.845
  395SOL    HW1 1320   3.693   1.609   0.905
  395SOL    HW2 1321   3.738   1.500   0.809
  396SOL     OW 1322   0.486   3.554   0.393
  396SOL    HW1 1323   0.486   3.617   0.321
  396SOL    HW2 1324   0.536   3.480   0.360
  397SOL     OW 1325   2.258   2.775   0.761
  397SOL    HW1 1326   2.305   2.692   0.771
  397SOL    HW2 1327   2.166   2.748   0.751
  398SOL     OW 1328   1.374   1.879   3.912
  398SOL    HW1 1329   1.413   1.837   3.835
  398SOL    HW2 1330   1.438   1.866   3.982
  399SOL     OW 1331   0.366   1.071   2.445
  399SOL    HW1 1332   0.341   1.003   2.382
  399SOL    HW2 1333   0.285   1.089   2.494
  400SOL     OW 1334   0.624   3.265   1.812
  400SOL    HW1 1335   0.601   3.179   1.846
  400SOL    HW2 1336   0.702   3.250   1.759
  401SOL     OW 1337   2.348   2.820   2.715
  401SOL    HW1 1338   2.427   2.766   2.718
  401SOL    HW2 1339   2.293   2.785   2.784
  402SOL     OW 1340   1.980   2.987   0.626
  402SOL    HW1 1341   2.042   3.057   0.603
  402SOL    HW2 1342   1.907   3.033   0.667
  403SOL     OW 1343   2.221   1.780   2.423
  403SOL    HW1 1344   2.189   1.851   2.366
  403SOL    HW2 1345   2.262   1.718   2.363
  404SOL     OW 1346   2.549   2.523   2.722
  404SOL    HW1 1347   2.632   2.478   2.734
  404SOL    HW2 1348   2.503   2.512   2.805
  405SOL     OW 1349   3.258   0.751   3.794
  405SOL    HW1 1350   3.245   0.705   3.711
  405SOL    HW2 1351   3.333   0.809   3.778
  406SOL     OW 1352   3.780   1.083   1.601
  406SOL    HW1 1353   3.762   1.125   1.686
  406SOL    HW2 1354   3.785   0.990   1.622
  407SOL     OW 1355   2.508   2.654   1.214
  407SOL    HW1 1356   2.413   2.643   1.205
  407SOL    HW2 1357   2.535   2.579   1.267
  408SOL     OW 1358   2.833   3.867   1.660
  408SOL    HW1 1359   2.920   3.837   1.686
  408SOL    HW2 1360   2.796   3.905   1.740
  409SOL     OW 1361   0.116   0.676   2.486
  409SOL    HW1 1362   0.149   0.709   2.570
  409SOL    HW2 1363   0.187   0.694   2.424
  410SOL     OW 1364   2.472   1.335   0.425
  410SOL    HW1 1365   2.430   1.388   0.357
  410SOL    HW2 1366   2.434   1.248   0.416
  411SOL     OW 1367   1.175   1.169   3.347
  411SOL    HW1 1368   1.233   1.192   3.420
  411SOL    HW2 1369   1.087   1.176   3.383
  412SOL     OW 1370   1.466   2.180   0.206
  412SOL    HW1 1371   1.556   2.178   0.239
  412SOL    HW2 1372   1.430   2.262   0.239
  413SOL     OW 1373   3.122   3.792   3.237
  413SOL    HW1 1374   3.149   3.762   3.150
  413SOL    HW2 1375   3.063   3.723   3.268
  414SOL     OW 1376   1.102   2.883   2.090
  414SOL    HW1 1377   1.075   2.935   2.166
  414SOL    HW2 1378   1.104   2.792   2.123
  415SOL     OW 1379   2.148   1.348   3.591
  415SOL    HW1 1380   2.140   1.256   3.619
  415SOL    HW2 1381   2.241   1.368   3.603
  416SOL     OW 1382   3.258   2.672   1.608
  416SOL    HW1 1383   3.298   2.750   1.569
  416SOL    HW2 1384   3.289   2.672   1.698
  417SOL     OW 1385   1.524   0.725   1.595
  417SOL    HW1 1386   1.515   0.639   1.553
  417SOL    HW2 1387   1.455   0.778   1.554
  418SOL     OW 1388   2.498   1.395   3.891
  418SOL    HW1 1389   2.571   1.334   3.876
  418SOL    HW2 1390   2.536   1.462   3.949
  419SOL     OW 1391   2.292   2.781   2.220
  419SOL    HW1 1392   2.270   2.735   2.300
  419SOL    HW2 1393   2.344   2.718   2.170
  420SOL     OW 1394   1.019   2.642   2.245
  420SOL    HW1 1395   0.966   2.708   2.290
  420SOL    HW2 1396   1.021   2.569   2.306
  421SOL     OW 1397   2.889   2.297   3.383
  421SOL    HW1 1398   2.901   2.346   3.465
  421SOL    HW2 1399   2.836   2.222   3.408
  422SOL     OW 1400   2.108   0.306   0.422
  422SOL    HW1 1401   2.143   0.388   0.385
  422SOL    HW2 1402   2.174   0.240   0.401
  423SOL     OW 1403   1.581   3.613   2.569
  423SOL    HW1 1404   1.511   3.678   2.575
  423SOL    HW2 1405   1.543   3.540   2.519
  424SOL     OW 1406   1.789   0.476   0.171
  424SOL    HW1 1407   1.801   0.431   0.255
  424SOL    HW2 1408   1.732   0.550   0.191
  425SOL     OW 1409   2.653   2.766   3.287
  425SOL    HW1 1410   2.578   2.758   3.228
  425SOL    HW2 1411   2.700   2.843   3.255
  426SOL     OW 1412   1.553   3.731   1.171
  426SOL    HW1 1413   1.549   3.636   1.167
  426SOL    HW2 1414   1.462   3.759   1.186
  427SOL     OW 1415   0.026   3.788   2.207
  427SOL    HW1 1416   0.089   3.761   2.140
  427SOL    HW2 1417   0.004   3.708   2.254
  428SOL     OW 1418   0.746   0.575   0.584
  428SOL    HW1 1419   0.667   0.532   0.552
  428SOL    HW2 1420   0.755   0.543   0.674
  429SOL     OW 1421   3.152   1.543   1.376
  429SOL    HW1 1422   3.239   1.519   1.406
  429SOL    HW2 1423   3.092   1.489   1.428
  430SOL     OW 1424   0.179   0.243   3.731
  430SOL    HW1 1425   0.165   0.337   3.742
  430SOL    HW2 1426   0.102   0.213   3.682
  431SOL     OW 1427   1.332   2.692   0.215
  431SOL    HW1 1428   1.401   2.758   0.221
  431SOL    HW2 1429   1.361   2.634   0.144
  432SOL     OW 1430   0.438   2.646   0.703
  432SOL    HW1 1431   0.382   2.571   0.683
  432SOL    HW2 1432   0.386   2.722   0.676
  433SOL     OW 1433   2.069   0.710   3.698
  433SOL    HW1 1434   2.056   0.705   3.793
  433SOL    HW2 1435   2.110   0.796   3.684
  434SOL     OW 1436   3.162   3.695   2.978
  434SOL    HW1 1437   3.078   3.684   2.932
  434SOL    HW2 1438   3.200   3.607   2.980
  435SOL     OW 1439   1.864   1.335   0.598
  435SOL    HW1 1440   1.850   1.425   0.627
  435SOL    HW2 1441   1.789   1.286   0.632
  436SOL     OW 1442   1.078   3.103   2.714
  436SOL    HW1 1443   1.070   3.010   2.696
  436SOL    HW2 1444   0.990   3.129   2.744
  437SOL     OW 1445   1.271   3.412   1.219
  437SOL    HW1 1446   1.189   3.403   1.267
  437SOL    HW2 1447   1.296   3.503   1.231
  438SOL     OW 1448   3.361   2.570   0.999
  438SOL    HW1 1449   3.443   2.523   0.982
  438SOL    HW2 1450   3.295   2.522   0.949
  439SOL     OW 1451   3.104   3.262   0.861
  439SOL    HW1 1452   3.165   3.188   0.860
  439SOL    HW2 1453   3.060   3.257   0.946
  440SOL     OW 1454   2.686   3.365   2.416
  440SOL    HW1 1455   2.663   3.392   2.327
  440SOL    HW2 1456   2.674   3.270   2.417
  441SOL     OW 1457   3.619   3.856   0.762
  441SOL    HW1 1458   3.712   3.872   0.745
  441SOL    HW2 1459   3.576   3.937   0.734
  442SOL     OW 1460   3.477   0.959   3.722
  442SOL    HW1 1461   3.563   0.920   3.741
  442SOL    HW2 1462   3.491   1.053   3.731
  443SOL     OW 1463   0.709   0.243   2.314
  443SOL    HW1 1464   0.703   0.320   2.258
  443SOL    HW2 1465   0.629   0.194   2.297
  444SOL     OW 1466   3.290   3.077   0.918
  444SOL    HW1 1467   3.382   3.091   0.895
  444SOL    HW2 1468   3.275   2.984   0.899
  445SOL     OW 1469   3.383   2.190   0.125
  445SOL    HW1 1470   3.386   2.280   0.158
  445SOL    HW2 1471   3.328   2.144   0.188
  446SOL     OW 1472   0.844   0.959   1.807
  446SOL    HW1 1473   0.850   0.866   1.829
  446SOL    HW2 1474   0.912   0.973   1.741
  447SOL     OW 1475   2.968   2.268   0.663
  447SOL    HW1 1476   2.889   2.295   0.616
  447SOL    HW2 1477   2.967   2.173   0.660
  448SOL     OW 1478   2.977   1.842   1.645
  448SOL    HW1 1479   2.919   1.817   1.717
  448SOL    HW2 1480   2.926   1.826   1.566
  449SOL     OW 1481   3.005   2.793   3.782
  449SOL    HW1 1482   2.980   2.878   3.819
  449SOL    HW2 1483   3.034   2.814   3.693
  450SOL     OW 1484   0.071   1.849   0.448
  450SOL    HW1 1485   0.117   1.830   0.529
  450SOL    HW2 1486   0.075   1.944   0.439
  451SOL     OW 1487   0.933   0.090   1.196
  451SOL    HW1 1488   0.928   0.168   1.140
  451SOL    HW2 1489   0.911   0.122   1.284
  452SOL     OW 1490   2.522   2.102   3.124
  452SOL    HW1 1491   2.482   2.082   3.039
  452SOL    HW2 1492   2.486   2.036   3.183
  453SOL     OW 1493   0.997   3.795   2.523
  453SOL    HW1 1494   0.912   3.823   2.491
  453SOL    HW2 1495   1.028   3.869   2.577
  454SOL     OW 1496   3.242   1.866   0.922
  454SOL    HW1 1497   3.270   1.890   1.010
  454SOL    HW2 1498   3.147   1.866   0.926
  455SOL     OW 1499   3.617   3.203   1.467
  455SOL    HW1 1500   3.648   3.250   1.389
  455SOL    HW2 1501   3.668   3.122   1.468
  456SOL     OW 1502   1.802   2.503   0.882
  456SOL    HW1 1503   1.795   2.537   0.792
  456SOL    HW2 1504   1.896   2.490   0.895
  457SOL     OW 1505   3.603   2.151   2.731
  457SOL    HW1 1506   3.571   2.233   2.768
  457SOL    HW2 1507   3.529   2.090   2.739
  458SOL     OW 1508   3.659   1.369   3.270
  458SOL    HW1 1509   3.678   1.353   3.177
  458SOL    HW2 1510   3.679   1.286   3.313
  459SOL     OW 1511   3.877   2.413   1.966
  459SOL    HW1 1512   3.901   2.373   2.049
  459SOL    HW2 1513   3.880   2.507   1.981
  460SOL     OW 1514   2.449   0.043   2.399
  460SOL    HW1 1515   2.429   0.084   2.483
  460SOL    HW2 1516   2.411   0.102   2.334
  461SOL     OW 1517   3.416   0.475   1.596
  461SOL    HW1 1518   3.366   0.413   1.543
  461SOL    HW2 1519   3.490   0.500   1.540
  462SOL     OW 1520   2.832   0.489   3.880
  462SOL    HW1 1521   2.915   0.476   3.834
  462SOL    HW2 1522   2.822   0.584   3.884
  463SOL     OW 1523   1.922   0.933   2.856
  463SOL    HW1 1524   1.887   0.845   2.870
  463SOL    HW2 1525   1.933   0.940   2.761
  464SOL     OW 1526   2.752   0.213   0.766
  464SOL    HW1 1527   2.674   0.168   0.799
  464SOL    HW2 1528   2.729   0.305   0.765
  465SOL     OW 1529   1.999   3.055   1.105
  465SOL    HW1 1530   1.966   3.108   1.178
  465SOL    HW2 1531   2.063   3.111   1.062
  466SOL     OW 1532   2.685   1.410   3.188
  466SOL    HW1 1533   2.603   1.438   3.228
  466SOL    HW2 1534   2.753   1.444   3.246
  467SOL     OW 1535   1.768   2.346   0.320
  467SOL    HW1 1536   1.694   2.405   0.305
  467SOL    HW2 1537   1.810   2.339   0.234
  468SOL     OW 1538   3.269   2.829   0.631
  468SOL    HW1 1539   3.359   2.821   0.598
  468SOL    HW2 1540   3.274   2.796   0.721
  469SOL     OW 1541   1.664   0.192   0.047
  469SOL    HW1 1542   1.695   0.281   0.028
  469SOL    HW2 1543   1.685   0.179   0.139
  470SOL     OW 1544   2.450   2.406   1.020
  470SOL    HW1 1545   2.536   2.448   1.023
  470SOL    HW2 1546   2.411   2.424   1.105
  471SOL     OW 1547   3.283   0.064   0.922
  471SOL    HW1 1548   3.245   0.133   0.869
  471SOL    HW2 1549   3.265  -0.017   0.874
  472SOL     OW 1550   3.677   3.098   1.721
  472SOL    HW1 1551   3.633   3.163   1.666
  472SOL    HW2 1552   3.643   3.115   1.809
  473SOL     OW 1553   1.055   3.684   2.279
  473SOL    HW1 1554   1.137   3.734   2.274
  473SOL    HW2 1555   1.049   3.658   2.371
  474SOL     OW 1556   2.550   2.763   0.954
  474SOL    HW1 1557   2.591   2.677   0.968
  474SOL    HW2 1558   2.516   2.787   1.041
  475SOL     OW 1559   2.735   3.550   3.090
  475SOL    HW1 1560   2.698   3.551   3.002
  475SOL    HW2 1561   2.673   3.501   3.143
  476SOL     OW 1562   2.246   3.582   2.782
  476SOL    HW1 1563   2.255   3.602   2.689
  476SOL    HW2 1564   2.292   3.499   2.793
  477SOL     OW 1565   0.467   1.617   1.491
  477SOL    HW1 1566   0.373   1.631   1.497
  477SOL    HW2 1567   0.479   1.572   1.407
  478SOL     OW 1568   0.056   2.323   3.260
  478SOL    HW1 1569   0.060   2.348   3.167
  478SOL    HW2 1570   0.119   2.382   3.303
  479SOL     OW 1571   1.544   0.196   1.572
  479SOL    HW1 1572   1.520   0.167   1.484
  479SOL    HW2 1573   1.465   0.183   1.624
  480SOL     OW 1574   1.833   2.982   3.261
  480SOL    HW1 1575   1.737   2.990   3.255
  480SOL    HW2 1576   1.858   2.943   3.178
  481SOL     OW 1577   2.340   3.869   0.912
  481SOL    HW1 1578   2.335   3.777   0.887
  481SOL    HW2 1579   2.257   3.887   0.957
  482SOL     OW 1580   1.729   3.447   0.669
  482SOL    HW1 1581   1.639   3.417   0.669
  482SOL    HW2 1582   1.781   3.370   0.693
  483SOL     OW 1583   3.467   3.300   3.950
  483SOL    HW1 1584   3.432   3.256   3.873
  483SOL    HW2 1585   3.461   3.394   3.929
  484SOL     OW 1586   0.738   2.848   2.158
  484SOL    HW1 1587   0.668   2.883   2.102
  484SOL    HW2 1588   0.711   2.758   2.176
  485SOL     OW 1589   2.937   0.213   2.730
  485SOL    HW1 1590   2.971   0.302   2.739
  485SOL    HW2 1591   2.852   0.224   2.689
  486SOL     OW 1592   1.702   1.440   1.999
  486SOL    HW1 1593   1.742   1.370   2.052
  486SOL    HW2 1594   1.634   1.477   2.056
  487SOL     OW 1595   2.474   2.602   3.807
  487SOL    HW1 1596   2.511   2.671   3.863
  487SOL    HW2 1597   2.507   2.622   3.719
  488SOL     OW 1598   1.688   3.869   0.200
  488SOL    HW1 1599   1.718   3.797   0.255
  488SOL    HW2 1600   1.739   3.944   0.229
  489SOL     OW 1601   3.854   0.630   1.780
  489SOL    HW1 1602   3.837   0.550   1.730
  489SOL    HW2 1603   3.832   0.701   1.719
  490SOL     OW 1604   0.530   1.248   2.072
  490SOL    HW1 1605   0.510   1.323   2.017
  490SOL    HW2 1606   0.623   1.232   2.059
  491SOL     OW 1607   1.816   0.148   0.289
  491SOL    HW1 1608   1.804   0.097   0.369
  491SOL    HW2 1609   1.829   0.238   0.319
  492SOL     OW 1610   0.396   2.956   3.174
  492SOL    HW1 1611   0.482   2.948   3.134
  492SOL    HW2 1612   0.353   3.028   3.127
  493SOL     OW 1613   2.574   0.526   2.318
  493SOL    HW1 1614   2.523   0.534   2.398
  493SOL    HW2 1615   2.650   0.583   2.332
  494SOL     OW 1616   0.854   3.163   1.352
  494SOL    HW1 1617   0.942   3.198   1.338
  494SOL    HW2 1618   0.814   3.166   1.265
  495SOL     OW 1619   3.016   2.127   3.918
  495SOL    HW1 1620   3.060   2.208   3.894
  495SOL    HW2 1621   2.942   2.121   3.857
  496SOL     OW 1622   2.337   1.078   1.101
  496SOL    HW1 1623   2.428   1.054   1.083
  496SOL    HW2 1624   2.298   1.089   1.015
  497SOL     OW 1625   0.293   0.604   0.329
  497SOL    HW1 1626   0.262   0.547   0.258
  497SOL    HW2 1627   0.244   0.575   0.406
  498SOL     OW 1628   1.278   3.455   3.899
  498SOL    HW1 1629   1.244   3.530   3.946
  498SOL    HW2 1630   1.269   3.479   3.807
  499SOL     OW 1631   2.854   1.592   3.590
  499SOL    HW1 1632   2.807   1.620   3.669
  499SOL    HW2 1633   2.947   1.607   3.610
  500SOL     OW 1634   2.834   1.111   2.955
  500SOL    HW1 1635   2.744   1.078   2.944
  500SOL    HW2 1636   2.851   1.103   3.049
  501SOL     OW 1637   2.063   3.574   2.014
  501SOL    HW1 1638   2.037   3.532   2.095
  501SOL    HW2 1639   2.158   3.580   2.019
  502SOL     OW 1640   2.529   3.455   1.943
  502SOL    HW1 1641   2.562   3.518   1.879
  502SOL    HW2 1642   2.442   3.431   1.911
  503SOL     OW 1643   2.230   3.925   3.395
  503SOL    HW1 1644   2.273   3.964   3.318
  503SOL    HW2 1645   2.294   3.933   3.465
  504SOL     OW 1646   0.168   3.641   0.395
  504SOL    HW1 1647   0.149   3.549   0.377
  504SOL    HW2 1648   0.241   3.663   0.337
  505SOL     OW 1649   0.571   0.596   3.892
  505SOL    HW1 1650   0.482   0.630   3.898
  505SOL    HW2 1651   0.560   0.509   3.852
  506SOL     OW 1652   2.691   1.428   0.234
  506SOL    HW1 1653   2.713   1.420   0.327
  506SOL    HW2 1654   2.596   1.436   0.233
  507SOL     OW 1655   3.291   0.551   3.568
  507SOL    HW1 1656   3.207   0.586   3.539
  507SOL    HW2 1657   3.349   0.562   3.492
  508SOL     OW 1658   2.912   2.754   0.944
  508SOL    HW1 1659   2.913   2.701   0.865
  508SOL    HW2 1660   2.910   2.691   1.016
  509SOL     OW 1661   2.079   0.763   0.796
  509SOL    HW1 1662   2.120   0.806   0.721
  509SOL    HW2 1663   2.148   0.757   0.861
  510SOL     OW 1664   2.281   0.704   1.552
  510SOL    HW1 1665   2.350   0.726   1.490
  510SOL    HW2 1666   2.243   0.622   1.519
  511SOL     OW 1667   3.218   2.792   0.894
  511SOL    HW1 1668   3.284   2.734   0.932
  511SOL    HW2 1669   3.152   2.801   0.962
  512SOL     OW 1670   2.139   1.385   0.721
  512SOL    HW1 1671   2.063   1.369   0.666
  512SOL    HW2 1672   2.155   1.479   0.714
  513SOL     OW 1673   1.613   2.504   0.174
  513SOL    HW1 1674   1.655   2.587   0.151
  513SOL    HW2 1675   1.559   2.483   0.098
  514SOL     OW 1676   2.561   1.947   1.855
  514SOL    HW1 1677   2.600   2.030   1.829
  514SOL    HW2 1678   2.519   1.913   1.776
  515SOL     OW 1679   2.126   1.955   1.543
  515SOL    HW1 1680   2.116   1.940   1.450
  515SOL    HW2 1681   2.061   1.899   1.585
  516SOL     OW 1682   3.441   0.103   3.334
  516SOL    HW1 1683   3.356   0.147   3.328
  516SOL    HW2 1684   3.466   0.113   3.426
  517SOL     OW 1685   0.945   0.222   1.429
  517SOL    HW1 1686   0.858   0.244   1.462
  517SOL    HW2 1687   0.994   0.304   1.436
  518SOL     OW 1688   2.260   1.434   2.657
  518SOL    HW1 1689   2.274   1.515   2.706
  518SOL    HW2 1690   2.339   1.383   2.673
  519SOL     OW 1691   0.841   0.250   3.686
  519SOL    HW1 1692   0.880   0.232   3.772
  519SOL    HW2 1693   0.899   0.208   3.623
  520SOL     OW 1694   2.927   2.884   2.736
  520SOL    HW1 1695   2.907   2.797   2.702
  520SOL    HW2 1696   2.853   2.938   2.707
  521SOL     OW 1697   0.435   3.807   3.934
  521SOL    HW1 1698   0.357   3.814   3.879
  521SOL    HW2 1699   0.482   3.731   3.899
  522SOL     OW 1700   3.782   3.101   0.845
  522SOL    HW1 1701   3.811   3.101   0.754
  522SOL    HW2 1702   3.858   3.133   0.894
  523SOL     OW 1703   1.977   2.357   2.477
  523SOL    HW1 1704   1.912   2.410   2.524
  523SOL    HW2 1705   2.047   2.419   2.457
  524SOL     OW 1706   2.042   0.800   1.598
  524SOL    HW1 1707   2.130   0.769   1.579
  524SOL    HW2 1708   1.985   0.744   1.546
  525SOL     OW 1709   0.195   2.431   2.040
  525SOL    HW1 1710   0.193   2.444   1.945
  525SOL    HW2 1711   0.222   2.515   2.076
  526SOL     OW 1712   3.549   0.737   0.237
  526SOL    HW1 1713   3.505   0.673   0.294
  526SOL    HW2 1714   3.479   0.772   0.183
  527SOL     OW 1715   0.766   2.159   2.635
  527SOL    HW1 1716   0.750   2.158   2.541
  527SOL    HW2 1717   0.708   2.092   2.670
  528SOL     OW 1718   3.062   0.457   2.811
  528SOL    HW1 1719   3.092   0.547   2.821
  528SOL    HW2 1720   3.118   0.406   2.870
  529SOL     OW 1721   0.254   0.605   1.746
  529SOL    HW1 1722   0.173   0.581   1.792
  529SOL    HW2 1723   0.232   0.686   1.700
  530SOL     OW 1724   2.143   2.941   3.573
  530SOL    HW1 1725   2.168   2.910   3.660
  530SOL    HW2 1726   2.054   2.908   3.560
  531SOL     OW 1727   3.366   2.864   0.049
  531SOL    HW1 1728   3.412   2.834  -0.029
  531SOL    HW2 1729   3.330   2.949   0.024
  532SOL     OW 1730   0.317   0.653   3.402
  532SOL    HW1 1731   0.248   0.716   3.383
  532SOL    HW2 1732   0.326   0.603   3.320
  533SOL     OW 1733   0.409   3.872   1.752
  533SOL    HW1 1734   0.348   3.933   1.795
  533SOL    HW2 1735   0.471   3.847   1.820
  534SOL     OW 1736   2.058   0.572   0.238
  534SOL    HW1 1737   1.992   0.622   0.287
  534SOL    HW2 1738   2.019   0.559   0.152
  535SOL     OW 1739   2.674   3.735   0.748
  535SOL    HW1 1740   2.696   3.774   0.663
  535SOL    HW2 1741   2.705   3.645   0.742
  536SOL     OW 1742   1.264   3.892   0.796
  536SOL    HW1 1743   1.312   3.859   0.872
  536SOL    HW2 1744   1.302   3.845   0.721
  537SOL     OW 1745   0.856   2.602   3.661
  537SOL    HW1 1746   0.814   2.671   3.610
  537SOL    HW2 1747   0.792   2.530   3.662
  538SOL     OW 1748   2.943   2.928   1.473
  538SOL    HW1 1749   2.871   2.949   1.414
  538SOL    HW2 1750   2.904   2.870   1.539
  539SOL     OW 1751   3.738   0.303   0.277
  539SOL    HW1 1752   3.769   0.236   0.216
  539SOL    HW2 1753   3.815   0.321   0.332
  540SOL     OW 1754   1.172   0.723   2.746
  540SOL    HW1 1755   1.217   0.666   2.684
  540SOL    HW2 1756   1.193   0.687   2.832
  541SOL     OW 1757   2.444   0.771   0.646
  541SOL    HW1 1758   2.515   0.812   0.597
  541SOL    HW2 1759   2.365   0.818   0.619
  542SOL     OW 1760   3.453   2.857   1.283
  542SOL    HW1 1761   3.403   2.883   1.205
  542SOL    HW2 1762   3.393   2.870   1.356
  543SOL     OW 1763   3.707   1.686   2.279
  543SOL    HW1 1764   3.727   1.675   2.372
  543SOL    HW2 1765   3.708   1.598   2.243
  544SOL     OW 1766   3.981   2.990   1.439
  544SOL    HW1 1767   3.994   3.057   1.505
  544SOL    HW2 1768   3.888   2.968   1.444
  545SOL     OW 1769   3.756   2.688   2.458
  545SOL    HW1 1770   3.828   2.630   2.482
  545SOL    HW2 1771   3.787   2.776   2.481
  546SOL     OW 1772   2.653   1.693   3.382
  546SOL    HW1 1773   2.576   1.662   3.430
  546SOL    HW2 1774   2.728   1.663   3.433
  547SOL     OW 1775   3.399   0.416   0.950
  547SOL    HW1 1776   3.427   0.432   0.859
  547SOL    HW2 1777   3.444   0.335   0.974
  548SOL     OW 1778   3.361   2.154   1.053
  548SOL    HW1 1779   3.444   2.186   1.018
  548SOL    HW2 1780   3.382   2.071   1.094
  549SOL     OW 1781   1.820   3.199   0.780
  549SOL    HW1 1782   1.726   3.181   0.791
  549SOL    HW2 1783   1.844   3.250   0.856
  550SOL     OW 1784   2.450   1.242   2.692
  550SOL    HW1 1785   2.545   1.234   2.686
  550SOL    HW2 1786   2.432   1.255   2.785
  551SOL     OW 1787   0.445   1.408   1.874
  551SOL    HW1 1788   0.375   1.352   1.907
  551SOL    HW2 1789   0.418   1.431   1.785
  552SOL     OW 1790   2.020   2.969   2.184
  552SOL    HW1 1791   2.110   2.968   2.217
  552SOL    HW2 1792   1.980   2.891   2.221
  553SOL     OW 1793   1.465   0.507   0.395
  553SOL    HW1 1794   1.384   0.546   0.427
  553SOL    HW2 1795   1.438   0.459   0.316
  554SOL     OW 1796   2.532   2.716   3.527
  554SOL    HW1 1797   2.529   2.620   3.533
  554SOL    HW2 1798   2.585   2.734   3.450
  555SOL     OW 1799   0.474   2.292   0.204
  555SOL    HW1 1800   0.548   2.278   0.144
  555SOL    HW2 1801   0.488   2.227   0.274
  556SOL     OW 1802   1.211   0.491   0.476
  556SOL    HW1 1803   1.134   0.502   0.419
  556SOL    HW2 1804   1.174   0.468   0.561
  557SOL     OW 1805   2.876   2.081   0.251
  557SOL    HW1 1806   2.844   1.992   0.271
  557SOL    HW2 1807   2.930   2.070   0.173
  558SOL     OW 1808   3.665   2.942   1.407
  558SOL    HW1 1809   3.634   2.896   1.485
  558SOL    HW2 1810   3.599   2.922   1.340
  559SOL     OW 1811   3.346   2.269   2.232
  559SOL    HW1 1812   3.258   2.251   2.266
  559SOL    HW2 1813   3.331   2.299   2.143
  560SOL     OW 1814   1.371   1.667   0.384
  560SOL    HW1 1815   1.353   1.599   0.319
  560SOL    HW2 1816   1.426   1.731   0.339
  561SOL     OW 1817   1.509   0.997   1.108
  561SOL    HW1 1818   1.419   1.008   1.077
  561SOL    HW2 1819   1.511   0.907   1.143
  562SOL     OW 1820   0.124   2.758   1.656
  562SOL    HW1 1821   0.165   2.746   1.571
  562SOL    HW2 1822   0.031   2.741   1.641
  563SOL     OW 1823   0.190   2.019   2.341
  563SOL    HW1 1824   0.097   1.996   2.334
  563SOL    HW2 1825   0.195   2.110   2.311
  564SOL     OW 1826   2.022   1.105   2.400
  564SOL    HW1 1827   2.092   1.131   2.460
  564SOL    HW2 1828   1.952   1.168   2.417
  565SOL     OW 1829   3.103   0.201   2.251
  565SOL    HW1 1830   3.040   0.266   2.279
  565SOL    HW2 1831   3.163   0.248   2.193
  566SOL     OW 1832   3.716   2.619   2.165
  566SOL    HW1 1833   3.806   2.640   2.139
  566SOL    HW2 1834   3.713   2.640   2.259
  567SOL     OW 1835   3.727   0.159   2.503
  567SOL    HW1 1836   3.822   0.166   2.514
  567SOL    HW2 1837   3.710   0.203   2.420
  568SOL     OW 1838   0.802   0.662   3.741
  568SOL    HW1 1839   0.847   0.626   3.817
  568SOL    HW2 1840   0.715   0.685   3.773
  569SOL     OW 1841   2.684   3.966   2.825
  569SOL    HW1 1842   2.722   3.958   2.738
  569SOL    HW2 1843   2.594   3.934   2.815
  570SOL     OW 1844   3.172   1.091   2.657
  570SOL    HW1 1845   3.262   1.087   2.689
  570SOL    HW2 1846   3.179   1.125   2.568
  571SOL     OW 1847   0.115   1.687   2.584
  571SOL    HW1 1848   0.040   1.745   2.596
  571SOL    HW2 1849   0.185   1.744   2.552
  572SOL     OW 1850   0.650   0.155   0.798
  572SOL    HW1 1851   0.623   0.181   0.710
  572SOL    HW2 1852   0.661   0.060   0.793
  573SOL     OW 1853   1.703   0.541   2.667
  573SOL    HW1 1854   1.795   0.538   2.641
  573SOL    HW2 1855   1.684   0.451   2.696
  574SOL     OW 1856   3.946   0.197   2.075
  574SOL    HW1 1857   3.902   0.221   1.993
  574SOL    HW2 1858   3.884   0.222   2.144
  575SOL     OW 1859   0.643   0.228   1.285
  575SOL    HW1 1860   0.573   0.201   1.344
  575SOL    HW2 1861   0.672   0.313   1.319
  576SOL     OW 1862   0.513   0.726   3.022
  576SOL    HW1 1863   0.434   0.757   2.977
  576SOL    HW2 1864   0.502   0.757   3.112
  577SOL     OW 1865   1.161   0.100   1.903
  577SOL    HW1 1866   1.187   0.030   1.844
  577SOL    HW2 1867   1.075   0.073   1.936
  578SOL     OW 1868   2.599   3.820   2.301
  578SOL    HW1 1869   2.560   3.776   2.226
  578SOL    HW2 1870   2.529   3.876   2.335
  579SOL     OW 1871   0.924   0.711   2.582
  579SOL    HW1 1872   0.982   0.756   2.643
  579SOL    HW2 1873   0.898   0.631   2.627
  580SOL     OW 1874   1.920   3.042   2.727
  580SOL    HW1 1875   1.855   3.104   2.759
  580SOL    HW2 1876   1.993   3.096   2.697
  581SOL     OW 1877   2.337   3.529   0.837
  581SOL    HW1 1878   2.362   3.437   0.832
  581SOL    HW2 1879   2.272   3.540   0.768
  582SOL     OW 1880   0.859   3.644   2.111
  582SOL    HW1 1881   0.944   3.641   2.154
  582SOL    HW2 1882   0.800   3.683   2.175
  583SOL     OW 1883   2.525   1.787   0.337
  583SOL    HW1 1884   2.471   1.716   0.371
  583SOL    HW2 1885   2.526   1.852   0.408
  584SOL     OW 1886   3.549   0.454   1.185
  584SOL    HW1 1887   3.520   0.459   1.094
  584SOL    HW2 1888   3.518   0.536   1.224
  585SOL     OW 1889   2.669   0.939   3.471
  585SOL    HW1 1890   2.670   0.916   3.378
  585SOL    HW2 1891   2.623   0.866   3.513
  586SOL     OW 1892   0.248   0.416   0.788
  586SOL    HW1 1893   0.205   0.477   0.848
  586SOL    HW2 1894   0.227   0.329   0.822
  587SOL     OW 1895   3.343   3.819   2.364
  587SOL    HW1 1896   3.318   3.848   2.452
  587SOL    HW2 1897   3.438   3.809   2.369
  588SOL     OW 1898   0.763   3.468   2.815
  588SOL    HW1 1899   0.743   3.520   2.737
  588SOL    HW2 1900   0.715   3.386   2.803
  589SOL     OW 1901   1.561   0.457   1.475
  589SOL    HW1 1902   1.579   0.375   1.522
  589SOL    HW2 1903   1.466   0.460   1.466
  590SOL     OW 1904   1.204   0.344   2.047
  590SOL    HW1 1905   1.274   0.400   2.078
  590SOL    HW2 1906   1.247   0.261   2.026
  591SOL     OW 1907   0.178   1.988   0.048
  591SOL    HW1 1908   0.211   1.987  -0.042
  591SOL    HW2 1909   0.192   1.898   0.079
  592SOL     OW 1910   3.279   0.671   0.490
  592SOL    HW1 1911   3.295   0.715   0.406
  592SOL    HW2 1912   3.224   0.733   0.539
  593SOL     OW 1913   2.186   0.311   0.779
  593SOL    HW1 1914   2.134   0.374   0.728
  593SOL    HW2 1915   2.228   0.256   0.713
  594SOL     OW 1916   0.861   2.677   0.766
  594SOL    HW1 1917   0.936   2.717   0.723
  594SOL    HW2 1918   0.885   2.672   0.858
  595SOL     OW 1919   2.663   0.946   3.194
  595SOL    HW1 1920   2.641   1.038   3.179
  595SOL    HW2 1921   2.623   0.900   3.120
  596SOL     OW 1922   2.040   2.300   2.777
  596SOL    HW1 1923   2.006   2.329   2.692
  596SOL    HW2 1924   2.135   2.307   2.768
  597SOL     OW 1925   3.920   3.486   1.520
  597SOL    HW1 1926   3.897   3.436   1.442
  597SOL    HW2 1927   3.901   3.577   1.497
  598SOL     OW 1928   3.404   2.733   1.842
  598SOL    HW1 1929   3.457   2.654   1.855
  598SOL    HW2 1930   3.383   2.762   1.931
  599SOL     OW 1931   3.094   3.836   1.243
  599SOL    HW1 1932   3.072   3.783   1.167
  599SOL    HW2 1933   3.014   3.837   1.295
  600SOL     OW 1934   1.546   1.878   0.825
  600SOL    HW1 1935   1.502   1.831   0.896
  600SOL    HW2 1936   1.496   1.959   0.816
  601SOL     OW 1937   1.978   3.682   0.300
  601SOL    HW1 1938   2.045   3.731   0.347
  601SOL    HW2 1939   1.976   3.596   0.342
  602SOL     OW 1940   1.278   2.550   0.628
  602SOL    HW1 1941   1.237   2.592   0.553
  602SOL    HW2 1942   1.205   2.526   0.685
  603SOL     OW 1943   3.683   0.609   3.044
  603SOL    HW1 1944   3.698   0.617   3.138
  603SOL    HW2 1945   3.650   0.694   3.017
  604SOL     OW 1946   0.337   1.280   0.736
  604SOL    HW1 1947   0.312   1.257   0.825
  604SOL    HW2 1948   0.263   1.331   0.703
  605SOL     OW 1949   2.979   3.557   2.117
  605SOL    HW1 1950   2.920   3.522   2.051
  605SOL    HW2 1951   2.934   3.635   2.151
  606SOL     OW 1952   3.065   3.595   0.556
  606SOL    HW1 1953   3.108   3.563   0.635
  606SOL    HW2 1954   3.032   3.516   0.512
  607SOL     OW 1955   2.851   2.291   2.373
  607SOL    HW1 1956   2.938   2.307   2.337
  607SOL    HW2 1957   2.794   2.349   2.323
  608SOL     OW 1958   3.285   3.419   3.127
  608SOL    HW1 1959   3.340   3.482   3.174
  608SOL    HW2 1960   3.293   3.338   3.178
  609SOL     OW 1961   1.689   2.619   1.153
  609SOL    HW1 1962   1.705   2.708   1.184
  609SOL    HW2 1963   1.760   2.602   1.091
  610SOL     OW 1964   1.489   3.901   1.890
  610SOL    HW1 1965   1.557   3.956   1.851
  610SOL    HW2 1966   1.538   3.832   1.935
  611SOL     OW 1967   2.797   0.627   2.888
  611SOL    HW1 1968   2.709   0.620   2.926
  611SOL    HW2 1969   2.845   0.552   2.924
  612SOL     OW 1970   2.954   0.445   0.819
  612SOL    HW1 1971   2.986   0.359   0.794
  612SOL    HW2 1972   3.023   0.481   0.875
  613SOL     OW 1973   1.698   1.828   2.338
  613SOL    HW1 1974   1.651   1.898   2.384
  613SOL    HW2 1975   1.734   1.774   2.407
  614SOL     OW 1976   2.489   3.439   3.558
  614SOL    HW1 1977   2.408   3.414   3.603
  614SOL    HW2 1978   2.557   3.387   3.600
  615SOL     OW 1979   1.392   0.776   0.071
  615SOL    HW1 1980   1.397   0.775  -0.025
  615SOL    HW2 1981   1.321   0.715   0.092
  616SOL     OW 1982   3.091   2.995   0.142
  616SOL    HW1 1983   3.048   3.021   0.224
  616SOL    HW2 1984   3.135   2.913   0.163
  617SOL     OW 1985   0.604   3.040   0.303
  617SOL    HW1 1986   0.570   2.951   0.312
  617SOL    HW2 1987   0.539   3.085   0.250
  618SOL     OW 1988   2.336   2.986   0.603
  618SOL    HW1 1989   2.426   2.952   0.602
  618SOL    HW2 1990   2.289   2.929   0.664
  619SOL     OW 1991   0.038   1.261   0.887
  619SOL    HW1 1992  -0.007   1.197   0.832
  619SOL    HW2 1993   0.064   1.211   0.965
  620SOL     OW 1994   2.182   1.427   1.200
  620SOL    HW1 1995   2.135   1.457   1.122
  620SOL    HW2 1996   2.263   1.389   1.166
  621SOL     OW 1997   1.298   2.524   1.542
  621SOL    HW1 1998   1.236   2.489   1.478
  621SOL    HW2 1999   1.381   2.529   1.494
  622SOL     OW 2000   1.881   0.042   0.888
  622SOL    HW1 2001   1.841   0.015   0.971
  622SOL    HW2 2002   1.941   0.112   0.911
  623SOL     OW 2003   2.107   3.677   1.014
  623SOL    HW1 2004   2.153   3.601   1.051
  623SOL    HW2 2005   2.127   3.749   1.074
  624SOL     OW 2006   3.469   1.127   0.795
  624SOL    HW1 2007   3.390   1.178   0.780
  624SOL    HW2 2008   3.521   1.140   0.715
  625SOL     OW 2009   2.363   1.823   1.621
  625SOL    HW1 2010   2.284   1.876   1.620
  625SOL    HW2 2011   2.349   1.757   1.553
  626SOL     OW 2012   3.648   3.316   1.161
  626SOL    HW1 2013   3.631   3.393   1.105
  626SOL    HW2 2014   3.732   3.335   1.202
  627SOL     OW 2015   2.580   2.417   0.336
  627SOL    HW1 2016   2.567   2.441   0.244
  627SOL    HW2 2017   2.491   2.402   0.369
  628SOL     OW 2018   1.778   2.327   1.251
  628SOL    HW1 2019   1.778   2.360   1.341
  628SOL    HW2 2020   1.801   2.235   1.260
  629SOL     OW 2021   3.638   0.905   1.229
  629SOL    HW1 2022   3.640   0.900   1.133
  629SOL    HW2 2023   3.721   0.948   1.253
  630SOL     OW 2024   0.044   1.622   2.224
  630SOL    HW1 2025   0.017   1.612   2.316
  630SOL    HW2 2026   0.140   1.624   2.228
  631SOL     OW 2027   0.031   3.228   1.577
  631SOL    HW1 2028   0.114   3.245   1.532
  631SOL    HW2 2029  -0.014   3.312   1.578
  632SOL     OW 2030   1.811   2.875   3.550
  632SOL    HW1 2031   1.751   2.802   3.533
  632SOL    HW2 2032   1.813   2.924   3.469
  633SOL     OW 2033   1.223   3.535   3.654
  633SOL    HW1 2034   1.133   3.552   3.627
  633SOL    HW2 2035   1.275   3.602   3.609
  634SOL     OW 2036   1.712   0.948   1.383
  634SOL    HW1 2037   1.696   0.882   1.315
  634SOL    HW2 2038   1.630   0.998   1.386
  635SOL     OW 2039   0.370   3.575   1.188
  635SOL    HW1 2040   0.400   3.590   1.278
  635SOL    HW2 2041   0.448   3.543   1.143
  636SOL     OW 2042   2.319   1.538   2.232
  636SOL    HW1 2043   2.305   1.452   2.271
  636SOL    HW2 2044   2.316   1.522   2.138
  637SOL     OW 2045   0.859   0.691   1.540
  637SOL    HW1 2046   0.821   0.778   1.530
  637SOL    HW2 2047   0.837   0.666   1.630
  638SOL     OW 2048   0.210   1.822   0.696
  638SOL    HW1 2049   0.305   1.814   0.698
  638SOL    HW2 2050   0.183   1.818   0.787
  639SOL     OW 2051   0.599   3.049   1.090
  639SOL    HW1 2052   0.542   2.999   1.149
  639SOL    HW2 2053   0.650   2.983   1.044
  640SOL     OW 2054   2.642   0.193   1.946
  640SOL    HW1 2055   2.596   0.200   1.862
  640SOL    HW2 2056   2.587   0.240   2.008
  641SOL     OW 2057   2.778   0.744   0.018
  641SOL    HW1 2058   2.699   0.735   0.071
  641SOL    HW2 2059   2.849   0.747   0.082
  642SOL     OW 2060   0.755   0.370   0.062
  642SOL    HW1 2061   0.702   0.315   0.003
  642SOL    HW2 2062   0.728   0.344   0.150
  643SOL     OW 2063   1.831   1.749   2.585
  643SOL    HW1 2064   1.835   1.697   2.666
  643SOL    HW2 2065   1.902   1.715   2.531
  644SOL     OW 2066   0.687   1.604   3.866
  644SOL    HW1 2067   0.682   1.630   3.958
  644SOL    HW2 2068   0.680   1.509   3.867
  645SOL     OW 2069   3.591   1.769   3.556
  645SOL    HW1 2070   3.635   1.853   3.568
  645SOL    HW2 2071   3.625   1.736   3.473
  646SOL     OW 2072   3.270   3.617   3.789
  646SOL    HW1 2073   3.223   3.695   3.758
  646SOL    HW2 2074   3.298   3.640   3.877
  647SOL     OW 2075   1.206   2.190   2.597
  647SOL    HW1 2076   1.261   2.156   2.527
  647SOL    HW2 2077   1.267   2.226   2.660
  648SOL     OW 2078   1.410   2.203   3.217
  648SOL    HW1 2079   1.333   2.222   3.163
  648SOL    HW2 2080   1.377   2.150   3.289
  649SOL     OW 2081   0.774   2.806   1.071
  649SOL    HW1 2082   0.844   2.761   1.024
  649SOL    HW2 2083   0.698   2.798   1.013
  650SOL     OW 2084   2.972   2.259   1.062
  650SOL    HW1 2085   2.888   2.219   1.040
  650SOL    HW2 2086   3.014   2.196   1.120
  651SOL     OW 2087   3.243   3.230   2.077
  651SOL    HW1 2088   3.262   3.147   2.122
  651SOL    HW2 2089   3.184   3.206   2.006
  652SOL     OW 2090   2.857   1.831   3.199
  652SOL    HW1 2091   2.807   1.761   3.241
  652SOL    HW2 2092   2.810   1.911   3.223
  653SOL     OW 2093   2.823   0.664   2.622
  653SOL    HW1 2094   2.890   0.729   2.646
  653SOL    HW2 2095   2.804   0.619   2.704
  654SOL     OW 2096   0.655   1.775   1.658
  654SOL    HW1 2097   0.600   1.712   1.612
  654SOL    HW2 2098   0.645   1.752   1.751
  655SOL     OW 2099   0.552   0.307   3.710
  655SOL    HW1 2100   0.495   0.357   3.651
  655SOL    HW2 2101   0.639   0.347   3.699
  656SOL     OW 2102   1.281   3.534   0.521
  656SOL    HW1 2103   1.304   3.625   0.538
  656SOL    HW2 2104   1.186   3.531   0.524
  657SOL     OW 2105   2.322   1.750   0.156
  657SOL    HW1 2106   2.265   1.821   0.126
  657SOL    HW2 2107   2.394   1.795   0.202
  658SOL     OW 2108   0.584   2.169   0.429
  658SOL    HW1 2109   0.545   2.138   0.512
  658SOL    HW2 2110   0.675   2.189   0.451
  659SOL     OW 2111   2.646   3.011   2.428
  659SOL    HW1 2112   2.677   2.984   2.514
  659SOL    HW2 2113   2.573   3.071   2.446
  660SOL     OW 2114   0.545   3.212   0.097
  660SOL    HW1 2115   0.493   3.285   0.063
  660SOL    HW2 2116   0.571   3.163   0.019
  661SOL     OW 2117   3.527   0.898   1.599
  661SOL    HW1 2118   3.492   0.980   1.633
  661SOL    HW2 2119   3.474   0.830   1.640
  662SOL     OW 2120   0.875   0.477   3.557
  662SOL    HW1 2121   0.818   0.537   3.605
  662SOL    HW2 2122   0.875   0.397   3.609
  663SOL     OW 2123   0.649   1.990   2.050
  663SOL    HW1 2124   0.600   1.966   2.129
  663SOL    HW2 2125   0.659   1.908   2.002
  664SOL     OW 2126   3.043   2.889   3.520
  664SOL    HW1 2127   3.069   2.977   3.492
  664SOL    HW2 2128   3.046   2.836   3.441
  665SOL     OW 2129   2.285   3.646   2.262
  665SOL    HW1 2130   2.338   3.707   2.211
  665SOL    HW2 2131   2.276   3.688   2.348
  666SOL     OW 2132   2.047   3.433   2.613
  666SOL    HW1 2133   1.964   3.459   2.576
  666SOL    HW2 2134   2.064   3.346   2.576
  667SOL     OW 2135   1.610   2.657   3.511
  667SOL    HW1 2136   1.638   2.571   3.479
  667SOL    HW2 2137   1.530   2.640   3.560
  668SOL     OW 2138   2.280   0.426   3.841
  668SOL    HW1 2139   2.200   0.423   3.893
  668SOL    HW2 2140   2.262   0.370   3.765
  669SOL     OW 2141   3.184   1.887   3.841
  669SOL    HW1 2142   3.152   1.812   3.790
  669SOL    HW2 2143   3.161   1.964   3.790
  670SOL     OW 2144   2.729   3.075   1.688
  670SOL    HW1 2145   2.654   3.116   1.731
  670SOL    HW2 2146   2.692   2.997   1.645
  671SOL     OW 2147   1.668   2.699   0.396
  671SOL    HW1 2148   1.642   2.611   0.423
  671SOL    HW2 2149   1.753   2.712   0.438
  672SOL     OW 2150   0.165   1.146   0.079
  672SOL    HW1 2151   0.256   1.168   0.059
  672SOL    HW2 2152   0.148   1.188   0.164
  673SOL     OW 2153   1.195   1.664   3.887
  673SOL    HW1 2154   1.156   1.664   3.974
  673SOL    HW2 2155   1.276   1.714   3.897
  674SOL     OW 2156   3.927   2.512   2.725
  674SOL    HW1 2157   3.941   2.559   2.643
  674SOL    HW2 2158   3.948   2.421   2.704
  675SOL     OW 2159   0.047   3.339   2.522
  675SOL    HW1 2160  -0.033   3.291   2.504
  675SOL    HW2 2161   0.097   3.282   2.580
  676SOL     OW 2162   0.401   0.137   3.284
  676SOL    HW1 2163   0.403   0.227   3.253
  676SOL    HW2 2164   0.384   0.084   3.206
  677SOL     OW 2165   3.210   0.739   2.511
  677SOL    HW1 2166   3.183   0.735   2.603
  677SOL    HW2 2167   3.214   0.647   2.483
  678SOL     OW 2168   0.127   1.315   1.418
  678SOL    HW1 2169   0.222   1.313   1.433
  678SOL    HW2 2170   0.119   1.321   1.322
  679SOL     OW 2171   2.946   1.358   3.833
  679SOL    HW1 2172   2.967   1.398   3.748
  679SOL    HW2 2173   3.001   1.280   3.836
  680SOL     OW 2174   0.065   1.152   3.190
  680SOL    HW1 2175   0.014   1.228   3.160
  680SOL    HW2 2176   0.007   1.077   3.178
  681SOL     OW 2177   3.553   3.124   2.065
  681SOL    HW1 2178   3.511   3.146   2.148
  681SOL    HW2 2179   3.540   3.201   2.010
  682SOL     OW 2180   1.452   0.280   3.380
  682SOL    HW1 2181   1.375   0.264   3.324
  682SOL    HW2 2182   1.426   0.246   3.465
  683SOL     OW 2183   2.346   3.521   0.516
  683SOL    HW1 2184   2.334   3.609   0.553
  683SOL    HW2 2185   2.440   3.514   0.502
  684SOL     OW 2186   2.058   1.574   2.480
  684SOL    HW1 2187   2.111   1.648   2.452
  684SOL    HW2 2188   2.121   1.508   2.509
  685SOL     OW 2189   3.572   3.950   3.123
  685SOL    HW1 2190   3.599   3.878   3.180
  685SOL    HW2 2191   3.513   4.003   3.178
  686SOL     OW 2192   2.298   2.416   1.248
  686SOL    HW1 2193   2.226   2.477   1.235
  686SOL    HW2 2194   2.257   2.337   1.281
  687SOL     OW 2195   0.342  -0.001   3.053
  687SOL    HW1 2196   0.263  -0.052   3.071
  687SOL    HW2 2197   0.313   0.068   2.993
  688SOL     OW 2198   1.118   2.338   0.232
  688SOL    HW1 2199   1.042   2.290   0.265
  688SOL    HW2 2200   1.095   2.360   0.142
  689SOL     OW 2201   2.753   1.368   0.483
  689SOL    HW1 2202   2.668   1.326   0.493
  689SOL    HW2 2203   2.815   1.306   0.523
  690SOL     OW 2204   1.867   1.065   3.183
  690SOL    HW1 2205   1.833   1.099   3.101
  690SOL    HW2 2206   1.884   0.973   3.167
  691SOL     OW 2207   2.948   3.554   3.259
  691SOL    HW1 2208   2.949   3.460   3.276
  691SOL    HW2 2209   2.878   3.567   3.196
  692SOL     OW 2210   3.124   3.965   2.044
  692SOL    HW1 2211   3.075   4.000   2.119
  692SOL    HW2 2212   3.183   3.900   2.082
  693SOL     OW 2213   2.703   1.193   3.850
  693SOL    HW1 2214   2.712   1.224   3.759
  693SOL    HW2 2215   2.794   1.179   3.879
  694SOL     OW 2216   3.730   1.284   1.126
  694SOL    HW1 2217   3.790   1.267   1.199
  694SOL    HW2 2218   3.692   1.198   1.106
  695SOL     OW 2219   1.906   2.524   2.664
  695SOL    HW1 2220   1.868   2.506   2.750
  695SOL    HW2 2221   1.912   2.620   2.661
  696SOL     OW 2222   3.351   3.986   2.929
  696SOL    HW1 2223   3.330   3.899   2.894
  696SOL    HW2 2224   3.416   3.970   2.997
  697SOL     OW 2225   1.368   2.107   0.545
  697SOL    HW1 2226   1.367   2.185   0.599
  697SOL    HW2 2227   1.461   2.090   0.529
  698SOL     OW 2228   1.149   2.789   1.274
  698SOL    HW1 2229   1.203   2.832   1.340
  698SOL    HW2 2230   1.212   2.751   1.212
  699SOL     OW 2231   3.151   1.243   3.210
  699SOL    HW1 2232   3.057   1.235   3.226
  699SOL    HW2 2233   3.180   1.313   3.269
  700SOL     OW 2234   2.174   3.838   2.589
  700SOL    HW1 2235   2.092   3.813   2.547
  700SOL    HW2 2236   2.184   3.931   2.571
  701SOL     OW 2237   0.747   0.566   0.858
  701SOL    HW1 2238   0.779   0.651   0.826
  701SOL    HW2 2239   0.669   0.587   0.908
  702SOL     OW 2240   3.879   1.195   2.839
  702SOL    HW1 2241   3.803   1.149   2.874
  702SOL    HW2 2242   3.890   1.271   2.896
  703SOL     OW 2243   2.874   1.143   0.557
  703SOL    HW1 2244   2.904   1.081   0.623
  703SOL    HW2 2245   2.779   1.146   0.567
  704SOL     OW 2246   3.951   3.953   1.067
  704SOL    HW1 2247   3.920   3.933   0.978
  704SOL    HW2 2248   3.991   3.871   1.097
  705SOL     OW 2249   1.871   1.803   2.879
  705SOL    HW1 2250   1.880   1.824   2.972
  705SOL    HW2 2251   1.911   1.878   2.834
  706SOL     OW 2252   3.171   1.317   0.447
  706SOL    HW1 2253   3.126   1.321   0.363
  706SOL    HW2 2254   3.230   1.392   0.447
  707SOL     OW 2255   1.540   1.375   1.159
  707SOL    HW1 2256   1.494   1.314   1.215
  707SOL    HW2 2257   1.630   1.341   1.155
  708SOL     OW 2258   2.337   0.633   2.160
  708SOL    HW1 2259   2.412   0.587   2.196
  708SOL    HW2 2260   2.323   0.706   2.220
  709SOL     OW 2261   3.479   1.781   1.967
  709SOL    HW1 2262   3.564   1.775   2.009
  709SOL    HW2 2263   3.477   1.867   1.926
  710SOL     OW 2264   0.687   2.470   0.716
  710SOL    HW1 2265   0.634   2.494   0.792
  710SOL    HW2 2266   0.762   2.529   0.719
  711SOL     OW 2267   2.945   2.148   1.371
  711SOL    HW1 2268   2.862   2.146   1.325
  711SOL    HW2 2269   2.923   2.174   1.461
  712SOL     OW 2270   3.241   3.501   2.152
  712SOL    HW1 2271   3.235   3.407   2.164
  712SOL    HW2 2272   3.150   3.531   2.143
  713SOL     OW 2273   2.139   2.204   1.410
  713SOL    HW1 2274   2.156   2.259   1.486
  713SOL    HW2 2275   2.068   2.146   1.438
  714SOL     OW 2276   3.235   3.065   1.802
  714SOL    HW1 2277   3.317   3.056   1.755
  714SOL    HW2 2278   3.174   3.101   1.738
  715SOL     OW 2279   1.106   1.715   2.730
  715SOL    HW1 2280   1.072   1.795   2.771
  715SOL    HW2 2281   1.200   1.728   2.727
  716SOL     OW 2282   0.683   3.177   3.236
  716SOL    HW1 2283   0.651   3.101   3.187
  716SOL    HW2 2284   0.746   3.218   3.178
  717SOL     OW 2285   1.646   1.190   0.627
  717SOL    HW1 2286   1.646   1.105   0.582
  717SOL    HW2 2287   1.554   1.207   0.647
  718SOL     OW 2288   0.452   3.402   0.620
  718SOL    HW1 2289   0.508   3.446   0.556
  718SOL    HW2 2290   0.427   3.319   0.578
  719SOL     OW 2291   0.089   1.407   2.571
  719SOL    HW1 2292   0.137   1.391   2.490
  719SOL    HW2 2293   0.104   1.500   2.590
  720SOL     OW 2294   3.227   2.971   1.437
  720SOL    HW1 2295   3.134   2.953   1.450
  720SOL    HW2 2296   3.233   3.066   1.444
  721SOL     OW 2297   0.606   2.779   0.482
  721SOL    HW1 2298   0.694   2.752   0.508
  721SOL    HW2 2299   0.558   2.786   0.565
  722SOL     OW 2300   1.113   0.438   3.309
  722SOL    HW1 2301   1.121   0.525   3.350
  722SOL    HW2 2302   1.030   0.442   3.262
  723SOL     OW 2303   3.442   1.767   1.415
  723SOL    HW1 2304   3.467   1.722   1.335
  723SOL    HW2 2305   3.524   1.773   1.465
  724SOL     OW 2306   1.418   0.595   1.829
  724SOL    HW1 2307   1.463   0.623   1.749
  724SOL    HW2 2308   1.355   0.665   1.847
  725SOL     OW 2309   1.480   1.658   1.564
  725SOL    HW1 2310   1.559   1.693   1.603
  725SOL    HW2 2311   1.499   1.655   1.470
  726SOL     OW 2312   0.573   1.929   2.638
  726SOL    HW1 2313   0.590   1.847   2.685
  726SOL    HW2 2314   0.488   1.915   2.596
  727SOL     OW 2315   0.499   1.446   2.776
  727SOL    HW1 2316   0.460   1.395   2.847
  727SOL    HW2 2317   0.536   1.381   2.717
  728SOL     OW 2318   2.993   3.601   0.147
  728SOL    HW1 2319   3.062   3.540   0.175
  728SOL    HW2 2320   2.934   3.606   0.222
  729SOL     OW 2321   2.444   3.733   2.084
  729SOL    HW1 2322   2.441   3.651   2.035
  729SOL    HW2 2323   2.450   3.801   2.017
  730SOL     OW 2324   1.565   3.061   3.276
  730SOL    HW1 2325   1.556   3.096   3.365
  730SOL    HW2 2326   1.551   3.137   3.219
  731SOL     OW 2327   1.008   0.181   3.904
  731SOL    HW1 2328   1.034   0.112   3.965
  731SOL    HW2 2329   1.030   0.262   3.949
  732SOL     OW 2330   3.492   0.439   3.002
  732SOL    HW1 2331   3.548   0.515   2.991
  732SOL    HW2 2332   3.525   0.375   2.939
  733SOL     OW 2333   1.814   3.622   1.846
  733SOL    HW1 2334   1.894   3.606   1.897
  733SOL    HW2 2335   1.747   3.570   1.889
  734SOL     OW 2336   0.864   1.808   3.759
  734SOL    HW1 2337   0.906   1.825   3.844
  734SOL    HW2 2338   0.819   1.725   3.771
  735SOL     OW 2339   3.184   3.497   0.774
  735SOL    HW1 2340   3.277   3.475   0.779
  735SOL    HW2 2341   3.139   3.413   0.787
  736SOL     OW 2342   2.476   2.545   2.430
  736SOL    HW1 2343   2.511   2.568   2.516
  736SOL    HW2 2344   2.541   2.579   2.368
  737SOL     OW 2345   3.323   2.575   2.114
  737SOL    HW1 2346   3.342   2.531   2.031
  737SOL    HW2 2347   3.388   2.644   2.120
  738SOL     OW 2348   1.368   0.457   2.364
  738SOL    HW1 2349   1.276   0.478   2.376
  738SOL    HW2 2350   1.396   0.420   2.448
  739SOL     OW 2351   0.905   1.347   0.332
  739SOL    HW1 2352   0.876   1.419   0.387
  739SOL    HW2 2353   0.967   1.299   0.387
  740SOL     OW 2354   1.547   0.754   1.229
  740SOL    HW1 2355   1.478   0.703   1.188
  740SOL    HW2 2356   1.615   0.690   1.250
  741SOL     OW 2357   1.180   3.156   0.209
  741SOL    HW1 2358   1.105   3.150   0.269
  741SOL    HW2 2359   1.211   3.246   0.218
  742SOL     OW 2360   2.388   1.476   0.211
  742SOL    HW1 2361   2.320   1.452   0.148
  742SOL    HW2 2362   2.380   1.571   0.220
  743SOL     OW 2363   3.719   1.595   1.964
  743SOL    HW1 2364   3.636   1.591   1.918
  743SOL    HW2 2365   3.717   1.522   2.026
  744SOL     OW 2366   0.001   1.857   3.474
  744SOL    HW1 2367  -0.061   1.803   3.425
  744SOL    HW2 2368   0.079   1.860   3.418
  745SOL     OW 2369   2.714   0.999   2.528
  745SOL    HW1 2370   2.804   0.967   2.515
  745SOL    HW2 2371   2.726   1.090   2.557
  746SOL     OW 2372   2.128   0.476   1.495
  746SOL    HW1 2373   2.173   0.419   1.433
  746SOL    HW2 2374   2.081   0.415   1.553
  747SOL     OW 2375   0.889   1.630   2.984
  747SOL    HW1 2376   0.963   1.576   3.013
  747SOL    HW2 2377   0.888   1.620   2.889
  748SOL     OW 2378   3.341   3.471   1.175
  748SOL    HW1 2379   3.424   3.459   1.222
  748SOL    HW2 2380   3.307   3.554   1.207
  749SOL     OW 2381   2.912   2.474   2.718
  749SOL    HW1 2382   2.934   2.398   2.663
  749SOL    HW2 2383   2.871   2.536   2.659
  750SOL     OW 2384   1.692   0.041   3.371
  750SOL    HW1 2385   1.736   0.101   3.432
  750SOL    HW2 2386   1.636   0.098   3.319
  751SOL     OW 2387   0.362   3.741   0.213
  751SOL    HW1 2388   0.273   3.716   0.188
  751SOL    HW2 2389   0.405   3.761   0.130
  752SOL     OW 2390   3.131   2.452   1.682
  752SOL    HW1 2391   3.181   2.385   1.635
  752SOL    HW2 2392   3.176   2.534   1.661
  753SOL     OW 2393   2.485   0.781   1.408
  753SOL    HW1 2394   2.575   0.770   1.377
  753SOL    HW2 2395   2.431   0.761   1.332
  754SOL     OW 2396   0.243   0.442   2.394
  754SOL    HW1 2397   0.305   0.399   2.453
  754SOL    HW2 2398   0.215   0.521   2.440
  755SOL     OW 2399   2.002   2.728   0.836
  755SOL    HW1 2400   1.979   2.690   0.921
  755SOL    HW2 2401   1.923   2.775   0.809
  756SOL     OW 2402   3.246   1.404   2.997
  756SOL    HW1 2403   3.182   1.357   3.051
  756SOL    HW2 2404   3.217   1.495   3.001
  757SOL     OW 2405   2.273   2.636   3.399
  757SOL    HW1 2406   2.233   2.550   3.413
  757SOL    HW2 2407   2.366   2.622   3.419
  758SOL     OW 2408   3.339   0.697   1.717
  758SOL    HW1 2409   3.373   0.616   1.677
  758SOL    HW2 2410   3.246   0.679   1.731
  759SOL     OW 2411   0.380   3.392   0.922
  759SOL    HW1 2412   0.461   3.356   0.959
  759SOL    HW2 2413   0.398   3.399   0.828
  760SOL     OW 2414   0.126   1.624   0.282
  760SOL    HW1 2415   0.087   1.700   0.324
  760SOL    HW2 2416   0.097   1.629   0.190
  761SOL     OW 2417   0.233   0.398   0.175
  761SOL    HW1 2418   0.260   0.330   0.114
  761SOL    HW2 2419   0.177   0.456   0.123
  762SOL     OW 2420   2.590   3.741   1.018
  762SOL    HW1 2421   2.517   3.798   0.996
  762SOL    HW2 2422   2.648   3.744   0.942
  763SOL     OW 2423   0.925   2.239   1.727
  763SOL    HW1 2424   0.969   2.206   1.805
  763SOL    HW2 2425   0.989   2.296   1.685
  764SOL     OW 2426   2.791   1.126   0.168
  764SOL    HW1 2427   2.765   1.204   0.217
  764SOL    HW2 2428   2.719   1.112   0.107
  765SOL     OW 2429   0.260   0.841   2.699
  765SOL    HW1 2430   0.350   0.850   2.729
  765SOL    HW2 2431   0.226   0.930   2.696
  766SOL     OW 2432   3.174   1.660   2.895
  766SOL    HW1 2433   3.135   1.692   2.976
  766SOL    HW2 2434   3.127   1.707   2.826
  767SOL     OW 2435   3.390   1.152   1.059
  767SOL    HW1 2436   3.405   1.245   1.044
  767SOL    HW2 2437   3.418   1.110   0.978
  768SOL     OW 2438   1.065   3.106   3.178
  768SOL    HW1 2439   1.016   3.170   3.126
  768SOL    HW2 2440   0.998   3.049   3.216
  769SOL     OW 2441   2.435   1.288   3.594
  769SOL    HW1 2442   2.446   1.340   3.674
  769SOL    HW2 2443   2.522   1.252   3.577
  770SOL     OW 2444   2.801   3.503   0.767
  770SOL    HW1 2445   2.788   3.420   0.721
  770SOL    HW2 2446   2.888   3.533   0.738
  771SOL     OW 2447   2.951   2.632   0.584
  771SOL    HW1 2448   2.950   2.727   0.572
  771SOL    HW2 2449   3.040   2.606   0.558
  772SOL     OW 2450   1.996   1.741   1.641
  772SOL    HW1 2451   1.903   1.749   1.659
  772SOL    HW2 2452   2.034   1.715   1.725
  773SOL     OW 2453   0.305   2.922   0.360
  773SOL    HW1 2454   0.338   2.872   0.285
  773SOL    HW2 2455   0.213   2.939   0.339
  774SOL     OW 2456   3.018   3.962   0.580
  774SOL    HW1 2457   2.984   3.999   0.499
  774SOL    HW2 2458   3.087   3.903   0.552
  775SOL     OW 2459   0.575   0.187   0.542
  775SOL    HW1 2460   0.536   0.127   0.479
  775SOL    HW2 2461   0.551   0.274   0.510
  776SOL     OW 2462   2.019   1.055   2.152
  776SOL    HW1 2463   2.018   1.065   2.247
  776SOL    HW2 2464   2.005   0.961   2.138
  777SOL     OW 2465   0.803   3.332   3.743
  777SOL    HW1 2466   0.853   3.358   3.821
  777SOL    HW2 2467   0.849   3.255   3.710
  778SOL     OW 2468   2.366   1.949   0.517
  778SOL    HW1 2469   2.280   1.929   0.481
  778SOL    HW2 2470   2.406   2.008   0.453
  779SOL     OW 2471   1.807   3.240   1.580
  779SOL    HW1 2472   1.762   3.310   1.532
  779SOL    HW2 2473   1.759   3.234   1.663
  780SOL     OW 2474   1.114   2.096   1.518
  780SOL    HW1 2475   1.134   2.092   1.612
  780SOL    HW2 2476   1.189   2.140   1.480
  781SOL     OW 2477   2.301   2.138   0.715
  781SOL    HW1 2478   2.248   2.070   0.673
  781SOL    HW2 2479   2.391   2.119   0.687
  782SOL     OW 2480   0.523   2.401   3.190
  782SOL    HW1 2481   0.568   2.482   3.166
  782SOL    HW2 2482   0.451   2.394   3.127
  783SOL     OW 2483   3.830   2.690   1.630
  783SOL    HW1 2484   3.796   2.621   1.573
  783SOL    HW2 2485   3.753   2.740   1.657
  784SOL     OW 2486   2.163   2.004   0.063
  784SOL    HW1 2487   2.205   2.088   0.044
  784SOL    HW2 2488   2.071   2.018   0.041
  785SOL     OW 2489   3.302   1.546   0.491
  785SOL    HW1 2490   3.308   1.629   0.538
  785SOL    HW2 2491   3.390   1.533   0.454
  786SOL     OW 2492   1.845   0.783   0.924
  786SOL    HW1 2493   1.924   0.762   0.874
  786SOL    HW2 2494   1.842   0.879   0.926
  787SOL     OW 2495   3.038   0.413   1.344
  787SOL    HW1 2496   3.127   0.386   1.363
  787SOL    HW2 2497   3.007   0.351   1.278
  788SOL     OW 2498   2.762   1.976   3.736
  788SOL    HW1 2499   2.809   1.986   3.653
  788SOL    HW2 2500   2.739   1.884   3.740
  789SOL     OW 2501   2.563   0.621   0.839
  789SOL    HW1 2502   2.624   0.680   0.884
  789SOL    HW2 2503   2.527   0.673   0.768
  790SOL     OW 2504   1.035   0.680   1.161
  790SOL    HW1 2505   0.940   0.678   1.172
  790SOL    HW2 2506   1.060   0.589   1.146
  791SOL     OW 2507   2.276   0.077   3.067
  791SOL    HW1 2508   2.282   0.001   3.009
  791SOL    HW2 2509   2.357   0.125   3.052
  792SOL     OW 2510   1.892   1.573   2.238
  792SOL    HW1 2511   1.813   1.520   2.228
  792SOL    HW2 2512   1.939   1.532   2.311
  793SOL     OW 2513   3.420   2.355   2.548
  793SOL    HW1 2514   3.469   2.436   2.559
  793SOL    HW2 2515   3.455   2.316   2.467
  794SOL     OW 2516   3.042   2.185   2.169
  794SOL    HW1 2517   3.048   2.280   2.182
  794SOL    HW2 2518   2.950   2.170   2.144
  795SOL     OW 2519   1.497   1.500   2.379
  795SOL    HW1 2520   1.492   1.405   2.392
  795SOL    HW2 2521   1.489   1.536   2.468
  796SOL     OW 2522   0.764   0.638   3.005
  796SOL    HW1 2523   0.669   0.642   3.014
  796SOL    HW2 2524   0.794   0.727   3.027
  797SOL     OW 2525   1.647   1.217   0.224
  797SOL    HW1 2526   1.621   1.216   0.316
  797SOL    HW2 2527   1.565   1.205   0.176
  798SOL     OW 2528   0.877   0.594   0.038
  798SOL    HW1 2529   0.812   0.663   0.053
  798SOL    HW2 2530   0.830   0.513   0.056
  799SOL     OW 2531   3.680   1.430   2.207
  799SOL    HW1 2532   3.713   1.414   2.296
  799SOL    HW2 2533   3.634   1.350   2.183
  800SOL     OW 2534   3.481   3.013   2.773
  800SOL    HW1 2535   3.481   2.947   2.843
  800SOL    HW2 2536   3.482   3.097   2.820
  801SOL     OW 2537   2.224   2.320   3.118
  801SOL    HW1 2538   2.210   2.329   3.212
  801SOL    HW2 2539   2.145   2.276   3.087
  802SOL     OW 2540   1.924   1.840   3.158
  802SOL    HW1 2541   1.995   1.879   3.209
  802SOL    HW2 2542   1.930   1.746   3.176
  803SOL     OW 2543   1.677   0.351   0.883
  803SOL    HW1 2544   1.702   0.393   0.800
  803SOL    HW2 2545   1.686   0.420   0.949
  804SOL     OW 2546   1.760   3.573   2.819
  804SOL    HW1 2547   1.684   3.626   2.841
  804SOL    HW2 2548   1.757   3.564   2.724
  805SOL     OW 2549   2.662   0.976   1.971
  805SOL    HW1 2550   2.707   1.061   1.971
  805SOL    HW2 2551   2.613   0.975   2.053
  806SOL     OW 2552   2.337   3.826   0.610
  806SOL    HW1 2553   2.396   3.892   0.573
  806SOL    HW2 2554   2.319   3.858   0.699
  807SOL     OW 2555   0.853   1.665   2.089
  807SOL    HW1 2556   0.856   1.623   2.175
  807SOL    HW2 2557   0.865   1.593   2.027
  808SOL     OW 2558   3.733   3.869   1.946
  808SOL    HW1 2559   3.722   3.881   2.040
  808SOL    HW2 2560   3.643   3.866   1.912
  809SOL     OW 2561   3.860   2.228   2.211
  809SOL    HW1 2562   3.882   2.137   2.228
  809SOL    HW2 2563   3.769   2.236   2.240
  810SOL     OW 2564   1.079   3.624   0.269
  810SOL    HW1 2565   1.122   3.673   0.199
  810SOL    HW2 2566   1.062   3.689   0.337
  811SOL     OW 2567   2.280   1.414   1.596
  811SOL    HW1 2568   2.205   1.388   1.542
  811SOL    HW2 2569   2.323   1.482   1.545
  812SOL     OW 2570   1.214  -0.007   3.796
  812SOL    HW1 2571   1.148   0.061   3.781
  812SOL    HW2 2572   1.295   0.042   3.809
  813SOL     OW 2573   2.778   0.618   3.445
  813SOL    HW1 2574   2.693   0.611   3.402
  813SOL    HW2 2575   2.770   0.563   3.522
  814SOL     OW 2576   1.628   1.833   1.875
  814SOL    HW1 2577   1.646   1.745   1.909
  814SOL    HW2 2578   1.571   1.873   1.940
  815SOL     OW 2579   1.793   1.465   2.747
  815SOL    HW1 2580   1.856   1.481   2.817
  815SOL    HW2 2581   1.778   1.370   2.749
  816SOL     OW 2582   0.696   3.413   0.261
  816SOL    HW1 2583   0.725   3.475   0.194
  816SOL    HW2 2584   0.730   3.328   0.232
  817SOL     OW 2585   2.021   3.318   3.522
  817SOL    HW1 2586   1.950   3.281   3.574
  817SOL    HW2 2587   1.989   3.404   3.495
  818SOL     OW 2588   3.091   3.094   3.318
  818SOL    HW1 2589   3.170   3.135   3.352
  818SOL    HW2 2590   3.020   3.154   3.343
  819SOL     OW 2591   0.228   1.398   2.338
  819SOL    HW1 2592   0.295   1.459   2.306
  819SOL    HW2 2593   0.171   1.383   2.262
  820SOL     OW 2594   1.239   1.497   1.078
  820SOL    HW1 2595   1.153   1.495   1.035
  820SOL    HW2 2596   1.226   1.452   1.161
  821SOL     OW 2597   0.330   1.863   1.746
  821SOL    HW1 2598   0.388   1.928   1.707
  821SOL    HW2 2599   0.290   1.819   1.671
  822SOL     OW 2600   2.547   2.971   2.008
  822SOL    HW1 2601   2.616   3.015   2.057
  822SOL    HW2 2602   2.466   3.000   2.050
  823SOL     OW 2603   1.950   3.723   3.195
  823SOL    HW1 2604   1.998   3.692   3.119
  823SOL    HW2 2605   1.995   3.682   3.270
  824SOL     OW 2606   2.831   1.814   0.405
  824SOL    HW1 2607   2.824   1.720   0.421
  824SOL    HW2 2608   2.873   1.820   0.319
  825SOL     OW 2609   3.819   3.474   0.703
  825SOL    HW1 2610   3.896   3.488   0.758
  825SOL    HW2 2611   3.820   3.548   0.642
  826SOL     OW 2612   3.473   0.689   1.331
  826SOL    HW1 2613   3.522   0.755   1.282
  826SOL    HW2 2614   3.531   0.667   1.404
  827SOL     OW 2615   1.040   1.430   3.185
  827SOL    HW1 2616   1.088   1.496   3.135
  827SOL    HW2 2617   1.104   1.396   3.248
  828SOL     OW 2618   3.615   0.890   0.835
  828SOL    HW1 2619   3.570   0.974   0.831
  828SOL    HW2 2620   3.550   0.826   0.807
  829SOL     OW 2621   0.543   3.849   1.988
  829SOL    HW1 2622   0.547   3.907   2.064
  829SOL    HW2 2623   0.616   3.788   2.000
  830SOL     OW 2624   2.904   2.997   0.345
  830SOL    HW1 2625   2.817   3.033   0.364
  830SOL    HW2 2626   2.941   2.978   0.431
  831SOL     OW 2627   2.931   1.546   0.890
  831SOL    HW1 2628   3.004   1.557   0.950
  831SOL    HW2 2629   2.958   1.475   0.831
  832SOL     OW 2630   1.502   3.634   3.020
  832SOL    HW1 2631   1.502   3.544   2.987
  832SOL    HW2 2632   1.434   3.678   2.968
  833SOL     OW 2633   0.842   3.433   0.875
  833SOL    HW1 2634   0.900   3.500   0.838
  833SOL    HW2 2635   0.787   3.405   0.802
  834SOL     OW 2636   1.834   1.204   2.867
  834SOL    HW1 2637   1.886   1.124   2.856
  834SOL    HW2 2638   1.744   1.177   2.849
  835SOL     OW 2639   0.014   3.125   0.064
  835SOL    HW1 2640  -0.075   3.092   0.053
  835SOL    HW2 2641   0.065   3.050   0.094
  836SOL     OW 2642   2.703   3.882   2.555
  836SOL    HW1 2643   2.669   3.890   2.466
  836SOL    HW2 2644   2.793   3.851   2.544
  837SOL     OW 2645  -0.008   2.874   1.022
  837SOL    HW1 2646   0.064   2.892   1.082
  837SOL    HW2 2647   0.011   2.787   0.987
  838SOL     OW 2648   0.490   2.703   3.251
  838SOL    HW1 2649   0.453   2.788   3.227
  838SOL    HW2 2650   0.531   2.718   3.336
  839SOL     OW 2651   2.527   3.031   0.963
  839SOL    HW1 2652   2.562   3.023   1.052
  839SOL    HW2 2653   2.523   2.941   0.931
  840SOL     OW 2654   1.614   0.642   0.590
  840SOL    HW1 2655   1.694   0.636   0.642
  840SOL    HW2 2656   1.604   0.555   0.551
  841SOL     OW 2657   0.440   3.631   2.598
  841SOL    HW1 2658   0.532   3.604   2.592
  841SOL    HW2 2659   0.393   3.565   2.547
  842SOL     OW 2660   2.795   3.394   1.981
  842SOL    HW1 2661   2.771   3.319   2.034
  842SOL    HW2 2662   2.714   3.419   1.936
  843SOL     OW 2663   2.929   0.944   1.668
  843SOL    HW1 2664   2.903   1.010   1.603
  843SOL    HW2 2665   2.980   0.880   1.618
  844SOL     OW 2666   0.294   1.217   1.014
  844SOL    HW1 2667   0.371   1.269   1.036
  844SOL    HW2 2668   0.295   1.145   1.077
  845SOL     OW 2669   0.789   2.229   0.608
  845SOL    HW1 2670   0.747   2.305   0.649
  845SOL    HW2 2671   0.804   2.168   0.680
  846SOL     OW 2672   3.429   2.523   1.270
  846SOL    HW1 2673   3.370   2.514   1.196
  846SOL    HW2 2674   3.440   2.617   1.281
  847SOL     OW 2675   2.836   2.792   2.105
  847SOL    HW1 2676   2.888   2.770   2.182
  847SOL    HW2 2677   2.898   2.835   2.046
  848SOL     OW 2678   3.125   2.927   3.073
  848SOL    HW1 2679   3.113   2.994   3.140
  848SOL    HW2 2680   3.108   2.844   3.119
  849SOL     OW 2681   0.866   3.068   3.412
  849SOL    HW1 2682   0.775   3.088   3.388
  849SOL    HW2 2683   0.881   3.120   3.492
  850SOL     OW 2684   2.370   2.290   2.679
  850SOL    HW1 2685   2.376   2.381   2.709
  850SOL    HW2 2686   2.381   2.296   2.584
  851SOL     OW 2687   3.332   2.601   3.759
  851SOL    HW1 2688   3.371   2.686   3.781
  851SOL    HW2 2689   3.394   2.536   3.793
  852SOL     OW 2690   0.650   3.615   3.375
  852SOL    HW1 2691   0.599   3.681   3.328
  852SOL    HW2 2692   0.697   3.665   3.442
  853SOL     OW 2693   3.064   0.123   2.998
  853SOL    HW1 2694   3.131   0.189   2.979
  853SOL    HW2 2695   3.042   0.085   2.912
  854SOL     OW 2696   3.371   0.983   2.457
  854SOL    HW1 2697   3.456   0.960   2.418
  854SOL    HW2 2698   3.341   0.902   2.498
  855SOL     OW 2699   3.024   3.630   1.079
  855SOL    HW1 2700   3.086   3.566   1.046
  855SOL    HW2 2701   2.994   3.677   1.001
  856SOL     OW 2702   0.728   2.282   2.870
  856SOL    HW1 2703   0.776   2.236   2.801
  856SOL    HW2 2704   0.720   2.218   2.940
  857SOL     OW 2705   0.480   2.797   1.923
  857SOL    HW1 2706   0.391   2.830   1.915
  857SOL    HW2 2707   0.474   2.726   1.987
  858SOL     OW 2708   2.154   0.586   2.543
  858SOL    HW1 2709   2.138   0.546   2.458
  858SOL    HW2 2710   2.210   0.661   2.525
  859SOL     OW 2711   3.010   3.466   1.705
  859SOL    HW1 2712   2.960   3.395   1.663
  859SOL    HW2 2713   2.965   3.480   1.789
  860SOL     OW 2714   2.872   0.353   0.540
  860SOL    HW1 2715   2.845   0.287   0.603
  860SOL    HW2 2716   2.928   0.412   0.590
  861SOL     OW 2717   2.234   0.836   0.192
  861SOL    HW1 2718   2.251   0.760   0.136
  861SOL    HW2 2719   2.153   0.873   0.158
  862SOL     OW 2720   3.311   0.284   0.626
  862SOL    HW1 2721   3.386   0.338   0.652
  862SOL    HW2 2722   3.350   0.201   0.598
  863SOL     OW 2723   1.573   1.910   2.780
  863SOL    HW1 2724   1.575   1.963   2.700
  863SOL    HW2 2725   1.663   1.881   2.792
  864SOL     OW 2726   2.533   1.697   2.348
  864SOL    HW1 2727   2.561   1.743   2.269
  864SOL    HW2 2728   2.472   1.631   2.318
  865SOL     OW 2729   2.056   1.347   1.447
  865SOL    HW1 2730   1.987   1.412   1.460
  865SOL    HW2 2731   2.096   1.371   1.363
  866SOL     OW 2732   0.977   1.251   2.383
  866SOL    HW1 2733   0.926   1.325   2.348
  866SOL    HW2 2734   1.013   1.284   2.465
  867SOL     OW 2735   3.749   1.274   1.826
  867SOL    HW1 2736   3.681   1.332   1.792
  867SOL    HW2 2737   3.828   1.299   1.779
  868SOL     OW 2738   2.254   2.555   2.849
  868SOL    HW1 2739   2.166   2.579   2.878
  868SOL    HW2 2740   2.291   2.504   2.921
  869SOL     OW 2741   1.825   1.239   1.637
  869SOL    HW1 2742   1.780   1.323   1.632
  869SOL    HW2 2743   1.917   1.260   1.620
  870SOL     OW 2744   1.938   2.401   3.747
  870SOL    HW1 2745   1.929   2.360   3.662
  870SOL    HW2 2746   2.021   2.449   3.743
  871SOL     OW 2747   0.815   0.591   2.082
  871SOL    HW1 2748   0.727   0.555   2.073
  871SOL    HW2 2749   0.818   0.623   2.173
  872SOL     OW 2750   2.093   1.268   0.410
  872SOL    HW1 2751   2.087   1.319   0.329
  872SOL    HW2 2752   2.031   1.310   0.470
  873SOL     OW 2753   0.095   2.352   3.588
  873SOL    HW1 2754   0.176   2.327   3.634
  873SOL    HW2 2755   0.120   2.355   3.496
  874SOL     OW 2756   0.394   1.282   1.377
  874SOL    HW1 2757   0.377   1.208   1.320
  874SOL    HW2 2758   0.436   1.347   1.321
  875SOL     OW 2759   3.251   2.110   1.984
  875SOL    HW1 2760   3.190   2.178   1.957
  875SOL    HW2 2761   3.209   2.069   2.061
  876SOL     OW 2762   3.341   2.090   3.375
  876SOL    HW1 2763   3.336   2.122   3.284
  876SOL    HW2 2764   3.396   2.012   3.370
  877SOL     OW 2765   0.305   1.657   1.138
  877SOL    HW1 2766   0.359   1.605   1.198
  877SOL    HW2 2767   0.312   1.611   1.054
  878SOL     OW 2768   3.195   1.979   0.199
  878SOL    HW1 2769   3.182   1.892   0.238
  878SOL    HW2 2770   3.178   1.965   0.105
  879SOL     OW 2771   3.672   2.568   3.892
  879SOL    HW1 2772   3.761   2.534   3.885
  879SOL    HW2 2773   3.617   2.498   3.860
  880SOL     OW 2774   2.813   0.671   1.027
  880SOL    HW1 2775   2.830   0.592   0.975
  880SOL    HW2 2776   2.897   0.689   1.071
  881SOL     OW 2777   3.684   2.794   1.010
  881SOL    HW1 2778   3.622   2.863   0.985
  881SOL    HW2 2779   3.770   2.837   1.007
  882SOL     OW 2780   1.831   0.483   1.071
  882SOL    HW1 2781   1.861   0.549   1.010
  882SOL    HW2 2782   1.831   0.527   1.156
  883SOL     OW 2783   3.433   1.904   2.847
  883SOL    HW1 2784   3.413   1.813   2.869
  883SOL    HW2 2785   3.386   1.920   2.765
  884SOL     OW 2786   3.521   2.792   0.569
  884SOL    HW1 2787   3.548   2.700   0.572
  884SOL    HW2 2788   3.532   2.817   0.478
  885SOL     OW 2789   2.461   0.155   3.450
  885SOL    HW1 2790   2.534   0.132   3.507
  885SOL    HW2 2791   2.489   0.130   3.362
  886SOL     OW 2792   1.548   3.126   3.549
  886SOL    HW1 2793   1.520   3.212   3.518
  886SOL    HW2 2794   1.468   3.086   3.584
  887SOL     OW 2795   2.770   1.211   1.984
  887SOL    HW1 2796   2.712   1.246   2.052
  887SOL    HW2 2797   2.846   1.270   1.985
  888SOL     OW 2798   0.371   3.274   3.651
  888SOL    HW1 2799   0.351   3.183   3.670
  888SOL    HW2 2800   0.466   3.278   3.651
  889SOL     OW 2801   3.838   1.828   2.522
  889SOL    HW1 2802   3.778   1.900   2.544
  889SOL    HW2 2803   3.806   1.754   2.574
  890SOL     OW 2804   3.245   0.193   0.073
  890SOL    HW1 2805   3.328   0.227   0.108
  890SOL    HW2 2806   3.209   0.266   0.023
  891SOL     OW 2807   3.897   3.548   3.749
  891SOL    HW1 2808   3.991   3.534   3.735
  891SOL    HW2 2809   3.883   3.524   3.841
  892SOL     OW 2810   3.801   3.471   3.157
  892SOL    HW1 2811   3.878   3.451   3.210
  892SOL    HW2 2812   3.809   3.415   3.080
  893SOL     OW 2813   0.649   1.715   2.771
  893SOL    HW1 2814   0.609   1.732   2.856
  893SOL    HW2 2815   0.635   1.621   2.756
  894SOL     OW 2816   2.121   1.810   0.893
  894SOL    HW1 2817   2.141   1.890   0.942
  894SOL    HW2 2818   2.027   1.797   0.907
  895SOL     OW 2819   2.239   2.994   1.269
  895SOL    HW1 2820   2.265   2.927   1.206
  895SOL    HW2 2821   2.145   3.005   1.255
  896SOL     OW 2822   3.464   3.525   1.980
  896SOL    HW1 2823   3.406   3.497   2.051
  896SOL    HW2 2824   3.552   3.518   2.017
  897SOL     OW 2825   3.356   0.953   1.297
  897SOL    HW1 2826   3.331   0.937   1.206
  897SOL    HW2 2827   3.407   0.876   1.322
  898SOL     OW 2828   0.742   2.540   3.021
  898SOL    HW1 2829   0.834   2.553   3.044
  898SOL    HW2 2830   0.743   2.469   2.957
  899SOL     OW 2831   3.521   3.542   2.708
  899SOL    HW1 2832   3.435   3.585   2.704
  899SOL    HW2 2833   3.572   3.583   2.639
  900SOL     OW 2834   2.765   1.715   2.793
  900SOL    HW1 2835   2.827   1.659   2.839
  900SOL    HW2 2836   2.682   1.668   2.798
  901SOL     OW 2837   2.045   2.400   1.981
  901SOL    HW1 2838   2.139   2.384   1.985
  901SOL    HW2 2839   2.010   2.358   2.060
  902SOL     OW 2840   3.498   2.163   3.025
  902SOL    HW1 2841   3.524   2.079   3.064
  902SOL    HW2 2842   3.429   2.140   2.963
  903SOL     OW 2843   3.949   2.926   3.334
  903SOL    HW1 2844   3.966   3.020   3.338
  903SOL    HW2 2845   3.861   2.916   3.370
  904SOL     OW 2846   3.569   1.480   1.670
  904SOL    HW1 2847   3.601   1.469   1.580
  904SOL    HW2 2848   3.496   1.542   1.662
  905SOL     OW 2849   1.148   0.240   2.339
  905SOL    HW1 2850   1.155   0.256   2.245
  905SOL    HW2 2851   1.114   0.322   2.375
  906SOL     OW 2852   0.505   0.864   3.305
  906SOL    HW1 2853   0.540   0.872   3.394
  906SOL    HW2 2854   0.435   0.930   3.301
  907SOL     OW 2855   3.811   3.383   2.888
  907SOL    HW1 2856   3.886   3.437   2.864
  907SOL    HW2 2857   3.738   3.445   2.894
  908SOL     OW 2858   3.794   3.611   1.863
  908SOL    HW1 2859   3.793   3.701   1.895
  908SOL    HW2 2860   3.732   3.611   1.790
  909SOL     OW 2861   2.736   2.072   2.806
  909SOL    HW1 2862   2.670   2.027   2.859
  909SOL    HW2 2863   2.755   2.152   2.855
  910SOL     OW 2864   2.960   0.589   3.223
  910SOL    HW1 2865   2.973   0.498   3.249
  910SOL    HW2 2866   2.881   0.616   3.269
  911SOL     OW 2867   0.924   3.592   3.255
  911SOL    HW1 2868   0.844   3.579   3.307
  911SOL    HW2 2869   0.990   3.538   3.298
  912SOL     OW 2870   0.586   1.304   0.820
  912SOL    HW1 2871   0.504   1.318   0.773
  912SOL    HW2 2872   0.563   1.316   0.912
  913SOL     OW 2873   2.340   2.938   3.396
  913SOL    HW1 2874   2.354   2.844   3.404
  913SOL    HW2 2875   2.270   2.957   3.458
  914SOL     OW 2876   0.839   1.106   0.103
  914SOL    HW1 2877   0.760   1.077   0.149
  914SOL    HW2 2878   0.863   1.188   0.146
  915SOL     OW 2879   2.220   1.400   3.925
  915SOL    HW1 2880   2.314   1.419   3.918
  915SOL    HW2 2881   2.178   1.469   3.874
  916SOL     OW 2882   2.002   2.671   1.998
  916SOL    HW1 2883   2.001   2.575   1.999
  916SOL    HW2 2884   2.038   2.695   2.083
  917SOL     OW 2885   3.801   1.422   0.358
  917SOL    HW1 2886   3.859   1.479   0.409
  917SOL    HW2 2887   3.842   1.419   0.271
  918SOL     OW 2888   3.750   2.590   3.138
  918SOL    HW1 2889   3.731   2.624   3.050
  918SOL    HW2 2890   3.679   2.528   3.155
  919SOL     OW 2891   1.066   0.696   3.032
  919SOL    HW1 2892   1.018   0.613   3.027
  919SOL    HW2 2893   1.047   0.739   2.949
  920SOL     OW 2894   3.634   0.773   2.241
  920SOL    HW1 2895   3.628   0.693   2.190
  920SOL    HW2 2896   3.653   0.842   2.177
  921SOL     OW 2897   2.844   3.826   2.201
  921SOL    HW1 2898   2.757   3.820   2.240
  921SOL    HW2 2899   2.900   3.861   2.271
  922SOL     OW 2900   3.464   0.290   3.552
  922SOL    HW1 2901   3.424   0.355   3.610
  922SOL    HW2 2902   3.454   0.327   3.465
  923SOL     OW 2903   3.367   2.909   3.641
  923SOL    HW1 2904   3.298   2.962   3.683
  923SOL    HW2 2905   3.433   2.898   3.709
  924SOL     OW 2906   2.429   3.040   3.841
  924SOL    HW1 2907   2.343   3.079   3.827
  924SOL    HW2 2908   2.490   3.113   3.838
  925SOL     OW 2909   1.232   1.045   0.533
  925SOL    HW1 2910   1.259   0.974   0.591
  925SOL    HW2 2911   1.139   1.029   0.516
  926SOL     OW 2912   1.073   1.458   2.594
  926SOL    HW1 2913   1.137   1.391   2.618
  926SOL    HW2 2914   1.079   1.523   2.664
  927SOL     OW 2915   1.215   0.650   2.151
  927SOL    HW1 2916   1.241   0.729   2.103
  927SOL    HW2 2917   1.175   0.594   2.085
  928SOL     OW 2918   3.856   3.030   0.575
  928SOL    HW1 2919   3.839   3.109   0.522
  928SOL    HW2 2920   3.856   2.959   0.511
  929SOL     OW 2921   1.785   2.847   3.881
  929SOL    HW1 2922   1.715   2.909   3.903
  929SOL    HW2 2923   1.782   2.841   3.785
  930SOL     OW 2924   2.864   3.681   0.388
  930SOL    HW1 2925   2.927   3.690   0.459
  930SOL    HW2 2926   2.795   3.745   0.408
  931SOL     OW 2927   0.253   3.748   2.027
  931SOL    HW1 2928   0.291   3.820   1.977
  931SOL    HW2 2929   0.308   3.672   2.008
  932SOL     OW 2930   3.816   1.901   3.901
  932SOL    HW1 2931   3.757   1.845   3.952
  932SOL    HW2 2932   3.838   1.972   3.961
  933SOL     OW 2933   0.833   2.689   2.663
  933SOL    HW1 2934   0.857   2.596   2.673
  933SOL    HW2 2935   0.864   2.712   2.575
  934SOL     OW 2936   2.479   0.086   0.481
  934SOL    HW1 2937   2.458   0.166   0.529
  934SOL    HW2 2938   2.420   0.086   0.406
  935SOL     OW 2939   2.626   0.123   3.226
  935SOL    HW1 2940   2.714   0.126   3.264
  935SOL    HW2 2941   2.628   0.046   3.170
  936SOL     OW 2942   0.253   2.832   2.911
  936SOL    HW1 2943   0.296   2.749   2.929
  936SOL    HW2 2944   0.165   2.808   2.881
  937SOL     OW 2945   1.296   2.627   0.958
  937SOL    HW1 2946   1.341   2.673   0.887
  937SOL    HW2 2947   1.363   2.614   1.025
  938SOL     OW 2948   0.699   2.779   3.532
  938SOL    HW1 2949   0.740   2.743   3.453
  938SOL    HW2 2950   0.703   2.874   3.520
  939SOL     OW 2951   1.115   0.338   1.737
  939SOL    HW1 2952   1.099   0.247   1.711
  939SOL    HW2 2953   1.148   0.331   1.827
  940SOL     OW 2954   3.768   0.021   3.378
  940SOL    HW1 2955   3.728   0.013   3.292
  940SOL    HW2 2956   3.694   0.032   3.438
  941SOL     OW 2957   3.117   1.492   1.088
  941SOL    HW1 2958   3.102   1.406   1.050
  941SOL    HW2 2959   3.120   1.478   1.182
  942SOL     OW 2960   0.621   1.721   0.164
  942SOL    HW1 2961   0.657   1.803   0.199
  942SOL    HW2 2962   0.663   1.653   0.217
  943SOL     OW 2963   0.851   3.103   0.161
  943SOL    HW1 2964   0.763   3.071   0.180
  943SOL    HW2 2965   0.893   3.110   0.246
  944SOL     OW 2966   3.865   1.668   1.641
  944SOL    HW1 2967   3.833   1.582   1.669
  944SOL    HW2 2968   3.840   1.727   1.711
  945SOL     OW 2969   1.980   2.257   2.239
  945SOL    HW1 2970   1.959   2.304   2.320
  945SOL    HW2 2971   2.056   2.204   2.260
  946SOL     OW 2972   3.334   0.335   1.350
  946SOL    HW1 2973   3.321   0.265   1.286
  946SOL    HW2 2974   3.419   0.372   1.329
  947SOL     OW 2975   3.196   1.456   3.394
  947SOL    HW1 2976   3.226   1.440   3.483
  947SOL    HW2 2977   3.275   1.479   3.345
  948SOL     OW 2978   2.435   0.396   2.587
  948SOL    HW1 2979   2.414   0.448   2.664
  948SOL    HW2 2980   2.351   0.370   2.550
  949SOL     OW 2981   2.191   2.822   3.818
  949SOL    HW1 2982   2.159   2.812   3.908
  949SOL    HW2 2983   2.286   2.826   3.827
  950SOL     OW 2984   2.294   0.213   2.219
  950SOL    HW1 2985   2.367   0.244   2.166
  950SOL    HW2 2986   2.217   0.226   2.162
  951SOL     OW 2987   2.127   0.121   1.860
  951SOL    HW1 2988   2.036   0.092   1.856
  951SOL    HW2 2989   2.127   0.207   1.817
  952SOL     OW 2990   2.071   3.478   0.695
  952SOL    HW1 2991   2.006   3.548   0.705
  952SOL    HW2 2992   2.056   3.444   0.607
  953SOL     OW 2993   0.886   1.898   2.331
  953SOL    HW1 2994   0.943   1.847   2.274
  953SOL    HW2 2995   0.847   1.834   2.390
  954SOL     OW 2996   1.902   3.553   3.454
  954SOL    HW1 2997   1.943   3.638   3.470
  954SOL    HW2 2998   1.826   3.552   3.512
  955SOL     OW 2999   2.423   2.537   2.134
  955SOL    HW1 3000   2.507   2.581   2.123
  955SOL    HW2 3001   2.444   2.443   2.132
  956SOL     OW 3002   0.055   3.560   2.908
  956SOL    HW1 3003   0.050   3.639   2.854
  956SOL    HW2 3004   0.149   3.551   2.929
  957SOL     OW 3005   2.565   0.789   2.645
  957SOL    HW1 3006   2.593   0.874   2.610
  957SOL    HW2 3007   2.644   0.736   2.647
  958SOL     OW 3008   3.722   0.023   2.873
  958SOL    HW1 3009   3.648  -0.008   2.926
  958SOL    HW2 3010   3.777   0.072   2.935
  959SOL     OW 3011   2.038  -0.001   3.593
  959SOL    HW1 3012   1.959   0.040   3.558
  959SOL    HW2 3013   2.091  -0.021   3.515
  960SOL     OW 3014   2.860   2.510   0.805
  960SOL    HW1 3015   2.901   2.423   0.803
  960SOL    HW2 3016   2.880   2.548   0.720
  961SOL     OW 3017   2.480   3.329   0.310
  961SOL    HW1 3018   2.454   3.419   0.331
  961SOL    HW2 3019   2.424   3.304   0.237
  962SOL     OW 3020   0.014   1.650   1.044
  962SOL    HW1 3021   0.105   1.626   1.057
  962SOL    HW2 3022   0.004   1.735   1.088
  963SOL     OW 3023   2.382   0.610   2.748
  963SOL    HW1 3024   2.437   0.679   2.712
  963SOL    HW2 3025   2.293   0.634   2.720
  964SOL     OW 3026  -0.014   0.095   0.116
  964SOL    HW1 3027   0.023   0.111   0.202
  964SOL    HW2 3028   0.058   0.056   0.066
  965SOL     OW 3029   3.014   3.077   2.267
  965SOL    HW1 3030   3.084   3.012   2.274
  965SOL    HW2 3031   3.025   3.132   2.345
  966SOL     OW 3032   0.491   0.093   2.206
  966SOL    HW1 3033   0.422   0.040   2.248
  966SOL    HW2 3034   0.444   0.164   2.163
  967SOL     OW 3035   1.402   2.231   2.865
  967SOL    HW1 3036   1.464   2.241   2.793
  967SOL    HW2 3037   1.407   2.138   2.888
  968SOL     OW 3038   1.836   2.261   3.063
  968SOL    HW1 3039   1.863   2.333   3.120
  968SOL    HW2 3040   1.915   2.210   3.048
  969SOL     OW 3041   2.619   2.827   1.523
  969SOL    HW1 3042   2.544   2.778   1.557
  969SOL    HW2 3043   2.693   2.766   1.529
  970SOL     OW 3044   2.486   0.598   0.224
  970SOL    HW1 3045   2.430   0.613   0.147
  970SOL    HW2 3046   2.526   0.512   0.208
  971SOL     OW 3047   1.609   0.424   1.969
  971SOL    HW1 3048   1.532   0.441   1.915
  971SOL    HW2 3049   1.593   0.475   2.049
  972SOL     OW 3050   2.101   0.697   2.987
  972SOL    HW1 3051   2.162   0.690   3.061
  972SOL    HW2 3052   2.016   0.715   3.028
  973SOL     OW 3053   1.011   1.890   2.075
  973SOL    HW1 3054   0.936   1.945   2.051
  973SOL    HW2 3055   0.973   1.802   2.083
  974SOL     OW 3056   3.252   1.925   1.750
  974SOL    HW1 3057   3.184   1.887   1.694
  974SOL    HW2 3058   3.205   1.976   1.815
  975SOL     OW 3059   3.531   0.422   0.704
  975SOL    HW1 3060   3.566   0.509   0.682
  975SOL    HW2 3061   3.608   0.365   0.703
  976SOL     OW 3062   1.768   1.797   0.340
  976SOL    HW1 3063   1.827   1.826   0.271
  976SOL    HW2 3064   1.811   1.822   0.421
  977SOL     OW 3065   2.376  -0.016   1.909
  977SOL    HW1 3066   2.440   0.034   1.857
  977SOL    HW2 3067   2.292   0.024   1.889
  978SOL     OW 3068   1.825   1.038   0.152
  978SOL    HW1 3069   1.755   1.096   0.182
  978SOL    HW2 3070   1.854   0.992   0.231
  979SOL     OW 3071   1.817   1.748   0.920
  979SOL    HW1 3072   1.800   1.655   0.908
  979SOL    HW2 3073   1.764   1.791   0.854
  980SOL     OW 3074   0.031   2.112   0.418
  980SOL    HW1 3075  -0.055   2.097   0.459
  980SOL    HW2 3076   0.071   2.180   0.472
  981SOL     OW 3077   2.240   0.252   2.476
  981SOL    HW1 3078   2.146   0.265   2.478
  981SOL    HW2 3079   2.258   0.218   2.388
  982SOL     OW 3080   1.711   1.653   3.496
  982SOL    HW1 3081   1.783   1.614   3.545
  982SOL    HW2 3082   1.741   1.740   3.472
  983SOL     OW 3083   3.151   0.839   0.665
  983SOL    HW1 3084   3.191   0.807   0.747
  983SOL    HW2 3085   3.190   0.925   0.651
  984SOL     OW 3086   2.426   2.416   3.010
  984SOL    HW1 3087   2.497   2.359   3.039
  984SOL    HW2 3088   2.348   2.379   3.051
  985SOL     OW 3089   0.212   1.783   3.158
  985SOL    HW1 3090   0.221   1.860   3.214
  985SOL    HW2 3091   0.199   1.818   3.070
  986SOL     OW 3092   2.411   3.461   2.562
  986SOL    HW1 3093   2.375   3.468   2.473
  986SOL    HW2 3094   2.483   3.524   2.564
  987SOL     OW 3095   2.190   2.086   2.278
  987SOL    HW1 3096   2.270   2.103   2.229
  987SOL    HW2 3097   2.146   2.017   2.229
  988SOL     OW 3098   2.638   1.296   1.453
  988SOL    HW1 3099   2.633   1.274   1.360
  988SOL    HW2 3100   2.660   1.389   1.455
  989SOL     OW 3101   1.889   2.033   3.749
  989SOL    HW1 3102   1.912   2.104   3.808
  989SOL    HW2 3103   1.917   1.953   3.794
  990SOL     OW 3104   1.350   1.156   3.794
  990SOL    HW1 3105   1.290   1.230   3.802
  990SOL    HW2 3106   1.430   1.192   3.756
  991SOL     OW 3107   2.994   0.853   3.817
  991SOL    HW1 3108   3.083   0.817   3.818
  991SOL    HW2 3109   2.947   0.800   3.881
  992SOL     OW 3110   1.763   0.088   3.754
  992SOL    HW1 3111   1.710   0.132   3.821
  992SOL    HW2 3112   1.785   0.004   3.792
  993SOL     OW 3113   1.393   3.793   0.570
  993SOL    HW1 3114   1.482   3.772   0.599
  993SOL    HW2 3115   1.398   3.885   0.544
  994SOL     OW 3116   2.075   3.168   3.319
  994SOL    HW1 3117   2.077   3.235   3.387
  994SOL    HW2 3118   1.992   3.122   3.333
  995SOL     OW 3119   1.434   3.341   3.430
  995SOL    HW1 3120   1.514   3.356   3.380
  995SOL    HW2 3121   1.367   3.391   3.384
  996SOL     OW 3122   3.528   1.177   1.316
  996SOL    HW1 3123   3.455   1.208   1.264
  996SOL    HW2 3124   3.526   1.082   1.308
  997SOL     OW 3125   2.278   3.463   1.306
  997SOL    HW1 3126   2.355   3.415   1.275
  997SOL    HW2 3127   2.304   3.555   1.304
  998SOL     OW 3128   2.231   0.906   2.585
  998SOL    HW1 3129   2.177   0.876   2.658
  998SOL    HW2 3130   2.221   1.002   2.586
  999SOL     OW 3131   1.436   0.169   3.879
  999SOL    HW1 3132   1.440   0.249   3.931
  999SOL    HW2 3133   1.512   0.118   3.906
 1000SOL     OW 3134   0.025   2.497   0.049
 1000SOL    HW1 3135  -0.022   2.469  -0.030
 1000SOL    HW2 3136   0.100   2.439   0.054
 1001SOL     OW 3137   2.894   3.278   3.403
 1001SOL    HW1 3138   2.880   3.317   3.489
 1001SOL    HW2 3139   2.808   3.279   3.361
 1002SOL     OW 3140   2.722   2.938   0.117
 1002SOL    HW1 3141   2.747   3.005   0.181
 1002SOL    HW2 3142   2.769   2.859   0.145
 1003SOL     OW 3143   3.228   1.087   0.606
 1003SOL    HW1 3144   3.164   1.157   0.594
 1003SOL    HW2 3145   3.269   1.077   0.520
 1004SOL     OW 3146   1.295   1.342   2.700
 1004SOL    HW1 3147   1.364   1.277   2.709
 1004SOL    HW2 3148   1.340   1.423   2.675
 1005SOL     OW 3149   0.042   2.308   1.733
 1005SOL    HW1 3150   0.002   2.339   1.814
 1005SOL    HW2 3151   0.024   2.378   1.670
 1006SOL     OW 3152   2.723   3.890   0.515
 1006SOL    HW1 3153   2.790   3.956   0.531
 1006SOL    HW2 3154   2.642   3.941   0.505
 1007SOL     OW 3155   0.611   3.315   1.075
 1007SOL    HW1 3156   0.614   3.220   1.086
 1007SOL    HW2 3157   0.683   3.335   1.015
 1008SOL     OW 3158   3.093   1.789   3.112
 1008SOL    HW1 3159   3.123   1.856   3.051
 1008SOL    HW2 3160   3.005   1.817   3.137
 1009SOL     OW 3161   3.596   0.380   3.919
 1009SOL    HW1 3162   3.624   0.470   3.934
 1009SOL    HW2 3163   3.555   0.354   4.001
 1010SOL     OW 3164   1.235   0.938   3.150
 1010SOL    HW1 3165   1.154   0.887   3.152
 1010SOL    HW2 3166   1.209   1.024   3.183
 1011SOL     OW 3167   1.270   0.079   2.554
 1011SOL    HW1 3168   1.284   0.148   2.620
 1011SOL    HW2 3169   1.239   0.126   2.477
 1012SOL     OW 3170   3.969   1.775   3.730
 1012SOL    HW1 3171   3.948   1.814   3.645
 1012SOL    HW2 3172   3.913   1.823   3.792
 1013SOL     OW 3173   0.989   3.926   0.758
 1013SOL    HW1 3174   0.953   3.994   0.700
 1013SOL    HW2 3175   1.081   3.950   0.767
 1014SOL     OW 3176   3.613   3.502   2.359
 1014SOL    HW1 3177   3.645   3.589   2.383
 1014SOL    HW2 3178   3.632   3.494   2.266
 1015SOL     OW 3179   1.551   2.523   1.356
 1015SOL    HW1 3180   1.608   2.466   1.408
 1015SOL    HW2 3181   1.606   2.552   1.283
 1016SOL     OW 3182   3.463   0.314   0.198
 1016SOL    HW1 3183   3.550   0.307   0.239
 1016SOL    HW2 3184   3.410   0.359   0.264
 1017SOL     OW 3185   1.266   2.474   3.000
 1017SOL    HW1 3186   1.324   2.403   2.970
 1017SOL    HW2 3187   1.194   2.473   2.937
 1018SOL     OW 3188   1.840   0.147   2.119
 1018SOL    HW1 3189   1.774   0.126   2.185
 1018SOL    HW2 3190   1.849   0.068   2.067
 1019SOL     OW 3191   0.246   1.897   0.993
 1019SOL    HW1 3192   0.284   1.827   1.046
 1019SOL    HW2 3193   0.191   1.947   1.053
 1020SOL     OW 3194   2.158   0.223   3.275
 1020SOL    HW1 3195   2.189   0.153   3.218
 1020SOL    HW2 3196   2.140   0.296   3.216
 1021SOL     OW 3197   3.767   2.564   1.379
 1021SOL    HW1 3198   3.699   2.581   1.314
 1021SOL    HW2 3199   3.839   2.524   1.330
 1022SOL     OW 3200   1.914   0.094   2.967
 1022SOL    HW1 3201   1.887   0.178   3.004
 1022SOL    HW2 3202   1.985   0.116   2.907
 1023SOL     OW 3203   3.820   1.024   0.980
 1023SOL    HW1 3204   3.756   1.006   0.911
 1023SOL    HW2 3205   3.853   0.938   1.006
 1024SOL     OW 3206   2.046   2.432   0.987
 1024SOL    HW1 3207   2.105   2.357   0.979
 1024SOL    HW2 3208   2.102   2.503   1.019
 1025SOL     OW 3209   1.347   2.468   2.156
 1025SOL    HW1 3210   1.272   2.439   2.208
 1025SOL    HW2 3211   1.358   2.560   2.178
 1026SOL     OW 3212   3.274   1.918   2.608
 1026SOL    HW1 3213   3.203   1.860   2.581
 1026SOL    HW2 3214   3.232   2.003   2.621
 1027SOL     OW 3215   3.236   2.840   2.841
 1027SOL    HW1 3216   3.206   2.905   2.904
 1027SOL    HW2 3217   3.168   2.772   2.841
 1028SOL     OW 3218   2.745   3.174   3.001
 1028SOL    HW1 3219   2.723   3.154   2.910
 1028SOL    HW2 3220   2.835   3.207   2.998
 1029SOL     OW 3221   2.267   2.220   3.936
 1029SOL    HW1 3222   2.263   2.247   3.844
 1029SOL    HW2 3223   2.348   2.259   3.969
 1030SOL     OW 3224   1.740   2.304   3.921
 1030SOL    HW1 3225   1.775   2.350   3.845
 1030SOL    HW2 3226   1.669   2.250   3.886
 1031SOL     OW 3227   1.457   0.192   0.863
 1031SOL    HW1 3228   1.490   0.106   0.835
 1031SOL    HW2 3229   1.533   0.250   0.856
 1032SOL     OW 3230   3.480   3.168   3.267
 1032SOL    HW1 3231   3.569   3.195   3.242
 1032SOL    HW2 3232   3.476   3.075   3.246
 1033SOL     OW 3233   0.522   0.312   0.271
 1033SOL    HW1 3234   0.433   0.340   0.250
 1033SOL    HW2 3235   0.532   0.228   0.225
 1034SOL     OW 3236   3.593   2.842   1.667
 1034SOL    HW1 3237   3.533   2.849   1.741
 1034SOL    HW2 3238   3.647   2.920   1.672
 1035SOL     OW 3239   2.392   3.057   2.861
 1035SOL    HW1 3240   2.379   2.983   2.802
 1035SOL    HW2 3241   2.444   3.023   2.933
 1036SOL     OW 3242   0.190   2.718   1.378
 1036SOL    HW1 3243   0.239   2.702   1.297
 1036SOL    HW2 3244   0.120   2.778   1.353
 1037SOL     OW 3245   2.263   1.043   0.834
 1037SOL    HW1 3246   2.205   1.066   0.762
 1037SOL    HW2 3247   2.204   1.006   0.901
 1038SOL     OW 3248   2.141   3.142   3.792
 1038SOL    HW1 3249   2.095   3.223   3.815
 1038SOL    HW2 3250   2.144   3.143   3.696
 1039SOL     OW 3251   1.588   1.503   0.442
 1039SOL    HW1 3252   1.534   1.573   0.480
 1039SOL    HW2 3253   1.528   1.429   0.434
 1040SOL     OW 3254   0.825   1.834   3.309
 1040SOL    HW1 3255   0.800   1.850   3.218
 1040SOL    HW2 3256   0.921   1.842   3.310
 1041SOL     OW 3257   1.976   1.841   2.262
 1041SOL    HW1 3258   1.890   1.875   2.285
 1041SOL    HW2 3259   1.961   1.749   2.240
 1042SOL     OW 3260   0.305   2.418   3.361
 1042SOL    HW1 3261   0.364   2.402   3.287
 1042SOL    HW2 3262   0.320   2.345   3.420
 1043SOL     OW 3263   1.012   2.690   1.008
 1043SOL    HW1 3264   1.025   2.710   1.100
 1043SOL    HW2 3265   1.101   2.685   0.972
 1044SOL     OW 3266   1.094   0.430   0.093
 1044SOL    HW1 3267   1.056   0.493   0.032
 1044SOL    HW2 3268   1.059   0.456   0.178
 1045SOL     OW 3269   3.698   0.132   1.613
 1045SOL    HW1 3270   3.744   0.053   1.584
 1045SOL    HW2 3271   3.611   0.124   1.575
 1046SOL     OW 3272   0.009   1.344   1.704
 1046SOL    HW1 3273   0.073   1.407   1.737
 1046SOL    HW2 3274   0.033   1.331   1.612
 1047SOL     OW 3275   0.530   2.329   2.316
 1047SOL    HW1 3276   0.602   2.296   2.262
 1047SOL    HW2 3277   0.459   2.266   2.303
 1048SOL     OW 3278   2.385   2.430   1.869
 1048SOL    HW1 3279   2.370   2.430   1.963
 1048SOL    HW2 3280   2.427   2.346   1.850
 1049SOL     OW 3281   3.006   1.360   0.685
 1049SOL    HW1 3282   2.980   1.299   0.616
 1049SOL    HW2 3283   3.097   1.380   0.667
 1050SOL     OW 3284   2.174   3.828   0.397
 1050SOL    HW1 3285   2.226   3.815   0.476
 1050SOL    HW2 3286   2.238   3.845   0.329
 1051SOL     OW 3287   2.933   1.216   3.524
 1051SOL    HW1 3288   2.978   1.156   3.584
 1051SOL    HW2 3289   2.998   1.284   3.506
 1052SOL     OW 3290   3.474   3.175   2.317
 1052SOL    HW1 3291   3.423   3.247   2.355
 1052SOL    HW2 3292   3.508   3.127   2.393
 1053SOL     OW 3293   0.099   1.516   3.227
 1053SOL    HW1 3294   0.159   1.497   3.299
 1053SOL    HW2 3295   0.148   1.576   3.171
 1054SOL     OW 3296   2.432   3.194   2.417
 1054SOL    HW1 3297   2.424   3.235   2.331
 1054SOL    HW2 3298   2.426   3.267   2.479
 1055SOL     OW 3299   2.701   2.528   1.019
 1055SOL    HW1 3300   2.761   2.500   1.088
 1055SOL    HW2 3301   2.754   2.527   0.940
 1056SOL     OW 3302   2.686   3.446   1.032
 1056SOL    HW1 3303   2.694   3.479   0.942
 1056SOL    HW2 3304   2.725   3.515   1.086
 1057SOL     OW 3305   0.504   0.255   1.805
 1057SOL    HW1 3306   0.434   0.204   1.845
 1057SOL    HW2 3307   0.584   0.216   1.840
 1058SOL     OW 3308   2.157   0.804   0.531
 1058SOL    HW1 3309   2.089   0.855   0.487
 1058SOL    HW2 3310   2.207   0.763   0.460
 1059SOL     OW 3311   2.108   3.425   0.423
 1059SOL    HW1 3312   2.189   3.440   0.471
 1059SOL    HW2 3313   2.116   3.336   0.388
 1060SOL     OW 3314   0.386   3.148   0.577
 1060SOL    HW1 3315   0.383   3.111   0.489
 1060SOL    HW2 3316   0.294   3.149   0.606
 1061SOL     OW 3317   3.229   1.120   3.493
 1061SOL    HW1 3318   3.176   1.107   3.415
 1061SOL    HW2 3319   3.276   1.038   3.504
 1062SOL     OW 3320   0.277   0.765   2.310
 1062SOL    HW1 3321   0.369   0.761   2.337
 1062SOL    HW2 3322   0.280   0.771   2.214
 1063SOL     OW 3323   0.283   1.623   2.867
 1063SOL    HW1 3324   0.297   1.549   2.807
 1063SOL    HW2 3325   0.207   1.669   2.831
 1064SOL     OW 3326   0.157   0.888   3.350
 1064SOL    HW1 3327   0.199   0.968   3.383
 1064SOL    HW2 3328   0.144   0.906   3.257
 1065SOL     OW 3329   2.508   0.963   0.923
 1065SOL    HW1 3330   2.595   0.969   0.885
 1065SOL    HW2 3331   2.450   0.951   0.848
 1066SOL     OW 3332   3.965   0.167   2.800
 1066SOL    HW1 3333   3.887   0.112   2.797
 1066SOL    HW2 3334   3.991   0.176   2.709
 1067SOL     OW 3335   1.840   3.804   1.432
 1067SOL    HW1 3336   1.927   3.765   1.424
 1067SOL    HW2 3337   1.829   3.855   1.352
 1068SOL     OW 3338   1.541   1.245   2.859
 1068SOL    HW1 3339   1.456   1.206   2.879
 1068SOL    HW2 3340   1.537   1.332   2.897
 1069SOL     OW 3341   1.681   2.650   2.019
 1069SOL    HW1 3342   1.625   2.715   1.977
 1069SOL    HW2 3343   1.754   2.638   1.959
 1070SOL     OW 3344   3.587   1.924   2.208
 1070SOL    HW1 3345   3.636   1.843   2.223
 1070SOL    HW2 3346   3.581   1.965   2.294
 1071SOL     OW 3347   2.790   2.143   1.819
 1071SOL    HW1 3348   2.828   2.220   1.777
 1071SOL    HW2 3349   2.834   2.069   1.777
 1072SOL     OW 3350   0.193   3.728   1.068
 1072SOL    HW1 3351   0.249   3.672   1.121
 1072SOL    HW2 3352   0.251   3.798   1.037
 1073SOL     OW 3353   3.250   2.339   1.447
 1073SOL    HW1 3354   3.345   2.350   1.435
 1073SOL    HW2 3355   3.230   2.254   1.409
 1074SOL     OW 3356   3.918   2.945   2.489
 1074SOL    HW1 3357   3.999   2.922   2.535
 1074SOL    HW2 3358   3.946   2.997   2.414
 1075SOL     OW 3359   1.526   1.752   0.162
 1075SOL    HW1 3360   1.599   1.795   0.206
 1075SOL    HW2 3361   1.562   1.669   0.130
 1076SOL     OW 3362   3.646   2.493   0.893
 1076SOL    HW1 3363   3.641   2.583   0.925
 1076SOL    HW2 3364   3.736   2.467   0.912
 1077SOL     OW 3365   3.262   1.421   1.674
 1077SOL    HW1 3366   3.312   1.501   1.693
 1077SOL    HW2 3367   3.239   1.386   1.760
 1078SOL     OW 3368   0.259   2.599   3.059
 1078SOL    HW1 3369   0.168   2.590   3.088
 1078SOL    HW2 3370   0.305   2.630   3.137
 1079SOL     OW 3371   1.317   3.692   1.320
 1079SOL    HW1 3372   1.319   3.676   1.415
 1079SOL    HW2 3373   1.235   3.740   1.306
 1080SOL     OW 3374   1.791   2.052   1.224
 1080SOL    HW1 3375   1.728   2.025   1.290
 1080SOL    HW2 3376   1.870   2.002   1.243
 1081SOL     OW 3377   0.703   0.831   0.142
 1081SOL    HW1 3378   0.622   0.820   0.091
 1081SOL    HW2 3379   0.675   0.824   0.233
 1082SOL     OW 3380   3.837   3.651   0.511
 1082SOL    HW1 3381   3.837   3.662   0.416
 1082SOL    HW2 3382   3.870   3.734   0.545
 1083SOL     OW 3383   1.989   2.237   0.475
 1083SOL    HW1 3384   2.029   2.323   0.486
 1083SOL    HW2 3385   1.908   2.254   0.427
 1084SOL     OW 3386   3.636   1.415   1.414
 1084SOL    HW1 3387   3.601   1.331   1.385
 1084SOL    HW2 3388   3.684   1.449   1.338
 1085SOL     OW 3389   2.413   2.161   1.403
 1085SOL    HW1 3390   2.452   2.124   1.483
 1085SOL    HW2 3391   2.322   2.132   1.405
 1086SOL     OW 3392   3.754   3.930   2.198
 1086SOL    HW1 3393   3.843   3.896   2.195
 1086SOL    HW2 3394   3.764   4.025   2.194
 1087SOL     OW 3395   3.993   2.644   3.223
 1087SOL    HW1 3396   3.949   2.724   3.252
 1087SOL    HW2 3397   3.922   2.585   3.198
 1088SOL     OW 3398   2.061   2.093   2.990
 1088SOL    HW1 3399   2.155   2.076   2.997
 1088SOL    HW2 3400   2.047   2.116   2.898
 1089SOL     OW 3401   2.481   3.372   2.200
 1089SOL    HW1 3402   2.387   3.370   2.179
 1089SOL    HW2 3403   2.520   3.425   2.130
 1090SOL     OW 3404   3.110   0.730   3.446
 1090SOL    HW1 3405   3.073   0.701   3.362
 1090SOL    HW2 3406   3.061   0.809   3.467
 1091SOL     OW 3407   3.389   2.459   3.450
 1091SOL    HW1 3408   3.406   2.397   3.521
 1091SOL    HW2 3409   3.468   2.512   3.446
 1092SOL     OW 3410   2.332   3.786   1.686
 1092SOL    HW1 3411   2.421   3.780   1.651
 1092SOL    HW2 3412   2.343   3.800   1.780
 1093SOL     OW 3413   1.565   0.691   0.877
 1093SOL    HW1 3414   1.528   0.701   0.789
 1093SOL    HW2 3415   1.612   0.772   0.894
 1094SOL     OW 3416   3.571   0.671   2.483
 1094SOL    HW1 3417   3.657   0.657   2.524
 1094SOL    HW2 3418   3.591   0.688   2.391
 1095SOL     OW 3419   1.621   3.910   0.866
 1095SOL    HW1 3420   1.714   3.924   0.850
 1095SOL    HW2 3421   1.619   3.856   0.945
 1096SOL     OW 3422   1.596   0.253   2.858
 1096SOL    HW1 3423   1.609   0.299   2.941
 1096SOL    HW2 3424   1.592   0.161   2.882
 1097SOL     OW 3425   0.124   0.071   0.600
 1097SOL    HW1 3426   0.203   0.016   0.600
 1097SOL    HW2 3427   0.145   0.143   0.659
 1098SOL     OW 3428   2.302   1.091   0.415
 1098SOL    HW1 3429   2.230   1.154   0.409
 1098SOL    HW2 3430   2.291   1.034   0.339
 1099SOL     OW 3431   2.502   0.381   2.082
 1099SOL    HW1 3432   2.551   0.421   2.154
 1099SOL    HW2 3433   2.489   0.453   2.020
 1100SOL     OW 3434   0.893   0.230   2.852
 1100SOL    HW1 3435   0.853   0.207   2.768
 1100SOL    HW2 3436   0.905   0.146   2.896
 1101SOL     OW 3437   2.553   2.201   0.111
 1101SOL    HW1 3438   2.584   2.224   0.023
 1101SOL    HW2 3439   2.572   2.107   0.120
 1102SOL     OW 3440   1.226   2.742   1.745
 1102SOL    HW1 3441   1.262   2.673   1.690
 1102SOL    HW2 3442   1.131   2.728   1.741
 1103SOL     OW 3443   2.012   3.503   1.645
 1103SOL    HW1 3444   1.989   3.415   1.617
 1103SOL    HW2 3445   1.940   3.529   1.703
 1104SOL     OW 3446   1.389   0.275   3.644
 1104SOL    HW1 3447   1.409   0.237   3.729
 1104SOL    HW2 3448   1.390   0.370   3.659
 1105SOL     OW 3449   1.916   1.854   0.568
 1105SOL    HW1 3450   1.990   1.875   0.511
 1105SOL    HW2 3451   1.926   1.913   0.643
 1106SOL     OW 3452   1.375   2.782   1.989
 1106SOL    HW1 3453   1.285   2.801   2.013
 1106SOL    HW2 3454   1.369   2.736   1.905
 1107SOL     OW 3455   2.941   3.710   3.846
 1107SOL    HW1 3456   2.851   3.677   3.848
 1107SOL    HW2 3457   2.988   3.660   3.912
 1108SOL     OW 3458   0.329   1.118   3.320
 1108SOL    HW1 3459   0.270   1.146   3.250
 1108SOL    HW2 3460   0.373   1.198   3.348
 1109SOL     OW 3461   0.977   1.468   0.098
 1109SOL    HW1 3462   1.061   1.425   0.081
 1109SOL    HW2 3463   0.955   1.443   0.188
 1110SOL     OW 3464   2.473   0.366   0.844
 1110SOL    HW1 3465   2.506   0.452   0.869
 1110SOL    HW2 3466   2.380   0.380   0.827
 1111SOL     OW 3467   3.899   1.939   2.295
 1111SOL    HW1 3468   3.868   1.905   2.379
 1111SOL    HW2 3469   3.913   1.861   2.241
 1112SOL     OW 3470   0.358   3.555   1.593
 1112SOL    HW1 3471   0.366   3.459   1.590
 1112SOL    HW2 3472   0.275   3.571   1.637
 1113SOL     OW 3473   0.036   0.927   0.240
 1113SOL    HW1 3474   0.001   0.993   0.300
 1113SOL    HW2 3475   0.128   0.952   0.230
 1114SOL     OW 3476   1.702   2.772   2.876
 1114SOL    HW1 3477   1.627   2.758   2.934
 1114SOL    HW2 3478   1.773   2.797   2.936
 1115SOL     OW 3479   3.414   1.503   3.248
 1115SOL    HW1 3480   3.462   1.427   3.213
 1115SOL    HW2 3481   3.424   1.570   3.181
 1116SOL     OW 3482   1.737   3.233   3.137
 1116SOL    HW1 3483   1.813   3.284   3.167
 1116SOL    HW2 3484   1.765   3.142   3.144
 1117SOL     OW 3485   1.318   0.686   3.215
 1117SOL    HW1 3486   1.229   0.657   3.199
 1117SOL    HW2 3487   1.316   0.781   3.203
 1118SOL     OW 3488   3.123   1.665   3.674
 1118SOL    HW1 3489   3.162   1.589   3.718
 1118SOL    HW2 3490   3.198   1.711   3.636
 1119SOL     OW 3491   3.692   1.595   2.535
 1119SOL    HW1 3492   3.597   1.603   2.535
 1119SOL    HW2 3493   3.709   1.502   2.551
 1120SOL     OW 3494   0.356   1.131   2.946
 1120SOL    HW1 3495   0.439   1.167   2.980
 1120SOL    HW2 3496   0.291   1.198   2.967
 1121SOL     OW 3497   1.969   2.093   3.261
 1121SOL    HW1 3498   1.879   2.067   3.281
 1121SOL    HW2 3499   1.983   2.062   3.172
 1122SOL     OW 3500   2.107   2.597   1.203
 1122SOL    HW1 3501   2.036   2.542   1.236
 1122SOL    HW2 3502   2.130   2.654   1.276
 1123SOL     OW 3503   1.367   0.514   3.009
 1123SOL    HW1 3504   1.378   0.597   3.055
 1123SOL    HW2 3505   1.446   0.464   3.031
 1124SOL     OW 3506   1.282   1.428   0.219
 1124SOL    HW1 3507   1.251   1.391   0.302
 1124SOL    HW2 3508   1.320   1.354   0.173
 1125SOL     OW 3509   2.361   0.985   3.211
 1125SOL    HW1 3510   2.289   1.022   3.159
 1125SOL    HW2 3511   2.439   1.030   3.178
 1126SOL     OW 3512   2.764   3.191   1.024
 1126SOL    HW1 3513   2.727   3.278   1.036
 1126SOL    HW2 3514   2.690   3.137   0.994
 1127SOL     OW 3515   2.897   2.291   1.594
 1127SOL    HW1 3516   2.970   2.349   1.617
 1127SOL    HW2 3517   2.819   2.346   1.603
 1128SOL     OW 3518   3.123   1.140   1.828
 1128SOL    HW1 3519   3.119   1.158   1.734
 1128SOL    HW2 3520   3.137   1.045   1.833
 1129SOL     OW 3521   0.271   2.981   1.861
 1129SOL    HW1 3522   0.193   2.993   1.808
 1129SOL    HW2 3523   0.343   2.978   1.798
 1130SOL     OW 3524   0.115   0.391   1.845
 1130SOL    HW1 3525   0.031   0.377   1.888
 1130SOL    HW2 3526   0.170   0.429   1.913
 1131SOL     OW 3527   0.344   0.816   0.803
 1131SOL    HW1 3528   0.281   0.884   0.783
 1131SOL    HW2 3529   0.428   0.850   0.771
 1132SOL     OW 3530   2.780   2.386   0.516
 1132SOL    HW1 3531   2.707   2.398   0.455
 1132SOL    HW2 3532   2.842   2.456   0.494
 1133SOL     OW 3533   2.951   3.670   2.816
 1133SOL    HW1 3534   2.903   3.587   2.817
 1133SOL    HW2 3535   2.946   3.700   2.726
 1134SOL     OW 3536   0.690   2.388   3.567
 1134SOL    HW1 3537   0.727   2.341   3.492
 1134SOL    HW2 3538   0.596   2.370   3.562
 1135SOL     OW 3539   3.491   2.832   2.074
 1135SOL    HW1 3540   3.540   2.909   2.043
 1135SOL    HW2 3541   3.544   2.797   2.146
 1136SOL     OW 3542   1.455   0.184   2.013
 1136SOL    HW1 3543   1.472   0.110   1.955
 1136SOL    HW2 3544   1.520   0.250   1.989
 1137SOL     OW 3545   0.922   0.418   3.090
 1137SOL    HW1 3546   0.855   0.484   3.070
 1137SOL    HW2 3547   0.916   0.355   3.017
 1138SOL     OW 3548   1.256   0.861   3.728
 1138SOL    HW1 3549   1.342   0.821   3.716
 1138SOL    HW2 3550   1.274   0.952   3.752
 1139SOL     OW 3551   2.431   0.106   2.711
 1139SOL    HW1 3552   2.374   0.174   2.674
 1139SOL    HW2 3553   2.448   0.135   2.801
 1140SOL     OW 3554   1.904   2.080   0.700
 1140SOL    HW1 3555   1.940   2.141   0.636
 1140SOL    HW2 3556   1.881   2.135   0.775
 1141SOL     OW 3557   2.760   2.638   0.201
 1141SOL    HW1 3558   2.678   2.619   0.156
 1141SOL    HW2 3559   2.791   2.553   0.232
 1142SOL     OW 3560   1.097   1.854   3.358
 1142SOL    HW1 3561   1.175   1.803   3.380
 1142SOL    HW2 3562   1.071   1.894   3.441
 1143SOL     OW 3563   3.678   0.956   2.608
 1143SOL    HW1 3564   3.704   0.865   2.595
 1143SOL    HW2 3565   3.729   1.005   2.543
 1144SOL     OW 3566   0.051   0.561   3.958
 1144SOL    HW1 3567  -0.000   0.578   4.037
 1144SOL    HW2 3568  -0.006   0.589   3.886
 1145SOL     OW 3569   1.458   1.592   2.646
 1145SOL    HW1 3570   1.443   1.664   2.706
 1145SOL    HW2 3571   1.553   1.576   2.650
 1146SOL     OW 3572   2.593   2.119   0.965
 1146SOL    HW1 3573   2.516   2.061   0.968
 1146SOL    HW2 3574   2.596   2.151   0.875
 1147SOL     OW 3575   3.022   1.105   0.834
 1147SOL    HW1 3576   3.045   1.144   0.919
 1147SOL    HW2 3577   3.100   1.119   0.780
 1148SOL     OW 3578   0.738   3.863   0.889
 1148SOL    HW1 3579   0.709   3.883   0.978
 1148SOL    HW2 3580   0.832   3.881   0.889
 1149SOL     OW 3581   0.353   1.710   0.098
 1149SOL    HW1 3582   0.297   1.686   0.172
 1149SOL    HW2 3583   0.442   1.701   0.131
 1150SOL     OW 3584   0.203   2.163   1.212
 1150SOL    HW1 3585   0.287   2.117   1.213
 1150SOL    HW2 3586   0.183   2.173   1.119
 1151SOL     OW 3587   0.487   2.676   2.815
 1151SOL    HW1 3588   0.486   2.587   2.779
 1151SOL    HW2 3589   0.501   2.664   2.909
 1152SOL     OW 3590   2.434   0.257   1.745
 1152SOL    HW1 3591   2.343   0.265   1.774
 1152SOL    HW2 3592   2.465   0.347   1.735
 1153SOL     OW 3593   1.103   0.694   1.874
 1153SOL    HW1 3594   1.137   0.727   1.791
 1153SOL    HW2 3595   1.015   0.663   1.854
 1154SOL     OW 3596   2.993   0.215   1.182
 1154SOL    HW1 3597   2.945   0.201   1.100
 1154SOL    HW2 3598   3.049   0.138   1.190
 1155SOL     OW 3599   0.365   0.794   3.626
 1155SOL    HW1 3600   0.440   0.852   3.611
 1155SOL    HW2 3601   0.346   0.757   3.539
 1156SOL     OW 3602   3.796   2.033   0.641
 1156SOL    HW1 3603   3.832   2.037   0.730
 1156SOL    HW2 3604   3.734   1.960   0.645
 1157SOL     OW 3605   3.103   0.210   3.569
 1157SOL    HW1 3606   3.053   0.140   3.612
 1157SOL    HW2 3607   3.119   0.177   3.481
 1158SOL     OW 3608   1.720   2.742   1.509
 1158SOL    HW1 3609   1.735   2.780   1.596
 1158SOL    HW2 3610   1.653   2.675   1.524
 1159SOL     OW 3611   1.870   3.078   1.942
 1159SOL    HW1 3612   1.928   3.038   2.006
 1159SOL    HW2 3613   1.919   3.075   1.860
 1160SOL     OW 3614   3.809   1.101   2.388
 1160SOL    HW1 3615   3.891   1.052   2.392
 1160SOL    HW2 3616   3.774   1.082   2.301
 1161SOL     OW 3617   0.535   0.748   2.400
 1161SOL    HW1 3618   0.521   0.675   2.460
 1161SOL    HW2 3619   0.629   0.767   2.406
 1162SOL     OW 3620   0.812   0.673   1.831
 1162SOL    HW1 3621   0.719   0.694   1.839
 1162SOL    HW2 3622   0.837   0.640   1.917
 1163SOL     OW 3623   1.907   1.727   1.164
 1163SOL    HW1 3624   1.948   1.673   1.097
 1163SOL    HW2 3625   1.860   1.795   1.115
 1164SOL     OW 3626   2.675   0.433   3.673
 1164SOL    HW1 3627   2.664   0.342   3.647
 1164SOL    HW2 3628   2.729   0.429   3.752
 1165SOL     OW 3629   0.485   0.624   1.906
 1165SOL    HW1 3630   0.452   0.705   1.943
 1165SOL    HW2 3631   0.412   0.590   1.854
 1166SOL     OW 3632   1.067   0.886   1.610
 1166SOL    HW1 3633   1.065   0.791   1.601
 1166SOL    HW2 3634   1.155   0.911   1.580
 1167SOL     OW 3635   0.473   1.777   3.825
 1167SOL    HW1 3636   0.411   1.759   3.896
 1167SOL    HW2 3637   0.528   1.698   3.821
 1168SOL     OW 3638   1.282   2.329   3.495
 1168SOL    HW1 3639   1.215   2.336   3.562
 1168SOL    HW2 3640   1.320   2.242   3.508
 1169SOL     OW 3641   3.429   1.172   1.651
 1169SOL    HW1 3642   3.416   1.217   1.735
 1169SOL    HW2 3643   3.494   1.226   1.606
 1170SOL     OW 3644   0.443   1.345   0.232
 1170SOL    HW1 3645   0.400   1.272   0.190
 1170SOL    HW2 3646   0.386   1.368   0.305
 1171SOL     OW 3647   0.654   3.363   2.265
 1171SOL    HW1 3648   0.642   3.400   2.177
 1171SOL    HW2 3649   0.749   3.352   2.273
 1172SOL     OW 3650   1.608   2.028   2.510
 1172SOL    HW1 3651   1.620   2.115   2.548
 1172SOL    HW2 3652   1.522   2.033   2.467
 1173SOL     OW 3653   0.940   1.740   0.063
 1173SOL    HW1 3654   0.924   1.769   0.153
 1173SOL    HW2 3655   0.963   1.647   0.071
 1174SOL     OW 3656   1.051   2.408   2.522
 1174SOL    HW1 3657   1.109   2.467   2.571
 1174SOL    HW2 3658   1.082   2.320   2.544
 1175SOL     OW 3659   2.119   0.491   2.280
 1175SOL    HW1 3660   2.062   0.462   2.208
 1175SOL    HW2 3661   2.188   0.542   2.236
 1176SOL     OW 3662   0.956   3.145   3.653
 1176SOL    HW1 3663   0.940   3.088   3.727
 1176SOL    HW2 3664   1.051   3.153   3.648
 1177SOL     OW 3665   1.022   2.373   3.811
 1177SOL    HW1 3666   0.993   2.457   3.775
 1177SOL    HW2 3667   0.963   2.309   3.772
 1178SOL     OW 3668   3.772   1.320   2.533
 1178SOL    HW1 3669   3.865   1.343   2.528
 1178SOL    HW2 3670   3.768   1.229   2.506
 1179SOL     OW 3671   1.160   3.293   0.590
 1179SOL    HW1 3672   1.229   3.357   0.571
 1179SOL    HW2 3673   1.203   3.228   0.646
 1180SOL     OW 3674   3.161   0.454   2.556
 1180SOL    HW1 3675   3.139   0.475   2.647
 1180SOL    HW2 3676   3.076   0.437   2.515
 1181SOL     OW 3677   3.452   1.170   2.747
 1181SOL    HW1 3678   3.440   1.146   2.839
 1181SOL    HW2 3679   3.471   1.087   2.703
 1182SOL     OW 3680   0.437   0.977   2.189
 1182SOL    HW1 3681   0.478   0.937   2.265
 1182SOL    HW2 3682   0.457   1.070   2.196
 1183SOL     OW 3683   1.653   3.130   0.138
 1183SOL    HW1 3684   1.562   3.144   0.110
 1183SOL    HW2 3685   1.689   3.218   0.145
 1184SOL     OW 3686   1.429   0.096   0.562
 1184SOL    HW1 3687   1.396   0.156   0.629
 1184SOL    HW2 3688   1.523   0.111   0.560
 1185SOL     OW 3689   2.241   2.129   1.955
 1185SOL    HW1 3690   2.180   2.134   1.882
 1185SOL    HW2 3691   2.238   2.037   1.982
 1186SOL     OW 3692   2.287   3.777   1.208
 1186SOL    HW1 3693   2.368   3.793   1.256
 1186SOL    HW2 3694   2.235   3.856   1.222
 1187SOL     OW 3695   1.645   3.012   2.157
 1187SOL    HW1 3696   1.630   3.100   2.124
 1187SOL    HW2 3697   1.687   2.966   2.084
 1188SOL     OW 3698   0.190   2.879   2.637
 1188SOL    HW1 3699   0.183   2.905   2.729
 1188SOL    HW2 3700   0.284   2.884   2.618
 1189SOL     OW 3701   1.161   2.723   3.720
 1189SOL    HW1 3702   1.130   2.747   3.807
 1189SOL    HW2 3703   1.083   2.694   3.674
 1190SOL     OW 3704   0.511   1.479   2.422
 1190SOL    HW1 3705   0.577   1.462   2.356
 1190SOL    HW2 3706   0.463   1.397   2.431
 1191SOL     OW 3707   3.558   3.108   0.958
 1191SOL    HW1 3708   3.565   3.165   1.035
 1191SOL    HW2 3709   3.645   3.112   0.918
 1192SOL     OW 3710   1.513   3.742   2.137
 1192SOL    HW1 3711   1.425   3.773   2.161
 1192SOL    HW2 3712   1.501   3.649   2.117
 1193SOL     OW 3713   2.788   1.796   1.856
 1193SOL    HW1 3714   2.855   1.794   1.925
 1193SOL    HW2 3715   2.713   1.837   1.898
 1194SOL     OW 3716   2.030   1.262   3.247
 1194SOL    HW1 3717   1.968   1.191   3.234
 1194SOL    HW2 3718   2.059   1.253   3.338
 1195SOL     OW 3719   3.281   0.080   1.208
 1195SOL    HW1 3720   3.233   0.003   1.239
 1195SOL    HW2 3721   3.303   0.060   1.117
 1196SOL     OW 3722   2.968   1.343   2.097
 1196SOL    HW1 3723   3.013   1.266   2.131
 1196SOL    HW2 3724   2.930   1.385   2.174
 1197SOL     OW 3725   1.228   2.910   0.885
 1197SOL    HW1 3726   1.152   2.854   0.902
 1197SOL    HW2 3727   1.205   2.993   0.927
 1198SOL     OW 3728   0.459   2.970   1.659
 1198SOL    HW1 3729   0.531   2.942   1.715
 1198SOL    HW2 3730   0.499   2.981   1.573
 1199SOL     OW 3731   0.600   2.837   1.281
 1199SOL    HW1 3732   0.564   2.750   1.297
 1199SOL    HW2 3733   0.676   2.821   1.225
 1200SOL     OW 3734   2.511   0.566   3.348
 1200SOL    HW1 3735   2.469   0.617   3.279
 1200SOL    HW2 3736   2.449   0.495   3.367
 1201SOL     OW 3737   1.539   2.231   1.832
 1201SOL    HW1 3738   1.473   2.174   1.871
 1201SOL    HW2 3739   1.534   2.312   1.882
 1202SOL     OW 3740   0.795   2.702   3.294
 1202SOL    HW1 3741   0.815   2.617   3.255
 1202SOL    HW2 3742   0.881   2.743   3.308
 1203SOL     OW 3743   1.079   3.861   0.437
 1203SOL    HW1 3744   1.149   3.855   0.503
 1203SOL    HW2 3745   1.076   3.954   0.414
 1204SOL     OW 3746   2.966   0.868   2.433
 1204SOL    HW1 3747   3.050   0.831   2.459
 1204SOL    HW2 3748   2.982   0.906   2.347
 1205SOL     OW 3749  -0.002   2.389   1.240
 1205SOL    HW1 3750  -0.058   2.335   1.295
 1205SOL    HW2 3751   0.076   2.336   1.224
 1206SOL     OW 3752   3.148   2.375   3.786
 1206SOL    HW1 3753   3.223   2.326   3.822
 1206SOL    HW2 3754   3.181   2.465   3.776
 1207SOL     OW 3755   2.822   2.970   3.229
 1207SOL    HW1 3756   2.881   3.007   3.294
 1207SOL    HW2 3757   2.865   2.986   3.145
 1208SOL     OW 3758   1.480   0.310   2.614
 1208SOL    HW1 3759   1.502   0.286   2.704
 1208SOL    HW2 3760   1.492   0.228   2.564
 1209SOL     OW 3761   1.801   3.773   2.203
 1209SOL    HW1 3762   1.824   3.743   2.115
 1209SOL    HW2 3763   1.708   3.751   2.212
 1210SOL     OW 3764   1.647   2.050   0.596
 1210SOL    HW1 3765   1.605   1.979   0.645
 1210SOL    HW2 3766   1.737   2.051   0.628
 1211SOL     OW 3767   2.349   1.304   2.973
 1211SOL    HW1 3768   2.336   1.375   3.036
 1211SOL    HW2 3769   2.260   1.273   2.954
 1212SOL     OW 3770   0.275   3.116   2.988
 1212SOL    HW1 3771   0.186   3.119   3.023
 1212SOL    HW2 3772   0.286   3.026   2.958
 1213SOL     OW 3773   3.717   1.874   2.858
 1213SOL    HW1 3774   3.738   1.911   2.943
 1213SOL    HW2 3775   3.622   1.879   2.852
 1214SOL     OW 3776   3.462   2.206   3.575
 1214SOL    HW1 3777   3.551   2.172   3.572
 1214SOL    HW2 3778   3.420   2.173   3.496
 1215SOL     OW 3779   0.259   2.523   1.150
 1215SOL    HW1 3780   0.268   2.471   1.070
 1215SOL    HW2 3781   0.266   2.613   1.120
 1216SOL     OW 3782   3.634   0.093   3.591
 1216SOL    HW1 3783   3.668   0.100   3.681
 1216SOL    HW2 3784   3.570   0.163   3.585
 1217SOL     OW 3785   0.260   1.802   1.999
 1217SOL    HW1 3786   0.283   1.819   1.907
 1217SOL    HW2 3787   0.198   1.729   1.995
 1218SOL     OW 3788   0.100   3.650   1.720
 1218SOL    HW1 3789   0.069   3.655   1.811
 1218SOL    HW2 3790   0.079   3.561   1.692
 1219SOL     OW 3791   0.534   2.170   3.770
 1219SOL    HW1 3792   0.444   2.192   3.795
 1219SOL    HW2 3793   0.559   2.099   3.829
 1220SOL     OW 3794   3.439   0.134   1.484
 1220SOL    HW1 3795   3.387   0.199   1.435
 1220SOL    HW2 3796   3.375   0.072   1.518
 1221SOL     OW 3797   2.572   3.826   3.767
 1221SOL    HW1 3798   2.618   3.744   3.788
 1221SOL    HW2 3799   2.625   3.894   3.809
 1222SOL     OW 3800   3.391   2.445   0.205
 1222SOL    HW1 3801   3.370   2.524   0.156
 1222SOL    HW2 3802   3.334   2.448   0.282
 1223SOL     OW 3803   1.881   2.565   3.965
 1223SOL    HW1 3804   1.880   2.493   3.902
 1223SOL    HW2 3805   1.828   2.634   3.924
 1224SOL     OW 3806   0.126   1.019   1.400
 1224SOL    HW1 3807   0.112   1.101   1.449
 1224SOL    HW2 3808   0.202   1.036   1.345
 1225SOL     OW 3809   2.816   0.457   0.293
 1225SOL    HW1 3810   2.803   0.407   0.374
 1225SOL    HW2 3811   2.754   0.418   0.231
 1226SOL     OW 3812   1.358   2.411   0.341
 1226SOL    HW1 3813   1.277   2.377   0.305
 1226SOL    HW2 3814   1.379   2.486   0.285
 1227SOL     OW 3815   0.323   0.811   2.047
 1227SOL    HW1 3816   0.365   0.887   2.087
 1227SOL    HW2 3817   0.272   0.847   1.975
 1228SOL     OW 3818   2.280   2.407   0.271
 1228SOL    HW1 3819   2.322   2.472   0.215
 1228SOL    HW2 3820   2.186   2.425   0.263
 1229SOL     OW 3821   2.263   0.840   2.325
 1229SOL    HW1 3822   2.237   0.864   2.414
 1229SOL    HW2 3823   2.181   0.840   2.275
 1230SOL     OW 3824   0.470   1.782   2.999
 1230SOL    HW1 3825   0.439   1.872   3.011
 1230SOL    HW2 3826   0.404   1.742   2.943
 1231SOL     OW 3827   0.432   1.731   2.522
 1231SOL    HW1 3828   0.389   1.693   2.445
 1231SOL    HW2 3829   0.465   1.655   2.570
 1232SOL     OW 3830   3.114   0.855   0.953
 1232SOL    HW1 3831   3.102   0.851   1.047
 1232SOL    HW2 3832   3.053   0.922   0.923
 1233SOL     OW 3833   1.972   0.372   2.085
 1233SOL    HW1 3834   1.923   0.292   2.104
 1233SOL    HW2 3835   1.932   0.406   2.005
 1234SOL     OW 3836   1.237   3.415   0.267
 1234SOL    HW1 3837   1.153   3.455   0.246
 1234SOL    HW2 3838   1.280   3.479   0.324
 1235SOL     OW 3839   1.995   3.399   3.919
 1235SOL    HW1 3840   1.966   3.482   3.881
 1235SOL    HW2 3841   2.085   3.416   3.947
 1236SOL     OW 3842   3.368   3.785   3.379
 1236SOL    HW1 3843   3.393   3.877   3.372
 1236SOL    HW2 3844   3.291   3.776   3.323
 1237SOL     OW 3845   3.379   1.275   2.359
 1237SOL    HW1 3846   3.413   1.186   2.367
 1237SOL    HW2 3847   3.286   1.267   2.379
 1238SOL     OW 3848   1.631   0.455   3.074
 1238SOL    HW1 3849   1.653   0.524   3.136
 1238SOL    HW2 3850   1.700   0.390   3.085
 1239SOL     OW 3851   2.286   2.498   0.784
 1239SOL    HW1 3852   2.316   2.439   0.854
 1239SOL    HW2 3853   2.322   2.459   0.704
 1240SOL     OW 3854   3.127   2.712   0.056
 1240SOL    HW1 3855   3.207   2.749   0.018
 1240SOL    HW2 3856   3.065   2.708  -0.017
 1241SOL     OW 3857   0.954   0.526   0.403
 1241SOL    HW1 3858   0.871   0.480   0.411
 1241SOL    HW2 3859   0.949   0.597   0.467
 1242SOL     OW 3860   0.948   3.318   0.037
 1242SOL    HW1 3861   0.915   3.239   0.081
 1242SOL    HW2 3862   1.043   3.312   0.047
 1243SOL     OW 3863   3.318   1.115   3.909
 1243SOL    HW1 3864   3.381   1.183   3.933
 1243SOL    HW2 3865   3.372   1.041   3.882
 1244SOL     OW 3866   2.863   1.137   3.247
 1244SOL    HW1 3867   2.867   1.100   3.334
 1244SOL    HW2 3868   2.830   1.226   3.260
 1245SOL     OW 3869   3.126   1.726   0.324
 1245SOL    HW1 3870   3.191   1.658   0.307
 1245SOL    HW2 3871   3.125   1.736   0.419
 1246SOL     OW 3872   1.214   0.205   3.278
 1246SOL    HW1 3873   1.194   0.189   3.186
 1246SOL    HW2 3874   1.164   0.284   3.300
 1247SOL     OW 3875   0.357   3.445   0.052
 1247SOL    HW1 3876   0.294   3.463  -0.018
 1247SOL    HW2 3877   0.303   3.441   0.131
 1248SOL     OW 3878   3.421   3.312   0.700
 1248SOL    HW1 3879   3.470   3.230   0.699
 1248SOL    HW2 3880   3.487   3.379   0.718
 1249SOL     OW 3881   3.555   1.270   3.901
 1249SOL    HW1 3882   3.589   1.355   3.928
 1249SOL    HW2 3883   3.633   1.222   3.871
 1250SOL     OW 3884   1.765   3.373   0.116
 1250SOL    HW1 3885   1.810   3.368   0.201
 1250SOL    HW2 3886   1.834   3.393   0.053
 1251SOL     OW 3887   3.926   0.906   3.141
 1251SOL    HW1 3888   3.929   0.847   3.216
 1251SOL    HW2 3889   3.941   0.849   3.065
 1252SOL     OW 3890   3.920   1.885   1.169
 1252SOL    HW1 3891   3.935   1.905   1.261
 1252SOL    HW2 3892   3.846   1.941   1.144
 1253SOL     OW 3893   1.031   0.415   1.115
 1253SOL    HW1 3894   0.953   0.384   1.069
 1253SOL    HW2 3895   1.104   0.378   1.066
 1254SOL     OW 3896   2.846   3.796   3.369
 1254SOL    HW1 3897   2.844   3.828   3.279
 1254SOL    HW2 3898   2.902   3.719   3.365
 1255SOL     OW 3899   1.415   1.538   3.659
 1255SOL    HW1 3900   1.478   1.467   3.671
 1255SOL    HW2 3901   1.369   1.515   3.578
 1256SOL     OW 3902   1.734   3.974   0.559
 1256SOL    HW1 3903   1.710   3.882   0.560
 1256SOL    HW2 3904   1.738   3.999   0.652
 1257SOL     OW 3905   1.079   2.763   0.618
 1257SOL    HW1 3906   1.016   2.829   0.588
 1257SOL    HW2 3907   1.080   2.697   0.549
 1258SOL     OW 3908   3.878   2.089   2.857
 1258SOL    HW1 3909   3.833   2.022   2.804
 1258SOL    HW2 3910   3.863   2.171   2.809
 1259SOL     OW 3911   3.056   3.523   1.451
 1259SOL    HW1 3912   3.127   3.585   1.437
 1259SOL    HW2 3913   3.072   3.488   1.539
 1260SOL     OW 3914   0.797   0.139   2.602
 1260SOL    HW1 3915   0.711   0.127   2.642
 1260SOL    HW2 3916   0.779   0.180   2.518
 1261SOL     OW 3917   0.653   0.012   3.580
 1261SOL    HW1 3918   0.570   0.031   3.622
 1261SOL    HW2 3919   0.703   0.093   3.587
 1262SOL     OW 3920   2.702   3.020   2.698
 1262SOL    HW1 3921   2.667   3.109   2.702
 1262SOL    HW2 3922   2.647   2.970   2.759
 1263SOL     OW 3923   2.095   1.249   2.908
 1263SOL    HW1 3924   2.094   1.314   2.838
 1263SOL    HW2 3925   2.004   1.242   2.937
 1264SOL     OW 3926   2.703   3.046   3.567
 1264SOL    HW1 3927   2.787   3.005   3.547
 1264SOL    HW2 3928   2.643   2.972   3.578
 1265SOL     OW 3929   3.046   3.325   0.517
 1265SOL    HW1 3930   3.052   3.229   0.512
 1265SOL    HW2 3931   3.132   3.356   0.489
 1266SOL     OW 3932   1.802   1.459   0.172
 1266SOL    HW1 3933   1.760   1.410   0.243
 1266SOL    HW2 3934   1.730   1.486   0.116
 1267SOL     OW 3935   2.403   0.241   3.994
 1267SOL    HW1 3936   2.475   0.200   3.946
 1267SOL    HW2 3937   2.370   0.309   3.935
 1268SOL     OW 3938   0.962   3.541   3.543
 1268SOL    HW1 3939   0.906   3.478   3.589
 1268SOL    HW2 3940   0.913   3.623   3.546
 1269SOL     OW 3941   1.302   1.229   3.076
 1269SOL    HW1 3942   1.377   1.176   3.103
 1269SOL    HW2 3943   1.239   1.219   3.147
 1270SOL     OW 3944   2.707   2.075   2.453
 1270SOL    HW1 3945   2.726   2.082   2.546
 1270SOL    HW2 3946   2.739   2.156   2.415
 1271SOL     OW 3947   1.415   3.651   0.875
 1271SOL    HW1 3948   1.427   3.565   0.916
 1271SOL    HW2 3949   1.504   3.682   0.857
 1272SOL     OW 3950   0.675   3.465   1.998
 1272SOL    HW1 3951   0.691   3.453   1.904
 1272SOL    HW2 3952   0.745   3.524   2.026
 1273SOL     OW 3953   1.210   3.717   0.039
 1273SOL    HW1 3954   1.201   3.762  -0.046
 1273SOL    HW2 3955   1.285   3.759   0.080
 1274SOL     OW 3956   1.893   3.287   2.140
 1274SOL    HW1 3957   1.864   3.212   2.088
 1274SOL    HW2 3958   1.988   3.287   2.132
 1275SOL     OW 3959   0.004   2.983   1.747
 1275SOL    HW1 3960  -0.024   3.047   1.682
 1275SOL    HW2 3961   0.048   2.915   1.697
 1276SOL     OW 3962   1.157   0.798   0.944
 1276SOL    HW1 3963   1.129   0.768   1.030
 1276SOL    HW2 3964   1.086   0.856   0.914
 1277SOL     OW 3965   1.271   1.861   2.224
 1277SOL    HW1 3966   1.196   1.825   2.177
 1277SOL    HW2 3967   1.266   1.823   2.312
 1278SOL     OW 3968   0.753   3.342   0.589
 1278SOL    HW1 3969   0.673   3.321   0.540
 1278SOL    HW2 3970   0.813   3.375   0.523
 1279SOL     OW 3971   2.497   2.196   1.660
 1279SOL    HW1 3972   2.563   2.262   1.642
 1279SOL    HW2 3973   2.418   2.227   1.615
 1280SOL     OW 3974   3.077   0.987   2.905
 1280SOL    HW1 3975   3.008   1.037   2.948
 1280SOL    HW2 3976   3.097   1.037   2.826
 1281SOL     OW 3977   0.035   3.666   0.851
 1281SOL    HW1 3978   0.084   3.669   0.933
 1281SOL    HW2 3979   0.098   3.634   0.787
 1282SOL     OW 3980   1.283   3.556   3.225
 1282SOL    HW1 3981   1.236   3.636   3.198
 1282SOL    HW2 3982   1.215   3.489   3.228
 1283SOL     OW 3983   3.465   2.625   2.707
 1283SOL    HW1 3984   3.409   2.694   2.671
 1283SOL    HW2 3985   3.407   2.572   2.761
 1284SOL     OW 3986   3.061   1.119   3.829
 1284SOL    HW1 3987   3.031   1.029   3.835
 1284SOL    HW2 3988   3.150   1.117   3.865
 1285SOL     OW 3989   0.132   0.247   1.603
 1285SOL    HW1 3990   0.118   0.155   1.627
 1285SOL    HW2 3991   0.152   0.291   1.685
 1286SOL     OW 3992   0.112   3.856   1.318
 1286SOL    HW1 3993   0.127   3.861   1.224
 1286SOL    HW2 3994   0.195   3.884   1.357
 1287SOL     OW 3995   0.308   0.892   0.314
 1287SOL    HW1 3996   0.291   0.802   0.343
 1287SOL    HW2 3997   0.350   0.934   0.390
 1288SOL     OW 3998   0.694   2.978   0.724
 1288SOL    HW1 3999   0.609   3.023   0.714
 1288SOL    HW2 4000   0.673   2.899   0.773
 1289SOL     OW 4001   0.738   1.859   3.062
 1289SOL    HW1 4002   0.774   1.784   3.015
 1289SOL    HW2 4003   0.644   1.854   3.047
 1290SOL     OW 4004   2.580   2.201   3.399
 1290SOL    HW1 4005   2.634   2.124   3.416
 1290SOL    HW2 4006   2.553   2.192   3.308
 1291SOL     OW 4007   2.319   1.185   1.338
 1291SOL    HW1 4008   2.230   1.166   1.368
 1291SOL    HW2 4009   2.326   1.140   1.254
 1292SOL     OW 4010   0.711   3.568   2.558
 1292SOL    HW1 4011   0.730   3.660   2.540
 1292SOL    HW2 4012   0.788   3.521   2.526
 1293SOL     OW 4013   2.917   1.474   3.314
 1293SOL    HW1 4014   2.888   1.490   3.403
 1293SOL    HW2 4015   3.011   1.459   3.321
 1294SOL     OW 4016   1.848   0.739   3.501
 1294SOL    HW1 4017   1.924   0.784   3.537
 1294SOL    HW2 4018   1.841   0.658   3.551
 1295SOL     OW 4019   1.567   2.980   1.476
 1295SOL    HW1 4020   1.645   2.928   1.457
 1295SOL    HW2 4021   1.564   3.045   1.407
 1296SOL     OW 4022   1.617   3.455   3.255
 1296SOL    HW1 4023   1.704   3.470   3.293
 1296SOL    HW2 4024   1.634   3.406   3.175
 1297SOL     OW 4025   1.467   2.231   0.820
 1297SOL    HW1 4026   1.516   2.263   0.896
 1297SOL    HW2 4027   1.531   2.232   0.749
 1298SOL     OW 4028   3.203   1.685   2.002
 1298SOL    HW1 4029   3.281   1.740   2.003
 1298SOL    HW2 4030   3.216   1.622   2.073
 1299SOL     OW 4031   1.943   2.928   2.999
 1299SOL    HW1 4032   2.009   2.975   3.051
 1299SOL    HW2 4033   1.967   2.946   2.908
 1300SOL     OW 4034   3.045   2.468   2.181
 1300SOL    HW1 4035   3.012   2.552   2.148
 1300SOL    HW2 4036   3.139   2.483   2.193
 1301SOL     OW 4037   3.635   1.151   2.073
 1301SOL    HW1 4038   3.696   1.183   2.007
 1301SOL    HW2 4039   3.653   1.057   2.078
 1302SOL     OW 4040   1.482   1.145   1.558
 1302SOL    HW1 4041   1.458   1.126   1.648
 1302SOL    HW2 4042   1.527   1.229   1.562
 1303SOL     OW 4043   1.685   0.513   3.629
 1303SOL    HW1 4044   1.609   0.513   3.688
 1303SOL    HW2 4045   1.652   0.476   3.547
 1304SOL     OW 4046   3.445   1.831   3.835
 1304SOL    HW1 4047   3.351   1.850   3.837
 1304SOL    HW2 4048   3.468   1.837   3.742
 1305SOL     OW 4049   3.412   1.924   1.173
 1305SOL    HW1 4050   3.486   1.863   1.166
 1305SOL    HW2 4051   3.388   1.922   1.265
 1306SOL     OW 4052   2.548   1.183   3.106
 1306SOL    HW1 4053   2.460   1.202   3.073
 1306SOL    HW2 4054   2.590   1.269   3.113
 1307SOL     OW 4055   1.700   2.662   2.333
 1307SOL    HW1 4056   1.634   2.617   2.385
 1307SOL    HW2 4057   1.673   2.647   2.242
 1308SOL     OW 4058   0.195   1.353   2.963
 1308SOL    HW1 4059   0.103   1.332   2.974
 1308SOL    HW2 4060   0.198   1.448   2.955
 1309SOL     OW 4061   1.026   2.847   3.411
 1309SOL    HW1 4062   0.948   2.903   3.406
 1309SOL    HW2 4063   1.091   2.900   3.457
 1310SOL     OW 4064   0.239   2.713   2.111
 1310SOL    HW1 4065   0.240   2.725   2.016
 1310SOL    HW2 4066   0.328   2.684   2.133
 1311SOL     OW 4067   2.305   0.679   3.183
 1311SOL    HW1 4068   2.256   0.667   3.264
 1311SOL    HW2 4069   2.346   0.766   3.192
 1312SOL     OW 4070   3.676   0.534   1.455
 1312SOL    HW1 4071   3.748   0.497   1.507
 1312SOL    HW2 4072   3.705   0.524   1.364
 1313SOL     OW 4073   1.108   0.528   2.372
 1313SOL    HW1 4074   1.145   0.576   2.298
 1313SOL    HW2 4075   1.020   0.564   2.383
 1314SOL     OW 4076   0.306   2.668   0.174
 1314SOL    HW1 4077   0.398   2.660   0.198
 1314SOL    HW2 4078   0.259   2.658   0.256
 1315SOL     OW 4079   1.766   3.901   1.127
 1315SOL    HW1 4080   1.711   3.978   1.134
 1315SOL    HW2 4081   1.706   3.827   1.144
 1316SOL     OW 4082   2.296   2.065   3.567
 1316SOL    HW1 4083   2.354   2.077   3.492
 1316SOL    HW2 4084   2.355   2.045   3.640
 1317SOL     OW 4085   1.593   0.684   0.227
 1317SOL    HW1 4086   1.531   0.646   0.289
 1317SOL    HW2 4087   1.539   0.708   0.151
 1318SOL     OW 4088   0.853   3.558   0.088
 1318SOL    HW1 4089   0.924   3.597   0.139
 1318SOL    HW2 4090   0.893   3.483   0.044
 1319SOL     OW 4091   3.398   0.824   3.445
 1319SOL    HW1 4092   3.310   0.785   3.443
 1319SOL    HW2 4093   3.432   0.801   3.531
 1320SOL     OW 4094   2.463   3.443   3.257
 1320SOL    HW1 4095   2.423   3.517   3.302
 1320SOL    HW2 4096   2.513   3.398   3.326
 1321SOL     OW 4097   1.962   1.777   3.865
 1321SOL    HW1 4098   2.052   1.804   3.848
 1321SOL    HW2 4099   1.963   1.682   3.854
 1322SOL     OW 4100   2.891   1.806   1.389
 1322SOL    HW1 4101   2.886   1.890   1.344
 1322SOL    HW2 4102   2.977   1.772   1.367
 1323SOL     OW 4103   0.477   2.588   2.109
 1323SOL    HW1 4104   0.507   2.583   2.199
 1323SOL    HW2 4105   0.534   2.529   2.061
 1324SOL     OW 4106   3.819   0.647   3.708
 1324SOL    HW1 4107   3.879   0.578   3.677
 1324SOL    HW2 4108   3.833   0.719   3.646
 1325SOL     OW 4109   2.910   3.466   2.587
 1325SOL    HW1 4110   2.914   3.420   2.503
 1325SOL    HW2 4111   2.999   3.458   2.622
 1326SOL     OW 4112   1.555   3.869   3.598
 1326SOL    HW1 4113   1.545   3.950   3.547
 1326SOL    HW2 4114   1.643   3.875   3.635
 1327SOL     OW 4115   0.472   0.391   3.213
 1327SOL    HW1 4116   0.549   0.409   3.266
 1327SOL    HW2 4117   0.443   0.477   3.183
 1328SOL     OW 4118   3.763   2.170   1.866
 1328SOL    HW1 4119   3.686   2.165   1.923
 1328SOL    HW2 4120   3.805   2.252   1.891
 1329SOL     OW 4121   0.545   0.137   2.741
 1329SOL    HW1 4122   0.456   0.110   2.718
 1329SOL    HW2 4123   0.536   0.180   2.826
 1330SOL     OW 4124   0.759   3.725   3.607
 1330SOL    HW1 4125   0.736   3.818   3.615
 1330SOL    HW2 4126   0.715   3.683   3.680
 1331SOL     OW 4127   2.276   1.632   1.409
 1331SOL    HW1 4128   2.202   1.601   1.357
 1331SOL    HW2 4129   2.348   1.639   1.346
 1332SOL     OW 4130   3.198   2.060   1.403
 1332SOL    HW1 4131   3.106   2.073   1.427
 1332SOL    HW2 4132   3.198   1.980   1.351
 1333SOL     OW 4133   2.759   3.849   3.091
 1333SOL    HW1 4134   2.757   3.904   3.012
 1333SOL    HW2 4135   2.789   3.764   3.059
 1334SOL     OW 4136   2.748   3.881   1.963
 1334SOL    HW1 4137   2.730   3.975   1.965
 1334SOL    HW2 4138   2.790   3.863   2.047
 1335SOL     OW 4139   3.379   3.656   0.296
 1335SOL    HW1 4140   3.335   3.628   0.216
 1335SOL    HW2 4141   3.452   3.711   0.267
 1336SOL     OW 4142   2.208   3.947   1.503
 1336SOL    HW1 4143   2.154   3.875   1.471
 1336SOL    HW2 4144   2.253   3.911   1.579
 1337SOL     OW 4145   2.672   2.433   1.723
 1337SOL    HW1 4146   2.683   2.512   1.669
 1337SOL    HW2 4147   2.611   2.460   1.791
 1338SOL     OW 4148   1.629   2.341   1.032
 1338SOL    HW1 4149   1.666   2.337   1.120
 1338SOL    HW2 4150   1.666   2.420   0.994
 1339SOL     OW 4151   3.166   3.230   1.432
 1339SOL    HW1 4152   3.189   3.267   1.346
 1339SOL    HW2 4153   3.070   3.228   1.432
 1340SOL     OW 4154   0.541   1.298   3.028
 1340SOL    HW1 4155   0.634   1.311   3.045
 1340SOL    HW2 4156   0.498   1.373   3.068
 1341SOL     OW 4157   1.437   2.795   3.261
 1341SOL    HW1 4158   1.464   2.887   3.267
 1341SOL    HW2 4159   1.485   2.751   3.331
 1342SOL     OW 4160   3.540   2.801   3.813
 1342SOL    HW1 4161   3.591   2.724   3.841
 1342SOL    HW2 4162   3.601   2.874   3.822
 1343SOL     OW 4163   2.316   0.997   3.511
 1343SOL    HW1 4164   2.357   1.082   3.526
 1343SOL    HW2 4165   2.325   0.982   3.417
 1344SOL     OW 4166   1.539   3.945   1.393
 1344SOL    HW1 4167   1.633   3.941   1.412
 1344SOL    HW2 4168   1.526   3.882   1.322
 1345SOL     OW 4169   1.653   0.907   2.500
 1345SOL    HW1 4170   1.671   0.915   2.406
 1345SOL    HW2 4171   1.604   0.825   2.507
 1346SOL     OW 4172   0.511   3.917   0.365
 1346SOL    HW1 4173   0.457   3.857   0.313
 1346SOL    HW2 4174   0.570   3.859   0.414
 1347SOL     OW 4175   3.588   0.449   1.848
 1347SOL    HW1 4176   3.537   0.385   1.897
 1347SOL    HW2 4177   3.540   0.531   1.858
 1348SOL     OW 4178   0.863   3.965   2.994
 1348SOL    HW1 4179   0.904   3.887   2.956
 1348SOL    HW2 4180   0.770   3.944   2.997
 1349SOL     OW 4181   3.573   1.292   3.020
 1349SOL    HW1 4182   3.493   1.328   2.981
 1349SOL    HW2 4183   3.586   1.208   2.976
 1350SOL     OW 4184   3.899   0.703   1.096
 1350SOL    HW1 4185   3.984   0.713   1.053
 1350SOL    HW2 4186   3.867   0.618   1.066
 1351SOL     OW 4187   3.108   3.081   2.751
 1351SOL    HW1 4188   3.190   3.044   2.717
 1351SOL    HW2 4189   3.043   3.012   2.738
 1352SOL     OW 4190   0.284   1.986   3.308
 1352SOL    HW1 4191   0.365   2.013   3.351
 1352SOL    HW2 4192   0.246   2.067   3.274
 1353SOL     OW 4193   1.432   3.398   1.804
 1353SOL    HW1 4194   1.469   3.343   1.735
 1353SOL    HW2 4195   1.368   3.453   1.759
 1354SOL     OW 4196   1.821   0.962   1.912
 1354SOL    HW1 4197   1.910   0.997   1.904
 1354SOL    HW2 4198   1.787   0.965   1.822
 1355SOL     OW 4199   0.514   3.360   3.318
 1355SOL    HW1 4200   0.582   3.296   3.298
 1355SOL    HW2 4201   0.561   3.440   3.340
 1356SOL     OW 4202   1.259   3.247   2.254
 1356SOL    HW1 4203   1.253   3.323   2.311
 1356SOL    HW2 4204   1.192   3.261   2.188
 1357SOL     OW 4205   3.401   2.101   1.605
 1357SOL    HW1 4206   3.360   2.036   1.663
 1357SOL    HW2 4207   3.360   2.087   1.520
 1358SOL     OW 4208   1.856   2.333   1.780
 1358SOL    HW1 4209   1.913   2.373   1.845
 1358SOL    HW2 4210   1.911   2.268   1.736
 1359SOL     OW 4211   3.878   3.867   0.660
 1359SOL    HW1 4212   3.934   3.796   0.694
 1359SOL    HW2 4213   3.940   3.935   0.632
 1360SOL     OW 4214   0.462   1.394   3.391
 1360SOL    HW1 4215   0.376   1.430   3.414
 1360SOL    HW2 4216   0.478   1.426   3.303
 1361SOL     OW 4217   0.809   3.633   1.265
 1361SOL    HW1 4218   0.839   3.671   1.182
 1361SOL    HW2 4219   0.717   3.661   1.272
 1362SOL     OW 4220   0.073   1.587   1.891
 1362SOL    HW1 4221   0.063   1.675   1.855
 1362SOL    HW2 4222   0.005   1.580   1.957
 1363SOL     OW 4223   1.297   0.886   2.064
 1363SOL    HW1 4224   1.370   0.945   2.044
 1363SOL    HW2 4225   1.236   0.939   2.114
 1364SOL     OW 4226   3.879   1.409   3.068
 1364SOL    HW1 4227   3.837   1.489   3.036
 1364SOL    HW2 4228   3.947   1.439   3.129
 1365SOL     OW 4229   0.799   1.326   3.771
 1365SOL    HW1 4230   0.853   1.390   3.819
 1365SOL    HW2 4231   0.731   1.300   3.834
 1366SOL     OW 4232   2.980   1.511   1.846
 1366SOL    HW1 4233   2.999   1.441   1.909
 1366SOL    HW2 4234   3.050   1.575   1.860
 1367SOL     OW 4235   0.191   2.639   3.481
 1367SOL    HW1 4236   0.131   2.650   3.407
 1367SOL    HW2 4237   0.250   2.569   3.453
 1368SOL     OW 4238   0.224   3.070   3.766
 1368SOL    HW1 4239   0.276   3.023   3.832
 1368SOL    HW2 4240   0.137   3.076   3.804
 1369SOL     OW 4241   3.179   3.437   2.635
 1369SOL    HW1 4242   3.233   3.418   2.711
 1369SOL    HW2 4243   3.240   3.474   2.571
 1370SOL     OW 4244   2.832   3.559   1.263
 1370SOL    HW1 4245   2.887   3.586   1.189
 1370SOL    HW2 4246   2.895   3.530   1.329
 1371SOL     OW 4247   3.051   0.431   3.715
 1371SOL    HW1 4248   3.062   0.362   3.651
 1371SOL    HW2 4249   3.138   0.471   3.723
 1372SOL     OW 4250   0.600   0.947   3.580
 1372SOL    HW1 4251   0.671   0.946   3.643
 1372SOL    HW2 4252   0.610   1.031   3.534
 1373SOL     OW 4253   1.536   2.263   2.619
 1373SOL    HW1 4254   1.532   2.343   2.567
 1373SOL    HW2 4255   1.614   2.272   2.673
 1374SOL     OW 4256   3.930   3.366   1.282
 1374SOL    HW1 4257   3.900   3.428   1.215
 1374SOL    HW2 4258   4.021   3.347   1.259
 1375SOL     OW 4259   3.695   2.298   3.372
 1375SOL    HW1 4260   3.770   2.325   3.319
 1375SOL    HW2 4261   3.677   2.374   3.428
 1376SOL     OW 4262   1.504   0.611   2.185
 1376SOL    HW1 4263   1.503   0.542   2.251
 1376SOL    HW2 4264   1.426   0.664   2.204
 1377SOL     OW 4265   2.539   3.647   1.280
 1377SOL    HW1 4266   2.619   3.597   1.299
 1377SOL    HW2 4267   2.553   3.681   1.191
 1378SOL     OW 4268   2.461   3.311   0.029
 1378SOL    HW1 4269   2.417   3.230   0.053
 1378SOL    HW2 4270   2.393   3.361  -0.018
 1379SOL     OW 4271   1.326   0.926   1.515
 1379SOL    HW1 4272   1.329   0.926   1.419
 1379SOL    HW2 4273   1.378   1.002   1.541
 1380SOL     OW 4274   1.551   3.252   0.812
 1380SOL    HW1 4275   1.471   3.277   0.859
 1380SOL    HW2 4276   1.525   3.175   0.760
 1381SOL     OW 4277   2.980   3.284   1.191
 1381SOL    HW1 4278   2.914   3.259   1.126
 1381SOL    HW2 4279   3.064   3.264   1.149
 1382SOL     OW 4280   1.412   2.239   1.541
 1382SOL    HW1 4281   1.498   2.255   1.580
 1382SOL    HW2 4282   1.420   2.272   1.452
 1383SOL     OW 4283   3.440   0.003   1.884
 1383SOL    HW1 4284   3.438   0.092   1.918
 1383SOL    HW2 4285   3.408  -0.051   1.957
 1384SOL     OW 4286   0.978   2.950   1.468
 1384SOL    HW1 4287   0.931   3.010   1.410
 1384SOL    HW2 4288   1.067   2.985   1.472
 1385SOL     OW 4289   1.383   0.520   3.726
 1385SOL    HW1 4290   1.289   0.540   3.729
 1385SOL    HW2 4291   1.410   0.545   3.637
 1386SOL     OW 4292   3.481   1.739   3.088
 1386SOL    HW1 4293   3.401   1.792   3.084
 1386SOL    HW2 4294   3.475   1.682   3.012
 1387SOL     OW 4295   1.295   3.742   2.521
 1387SOL    HW1 4296   1.202   3.765   2.520
 1387SOL    HW2 4297   1.340   3.824   2.544
 1388SOL     OW 4298   1.611   2.468   1.656
 1388SOL    HW1 4299   1.701   2.442   1.635
 1388SOL    HW2 4300   1.604   2.453   1.751
 1389SOL     OW 4301   1.668   3.755   1.635
 1389SOL    HW1 4302   1.713   3.702   1.701
 1389SOL    HW2 4303   1.733   3.766   1.565
 1390SOL     OW 4304   0.570   0.504   2.539
 1390SOL    HW1 4305   0.596   0.412   2.532
 1390SOL    HW2 4306   0.517   0.507   2.619
 1391SOL     OW 4307   3.553   1.968   3.200
 1391SOL    HW1 4308   3.569   1.877   3.177
 1391SOL    HW2 4309   3.634   1.997   3.243
 1392SOL     OW 4310   2.103   3.139   0.414
 1392SOL    HW1 4311   2.071   3.063   0.365
 1392SOL    HW2 4312   2.188   3.110   0.449
 1393SOL     OW 4313   2.572   2.841   2.953
 1393SOL    HW1 4314   2.613   2.885   3.027
 1393SOL    HW2 4315   2.504   2.786   2.992
 1394SOL     OW 4316   1.876   2.506   3.183
 1394SOL    HW1 4317   1.782   2.519   3.185
 1394SOL    HW2 4318   1.910   2.567   3.249
 1395SOL     OW 4319   2.632   0.607   1.209
 1395SOL    HW1 4320   2.690   0.638   1.140
 1395SOL    HW2 4321   2.594   0.526   1.175
 1396SOL     OW 4322   0.069   3.881   3.020
 1396SOL    HW1 4323   0.086   3.793   3.054
 1396SOL    HW2 4324   0.061   3.870   2.926
 1397SOL     OW 4325   1.249   1.348   0.797
 1397SOL    HW1 4326   1.265   1.302   0.879
 1397SOL    HW2 4327   1.305   1.426   0.801
 1398SOL     OW 4328   3.281   1.534   3.876
 1398SOL    HW1 4329   3.280   1.559   3.968
 1398SOL    HW2 4330   3.371   1.552   3.847
 1399SOL     OW 4331   1.436   0.800   0.456
 1399SOL    HW1 4332   1.361   0.802   0.516
 1399SOL    HW2 4333   1.485   0.722   0.481
 1400SOL     OW 4334   2.297   1.141   1.753
 1400SOL    HW1 4335   2.203   1.123   1.743
 1400SOL    HW2 4336   2.316   1.117   1.844
 1401SOL     OW 4337   1.985   2.186   3.533
 1401SOL    HW1 4338   1.977   2.176   3.439
 1401SOL    HW2 4339   1.943   2.108   3.569
 1402SOL     OW 4340   3.969   2.075   1.621
 1402SOL    HW1 4341   4.007   2.144   1.676
 1402SOL    HW2 4342   3.875   2.078   1.641
 1403SOL     OW 4343   1.525   2.433   0.578
 1403SOL    HW1 4344   1.439   2.461   0.610
 1403SOL    HW2 4345   1.506   2.390   0.494
 1404SOL     OW 4346   0.209   3.363   1.127
 1404SOL    HW1 4347   0.277   3.414   1.172
 1404SOL    HW2 4348   0.222   3.381   1.034
 1405SOL     OW 4349   2.583   3.692   1.829
 1405SOL    HW1 4350   2.650   3.732   1.883
 1405SOL    HW2 4351   2.605   3.720   1.740
 1406SOL     OW 4352   3.219   1.103   1.491
 1406SOL    HW1 4353   3.286   1.131   1.552
 1406SOL    HW2 4354   3.258   1.029   1.443
 1407SOL     OW 4355   1.578   1.305   3.687
 1407SOL    HW1 4356   1.573   1.323   3.593
 1407SOL    HW2 4357   1.649   1.242   3.696
 1408SOL     OW 4358   1.840   0.260   1.287
 1408SOL    HW1 4359   1.892   0.248   1.366
 1408SOL    HW2 4360   1.898   0.307   1.227
 1409SOL     OW 4361   2.605   3.624   2.600
 1409SOL    HW1 4362   2.696   3.596   2.590
 1409SOL    HW2 4363   2.606   3.716   2.573
 1410SOL     OW 4364   2.322   3.865   2.877
 1410SOL    HW1 4365   2.327   3.898   2.788
 1410SOL    HW2 4366   2.258   3.794   2.872
 1411SOL     OW 4367   1.352   0.354   0.141
 1411SOL    HW1 4368   1.326   0.286   0.203
 1411SOL    HW2 4369   1.271   0.380   0.097
 1412SOL     OW 4370  -0.003   1.506   0.808
 1412SOL    HW1 4371   0.029   1.418   0.829
 1412SOL    HW2 4372  -0.000   1.553   0.892
 1413SOL     OW 4373   2.514   1.780   1.279
 1413SOL    HW1 4374   2.568   1.842   1.231
 1413SOL    HW2 4375   2.511   1.702   1.224
 1414SOL     OW 4376   3.287   0.006   2.615
 1414SOL    HW1 4377   3.194  -0.005   2.631
 1414SOL    HW2 4378   3.315   0.074   2.676
 1415SOL     OW 4379   2.580   2.784   1.809
 1415SOL    HW1 4380   2.675   2.790   1.810
 1415SOL    HW2 4381   2.551   2.847   1.875
 1416SOL     OW 4382   2.053   2.844   1.801
 1416SOL    HW1 4383   2.130   2.888   1.838
 1416SOL    HW2 4384   2.020   2.790   1.872
 1417SOL     OW 4385   0.193   3.210   2.689
 1417SOL    HW1 4386   0.281   3.174   2.680
 1417SOL    HW2 4387   0.182   3.224   2.784
 1418SOL     OW 4388   2.362   3.044   2.186
 1418SOL    HW1 4389   2.329   2.955   2.197
 1418SOL    HW2 4390   2.381   3.074   2.275
 1419SOL     OW 4391   2.917   0.207   3.220
 1419SOL    HW1 4392   2.830   0.243   3.202
 1419SOL    HW2 4393   2.938   0.156   3.141
 1420SOL     OW 4394   3.802   0.964   0.632
 1420SOL    HW1 4395   3.888   0.939   0.665
 1420SOL    HW2 4396   3.740   0.927   0.696
 1421SOL     OW 4397   1.525   2.926   3.833
 1421SOL    HW1 4398   1.432   2.938   3.850
 1421SOL    HW2 4399   1.533   2.925   3.738
 1422SOL     OW 4400   0.663   2.948   3.104
 1422SOL    HW1 4401   0.694   2.962   3.014
 1422SOL    HW2 4402   0.712   2.873   3.135
 1423SOL     OW 4403   1.292   0.814   0.691
 1423SOL    HW1 4404   1.269   0.837   0.781
 1423SOL    HW2 4405   1.234   0.741   0.670
 1424SOL     OW 4406   2.163   0.789   1.832
 1424SOL    HW1 4407   2.100   0.811   1.763
 1424SOL    HW2 4408   2.241   0.759   1.784
 1425SOL     OW 4409   0.914   1.525   2.340
 1425SOL    HW1 4410   1.004   1.533   2.371
 1425SOL    HW2 4411   0.864   1.585   2.397
 1426SOL     OW 4412   2.772   0.229   2.975
 1426SOL    HW1 4413   2.852   0.244   2.925
 1426SOL    HW2 4414   2.722   0.166   2.923
 1427SOL     OW 4415   1.361   3.490   2.112
 1427SOL    HW1 4416   1.381   3.476   2.019
 1427SOL    HW2 4417   1.266   3.500   2.114
 1428SOL     OW 4418   1.717   1.790   1.606
 1428SOL    HW1 4419   1.667   1.826   1.533
 1428SOL    HW2 4420   1.684   1.838   1.683
 1429SOL     OW 4421   3.632   3.068   3.883
 1429SOL    HW1 4422   3.663   3.123   3.811
 1429SOL    HW2 4423   3.603   3.130   3.950
 1430SOL     OW 4424   1.449   3.197   1.268
 1430SOL    HW1 4425   1.507   3.148   1.210
 1430SOL    HW2 4426   1.403   3.258   1.211
 1431SOL     OW 4427   3.341   0.038   3.628
 1431SOL    HW1 4428   3.319   0.130   3.613
 1431SOL    HW2 4429   3.307   0.019   3.716
 1432SOL     OW 4430   3.453   0.283   2.001
 1432SOL    HW1 4431   3.460   0.251   2.091
 1432SOL    HW2 4432   3.362   0.313   1.993
 1433SOL     OW 4433   0.562   0.410   2.071
 1433SOL    HW1 4434   0.532   0.473   2.006
 1433SOL    HW2 4435   0.601   0.339   2.019
 1434SOL     OW 4436   3.117   3.208   2.467
 1434SOL    HW1 4437   3.184   3.275   2.477
 1434SOL    HW2 4438   3.090   3.188   2.557
 1435SOL     OW 4439   1.814   1.330   1.160
 1435SOL    HW1 4440   1.873   1.354   1.088
 1435SOL    HW2 4441   1.859   1.362   1.238
 1436SOL     OW 4442   1.799   0.681   2.420
 1436SOL    HW1 4443   1.801   0.590   2.450
 1436SOL    HW2 4444   1.735   0.680   2.348
 1437SOL     OW 4445   2.437   0.504   2.987
 1437SOL    HW1 4446   2.388   0.561   3.047
 1437SOL    HW2 4447   2.417   0.538   2.900
 1438SOL     OW 4448   2.795   1.538   0.026
 1438SOL    HW1 4449   2.753   1.503   0.105
 1438SOL    HW2 4450   2.852   1.468  -0.004
 1439SOL     OW 4451   1.450   1.623   1.278
 1439SOL    HW1 4452   1.524   1.576   1.239
 1439SOL    HW2 4453   1.386   1.555   1.299
 1440SOL     OW 4454   2.890   3.803   0.908
 1440SOL    HW1 4455   2.908   3.890   0.945
 1440SOL    HW2 4456   2.845   3.822   0.825
 1441SOL     OW 4457   3.885   3.243   3.302
 1441SOL    HW1 4458   3.828   3.278   3.370
 1441SOL    HW2 4459   3.971   3.238   3.343
 1442SOL     OW 4460   1.148   2.426   0.876
 1442SOL    HW1 4461   1.188   2.486   0.938
 1442SOL    HW2 4462   1.193   2.342   0.889
 1443SOL     OW 4463   1.380   3.057   0.659
 1443SOL    HW1 4464   1.350   2.985   0.715
 1443SOL    HW2 4465   1.379   3.020   0.571
 1444SOL     OW 4466   2.166   2.769   0.365
 1444SOL    HW1 4467   2.261   2.764   0.366
 1444SOL    HW2 4468   2.140   2.707   0.297
 1445SOL     OW 4469   2.666   1.579   1.410
 1445SOL    HW1 4470   2.602   1.642   1.376
 1445SOL    HW2 4471   2.746   1.630   1.419
 1446SOL     OW 4472   0.284   0.129   2.815
 1446SOL    HW1 4473   0.192   0.158   2.815
 1446SOL    HW2 4474   0.282   0.044   2.771
 1447SOL     OW 4475   3.920   2.095   0.155
 1447SOL    HW1 4476   3.996   2.053   0.115
 1447SOL    HW2 4477   3.948   2.117   0.244
 1448SOL     OW 4478   2.188   0.635   3.417
 1448SOL    HW1 4479   2.239   0.669   3.491
 1448SOL    HW2 4480   2.142   0.559   3.452
 1449SOL     OW 4481   2.268   0.076   3.773
 1449SOL    HW1 4482   2.210   0.019   3.721
 1449SOL    HW2 4483   2.268   0.159   3.725
 1450SOL     OW 4484   3.756   2.879   0.328
 1450SOL    HW1 4485   3.763   2.784   0.320
 1450SOL    HW2 4486   3.662   2.896   0.331
 1451SOL     OW 4487   3.781   1.756   0.392
 1451SOL    HW1 4488   3.734   1.778   0.472
 1451SOL    HW2 4489   3.868   1.794   0.404
 1452SOL     OW 4490   3.946   3.403   0.320
 1452SOL    HW1 4491   3.873   3.344   0.301
 1452SOL    HW2 4492   3.934   3.426   0.412
 1453SOL     OW 4493   1.412   1.219   0.094
 1453SOL    HW1 4494   1.406   1.139   0.147
 1453SOL    HW2 4495   1.415   1.187   0.003
 1454SOL     OW 4496   3.436   2.337   1.703
 1454SOL    HW1 4497   3.402   2.249   1.686
 1454SOL    HW2 4498   3.482   2.361   1.622
 1455SOL     OW 4499   0.297   2.855   3.925
 1455SOL    HW1 4500   0.282   2.812   3.841
 1455SOL    HW2 4501   0.307   2.783   3.987
 1456SOL     OW 4502   3.149   2.403   2.450
 1456SOL    HW1 4503   3.244   2.398   2.458
 1456SOL    HW2 4504   3.131   2.497   2.443
 1457SOL     OW 4505   2.791   1.753   2.437
 1457SOL    HW1 4506   2.696   1.738   2.436
 1457SOL    HW2 4507   2.805   1.812   2.511
 1458SOL     OW 4508   1.607   3.466   1.145
 1458SOL    HW1 4509   1.690   3.506   1.118
 1458SOL    HW2 4510   1.630   3.378   1.171
 1459SOL     OW 4511   3.483   1.945   0.133
 1459SOL    HW1 4512   3.449   2.031   0.107
 1459SOL    HW2 4513   3.457   1.887   0.061
 1460SOL     OW 4514   1.745   1.226   2.150
 1460SOL    HW1 4515   1.748   1.212   2.245
 1460SOL    HW2 4516   1.835   1.212   2.121
 1461SOL     OW 4517   1.816   3.327   0.390
 1461SOL    HW1 4518   1.904   3.314   0.424
 1461SOL    HW2 4519   1.759   3.309   0.465
 1462SOL     OW 4520   1.248   2.346   1.760
 1462SOL    HW1 4521   1.280   2.266   1.719
 1462SOL    HW2 4522   1.294   2.416   1.713
 1463SOL     OW 4523   0.721   0.562   3.342
 1463SOL    HW1 4524   0.771   0.541   3.421
 1463SOL    HW2 4525   0.787   0.583   3.277
 1464SOL     OW 4526   2.042   2.599   1.624
 1464SOL    HW1 4527   2.032   2.641   1.709
 1464SOL    HW2 4528   2.056   2.671   1.563
 1465SOL     OW 4529   3.501   1.395   1.023
 1465SOL    HW1 4530   3.524   1.448   0.947
 1465SOL    HW2 4531   3.584   1.378   1.067
 1466SOL     OW 4532   1.920   1.452   3.892
 1466SOL    HW1 4533   1.853   1.455   3.959
 1466SOL    HW2 4534   1.937   1.359   3.878
 1467SOL     OW 4535   3.082   0.616   2.134
 1467SOL    HW1 4536   3.024   0.686   2.161
 1467SOL    HW2 4537   3.089   0.626   2.039
 1468SOL     OW 4538   1.458   2.466   3.311
 1468SOL    HW1 4539   1.427   2.412   3.384
 1468SOL    HW2 4540   1.454   2.408   3.235
 1469SOL     OW 4541   0.555   2.678   0.249
 1469SOL    HW1 4542   0.629   2.619   0.261
 1469SOL    HW2 4543   0.548   2.724   0.333
 1470SOL     OW 4544   1.529   3.148   2.537
 1470SOL    HW1 4545   1.550   3.078   2.475
 1470SOL    HW2 4546   1.598   3.143   2.603
 1471SOL     OW 4547   2.499   0.222   2.976
 1471SOL    HW1 4548   2.489   0.316   2.956
 1471SOL    HW2 4549   2.565   0.219   3.045
 1472SOL     OW 4550   1.548   1.802   3.732
 1472SOL    HW1 4551   1.642   1.816   3.743
 1472SOL    HW2 4552   1.540   1.710   3.707
 1473SOL     OW 4553   2.209   1.174   2.592
 1473SOL    HW1 4554   2.195   1.268   2.595
 1473SOL    HW2 4555   2.287   1.159   2.646
 1474SOL     OW 4556   3.370   3.797   2.082
 1474SOL    HW1 4557   3.343   3.705   2.087
 1474SOL    HW2 4558   3.388   3.822   2.173
 1475SOL     OW 4559   1.223   3.811   3.067
 1475SOL    HW1 4560   1.257   3.809   2.978
 1475SOL    HW2 4561   1.135   3.848   3.059
 1476SOL     OW 4562   1.117   2.321   3.255
 1476SOL    HW1 4563   1.087   2.399   3.207
 1476SOL    HW2 4564   1.162   2.356   3.332
 1477SOL     OW 4565   3.479   0.086   0.451
 1477SOL    HW1 4566   3.402   0.098   0.395
 1477SOL    HW2 4567   3.540   0.037   0.396
 1478SOL     OW 4568   1.103   3.376   3.334
 1478SOL    HW1 4569   1.104   3.288   3.297
 1478SOL    HW2 4570   1.069   3.365   3.422
 1479SOL     OW 4571   3.048   3.911   2.739
 1479SOL    HW1 4572   2.997   3.832   2.760
 1479SOL    HW2 4573   2.982   3.977   2.718
 1480SOL     OW 4574   0.191   2.285   2.272
 1480SOL    HW1 4575   0.095   2.281   2.270
 1480SOL    HW2 4576   0.213   2.354   2.209
 1481SOL     OW 4577   1.277   3.297   2.613
 1481SOL    HW1 4578   1.360   3.255   2.593
 1481SOL    HW2 4579   1.217   3.225   2.630
 1482SOL     OW 4580   1.653   0.930   0.549
 1482SOL    HW1 4581   1.603   0.936   0.467
 1482SOL    HW2 4582   1.649   0.838   0.573
 1483SOL     OW 4583   2.276   2.197   0.984
 1483SOL    HW1 4584   2.351   2.235   1.031
 1483SOL    HW2 4585   2.305   2.192   0.893
 1484SOL     OW 4586   1.974   1.572   3.205
 1484SOL    HW1 4587   1.918   1.574   3.128
 1484SOL    HW2 4588   2.015   1.486   3.204
 1485SOL     OW 4589   3.226   2.509   0.403
 1485SOL    HW1 4590   3.241   2.536   0.493
 1485SOL    HW2 4591   3.164   2.574   0.368
 1486SOL     OW 4592   0.893   3.043   2.274
 1486SOL    HW1 4593   0.912   3.108   2.207
 1486SOL    HW2 4594   0.838   2.978   2.230
 1487SOL     OW 4595   2.133   1.330   1.984
 1487SOL    HW1 4596   2.227   1.338   1.968
 1487SOL    HW2 4597   2.105   1.259   1.926
 1488SOL     OW 4598   0.225   1.254   1.938
 1488SOL    HW1 4599   0.243   1.171   1.984
 1488SOL    HW2 4600   0.133   1.248   1.913
 1489SOL     OW 4601   2.017   0.799   2.089
 1489SOL    HW1 4602   2.059   0.770   2.008
 1489SOL    HW2 4603   1.930   0.760   2.085
 1490SOL     OW 4604   0.630   2.997   1.901
 1490SOL    HW1 4605   0.690   2.956   1.839
 1490SOL    HW2 4606   0.564   2.929   1.918
 1491SOL     OW 4607   2.975   3.220   1.951
 1491SOL    HW1 4608   2.909   3.289   1.954
 1491SOL    HW2 4609   2.976   3.191   1.860
 1492SOL     OW 4610   1.087   3.829   1.286
 1492SOL    HW1 4611   1.060   3.789   1.203
 1492SOL    HW2 4612   1.051   3.918   1.282
 1493SOL     OW 4613   0.923   0.085   2.307
 1493SOL    HW1 4614   0.853   0.143   2.277
 1493SOL    HW2 4615   1.001   0.140   2.305
 1494SOL     OW 4616   1.874   0.776   3.120
 1494SOL    HW1 4617   1.823   0.767   3.039
 1494SOL    HW2 4618   1.848   0.700   3.173
 1495SOL     OW 4619   0.817   3.784   0.451
 1495SOL    HW1 4620   0.907   3.782   0.484
 1495SOL    HW2 4621   0.766   3.737   0.517
 1496SOL     OW 4622   2.471   2.253   2.075
 1496SOL    HW1 4623   2.430   2.188   2.018
 1496SOL    HW2 4624   2.474   2.212   2.161
 1497SOL     OW 4625   0.413   2.137   2.736
 1497SOL    HW1 4626   0.429   2.230   2.722
 1497SOL    HW2 4627   0.485   2.093   2.691
 1498SOL     OW 4628   2.092   1.887   3.513
 1498SOL    HW1 4629   2.160   1.953   3.524
 1498SOL    HW2 4630   2.033   1.900   3.587
 1499SOL     OW 4631   1.585   1.958   1.430
 1499SOL    HW1 4632   1.492   1.981   1.428
 1499SOL    HW2 4633   1.624   2.023   1.488
 1500SOL     OW 4634   1.221   2.553   2.682
 1500SOL    HW1 4635   1.315   2.565   2.699
 1500SOL    HW2 4636   1.185   2.642   2.688
 1501SOL     OW 4637   0.310   3.672   2.972
 1501SOL    HW1 4638   0.264   3.690   3.054
 1501SOL    HW2 4639   0.365   3.596   2.991
 1502SOL     OW 4640   3.825   3.833   1.413
 1502SOL    HW1 4641   3.918   3.837   1.390
 1502SOL    HW2 4642   3.783   3.896   1.355
 1503SOL     OW 4643   2.238   3.117   0.116
 1503SOL    HW1 4644   2.193   3.104   0.032
 1503SOL    HW2 4645   2.186   3.067   0.179
 1504SOL     OW 4646   2.544   3.879   0.170
 1504SOL    HW1 4647   2.449   3.870   0.169
 1504SOL    HW2 4648   2.575   3.798   0.211
 1505SOL     OW 4649   2.558   0.207   1.486
 1505SOL    HW1 4650   2.518   0.159   1.558
 1505SOL    HW2 4651   2.585   0.290   1.525
 1506SOL     OW 4652   0.371   0.024   3.562
 1506SOL    HW1 4653   0.365   0.075   3.481
 1506SOL    HW2 4654   0.360   0.088   3.632
 1507SOL     OW 4655   1.030   1.241   3.592
 1507SOL    HW1 4656   0.949   1.271   3.634
 1507SOL    HW2 4657   1.036   1.148   3.617
 1508SOL     OW 4658   0.334   1.313   3.846
 1508SOL    HW1 4659   0.363   1.235   3.799
 1508SOL    HW2 4660   0.251   1.337   3.804
 1509SOL     OW 4661   0.510   0.882   2.718
 1509SOL    HW1 4662   0.537   0.895   2.628
 1509SOL    HW2 4663   0.591   0.866   2.766
 1510SOL     OW 4664   0.588   2.981   3.876
 1510SOL    HW1 4665   0.665   2.924   3.877
 1510SOL    HW2 4666   0.515   2.923   3.855
 1511SOL     OW 4667   2.848   1.238   2.408
 1511SOL    HW1 4668   2.863   1.324   2.368
 1511SOL    HW2 4669   2.775   1.201   2.359
 1512SOL     OW 4670   2.921   3.725   2.558
 1512SOL    HW1 4671   3.000   3.755   2.513
 1512SOL    HW2 4672   2.929   3.630   2.560
 1513SOL     OW 4673   0.742   3.779   2.283
 1513SOL    HW1 4674   0.795   3.857   2.297
 1513SOL    HW2 4675   0.652   3.807   2.301
 1514SOL     OW 4676   1.025   1.999   3.593
 1514SOL    HW1 4677   0.978   2.081   3.609
 1514SOL    HW2 4678   1.020   1.952   3.676
 1515SOL     OW 4679   3.108   1.222   2.419
 1515SOL    HW1 4680   3.018   1.228   2.450
 1515SOL    HW2 4681   3.108   1.148   2.358
 1516SOL     OW 4682   0.227   3.110   2.117
 1516SOL    HW1 4683   0.287   3.098   2.191
 1516SOL    HW2 4684   0.259   3.050   2.050
 1517SOL     OW 4685   1.849   1.297   2.503
 1517SOL    HW1 4686   1.776   1.256   2.551
 1517SOL    HW2 4687   1.855   1.385   2.541
 1518SOL     OW 4688   3.734   2.026   3.377
 1518SOL    HW1 4689   3.792   2.002   3.450
 1518SOL    HW2 4690   3.729   2.121   3.381
 1519SOL     OW 4691   2.150   2.399   3.477
 1519SOL    HW1 4692   2.124   2.307   3.487
 1519SOL    HW2 4693   2.151   2.434   3.566
 1520SOL     OW 4694   1.261   1.420   1.351
 1520SOL    HW1 4695   1.240   1.429   1.444
 1520SOL    HW2 4696   1.303   1.335   1.344
 1521SOL     OW 4697   0.071   2.091   3.084
 1521SOL    HW1 4698   0.027   2.118   3.165
 1521SOL    HW2 4699   0.003   2.096   3.017
 1522SOL     OW 4700   0.616   0.085   0.144
 1522SOL    HW1 4701   0.706   0.056   0.160
 1522SOL    HW2 4702   0.562   0.024   0.195
 1523SOL     OW 4703   2.028   1.080   1.731
 1523SOL    HW1 4704   1.967   1.007   1.747
 1523SOL    HW2 4705   2.018   1.100   1.638
 1524SOL     OW 4706   2.884   2.373   3.780
 1524SOL    HW1 4707   2.976   2.385   3.804
 1524SOL    HW2 4708   2.868   2.439   3.712
 1525SOL     OW 4709   2.374   2.128   0.306
 1525SOL    HW1 4710   2.313   2.201   0.292
 1525SOL    HW2 4711   2.417   2.116   0.222
 1526SOL     OW 4712   1.379   1.189   1.318
 1526SOL    HW1 4713   1.395   1.117   1.258
 1526SOL    HW2 4714   1.383   1.148   1.405
 1527SOL     OW 4715   2.241   3.219   1.046
 1527SOL    HW1 4716   2.311   3.237   1.109
 1527SOL    HW2 4717   2.287   3.209   0.962
 1528SOL     OW 4718   3.602   3.608   0.839
 1528SOL    HW1 4719   3.613   3.699   0.814
 1528SOL    HW2 4720   3.672   3.562   0.792
 1529SOL     OW 4721   1.091   1.664   3.645
 1529SOL    HW1 4722   1.146   1.646   3.721
 1529SOL    HW2 4723   1.015   1.710   3.680
 1530SOL     OW 4724   2.660   0.150   3.684
 1530SOL    HW1 4725   2.745   0.106   3.680
 1530SOL    HW2 4726   2.638   0.151   3.778
 1531SOL     OW 4727   3.443   0.714   0.691
 1531SOL    HW1 4728   3.389   0.663   0.631
 1531SOL    HW2 4729   3.407   0.694   0.778
 1532SOL     OW 4730   1.780   1.053   1.063
 1532SOL    HW1 4731   1.692   1.017   1.058
 1532SOL    HW2 4732   1.772   1.129   1.122
 1533SOL     OW 4733   3.146   2.062   3.606
 1533SOL    HW1 4734   3.164   2.157   3.609
 1533SOL    HW2 4735   3.187   2.032   3.525
 1534SOL     OW 4736   1.917   2.728   0.518
 1534SOL    HW1 4737   1.903   2.797   0.583
 1534SOL    HW2 4738   1.986   2.762   0.461
 1535SOL     OW 4739   0.102   3.714   0.048
 1535SOL    HW1 4740   0.098   3.623   0.016
 1535SOL    HW2 4741   0.093   3.767  -0.031
 1536SOL     OW 4742   0.555   2.053   3.403
 1536SOL    HW1 4743   0.618   2.006   3.458
 1536SOL    HW2 4744   0.609   2.112   3.351
 1537SOL     OW 4745   0.617   3.894   3.338
 1537SOL    HW1 4746   0.617   3.931   3.426
 1537SOL    HW2 4747   0.559   3.952   3.288
 1538SOL     OW 4748   1.571   2.424   2.013
 1538SOL    HW1 4749   1.609   2.512   2.021
 1538SOL    HW2 4750   1.484   2.432   2.053
 1539SOL     OW 4751   0.046   3.790   2.742
 1539SOL    HW1 4752  -0.033   3.827   2.704
 1539SOL    HW2 4753   0.105   3.777   2.667
 1540SOL     OW 4754   2.985   2.530   1.139
 1540SOL    HW1 4755   3.042   2.576   1.200
 1540SOL    HW2 4756   3.007   2.438   1.149
 1541SOL     OW 4757   0.158   2.990   1.204
 1541SOL    HW1 4758   0.111   3.009   1.286
 1541SOL    HW2 4759   0.218   3.064   1.194
 1542SOL     OW 4760   0.614   3.233   2.871
 1542SOL    HW1 4761   0.609   3.138   2.865
 1542SOL    HW2 4762   0.532   3.259   2.914
 1543SOL     OW 4763   1.201   1.636   2.008
 1543SOL    HW1 4764   1.221   1.725   1.979
 1543SOL    HW2 4765   1.234   1.579   1.938
 1544SOL     OW 4766   1.911   3.273   1.257
 1544SOL    HW1 4767   1.869   3.271   1.343
 1544SOL    HW2 4768   1.946   3.361   1.248
 1545SOL     OW 4769   0.765   2.481   0.182
 1545SOL    HW1 4770   0.725   2.445   0.261
 1545SOL    HW2 4771   0.791   2.404   0.131
 1546SOL     OW 4772   3.598   3.862   0.268
 1546SOL    HW1 4773   3.562   3.899   0.187
 1546SOL    HW2 4774   3.686   3.833   0.244
 1547SOL     OW 4775   0.924   3.664   2.989
 1547SOL    HW1 4776   0.931   3.637   3.080
 1547SOL    HW2 4777   0.834   3.641   2.964
 1548SOL     OW 4778   1.492   2.850   0.934
 1548SOL    HW1 4779   1.490   2.802   0.851
 1548SOL    HW2 4780   1.409   2.897   0.937
 1549SOL     OW 4781   3.168   1.586   2.595
 1549SOL    HW1 4782   3.255   1.562   2.564
 1549SOL    HW2 4783   3.146   1.519   2.660
 1550SOL     OW 4784   3.090   1.718   3.391
 1550SOL    HW1 4785   3.109   1.624   3.401
 1550SOL    HW2 4786   3.092   1.732   3.296
 1551SOL     OW 4787   0.629   1.023   2.495
 1551SOL    HW1 4788   0.687   1.083   2.542
 1551SOL    HW2 4789   0.541   1.061   2.506
 1552SOL     OW 4790   3.533   3.711   1.764
 1552SOL    HW1 4791   3.502   3.799   1.784
 1552SOL    HW2 4792   3.501   3.656   1.835
 1553SOL     OW 4793   1.097   0.383   0.775
 1553SOL    HW1 4794   1.007   0.372   0.806
 1553SOL    HW2 4795   1.152   0.367   0.852
 1554SOL     OW 4796   3.627   3.276   2.716
 1554SOL    HW1 4797   3.708   3.308   2.756
 1554SOL    HW2 4798   3.581   3.356   2.690
 1555SOL     OW 4799   3.400   3.718   0.573
 1555SOL    HW1 4800   3.461   3.776   0.618
 1555SOL    HW2 4801   3.443   3.699   0.489
 1556SOL     OW 4802   3.061   2.721   3.286
 1556SOL    HW1 4803   3.051   2.627   3.273
 1556SOL    HW2 4804   3.136   2.729   3.345
 1557SOL     OW 4805   1.014   3.787   1.019
 1557SOL    HW1 4806   1.000   3.881   1.031
 1557SOL    HW2 4807   1.058   3.779   0.934
 1558SOL     OW 4808   2.053   3.173   1.703
 1558SOL    HW1 4809   2.115   3.161   1.631
 1558SOL    HW2 4810   1.969   3.189   1.659
 1559SOL     OW 4811   3.587   3.055   2.530
 1559SOL    HW1 4812   3.546   3.050   2.616
 1559SOL    HW2 4813   3.642   3.133   2.534
 1560SOL     OW 4814   0.051   3.521   2.305
 1560SOL    HW1 4815   0.098   3.471   2.239
 1560SOL    HW2 4816   0.042   3.461   2.379
 1561SOL     OW 4817   2.131   2.778   3.208
 1561SOL    HW1 4818   2.159   2.720   3.279
 1561SOL    HW2 4819   2.136   2.866   3.246
 1562SOL     OW 4820   2.603   2.317   3.829
 1562SOL    HW1 4821   2.586   2.411   3.828
 1562SOL    HW2 4822   2.698   2.309   3.825
 1563SOL     OW 4823   0.862   0.521   2.762
 1563SOL    HW1 4824   0.824   0.551   2.845
 1563SOL    HW2 4825   0.844   0.427   2.759
 1564SOL     OW 4826   1.812   1.590   0.651
 1564SOL    HW1 4827   1.868   1.667   0.645
 1564SOL    HW2 4828   1.744   1.605   0.585
 1565SOL     OW 4829   0.999   0.968   3.592
 1565SOL    HW1 4830   0.965   0.908   3.658
 1565SOL    HW2 4831   1.093   0.952   3.591
 1566SOL     OW 4832   1.345   1.411   1.905
 1566SOL    HW1 4833   1.387   1.469   1.969
 1566SOL    HW2 4834   1.364   1.323   1.936
 1567SOL     OW 4835   0.867   3.965   0.209
 1567SOL    HW1 4836   0.834   3.880   0.235
 1567SOL    HW2 4837   0.954   3.947   0.174
 1568SOL     OW 4838   1.119   0.582   1.618
 1568SOL    HW1 4839   1.109   0.498   1.661
 1568SOL    HW2 4840   1.072   0.572   1.535
 1569SOL     OW 4841   1.855   0.447   1.831
 1569SOL    HW1 4842   1.868   0.533   1.791
 1569SOL    HW2 4843   1.764   0.448   1.860
 1570SOL     OW 4844   2.398   1.370   1.989
 1570SOL    HW1 4845   2.424   1.457   1.960
 1570SOL    HW2 4846   2.476   1.316   1.975
 1571SOL     OW 4847   1.007   1.707   0.367
 1571SOL    HW1 4848   0.986   1.639   0.432
 1571SOL    HW2 4849   1.102   1.698   0.353
 1572SOL     OW 4850   0.813   1.303   3.101
 1572SOL    HW1 4851   0.902   1.325   3.129
 1572SOL    HW2 4852   0.759   1.320   3.178
 1573SOL     OW 4853   1.557   0.474   3.942
 1573SOL    HW1 4854   1.498   0.437   4.008
 1573SOL    HW2 4855   1.498   0.498   3.870
 1574SOL     OW 4856   1.660   3.701   0.594
 1574SOL    HW1 4857   1.616   3.671   0.515
 1574SOL    HW2 4858   1.710   3.625   0.624
 1575SOL     OW 4859   1.560   3.178   2.820
 1575SOL    HW1 4860   1.612   3.187   2.900
 1575SOL    HW2 4861   1.533   3.268   2.799
 1576SOL     OW 4862   1.301   0.092   1.453
 1576SOL    HW1 4863   1.301   0.141   1.371
 1576SOL    HW2 4864   1.380   0.039   1.449
 1577SOL     OW 4865   0.717   2.210   0.053
 1577SOL    HW1 4866   0.711   2.243  -0.037
 1577SOL    HW2 4867   0.744   2.119   0.044
 1578SOL     OW 4868   0.343   0.283   1.435
 1578SOL    HW1 4869   0.384   0.366   1.460
 1578SOL    HW2 4870   0.255   0.288   1.473
 1579SOL     OW 4871   2.405   3.216   0.789
 1579SOL    HW1 4872   2.386   3.156   0.717
 1579SOL    HW2 4873   2.449   3.162   0.854
 1580SOL     OW 4874   2.804   2.626   1.516
 1580SOL    HW1 4875   2.898   2.617   1.534
 1580SOL    HW2 4876   2.787   2.565   1.444
 1581SOL     OW 4877   1.584   3.405   2.331
 1581SOL    HW1 4878   1.586   3.309   2.333
 1581SOL    HW2 4879   1.529   3.426   2.255
 1582SOL     OW 4880   2.494   2.083   3.747
 1582SOL    HW1 4881   2.572   2.027   3.753
 1582SOL    HW2 4882   2.528   2.172   3.758
 1583SOL     OW 4883   2.454   2.721   0.414
 1583SOL    HW1 4884   2.519   2.651   0.423
 1583SOL    HW2 4885   2.497   2.798   0.453
 1584SOL     OW 4886   2.552   0.833   0.364
 1584SOL    HW1 4887   2.523   0.747   0.334
 1584SOL    HW2 4888   2.474   0.889   0.359
 1585SOL     OW 4889   2.789   2.310   2.947
 1585SOL    HW1 4890   2.802   2.370   3.021
 1585SOL    HW2 4891   2.848   2.342   2.879
 1586SOL     OW 4892   1.975   0.996   3.491
 1586SOL    HW1 4893   1.903   0.947   3.452
 1586SOL    HW2 4894   2.047   0.986   3.428
 1587SOL     OW 4895   1.566   3.592   0.341
 1587SOL    HW1 4896   1.548   3.581   0.248
 1587SOL    HW2 4897   1.528   3.515   0.382
 1588SOL     OW 4898   3.233   3.616   1.748
 1588SOL    HW1 4899   3.314   3.568   1.769
 1588SOL    HW2 4900   3.169   3.548   1.730
 1589SOL     OW 4901   1.936   3.411   3.206
 1589SOL    HW1 4902   1.981   3.441   3.127
 1589SOL    HW2 4903   1.949   3.481   3.270
 1590SOL     OW 4904   3.538   3.793   3.714
 1590SOL    HW1 4905   3.446   3.817   3.732
 1590SOL    HW2 4906   3.544   3.792   3.619
 1591SOL     OW 4907   0.759   1.572   3.234
 1591SOL    HW1 4908   0.767   1.664   3.258
 1591SOL    HW2 4909   0.807   1.563   3.152
 1592SOL     OW 4910   1.789   2.858   1.744
 1592SOL    HW1 4911   1.759   2.949   1.740
 1592SOL    HW2 4912   1.885   2.865   1.742
 1593SOL     OW 4913   0.046   0.495   3.587
 1593SOL    HW1 4914  -0.022   0.452   3.536
 1593SOL    HW2 4915   0.117   0.509   3.524
 1594SOL     OW 4916   1.450   3.669   3.446
 1594SOL    HW1 4917   1.480   3.743   3.500
 1594SOL    HW2 4918   1.355   3.679   3.442
 1595SOL     OW 4919   1.890   2.804   2.600
 1595SOL    HW1 4920   1.903   2.887   2.645
 1595SOL    HW2 4921   1.796   2.800   2.582
 1596SOL     OW 4922   2.639   1.220   2.211
 1596SOL    HW1 4923   2.593   1.137   2.208
 1596SOL    HW2 4924   2.596   1.269   2.281
 1597SOL     OW 4925   1.098   2.192   2.246
 1597SOL    HW1 4926   1.016   2.210   2.291
 1597SOL    HW2 4927   1.148   2.138   2.307
 1598SOL     OW 4928   3.712   3.463   2.090
 1598SOL    HW1 4929   3.783   3.432   2.146
 1598SOL    HW2 4930   3.754   3.479   2.005
 1599SOL     OW 4931   0.431   0.443   1.624
 1599SOL    HW1 4932   0.366   0.504   1.661
 1599SOL    HW2 4933   0.452   0.385   1.697
 1600SOL     OW 4934   0.153   1.996   1.408
 1600SOL    HW1 4935   0.124   2.032   1.493
 1600SOL    HW2 4936   0.170   2.073   1.354
 1601SOL     OW 4937   0.916   3.419   2.409
 1601SOL    HW1 4938   0.904   3.477   2.333
 1601SOL    HW2 4939   1.011   3.416   2.422
 1602SOL     OW 4940   0.371  -0.003   1.475
 1602SOL    HW1 4941   0.316   0.073   1.492
 1602SOL    HW2 4942   0.374  -0.050   1.558
 1603SOL     OW 4943   1.353   0.128   0.285
 1603SOL    HW1 4944   1.373   0.101   0.375
 1603SOL    HW2 4945   1.400   0.065   0.230
 1604SOL     OW 4946   3.575   3.671   1.121
 1604SOL    HW1 4947   3.518   3.663   1.044
 1604SOL    HW2 4948   3.600   3.764   1.123
 1605SOL     OW 4949   0.399   3.366   3.036
 1605SOL    HW1 4950   0.446   3.341   3.116
 1605SOL    HW2 4951   0.337   3.295   3.022
 1606SOL     OW 4952   1.298   2.969   1.539
 1606SOL    HW1 4953   1.288   2.903   1.608
 1606SOL    HW2 4954   1.382   2.949   1.498
 1607SOL     OW 4955   2.157   3.187   2.644
 1607SOL    HW1 4956   2.186   3.261   2.698
 1607SOL    HW2 4957   2.215   3.188   2.568
 1608SOL     OW 4958   3.530   3.292   1.829
 1608SOL    HW1 4959   3.464   3.273   1.762
 1608SOL    HW2 4960   3.512   3.383   1.855
 1609SOL     OW 4961   2.000   2.636   2.954
 1609SOL    HW1 4962   1.953   2.571   3.006
 1609SOL    HW2 4963   1.990   2.718   3.002
 1610SOL     OW 4964   2.879   3.798   1.387
 1610SOL    HW1 4965   2.875   3.801   1.483
 1610SOL    HW2 4966   2.851   3.709   1.365
 1611SOL     OW 4967   0.294   2.863   0.681
 1611SOL    HW1 4968   0.278   2.870   0.587
 1611SOL    HW2 4969   0.241   2.934   0.719
 1612SOL     OW 4970   1.531   1.509   2.978
 1612SOL    HW1 4971   1.489   1.592   2.955
 1612SOL    HW2 4972   1.578   1.528   3.060
 1613SOL     OW 4973   3.109   2.390   3.010
 1613SOL    HW1 4974   3.156   2.445   3.073
 1613SOL    HW2 4975   3.033   2.357   3.059
 1614SOL     OW 4976   1.386   2.561   3.679
 1614SOL    HW1 4977   1.341   2.489   3.635
 1614SOL    HW2 4978   1.316   2.618   3.712
 1615SOL     OW 4979   2.202   2.486   2.512
 1615SOL    HW1 4980   2.286   2.501   2.470
 1615SOL    HW2 4981   2.200   2.549   2.585
 1616SOL     OW 4982   2.059   2.470   0.593
 1616SOL    HW1 4983   2.090   2.479   0.683
 1616SOL    HW2 4984   2.025   2.557   0.570
 1617SOL     OW 4985   1.543   0.874   2.787
 1617SOL    HW1 4986   1.511   0.825   2.711
 1617SOL    HW2 4987   1.467   0.925   2.816
 1618SOL     OW 4988   2.073   0.531   0.606
 1618SOL    HW1 4989   2.132   0.499   0.538
 1618SOL    HW2 4990   2.078   0.626   0.599
 1619SOL     OW 4991   2.893   3.288   1.438
 1619SOL    HW1 4992   2.799   3.269   1.446
 1619SOL    HW2 4993   2.907   3.299   1.344
 1620SOL     OW 4994   3.427   1.539   2.462
 1620SOL    HW1 4995   3.410   1.604   2.393
 1620SOL    HW2 4996   3.442   1.457   2.415
 1621SOL     OW 4997   0.832   0.979   2.325
 1621SOL    HW1 4998   0.748   1.012   2.356
 1621SOL    HW2 4999   0.896   1.043   2.356
 1622SOL     OW 5000   3.266   1.052   0.260
 1622SOL    HW1 5001   3.256   1.072   0.167
 1622SOL    HW2 5002   3.177   1.034   0.290
 1623SOL     OW 5003   1.342   3.706   2.829
 1623SOL    HW1 5004   1.373   3.761   2.757
 1623SOL    HW2 5005   1.262   3.665   2.795
 1624SOL     OW 5006   2.635   3.299   1.469
 1624SOL    HW1 5007   2.600   3.384   1.443
 1624SOL    HW2 5008   2.577   3.270   1.540
 1625SOL     OW 5009   2.889   0.858   0.622
 1625SOL    HW1 5010   2.983   0.845   0.635
 1625SOL    HW2 5011   2.870   0.811   0.541
 1626SOL     OW 5012   3.514   2.086   1.984
 1626SOL    HW1 5013   3.521   2.075   2.079
 1626SOL    HW2 5014   3.430   2.130   1.971
 1627SOL     OW 5015   3.134   2.709   2.543
 1627SOL    HW1 5016   3.111   2.666   2.625
 1627SOL    HW2 5017   3.221   2.747   2.559
 1628SOL     OW 5018   2.058   3.930   1.179
 1628SOL    HW1 5019   2.067   4.025   1.170
 1628SOL    HW2 5020   1.965   3.914   1.161
 1629SOL     OW 5021   1.476   1.570   2.129
 1629SOL    HW1 5022   1.388   1.600   2.149
 1629SOL    HW2 5023   1.521   1.572   2.214
 1630SOL     OW 5024   0.406   1.053   3.798
 1630SOL    HW1 5025   0.422   1.014   3.885
 1630SOL    HW2 5026   0.467   1.007   3.740
 1631SOL     OW 5027   3.284   0.419   0.388
 1631SOL    HW1 5028   3.273   0.498   0.441
 1631SOL    HW2 5029   3.284   0.348   0.452
 1632SOL     OW 5030   0.184   0.567   2.096
 1632SOL    HW1 5031   0.229   0.647   2.067
 1632SOL    HW2 5032   0.219   0.551   2.183
 1633SOL     OW 5033   2.544   3.589   2.859
 1633SOL    HW1 5034   2.545   3.634   2.774
 1633SOL    HW2 5035   2.459   3.611   2.897
 1634SOL     OW 5036   2.350   1.716   1.899
 1634SOL    HW1 5037   2.343   1.750   1.809
 1634SOL    HW2 5038   2.267   1.739   1.940
 1635SOL     OW 5039   1.880   2.970   0.279
 1635SOL    HW1 5040   1.832   2.975   0.362
 1635SOL    HW2 5041   1.824   3.013   0.216
 1636SOL     OW 5042   2.269   0.533   0.399
 1636SOL    HW1 5043   2.342   0.574   0.352
 1636SOL    HW2 5044   2.192   0.553   0.345
 1637SOL     OW 5045   2.558   0.901   2.938
 1637SOL    HW1 5046   2.490   0.838   2.913
 1637SOL    HW2 5047   2.555   0.967   2.870
 1638SOL     OW 5048   2.826   0.237   0.077
 1638SOL    HW1 5049   2.881   0.188   0.016
 1638SOL    HW2 5050   2.825   0.326   0.041
 1639SOL     OW 5051   0.882   3.181   1.636
 1639SOL    HW1 5052   0.851   3.270   1.621
 1639SOL    HW2 5053   0.864   3.135   1.554
 1640SOL     OW 5054   3.731   0.240   0.622
 1640SOL    HW1 5055   3.663   0.201   0.568
 1640SOL    HW2 5056   3.809   0.241   0.566
 1641SOL     OW 5057   3.741   2.200   1.319
 1641SOL    HW1 5058   3.744   2.157   1.234
 1641SOL    HW2 5059   3.723   2.129   1.381
 1642SOL     OW 5060   2.016   0.432   3.569
 1642SOL    HW1 5061   2.080   0.376   3.612
 1642SOL    HW2 5062   2.025   0.517   3.612
 1643SOL     OW 5063   3.317   0.688   2.209
 1643SOL    HW1 5064   3.236   0.651   2.175
 1643SOL    HW2 5065   3.299   0.708   2.301
 1644SOL     OW 5066   0.883   3.047   2.940
 1644SOL    HW1 5067   0.966   3.016   2.905
 1644SOL    HW2 5068   0.817   2.997   2.891
 1645SOL     OW 5069  -0.006   2.749   2.213
 1645SOL    HW1 5070   0.081   2.741   2.173
 1645SOL    HW2 5071  -0.039   2.833   2.183
 1646SOL     OW 5072   1.073   2.057   3.153
 1646SOL    HW1 5073   1.056   1.995   3.224
 1646SOL    HW2 5074   1.095   2.139   3.198
 1647SOL     OW 5075   0.137   3.092   0.700
 1647SOL    HW1 5076   0.095   3.130   0.776
 1647SOL    HW2 5077   0.065   3.054   0.649
 1648SOL     OW 5078   1.518   3.880   2.649
 1648SOL    HW1 5079   1.453   3.923   2.704
 1648SOL    HW2 5080   1.602   3.904   2.687
 1649SOL     OW 5081   1.633   2.624   3.177
 1649SOL    HW1 5082   1.574   2.585   3.241
 1649SOL    HW2 5083   1.583   2.697   3.141
 1650SOL     OW 5084   3.805   1.097   3.855
 1650SOL    HW1 5085   3.891   1.057   3.868
 1650SOL    HW2 5086   3.744   1.024   3.857
 1651SOL     OW 5087   3.041   2.928   1.958
 1651SOL    HW1 5088   3.101   2.963   1.893
 1651SOL    HW2 5089   3.003   3.006   2.000
 1652SOL     OW 5090   2.422   0.830   3.772
 1652SOL    HW1 5091   2.381   0.901   3.722
 1652SOL    HW2 5092   2.410   0.752   3.717
 1653SOL     OW 5093   1.955   1.171   3.912
 1653SOL    HW1 5094   2.039   1.131   3.889
 1653SOL    HW2 5095   1.910   1.105   3.964
 1654SOL     OW 5096   2.679   1.864   1.056
 1654SOL    HW1 5097   2.719   1.932   1.001
 1654SOL    HW2 5098   2.637   1.804   0.995
 1655SOL     OW 5099   2.801   0.542   1.427
 1655SOL    HW1 5100   2.871   0.485   1.394
 1655SOL    HW2 5101   2.760   0.578   1.349
 1656SOL     OW 5102   0.298   2.215   1.781
 1656SOL    HW1 5103   0.206   2.232   1.763
 1656SOL    HW2 5104   0.297   2.153   1.854
 1657SOL     OW 5105   3.672   2.092   1.584
 1657SOL    HW1 5106   3.681   2.144   1.664
 1657SOL    HW2 5107   3.579   2.098   1.562
 1658SOL     OW 5108   3.603   2.215   0.902
 1658SOL    HW1 5109   3.552   2.175   0.831
 1658SOL    HW2 5110   3.617   2.305   0.874
 1659SOL     OW 5111   0.095   1.350   1.153
 1659SOL    HW1 5112   0.168   1.339   1.092
 1659SOL    HW2 5113   0.018   1.358   1.097
 1660SOL     OW 5114   1.496   0.689   2.524
 1660SOL    HW1 5115   1.560   0.628   2.560
 1660SOL    HW2 5116   1.432   0.633   2.479
 1661SOL     OW 5117   2.022   2.553   0.250
 1661SOL    HW1 5118   1.943   2.506   0.279
 1661SOL    HW2 5119   1.999   2.587   0.164
 1662SOL     OW 5120   0.679   3.875   1.170
 1662SOL    HW1 5121   0.727   3.947   1.212
 1662SOL    HW2 5122   0.613   3.849   1.234
 1663SOL     OW 5123   1.662   2.931   2.424
 1663SOL    HW1 5124   1.692   2.841   2.409
 1663SOL    HW2 5125   1.693   2.980   2.348
 1664SOL     OW 5126   1.072   2.188   1.951
 1664SOL    HW1 5127   1.166   2.198   1.935
 1664SOL    HW2 5128   1.063   2.193   2.047
 1665SOL     OW 5129   0.443   2.799   2.543
 1665SOL    HW1 5130   0.415   2.722   2.493
 1665SOL    HW2 5131   0.487   2.762   2.620
 1666SOL     OW 5132   3.796   0.805   1.606
 1666SOL    HW1 5133   3.706   0.825   1.580
 1666SOL    HW2 5134   3.836   0.769   1.527
 1667SOL     OW 5135   2.739   2.390   2.166
 1667SOL    HW1 5136   2.727   2.464   2.106
 1667SOL    HW2 5137   2.748   2.314   2.109
 1668SOL     OW 5138   1.193   1.460   3.481
 1668SOL    HW1 5139   1.158   1.537   3.525
 1668SOL    HW2 5140   1.127   1.392   3.495
 1669SOL     OW 5141   3.026   0.997   2.204
 1669SOL    HW1 5142   3.106   1.025   2.158
 1669SOL    HW2 5143   2.965   0.975   2.134
 1670SOL     OW 5144   0.277   2.218   3.754
 1670SOL    HW1 5145   0.281   2.284   3.823
 1670SOL    HW2 5146   0.241   2.140   3.796
 1671SOL     OW 5147   2.967   0.938   3.551
 1671SOL    HW1 5148   2.875   0.916   3.535
 1671SOL    HW2 5149   2.979   0.921   3.645
 1672SOL     OW 5150   0.755   1.919   3.557
 1672SOL    HW1 5151   0.783   1.863   3.485
 1672SOL    HW2 5152   0.785   1.875   3.636
 1673SOL     OW 5153   1.018   0.942   2.116
 1673SOL    HW1 5154   0.954   0.937   2.186
 1673SOL    HW2 5155   0.979   0.892   2.044
 1674SOL     OW 5156   3.266   1.588   0.882
 1674SOL    HW1 5157   3.224   1.547   0.958
 1674SOL    HW2 5158   3.282   1.678   0.910
 1675SOL     OW 5159   3.923   1.643   0.047
 1675SOL    HW1 5160   3.848   1.690   0.009
 1675SOL    HW2 5161   3.993   1.654  -0.017
 1676SOL     OW 5162   2.320   0.670   3.977
 1676SOL    HW1 5163   2.330   0.588   3.928
 1676SOL    HW2 5164   2.342   0.738   3.913
 1677SOL     OW 5165   3.010   1.045   0.310
 1677SOL    HW1 5166   2.943   1.071   0.247
 1677SOL    HW2 5167   2.975   1.072   0.395
 1678SOL     OW 5168   3.147   0.744   2.801
 1678SOL    HW1 5169   3.086   0.811   2.829
 1678SOL    HW2 5170   3.201   0.725   2.878
 1679SOL     OW 5171   0.423   3.761   2.269
 1679SOL    HW1 5172   0.374   3.727   2.194
 1679SOL    HW2 5173   0.395   3.708   2.343
 1680SOL     OW 5174   0.778   0.664   1.258
 1680SOL    HW1 5175   0.740   0.611   1.329
 1680SOL    HW2 5176   0.752   0.754   1.278
 1681SOL     OW 5177   1.253   3.832   2.108
 1681SOL    HW1 5178   1.159   3.833   2.090
 1681SOL    HW2 5179   1.289   3.905   2.057
 1682SOL     OW 5180   2.365   0.548   1.847
 1682SOL    HW1 5181   2.403   0.625   1.805
 1682SOL    HW2 5182   2.349   0.576   1.937
 1683SOL     OW 5183   1.859   0.734   0.358
 1683SOL    HW1 5184   1.861   0.828   0.373
 1683SOL    HW2 5185   1.781   0.720   0.305
 1684SOL     OW 5186   3.566   2.406   3.136
 1684SOL    HW1 5187   3.545   2.363   3.219
 1684SOL    HW2 5188   3.544   2.341   3.069
 1685SOL     OW 5189   2.639   2.920   1.214
 1685SOL    HW1 5190   2.681   2.837   1.192
 1685SOL    HW2 5191   2.582   2.900   1.288
 1686SOL     OW 5192   0.643   2.642   2.315
 1686SOL    HW1 5193   0.631   2.699   2.392
 1686SOL    HW2 5194   0.672   2.559   2.351
 1687SOL     OW 5195   1.742   0.575   3.299
 1687SOL    HW1 5196   1.665   0.564   3.354
 1687SOL    HW2 5197   1.796   0.640   3.344
 1688SOL     OW 5198   0.992   3.860   3.272
 1688SOL    HW1 5199   0.960   3.769   3.269
 1688SOL    HW2 5200   0.951   3.902   3.197
 1689SOL     OW 5201   0.125   1.858   2.883
 1689SOL    HW1 5202   0.136   1.943   2.928
 1689SOL    HW2 5203   0.130   1.880   2.790
 1690SOL     OW 5204   0.614   3.877   2.967
 1690SOL    HW1 5205   0.585   3.909   2.882
 1690SOL    HW2 5206   0.543   3.902   3.027
 1691SOL     OW 5207   2.300   1.662   2.858
 1691SOL    HW1 5208   2.269   1.732   2.800
 1691SOL    HW2 5209   2.395   1.666   2.851
 1692SOL     OW 5210   1.757   3.887   2.805
 1692SOL    HW1 5211   1.813   3.820   2.765
 1692SOL    HW2 5212   1.816   3.937   2.861
 1693SOL     OW 5213   2.144   3.055   3.093
 1693SOL    HW1 5214   2.123   3.127   3.153
 1693SOL    HW2 5215   2.240   3.057   3.086
 1694SOL     OW 5216   0.309   1.728   2.272
 1694SOL    HW1 5217   0.314   1.814   2.314
 1694SOL    HW2 5218   0.301   1.747   2.179
 1695SOL     OW 5219   2.677   1.174   3.565
 1695SOL    HW1 5220   2.672   1.080   3.549
 1695SOL    HW2 5221   2.765   1.199   3.538
 1696SOL     OW 5222   0.103   3.363   3.935
 1696SOL    HW1 5223   0.090   3.271   3.959
 1696SOL    HW2 5224   0.154   3.360   3.854
 1697SOL     OW 5225   0.313   3.868   0.611
 1697SOL    HW1 5226   0.368   3.880   0.533
 1697SOL    HW2 5227   0.375   3.858   0.683
 1698SOL     OW 5228   1.194   2.829   2.813
 1698SOL    HW1 5229   1.204   2.820   2.908
 1698SOL    HW2 5230   1.270   2.881   2.787
 1699SOL     OW 5231   3.025   3.208   2.997
 1699SOL    HW1 5232   3.046   3.160   2.917
 1699SOL    HW2 5233   3.106   3.205   3.049
 1700SOL     OW 5234   2.518   2.463   3.554
 1700SOL    HW1 5235   2.571   2.385   3.537
 1700SOL    HW2 5236   2.434   2.429   3.585
 1701SOL     OW 5237   1.347   0.038   2.850
 1701SOL    HW1 5238   1.423   0.013   2.903
 1701SOL    HW2 5239   1.330   0.129   2.874
 1702SOL     OW 5240   2.260   2.882   1.013
 1702SOL    HW1 5241   2.226   2.852   0.928
 1702SOL    HW2 5242   2.266   2.977   1.004
 1703SOL     OW 5243   0.057   1.418   3.803
 1703SOL    HW1 5244   0.000   1.359   3.852
 1703SOL    HW2 5245  -0.003   1.473   3.753
 1704SOL     OW 5246   0.667   1.952   3.866
 1704SOL    HW1 5247   0.605   1.879   3.861
 1704SOL    HW2 5248   0.745   1.919   3.822
 1705SOL     OW 5249   3.178   0.662   1.340
 1705SOL    HW1 5250   3.271   0.653   1.322
 1705SOL    HW2 5251   3.143   0.574   1.328
 1706SOL     OW 5252   0.378   2.206   3.507
 1706SOL    HW1 5253   0.454   2.149   3.494
 1706SOL    HW2 5254   0.354   2.192   3.599
 1707SOL     OW 5255   3.463   1.522   3.555
 1707SOL    HW1 5256   3.481   1.509   3.462
 1707SOL    HW2 5257   3.518   1.596   3.580
 1708SOL     OW 5258   2.521   2.042   2.254
 1708SOL    HW1 5259   2.527   1.956   2.212
 1708SOL    HW2 5260   2.589   2.040   2.322
 1709SOL     OW 5261   2.645   3.198   3.249
 1709SOL    HW1 5262   2.686   3.184   3.163
 1709SOL    HW2 5263   2.651   3.112   3.292
 1710SOL     OW 5264   1.353   2.086   2.003
 1710SOL    HW1 5265   1.425   2.039   2.044
 1710SOL    HW2 5266   1.275   2.052   2.046
 1711SOL     OW 5267   0.246   0.075   1.878
 1711SOL    HW1 5268   0.251   0.087   1.973
 1711SOL    HW2 5269   0.153   0.079   1.858
 1712SOL     OW 5270   0.490   3.152   2.343
 1712SOL    HW1 5271   0.555   3.221   2.330
 1712SOL    HW2 5272   0.458   3.166   2.432
 1713SOL     OW 5273   0.815   3.169   2.515
 1713SOL    HW1 5274   0.842   3.260   2.514
 1713SOL    HW2 5275   0.846   3.134   2.431
 1714SOL     OW 5276   1.038   2.544   1.420
 1714SOL    HW1 5277   1.059   2.627   1.378
 1714SOL    HW2 5278   0.961   2.563   1.474
 1715SOL     OW 5279   3.192   1.980   2.230
 1715SOL    HW1 5280   3.141   1.909   2.269
 1715SOL    HW2 5281   3.128   2.047   2.207
 1716SOL     OW 5282   0.861   0.310   0.915
 1716SOL    HW1 5283   0.805   0.385   0.895
 1716SOL    HW2 5284   0.814   0.235   0.879
 1717SOL     OW 5285   2.246   3.215   1.468
 1717SOL    HW1 5286   2.253   3.155   1.394
 1717SOL    HW2 5287   2.195   3.289   1.435
 1718SOL     OW 5288   1.423   1.249   0.437
 1718SOL    HW1 5289   1.397   1.157   0.434
 1718SOL    HW2 5290   1.341   1.297   0.450
 1719SOL     OW 5291   0.765   2.748   3.902
 1719SOL    HW1 5292   0.793   2.702   3.981
 1719SOL    HW2 5293   0.746   2.679   3.838
 1720SOL     OW 5294   0.980   3.671   0.665
 1720SOL    HW1 5295   1.033   3.625   0.730
 1720SOL    HW2 5296   0.979   3.762   0.696
 1721SOL     OW 5297   2.241   3.326   3.126
 1721SOL    HW1 5298   2.177   3.308   3.195
 1721SOL    HW2 5299   2.312   3.372   3.171
 1722SOL     OW 5300   0.962   1.846   1.776
 1722SOL    HW1 5301   0.972   1.818   1.867
 1722SOL    HW2 5302   1.042   1.816   1.732
 1723SOL     OW 5303   1.038   3.389   2.097
 1723SOL    HW1 5304   1.047   3.457   2.031
 1723SOL    HW2 5305   0.976   3.327   2.060
 1724SOL     OW 5306   0.275   0.248   1.170
 1724SOL    HW1 5307   0.303   0.261   1.261
 1724SOL    HW2 5308   0.352   0.213   1.126
 1725SOL     OW 5309   3.611   3.690   3.209
 1725SOL    HW1 5310   3.550   3.658   3.276
 1725SOL    HW2 5311   3.675   3.620   3.199
 1726SOL     OW 5312   0.095   0.128   3.232
 1726SOL    HW1 5313   0.168   0.079   3.270
 1726SOL    HW2 5314   0.060   0.071   3.164
 1727SOL     OW 5315   1.302   2.968   3.654
 1727SOL    HW1 5316   1.261   3.007   3.731
 1727SOL    HW2 5317   1.294   2.873   3.668
 1728SOL     OW 5318   2.397   0.340   0.509
 1728SOL    HW1 5319   2.415   0.403   0.579
 1728SOL    HW2 5320   2.331   0.383   0.455
 1729SOL     OW 5321   1.434   2.681   2.998
 1729SOL    HW1 5322   1.387   2.599   3.018
 1729SOL    HW2 5323   1.374   2.750   3.027
 1730SOL     OW 5324   0.242   2.773   3.689
 1730SOL    HW1 5325   0.213   2.713   3.620
 1730SOL    HW2 5326   0.216   2.859   3.658
 1731SOL     OW 5327   3.507   0.486   3.340
 1731SOL    HW1 5328   3.498   0.508   3.247
 1731SOL    HW2 5329   3.601   0.489   3.357
 1732SOL     OW 5330   0.229   3.520   3.695
 1732SOL    HW1 5331   0.298   3.582   3.671
 1732SOL    HW2 5332   0.243   3.445   3.636
 1733SOL     OW 5333   2.663   3.501   0.120
 1733SOL    HW1 5334   2.697   3.541   0.199
 1733SOL    HW2 5335   2.573   3.477   0.142
 1734SOL     OW 5336   2.596   0.488   1.613
 1734SOL    HW1 5337   2.575   0.577   1.643
 1734SOL    HW2 5338   2.677   0.498   1.563
 1735SOL     OW 5339   1.765   1.912   3.396
 1735SOL    HW1 5340   1.753   1.934   3.303
 1735SOL    HW2 5341   1.703   1.968   3.442
 1736SOL     OW 5342   1.160   1.702   2.426
 1736SOL    HW1 5343   1.162   1.614   2.464
 1736SOL    HW2 5344   1.125   1.757   2.495
 1737SOL     OW 5345   3.140   2.572   2.794
 1737SOL    HW1 5346   3.171   2.510   2.860
 1737SOL    HW2 5347   3.054   2.539   2.769
 1738SOL     OW 5348   2.522   1.592   2.664
 1738SOL    HW1 5349   2.504   1.682   2.637
 1738SOL    HW2 5350   2.581   1.558   2.596
 1739SOL     OW 5351   1.804   0.692   1.710
 1739SOL    HW1 5352   1.718   0.719   1.676
 1739SOL    HW2 5353   1.862   0.765   1.686
 1740SOL     OW 5354   0.925   2.714   0.232
 1740SOL    HW1 5355   0.974   2.674   0.303
 1740SOL    HW2 5356   0.853   2.652   0.214
 1741SOL     OW 5357   3.674   2.671   2.886
 1741SOL    HW1 5358   3.619   2.638   2.815
 1741SOL    HW2 5359   3.764   2.665   2.852
 1742SOL     OW 5360   1.870   2.198   0.950
 1742SOL    HW1 5361   1.884   2.293   0.951
 1742SOL    HW2 5362   1.808   2.183   1.021
 1743SOL     OW 5363   3.756   1.586   1.225
 1743SOL    HW1 5364   3.778   1.669   1.267
 1743SOL    HW2 5365   3.827   1.571   1.163
 1744SOL     OW 5366   3.713   3.263   0.239
 1744SOL    HW1 5367   3.718   3.267   0.335
 1744SOL    HW2 5368   3.620   3.247   0.221
 1745SOL     OW 5369   0.011   0.254   1.149
 1745SOL    HW1 5370   0.018   0.159   1.136
 1745SOL    HW2 5371   0.100   0.282   1.171
 1746SOL     OW 5372   1.659   3.090   0.457
 1746SOL    HW1 5373   1.570   3.110   0.484
 1746SOL    HW2 5374   1.673   3.142   0.378
 1747SOL     OW 5375   1.489   3.229   2.094
 1747SOL    HW1 5376   1.440   3.264   2.168
 1747SOL    HW2 5377   1.422   3.204   2.031
 1748SOL     OW 5378   2.731   3.194   3.932
 1748SOL    HW1 5379   2.707   3.108   3.966
 1748SOL    HW2 5380   2.678   3.255   3.984
 1749SOL     OW 5381   3.234   0.608   3.040
 1749SOL    HW1 5382   3.142   0.614   3.064
 1749SOL    HW2 5383   3.251   0.515   3.030
 1750SOL     OW 5384   3.829   1.639   2.862
 1750SOL    HW1 5385   3.793   1.598   2.783
 1750SOL    HW2 5386   3.784   1.723   2.869
 1751SOL     OW 5387   0.809   3.879   1.720
 1751SOL    HW1 5388   0.778   3.963   1.687
 1751SOL    HW2 5389   0.884   3.858   1.665
 1752SOL     OW 5390   1.510   2.148   3.842
 1752SOL    HW1 5391   1.479   2.058   3.831
 1752SOL    HW2 5392   1.447   2.188   3.902
 1753SOL     OW 5393   3.424   2.913   3.266
 1753SOL    HW1 5394   3.375   2.861   3.330
 1753SOL    HW2 5395   3.428   2.858   3.188
 1754SOL     OW 5396   0.716   3.663   0.701
 1754SOL    HW1 5397   0.806   3.632   0.698
 1754SOL    HW2 5398   0.713   3.720   0.778
 1755SOL     OW 5399   0.144   0.484   0.559
 1755SOL    HW1 5400   0.197   0.450   0.632
 1755SOL    HW2 5401   0.103   0.562   0.595
 1756SOL     OW 5402   2.440   1.883   3.265
 1756SOL    HW1 5403   2.511   1.829   3.299
 1756SOL    HW2 5404   2.362   1.829   3.276
 1757SOL     OW 5405   1.359   3.010   0.376
 1757SOL    HW1 5406   1.295   3.054   0.319
 1757SOL    HW2 5407   1.405   2.950   0.318
 1758SOL     OW 5408   2.702   3.081   0.604
 1758SOL    HW1 5409   2.784   3.096   0.651
 1758SOL    HW2 5410   2.655   3.016   0.657
 1759SOL     OW 5411   3.288   2.725   3.422
 1759SOL    HW1 5412   3.328   2.752   3.505
 1759SOL    HW2 5413   3.329   2.641   3.401
 1760SOL     OW 5414   2.303   2.079   2.854
 1760SOL    HW1 5415   2.321   2.165   2.816
 1760SOL    HW2 5416   2.280   2.024   2.780
 1761SOL     OW 5417   0.078   0.186   2.552
 1761SOL    HW1 5418   0.145   0.123   2.525
 1761SOL    HW2 5419   0.104   0.269   2.512
 1762SOL     OW 5420   2.111   1.954   0.418
 1762SOL    HW1 5421   2.122   1.932   0.325
 1762SOL    HW2 5422   2.087   2.047   0.418
 1763SOL     OW 5423   2.123   2.803   2.506
 1763SOL    HW1 5424   2.169   2.835   2.583
 1763SOL    HW2 5425   2.032   2.793   2.535
 1764SOL     OW 5426   3.806   3.107   2.192
 1764SOL    HW1 5427   3.867   3.040   2.161
 1764SOL    HW2 5428   3.729   3.097   2.137
 1765SOL     OW 5429   1.354   1.751   2.848
 1765SOL    HW1 5430   1.424   1.815   2.839
 1765SOL    HW2 5431   1.301   1.783   2.921
 1766SOL     OW 5432   1.318   0.184   1.189
 1766SOL    HW1 5433   1.270   0.232   1.121
 1766SOL    HW2 5434   1.410   0.204   1.171
 1767SOL     OW 5435   0.613   0.806   1.529
 1767SOL    HW1 5436   0.545   0.818   1.595
 1767SOL    HW2 5437   0.568   0.823   1.446
 1768SOL     OW 5438   0.176   3.684   3.205
 1768SOL    HW1 5439   0.240   3.641   3.261
 1768SOL    HW2 5440   0.112   3.722   3.265
 1769SOL     OW 5441   3.302   2.249   0.428
 1769SOL    HW1 5442   3.260   2.334   0.444
 1769SOL    HW2 5443   3.393   2.272   0.405
 1770SOL     OW 5444   3.728   2.058   1.093
 1770SOL    HW1 5445   3.646   2.087   1.053
 1770SOL    HW2 5446   3.795   2.083   1.029
 1771SOL     OW 5447   1.655   3.229   1.814
 1771SOL    HW1 5448   1.713   3.182   1.874
 1771SOL    HW2 5449   1.615   3.297   1.869
 1772SOL     OW 5450   2.371   0.394   1.335
 1772SOL    HW1 5451   2.442   0.380   1.273
 1772SOL    HW2 5452   2.414   0.396   1.420
 1773SOL     OW 5453   2.835   1.584   0.605
 1773SOL    HW1 5454   2.893   1.557   0.676
 1773SOL    HW2 5455   2.806   1.503   0.564
 1774SOL     OW 5456   2.777   0.684   2.330
 1774SOL    HW1 5457   2.845   0.721   2.387
 1774SOL    HW2 5458   2.779   0.738   2.251
 1775SOL     OW 5459   1.866   2.036   2.682
 1775SOL    HW1 5460   1.946   2.061   2.636
 1775SOL    HW2 5461   1.840   1.953   2.642
 1776SOL     OW 5462   3.826   0.465   0.739
 1776SOL    HW1 5463   3.798   0.481   0.829
 1776SOL    HW2 5464   3.812   0.371   0.726
 1777SOL     OW 5465   1.812   0.538   0.745
 1777SOL    HW1 5466   1.897   0.510   0.709
 1777SOL    HW2 5467   1.835   0.594   0.819
 1778SOL     OW 5468   1.442   1.051   1.796
 1778SOL    HW1 5469   1.449   1.108   1.872
 1778SOL    HW2 5470   1.493   0.973   1.820
 1779SOL     OW 5471   3.320   1.795   0.645
 1779SOL    HW1 5472   3.302   1.880   0.604
 1779SOL    HW2 5473   3.299   1.808   0.737
 1780SOL     OW 5474   0.813   2.163   3.688
 1780SOL    HW1 5475   0.760   2.233   3.650
 1780SOL    HW2 5476   0.756   2.086   3.686
 1781SOL     OW 5477   0.230   0.621   3.133
 1781SOL    HW1 5478   0.243   0.703   3.085
 1781SOL    HW2 5479   0.195   0.561   3.068
 1782SOL     OW 5480   0.222   3.401   2.131
 1782SOL    HW1 5481   0.291   3.446   2.081
 1782SOL    HW2 5482   0.214   3.316   2.089
 1783SOL     OW 5483   2.589   3.267   2.733
 1783SOL    HW1 5484   2.506   3.247   2.777
 1783SOL    HW2 5485   2.575   3.354   2.696
 1784SOL     OW 5486   3.535   2.356   1.437
 1784SOL    HW1 5487   3.505   2.422   1.373
 1784SOL    HW2 5488   3.615   2.320   1.399
 1785SOL     OW 5489   0.408   0.489   2.751
 1785SOL    HW1 5490   0.316   0.502   2.773
 1785SOL    HW2 5491   0.450   0.469   2.835
 1786SOL     OW 5492   1.880   3.198   2.401
 1786SOL    HW1 5493   1.898   3.194   2.307
 1786SOL    HW2 5494   1.904   3.111   2.433
 1787SOL     OW 5495   3.319   3.372   2.858
 1787SOL    HW1 5496   3.298   3.370   2.951
 1787SOL    HW2 5497   3.412   3.352   2.854
 1788SOL     OW 5498   3.260   3.891   3.879
 1788SOL    HW1 5499   3.320   3.897   3.954
 1788SOL    HW2 5500   3.172   3.895   3.918
 1789SOL     OW 5501   2.850   2.462   3.178
 1789SOL    HW1 5502   2.811   2.545   3.207
 1789SOL    HW2 5503   2.853   2.408   3.257
 1790SOL     OW 5504   3.361   1.718   2.247
 1790SOL    HW1 5505   3.293   1.785   2.257
 1790SOL    HW2 5506   3.429   1.761   2.195
 1791SOL     OW 5507   3.562   3.939   1.264
 1791SOL    HW1 5508   3.502   4.013   1.267
 1791SOL    HW2 5509   3.557   3.901   1.351
 1792SOL     OW 5510   3.481   2.464   1.918
 1792SOL    HW1 5511   3.568   2.437   1.947
 1792SOL    HW2 5512   3.472   2.425   1.831
 1793SOL     OW 5513   0.186   0.650   0.960
 1793SOL    HW1 5514   0.228   0.668   1.044
 1793SOL    HW2 5515   0.232   0.706   0.897
 1794SOL     OW 5516   0.539   2.090   1.816
 1794SOL    HW1 5517   0.456   2.135   1.833
 1794SOL    HW2 5518   0.562   2.052   1.901
 1795SOL     OW 5519   2.937   2.035   0.533
 1795SOL    HW1 5520   2.864   1.973   0.530
 1795SOL    HW2 5521   2.930   2.085   0.452
 1796SOL     OW 5522   1.266   1.156   2.267
 1796SOL    HW1 5523   1.184   1.108   2.272
 1796SOL    HW2 5524   1.241   1.248   2.265
 1797SOL     OW 5525   1.214   1.511   2.985
 1797SOL    HW1 5526   1.255   1.424   2.988
 1797SOL    HW2 5527   1.229   1.541   2.895
 1798SOL     OW 5528   3.356   2.824   2.576
 1798SOL    HW1 5529   3.422   2.843   2.510
 1798SOL    HW2 5530   3.365   2.895   2.640
 1799SOL     OW 5531   2.724   1.964   3.447
 1799SOL    HW1 5532   2.666   1.894   3.419
 1799SOL    HW2 5533   2.809   1.923   3.458
 1800SOL     OW 5534   0.456   2.341   1.590
 1800SOL    HW1 5535   0.387   2.366   1.528
 1800SOL    HW2 5536   0.411   2.290   1.657
 1801SOL     OW 5537   2.827   2.384   0.185
 1801SOL    HW1 5538   2.771   2.322   0.232
 1801SOL    HW2 5539   2.893   2.330   0.143
 1802SOL     OW 5540   0.075   2.672   0.877
 1802SOL    HW1 5541   0.116   2.586   0.878
 1802SOL    HW2 5542  -0.018   2.656   0.887
 1803SOL     OW 5543   0.372   3.277   1.604
 1803SOL    HW1 5544   0.413   3.256   1.687
 1803SOL    HW2 5545   0.397   3.206   1.545
 1804SOL     OW 5546   3.821   3.732   0.221
 1804SOL    HW1 5547   3.812   3.639   0.200
 1804SOL    HW2 5548   3.900   3.759   0.174
 1805SOL     OW 5549   0.289   2.096   2.021
 1805SOL    HW1 5550   0.203   2.139   2.022
 1805SOL    HW2 5551   0.270   2.003   2.032
 1806SOL     OW 5552   1.859   2.484   1.470
 1806SOL    HW1 5553   1.818   2.569   1.454
 1806SOL    HW2 5554   1.926   2.501   1.536
 1807SOL     OW 5555   3.415   3.197   0.245
 1807SOL    HW1 5556   3.339   3.250   0.271
 1807SOL    HW2 5557   3.423   3.211   0.151
 1808SOL     OW 5558   0.722   2.275   3.313
 1808SOL    HW1 5559   0.640   2.314   3.282
 1808SOL    HW2 5560   0.771   2.254   3.233
 1809SOL     OW 5561   3.464   1.627   2.826
 1809SOL    HW1 5562   3.510   1.550   2.793
 1809SOL    HW2 5563   3.371   1.605   2.817
 1810SOL     OW 5564   3.231   3.128   0.540
 1810SOL    HW1 5565   3.250   3.043   0.579
 1810SOL    HW2 5566   3.316   3.171   0.533
 1811SOL     OW 5567   0.799   1.060   3.362
 1811SOL    HW1 5568   0.750   1.125   3.414
 1811SOL    HW2 5569   0.857   1.018   3.426
 1812SOL     OW 5570   2.529   1.005   3.953
 1812SOL    HW1 5571   2.615   1.019   3.912
 1812SOL    HW2 5572   2.482   0.948   3.892
 1813SOL     OW 5573   3.341   1.586   0.166
 1813SOL    HW1 5574   3.344   1.547   0.253
 1813SOL    HW2 5575   3.430   1.620   0.152
 1814SOL     OW 5576   3.529   3.940   3.933
 1814SOL    HW1 5577   3.550   3.900   3.849
 1814SOL    HW2 5578   3.505   4.030   3.912
 1815SOL     OW 5579   2.943   0.151   0.365
 1815SOL    HW1 5580   2.913   0.173   0.277
 1815SOL    HW2 5581   2.943   0.235   0.412
 1816SOL     OW 5582   0.923   3.540   1.702
 1816SOL    HW1 5583   0.953   3.617   1.653
 1816SOL    HW2 5584   0.851   3.505   1.649
 1817SOL     OW 5585   0.505   2.590   1.324
 1817SOL    HW1 5586   0.444   2.534   1.371
 1817SOL    HW2 5587   0.532   2.539   1.248
 1818SOL     OW 5588   1.581   1.614   3.253
 1818SOL    HW1 5589   1.632   1.691   3.230
 1818SOL    HW2 5590   1.607   1.595   3.343
 1819SOL     OW 5591   0.476   3.197   2.601
 1819SOL    HW1 5592   0.515   3.281   2.623
 1819SOL    HW2 5593   0.528   3.133   2.649
 1820SOL     OW 5594   0.463   2.901   2.204
 1820SOL    HW1 5595   0.506   2.977   2.243
 1820SOL    HW2 5596   0.424   2.854   2.278
 1821SOL     OW 5597   2.198   2.542   3.717
 1821SOL    HW1 5598   2.285   2.577   3.734
 1821SOL    HW2 5599   2.140   2.618   3.720
 1822SOL     OW 5600   2.754   0.851   1.403
 1822SOL    HW1 5601   2.823   0.804   1.450
 1822SOL    HW2 5602   2.784   0.942   1.402
 1823SOL     OW 5603   3.820   0.436   1.020
 1823SOL    HW1 5604   3.743   0.430   1.078
 1823SOL    HW2 5605   3.879   0.368   1.052
 1824SOL     OW 5606   0.646   0.475   1.448
 1824SOL    HW1 5607   0.704   0.535   1.495
 1824SOL    HW2 5608   0.578   0.453   1.512
 1825SOL     OW 5609   2.504   1.476   1.218
 1825SOL    HW1 5610   2.595   1.488   1.244
 1825SOL    HW2 5611   2.496   1.381   1.203
 1826SOL     OW 5612   2.982   0.739   1.507
 1826SOL    HW1 5613   2.936   0.655   1.511
 1826SOL    HW2 5614   3.060   0.720   1.456
 1827SOL     OW 5615   0.416   1.998   1.253
 1827SOL    HW1 5616   0.510   1.982   1.242
 1827SOL    HW2 5617   0.381   1.915   1.285
 1828SOL     OW 5618   1.548   1.497   0.046
 1828SOL    HW1 5619   1.515   1.446  -0.028
 1828SOL    HW2 5620   1.499   1.464   0.121
 1829SOL     OW 5621   0.740   2.875   1.650
 1829SOL    HW1 5622   0.819   2.878   1.595
 1829SOL    HW2 5623   0.696   2.794   1.625
 1830SOL     OW 5624   3.794   3.434   3.518
 1830SOL    HW1 5625   3.801   3.450   3.613
 1830SOL    HW2 5626   3.869   3.481   3.481
 1831SOL     OW 5627   0.423   3.821   2.774
 1831SOL    HW1 5628   0.392   3.763   2.844
 1831SOL    HW2 5629   0.423   3.765   2.696
 1832SOL     OW 5630   0.829   2.927   0.503
 1832SOL    HW1 5631   0.768   2.923   0.430
 1832SOL    HW2 5632   0.780   2.967   0.574
 1833SOL     OW 5633   0.695   3.425   1.590
 1833SOL    HW1 5634   0.624   3.365   1.611
 1833SOL    HW2 5635   0.652   3.508   1.572
 1834SOL     OW 5636   2.139   3.421   2.273
 1834SOL    HW1 5637   2.189   3.502   2.257
 1834SOL    HW2 5638   2.062   3.450   2.322
 1835SOL     OW 5639   2.631   0.098  -0.018
 1835SOL    HW1 5640   2.584   0.044   0.046
 1835SOL    HW2 5641   2.707   0.132   0.030
 1836SOL     OW 5642   1.276   2.061   3.509
 1836SOL    HW1 5643   1.330   1.983   3.522
 1836SOL    HW2 5644   1.187   2.032   3.531
 1837SOL     OW 5645   0.921   3.111   0.811
 1837SOL    HW1 5646   0.877   3.181   0.762
 1837SOL    HW2 5647   0.855   3.044   0.823
 1838SOL     OW 5648   3.229   0.373   2.095
 1838SOL    HW1 5649   3.176   0.393   2.017
 1838SOL    HW2 5650   3.207   0.442   2.157
 1839SOL     OW 5651   3.285   3.356   3.719
 1839SOL    HW1 5652   3.277   3.319   3.632
 1839SOL    HW2 5653   3.282   3.451   3.706
 1840SOL     OW 5654   1.414   1.732   1.026
 1840SOL    HW1 5655   1.359   1.654   1.014
 1840SOL    HW2 5656   1.430   1.735   1.121
 1841SOL     OW 5657   2.021   2.112   1.750
 1841SOL    HW1 5658   1.983   2.049   1.811
 1841SOL    HW2 5659   2.068   2.057   1.687
 1842SOL     OW 5660   2.067   2.114   2.543
 1842SOL    HW1 5661   2.065   2.208   2.524
 1842SOL    HW2 5662   2.096   2.073   2.461
 1843SOL     OW 5663   0.342   0.973   1.823
 1843SOL    HW1 5664   0.334   0.895   1.768
 1843SOL    HW2 5665   0.393   1.034   1.771
 1844SOL     OW 5666   0.651   1.225   3.511
 1844SOL    HW1 5667   0.588   1.293   3.486
 1844SOL    HW2 5668   0.694   1.260   3.589
 1845SOL     OW 5669   1.460   0.549   3.440
 1845SOL    HW1 5670   1.404   0.594   3.378
 1845SOL    HW2 5671   1.463   0.459   3.408
 1846SOL     OW 5672   0.331   1.066   0.569
 1846SOL    HW1 5673   0.238   1.071   0.546
 1846SOL    HW2 5674   0.347   1.142   0.625
 1847SOL     OW 5675   2.405   3.742   3.540
 1847SOL    HW1 5676   2.489   3.769   3.575
 1847SOL    HW2 5677   2.404   3.646   3.549
 1848SOL     OW 5678   1.873   3.534   1.057
 1848SOL    HW1 5679   1.903   3.476   0.987
 1848SOL    HW2 5680   1.935   3.607   1.055
 1849SOL     OW 5681   2.762   1.004   0.823
 1849SOL    HW1 5682   2.846   1.047   0.837
 1849SOL    HW2 5683   2.784   0.926   0.772
 1850SOL     OW 5684   1.263   0.352   0.973
 1850SOL    HW1 5685   1.304   0.438   0.967
 1850SOL    HW2 5686   1.330   0.292   0.939
 1851SOL     OW 5687   1.113   3.573   1.915
 1851SOL    HW1 5688   1.132   3.667   1.917
 1851SOL    HW2 5689   1.029   3.567   1.869
 1852SOL     OW 5690   2.897   1.813   0.131
 1852SOL    HW1 5691   2.862   1.725   0.117
 1852SOL    HW2 5692   2.989   1.808   0.105
 1853SOL     OW 5693   2.475   0.992   2.182
 1853SOL    HW1 5694   2.412   0.991   2.109
 1853SOL    HW2 5695   2.427   0.952   2.255
 1854SOL     OW 5696   2.959   1.808   0.725
 1854SOL    HW1 5697   2.976   1.888   0.677
 1854SOL    HW2 5698   2.913   1.751   0.663
 1855SOL     OW 5699   0.870   1.582   1.655
 1855SOL    HW1 5700   0.931   1.567   1.583
 1855SOL    HW2 5701   0.894   1.668   1.689
 1856SOL     OW 5702   0.036   0.898   2.313
 1856SOL    HW1 5703   0.064   0.824   2.367
 1856SOL    HW2 5704   0.106   0.907   2.248
 1857SOL     OW 5705   0.243   1.932   3.741
 1857SOL    HW1 5706   0.320   1.878   3.724
 1857SOL    HW2 5707   0.169   1.871   3.737
 1858SOL     OW 5708   1.247   2.261   3.920
 1858SOL    HW1 5709   1.174   2.291   3.866
 1858SOL    HW2 5710   1.207   2.222   3.997
 1859SOL     OW 5711   3.003   0.780   0.205
 1859SOL    HW1 5712   3.048   0.860   0.232
 1859SOL    HW2 5713   2.922   0.780   0.256
 1860SOL     OW 5714   3.574   3.064   0.591
 1860SOL    HW1 5715   3.653   3.028   0.632
 1860SOL    HW2 5716   3.520   2.987   0.574
 1861SOL     OW 5717   2.758   2.116   2.093
 1861SOL    HW1 5718   2.778   2.123   2.000
 1861SOL    HW2 5719   2.663   2.104   2.096
 1862SOL     OW 5720   1.379   2.979   2.738
 1862SOL    HW1 5721   1.425   3.046   2.788
 1862SOL    HW2 5722   1.408   2.992   2.648
 1863SOL     OW 5723   0.518   0.562   1.023
 1863SOL    HW1 5724   0.479   0.600   1.102
 1863SOL    HW2 5725   0.458   0.491   0.999
 1864SOL     OW 5726   0.054   0.392   3.341
 1864SOL    HW1 5727   0.059   0.297   3.328
 1864SOL    HW2 5728   0.073   0.429   3.255
 1865SOL     OW 5729   1.177   1.367   3.809
 1865SOL    HW1 5730   1.204   1.458   3.810
 1865SOL    HW2 5731   1.136   1.355   3.723
 1866SOL     OW 5732   3.891   1.748   3.143
 1866SOL    HW1 5733   3.907   1.733   3.050
 1866SOL    HW2 5734   3.977   1.765   3.180
 1867SOL     OW 5735   0.917   2.987   3.881
 1867SOL    HW1 5736   0.870   2.909   3.908
 1867SOL    HW2 5737   0.903   3.049   3.953
 1868SOL     OW 5738   1.023   2.001   2.724
 1868SOL    HW1 5739   1.072   2.057   2.663
 1868SOL    HW2 5740   0.952   2.057   2.755
 1869SOL     OW 5741   1.363   2.688   2.311
 1869SOL    HW1 5742   1.286   2.707   2.365
 1869SOL    HW2 5743   1.383   2.771   2.268
 1870SOL     OW 5744   1.910   1.900   1.928
 1870SOL    HW1 5745   1.891   1.948   2.009
 1870SOL    HW2 5746   1.826   1.863   1.901
 1871SOL     OW 5747   1.114   3.177   0.958
 1871SOL    HW1 5748   1.077   3.229   1.030
 1871SOL    HW2 5749   1.041   3.162   0.899
 1872SOL     OW 5750   3.685   2.151   0.005
 1872SOL    HW1 5751   3.622   2.123   0.072
 1872SOL    HW2 5752   3.768   2.160   0.052
 1873SOL     OW 5753   2.184   1.630   3.767
 1873SOL    HW1 5754   2.234   1.712   3.766
 1873SOL    HW2 5755   2.131   1.634   3.688
 1874SOL     OW 5756   1.366   3.935   3.294
 1874SOL    HW1 5757   1.324   4.017   3.320
 1874SOL    HW2 5758   1.320   3.908   3.215
 1875SOL     OW 5759   3.030   1.421   1.573
 1875SOL    HW1 5760   2.969   1.465   1.632
 1875SOL    HW2 5761   3.115   1.430   1.615
 1876SOL     OW 5762   1.935   3.722   0.766
 1876SOL    HW1 5763   1.998   3.715   0.837
 1876SOL    HW2 5764   1.890   3.804   0.782
 1877SOL     OW 5765   0.587   2.981   2.808
 1877SOL    HW1 5766   0.513   2.921   2.807
 1877SOL    HW2 5767   0.656   2.935   2.760
 1878SOL     OW 5768   2.765   3.169   2.175
 1878SOL    HW1 5769   2.732   3.120   2.250
 1878SOL    HW2 5770   2.859   3.153   2.175
 1879SOL     OW 5771   2.965   0.056   3.890
 1879SOL    HW1 5772   2.957   0.007   3.808
 1879SOL    HW2 5773   3.005  -0.005   3.951
 1880SOL     OW 5774   2.424   1.330   0.832
 1880SOL    HW1 5775   2.343   1.279   0.827
 1880SOL    HW2 5776   2.403   1.403   0.891
 1881SOL     OW 5777   3.602   2.787   3.459
 1881SOL    HW1 5778   3.523   2.810   3.508
 1881SOL    HW2 5779   3.599   2.844   3.382
 1882SOL     OW 5780   1.672   2.131   3.244
 1882SOL    HW1 5781   1.715   2.164   3.166
 1882SOL    HW2 5782   1.579   2.146   3.229
 1883SOL     OW 5783   3.098   0.439   0.165
 1883SOL    HW1 5784   3.012   0.442   0.208
 1883SOL    HW2 5785   3.161   0.450   0.236
 1884SOL     OW 5786   0.458   1.994   2.236
 1884SOL    HW1 5787   0.410   1.994   2.319
 1884SOL    HW2 5788   0.412   2.057   2.181
 1885SOL     OW 5789   1.803   3.152   3.695
 1885SOL    HW1 5790   1.848   3.093   3.757
 1885SOL    HW2 5791   1.770   3.094   3.627
 1886SOL     OW 5792   1.491   2.685   0.707
 1886SOL    HW1 5793   1.410   2.671   0.658
 1886SOL    HW2 5794   1.533   2.599   0.708
 1887SOL     OW 5795   2.667   2.597   2.007
 1887SOL    HW1 5796   2.618   2.657   1.951
 1887SOL    HW2 5797   2.723   2.654   2.060
 1888SOL     OW 5798   2.066   3.670   1.430
 1888SOL    HW1 5799   2.128   3.624   1.373
 1888SOL    HW2 5800   2.052   3.609   1.503
 1889SOL     OW 5801   0.931   2.821   2.446
 1889SOL    HW1 5802   0.897   2.899   2.402
 1889SOL    HW2 5803   1.026   2.831   2.444
 1890SOL     OW 5804   3.908   0.164   3.597
 1890SOL    HW1 5805   3.834   0.198   3.646
 1890SOL    HW2 5806   3.871   0.135   3.513
 1891SOL     OW 5807   2.003   0.741   0.002
 1891SOL    HW1 5808   1.969   0.813   0.056
 1891SOL    HW2 5809   1.925   0.690  -0.020
 1892SOL     OW 5810   1.188   3.769   3.485
 1892SOL    HW1 5811   1.221   3.841   3.540
 1892SOL    HW2 5812   1.154   3.813   3.407
 1893SOL     OW 5813   2.049   1.592   1.966
 1893SOL    HW1 5814   2.011   1.576   2.052
 1893SOL    HW2 5815   2.085   1.507   1.940
 1894SOL     OW 5816   1.932   1.582   1.414
 1894SOL    HW1 5817   1.891   1.620   1.336
 1894SOL    HW2 5818   1.952   1.658   1.469
 1895SOL     OW 5819   1.540   1.075   3.190
 1895SOL    HW1 5820   1.625   1.034   3.174
 1895SOL    HW2 5821   1.481   1.001   3.205
 1896SOL     OW 5822   1.978   1.818   0.189
 1896SOL    HW1 5823   1.981   1.805   0.094
 1896SOL    HW2 5824   2.024   1.742   0.225
 1897SOL     OW 5825   2.271   3.422   1.807
 1897SOL    HW1 5826   2.183   3.393   1.832
 1897SOL    HW2 5827   2.260   3.515   1.786
 1898SOL     OW 5828   2.919   0.429   2.505
 1898SOL    HW1 5829   2.878   0.511   2.533
 1898SOL    HW2 5830   2.846   0.374   2.477
 1899SOL     OW 5831   3.703   1.143   3.428
 1899SOL    HW1 5832   3.776   1.111   3.481
 1899SOL    HW2 5833   3.639   1.175   3.491
 1900SOL     OW 5834   3.935   3.839   3.678
 1900SOL    HW1 5835   3.889   3.923   3.672
 1900SOL    HW2 5836   3.866   3.776   3.700
 1901SOL     OW 5837   2.638   1.944   0.157
 1901SOL    HW1 5838   2.596   1.910   0.236
 1901SOL    HW2 5839   2.722   1.899   0.153
 1902SOL     OW 5840   1.397   3.770   1.657
 1902SOL    HW1 5841   1.419   3.827   1.730
 1902SOL    HW2 5842   1.479   3.761   1.608
 1903SOL     OW 5843   2.006   1.024   1.412
 1903SOL    HW1 5844   1.931   1.061   1.366
 1903SOL    HW2 5845   1.969   0.989   1.493
 1904SOL     OW 5846   3.736   0.531   2.083
 1904SOL    HW1 5847   3.687   0.479   2.020
 1904SOL    HW2 5848   3.763   0.609   2.034
 1905SOL     OW 5849   2.023   3.349   0.930
 1905SOL    HW1 5850   2.093   3.300   0.973
 1905SOL    HW2 5851   2.065   3.389   0.854
 1906SOL     OW 5852   2.615   2.208   0.696
 1906SOL    HW1 5853   2.549   2.272   0.671
 1906SOL    HW2 5854   2.696   2.241   0.658
 1907SOL     OW 5855   3.008   2.924   0.574
 1907SOL    HW1 5856   3.100   2.899   0.577
 1907SOL    HW2 5857   3.000   2.994   0.639
 1908SOL     OW 5858   2.912   0.879   1.961
 1908SOL    HW1 5859   2.819   0.899   1.963
 1908SOL    HW2 5860   2.937   0.892   1.869
 1909SOL     OW 5861   2.484   0.083   1.249
 1909SOL    HW1 5862   2.555   0.034   1.207
 1909SOL    HW2 5863   2.528   0.133   1.318
 1910SOL     OW 5864   1.408   3.425   2.865
 1910SOL    HW1 5865   1.327   3.386   2.832
 1910SOL    HW2 5866   1.393   3.519   2.858
 1911SOL     OW 5867   0.641   2.563   1.616
 1911SOL    HW1 5868   0.611   2.472   1.628
 1911SOL    HW2 5869   0.598   2.591   1.536
 1912SOL     OW 5870   1.702   3.422   1.420
 1912SOL    HW1 5871   1.687   3.506   1.378
 1912SOL    HW2 5872   1.626   3.408   1.476
 1913SOL     OW 5873   0.753   1.681   2.489
 1913SOL    HW1 5874   0.762   1.720   2.576
 1913SOL    HW2 5875   0.660   1.659   2.483
 1914SOL     OW 5876   3.151   3.807   0.398
 1914SOL    HW1 5877   3.107   3.724   0.415
 1914SOL    HW2 5878   3.244   3.788   0.412
 1915SOL     OW 5879   1.002   0.505   1.395
 1915SOL    HW1 5880   0.925   0.560   1.408
 1915SOL    HW2 5881   1.005   0.489   1.301
 1916SOL     OW 5882   1.571   3.945   2.990
 1916SOL    HW1 5883   1.638   3.915   2.929
 1916SOL    HW2 5884   1.603   3.916   3.076
 1917SOL     OW 5885   3.678   2.526   3.543
 1917SOL    HW1 5886   3.755   2.532   3.600
 1917SOL    HW2 5887   3.653   2.617   3.527
 1918NA      NA 5888   2.433   1.238   1.598
 1919NA      NA 5889   1.510   3.671   3.231
   3.96100   3.96100   3.96100   0.00000   0.00000   0.00000   0.00000   0.00000   0.00000
