Generated with MDTraj, t= 53295.0
 5889
    1TYR      N    1   1.713   1.033   0.857
    1TYR     H1    2   1.695   0.990   0.949
    1TYR     H2    3   1.788   1.106   0.862
    1TYR     H3    4   1.628   1.087   0.833
    1TYR     CA    5   1.763   0.937   0.746
    1TYR     HA    6   1.668   0.899   0.711
    1TYR     CB    7   1.846   1.010   0.631
    1TYR    HB1    8   1.781   1.092   0.593
    1TYR    HB2    9   1.940   1.047   0.676
    1TYR     CG   10   1.869   0.915   0.514
    1TYR    CD1   11   2.003   0.904   0.467
    1TYR    HD1   12   2.083   0.963   0.509
    1TYR    CE1   13   2.025   0.817   0.362
    1TYR    HE1   14   2.128   0.794   0.338
    1TYR     CZ   15   1.924   0.747   0.301
    1TYR     OH   16   1.948   0.638   0.214
    1TYR     HH   17   2.038   0.654   0.187
    1TYR    CD2   18   1.763   0.850   0.451
    1TYR    HD2   19   1.662   0.862   0.487
    1TYR    CE2   20   1.789   0.767   0.338
    1TYR    HE2   21   1.708   0.717   0.289
    1TYR      C   22   1.840   0.819   0.805
    1TYR      O   23   1.785   0.710   0.823
    2TYR      N   24   1.952   0.850   0.860
    2TYR     HN   25   1.983   0.945   0.857
    2TYR     CA   26   2.033   0.759   0.936
    2TYR     HA   27   1.995   0.660   0.912
    2TYR     CB   28   2.188   0.759   0.896
    2TYR    HB1   29   2.231   0.860   0.911
    2TYR    HB2   30   2.245   0.682   0.953
    2TYR     CG   31   2.210   0.731   0.748
    2TYR    CD1   32   2.143   0.633   0.681
    2TYR    HD1   33   2.056   0.585   0.725
    2TYR    CE1   34   2.183   0.588   0.554
    2TYR    HE1   35   2.132   0.519   0.488
    2TYR     CZ   36   2.290   0.655   0.493
    2TYR     OH   37   2.341   0.597   0.369
    2TYR     HH   38   2.291   0.516   0.375
    2TYR    CD2   39   2.317   0.800   0.683
    2TYR    HD2   40   2.381   0.872   0.730
    2TYR    CE2   41   2.364   0.755   0.556
    2TYR    HE2   42   2.438   0.801   0.493
    2TYR      C   43   2.025   0.793   1.086
    2TYR      O   44   2.013   0.911   1.124
    3ASP      N   45   2.030   0.696   1.180
    3ASP     HN   46   2.042   0.599   1.161
    3ASP     CA   47   2.030   0.722   1.326
    3ASP     HA   48   2.069   0.820   1.349
    3ASP     CB   49   1.881   0.707   1.374
    3ASP    HB1   50   1.813   0.768   1.311
    3ASP    HB2   51   1.856   0.600   1.360
    3ASP     CG   52   1.856   0.746   1.516
    3ASP    OD1   53   1.771   0.685   1.585
    3ASP    OD2   54   1.912   0.845   1.562
    3ASP      C   55   2.110   0.610   1.394
    3ASP      O   56   2.057   0.496   1.417
    4PRO      N   57   2.234   0.641   1.440
    4PRO     CD   58   2.321   0.747   1.386
    4PRO    HD1   59   2.273   0.843   1.413
    4PRO    HD2   60   2.329   0.749   1.275
    4PRO     CA   61   2.309   0.544   1.514
    4PRO     HA   62   2.320   0.456   1.453
    4PRO     CB   63   2.445   0.612   1.545
    4PRO    HB1   64   2.433   0.674   1.636
    4PRO    HB2   65   2.529   0.540   1.556
    4PRO     CG   66   2.466   0.706   1.431
    4PRO    HG1   67   2.522   0.800   1.452
    4PRO    HG2   68   2.525   0.665   1.346
    4PRO      C   69   2.245   0.503   1.640
    4PRO      O   70   2.272   0.390   1.673
    5GLU      N   71   2.179   0.599   1.712
    5GLU     HN   72   2.158   0.686   1.668
    5GLU     CA   73   2.113   0.576   1.837
    5GLU     HA   74   2.194   0.554   1.904
    5GLU     CB   75   2.046   0.704   1.882
    5GLU    HB1   76   2.124   0.783   1.872
    5GLU    HB2   77   1.963   0.722   1.810
    5GLU     CG   78   2.020   0.694   2.034
    5GLU    HG1   79   1.962   0.607   2.071
    5GLU    HG2   80   2.119   0.697   2.084
    5GLU     CD   81   1.938   0.813   2.077
    5GLU    OE1   82   1.886   0.804   2.191
    5GLU    OE2   83   1.925   0.913   2.002
    5GLU      C   84   2.008   0.454   1.844
    5GLU      O   85   2.016   0.361   1.923
    6THR      N   86   1.913   0.454   1.751
    6THR     HN   87   1.897   0.533   1.692
    6THR     CA   88   1.837   0.331   1.709
    6THR     HA   89   1.796   0.288   1.800
    6THR     CB   90   1.715   0.369   1.626
    6THR     HB   91   1.743   0.390   1.520
    6THR    OG1   92   1.647   0.484   1.683
    6THR    HG1   93   1.701   0.554   1.646
    6THR    CG2   94   1.594   0.266   1.629
    6THR   HG21   95   1.555   0.240   1.729
    6THR   HG22   96   1.507   0.314   1.580
    6THR   HG23   97   1.616   0.170   1.578
    6THR      C   98   1.904   0.227   1.630
    6THR      O   99   1.860   0.109   1.640
    7GLY      N  100   2.011   0.254   1.552
    7GLY     HN  101   2.037   0.350   1.552
    7GLY     CA  102   2.081   0.162   1.458
    7GLY    HA1  103   2.184   0.192   1.456
    7GLY    HA2  104   2.062   0.062   1.491
    7GLY      C  105   2.031   0.162   1.317
    7GLY      O  106   2.030   0.059   1.249
    8THR      N  107   1.980   0.278   1.276
    8THR     HN  108   1.975   0.367   1.322
    8THR     CA  109   1.907   0.292   1.153
    8THR     HA  110   1.865   0.197   1.125
    8THR     CB  111   1.793   0.397   1.160
    8THR     HB  112   1.826   0.503   1.164
    8THR    OG1  113   1.713   0.371   1.276
    8THR    HG1  114   1.630   0.419   1.268
    8THR    CG2  115   1.701   0.380   1.029
    8THR   HG21  116   1.607   0.440   1.028
    8THR   HG22  117   1.759   0.408   0.938
    8THR   HG23  118   1.670   0.274   1.012
    8THR      C  119   1.995   0.345   1.038
    8THR      O  120   2.051   0.456   1.036
    9TRP      N  121   2.023   0.263   0.940
    9TRP     HN  122   1.981   0.173   0.939
    9TRP     CA  123   2.112   0.293   0.824
    9TRP     HA  124   2.109   0.399   0.805
    9TRP     CB  125   2.257   0.245   0.839
    9TRP    HB1  126   2.255   0.138   0.870
    9TRP    HB2  127   2.319   0.270   0.750
    9TRP     CG  128   2.333   0.299   0.962
    9TRP    CD1  129   2.340   0.239   1.085
    9TRP    HD1  130   2.274   0.155   1.098
    9TRP    NE1  131   2.433   0.304   1.164
    9TRP    HE1  132   2.459   0.280   1.255
    9TRP    CE2  133   2.471   0.413   1.098
    9TRP    CD2  134   2.416   0.410   0.969
    9TRP    CE3  135   2.443   0.508   0.875
    9TRP    HE3  136   2.401   0.510   0.776
    9TRP    CZ3  137   2.527   0.619   0.915
    9TRP    HZ3  138   2.552   0.693   0.841
    9TRP    CZ2  139   2.554   0.522   1.134
    9TRP    HZ2  140   2.612   0.526   1.224
    9TRP    CH2  141   2.589   0.621   1.045
    9TRP    HH2  142   2.660   0.697   1.073
    9TRP      C  143   2.053   0.225   0.704
    9TRP      O  144   2.016   0.107   0.717
   10TYR      N  145   2.057   0.298   0.589
   10TYR     HN  146   2.095   0.390   0.582
   10TYR     CA  147   1.992   0.253   0.461
   10TYR     HA  148   1.955   0.153   0.476
   10TYR     CB  149   1.882   0.347   0.423
   10TYR    HB1  150   1.915   0.453   0.436
   10TYR    HB2  151   1.856   0.344   0.315
   10TYR     CG  152   1.759   0.332   0.505
   10TYR    CD1  153   1.653   0.243   0.463
   10TYR    HD1  154   1.669   0.179   0.378
   10TYR    CE1  155   1.536   0.238   0.527
   10TYR    HE1  156   1.461   0.169   0.491
   10TYR     CZ  157   1.510   0.320   0.639
   10TYR     OH  158   1.378   0.323   0.681
   10TYR     HH  159   1.323   0.257   0.638
   10TYR    CD2  160   1.737   0.420   0.615
   10TYR    HD2  161   1.805   0.494   0.653
   10TYR    CE2  162   1.612   0.415   0.676
   10TYR    HE2  163   1.579   0.479   0.756
   10TYR      C  164   2.101   0.248   0.352
   10TYR    OT1  165   2.180   0.343   0.337
   10TYR    OT2  166   2.105   0.147   0.276
   11SOL     OW  167   2.415   1.280   2.439
   11SOL    HW1  168   2.383   1.324   2.517
   11SOL    HW2  169   2.348   1.299   2.372
   12SOL     OW  170   3.771   2.778   2.536
   12SOL    HW1  171   3.784   2.849   2.473
   12SOL    HW2  172   3.676   2.764   2.535
   13SOL     OW  173   0.527   1.240   0.649
   13SOL    HW1  174   0.513   1.281   0.564
   13SOL    HW2  175   0.612   1.197   0.643
   14SOL     OW  176   1.187   0.109   0.562
   14SOL    HW1  177   1.215   0.040   0.502
   14SOL    HW2  178   1.100   0.083   0.591
   15SOL     OW  179   0.447   3.888   0.225
   15SOL    HW1  180   0.378   3.834   0.185
   15SOL    HW2  181   0.443   3.868   0.318
   16SOL     OW  182   3.450   0.202   1.533
   16SOL    HW1  183   3.478   0.150   1.608
   16SOL    HW2  184   3.414   0.282   1.572
   17SOL     OW  185   1.424   0.367   1.241
   17SOL    HW1  186   1.435   0.333   1.152
   17SOL    HW2  187   1.333   0.348   1.263
   18SOL     OW  188   0.445   1.256   0.135
   18SOL    HW1  189   0.483   1.242   0.048
   18SOL    HW2  190   0.353   1.273   0.118
   19SOL     OW  191   1.472   1.155   0.833
   19SOL    HW1  192   1.433   1.206   0.904
   19SOL    HW2  193   1.409   1.161   0.761
   20SOL     OW  194   2.981   3.264   3.559
   20SOL    HW1  195   3.010   3.173   3.561
   20SOL    HW2  196   3.057   3.314   3.590
   21SOL     OW  197   1.501   3.447   2.461
   21SOL    HW1  198   1.476   3.483   2.376
   21SOL    HW2  199   1.450   3.365   2.467
   22SOL     OW  200   0.394   2.290   3.403
   22SOL    HW1  201   0.359   2.334   3.481
   22SOL    HW2  202   0.384   2.197   3.422
   23SOL     OW  203   1.314   3.504   2.947
   23SOL    HW1  204   1.306   3.415   2.913
   23SOL    HW2  205   1.224   3.530   2.967
   24SOL     OW  206   0.092   1.608   0.705
   24SOL    HW1  207   0.098   1.513   0.695
   24SOL    HW2  208   0.183   1.637   0.714
   25SOL     OW  209   1.112   3.636   3.792
   25SOL    HW1  210   1.205   3.612   3.794
   25SOL    HW2  211   1.102   3.698   3.865
   26SOL     OW  212   0.094   0.002   3.436
   26SOL    HW1  213   0.029  -0.007   3.506
   26SOL    HW2  214   0.045   0.034   3.361
   27SOL     OW  215   1.101   0.999   0.219
   27SOL    HW1  216   1.135   0.933   0.280
   27SOL    HW2  217   1.173   1.013   0.157
   28SOL     OW  218   2.549   1.881   3.683
   28SOL    HW1  219   2.604   1.834   3.620
   28SOL    HW2  220   2.575   1.973   3.672
   29SOL     OW  221   2.239   3.434   0.247
   29SOL    HW1  222   2.313   3.470   0.198
   29SOL    HW2  223   2.164   3.489   0.220
   30SOL     OW  224   1.335   3.083   0.976
   30SOL    HW1  225   1.363   3.035   1.054
   30SOL    HW2  226   1.290   3.160   1.010
   31SOL     OW  227   2.345   3.354   2.845
   31SOL    HW1  228   2.382   3.441   2.833
   31SOL    HW2  229   2.388   3.320   2.923
   32SOL     OW  230   3.859   0.050   1.581
   32SOL    HW1  231   3.891   0.005   1.660
   32SOL    HW2  232   3.800   0.118   1.614
   33SOL     OW  233   2.547   2.770   1.462
   33SOL    HW1  234   2.557   2.694   1.405
   33SOL    HW2  235   2.632   2.779   1.507
   34SOL     OW  236   2.221   1.149   0.756
   34SOL    HW1  237   2.233   1.130   0.663
   34SOL    HW2  238   2.239   1.243   0.764
   35SOL     OW  239   0.163   2.714   2.282
   35SOL    HW1  240   0.121   2.759   2.208
   35SOL    HW2  241   0.114   2.743   2.359
   36SOL     OW  242   1.535   1.598   3.046
   36SOL    HW1  243   1.607   1.597   3.109
   36SOL    HW2  244   1.573   1.565   2.965
   37SOL     OW  245   3.250   0.466   1.057
   37SOL    HW1  246   3.243   0.411   0.978
   37SOL    HW2  247   3.183   0.429   1.116
   38SOL     OW  248   2.047   3.290   3.771
   38SOL    HW1  249   2.090   3.241   3.701
   38SOL    HW2  250   2.084   3.255   3.852
   39SOL     OW  251   2.219   0.327   2.192
   39SOL    HW1  252   2.306   0.289   2.206
   39SOL    HW2  253   2.209   0.328   2.097
   40SOL     OW  254   0.156   3.111   3.261
   40SOL    HW1  255   0.220   3.042   3.245
   40SOL    HW2  256   0.124   3.136   3.174
   41SOL     OW  257   2.684   2.310   1.274
   41SOL    HW1  258   2.597   2.271   1.261
   41SOL    HW2  259   2.666   2.404   1.282
   42SOL     OW  260   3.842   3.940   3.597
   42SOL    HW1  261   3.847   3.883   3.674
   42SOL    HW2  262   3.778   4.007   3.621
   43SOL     OW  263   1.149   2.396   0.092
   43SOL    HW1  264   1.166   2.485   0.060
   43SOL    HW2  265   1.181   2.397   0.182
   44SOL     OW  266   0.170   0.986   2.799
   44SOL    HW1  267   0.088   0.976   2.750
   44SOL    HW2  268   0.180   1.080   2.809
   45SOL     OW  269   3.951   3.944   0.772
   45SOL    HW1  270   3.986   3.913   0.855
   45SOL    HW2  271   3.857   3.953   0.786
   46SOL     OW  272   3.172   1.370   1.012
   46SOL    HW1  273   3.143   1.302   1.073
   46SOL    HW2  274   3.203   1.441   1.069
   47SOL     OW  275   2.569   3.739   3.347
   47SOL    HW1  276   2.491   3.751   3.401
   47SOL    HW2  277   2.623   3.678   3.397
   48SOL     OW  278   2.280   2.071   2.344
   48SOL    HW1  279   2.275   2.096   2.437
   48SOL    HW2  280   2.282   1.975   2.346
   49SOL     OW  281   1.925   1.339   1.347
   49SOL    HW1  282   2.011   1.299   1.353
   49SOL    HW2  283   1.876   1.302   1.420
   50SOL     OW  284   2.047   2.402   1.126
   50SOL    HW1  285   2.061   2.343   1.052
   50SOL    HW2  286   2.078   2.353   1.203
   51SOL     OW  287   0.616   3.802   0.579
   51SOL    HW1  288   0.697   3.838   0.615
   51SOL    HW2  289   0.553   3.874   0.585
   52SOL     OW  290   0.866   2.304   0.350
   52SOL    HW1  291   0.950   2.322   0.310
   52SOL    HW2  292   0.859   2.367   0.422
   53SOL     OW  293   0.003   0.074   2.895
   53SOL    HW1  294   0.038   0.047   2.810
   53SOL    HW2  295   0.081   0.092   2.947
   54SOL     OW  296   3.775   1.554   2.216
   54SOL    HW1  297   3.870   1.559   2.205
   54SOL    HW2  298   3.744   1.643   2.195
   55SOL     OW  299   3.418   1.635   0.627
   55SOL    HW1  300   3.494   1.676   0.668
   55SOL    HW2  301   3.367   1.599   0.700
   56SOL     OW  302   2.426   0.246   2.696
   56SOL    HW1  303   2.483   0.272   2.768
   56SOL    HW2  304   2.481   0.193   2.639
   57SOL     OW  305   0.252   0.130   2.724
   57SOL    HW1  306   0.334   0.165   2.690
   57SOL    HW2  307   0.208   0.093   2.647
   58SOL     OW  308   1.437   3.171   2.356
   58SOL    HW1  309   1.481   3.097   2.398
   58SOL    HW2  310   1.355   3.133   2.322
   59SOL     OW  311   3.867   3.498   0.167
   59SOL    HW1  312   3.938   3.525   0.108
   59SOL    HW2  313   3.787   3.516   0.118
   60SOL     OW  314   1.052   0.497   3.926
   60SOL    HW1  315   1.103   0.571   3.959
   60SOL    HW2  316   1.118   0.437   3.891
   61SOL     OW  317   0.781   0.586   1.677
   61SOL    HW1  318   0.869   0.608   1.647
   61SOL    HW2  319   0.747   0.668   1.713
   62SOL     OW  320   1.509   1.046   3.935
   62SOL    HW1  321   1.445   1.051   4.006
   62SOL    HW2  322   1.499   1.129   3.888
   63SOL     OW  323   1.831   3.812   2.193
   63SOL    HW1  324   1.765   3.808   2.262
   63SOL    HW2  325   1.784   3.848   2.118
   64SOL     OW  326   3.331   1.625   0.026
   64SOL    HW1  327   3.323   1.711   0.067
   64SOL    HW2  328   3.260   1.624  -0.039
   65SOL     OW  329   3.224   3.591   0.311
   65SOL    HW1  330   3.174   3.539   0.248
   65SOL    HW2  331   3.315   3.565   0.297
   66SOL     OW  332   0.703   2.966   0.207
   66SOL    HW1  333   0.662   2.949   0.122
   66SOL    HW2  334   0.783   2.913   0.205
   67SOL     OW  335   2.415   2.597   3.105
   67SOL    HW1  336   2.392   2.690   3.110
   67SOL    HW2  337   2.475   2.592   3.031
   68SOL     OW  338   1.101   0.247   1.508
   68SOL    HW1  339   1.090   0.286   1.422
   68SOL    HW2  340   1.135   0.159   1.491
   69SOL     OW  341   2.964   3.259   1.308
   69SOL    HW1  342   2.991   3.167   1.309
   69SOL    HW2  343   2.900   3.266   1.378
   70SOL     OW  344   2.690   1.795   3.405
   70SOL    HW1  345   2.729   1.758   3.325
   70SOL    HW2  346   2.630   1.862   3.373
   71SOL     OW  347   2.601   0.578   2.059
   71SOL    HW1  348   2.565   0.656   2.102
   71SOL    HW2  349   2.625   0.520   2.131
   72SOL     OW  350   3.082   3.516   0.096
   72SOL    HW1  351   3.132   3.448   0.052
   72SOL    HW2  352   3.115   3.598   0.060
   73SOL     OW  353   0.913   2.098   1.313
   73SOL    HW1  354   0.896   2.151   1.391
   73SOL    HW2  355   0.964   2.155   1.255
   74SOL     OW  356   3.119   0.517   1.881
   74SOL    HW1  357   3.207   0.526   1.846
   74SOL    HW2  358   3.132   0.493   1.973
   75SOL     OW  359   2.887   3.586   2.185
   75SOL    HW1  360   2.819   3.642   2.147
   75SOL    HW2  361   2.845   3.501   2.198
   76SOL     OW  362   3.847   0.281   3.567
   76SOL    HW1  363   3.787   0.288   3.494
   76SOL    HW2  364   3.934   0.275   3.527
   77SOL     OW  365   2.635   1.014   1.706
   77SOL    HW1  366   2.568   0.973   1.762
   77SOL    HW2  367   2.642   1.104   1.740
   78SOL     OW  368   2.193   1.062   3.752
   78SOL    HW1  369   2.249   1.059   3.674
   78SOL    HW2  370   2.252   1.089   3.822
   79SOL     OW  371   1.732   1.887   1.078
   79SOL    HW1  372   1.781   1.814   1.042
   79SOL    HW2  373   1.644   1.878   1.041
   80SOL     OW  374   3.667   2.277   2.334
   80SOL    HW1  375   3.757   2.246   2.333
   80SOL    HW2  376   3.672   2.368   2.304
   81SOL     OW  377   1.611   0.589   3.336
   81SOL    HW1  378   1.650   0.504   3.314
   81SOL    HW2  379   1.524   0.568   3.369
   82SOL     OW  380   0.760   2.135   0.004
   82SOL    HW1  381   0.727   2.123   0.093
   82SOL    HW2  382   0.770   2.229  -0.006
   83SOL     OW  383   0.883   0.930   2.237
   83SOL    HW1  384   0.903   0.837   2.245
   83SOL    HW2  385   0.808   0.933   2.177
   84SOL     OW  386   0.863   0.877   3.741
   84SOL    HW1  387   0.836   0.822   3.814
   84SOL    HW2  388   0.817   0.842   3.665
   85SOL     OW  389   0.785   1.167   2.749
   85SOL    HW1  390   0.784   1.099   2.682
   85SOL    HW2  391   0.862   1.147   2.803
   86SOL     OW  392   2.092   3.043   1.272
   86SOL    HW1  393   2.058   2.982   1.207
   86SOL    HW2  394   2.113   3.122   1.222
   87SOL     OW  395   3.453   3.895   3.232
   87SOL    HW1  396   3.523   3.896   3.297
   87SOL    HW2  397   3.460   3.979   3.187
   88SOL     OW  398   1.650   1.378   3.593
   88SOL    HW1  399   1.712   1.313   3.558
   88SOL    HW2  400   1.679   1.393   3.682
   89SOL     OW  401   1.647   2.873   3.373
   89SOL    HW1  402   1.716   2.911   3.319
   89SOL    HW2  403   1.683   2.875   3.462
   90SOL     OW  404   0.823   1.634   3.114
   90SOL    HW1  405   0.883   1.702   3.083
   90SOL    HW2  406   0.878   1.555   3.120
   91SOL     OW  407   2.953   3.851   0.775
   91SOL    HW1  408   2.967   3.946   0.776
   91SOL    HW2  409   2.859   3.841   0.759
   92SOL     OW  410   2.937   2.116   1.725
   92SOL    HW1  411   2.906   2.096   1.636
   92SOL    HW2  412   2.890   2.196   1.748
   93SOL     OW  413   1.513   2.833   3.884
   93SOL    HW1  414   1.606   2.846   3.862
   93SOL    HW2  415   1.466   2.885   3.820
   94SOL     OW  416   3.704   3.766   2.089
   94SOL    HW1  417   3.768   3.730   2.027
   94SOL    HW2  418   3.704   3.704   2.162
   95SOL     OW  419   3.292   3.757   2.145
   95SOL    HW1  420   3.284   3.852   2.142
   95SOL    HW2  421   3.310   3.737   2.237
   96SOL     OW  422   2.585   3.192   0.272
   96SOL    HW1  423   2.522   3.134   0.314
   96SOL    HW2  424   2.535   3.237   0.204
   97SOL     OW  425   0.581   1.334   0.365
   97SOL    HW1  426   0.610   1.424   0.370
   97SOL    HW2  427   0.533   1.328   0.282
   98SOL     OW  428   3.523   1.249   0.284
   98SOL    HW1  429   3.613   1.233   0.314
   98SOL    HW2  430   3.484   1.300   0.355
   99SOL     OW  431   1.525   3.902   2.257
   99SOL    HW1  432   1.516   3.988   2.217
   99SOL    HW2  433   1.590   3.915   2.326
  100SOL     OW  434   3.134   0.134   1.433
  100SOL    HW1  435   3.180   0.181   1.502
  100SOL    HW2  436   3.048   0.116   1.470
  101SOL     OW  437   0.424   2.200   0.167
  101SOL    HW1  438   0.519   2.205   0.172
  101SOL    HW2  439   0.405   2.106   0.163
  102SOL     OW  440   1.681   3.455   2.656
  102SOL    HW1  441   1.654   3.540   2.689
  102SOL    HW2  442   1.628   3.441   2.579
  103SOL     OW  443   1.741   3.380   1.597
  103SOL    HW1  444   1.786   3.304   1.559
  103SOL    HW2  445   1.684   3.342   1.664
  104SOL     OW  446   2.320   3.761   2.061
  104SOL    HW1  447   2.292   3.850   2.036
  104SOL    HW2  448   2.241   3.708   2.054
  105SOL     OW  449   0.227   2.326   1.535
  105SOL    HW1  450   0.220   2.420   1.552
  105SOL    HW2  451   0.241   2.287   1.622
  106SOL     OW  452   1.884   3.676   1.326
  106SOL    HW1  453   1.971   3.660   1.361
  106SOL    HW2  454   1.897   3.744   1.260
  107SOL     OW  455   2.106   1.643   0.823
  107SOL    HW1  456   2.049   1.653   0.747
  107SOL    HW2  457   2.173   1.711   0.813
  108SOL     OW  458   0.005   1.533   1.194
  108SOL    HW1  459   0.093   1.564   1.173
  108SOL    HW2  460  -0.053   1.589   1.144
  109SOL     OW  461   1.378   0.432   3.353
  109SOL    HW1  462   1.326   0.421   3.432
  109SOL    HW2  463   1.444   0.363   3.359
  110SOL     OW  464   2.745   3.634   3.511
  110SOL    HW1  465   2.763   3.702   3.577
  110SOL    HW2  466   2.734   3.554   3.562
  111SOL     OW  467   3.441   0.207   3.085
  111SOL    HW1  468   3.494   0.270   3.036
  111SOL    HW2  469   3.390   0.262   3.146
  112SOL     OW  470   3.509   3.260   1.244
  112SOL    HW1  471   3.578   3.317   1.278
  112SOL    HW2  472   3.498   3.193   1.311
  113SOL     OW  473   1.531   1.601   0.014
  113SOL    HW1  474   1.457   1.653  -0.017
  113SOL    HW2  475   1.583   1.662   0.067
  114SOL     OW  476   1.385   3.620   0.163
  114SOL    HW1  477   1.421   3.664   0.086
  114SOL    HW2  478   1.293   3.603   0.140
  115SOL     OW  479   1.667   3.589   3.774
  115SOL    HW1  480   1.668   3.634   3.690
  115SOL    HW2  481   1.755   3.554   3.783
  116SOL     OW  482   2.117   1.533   2.387
  116SOL    HW1  483   2.102   1.485   2.469
  116SOL    HW2  484   2.048   1.599   2.385
  117SOL     OW  485   2.653   2.175   2.121
  117SOL    HW1  486   2.596   2.196   2.048
  117SOL    HW2  487   2.624   2.232   2.192
  118SOL     OW  488   0.930   0.219   3.121
  118SOL    HW1  489   0.989   0.149   3.092
  118SOL    HW2  490   0.878   0.239   3.043
  119SOL     OW  491   2.101   3.844   1.663
  119SOL    HW1  492   2.118   3.861   1.755
  119SOL    HW2  493   2.032   3.907   1.639
  120SOL     OW  494   0.738   2.662   2.058
  120SOL    HW1  495   0.701   2.748   2.040
  120SOL    HW2  496   0.760   2.627   1.972
  121SOL     OW  497   0.234   2.639   3.186
  121SOL    HW1  498   0.275   2.702   3.244
  121SOL    HW2  499   0.140   2.655   3.196
  122SOL     OW  500   1.086   0.540   1.620
  122SOL    HW1  501   1.179   0.562   1.608
  122SOL    HW2  502   1.086   0.471   1.686
  123SOL     OW  503   3.063   3.677   2.835
  123SOL    HW1  504   2.986   3.729   2.859
  123SOL    HW2  505   3.137   3.722   2.876
  124SOL     OW  506   0.885   2.672   2.944
  124SOL    HW1  507   0.925   2.597   2.900
  124SOL    HW2  508   0.802   2.687   2.898
  125SOL     OW  509   3.827   3.559   2.309
  125SOL    HW1  510   3.738   3.556   2.344
  125SOL    HW2  511   3.881   3.514   2.374
  126SOL     OW  512   0.423   0.206   3.268
  126SOL    HW1  513   0.495   0.208   3.331
  126SOL    HW2  514   0.390   0.116   3.272
  127SOL     OW  515   3.352   1.024   3.722
  127SOL    HW1  516   3.276   1.080   3.704
  127SOL    HW2  517   3.417   1.051   3.657
  128SOL     OW  518   3.812   2.671   3.587
  128SOL    HW1  519   3.866   2.742   3.553
  128SOL    HW2  520   3.840   2.661   3.678
  129SOL     OW  521   1.791   0.032   0.952
  129SOL    HW1  522   1.731   0.050   0.879
  129SOL    HW2  523   1.733   0.013   1.026
  130SOL     OW  524   2.692   1.708   0.318
  130SOL    HW1  525   2.781   1.700   0.282
  130SOL    HW2  526   2.635   1.709   0.242
  131SOL     OW  527   0.299   2.290   0.939
  131SOL    HW1  528   0.388   2.310   0.910
  131SOL    HW2  529   0.295   2.195   0.938
  132SOL     OW  530   2.912   3.919   0.267
  132SOL    HW1  531   2.839   3.969   0.303
  132SOL    HW2  532   2.926   3.849   0.330
  133SOL     OW  533   0.443   3.113   3.686
  133SOL    HW1  534   0.355   3.078   3.696
  133SOL    HW2  535   0.431   3.208   3.687
  134SOL     OW  536   0.736   0.868   1.391
  134SOL    HW1  537   0.821   0.826   1.403
  134SOL    HW2  538   0.731   0.886   1.298
  135SOL     OW  539   3.455   0.977   0.092
  135SOL    HW1  540   3.545   1.008   0.103
  135SOL    HW2  541   3.438   0.986  -0.002
  136SOL     OW  542   3.185   0.759   2.443
  136SOL    HW1  543   3.238   0.798   2.374
  136SOL    HW2  544   3.095   0.777   2.417
  137SOL     OW  545   0.988   0.233   3.638
  137SOL    HW1  546   0.934   0.285   3.578
  137SOL    HW2  547   1.070   0.219   3.591
  138SOL     OW  548   0.516   2.101   3.223
  138SOL    HW1  549   0.476   2.164   3.283
  138SOL    HW2  550   0.555   2.156   3.155
  139SOL     OW  551   3.067   1.017   1.697
  139SOL    HW1  552   3.157   1.051   1.694
  139SOL    HW2  553   3.035   1.040   1.784
  140SOL     OW  554   3.770   2.785   3.155
  140SOL    HW1  555   3.848   2.807   3.104
  140SOL    HW2  556   3.785   2.695   3.185
  141SOL     OW  557   1.653   0.285   2.566
  141SOL    HW1  558   1.726   0.230   2.537
  141SOL    HW2  559   1.655   0.360   2.506
  142SOL     OW  560   0.974   1.559   3.490
  142SOL    HW1  561   0.896   1.504   3.496
  142SOL    HW2  562   0.944   1.646   3.517
  143SOL     OW  563   1.102   2.647   3.649
  143SOL    HW1  564   1.050   2.727   3.656
  143SOL    HW2  565   1.040   2.576   3.668
  144SOL     OW  566   1.204   1.973   0.332
  144SOL    HW1  567   1.283   2.028   0.335
  144SOL    HW2  568   1.165   1.993   0.247
  145SOL     OW  569   3.527   0.359   2.207
  145SOL    HW1  570   3.487   0.273   2.221
  145SOL    HW2  571   3.617   0.340   2.182
  146SOL     OW  572   2.575   3.832   0.855
  146SOL    HW1  573   2.494   3.817   0.904
  146SOL    HW2  574   2.643   3.789   0.907
  147SOL     OW  575   1.271   1.070   0.473
  147SOL    HW1  576   1.339   1.121   0.518
  147SOL    HW2  577   1.309   1.049   0.388
  148SOL     OW  578   2.245   3.938   2.457
  148SOL    HW1  579   2.200   3.856   2.476
  148SOL    HW2  580   2.227   3.954   2.364
  149SOL     OW  581   1.465   2.826   1.586
  149SOL    HW1  582   1.512   2.871   1.656
  149SOL    HW2  583   1.514   2.849   1.507
  150SOL     OW  584   1.813   0.538   2.408
  150SOL    HW1  585   1.772   0.582   2.483
  150SOL    HW2  586   1.900   0.577   2.402
  151SOL     OW  587   2.899   3.299   3.131
  151SOL    HW1  588   2.900   3.395   3.134
  151SOL    HW2  589   2.985   3.276   3.096
  152SOL     OW  590   2.380   1.650   3.827
  152SOL    HW1  591   2.318   1.597   3.778
  152SOL    HW2  592   2.449   1.672   3.764
  153SOL     OW  593   3.471   2.773   2.115
  153SOL    HW1  594   3.526   2.852   2.112
  153SOL    HW2  595   3.440   2.768   2.205
  154SOL     OW  596   0.354   3.045   3.088
  154SOL    HW1  597   0.353   2.974   3.024
  154SOL    HW2  598   0.303   3.115   3.047
  155SOL     OW  599   1.207   2.381   0.449
  155SOL    HW1  600   1.212   2.295   0.490
  155SOL    HW2  601   1.190   2.441   0.522
  156SOL     OW  602   3.271   1.138   2.697
  156SOL    HW1  603   3.316   1.190   2.763
  156SOL    HW2  604   3.333   1.069   2.674
  157SOL     OW  605   2.427   0.148   3.598
  157SOL    HW1  606   2.385   0.077   3.647
  157SOL    HW2  607   2.435   0.219   3.662
  158SOL     OW  608   2.558   1.093   0.744
  158SOL    HW1  609   2.638   1.042   0.730
  158SOL    HW2  610   2.528   1.066   0.830
  159SOL     OW  611   0.499   3.144   0.883
  159SOL    HW1  612   0.508   3.118   0.975
  159SOL    HW2  613   0.533   3.234   0.881
  160SOL     OW  614   1.731   1.588   3.410
  160SOL    HW1  615   1.712   1.598   3.503
  160SOL    HW2  616   1.693   1.503   3.386
  161SOL     OW  617   3.355   1.877   0.920
  161SOL    HW1  618   3.354   1.972   0.929
  161SOL    HW2  619   3.318   1.845   1.002
  162SOL     OW  620   0.504   0.372   1.894
  162SOL    HW1  621   0.510   0.345   1.802
  162SOL    HW2  622   0.595   0.375   1.924
  163SOL     OW  623   1.870   1.236   3.578
  163SOL    HW1  624   1.929   1.226   3.653
  163SOL    HW2  625   1.915   1.192   3.506
  164SOL     OW  626   0.514   1.655   0.137
  164SOL    HW1  627   0.494   1.632   0.046
  164SOL    HW2  628   0.438   1.625   0.187
  165SOL     OW  629   1.844   3.059   3.277
  165SOL    HW1  630   1.849   3.080   3.183
  165SOL    HW2  631   1.797   3.132   3.315
  166SOL     OW  632   3.170   2.238   0.234
  166SOL    HW1  633   3.243   2.227   0.295
  166SOL    HW2  634   3.164   2.153   0.189
  167SOL     OW  635   1.973   3.322   2.009
  167SOL    HW1  636   2.010   3.238   2.034
  167SOL    HW2  637   2.049   3.380   2.001
  168SOL     OW  638   0.049   3.307   1.858
  168SOL    HW1  639   0.021   3.238   1.917
  168SOL    HW2  640   0.113   3.265   1.800
  169SOL     OW  641   1.830   0.329   3.240
  169SOL    HW1  642   1.859   0.242   3.211
  169SOL    HW2  643   1.911   0.372   3.270
  170SOL     OW  644   3.242   2.934   3.350
  170SOL    HW1  645   3.305   2.869   3.319
  170SOL    HW2  646   3.188   2.886   3.413
  171SOL     OW  647   2.614   1.572   0.794
  171SOL    HW1  648   2.544   1.574   0.858
  171SOL    HW2  649   2.660   1.490   0.811
  172SOL     OW  650   2.952   0.427   3.203
  172SOL    HW1  651   2.954   0.365   3.130
  172SOL    HW2  652   2.996   0.382   3.275
  173SOL     OW  653   3.924   0.937   1.268
  173SOL    HW1  654   4.018   0.939   1.249
  173SOL    HW2  655   3.890   1.017   1.228
  174SOL     OW  656   2.842   3.710   1.329
  174SOL    HW1  657   2.761   3.751   1.358
  174SOL    HW2  658   2.903   3.782   1.317
  175SOL     OW  659   3.784   1.189   0.383
  175SOL    HW1  660   3.809   1.259   0.444
  175SOL    HW2  661   3.800   1.108   0.432
  176SOL     OW  662   1.335   3.068   2.642
  176SOL    HW1  663   1.268   3.123   2.601
  176SOL    HW2  664   1.364   3.118   2.718
  177SOL     OW  665   3.944   3.586   0.402
  177SOL    HW1  666   3.924   3.679   0.396
  177SOL    HW2  667   3.904   3.548   0.324
  178SOL     OW  668   1.190   2.846   1.582
  178SOL    HW1  669   1.185   2.941   1.596
  178SOL    HW2  670   1.283   2.829   1.567
  179SOL     OW  671   2.811   1.146   1.356
  179SOL    HW1  672   2.834   1.062   1.396
  179SOL    HW2  673   2.805   1.127   1.262
  180SOL     OW  674   2.533   0.935   3.704
  180SOL    HW1  675   2.604   0.873   3.719
  180SOL    HW2  676   2.496   0.908   3.620
  181SOL     OW  677   3.131   1.374   2.193
  181SOL    HW1  678   3.126   1.339   2.105
  181SOL    HW2  679   3.152   1.467   2.181
  182SOL     OW  680   3.046   1.779   1.945
  182SOL    HW1  681   3.111   1.841   1.912
  182SOL    HW2  682   2.972   1.833   1.970
  183SOL     OW  683   2.910   0.619   0.975
  183SOL    HW1  684   2.976   0.661   0.920
  183SOL    HW2  685   2.912   0.527   0.948
  184SOL     OW  686   0.957   3.146   3.477
  184SOL    HW1  687   0.866   3.140   3.449
  184SOL    HW2  688   1.007   3.122   3.399
  185SOL     OW  689   1.708   2.919   3.717
  185SOL    HW1  690   1.777   2.881   3.663
  185SOL    HW2  691   1.714   3.013   3.700
  186SOL     OW  692   2.304   1.049   0.315
  186SOL    HW1  693   2.249   1.126   0.297
  186SOL    HW2  694   2.355   1.074   0.392
  187SOL     OW  695   1.780   2.935   2.184
  187SOL    HW1  696   1.811   3.005   2.242
  187SOL    HW2  697   1.854   2.918   2.126
  188SOL     OW  698   3.729   0.518   3.956
  188SOL    HW1  699   3.679   0.534   3.875
  188SOL    HW2  700   3.678   0.452   4.002
  189SOL     OW  701   1.808   1.017   1.762
  189SOL    HW1  702   1.854   0.955   1.705
  189SOL    HW2  703   1.822   0.985   1.851
  190SOL     OW  704   2.356   2.881   2.133
  190SOL    HW1  705   2.301   2.819   2.085
  190SOL    HW2  706   2.437   2.886   2.082
  191SOL     OW  707   0.666   0.351   3.933
  191SOL    HW1  708   0.657   0.273   3.987
  191SOL    HW2  709   0.576   0.383   3.921
  192SOL     OW  710   1.351   1.132   2.655
  192SOL    HW1  711   1.362   1.185   2.734
  192SOL    HW2  712   1.263   1.154   2.624
  193SOL     OW  713   0.333   3.793   0.664
  193SOL    HW1  714   0.352   3.884   0.689
  193SOL    HW2  715   0.282   3.759   0.737
  194SOL     OW  716   3.070   1.767   1.619
  194SOL    HW1  717   3.062   1.675   1.644
  194SOL    HW2  718   2.980   1.799   1.616
  195SOL     OW  719   1.567   1.178   1.336
  195SOL    HW1  720   1.515   1.253   1.364
  195SOL    HW2  721   1.644   1.180   1.393
  196SOL     OW  722   0.366   2.156   2.918
  196SOL    HW1  723   0.445   2.206   2.936
  196SOL    HW2  724   0.296   2.222   2.915
  197SOL     OW  725   2.107   1.068   3.199
  197SOL    HW1  726   2.193   1.043   3.163
  197SOL    HW2  727   2.044   1.019   3.147
  198SOL     OW  728   1.198   0.984   3.349
  198SOL    HW1  729   1.151   0.965   3.430
  198SOL    HW2  730   1.178   0.910   3.291
  199SOL     OW  731   0.418   0.391   3.849
  199SOL    HW1  732   0.364   0.369   3.925
  199SOL    HW2  733   0.402   0.320   3.787
  200SOL     OW  734   2.854   2.232   3.133
  200SOL    HW1  735   2.948   2.217   3.121
  200SOL    HW2  736   2.814   2.201   3.052
  201SOL     OW  737   0.708   3.181   3.380
  201SOL    HW1  738   0.662   3.262   3.360
  201SOL    HW2  739   0.741   3.150   3.296
  202SOL     OW  740   2.968   3.293   0.601
  202SOL    HW1  741   3.016   3.301   0.684
  202SOL    HW2  742   2.954   3.198   0.592
  203SOL     OW  743   3.935   0.943   2.150
  203SOL    HW1  744   3.876   0.933   2.075
  203SOL    HW2  745   3.918   0.866   2.205
  204SOL     OW  746   0.376   0.577   2.664
  204SOL    HW1  747   0.349   0.586   2.755
  204SOL    HW2  748   0.296   0.554   2.617
  205SOL     OW  749   3.794   2.200   1.424
  205SOL    HW1  750   3.720   2.239   1.378
  205SOL    HW2  751   3.767   2.111   1.445
  206SOL     OW  752   1.071   2.022   2.271
  206SOL    HW1  753   1.145   2.003   2.213
  206SOL    HW2  754   1.061   2.117   2.266
  207SOL     OW  755   2.821   1.818   1.599
  207SOL    HW1  756   2.752   1.885   1.605
  207SOL    HW2  757   2.774   1.738   1.576
  208SOL     OW  758   3.277   3.195   3.339
  208SOL    HW1  759   3.205   3.213   3.279
  208SOL    HW2  760   3.273   3.100   3.353
  209SOL     OW  761   3.100   0.320   0.019
  209SOL    HW1  762   3.161   0.394   0.019
  209SOL    HW2  763   3.145   0.250   0.065
  210SOL     OW  764   3.751   0.665   2.599
  210SOL    HW1  765   3.674   0.681   2.545
  210SOL    HW2  766   3.825   0.687   2.543
  211SOL     OW  767   0.853   1.152   0.205
  211SOL    HW1  768   0.799   1.122   0.278
  211SOL    HW2  769   0.927   1.092   0.204
  212SOL     OW  770   1.871   0.025   2.736
  212SOL    HW1  771   1.886   0.105   2.785
  212SOL    HW2  772   1.956  -0.018   2.733
  213SOL     OW  773   0.319   0.525   1.542
  213SOL    HW1  774   0.307   0.483   1.627
  213SOL    HW2  775   0.414   0.527   1.529
  214SOL     OW  776   1.787   2.627   1.995
  214SOL    HW1  777   1.700   2.667   2.006
  214SOL    HW2  778   1.772   2.555   1.934
  215SOL     OW  779   2.717   1.323   0.896
  215SOL    HW1  780   2.810   1.308   0.878
  215SOL    HW2  781   2.675   1.241   0.871
  216SOL     OW  782   3.410   3.508   3.674
  216SOL    HW1  783   3.472   3.451   3.719
  216SOL    HW2  784   3.338   3.450   3.648
  217SOL     OW  785   1.382   3.813   1.653
  217SOL    HW1  786   1.477   3.819   1.660
  217SOL    HW2  787   1.362   3.723   1.678
  218SOL     OW  788   0.271   2.694   2.696
  218SOL    HW1  789   0.201   2.651   2.747
  218SOL    HW2  790   0.315   2.622   2.651
  219SOL     OW  791   0.337   0.263   0.411
  219SOL    HW1  792   0.318   0.325   0.482
  219SOL    HW2  793   0.252   0.250   0.368
  220SOL     OW  794   0.870   1.586   3.842
  220SOL    HW1  795   0.896   1.657   3.901
  220SOL    HW2  796   0.951   1.563   3.795
  221SOL     OW  797   1.476   2.821   0.201
  221SOL    HW1  798   1.484   2.913   0.177
  221SOL    HW2  799   1.507   2.773   0.124
  222SOL     OW  800   0.311   1.552   1.334
  222SOL    HW1  801   0.368   1.492   1.286
  222SOL    HW2  802   0.268   1.604   1.265
  223SOL     OW  803   0.162   2.167   0.576
  223SOL    HW1  804   0.119   2.166   0.662
  223SOL    HW2  805   0.111   2.106   0.523
  224SOL     OW  806   0.008   3.455   2.511
  224SOL    HW1  807   0.004   3.360   2.500
  224SOL    HW2  808   0.028   3.467   2.603
  225SOL     OW  809   2.443   3.214   3.056
  225SOL    HW1  810   2.451   3.174   3.142
  225SOL    HW2  811   2.533   3.233   3.029
  226SOL     OW  812   3.241   0.078   3.415
  226SOL    HW1  813   3.307   0.011   3.400
  226SOL    HW2  814   3.164   0.049   3.367
  227SOL     OW  815   0.852   3.061   3.169
  227SOL    HW1  816   0.919   3.127   3.151
  227SOL    HW2  817   0.883   2.982   3.126
  228SOL     OW  818   2.898   2.766   0.675
  228SOL    HW1  819   2.943   2.811   0.746
  228SOL    HW2  820   2.859   2.837   0.623
  229SOL     OW  821   0.431   0.734   3.549
  229SOL    HW1  822   0.340   0.714   3.570
  229SOL    HW2  823   0.482   0.679   3.609
  230SOL     OW  824   3.504   1.768   1.984
  230SOL    HW1  825   3.579   1.718   1.951
  230SOL    HW2  826   3.487   1.833   1.915
  231SOL     OW  827   0.466   0.823   1.182
  231SOL    HW1  828   0.458   0.728   1.175
  231SOL    HW2  829   0.532   0.847   1.118
  232SOL     OW  830   1.959   1.859   3.528
  232SOL    HW1  831   2.028   1.799   3.500
  232SOL    HW2  832   1.950   1.920   3.455
  233SOL     OW  833   1.375   3.622   3.616
  233SOL    HW1  834   1.388   3.652   3.706
  233SOL    HW2  835   1.426   3.541   3.610
  234SOL     OW  836   2.785   1.267   1.811
  234SOL    HW1  837   2.810   1.225   1.893
  234SOL    HW2  838   2.831   1.351   1.812
  235SOL     OW  839   0.651   3.824   1.094
  235SOL    HW1  840   0.724   3.868   1.052
  235SOL    HW2  841   0.690   3.744   1.131
  236SOL     OW  842   3.030   0.960   3.031
  236SOL    HW1  843   3.036   1.038   2.975
  236SOL    HW2  844   3.000   0.994   3.115
  237SOL     OW  845   3.772   1.828   1.772
  237SOL    HW1  846   3.763   1.759   1.837
  237SOL    HW2  847   3.703   1.811   1.708
  238SOL     OW  848   3.080   2.731   3.451
  238SOL    HW1  849   3.070   2.717   3.357
  238SOL    HW2  850   3.075   2.643   3.488
  239SOL     OW  851   1.804   3.923   0.009
  239SOL    HW1  852   1.750   3.950   0.084
  239SOL    HW2  853   1.893   3.920   0.044
  240SOL     OW  854   1.053   2.221   2.547
  240SOL    HW1  855   1.052   2.291   2.612
  240SOL    HW2  856   1.131   2.237   2.494
  241SOL     OW  857   3.688   0.680   2.866
  241SOL    HW1  858   3.688   0.667   2.771
  241SOL    HW2  859   3.781   0.681   2.890
  242SOL     OW  860   3.673   2.396   1.107
  242SOL    HW1  861   3.643   2.349   1.186
  242SOL    HW2  862   3.598   2.393   1.048
  243SOL     OW  863   3.077   3.857   3.611
  243SOL    HW1  864   3.004   3.917   3.598
  243SOL    HW2  865   3.037   3.777   3.644
  244SOL     OW  866   3.486   3.686   1.963
  244SOL    HW1  867   3.406   3.712   2.008
  244SOL    HW2  868   3.556   3.730   2.011
  245SOL     OW  869   0.389   1.012   0.298
  245SOL    HW1  870   0.411   1.100   0.266
  245SOL    HW2  871   0.296   1.001   0.277
  246SOL     OW  872   0.191   1.346   0.021
  246SOL    HW1  873   0.099   1.339   0.044
  246SOL    HW2  874   0.215   1.436   0.044
  247SOL     OW  875   1.023   0.969   0.574
  247SOL    HW1  876   1.107   1.007   0.550
  247SOL    HW2  877   1.009   0.899   0.510
  248SOL     OW  878   1.800   2.086   3.389
  248SOL    HW1  879   1.796   2.005   3.339
  248SOL    HW2  880   1.797   2.155   3.323
  249SOL     OW  881   2.298   1.992   1.278
  249SOL    HW1  882   2.245   2.071   1.267
  249SOL    HW2  883   2.328   1.970   1.190
  250SOL     OW  884   3.807   2.874   1.868
  250SOL    HW1  885   3.787   2.781   1.856
  250SOL    HW2  886   3.733   2.908   1.918
  251SOL     OW  887   1.611   3.569   2.914
  251SOL    HW1  888   1.661   3.650   2.923
  251SOL    HW2  889   1.527   3.597   2.878
  252SOL     OW  890   1.605   1.690   3.628
  252SOL    HW1  891   1.527   1.654   3.586
  252SOL    HW2  892   1.620   1.632   3.703
  253SOL     OW  893   3.509   0.407   1.167
  253SOL    HW1  894   3.417   0.416   1.144
  253SOL    HW2  895   3.551   0.483   1.127
  254SOL     OW  896   2.772   2.451   3.264
  254SOL    HW1  897   2.791   2.362   3.234
  254SOL    HW2  898   2.774   2.504   3.184
  255SOL     OW  899   3.832   0.493   0.653
  255SOL    HW1  900   3.812   0.409   0.613
  255SOL    HW2  901   3.928   0.494   0.660
  256SOL     OW  902   3.483   1.123   3.498
  256SOL    HW1  903   3.400   1.166   3.474
  256SOL    HW2  904   3.550   1.174   3.453
  257SOL     OW  905   3.344   2.150   0.412
  257SOL    HW1  906   3.433   2.179   0.389
  257SOL    HW2  907   3.355   2.060   0.442
  258SOL     OW  908   0.733   2.927   0.832
  258SOL    HW1  909   0.784   2.947   0.911
  258SOL    HW2  910   0.652   2.889   0.866
  259SOL     OW  911   3.919   2.288   2.757
  259SOL    HW1  912   4.006   2.294   2.719
  259SOL    HW2  913   3.883   2.207   2.721
  260SOL     OW  914   0.772   1.971   2.788
  260SOL    HW1  915   0.737   2.036   2.726
  260SOL    HW2  916   0.849   1.935   2.743
  261SOL     OW  917   1.560   0.278   3.531
  261SOL    HW1  918   1.528   0.356   3.577
  261SOL    HW2  919   1.540   0.205   3.590
  262SOL     OW  920   2.230   2.712   1.953
  262SOL    HW1  921   2.173   2.644   1.917
  262SOL    HW2  922   2.290   2.733   1.882
  263SOL     OW  923   2.848   1.103   1.072
  263SOL    HW1  924   2.931   1.063   1.049
  263SOL    HW2  925   2.820   1.148   0.992
  264SOL     OW  926   2.021   2.902   2.031
  264SOL    HW1  927   2.042   2.941   1.946
  264SOL    HW2  928   2.079   2.826   2.037
  265SOL     OW  929   1.002   1.312   3.730
  265SOL    HW1  930   1.071   1.251   3.701
  265SOL    HW2  931   0.949   1.260   3.790
  266SOL     OW  932   3.789   1.156   1.060
  266SOL    HW1  933   3.709   1.130   1.015
  266SOL    HW2  934   3.857   1.149   0.993
  267SOL     OW  935   3.433   1.285   1.459
  267SOL    HW1  936   3.493   1.265   1.387
  267SOL    HW2  937   3.363   1.220   1.451
  268SOL     OW  938   0.943   2.775   1.479
  268SOL    HW1  939   1.023   2.800   1.525
  268SOL    HW2  940   0.907   2.858   1.447
  269SOL     OW  941   1.326   2.025   1.145
  269SOL    HW1  942   1.376   2.067   1.075
  269SOL    HW2  943   1.253   2.084   1.161
  270SOL     OW  944   1.852   3.829   3.531
  270SOL    HW1  945   1.789   3.823   3.460
  270SOL    HW2  946   1.847   3.920   3.560
  271SOL     OW  947   1.219   2.756   3.416
  271SOL    HW1  948   1.182   2.751   3.504
  271SOL    HW2  949   1.306   2.715   3.424
  272SOL     OW  950   2.572   2.149   0.615
  272SOL    HW1  951   2.493   2.119   0.571
  272SOL    HW2  952   2.612   2.209   0.552
  273SOL     OW  953   1.667   3.619   1.889
  273SOL    HW1  954   1.685   3.542   1.944
  273SOL    HW2  955   1.606   3.587   1.823
  274SOL     OW  956   2.768   3.341   2.037
  274SOL    HW1  957   2.821   3.295   2.101
  274SOL    HW2  958   2.688   3.289   2.031
  275SOL     OW  959   1.898   2.659   3.926
  275SOL    HW1  960   1.924   2.574   3.960
  275SOL    HW2  961   1.851   2.639   3.845
  276SOL     OW  962   2.643   0.320   1.395
  276SOL    HW1  963   2.701   0.357   1.462
  276SOL    HW2  964   2.632   0.228   1.421
  277SOL     OW  965   3.487   2.521   1.544
  277SOL    HW1  966   3.418   2.546   1.606
  277SOL    HW2  967   3.449   2.536   1.458
  278SOL     OW  968   2.612   0.663   2.921
  278SOL    HW1  969   2.601   0.605   2.846
  278SOL    HW2  970   2.706   0.658   2.941
  279SOL     OW  971   3.701   0.949   0.507
  279SOL    HW1  972   3.639   1.019   0.529
  279SOL    HW2  973   3.651   0.868   0.517
  280SOL     OW  974   3.497   1.246   1.178
  280SOL    HW1  975   3.461   1.172   1.129
  280SOL    HW2  976   3.592   1.237   1.166
  281SOL     OW  977   2.093   0.407   2.417
  281SOL    HW1  978   2.078   0.500   2.405
  281SOL    HW2  979   2.141   0.380   2.338
  282SOL     OW  980   3.812   3.141   3.883
  282SOL    HW1  981   3.858   3.141   3.966
  282SOL    HW2  982   3.847   3.216   3.835
  283SOL     OW  983   1.193   3.122   1.580
  283SOL    HW1  984   1.123   3.139   1.516
  283SOL    HW2  985   1.214   3.208   1.616
  284SOL     OW  986   0.588   1.287   2.298
  284SOL    HW1  987   0.554   1.374   2.319
  284SOL    HW2  988   0.558   1.271   2.208
  285SOL     OW  989   2.139   3.673   1.453
  285SOL    HW1  990   2.185   3.595   1.485
  285SOL    HW2  991   2.133   3.730   1.529
  286SOL     OW  992   0.028   0.283   0.857
  286SOL    HW1  993   0.037   0.188   0.845
  286SOL    HW2  994  -0.063   0.295   0.882
  287SOL     OW  995   1.865   0.156   3.537
  287SOL    HW1  996   1.803   0.226   3.518
  287SOL    HW2  997   1.941   0.201   3.575
  288SOL     OW  998   3.066   2.965   1.305
  288SOL    HW1  999   3.005   2.908   1.258
  288SOL    HW2 1000   3.129   2.994   1.240
  289SOL     OW 1001   3.495   2.474   2.333
  289SOL    HW1 1002   3.485   2.386   2.368
  289SOL    HW2 1003   3.488   2.531   2.411
  290SOL     OW 1004   2.029   3.451   3.362
  290SOL    HW1 1005   2.043   3.489   3.449
  290SOL    HW2 1006   2.117   3.443   3.325
  291SOL     OW 1007   0.372   3.645   0.426
  291SOL    HW1 1008   0.403   3.643   0.517
  291SOL    HW2 1009   0.298   3.707   0.428
  292SOL     OW 1010   2.391   1.021   2.559
  292SOL    HW1 1011   2.326   0.969   2.513
  292SOL    HW2 1012   2.419   1.087   2.496
  293SOL     OW 1013   0.493   0.822   0.496
  293SOL    HW1 1014   0.420   0.865   0.452
  293SOL    HW2 1015   0.514   0.748   0.439
  294SOL     OW 1016   3.101   3.595   1.982
  294SOL    HW1 1017   3.163   3.600   2.054
  294SOL    HW2 1018   3.015   3.602   2.023
  295SOL     OW 1019   0.761   1.618   2.146
  295SOL    HW1 1020   0.765   1.524   2.130
  295SOL    HW2 1021   0.682   1.648   2.100
  296SOL     OW 1022   3.946   0.899   2.476
  296SOL    HW1 1023   4.010   0.952   2.429
  296SOL    HW2 1024   3.865   0.950   2.473
  297SOL     OW 1025   0.964   3.850   0.629
  297SOL    HW1 1026   0.915   3.887   0.555
  297SOL    HW2 1027   1.030   3.794   0.588
  298SOL     OW 1028   1.016   3.861   1.043
  298SOL    HW1 1029   1.002   3.779   0.996
  298SOL    HW2 1030   1.086   3.905   0.994
  299SOL     OW 1031   2.929   0.647   3.625
  299SOL    HW1 1032   2.840   0.654   3.659
  299SOL    HW2 1033   2.980   0.708   3.678
  300SOL     OW 1034   1.350   2.364   1.590
  300SOL    HW1 1035   1.386   2.289   1.543
  300SOL    HW2 1036   1.413   2.383   1.659
  301SOL     OW 1037   1.767   1.274   3.263
  301SOL    HW1 1038   1.849   1.238   3.229
  301SOL    HW2 1039   1.712   1.197   3.280
  302SOL     OW 1040   0.010   3.203   0.156
  302SOL    HW1 1041  -0.015   3.295   0.157
  302SOL    HW2 1042   0.071   3.193   0.228
  303SOL     OW 1043   0.329   2.731   3.664
  303SOL    HW1 1044   0.405   2.718   3.722
  303SOL    HW2 1045   0.260   2.763   3.722
  304SOL     OW 1046   2.562   2.866   1.967
  304SOL    HW1 1047   2.657   2.871   1.958
  304SOL    HW2 1048   2.529   2.871   1.877
  305SOL     OW 1049   2.278   0.334   2.966
  305SOL    HW1 1050   2.330   0.333   2.885
  305SOL    HW2 1051   2.190   0.359   2.938
  306SOL     OW 1052   3.649   1.442   0.848
  306SOL    HW1 1053   3.590   1.426   0.922
  306SOL    HW2 1054   3.686   1.528   0.865
  307SOL     OW 1055   3.802   1.671   0.502
  307SOL    HW1 1056   3.798   1.725   0.423
  307SOL    HW2 1057   3.797   1.734   0.575
  308SOL     OW 1058   2.000   3.152   3.026
  308SOL    HW1 1059   1.991   3.244   2.999
  308SOL    HW2 1060   2.052   3.112   2.956
  309SOL     OW 1061   0.621   0.590   3.129
  309SOL    HW1 1062   0.561   0.664   3.139
  309SOL    HW2 1063   0.707   0.626   3.154
  310SOL     OW 1064   3.283   3.706   3.005
  310SOL    HW1 1065   3.337   3.742   3.075
  310SOL    HW2 1066   3.265   3.781   2.948
  311SOL     OW 1067   2.586   0.602   0.065
  311SOL    HW1 1068   2.632   0.536   0.116
  311SOL    HW2 1069   2.599   0.684   0.113
  312SOL     OW 1070   2.616   1.755   2.207
  312SOL    HW1 1071   2.657   1.670   2.192
  312SOL    HW2 1072   2.679   1.819   2.173
  313SOL     OW 1073   2.659   3.436   2.807
  313SOL    HW1 1074   2.712   3.450   2.728
  313SOL    HW2 1075   2.584   3.494   2.796
  314SOL     OW 1076   1.278   2.662   3.848
  314SOL    HW1 1077   1.226   2.667   3.768
  314SOL    HW2 1078   1.355   2.715   3.830
  315SOL     OW 1079   1.717   3.644   0.917
  315SOL    HW1 1080   1.808   3.617   0.908
  315SOL    HW2 1081   1.695   3.625   1.008
  316SOL     OW 1082   1.458   1.793   1.820
  316SOL    HW1 1083   1.543   1.799   1.864
  316SOL    HW2 1084   1.476   1.820   1.730
  317SOL     OW 1085   1.662   3.861   1.618
  317SOL    HW1 1086   1.705   3.776   1.617
  317SOL    HW2 1087   1.732   3.924   1.603
  318SOL     OW 1088   0.712   2.114   3.534
  318SOL    HW1 1089   0.770   2.076   3.600
  318SOL    HW2 1090   0.738   2.206   3.530
  319SOL     OW 1091   3.433   2.557   3.368
  319SOL    HW1 1092   3.468   2.529   3.453
  319SOL    HW2 1093   3.445   2.651   3.367
  320SOL     OW 1094   2.887   2.973   2.755
  320SOL    HW1 1095   2.797   2.941   2.757
  320SOL    HW2 1096   2.905   2.998   2.846
  321SOL     OW 1097   1.769   0.508   2.965
  321SOL    HW1 1098   1.772   0.590   2.916
  321SOL    HW2 1099   1.794   0.533   3.054
  322SOL     OW 1100   1.423   2.799   3.159
  322SOL    HW1 1101   1.496   2.813   3.219
  322SOL    HW2 1102   1.448   2.844   3.078
  323SOL     OW 1103   0.573   3.382   1.735
  323SOL    HW1 1104   0.613   3.323   1.799
  323SOL    HW2 1105   0.644   3.440   1.709
  324SOL     OW 1106   2.375   0.015   0.498
  324SOL    HW1 1107   2.468   0.023   0.519
  324SOL    HW2 1108   2.363   0.069   0.420
  325SOL     OW 1109   0.581   2.195   2.378
  325SOL    HW1 1110   0.587   2.268   2.439
  325SOL    HW2 1111   0.564   2.236   2.293
  326SOL     OW 1112   1.008   1.104   1.028
  326SOL    HW1 1113   1.103   1.115   1.021
  326SOL    HW2 1114   0.992   1.099   1.122
  327SOL     OW 1115   0.343   3.492   3.684
  327SOL    HW1 1116   0.308   3.483   3.595
  327SOL    HW2 1117   0.432   3.525   3.671
  328SOL     OW 1118   2.312   3.048   0.334
  328SOL    HW1 1119   2.334   2.960   0.303
  328SOL    HW2 1120   2.262   3.033   0.414
  329SOL     OW 1121   1.942   1.750   2.919
  329SOL    HW1 1122   1.939   1.756   2.823
  329SOL    HW2 1123   1.861   1.705   2.942
  330SOL     OW 1124   0.692   2.677   1.383
  330SOL    HW1 1125   0.643   2.725   1.450
  330SOL    HW2 1126   0.780   2.669   1.418
  331SOL     OW 1127   2.430   1.175   3.925
  331SOL    HW1 1128   2.404   1.212   4.009
  331SOL    HW2 1129   2.503   1.117   3.946
  332SOL     OW 1130   2.403   2.943   2.413
  332SOL    HW1 1131   2.375   2.932   2.322
  332SOL    HW2 1132   2.495   2.969   2.406
  333SOL     OW 1133   0.103   3.636   0.801
  333SOL    HW1 1134   0.075   3.547   0.824
  333SOL    HW2 1135   0.029   3.674   0.754
  334SOL     OW 1136   1.969   3.020   1.531
  334SOL    HW1 1137   1.880   3.054   1.530
  334SOL    HW2 1138   1.992   3.008   1.439
  335SOL     OW 1139   0.319   3.475   0.969
  335SOL    HW1 1140   0.232   3.450   1.001
  335SOL    HW2 1141   0.331   3.423   0.890
  336SOL     OW 1142   0.974   3.054   0.384
  336SOL    HW1 1143   0.934   3.080   0.301
  336SOL    HW2 1144   0.993   2.961   0.374
  337SOL     OW 1145   2.898   1.064   2.575
  337SOL    HW1 1146   2.937   0.979   2.598
  337SOL    HW2 1147   2.891   1.061   2.480
  338SOL     OW 1148   1.976   0.261   2.838
  338SOL    HW1 1149   1.920   0.335   2.861
  338SOL    HW2 1150   2.031   0.294   2.766
  339SOL     OW 1151   0.874   3.913   0.371
  339SOL    HW1 1152   0.868   3.974   0.298
  339SOL    HW2 1153   0.834   3.833   0.338
  340SOL     OW 1154   2.954   2.478   1.387
  340SOL    HW1 1155   3.019   2.459   1.455
  340SOL    HW2 1156   2.936   2.571   1.396
  341SOL     OW 1157   1.509   3.619   2.164
  341SOL    HW1 1158   1.536   3.710   2.153
  341SOL    HW2 1159   1.420   3.616   2.131
  342SOL     OW 1160   2.991   1.500   1.589
  342SOL    HW1 1161   2.908   1.486   1.543
  342SOL    HW2 1162   2.972   1.477   1.680
  343SOL     OW 1163   0.331   1.940   1.226
  343SOL    HW1 1164   0.356   1.895   1.306
  343SOL    HW2 1165   0.340   2.033   1.247
  344SOL     OW 1166   3.030   0.103   1.058
  344SOL    HW1 1167   2.940   0.074   1.067
  344SOL    HW2 1168   3.044   0.111   0.963
  345SOL     OW 1169   1.491   2.391   1.819
  345SOL    HW1 1170   1.583   2.383   1.793
  345SOL    HW2 1171   1.493   2.382   1.915
  346SOL     OW 1172   0.653   0.595   0.651
  346SOL    HW1 1173   0.651   0.596   0.747
  346SOL    HW2 1174   0.652   0.687   0.626
  347SOL     OW 1175   0.390   0.476   0.611
  347SOL    HW1 1176   0.470   0.514   0.575
  347SOL    HW2 1177   0.347   0.548   0.656
  348SOL     OW 1178   1.820   1.142   1.495
  348SOL    HW1 1179   1.871   1.069   1.459
  348SOL    HW2 1180   1.811   1.120   1.588
  349SOL     OW 1181   1.083   1.021   1.292
  349SOL    HW1 1182   1.175   0.997   1.286
  349SOL    HW2 1183   1.082   1.104   1.338
  350SOL     OW 1184   0.604   1.826   2.931
  350SOL    HW1 1185   0.663   1.873   2.872
  350SOL    HW2 1186   0.517   1.841   2.895
  351SOL     OW 1187   2.450   0.617   2.386
  351SOL    HW1 1188   2.411   0.642   2.303
  351SOL    HW2 1189   2.415   0.679   2.450
  352SOL     OW 1190   0.064   2.825   1.697
  352SOL    HW1 1191   0.030   2.807   1.609
  352SOL    HW2 1192  -0.011   2.862   1.744
  353SOL     OW 1193   2.084   3.684   3.653
  353SOL    HW1 1194   2.046   3.743   3.589
  353SOL    HW2 1195   2.157   3.733   3.690
  354SOL     OW 1196   0.523   2.397   1.484
  354SOL    HW1 1197   0.575   2.330   1.528
  354SOL    HW2 1198   0.432   2.372   1.501
  355SOL     OW 1199   2.714   3.687   2.530
  355SOL    HW1 1200   2.793   3.734   2.504
  355SOL    HW2 1201   2.652   3.755   2.553
  356SOL     OW 1202   3.014   2.759   0.417
  356SOL    HW1 1203   2.934   2.729   0.373
  356SOL    HW2 1204   3.000   2.737   0.509
  357SOL     OW 1205   2.939   2.929   0.910
  357SOL    HW1 1206   3.020   2.901   0.951
  357SOL    HW2 1207   2.936   3.024   0.924
  358SOL     OW 1208   2.370   2.029   1.019
  358SOL    HW1 1209   2.442   1.990   0.968
  358SOL    HW2 1210   2.382   2.123   1.010
  359SOL     OW 1211   2.789   2.306   1.835
  359SOL    HW1 1212   2.709   2.253   1.832
  359SOL    HW2 1213   2.771   2.372   1.902
  360SOL     OW 1214   2.139   3.280   1.141
  360SOL    HW1 1215   2.222   3.320   1.114
  360SOL    HW2 1216   2.087   3.353   1.174
  361SOL     OW 1217   3.093   2.719   2.230
  361SOL    HW1 1218   2.998   2.731   2.231
  361SOL    HW2 1219   3.121   2.749   2.144
  362SOL     OW 1220   1.360   2.362   2.733
  362SOL    HW1 1221   1.423   2.360   2.661
  362SOL    HW2 1222   1.322   2.449   2.729
  363SOL     OW 1223   1.902   0.863   3.631
  363SOL    HW1 1224   1.993   0.850   3.606
  363SOL    HW2 1225   1.867   0.924   3.565
  364SOL     OW 1226   1.031   2.266   1.114
  364SOL    HW1 1227   0.943   2.249   1.082
  364SOL    HW2 1228   1.055   2.351   1.078
  365SOL     OW 1229   2.803   0.990   2.168
  365SOL    HW1 1230   2.867   1.055   2.198
  365SOL    HW2 1231   2.817   0.986   2.073
  366SOL     OW 1232   2.901   1.813   0.467
  366SOL    HW1 1233   2.813   1.788   0.438
  366SOL    HW2 1234   2.889   1.900   0.506
  367SOL     OW 1235   1.200   2.677   0.132
  367SOL    HW1 1236   1.232   2.712   0.048
  367SOL    HW2 1237   1.278   2.673   0.187
  368SOL     OW 1238   1.970   3.820   1.071
  368SOL    HW1 1239   1.990   3.875   1.147
  368SOL    HW2 1240   1.900   3.866   1.026
  369SOL     OW 1241   0.641   2.308   2.132
  369SOL    HW1 1242   0.691   2.389   2.135
  369SOL    HW2 1243   0.707   2.238   2.137
  370SOL     OW 1244   2.040   2.498   1.990
  370SOL    HW1 1245   2.017   2.478   1.900
  370SOL    HW2 1246   1.974   2.561   2.019
  371SOL     OW 1247   2.102   1.255   0.336
  371SOL    HW1 1248   2.026   1.224   0.287
  371SOL    HW2 1249   2.157   1.299   0.271
  372SOL     OW 1250   3.240   1.809   2.495
  372SOL    HW1 1251   3.195   1.856   2.425
  372SOL    HW2 1252   3.202   1.721   2.493
  373SOL     OW 1253   1.102   0.287   1.995
  373SOL    HW1 1254   1.166   0.358   1.989
  373SOL    HW2 1255   1.025   0.327   2.035
  374SOL     OW 1256   2.241   0.372   0.083
  374SOL    HW1 1257   2.222   0.347   0.174
  374SOL    HW2 1258   2.163   0.347   0.034
  375SOL     OW 1259   3.598   2.731   1.701
  375SOL    HW1 1260   3.675   2.679   1.676
  375SOL    HW2 1261   3.528   2.698   1.646
  376SOL     OW 1262   3.381   3.656   3.380
  376SOL    HW1 1263   3.349   3.614   3.459
  376SOL    HW2 1264   3.313   3.718   3.356
  377SOL     OW 1265   1.368   0.624   1.234
  377SOL    HW1 1266   1.321   0.617   1.151
  377SOL    HW2 1267   1.402   0.536   1.251
  378SOL     OW 1268   3.064   2.715   1.123
  378SOL    HW1 1269   3.093   2.676   1.040
  378SOL    HW2 1270   3.108   2.664   1.190
  379SOL     OW 1271   1.241   0.207   0.291
  379SOL    HW1 1272   1.308   0.252   0.343
  379SOL    HW2 1273   1.158   0.240   0.325
  380SOL     OW 1274   3.896   3.672   1.128
  380SOL    HW1 1275   3.870   3.688   1.037
  380SOL    HW2 1276   3.890   3.758   1.170
  381SOL     OW 1277   2.769   3.462   1.434
  381SOL    HW1 1278   2.786   3.526   1.364
  381SOL    HW2 1279   2.754   3.515   1.512
  382SOL     OW 1280   2.817   3.914  -0.003
  382SOL    HW1 1281   2.883   3.926   0.065
  382SOL    HW2 1282   2.759   3.846   0.031
  383SOL     OW 1283   2.167   3.256   2.674
  383SOL    HW1 1284   2.225   3.294   2.739
  383SOL    HW2 1285   2.093   3.316   2.669
  384SOL     OW 1286   3.300   0.656   2.822
  384SOL    HW1 1287   3.273   0.639   2.912
  384SOL    HW2 1288   3.275   0.578   2.774
  385SOL     OW 1289   1.931   2.655   1.713
  385SOL    HW1 1290   1.932   2.743   1.674
  385SOL    HW2 1291   1.838   2.636   1.727
  386SOL     OW 1292   2.564   3.228   3.777
  386SOL    HW1 1293   2.500   3.170   3.817
  386SOL    HW2 1294   2.582   3.295   3.843
  387SOL     OW 1295   3.125   2.194   3.830
  387SOL    HW1 1296   3.206   2.217   3.785
  387SOL    HW2 1297   3.093   2.277   3.866
  388SOL     OW 1298   0.570   2.736   3.836
  388SOL    HW1 1299   0.586   2.648   3.871
  388SOL    HW2 1300   0.546   2.788   3.912
  389SOL     OW 1301   2.490   2.196   3.444
  389SOL    HW1 1302   2.427   2.264   3.470
  389SOL    HW2 1303   2.570   2.221   3.489
  390SOL     OW 1304   3.613   0.103   0.651
  390SOL    HW1 1305   3.535   0.069   0.608
  390SOL    HW2 1306   3.634   0.039   0.719
  391SOL     OW 1307   3.210   3.743   0.756
  391SOL    HW1 1308   3.201   3.784   0.842
  391SOL    HW2 1309   3.119   3.734   0.725
  392SOL     OW 1310   3.293   2.208   1.634
  392SOL    HW1 1311   3.381   2.170   1.641
  392SOL    HW2 1312   3.267   2.227   1.724
  393SOL     OW 1313   1.158   2.804   0.372
  393SOL    HW1 1314   1.231   2.866   0.363
  393SOL    HW2 1315   1.135   2.781   0.282
  394SOL     OW 1316   1.491   1.262   0.528
  394SOL    HW1 1317   1.489   1.344   0.479
  394SOL    HW2 1318   1.549   1.279   0.602
  395SOL     OW 1319   3.853   3.835   0.380
  395SOL    HW1 1320   3.760   3.851   0.363
  395SOL    HW2 1321   3.890   3.921   0.396
  396SOL     OW 1322   1.979   2.198   2.730
  396SOL    HW1 1323   1.908   2.136   2.746
  396SOL    HW2 1324   2.059   2.147   2.745
  397SOL     OW 1325   0.642   2.197   2.986
  397SOL    HW1 1326   0.710   2.222   3.049
  397SOL    HW2 1327   0.679   2.121   2.941
  398SOL     OW 1328   0.300   3.911   3.198
  398SOL    HW1 1329   0.219   3.924   3.247
  398SOL    HW2 1330   0.295   3.821   3.166
  399SOL     OW 1331   2.911   2.055   0.884
  399SOL    HW1 1332   2.906   2.060   0.789
  399SOL    HW2 1333   2.828   2.016   0.911
  400SOL     OW 1334   3.851   1.718   0.947
  400SOL    HW1 1335   3.912   1.665   0.896
  400SOL    HW2 1336   3.783   1.743   0.884
  401SOL     OW 1337   3.616   0.872   3.021
  401SOL    HW1 1338   3.641   0.806   2.956
  401SOL    HW2 1339   3.524   0.853   3.041
  402SOL     OW 1340   0.364   1.198   3.173
  402SOL    HW1 1341   0.319   1.125   3.214
  402SOL    HW2 1342   0.447   1.161   3.142
  403SOL     OW 1343   1.921   3.404   2.757
  403SOL    HW1 1344   1.925   3.431   2.849
  403SOL    HW2 1345   1.828   3.408   2.735
  404SOL     OW 1346   1.053   2.830   3.221
  404SOL    HW1 1347   1.126   2.851   3.279
  404SOL    HW2 1348   0.985   2.795   3.280
  405SOL     OW 1349   3.916   1.874   0.664
  405SOL    HW1 1350   3.966   1.792   0.664
  405SOL    HW2 1351   3.975   1.938   0.704
  406SOL     OW 1352   2.790   0.924   2.803
  406SOL    HW1 1353   2.829   0.899   2.886
  406SOL    HW2 1354   2.864   0.949   2.748
  407SOL     OW 1355   2.155   2.778   0.141
  407SOL    HW1 1356   2.066   2.814   0.142
  407SOL    HW2 1357   2.173   2.762   0.048
  408SOL     OW 1358   3.496   3.930   2.593
  408SOL    HW1 1359   3.542   3.997   2.644
  408SOL    HW2 1360   3.430   3.896   2.652
  409SOL     OW 1361   2.275   1.906   3.785
  409SOL    HW1 1362   2.368   1.904   3.759
  409SOL    HW2 1363   2.261   1.822   3.828
  410SOL     OW 1364   0.047   3.703   2.135
  410SOL    HW1 1365   0.031   3.680   2.043
  410SOL    HW2 1366   0.006   3.632   2.184
  411SOL     OW 1367   2.839   0.911   1.519
  411SOL    HW1 1368   2.899   0.934   1.590
  411SOL    HW2 1369   2.752   0.924   1.556
  412SOL     OW 1370   0.241   0.340   0.080
  412SOL    HW1 1371   0.227   0.275   0.149
  412SOL    HW2 1372   0.169   0.325   0.018
  413SOL     OW 1373   3.315   0.936   3.368
  413SOL    HW1 1374   3.396   0.982   3.390
  413SOL    HW2 1375   3.334   0.894   3.284
  414SOL     OW 1376   1.779   1.370   2.715
  414SOL    HW1 1377   1.724   1.446   2.729
  414SOL    HW2 1378   1.738   1.300   2.767
  415SOL     OW 1379   1.677   2.047   0.474
  415SOL    HW1 1380   1.676   2.099   0.554
  415SOL    HW2 1381   1.757   2.072   0.429
  416SOL     OW 1382   1.307   1.754   3.644
  416SOL    HW1 1383   1.258   1.726   3.722
  416SOL    HW2 1384   1.398   1.759   3.673
  417SOL     OW 1385   1.592   1.005   1.995
  417SOL    HW1 1386   1.589   1.030   2.087
  417SOL    HW2 1387   1.580   0.910   1.996
  418SOL     OW 1388   1.195   3.058   1.862
  418SOL    HW1 1389   1.154   2.972   1.857
  418SOL    HW2 1390   1.229   3.074   1.774
  419SOL     OW 1391   2.449   2.941   1.270
  419SOL    HW1 1392   2.473   2.901   1.354
  419SOL    HW2 1393   2.496   3.024   1.269
  420SOL     OW 1394   0.242   1.815   3.592
  420SOL    HW1 1395   0.239   1.790   3.684
  420SOL    HW2 1396   0.202   1.741   3.546
  421SOL     OW 1397   2.810   2.523   2.013
  421SOL    HW1 1398   2.819   2.569   2.097
  421SOL    HW2 1399   2.789   2.592   1.950
  422SOL     OW 1400   2.207   1.515   1.168
  422SOL    HW1 1401   2.119   1.549   1.182
  422SOL    HW2 1402   2.196   1.420   1.167
  423SOL     OW 1403   2.202   3.187   3.570
  423SOL    HW1 1404   2.192   3.134   3.491
  423SOL    HW2 1405   2.288   3.228   3.561
  424SOL     OW 1406   2.594   1.410   3.860
  424SOL    HW1 1407   2.515   1.358   3.875
  424SOL    HW2 1408   2.583   1.488   3.915
  425SOL     OW 1409   1.104  -0.006   3.126
  425SOL    HW1 1410   1.154   0.039   3.194
  425SOL    HW2 1411   1.158   0.003   3.047
  426SOL     OW 1412   3.134   3.279   2.117
  426SOL    HW1 1413   3.187   3.257   2.040
  426SOL    HW2 1414   3.061   3.330   2.082
  427SOL     OW 1415   3.480   1.990   3.236
  427SOL    HW1 1416   3.439   1.937   3.167
  427SOL    HW2 1417   3.443   2.078   3.223
  428SOL     OW 1418   1.557   1.863   0.860
  428SOL    HW1 1419   1.520   1.952   0.865
  428SOL    HW2 1420   1.648   1.877   0.833
  429SOL     OW 1421   0.113   0.400   1.161
  429SOL    HW1 1422   0.079   0.384   1.073
  429SOL    HW2 1423   0.093   0.320   1.210
  430SOL     OW 1424   1.428   0.614   2.746
  430SOL    HW1 1425   1.428   0.611   2.842
  430SOL    HW2 1426   1.426   0.707   2.725
  431SOL     OW 1427   0.546   3.479   1.108
  431SOL    HW1 1428   0.602   3.425   1.053
  431SOL    HW2 1429   0.466   3.492   1.056
  432SOL     OW 1430   2.121   0.835   2.679
  432SOL    HW1 1431   2.159   0.911   2.724
  432SOL    HW2 1432   2.083   0.870   2.599
  433SOL     OW 1433   3.278   2.393   2.109
  433SOL    HW1 1434   3.237   2.419   2.192
  433SOL    HW2 1435   3.366   2.431   2.113
  434SOL     OW 1436   2.560   1.199   3.638
  434SOL    HW1 1437   2.551   1.127   3.701
  434SOL    HW2 1438   2.593   1.272   3.690
  435SOL     OW 1439   3.789   1.895   0.284
  435SOL    HW1 1440   3.811   1.875   0.193
  435SOL    HW2 1441   3.697   1.921   0.281
  436SOL     OW 1442   3.138   1.048   0.199
  436SOL    HW1 1443   3.164   1.029   0.289
  436SOL    HW2 1444   3.181   1.132   0.179
  437SOL     OW 1445   3.254   3.681   3.836
  437SOL    HW1 1446   3.338   3.655   3.798
  437SOL    HW2 1447   3.190   3.661   3.768
  438SOL     OW 1448   1.797   3.251   2.422
  438SOL    HW1 1449   1.800   3.221   2.513
  438SOL    HW2 1450   1.706   3.276   2.408
  439SOL     OW 1451   0.105   3.054   1.138
  439SOL    HW1 1452   0.093   3.108   1.216
  439SOL    HW2 1453   0.141   2.972   1.171
  440SOL     OW 1454   2.116   2.359   0.672
  440SOL    HW1 1455   2.100   2.432   0.613
  440SOL    HW2 1456   2.184   2.391   0.732
  441SOL     OW 1457   1.401   1.497   3.599
  441SOL    HW1 1458   1.486   1.454   3.612
  441SOL    HW2 1459   1.391   1.503   3.504
  442SOL     OW 1460   3.260   1.160   2.037
  442SOL    HW1 1461   3.323   1.197   2.098
  442SOL    HW2 1462   3.298   1.176   1.950
  443SOL     OW 1463   2.726   2.227   0.414
  443SOL    HW1 1464   2.671   2.282   0.358
  443SOL    HW2 1465   2.813   2.268   0.411
  444SOL     OW 1466   2.037   2.003   2.142
  444SOL    HW1 1467   2.076   2.021   2.057
  444SOL    HW2 1468   2.084   2.061   2.203
  445SOL     OW 1469   3.758   0.236   0.472
  445SOL    HW1 1470   3.690   0.294   0.438
  445SOL    HW2 1471   3.712   0.179   0.534
  446SOL     OW 1472   3.905  -0.015   1.251
  446SOL    HW1 1473   3.860   0.052   1.303
  446SOL    HW2 1474   3.997  -0.006   1.276
  447SOL     OW 1475   3.813   3.160   2.400
  447SOL    HW1 1476   3.722   3.154   2.428
  447SOL    HW2 1477   3.809   3.193   2.311
  448SOL     OW 1478   3.472   1.582   0.990
  448SOL    HW1 1479   3.460   1.670   0.954
  448SOL    HW2 1480   3.459   1.593   1.084
  449SOL     OW 1481   1.704   0.754   3.137
  449SOL    HW1 1482   1.661   0.706   3.207
  449SOL    HW2 1483   1.643   0.750   3.064
  450SOL     OW 1484   0.452   0.272   1.099
  450SOL    HW1 1485   0.390   0.276   1.026
  450SOL    HW2 1486   0.430   0.190   1.144
  451SOL     OW 1487   3.830   3.756   1.451
  451SOL    HW1 1488   3.787   3.838   1.474
  451SOL    HW2 1489   3.832   3.756   1.355
  452SOL     OW 1490   0.559   3.624   2.704
  452SOL    HW1 1491   0.504   3.587   2.635
  452SOL    HW2 1492   0.510   3.700   2.735
  453SOL     OW 1493   1.442   2.191   1.381
  453SOL    HW1 1494   1.424   2.279   1.347
  453SOL    HW2 1495   1.520   2.162   1.333
  454SOL     OW 1496   2.741   1.770   3.881
  454SOL    HW1 1497   2.742   1.708   3.808
  454SOL    HW2 1498   2.686   1.842   3.851
  455SOL     OW 1499   0.066   2.848   2.046
  455SOL    HW1 1500  -0.015   2.853   1.996
  455SOL    HW2 1501   0.136   2.846   1.981
  456SOL     OW 1502   0.619   0.694   2.607
  456SOL    HW1 1503   0.662   0.636   2.545
  456SOL    HW2 1504   0.526   0.676   2.598
  457SOL     OW 1505   0.603   2.766   2.293
  457SOL    HW1 1506   0.659   2.705   2.244
  457SOL    HW2 1507   0.606   2.734   2.383
  458SOL     OW 1508   2.565   0.790   3.190
  458SOL    HW1 1509   2.633   0.733   3.225
  458SOL    HW2 1510   2.538   0.748   3.109
  459SOL     OW 1511   3.465   2.304   2.822
  459SOL    HW1 1512   3.385   2.357   2.823
  459SOL    HW2 1513   3.437   2.218   2.854
  460SOL     OW 1514   0.265   1.424   2.129
  460SOL    HW1 1515   0.295   1.362   2.061
  460SOL    HW2 1516   0.337   1.486   2.138
  461SOL     OW 1517   3.218   0.490   2.608
  461SOL    HW1 1518   3.191   0.535   2.528
  461SOL    HW2 1519   3.299   0.445   2.585
  462SOL     OW 1520   0.565   2.421   0.548
  462SOL    HW1 1521   0.547   2.470   0.628
  462SOL    HW2 1522   0.480   2.387   0.521
  463SOL     OW 1523   3.606   2.501   3.610
  463SOL    HW1 1524   3.617   2.421   3.559
  463SOL    HW2 1525   3.678   2.558   3.583
  464SOL     OW 1526   2.833   2.810   1.949
  464SOL    HW1 1527   2.883   2.845   2.023
  464SOL    HW2 1528   2.854   2.868   1.876
  465SOL     OW 1529   3.857   0.590   2.189
  465SOL    HW1 1530   3.788   0.566   2.251
  465SOL    HW2 1531   3.813   0.646   2.125
  466SOL     OW 1532   2.326   2.453   2.707
  466SOL    HW1 1533   2.315   2.537   2.751
  466SOL    HW2 1534   2.281   2.463   2.623
  467SOL     OW 1535   0.175   1.609   3.814
  467SOL    HW1 1536   0.113   1.576   3.750
  467SOL    HW2 1537   0.122   1.629   3.891
  468SOL     OW 1538   0.054   3.178   1.381
  468SOL    HW1 1539   0.044   3.254   1.437
  468SOL    HW2 1540   0.004   3.109   1.424
  469SOL     OW 1541   1.146   2.139   3.886
  469SOL    HW1 1542   1.184   2.211   3.937
  469SOL    HW2 1543   1.212   2.070   3.888
  470SOL     OW 1544   1.112   1.731   0.361
  470SOL    HW1 1545   1.166   1.671   0.310
  470SOL    HW2 1546   1.154   1.817   0.349
  471SOL     OW 1547   2.926   1.582   2.781
  471SOL    HW1 1548   2.985   1.620   2.716
  471SOL    HW2 1549   2.839   1.589   2.743
  472SOL     OW 1550   0.926   3.011   1.302
  472SOL    HW1 1551   0.875   3.051   1.233
  472SOL    HW2 1552   1.016   3.012   1.270
  473SOL     OW 1553   0.975   2.936   2.885
  473SOL    HW1 1554   0.952   2.845   2.904
  473SOL    HW2 1555   1.064   2.945   2.920
  474SOL     OW 1556   2.545   1.954   0.801
  474SOL    HW1 1557   2.558   2.011   0.725
  474SOL    HW2 1558   2.631   1.914   0.816
  475SOL     OW 1559   1.667   0.979   2.616
  475SOL    HW1 1560   1.575   0.998   2.599
  475SOL    HW2 1561   1.671   0.884   2.626
  476SOL     OW 1562   0.142   0.872   3.781
  476SOL    HW1 1563   0.132   0.794   3.727
  476SOL    HW2 1564   0.234   0.895   3.774
  477SOL     OW 1565   3.089   2.202   0.544
  477SOL    HW1 1566   3.168   2.189   0.491
  477SOL    HW2 1567   3.101   2.289   0.583
  478SOL     OW 1568   2.816   2.800   2.236
  478SOL    HW1 1569   2.765   2.879   2.254
  478SOL    HW2 1570   2.767   2.729   2.278
  479SOL     OW 1571   1.810   1.753   0.422
  479SOL    HW1 1572   1.800   1.842   0.387
  479SOL    HW2 1573   1.743   1.702   0.377
  480SOL     OW 1574   1.628   1.859   2.296
  480SOL    HW1 1575   1.550   1.896   2.337
  480SOL    HW2 1576   1.698   1.872   2.360
  481SOL     OW 1577   2.819   2.651   2.605
  481SOL    HW1 1578   2.761   2.726   2.619
  481SOL    HW2 1579   2.807   2.596   2.682
  482SOL     OW 1580   0.783   1.374   1.212
  482SOL    HW1 1581   0.859   1.329   1.249
  482SOL    HW2 1582   0.819   1.428   1.142
  483SOL     OW 1583   2.656   2.143   3.730
  483SOL    HW1 1584   2.674   2.214   3.669
  483SOL    HW2 1585   2.604   2.183   3.800
  484SOL     OW 1586   0.493   2.801   0.348
  484SOL    HW1 1587   0.536   2.854   0.280
  484SOL    HW2 1588   0.565   2.776   0.407
  485SOL     OW 1589   3.842   3.527   1.944
  485SOL    HW1 1590   3.754   3.492   1.931
  485SOL    HW2 1591   3.901   3.458   1.915
  486SOL     OW 1592   2.561   3.635   3.753
  486SOL    HW1 1593   2.598   3.630   3.841
  486SOL    HW2 1594   2.559   3.545   3.722
  487SOL     OW 1595   0.863   0.055   2.827
  487SOL    HW1 1596   0.900   0.012   2.749
  487SOL    HW2 1597   0.855  -0.016   2.891
  488SOL     OW 1598   2.901   1.914   2.483
  488SOL    HW1 1599   2.810   1.929   2.460
  488SOL    HW2 1600   2.941   1.879   2.403
  489SOL     OW 1601   3.344   0.770   0.286
  489SOL    HW1 1602   3.419   0.728   0.329
  489SOL    HW2 1603   3.381   0.848   0.244
  490SOL     OW 1604   2.620   0.320   2.869
  490SOL    HW1 1605   2.715   0.328   2.862
  490SOL    HW2 1606   2.605   0.277   2.953
  491SOL     OW 1607   2.531   0.298   1.694
  491SOL    HW1 1608   2.586   0.371   1.722
  491SOL    HW2 1609   2.444   0.335   1.685
  492SOL     OW 1610   1.934   3.711   1.849
  492SOL    HW1 1611   1.940   3.689   1.756
  492SOL    HW2 1612   1.845   3.689   1.873
  493SOL     OW 1613   2.484   1.954   3.322
  493SOL    HW1 1614   2.505   1.996   3.238
  493SOL    HW2 1615   2.481   2.026   3.385
  494SOL     OW 1616   2.211   2.656   1.300
  494SOL    HW1 1617   2.206   2.746   1.332
  494SOL    HW2 1618   2.252   2.664   1.214
  495SOL     OW 1619   2.630   0.394   2.272
  495SOL    HW1 1620   2.663   0.307   2.298
  495SOL    HW2 1621   2.579   0.423   2.348
  496SOL     OW 1622   1.065   0.899   1.667
  496SOL    HW1 1623   1.012   0.836   1.620
  496SOL    HW2 1624   1.143   0.912   1.612
  497SOL     OW 1625   2.709   1.648   2.624
  497SOL    HW1 1626   2.700   1.742   2.637
  497SOL    HW2 1627   2.619   1.618   2.605
  498SOL     OW 1628   0.083   1.208   0.884
  498SOL    HW1 1629   0.146   1.240   0.949
  498SOL    HW2 1630   0.113   1.120   0.863
  499SOL     OW 1631   0.258   2.061   2.432
  499SOL    HW1 1632   0.282   1.993   2.495
  499SOL    HW2 1633   0.284   2.026   2.347
  500SOL     OW 1634   0.177   0.826   1.632
  500SOL    HW1 1635   0.195   0.841   1.725
  500SOL    HW2 1636   0.263   0.829   1.591
  501SOL     OW 1637   3.316   3.348   1.035
  501SOL    HW1 1638   3.359   3.412   0.977
  501SOL    HW2 1639   3.376   3.340   1.110
  502SOL     OW 1640   1.696   0.907   1.100
  502SOL    HW1 1641   1.761   0.865   1.156
  502SOL    HW2 1642   1.613   0.894   1.146
  503SOL     OW 1643   0.829   3.139   2.063
  503SOL    HW1 1644   0.763   3.200   2.096
  503SOL    HW2 1645   0.897   3.195   2.028
  504SOL     OW 1646   2.687   0.501   1.808
  504SOL    HW1 1647   2.663   0.529   1.896
  504SOL    HW2 1648   2.766   0.551   1.787
  505SOL     OW 1649   1.588   0.020   0.728
  505SOL    HW1 1650   1.517  -0.029   0.686
  505SOL    HW2 1651   1.649   0.040   0.658
  506SOL     OW 1652   3.616   0.702   0.561
  506SOL    HW1 1653   3.705   0.669   0.550
  506SOL    HW2 1654   3.560   0.635   0.522
  507SOL     OW 1655   1.761   2.226   3.824
  507SOL    HW1 1656   1.826   2.208   3.892
  507SOL    HW2 1657   1.714   2.143   3.813
  508SOL     OW 1658   1.585   0.514   3.648
  508SOL    HW1 1659   1.664   0.478   3.688
  508SOL    HW2 1660   1.603   0.608   3.640
  509SOL     OW 1661   2.126   3.148   3.283
  509SOL    HW1 1662   2.174   3.230   3.285
  509SOL    HW2 1663   2.088   3.144   3.195
  510SOL     OW 1664   0.430   0.834   1.450
  510SOL    HW1 1665   0.521   0.808   1.464
  510SOL    HW2 1666   0.426   0.862   1.359
  511SOL     OW 1667   2.642   0.071   3.801
  511SOL    HW1 1668   2.697   0.036   3.871
  511SOL    HW2 1669   2.688   0.050   3.721
  512SOL     OW 1670   0.149   0.699   2.545
  512SOL    HW1 1671   0.232   0.748   2.548
  512SOL    HW2 1672   0.082   0.767   2.545
  513SOL     OW 1673   3.094   1.438   0.448
  513SOL    HW1 1674   3.081   1.453   0.541
  513SOL    HW2 1675   3.024   1.376   0.424
  514SOL     OW 1676   0.848   2.083   3.252
  514SOL    HW1 1677   0.818   2.086   3.343
  514SOL    HW2 1678   0.852   2.175   3.224
  515SOL     OW 1679   3.373   0.638   3.179
  515SOL    HW1 1680   3.382   0.560   3.124
  515SOL    HW2 1681   3.428   0.621   3.255
  516SOL     OW 1682   3.045   1.262   2.686
  516SOL    HW1 1683   3.000   1.216   2.615
  516SOL    HW2 1684   3.134   1.226   2.684
  517SOL     OW 1685   0.163   0.608   1.334
  517SOL    HW1 1686   0.146   0.515   1.323
  517SOL    HW2 1687   0.217   0.614   1.413
  518SOL     OW 1688   3.600   0.587   3.715
  518SOL    HW1 1689   3.523   0.541   3.681
  518SOL    HW2 1690   3.614   0.660   3.654
  519SOL     OW 1691   0.826   0.532   0.123
  519SOL    HW1 1692   0.767   0.481   0.067
  519SOL    HW2 1693   0.907   0.538   0.073
  520SOL     OW 1694   3.100   1.952   1.282
  520SOL    HW1 1695   3.051   2.033   1.271
  520SOL    HW2 1696   3.048   1.899   1.343
  521SOL     OW 1697   0.909   0.367   3.336
  521SOL    HW1 1698   0.997   0.398   3.360
  521SOL    HW2 1699   0.922   0.320   3.254
  522SOL     OW 1700   3.283   0.343   0.818
  522SOL    HW1 1701   3.312   0.254   0.800
  522SOL    HW2 1702   3.315   0.395   0.744
  523SOL     OW 1703   3.427   3.976   0.479
  523SOL    HW1 1704   3.343   3.948   0.442
  523SOL    HW2 1705   3.492   3.944   0.417
  524SOL     OW 1706   2.258   1.135   1.486
  524SOL    HW1 1707   2.246   1.040   1.495
  524SOL    HW2 1708   2.282   1.164   1.574
  525SOL     OW 1709   0.496   1.360   1.186
  525SOL    HW1 1710   0.591   1.356   1.175
  525SOL    HW2 1711   0.476   1.291   1.250
  526SOL     OW 1712   0.141   1.238   2.671
  526SOL    HW1 1713   0.143   1.269   2.581
  526SOL    HW2 1714   0.098   1.308   2.720
  527SOL     OW 1715   2.229   3.677   3.916
  527SOL    HW1 1716   2.257   3.728   3.992
  527SOL    HW2 1717   2.134   3.685   3.915
  528SOL     OW 1718   1.380   0.858   2.676
  528SOL    HW1 1719   1.396   0.899   2.762
  528SOL    HW2 1720   1.323   0.921   2.631
  529SOL     OW 1721   2.157   2.217   1.465
  529SOL    HW1 1722   2.093   2.147   1.478
  529SOL    HW2 1723   2.117   2.295   1.503
  530SOL     OW 1724   2.403   2.733   1.116
  530SOL    HW1 1725   2.413   2.749   1.023
  530SOL    HW2 1726   2.403   2.820   1.156
  531SOL     OW 1727   3.900   2.680   3.868
  531SOL    HW1 1728   3.971   2.733   3.904
  531SOL    HW2 1729   3.914   2.593   3.905
  532SOL     OW 1730   1.145   2.744   2.461
  532SOL    HW1 1731   1.215   2.760   2.398
  532SOL    HW2 1732   1.114   2.832   2.484
  533SOL     OW 1733   3.157   1.959   1.781
  533SOL    HW1 1734   3.150   1.888   1.718
  533SOL    HW2 1735   3.090   2.022   1.754
  534SOL     OW 1736   1.917   2.853   3.583
  534SOL    HW1 1737   1.946   2.859   3.492
  534SOL    HW2 1738   1.974   2.786   3.622
  535SOL     OW 1739   0.030   2.439  -0.006
  535SOL    HW1 1740   0.051   2.424   0.086
  535SOL    HW2 1741   0.067   2.364  -0.052
  536SOL     OW 1742   1.707   3.307   3.277
  536SOL    HW1 1743   1.725   3.346   3.192
  536SOL    HW2 1744   1.737   3.373   3.340
  537SOL     OW 1745   1.085   1.321   0.256
  537SOL    HW1 1746   1.037   1.376   0.319
  537SOL    HW2 1747   1.024   1.250   0.235
  538SOL     OW 1748   3.775   3.753   2.798
  538SOL    HW1 1749   3.858   3.778   2.759
  538SOL    HW2 1750   3.767   3.808   2.876
  539SOL     OW 1751   1.653   0.063   1.257
  539SOL    HW1 1752   1.581   0.084   1.197
  539SOL    HW2 1753   1.679   0.147   1.293
  540SOL     OW 1754   2.951   1.145   0.809
  540SOL    HW1 1755   2.920   1.125   0.721
  540SOL    HW2 1756   3.046   1.152   0.801
  541SOL     OW 1757   1.503   3.939   1.033
  541SOL    HW1 1758   1.499   3.923   0.939
  541SOL    HW2 1759   1.437   3.880   1.070
  542SOL     OW 1760   2.681   2.807   3.161
  542SOL    HW1 1761   2.588   2.829   3.154
  542SOL    HW2 1762   2.703   2.824   3.253
  543SOL     OW 1763   1.090   3.224   2.694
  543SOL    HW1 1764   1.073   3.298   2.751
  543SOL    HW2 1765   1.090   3.261   2.606
  544SOL     OW 1766   2.952   1.815   0.090
  544SOL    HW1 1767   2.971   1.726   0.121
  544SOL    HW2 1768   2.876   1.804   0.031
  545SOL     OW 1769   3.029   0.255   2.481
  545SOL    HW1 1770   3.057   0.333   2.432
  545SOL    HW2 1771   3.006   0.288   2.568
  546SOL     OW 1772   1.140   3.913   1.501
  546SOL    HW1 1773   1.115   3.846   1.437
  546SOL    HW2 1774   1.212   3.873   1.550
  547SOL     OW 1775   0.643   0.462   2.422
  547SOL    HW1 1776   0.568   0.486   2.368
  547SOL    HW2 1777   0.680   0.385   2.380
  548SOL     OW 1778   1.944   2.039   3.971
  548SOL    HW1 1779   1.966   2.061   3.881
  548SOL    HW2 1780   2.021   2.063   4.021
  549SOL     OW 1781   3.130   3.709   2.570
  549SOL    HW1 1782   3.038   3.728   2.555
  549SOL    HW2 1783   3.139   3.699   2.664
  550SOL     OW 1784   2.697   0.150   3.087
  550SOL    HW1 1785   2.681   0.167   3.180
  550SOL    HW2 1786   2.644   0.072   3.069
  551SOL     OW 1787   1.671   1.873   3.921
  551SOL    HW1 1788   1.659   1.948   3.862
  551SOL    HW2 1789   1.761   1.843   3.903
  552SOL     OW 1790   0.415   0.556   1.182
  552SOL    HW1 1791   0.344   0.577   1.243
  552SOL    HW2 1792   0.402   0.464   1.161
  553SOL     OW 1793   0.204   2.579   1.674
  553SOL    HW1 1794   0.205   2.541   1.761
  553SOL    HW2 1795   0.150   2.658   1.682
  554SOL     OW 1796   2.022   1.653   0.560
  554SOL    HW1 1797   1.938   1.677   0.521
  554SOL    HW2 1798   2.078   1.632   0.486
  555SOL     OW 1799   1.982   2.578   3.650
  555SOL    HW1 1800   1.955   2.512   3.714
  555SOL    HW2 1801   2.012   2.527   3.575
  556SOL     OW 1802   3.283   3.472   0.711
  556SOL    HW1 1803   3.280   3.567   0.725
  556SOL    HW2 1804   3.300   3.462   0.617
  557SOL     OW 1805   1.578   0.990   2.258
  557SOL    HW1 1806   1.489   1.018   2.279
  557SOL    HW2 1807   1.592   0.912   2.312
  558SOL     OW 1808   3.678   3.439   1.331
  558SOL    HW1 1809   3.762   3.446   1.286
  558SOL    HW2 1810   3.698   3.459   1.423
  559SOL     OW 1811   2.297   3.500   3.557
  559SOL    HW1 1812   2.341   3.572   3.513
  559SOL    HW2 1813   2.224   3.541   3.603
  560SOL     OW 1814   3.751   1.647   2.907
  560SOL    HW1 1815   3.823   1.591   2.879
  560SOL    HW2 1816   3.738   1.627   2.999
  561SOL     OW 1817   3.420   1.447   3.547
  561SOL    HW1 1818   3.470   1.504   3.489
  561SOL    HW2 1819   3.330   1.477   3.539
  562SOL     OW 1820   1.367   3.005   0.449
  562SOL    HW1 1821   1.448   3.014   0.499
  562SOL    HW2 1822   1.298   3.002   0.515
  563SOL     OW 1823   3.677   0.184   3.745
  563SOL    HW1 1824   3.594   0.228   3.726
  563SOL    HW2 1825   3.740   0.226   3.687
  564SOL     OW 1826   3.413   1.045   0.920
  564SOL    HW1 1827   3.506   1.041   0.898
  564SOL    HW2 1828   3.392   0.957   0.949
  565SOL     OW 1829   0.610   1.879   3.317
  565SOL    HW1 1830   0.583   1.960   3.274
  565SOL    HW2 1831   0.666   1.908   3.389
  566SOL     OW 1832  -0.028   3.901   1.851
  566SOL    HW1 1833   0.010   3.987   1.864
  566SOL    HW2 1834   0.043   3.840   1.871
  567SOL     OW 1835   1.936   1.916   3.209
  567SOL    HW1 1836   2.026   1.928   3.237
  567SOL    HW2 1837   1.916   1.995   3.159
  568SOL     OW 1838   1.281   3.594   0.795
  568SOL    HW1 1839   1.205   3.633   0.751
  568SOL    HW2 1840   1.295   3.511   0.751
  569SOL     OW 1841   0.048   0.443   3.160
  569SOL    HW1 1842   0.141   0.455   3.140
  569SOL    HW2 1843   0.011   0.406   3.079
  570SOL     OW 1844   1.048   3.901   2.608
  570SOL    HW1 1845   1.097   3.953   2.545
  570SOL    HW2 1846   1.009   3.831   2.556
  571SOL     OW 1847   2.878   0.128   1.525
  571SOL    HW1 1848   2.785   0.105   1.521
  571SOL    HW2 1849   2.879   0.224   1.517
  572SOL     OW 1850   1.210   1.206   0.767
  572SOL    HW1 1851   1.149   1.227   0.837
  572SOL    HW2 1852   1.162   1.226   0.686
  573SOL     OW 1853   2.208   1.993   3.318
  573SOL    HW1 1854   2.286   1.940   3.325
  573SOL    HW2 1855   2.212   2.053   3.393
  574SOL     OW 1856   1.367   1.370   2.242
  574SOL    HW1 1857   1.390   1.422   2.165
  574SOL    HW2 1858   1.367   1.279   2.211
  575SOL     OW 1859   3.223   1.874   2.796
  575SOL    HW1 1860   3.166   1.949   2.777
  575SOL    HW2 1861   3.256   1.846   2.711
  576SOL     OW 1862   3.675   0.322   3.352
  576SOL    HW1 1863   3.715   0.344   3.268
  576SOL    HW2 1864   3.621   0.398   3.374
  577SOL     OW 1865   3.867   2.989   0.671
  577SOL    HW1 1866   3.809   3.062   0.692
  577SOL    HW2 1867   3.812   2.911   0.678
  578SOL     OW 1868   2.047   2.109   1.219
  578SOL    HW1 1869   2.046   2.030   1.165
  578SOL    HW2 1870   2.016   2.080   1.305
  579SOL     OW 1871   2.007   2.996   3.871
  579SOL    HW1 1872   2.098   3.017   3.851
  579SOL    HW2 1873   1.974   2.953   3.792
  580SOL     OW 1874   0.580   1.202   1.805
  580SOL    HW1 1875   0.606   1.185   1.715
  580SOL    HW2 1876   0.649   1.163   1.858
  581SOL     OW 1877   1.156   3.755   1.923
  581SOL    HW1 1878   1.235   3.810   1.917
  581SOL    HW2 1879   1.106   3.777   1.844
  582SOL     OW 1880   0.305   0.673   0.300
  582SOL    HW1 1881   0.307   0.611   0.227
  582SOL    HW2 1882   0.274   0.755   0.261
  583SOL     OW 1883   0.947   2.732   0.761
  583SOL    HW1 1884   0.884   2.804   0.766
  583SOL    HW2 1885   1.031   2.775   0.747
  584SOL     OW 1886   0.717   1.827   2.346
  584SOL    HW1 1887   0.801   1.845   2.388
  584SOL    HW2 1888   0.739   1.774   2.269
  585SOL     OW 1889   1.901   1.442   0.048
  585SOL    HW1 1890   1.976   1.401   0.091
  585SOL    HW2 1891   1.903   1.533   0.078
  586SOL     OW 1892   1.787   2.927   0.782
  586SOL    HW1 1893   1.822   3.008   0.818
  586SOL    HW2 1894   1.706   2.911   0.831
  587SOL     OW 1895   0.976   0.919   0.835
  587SOL    HW1 1896   0.963   0.988   0.900
  587SOL    HW2 1897   0.982   0.965   0.751
  588SOL     OW 1898   0.954   2.038   3.737
  588SOL    HW1 1899   1.025   2.070   3.793
  588SOL    HW2 1900   0.880   2.026   3.796
  589SOL     OW 1901   3.914   3.367   3.736
  589SOL    HW1 1902   3.835   3.412   3.704
  589SOL    HW2 1903   3.972   3.364   3.661
  590SOL     OW 1904   3.845   1.967   3.297
  590SOL    HW1 1905   3.804   2.028   3.236
  590SOL    HW2 1906   3.889   1.903   3.240
  591SOL     OW 1907   2.666   1.270   2.627
  591SOL    HW1 1908   2.635   1.296   2.541
  591SOL    HW2 1909   2.724   1.196   2.610
  592SOL     OW 1910   1.616   1.792   0.228
  592SOL    HW1 1911   1.649   1.852   0.162
  592SOL    HW2 1912   1.547   1.841   0.273
  593SOL     OW 1913   2.564   3.893   3.041
  593SOL    HW1 1914   2.583   3.852   2.957
  593SOL    HW2 1915   2.489   3.843   3.075
  594SOL     OW 1916   0.605   2.304   1.241
  594SOL    HW1 1917   0.510   2.293   1.235
  594SOL    HW2 1918   0.617   2.368   1.310
  595SOL     OW 1919   0.035   1.874   3.090
  595SOL    HW1 1920   0.115   1.903   3.133
  595SOL    HW2 1921   0.061   1.861   2.998
  596SOL     OW 1922   2.105   2.503   1.518
  596SOL    HW1 1923   2.085   2.528   1.609
  596SOL    HW2 1924   2.086   2.582   1.467
  597SOL     OW 1925   1.349   3.149   0.194
  597SOL    HW1 1926   1.437   3.185   0.181
  597SOL    HW2 1927   1.356   3.100   0.276
  598SOL     OW 1928   1.407   1.175   2.985
  598SOL    HW1 1929   1.329   1.220   2.950
  598SOL    HW2 1930   1.372   1.112   3.047
  599SOL     OW 1931   1.478   0.521   0.309
  599SOL    HW1 1932   1.545   0.538   0.375
  599SOL    HW2 1933   1.396   0.515   0.358
  600SOL     OW 1934   0.992   0.420   0.327
  600SOL    HW1 1935   0.937   0.371   0.388
  600SOL    HW2 1936   0.932   0.481   0.283
  601SOL     OW 1937   0.113   2.463   0.808
  601SOL    HW1 1938   0.064   2.518   0.870
  601SOL    HW2 1939   0.148   2.392   0.862
  602SOL     OW 1940   3.788   2.080   2.657
  602SOL    HW1 1941   3.817   2.029   2.581
  602SOL    HW2 1942   3.768   2.014   2.723
  603SOL     OW 1943   0.799   2.157   2.592
  603SOL    HW1 1944   0.891   2.168   2.568
  603SOL    HW2 1945   0.758   2.122   2.514
  604SOL     OW 1946   3.635   0.787   2.385
  604SOL    HW1 1947   3.659   0.880   2.383
  604SOL    HW2 1948   3.559   0.781   2.327
  605SOL     OW 1949   1.436   0.512   3.072
  605SOL    HW1 1950   1.397   0.455   3.005
  605SOL    HW2 1951   1.416   0.469   3.155
  606SOL     OW 1952   1.358   2.940   3.693
  606SOL    HW1 1953   1.399   2.987   3.620
  606SOL    HW2 1954   1.288   2.998   3.722
  607SOL     OW 1955   2.617   1.347   2.889
  607SOL    HW1 1956   2.649   1.349   2.799
  607SOL    HW2 1957   2.551   1.278   2.890
  608SOL     OW 1958   2.187   1.985   1.909
  608SOL    HW1 1959   2.279   1.958   1.913
  608SOL    HW2 1960   2.140   1.909   1.875
  609SOL     OW 1961   2.916   0.654   1.764
  609SOL    HW1 1962   2.988   0.598   1.792
  609SOL    HW2 1963   2.902   0.630   1.672
  610SOL     OW 1964   3.271   0.091   3.679
  610SOL    HW1 1965   3.220   0.012   3.699
  610SOL    HW2 1966   3.278   0.091   3.583
  611SOL     OW 1967   1.507   2.389   3.287
  611SOL    HW1 1968   1.602   2.390   3.298
  611SOL    HW2 1969   1.494   2.383   3.193
  612SOL     OW 1970   3.057   0.685   0.358
  612SOL    HW1 1971   3.149   0.700   0.338
  612SOL    HW2 1972   3.019   0.773   0.365
  613SOL     OW 1973   2.800   2.618   0.191
  613SOL    HW1 1974   2.844   2.623   0.106
  613SOL    HW2 1975   2.719   2.667   0.180
  614SOL     OW 1976   3.381   1.891   0.473
  614SOL    HW1 1977   3.447   1.825   0.496
  614SOL    HW2 1978   3.301   1.842   0.460
  615SOL     OW 1979   1.846   0.190   2.035
  615SOL    HW1 1980   1.896   0.263   1.999
  615SOL    HW2 1981   1.787   0.230   2.099
  616SOL     OW 1982   1.467   1.849   0.566
  616SOL    HW1 1983   1.557   1.861   0.598
  616SOL    HW2 1984   1.455   1.919   0.501
  617SOL     OW 1985   1.032   1.958   0.112
  617SOL    HW1 1986   0.956   1.960   0.054
  617SOL    HW2 1987   1.083   2.036   0.089
  618SOL     OW 1988   0.762   2.005   0.673
  618SOL    HW1 1989   0.800   1.918   0.684
  618SOL    HW2 1990   0.703   1.996   0.599
  619SOL     OW 1991   1.070   0.694   1.986
  619SOL    HW1 1992   1.095   0.769   2.040
  619SOL    HW2 1993   1.152   0.649   1.967
  620SOL     OW 1994   3.203   2.952   3.901
  620SOL    HW1 1995   3.196   2.859   3.881
  620SOL    HW2 1996   3.249   2.989   3.826
  621SOL     OW 1997   2.879   0.053   3.587
  621SOL    HW1 1998   2.933   0.130   3.573
  621SOL    HW2 1999   2.802   0.067   3.532
  622SOL     OW 2000   2.206   1.105   1.025
  622SOL    HW1 2001   2.146   1.045   1.068
  622SOL    HW2 2002   2.185   1.099   0.932
  623SOL     OW 2003   0.347   2.312   1.224
  623SOL    HW1 2004   0.299   2.264   1.291
  623SOL    HW2 2005   0.301   2.292   1.142
  624SOL     OW 2006   2.199   0.062   3.120
  624SOL    HW1 2007   2.236   0.149   3.139
  624SOL    HW2 2008   2.108   0.068   3.148
  625SOL     OW 2009   3.538   0.963   2.591
  625SOL    HW1 2010   3.507   0.873   2.594
  625SOL    HW2 2011   3.583   0.977   2.674
  626SOL     OW 2012   1.179   3.773   3.452
  626SOL    HW1 2013   1.142   3.800   3.536
  626SOL    HW2 2014   1.240   3.703   3.474
  627SOL     OW 2015   2.092   1.488   1.993
  627SOL    HW1 2016   2.165   1.499   1.931
  627SOL    HW2 2017   2.132   1.446   2.069
  628SOL     OW 2018   0.959   1.688   0.127
  628SOL    HW1 2019   0.880   1.648   0.162
  628SOL    HW2 2020   0.991   1.744   0.198
  629SOL     OW 2021   1.292   1.469   1.661
  629SOL    HW1 2022   1.276   1.375   1.670
  629SOL    HW2 2023   1.208   1.510   1.680
  630SOL     OW 2024   0.486   0.249   2.605
  630SOL    HW1 2025   0.513   0.298   2.683
  630SOL    HW2 2026   0.478   0.315   2.536
  631SOL     OW 2027   1.235   2.300   2.041
  631SOL    HW1 2028   1.237   2.275   2.134
  631SOL    HW2 2029   1.304   2.248   2.001
  632SOL     OW 2030   2.219   2.804   3.520
  632SOL    HW1 2031   2.148   2.775   3.463
  632SOL    HW2 2032   2.290   2.741   3.505
  633SOL     OW 2033   2.503   2.117   3.094
  633SOL    HW1 2034   2.451   2.176   3.039
  633SOL    HW2 2035   2.594   2.140   3.075
  634SOL     OW 2036   1.011   2.243   1.556
  634SOL    HW1 2037   1.094   2.286   1.536
  634SOL    HW2 2038   1.013   2.232   1.651
  635SOL     OW 2039   3.204   2.067   1.050
  635SOL    HW1 2040   3.130   2.063   0.990
  635SOL    HW2 2041   3.173   2.023   1.130
  636SOL     OW 2042   0.127   0.580   2.041
  636SOL    HW1 2043   0.055   0.592   2.103
  636SOL    HW2 2044   0.086   0.586   1.955
  637SOL     OW 2045   3.692   2.407   3.858
  637SOL    HW1 2046   3.664   2.316   3.846
  637SOL    HW2 2047   3.658   2.452   3.781
  638SOL     OW 2048   0.097   3.610   0.001
  638SOL    HW1 2049   0.129   3.684   0.053
  638SOL    HW2 2050   0.170   3.548   0.001
  639SOL     OW 2051   2.487   3.706   1.821
  639SOL    HW1 2052   2.547   3.664   1.882
  639SOL    HW2 2053   2.413   3.734   1.874
  640SOL     OW 2054   1.388   0.157   0.052
  640SOL    HW1 2055   1.339   0.150   0.134
  640SOL    HW2 2056   1.343   0.227   0.004
  641SOL     OW 2057   0.347   1.681   0.730
  641SOL    HW1 2058   0.427   1.633   0.708
  641SOL    HW2 2059   0.373   1.738   0.802
  642SOL     OW 2060   1.046   1.689   0.637
  642SOL    HW1 2061   1.104   1.753   0.679
  642SOL    HW2 2062   1.082   1.679   0.549
  643SOL     OW 2063   3.542   2.745   1.322
  643SOL    HW1 2064   3.592   2.720   1.399
  643SOL    HW2 2065   3.601   2.729   1.248
  644SOL     OW 2066   1.285   0.966   1.534
  644SOL    HW1 2067   1.288   1.060   1.552
  644SOL    HW2 2068   1.359   0.930   1.583
  645SOL     OW 2069   3.654   3.286   3.510
  645SOL    HW1 2070   3.681   3.195   3.523
  645SOL    HW2 2071   3.566   3.280   3.473
  646SOL     OW 2072   3.388   0.104   2.370
  646SOL    HW1 2073   3.413   0.077   2.459
  646SOL    HW2 2074   3.448   0.057   2.313
  647SOL     OW 2075   3.777   1.447   3.172
  647SOL    HW1 2076   3.856   1.403   3.205
  647SOL    HW2 2077   3.767   1.411   3.083
  648SOL     OW 2078   0.261   3.512   3.393
  648SOL    HW1 2079   0.214   3.529   3.311
  648SOL    HW2 2080   0.345   3.556   3.382
  649SOL     OW 2081   0.244   3.823   3.653
  649SOL    HW1 2082   0.191   3.884   3.601
  649SOL    HW2 2083   0.196   3.741   3.650
  650SOL     OW 2084   2.723   0.758   2.541
  650SOL    HW1 2085   2.667   0.683   2.563
  650SOL    HW2 2086   2.710   0.819   2.614
  651SOL     OW 2087   1.298   0.861   0.815
  651SOL    HW1 2088   1.350   0.904   0.883
  651SOL    HW2 2089   1.221   0.918   0.805
  652SOL     OW 2090   0.361   3.616   1.432
  652SOL    HW1 2091   0.376   3.660   1.349
  652SOL    HW2 2092   0.292   3.668   1.475
  653SOL     OW 2093   1.235   3.572   2.549
  653SOL    HW1 2094   1.329   3.553   2.550
  653SOL    HW2 2095   1.196   3.496   2.506
  654SOL     OW 2096   0.794   0.650   2.066
  654SOL    HW1 2097   0.817   0.699   1.987
  654SOL    HW2 2098   0.877   0.637   2.111
  655SOL     OW 2099   3.009   2.466   0.699
  655SOL    HW1 2100   2.941   2.510   0.749
  655SOL    HW2 2101   2.962   2.419   0.631
  656SOL     OW 2102   0.678   1.445   3.725
  656SOL    HW1 2103   0.606   1.502   3.751
  656SOL    HW2 2104   0.755   1.479   3.771
  657SOL     OW 2105   0.878   0.154   0.178
  657SOL    HW1 2106   0.795   0.140   0.133
  657SOL    HW2 2107   0.902   0.244   0.157
  658SOL     OW 2108   3.012   2.640   3.188
  658SOL    HW1 2109   3.069   2.619   3.115
  658SOL    HW2 2110   2.923   2.634   3.152
  659SOL     OW 2111   1.738   2.655   3.048
  659SOL    HW1 2112   1.663   2.712   3.034
  659SOL    HW2 2113   1.735   2.593   2.976
  660SOL     OW 2114   3.117   1.607   3.815
  660SOL    HW1 2115   3.066   1.687   3.804
  660SOL    HW2 2116   3.150   1.587   3.728
  661SOL     OW 2117   2.834   2.016   1.988
  661SOL    HW1 2118   2.765   2.074   2.021
  661SOL    HW2 2119   2.836   2.033   1.894
  662SOL     OW 2120   0.000   1.305   3.329
  662SOL    HW1 2121  -0.004   1.305   3.425
  662SOL    HW2 2122   0.056   1.231   3.308
  663SOL     OW 2123   2.403   1.353   0.231
  663SOL    HW1 2124   2.449   1.279   0.271
  663SOL    HW2 2125   2.409   1.423   0.295
  664SOL     OW 2126   1.683   1.354   2.128
  664SOL    HW1 2127   1.717   1.353   2.218
  664SOL    HW2 2128   1.713   1.271   2.091
  665SOL     OW 2129   3.857   2.572   1.895
  665SOL    HW1 2130   3.922   2.552   1.962
  665SOL    HW2 2131   3.774   2.539   1.930
  666SOL     OW 2132   3.968   0.079   0.518
  666SOL    HW1 2133   3.891   0.136   0.520
  666SOL    HW2 2134   3.964   0.030   0.599
  667SOL     OW 2135   1.984   2.822   3.039
  667SOL    HW1 2136   2.008   2.841   2.948
  667SOL    HW2 2137   1.889   2.832   3.041
  668SOL     OW 2138   1.616   2.936   1.370
  668SOL    HW1 2139   1.644   2.889   1.291
  668SOL    HW2 2140   1.538   2.984   1.342
  669SOL     OW 2141   1.406   0.195   2.507
  669SOL    HW1 2142   1.488   0.243   2.509
  669SOL    HW2 2143   1.339   0.259   2.531
  670SOL     OW 2144   1.519   3.127   3.554
  670SOL    HW1 2145   1.547   3.183   3.626
  670SOL    HW2 2146   1.600   3.088   3.522
  671SOL     OW 2147   2.597   3.727   0.076
  671SOL    HW1 2148   2.522   3.784   0.096
  671SOL    HW2 2149   2.612   3.679   0.157
  672SOL     OW 2150   0.746   3.599   1.284
  672SOL    HW1 2151   0.696   3.654   1.346
  672SOL    HW2 2152   0.680   3.564   1.225
  673SOL     OW 2153   2.337   1.325   2.703
  673SOL    HW1 2154   2.394   1.250   2.687
  673SOL    HW2 2155   2.266   1.291   2.756
  674SOL     OW 2156   0.644   3.181   0.619
  674SOL    HW1 2157   0.679   3.117   0.681
  674SOL    HW2 2158   0.558   3.146   0.594
  675SOL     OW 2159   0.657   2.154   1.613
  675SOL    HW1 2160   0.627   2.198   1.692
  675SOL    HW2 2161   0.740   2.113   1.638
  676SOL     OW 2162   2.652   3.331   0.737
  676SOL    HW1 2163   2.611   3.245   0.730
  676SOL    HW2 2164   2.583   3.392   0.712
  677SOL     OW 2165   0.668   2.816   1.139
  677SOL    HW1 2166   0.670   2.758   1.215
  677SOL    HW2 2167   0.624   2.765   1.071
  678SOL     OW 2168   0.356   2.066   3.808
  678SOL    HW1 2169   0.445   2.066   3.773
  678SOL    HW2 2170   0.355   1.993   3.870
  679SOL     OW 2171   3.367   2.635   1.075
  679SOL    HW1 2172   3.427   2.684   1.131
  679SOL    HW2 2173   3.419   2.612   0.998
  680SOL     OW 2174   3.710   3.586   0.894
  680SOL    HW1 2175   3.729   3.611   0.803
  680SOL    HW2 2176   3.615   3.597   0.902
  681SOL     OW 2177   1.044   3.849   0.063
  681SOL    HW1 2178   1.019   3.931   0.104
  681SOL    HW2 2179   1.029   3.862  -0.031
  682SOL     OW 2180   2.754   2.282   2.528
  682SOL    HW1 2181   2.774   2.352   2.590
  682SOL    HW2 2182   2.734   2.206   2.583
  683SOL     OW 2183   3.215   1.895   3.516
  683SOL    HW1 2184   3.168   1.927   3.438
  683SOL    HW2 2185   3.147   1.884   3.582
  684SOL     OW 2186   3.419   1.908   1.780
  684SOL    HW1 2187   3.324   1.918   1.779
  684SOL    HW2 2188   3.445   1.923   1.689
  685SOL     OW 2189   2.848   1.575   3.205
  685SOL    HW1 2190   2.883   1.638   3.142
  685SOL    HW2 2191   2.767   1.545   3.166
  686SOL     OW 2192   3.575   0.371   0.229
  686SOL    HW1 2193   3.607   0.284   0.203
  686SOL    HW2 2194   3.535   0.406   0.149
  687SOL     OW 2195   2.312   1.398   0.631
  687SOL    HW1 2196   2.222   1.430   0.622
  687SOL    HW2 2197   2.364   1.477   0.645
  688SOL     OW 2198   0.270   1.422   0.983
  688SOL    HW1 2199   0.328   1.394   0.912
  688SOL    HW2 2200   0.319   1.403   1.063
  689SOL     OW 2201   3.585   1.061   2.839
  689SOL    HW1 2202   3.503   1.099   2.868
  689SOL    HW2 2203   3.612   1.004   2.910
  690SOL     OW 2204   3.119   2.863   1.630
  690SOL    HW1 2205   3.055   2.842   1.698
  690SOL    HW2 2206   3.089   2.946   1.593
  691SOL     OW 2207   3.911   2.149   2.031
  691SOL    HW1 2208   3.933   2.180   1.943
  691SOL    HW2 2209   3.826   2.106   2.021
  692SOL     OW 2210   1.416   1.413   1.144
  692SOL    HW1 2211   1.393   1.456   1.062
  692SOL    HW2 2212   1.506   1.440   1.161
  693SOL     OW 2213   3.100   3.089   2.612
  693SOL    HW1 2214   3.165   3.019   2.609
  693SOL    HW2 2215   3.019   3.045   2.638
  694SOL     OW 2216   3.455   0.528   0.416
  694SOL    HW1 2217   3.368   0.497   0.393
  694SOL    HW2 2218   3.515   0.474   0.363
  695SOL     OW 2219   0.061   0.791   0.688
  695SOL    HW1 2220   0.056   0.714   0.632
  695SOL    HW2 2221   0.061   0.865   0.627
  696SOL     OW 2222   3.290   1.341   3.220
  696SOL    HW1 2223   3.218   1.341   3.283
  696SOL    HW2 2224   3.309   1.434   3.205
  697SOL     OW 2225   3.508   3.123   0.904
  697SOL    HW1 2226   3.457   3.060   0.956
  697SOL    HW2 2227   3.492   3.207   0.946
  698SOL     OW 2228   1.273   1.757   1.264
  698SOL    HW1 2229   1.264   1.768   1.359
  698SOL    HW2 2230   1.303   1.843   1.233
  699SOL     OW 2231   1.721   1.922   1.886
  699SOL    HW1 2232   1.756   1.867   1.956
  699SOL    HW2 2233   1.788   1.988   1.871
  700SOL     OW 2234   1.187   0.888   3.757
  700SOL    HW1 2235   1.203   0.839   3.838
  700SOL    HW2 2236   1.095   0.873   3.738
  701SOL     OW 2237   1.294   0.542   3.647
  701SOL    HW1 2238   1.390   0.550   3.648
  701SOL    HW2 2239   1.263   0.627   3.615
  702SOL     OW 2240   2.007   0.243   0.025
  702SOL    HW1 2241   1.944   0.315   0.014
  702SOL    HW2 2242   2.010   0.228   0.119
  703SOL     OW 2243   0.181   2.292   2.587
  703SOL    HW1 2244   0.215   2.343   2.513
  703SOL    HW2 2245   0.185   2.201   2.558
  704SOL     OW 2246   0.604   0.520   1.488
  704SOL    HW1 2247   0.643   0.521   1.575
  704SOL    HW2 2248   0.664   0.570   1.433
  705SOL     OW 2249   1.269   1.974   2.116
  705SOL    HW1 2250   1.337   2.003   2.055
  705SOL    HW2 2251   1.292   1.884   2.138
  706SOL     OW 2252   0.007   0.163   3.220
  706SOL    HW1 2253   0.067   0.142   3.147
  706SOL    HW2 2254   0.019   0.257   3.233
  707SOL     OW 2255   0.602   0.414   2.802
  707SOL    HW1 2256   0.567   0.372   2.880
  707SOL    HW2 2257   0.541   0.485   2.783
  708SOL     OW 2258   1.152   3.227   2.360
  708SOL    HW1 2259   1.056   3.219   2.364
  708SOL    HW2 2260   1.174   3.207   2.269
  709SOL     OW 2261   2.661   2.063   1.571
  709SOL    HW1 2262   2.730   2.125   1.546
  709SOL    HW2 2263   2.579   2.110   1.553
  710SOL     OW 2264   3.574   2.271   1.584
  710SOL    HW1 2265   3.525   2.349   1.556
  710SOL    HW2 2266   3.577   2.279   1.679
  711SOL     OW 2267   2.121   1.360   3.139
  711SOL    HW1 2268   2.113   1.276   3.184
  711SOL    HW2 2269   2.081   1.423   3.199
  712SOL     OW 2270   3.504   2.861   0.360
  712SOL    HW1 2271   3.542   2.796   0.418
  712SOL    HW2 2272   3.463   2.810   0.291
  713SOL     OW 2273   0.256   2.390   2.335
  713SOL    HW1 2274   0.181   2.339   2.302
  713SOL    HW2 2275   0.249   2.474   2.289
  714SOL     OW 2276   3.577   3.553   2.392
  714SOL    HW1 2277   3.514   3.625   2.397
  714SOL    HW2 2278   3.598   3.534   2.484
  715SOL     OW 2279   3.688   0.275   1.347
  715SOL    HW1 2280   3.658   0.323   1.270
  715SOL    HW2 2281   3.608   0.257   1.397
  716SOL     OW 2282   2.411   2.326   1.036
  716SOL    HW1 2283   2.326   2.327   0.993
  716SOL    HW2 2284   2.393   2.348   1.127
  717SOL     OW 2285   0.449   0.744   3.268
  717SOL    HW1 2286   0.441   0.755   3.362
  717SOL    HW2 2287   0.386   0.806   3.231
  718SOL     OW 2288   1.674   1.516   1.200
  718SOL    HW1 2289   1.770   1.515   1.194
  718SOL    HW2 2290   1.656   1.562   1.282
  719SOL     OW 2291   2.685   0.142   3.387
  719SOL    HW1 2292   2.669   0.223   3.435
  719SOL    HW2 2293   2.599   0.101   3.377
  720SOL     OW 2294   1.937   3.740   3.211
  720SOL    HW1 2295   1.897   3.807   3.155
  720SOL    HW2 2296   1.863   3.686   3.240
  721SOL     OW 2297   3.806   1.937   3.949
  721SOL    HW1 2298   3.766   2.004   4.004
  721SOL    HW2 2299   3.890   1.974   3.923
  722SOL     OW 2300   0.895   3.810   2.987
  722SOL    HW1 2301   0.912   3.717   2.969
  722SOL    HW2 2302   0.964   3.835   3.050
  723SOL     OW 2303   1.979   1.330   1.757
  723SOL    HW1 2304   1.886   1.312   1.742
  723SOL    HW2 2305   1.980   1.392   1.829
  724SOL     OW 2306   1.730   2.353   1.568
  724SOL    HW1 2307   1.756   2.294   1.497
  724SOL    HW2 2308   1.704   2.434   1.523
  725SOL     OW 2309   2.851   1.539   1.850
  725SOL    HW1 2310   2.786   1.531   1.919
  725SOL    HW2 2311   2.898   1.620   1.870
  726SOL     OW 2312   1.931   1.447   1.096
  726SOL    HW1 2313   1.960   1.401   1.174
  726SOL    HW2 2314   1.860   1.392   1.061
  727SOL     OW 2315   1.473   2.906   2.472
  727SOL    HW1 2316   1.416   2.926   2.547
  727SOL    HW2 2317   1.413   2.878   2.403
  728SOL     OW 2318   1.790   2.494   0.533
  728SOL    HW1 2319   1.798   2.541   0.450
  728SOL    HW2 2320   1.822   2.556   0.599
  729SOL     OW 2321   1.257   1.751   1.539
  729SOL    HW1 2322   1.276   1.669   1.586
  729SOL    HW2 2323   1.179   1.786   1.583
  730SOL     OW 2324   3.967   0.557   0.910
  730SOL    HW1 2325   4.002   0.473   0.882
  730SOL    HW2 2326   3.897   0.576   0.848
  731SOL     OW 2327   0.828   2.588   0.488
  731SOL    HW1 2328   0.816   2.664   0.546
  731SOL    HW2 2329   0.740   2.551   0.479
  732SOL     OW 2330   3.584   2.336   0.283
  732SOL    HW1 2331   3.639   2.408   0.252
  732SOL    HW2 2332   3.606   2.263   0.226
  733SOL     OW 2333   0.273   2.298   3.911
  733SOL    HW1 2334   0.293   2.217   3.863
  733SOL    HW2 2335   0.299   2.280   4.001
  734SOL     OW 2336   3.639   0.068   1.141
  734SOL    HW1 2337   3.683   0.143   1.182
  734SOL    HW2 2338   3.633   0.003   1.211
  735SOL     OW 2339   0.802   1.339   3.505
  735SOL    HW1 2340   0.766   1.366   3.590
  735SOL    HW2 2341   0.878   1.285   3.526
  736SOL     OW 2342   2.186   2.992   2.546
  736SOL    HW1 2343   2.206   3.075   2.589
  736SOL    HW2 2344   2.266   2.970   2.499
  737SOL     OW 2345   1.910   1.159   0.190
  737SOL    HW1 2346   1.905   1.077   0.241
  737SOL    HW2 2347   1.862   1.139   0.109
  738SOL     OW 2348   2.144   3.343   0.530
  738SOL    HW1 2349   2.192   3.350   0.447
  738SOL    HW2 2350   2.062   3.300   0.506
  739SOL     OW 2351   2.563   2.364   0.275
  739SOL    HW1 2352   2.608   2.402   0.200
  739SOL    HW2 2353   2.472   2.356   0.247
  740SOL     OW 2354   0.375   2.226   2.106
  740SOL    HW1 2355   0.352   2.303   2.054
  740SOL    HW2 2356   0.466   2.240   2.131
  741SOL     OW 2357   0.190   1.579   2.378
  741SOL    HW1 2358   0.233   1.562   2.295
  741SOL    HW2 2359   0.261   1.599   2.439
  742SOL     OW 2360   2.880   0.480   2.566
  742SOL    HW1 2361   2.787   0.504   2.563
  742SOL    HW2 2362   2.908   0.484   2.474
  743SOL     OW 2363   3.354   2.226   3.691
  743SOL    HW1 2364   3.406   2.301   3.719
  743SOL    HW2 2365   3.417   2.153   3.688
  744SOL     OW 2366   0.148   3.152   0.590
  744SOL    HW1 2367   0.060   3.129   0.618
  744SOL    HW2 2368   0.151   3.247   0.592
  745SOL     OW 2369   3.667   0.132   2.745
  745SOL    HW1 2370   3.699   0.085   2.821
  745SOL    HW2 2371   3.701   0.221   2.755
  746SOL     OW 2372   3.211   2.903   0.901
  746SOL    HW1 2373   3.245   2.964   0.966
  746SOL    HW2 2374   3.278   2.834   0.896
  747SOL     OW 2375   3.731   0.280   0.955
  747SOL    HW1 2376   3.683   0.220   0.896
  747SOL    HW2 2377   3.669   0.296   1.027
  748SOL     OW 2378   2.663   2.070   2.690
  748SOL    HW1 2379   2.661   1.991   2.636
  748SOL    HW2 2380   2.584   2.117   2.666
  749SOL     OW 2381   2.834   1.857   1.264
  749SOL    HW1 2382   2.851   1.949   1.244
  749SOL    HW2 2383   2.745   1.857   1.299
  750SOL     OW 2384   0.858   3.347   1.559
  750SOL    HW1 2385   0.813   3.264   1.574
  750SOL    HW2 2386   0.885   3.376   1.647
  751SOL     OW 2387   0.861   1.127   3.895
  751SOL    HW1 2388   0.869   1.037   3.863
  751SOL    HW2 2389   0.867   1.119   3.990
  752SOL     OW 2390   0.621   0.944   0.988
  752SOL    HW1 2391   0.662   1.031   0.996
  752SOL    HW2 2392   0.636   0.919   0.897
  753SOL     OW 2393   0.938   3.279   1.086
  753SOL    HW1 2394   0.862   3.225   1.107
  753SOL    HW2 2395   0.956   3.328   1.167
  754SOL     OW 2396   3.958   0.635   3.974
  754SOL    HW1 2397   4.007   0.602   3.899
  754SOL    HW2 2398   3.873   0.593   3.969
  755SOL     OW 2399   1.372   3.756   3.869
  755SOL    HW1 2400   1.457   3.792   3.845
  755SOL    HW2 2401   1.315   3.832   3.880
  756SOL     OW 2402   3.760   3.532   1.610
  756SOL    HW1 2403   3.789   3.596   1.545
  756SOL    HW2 2404   3.676   3.566   1.641
  757SOL     OW 2405   1.668   0.742   2.294
  757SOL    HW1 2406   1.721   0.668   2.323
  757SOL    HW2 2407   1.722   0.787   2.230
  758SOL     OW 2408   2.888   0.588   1.239
  758SOL    HW1 2409   2.965   0.532   1.243
  758SOL    HW2 2410   2.878   0.610   1.146
  759SOL     OW 2411   0.509   1.485   1.803
  759SOL    HW1 2412   0.454   1.499   1.726
  759SOL    HW2 2413   0.558   1.405   1.783
  760SOL     OW 2414   1.656   3.199   0.988
  760SOL    HW1 2415   1.636   3.204   0.894
  760SOL    HW2 2416   1.751   3.187   0.991
  761SOL     OW 2417   0.066   0.189   1.787
  761SOL    HW1 2418   0.016   0.247   1.730
  761SOL    HW2 2419   0.143   0.165   1.734
  762SOL     OW 2420   0.313   0.297   0.845
  762SOL    HW1 2421   0.220   0.311   0.829
  762SOL    HW2 2422   0.356   0.370   0.800
  763SOL     OW 2423   1.365   3.288   1.841
  763SOL    HW1 2424   1.370   3.330   1.927
  763SOL    HW2 2425   1.276   3.307   1.811
  764SOL     OW 2426   3.804   0.300   2.973
  764SOL    HW1 2427   3.807   0.335   2.885
  764SOL    HW2 2428   3.842   0.212   2.965
  765SOL     OW 2429   0.043   1.084   1.552
  765SOL    HW1 2430   0.125   1.040   1.572
  765SOL    HW2 2431   0.033   1.073   1.457
  766SOL     OW 2432   0.551   2.719   3.041
  766SOL    HW1 2433   0.612   2.738   3.113
  766SOL    HW2 2434   0.534   2.625   3.049
  767SOL     OW 2435   2.754   3.699   1.032
  767SOL    HW1 2436   2.844   3.666   1.044
  767SOL    HW2 2437   2.754   3.785   1.073
  768SOL     OW 2438  -0.009   2.862   3.462
  768SOL    HW1 2439  -0.064   2.874   3.384
  768SOL    HW2 2440   0.080   2.877   3.431
  769SOL     OW 2441   3.830   3.282   1.644
  769SOL    HW1 2442   3.806   3.374   1.639
  769SOL    HW2 2443   3.881   3.274   1.724
  770SOL     OW 2444   3.834   1.401   0.552
  770SOL    HW1 2445   3.837   1.494   0.532
  770SOL    HW2 2446   3.770   1.394   0.623
  771SOL     OW 2447   3.723   2.470   2.879
  771SOL    HW1 2448   3.781   2.402   2.844
  771SOL    HW2 2449   3.635   2.439   2.856
  772SOL     OW 2450   1.005   3.733   3.266
  772SOL    HW1 2451   1.036   3.806   3.212
  772SOL    HW2 2452   1.063   3.734   3.343
  773SOL     OW 2453   0.750   1.207   0.963
  773SOL    HW1 2454   0.791   1.221   1.048
  773SOL    HW2 2455   0.824   1.193   0.903
  774SOL     OW 2456   1.996   2.155   0.547
  774SOL    HW1 2457   2.048   2.230   0.577
  774SOL    HW2 2458   1.947   2.187   0.471
  775SOL     OW 2459   2.473   2.276   3.902
  775SOL    HW1 2460   2.388   2.232   3.895
  775SOL    HW2 2461   2.452   2.369   3.906
  776SOL     OW 2462   2.790   0.651   1.485
  776SOL    HW1 2463   2.809   0.743   1.506
  776SOL    HW2 2464   2.811   0.644   1.392
  777SOL     OW 2465   0.781   2.395   2.431
  777SOL    HW1 2466   0.814   2.367   2.517
  777SOL    HW2 2467   0.773   2.490   2.438
  778SOL     OW 2468   0.551   3.383   3.922
  778SOL    HW1 2469   0.570   3.396   3.829
  778SOL    HW2 2470   0.636   3.368   3.963
  779SOL     OW 2471   0.828   0.798   1.112
  779SOL    HW1 2472   0.777   0.812   1.032
  779SOL    HW2 2473   0.917   0.825   1.090
  780SOL     OW 2474   2.246   3.027   2.928
  780SOL    HW1 2475   2.273   3.114   2.956
  780SOL    HW2 2476   2.276   3.020   2.837
  781SOL     OW 2477   1.332   2.810   2.253
  781SOL    HW1 2478   1.372   2.880   2.201
  781SOL    HW2 2479   1.309   2.743   2.189
  782SOL     OW 2480   1.140   2.175   2.852
  782SOL    HW1 2481   1.215   2.205   2.801
  782SOL    HW2 2482   1.162   2.195   2.942
  783SOL     OW 2483   2.616   3.528   2.327
  783SOL    HW1 2484   2.677   3.583   2.376
  783SOL    HW2 2485   2.560   3.589   2.281
  784SOL     OW 2486   2.851   0.122   2.315
  784SOL    HW1 2487   2.885   0.033   2.302
  784SOL    HW2 2488   2.924   0.171   2.351
  785SOL     OW 2489   3.272   3.431   1.835
  785SOL    HW1 2490   3.216   3.494   1.880
  785SOL    HW2 2491   3.278   3.464   1.745
  786SOL     OW 2492   1.094   2.053   0.600
  786SOL    HW1 2493   1.095   2.009   0.515
  786SOL    HW2 2494   1.005   2.085   0.610
  787SOL     OW 2495   0.744   2.541   0.156
  787SOL    HW1 2496   0.708   2.523   0.243
  787SOL    HW2 2497   0.735   2.459   0.108
  788SOL     OW 2498   0.285   2.145   1.761
  788SOL    HW1 2499   0.249   2.058   1.741
  788SOL    HW2 2500   0.303   2.142   1.855
  789SOL     OW 2501   3.179   2.599   0.245
  789SOL    HW1 2502   3.233   2.552   0.310
  789SOL    HW2 2503   3.155   2.681   0.288
  790SOL     OW 2504   1.549   3.653   3.402
  790SOL    HW1 2505   1.480   3.665   3.467
  790SOL    HW2 2506   1.503   3.637   3.320
  791SOL     OW 2507   3.076   3.844   1.860
  791SOL    HW1 2508   3.127   3.769   1.891
  791SOL    HW2 2509   3.014   3.807   1.797
  792SOL     OW 2510   1.188   2.801   0.887
  792SOL    HW1 2511   1.185   2.896   0.897
  792SOL    HW2 2512   1.258   2.786   0.823
  793SOL     OW 2513   2.353   1.905   3.034
  793SOL    HW1 2514   2.277   1.956   3.061
  793SOL    HW2 2515   2.428   1.961   3.054
  794SOL     OW 2516   0.355   1.452   1.571
  794SOL    HW1 2517   0.395   1.376   1.528
  794SOL    HW2 2518   0.316   1.502   1.499
  795SOL     OW 2519   2.725   2.334   3.561
  795SOL    HW1 2520   2.811   2.302   3.531
  795SOL    HW2 2521   2.705   2.406   3.502
  796SOL     OW 2522   0.032   3.406   1.027
  796SOL    HW1 2523  -0.004   3.471   1.087
  796SOL    HW2 2524  -0.025   3.411   0.949
  797SOL     OW 2525   1.843   0.663   3.432
  797SOL    HW1 2526   1.858   0.602   3.505
  797SOL    HW2 2527   1.750   0.652   3.410
  798SOL     OW 2528   1.550   1.388   2.844
  798SOL    HW1 2529   1.475   1.410   2.789
  798SOL    HW2 2530   1.514   1.334   2.914
  799SOL     OW 2531   2.681   3.097   1.146
  799SOL    HW1 2532   2.681   3.024   1.084
  799SOL    HW2 2533   2.724   3.168   1.099
  800SOL     OW 2534   3.378   3.428   2.998
  800SOL    HW1 2535   3.438   3.435   2.923
  800SOL    HW2 2536   3.314   3.498   2.984
  801SOL     OW 2537   1.944   2.564   3.203
  801SOL    HW1 2538   1.879   2.550   3.135
  801SOL    HW2 2539   1.940   2.657   3.223
  802SOL     OW 2540   0.138   3.173   0.907
  802SOL    HW1 2541   0.124   3.267   0.919
  802SOL    HW2 2542   0.142   3.137   0.995
  803SOL     OW 2543   3.055   0.143   0.812
  803SOL    HW1 2544   3.144   0.131   0.781
  803SOL    HW2 2545   3.039   0.237   0.804
  804SOL     OW 2546   0.479   2.880   1.910
  804SOL    HW1 2547   0.435   2.916   1.987
  804SOL    HW2 2548   0.465   2.945   1.841
  805SOL     OW 2549   1.016   3.347   2.028
  805SOL    HW1 2550   0.986   3.333   2.118
  805SOL    HW2 2551   1.107   3.375   2.038
  806SOL     OW 2552   0.888   3.532   3.933
  806SOL    HW1 2553   0.872   3.439   3.950
  806SOL    HW2 2554   0.961   3.533   3.872
  807SOL     OW 2555   3.805   1.285   3.697
  807SOL    HW1 2556   3.837   1.210   3.746
  807SOL    HW2 2557   3.711   1.288   3.716
  808SOL     OW 2558   3.480   2.056   2.215
  808SOL    HW1 2559   3.543   2.033   2.283
  808SOL    HW2 2560   3.532   2.094   2.144
  809SOL     OW 2561   1.181   0.539   0.696
  809SOL    HW1 2562   1.096   0.574   0.722
  809SOL    HW2 2563   1.169   0.444   0.694
  810SOL     OW 2564   1.812   1.884   0.791
  810SOL    HW1 2565   1.854   1.872   0.706
  810SOL    HW2 2566   1.852   1.818   0.847
  811SOL     OW 2567   1.643   3.321   0.715
  811SOL    HW1 2568   1.718   3.351   0.663
  811SOL    HW2 2569   1.587   3.398   0.722
  812SOL     OW 2570   0.668   3.364   3.665
  812SOL    HW1 2571   0.669   3.334   3.574
  812SOL    HW2 2572   0.758   3.355   3.694
  813SOL     OW 2573   0.190   0.834   0.104
  813SOL    HW1 2574   0.193   0.872   0.016
  813SOL    HW2 2575   0.114   0.776   0.102
  814SOL     OW 2576   3.002   2.243   2.861
  814SOL    HW1 2577   3.030   2.226   2.771
  814SOL    HW2 2578   3.021   2.162   2.908
  815SOL     OW 2579   2.466   0.789   2.128
  815SOL    HW1 2580   2.503   0.846   2.196
  815SOL    HW2 2581   2.455   0.847   2.052
  816SOL     OW 2582   1.565   1.519   1.696
  816SOL    HW1 2583   1.471   1.531   1.701
  816SOL    HW2 2584   1.585   1.527   1.602
  817SOL     OW 2585   2.292   2.392   0.247
  817SOL    HW1 2586   2.264   2.441   0.169
  817SOL    HW2 2587   2.230   2.418   0.315
  818SOL     OW 2588   3.925   0.838   0.411
  818SOL    HW1 2589   3.892   0.825   0.322
  818SOL    HW2 2590   3.852   0.878   0.458
  819SOL     OW 2591   1.683   2.096   2.900
  819SOL    HW1 2592   1.621   2.169   2.904
  819SOL    HW2 2593   1.638   2.024   2.945
  820SOL     OW 2594   1.224   3.411   1.062
  820SOL    HW1 2595   1.165   3.404   0.986
  820SOL    HW2 2596   1.233   3.505   1.076
  821SOL     OW 2597   3.276   2.171   3.209
  821SOL    HW1 2598   3.183   2.182   3.190
  821SOL    HW2 2599   3.316   2.252   3.177
  822SOL     OW 2600   2.483   2.579   3.895
  822SOL    HW1 2601   2.483   2.664   3.939
  822SOL    HW2 2602   2.484   2.600   3.802
  823SOL     OW 2603   3.902   2.174   1.746
  823SOL    HW1 2604   3.956   2.096   1.737
  823SOL    HW2 2605   3.878   2.198   1.657
  824SOL     OW 2606   2.413   1.230   3.400
  824SOL    HW1 2607   2.451   1.178   3.328
  824SOL    HW2 2608   2.474   1.218   3.473
  825SOL     OW 2609   3.213   2.695   3.830
  825SOL    HW1 2610   3.220   2.679   3.924
  825SOL    HW2 2611   3.300   2.677   3.796
  826SOL     OW 2612   0.285   3.107   0.048
  826SOL    HW1 2613   0.219   3.110   0.117
  826SOL    HW2 2614   0.278   3.192   0.005
  827SOL     OW 2615   0.288   1.996   3.145
  827SOL    HW1 2616   0.304   2.044   3.064
  827SOL    HW2 2617   0.366   2.011   3.198
  828SOL     OW 2618   3.140   0.446   0.572
  828SOL    HW1 2619   3.203   0.432   0.502
  828SOL    HW2 2620   3.056   0.417   0.536
  829SOL     OW 2621   0.808   1.651   0.732
  829SOL    HW1 2622   0.883   1.646   0.672
  829SOL    HW2 2623   0.847   1.652   0.820
  830SOL     OW 2624   3.387   1.605   3.240
  830SOL    HW1 2625   3.314   1.654   3.279
  830SOL    HW2 2626   3.465   1.654   3.264
  831SOL     OW 2627   3.447   3.829   0.068
  831SOL    HW1 2628   3.370   3.825   0.012
  831SOL    HW2 2629   3.517   3.791   0.015
  832SOL     OW 2630   0.657   0.239   3.395
  832SOL    HW1 2631   0.738   0.286   3.375
  832SOL    HW2 2632   0.687   0.152   3.425
  833SOL     OW 2633   0.373   1.165   0.897
  833SOL    HW1 2634   0.323   1.089   0.866
  833SOL    HW2 2635   0.424   1.193   0.821
  834SOL     OW 2636   0.202   3.106   0.327
  834SOL    HW1 2637   0.281   3.159   0.327
  834SOL    HW2 2638   0.173   3.106   0.419
  835SOL     OW 2639   3.242   3.866   1.375
  835SOL    HW1 2640   3.169   3.854   1.437
  835SOL    HW2 2641   3.234   3.958   1.347
  836SOL     OW 2642   2.906   3.312   1.778
  836SOL    HW1 2643   2.896   3.373   1.705
  836SOL    HW2 2644   2.874   3.361   1.854
  837SOL     OW 2645   1.914   2.281   2.241
  837SOL    HW1 2646   1.937   2.315   2.155
  837SOL    HW2 2647   1.995   2.284   2.291
  838SOL     OW 2648   0.116   0.568   0.523
  838SOL    HW1 2649   0.184   0.503   0.539
  838SOL    HW2 2650   0.134   0.601   0.436
  839SOL     OW 2651   0.566   1.163   3.837
  839SOL    HW1 2652   0.592   1.240   3.787
  839SOL    HW2 2653   0.648   1.126   3.870
  840SOL     OW 2654   1.152   0.618   2.476
  840SOL    HW1 2655   1.230   0.667   2.451
  840SOL    HW2 2656   1.108   0.674   2.540
  841SOL     OW 2657   3.768   1.404   1.785
  841SOL    HW1 2658   3.849   1.382   1.739
  841SOL    HW2 2659   3.709   1.331   1.765
  842SOL     OW 2660   2.606   2.397   0.853
  842SOL    HW1 2661   2.634   2.307   0.834
  842SOL    HW2 2662   2.539   2.388   0.920
  843SOL     OW 2663   2.875   3.253   2.562
  843SOL    HW1 2664   2.954   3.199   2.560
  843SOL    HW2 2665   2.905   3.337   2.599
  844SOL     OW 2666   1.302   1.047   2.329
  844SOL    HW1 2667   1.247   1.105   2.275
  844SOL    HW2 2668   1.279   1.071   2.419
  845SOL     OW 2669   3.465   3.643   0.922
  845SOL    HW1 2670   3.376   3.633   0.957
  845SOL    HW2 2671   3.452   3.686   0.837
  846SOL     OW 2672   3.290   0.511   2.138
  846SOL    HW1 2673   3.364   0.456   2.162
  846SOL    HW2 2674   3.328   0.580   2.083
  847SOL     OW 2675   2.793   2.675   1.123
  847SOL    HW1 2676   2.793   2.621   1.044
  847SOL    HW2 2677   2.886   2.691   1.142
  848SOL     OW 2678   3.715   3.293   2.809
  848SOL    HW1 2679   3.653   3.274   2.879
  848SOL    HW2 2680   3.773   3.217   2.808
  849SOL     OW 2681   2.879   0.444   2.832
  849SOL    HW1 2682   2.925   0.513   2.880
  849SOL    HW2 2683   2.884   0.472   2.740
  850SOL     OW 2684   2.554   1.461   3.516
  850SOL    HW1 2685   2.505   1.543   3.509
  850SOL    HW2 2686   2.495   1.395   3.480
  851SOL     OW 2687   1.460   3.163   3.115
  851SOL    HW1 2688   1.402   3.097   3.152
  851SOL    HW2 2689   1.508   3.199   3.190
  852SOL     OW 2690   1.017   2.830   1.869
  852SOL    HW1 2691   1.025   2.843   1.964
  852SOL    HW2 2692   0.941   2.883   1.845
  853SOL     OW 2693   0.033   1.603   1.539
  853SOL    HW1 2694   0.040   1.552   1.458
  853SOL    HW2 2695   0.037   1.537   1.608
  854SOL     OW 2696   1.358   0.053   3.306
  854SOL    HW1 2697   1.404   0.135   3.290
  854SOL    HW2 2698   1.397  -0.009   3.244
  855SOL     OW 2699   0.212   3.889   0.418
  855SOL    HW1 2700   0.142   3.932   0.467
  855SOL    HW2 2701   0.277   3.866   0.484
  856SOL     OW 2702   3.563   3.743   3.553
  856SOL    HW1 2703   3.501   3.714   3.487
  856SOL    HW2 2704   3.617   3.665   3.572
  857SOL     OW 2705   2.764   0.004   1.074
  857SOL    HW1 2706   2.746   0.027   0.983
  857SOL    HW2 2707   2.743   0.084   1.124
  858SOL     OW 2708   0.071   2.530   1.274
  858SOL    HW1 2709   0.058   2.470   1.200
  858SOL    HW2 2710   0.139   2.488   1.327
  859SOL     OW 2711   3.053   0.819   3.767
  859SOL    HW1 2712   3.138   0.788   3.799
  859SOL    HW2 2713   3.018   0.872   3.839
  860SOL     OW 2714   0.145   1.857   1.450
  860SOL    HW1 2715   0.118   1.766   1.461
  860SOL    HW2 2716   0.193   1.878   1.531
  861SOL     OW 2717   3.446   0.348   2.513
  861SOL    HW1 2718   3.418   0.356   2.421
  861SOL    HW2 2719   3.541   0.350   2.509
  862SOL     OW 2720   3.522   2.513   0.867
  862SOL    HW1 2721   3.564   2.552   0.790
  862SOL    HW2 2722   3.446   2.467   0.832
  863SOL     OW 2723   2.926   0.949   0.034
  863SOL    HW1 2724   2.888   1.032   0.007
  863SOL    HW2 2725   2.999   0.973   0.091
  864SOL     OW 2726   0.802   3.808   2.453
  864SOL    HW1 2727   0.798   3.824   2.359
  864SOL    HW2 2728   0.748   3.877   2.491
  865SOL     OW 2729   0.896   1.188   2.293
  865SOL    HW1 2730   0.894   1.099   2.256
  865SOL    HW2 2731   0.816   1.229   2.262
  866SOL     OW 2732   0.047   1.328   1.682
  866SOL    HW1 2733   0.027   1.248   1.633
  866SOL    HW2 2734   0.136   1.315   1.714
  867SOL     OW 2735   2.567   3.757   1.388
  867SOL    HW1 2736   2.512   3.728   1.461
  867SOL    HW2 2737   2.557   3.689   1.322
  868SOL     OW 2738   0.022   0.506   1.551
  868SOL    HW1 2739   0.008   0.417   1.517
  868SOL    HW2 2740   0.117   0.514   1.560
  869SOL     OW 2741   3.359   0.784   1.012
  869SOL    HW1 2742   3.405   0.711   0.971
  869SOL    HW2 2743   3.271   0.750   1.030
  870SOL     OW 2744   3.107   1.632   3.284
  870SOL    HW1 2745   3.015   1.629   3.308
  870SOL    HW2 2746   3.123   1.548   3.241
  871SOL     OW 2747   3.498   3.748   0.673
  871SOL    HW1 2748   3.453   3.782   0.596
  871SOL    HW2 2749   3.518   3.657   0.651
  872SOL     OW 2750   0.616   2.624   2.543
  872SOL    HW1 2751   0.582   2.535   2.531
  872SOL    HW2 2752   0.617   2.637   2.638
  873SOL     OW 2753   3.476   3.978   1.751
  873SOL    HW1 2754   3.494   3.885   1.768
  873SOL    HW2 2755   3.385   3.990   1.778
  874SOL     OW 2756   3.789   2.143   0.628
  874SOL    HW1 2757   3.758   2.145   0.718
  874SOL    HW2 2758   3.792   2.050   0.605
  875SOL     OW 2759   3.983   0.213  -0.006
  875SOL    HW1 2760   3.913   0.242   0.052
  875SOL    HW2 2761   3.971   0.119  -0.014
  876SOL     OW 2762   1.291   2.015   2.573
  876SOL    HW1 2763   1.210   2.026   2.624
  876SOL    HW2 2764   1.328   1.933   2.605
  877SOL     OW 2765   2.808   1.064   3.592
  877SOL    HW1 2766   2.774   1.004   3.525
  877SOL    HW2 2767   2.742   1.133   3.597
  878SOL     OW 2768   1.439   2.736   0.732
  878SOL    HW1 2769   1.468   2.649   0.705
  878SOL    HW2 2770   1.458   2.792   0.656
  879SOL     OW 2771   1.689   1.999   1.337
  879SOL    HW1 2772   1.700   1.920   1.390
  879SOL    HW2 2773   1.709   1.971   1.247
  880SOL     OW 2774   0.079   0.293   0.318
  880SOL    HW1 2775   0.028   0.374   0.317
  880SOL    HW2 2776   0.019   0.228   0.356
  881SOL     OW 2777   2.254   0.178   1.919
  881SOL    HW1 2778   2.167   0.139   1.916
  881SOL    HW2 2779   2.247   0.257   1.866
  882SOL     OW 2780   1.521   3.799   1.372
  882SOL    HW1 2781   1.510   3.838   1.459
  882SOL    HW2 2782   1.580   3.859   1.326
  883SOL     OW 2783   2.333   1.808   2.402
  883SOL    HW1 2784   2.296   1.742   2.461
  883SOL    HW2 2785   2.340   1.764   2.318
  884SOL     OW 2786   3.169   3.360   3.880
  884SOL    HW1 2787   3.154   3.418   3.806
  884SOL    HW2 2788   3.240   3.302   3.852
  885SOL     OW 2789   0.378   1.569   0.404
  885SOL    HW1 2790   0.415   1.558   0.491
  885SOL    HW2 2791   0.351   1.661   0.401
  886SOL     OW 2792   2.168   2.103   0.167
  886SOL    HW1 2793   2.230   2.176   0.166
  886SOL    HW2 2794   2.211   2.035   0.218
  887SOL     OW 2795   3.284   3.076   1.102
  887SOL    HW1 2796   3.341   3.062   1.177
  887SOL    HW2 2797   3.286   3.171   1.087
  888SOL     OW 2798   0.500   1.971   2.528
  888SOL    HW1 2799   0.551   1.910   2.475
  888SOL    HW2 2800   0.515   2.056   2.488
  889SOL     OW 2801   0.289   3.387   3.940
  889SOL    HW1 2802   0.384   3.377   3.949
  889SOL    HW2 2803   0.277   3.420   3.851
  890SOL     OW 2804   2.879   1.251   2.929
  890SOL    HW1 2805   2.926   1.256   2.846
  890SOL    HW2 2806   2.805   1.310   2.918
  891SOL     OW 2807   1.007   0.746   2.682
  891SOL    HW1 2808   0.937   0.682   2.697
  891SOL    HW2 2809   0.963   0.831   2.682
  892SOL     OW 2810   2.094   0.586   3.751
  892SOL    HW1 2811   2.180   0.603   3.713
  892SOL    HW2 2812   2.099   0.627   3.838
  893SOL     OW 2813   0.246   2.797   1.249
  893SOL    HW1 2814   0.327   2.748   1.236
  893SOL    HW2 2815   0.201   2.751   1.319
  894SOL     OW 2816   2.598   2.556   1.288
  894SOL    HW1 2817   2.650   2.609   1.227
  894SOL    HW2 2818   2.507   2.572   1.263
  895SOL     OW 2819   1.454   0.861   3.533
  895SOL    HW1 2820   1.524   0.841   3.596
  895SOL    HW2 2821   1.396   0.920   3.581
  896SOL     OW 2822   0.774   0.819   1.811
  896SOL    HW1 2823   0.864   0.847   1.795
  896SOL    HW2 2824   0.735   0.892   1.859
  897SOL     OW 2825   3.188   0.424   3.019
  897SOL    HW1 2826   3.241   0.346   2.999
  897SOL    HW2 2827   3.135   0.398   3.094
  898SOL     OW 2828   2.375   2.733   0.325
  898SOL    HW1 2829   2.288   2.722   0.285
  898SOL    HW2 2830   2.435   2.730   0.251
  899SOL     OW 2831   1.199   1.484   3.815
  899SOL    HW1 2832   1.130   1.426   3.783
  899SOL    HW2 2833   1.275   1.465   3.759
  900SOL     OW 2834   0.701   3.431   2.811
  900SOL    HW1 2835   0.631   3.495   2.803
  900SOL    HW2 2836   0.681   3.364   2.745
  901SOL     OW 2837   3.309   1.164   1.713
  901SOL    HW1 2838   3.349   1.249   1.728
  901SOL    HW2 2839   3.263   1.173   1.630
  902SOL     OW 2840   0.219   1.575   3.396
  902SOL    HW1 2841   0.248   1.574   3.305
  902SOL    HW2 2842   0.127   1.600   3.392
  903SOL     OW 2843   1.017   2.429   0.685
  903SOL    HW1 2844   0.949   2.366   0.662
  903SOL    HW2 2845   0.989   2.511   0.644
  904SOL     OW 2846   1.610   2.604   1.391
  904SOL    HW1 2847   1.665   2.636   1.319
  904SOL    HW2 2848   1.524   2.592   1.351
  905SOL     OW 2849   3.323   0.058   0.766
  905SOL    HW1 2850   3.325  -0.024   0.717
  905SOL    HW2 2851   3.318   0.030   0.858
  906SOL     OW 2852   1.939   1.393   0.555
  906SOL    HW1 2853   1.987   1.475   0.545
  906SOL    HW2 2854   1.975   1.335   0.488
  907SOL     OW 2855   3.196   1.152   1.442
  907SOL    HW1 2856   3.137   1.091   1.485
  907SOL    HW2 2857   3.168   1.152   1.350
  908SOL     OW 2858   0.538   0.602   0.339
  908SOL    HW1 2859   0.541   0.515   0.299
  908SOL    HW2 2860   0.448   0.631   0.328
  909SOL     OW 2861   0.509   0.857   0.100
  909SOL    HW1 2862   0.441   0.850   0.032
  909SOL    HW2 2863   0.468   0.908   0.169
  910SOL     OW 2864   1.228   0.705   0.035
  910SOL    HW1 2865   1.211   0.723   0.128
  910SOL    HW2 2866   1.306   0.650   0.035
  911SOL     OW 2867   0.549   0.105   2.887
  911SOL    HW1 2868   0.536   0.196   2.912
  911SOL    HW2 2869   0.644   0.098   2.872
  912SOL     OW 2870   1.525   1.283   2.504
  912SOL    HW1 2871   1.496   1.228   2.576
  912SOL    HW2 2872   1.475   1.365   2.515
  913SOL     OW 2873   1.252   1.199   1.732
  913SOL    HW1 2874   1.346   1.188   1.745
  913SOL    HW2 2875   1.213   1.147   1.802
  914SOL     OW 2876   2.689   2.884   0.966
  914SOL    HW1 2877   2.773   2.890   0.920
  914SOL    HW2 2878   2.704   2.820   1.035
  915SOL     OW 2879   3.883   0.816   1.675
  915SOL    HW1 2880   3.837   0.840   1.595
  915SOL    HW2 2881   3.976   0.817   1.652
  916SOL     OW 2882   0.982   2.313   3.655
  916SOL    HW1 2883   1.044   2.243   3.674
  916SOL    HW2 2884   0.991   2.329   3.561
  917SOL     OW 2885   1.171   1.476   2.399
  917SOL    HW1 2886   1.253   1.479   2.349
  917SOL    HW2 2887   1.117   1.413   2.352
  918SOL     OW 2888   3.701   0.902   2.010
  918SOL    HW1 2889   3.643   0.845   1.959
  918SOL    HW2 2890   3.662   0.989   2.000
  919SOL     OW 2891   1.442   2.437   3.858
  919SOL    HW1 2892   1.399   2.522   3.853
  919SOL    HW2 2893   1.505   2.438   3.785
  920SOL     OW 2894   3.826   3.707   3.379
  920SOL    HW1 2895   3.798   3.710   3.288
  920SOL    HW2 2896   3.798   3.790   3.416
  921SOL     OW 2897   2.355   3.125   1.753
  921SOL    HW1 2898   2.271   3.088   1.780
  921SOL    HW2 2899   2.358   3.112   1.659
  922SOL     OW 2900   1.860   2.148   0.281
  922SOL    HW1 2901   1.908   2.117   0.204
  922SOL    HW2 2902   1.788   2.200   0.245
  923SOL     OW 2903   2.805   3.766   3.212
  923SOL    HW1 2904   2.829   3.698   3.274
  923SOL    HW2 2905   2.715   3.790   3.236
  924SOL     OW 2906   3.187   1.113   0.462
  924SOL    HW1 2907   3.237   1.076   0.535
  924SOL    HW2 2908   3.234   1.193   0.439
  925SOL     OW 2909   0.302   0.683   0.756
  925SOL    HW1 2910   0.224   0.726   0.722
  925SOL    HW2 2911   0.311   0.719   0.845
  926SOL     OW 2912   3.636   1.316   0.061
  926SOL    HW1 2913   3.593   1.296  -0.022
  926SOL    HW2 2914   3.579   1.277   0.128
  927SOL     OW 2915   0.291   2.316   0.415
  927SOL    HW1 2916   0.339   2.258   0.356
  927SOL    HW2 2917   0.248   2.257   0.477
  928SOL     OW 2918   2.464   2.518   2.262
  928SOL    HW1 2919   2.519   2.523   2.184
  928SOL    HW2 2920   2.518   2.556   2.332
  929SOL     OW 2921   1.211   1.627   0.955
  929SOL    HW1 2922   1.295   1.598   0.988
  929SOL    HW2 2923   1.232   1.696   0.893
  930SOL     OW 2924   1.473   0.587   0.040
  930SOL    HW1 2925   1.472   0.551   0.128
  930SOL    HW2 2926   1.552   0.642   0.037
  931SOL     OW 2927   2.824   0.568   0.248
  931SOL    HW1 2928   2.892   0.614   0.296
  931SOL    HW2 2929   2.853   0.569   0.157
  932SOL     OW 2930   1.313   1.156   0.168
  932SOL    HW1 2931   1.233   1.206   0.182
  932SOL    HW2 2932   1.381   1.206   0.212
  933SOL     OW 2933   3.598   3.819   3.800
  933SOL    HW1 2934   3.593   3.915   3.795
  933SOL    HW2 2935   3.584   3.790   3.710
  934SOL     OW 2936   3.663   0.575   1.848
  934SOL    HW1 2937   3.756   0.576   1.870
  934SOL    HW2 2938   3.660   0.581   1.753
  935SOL     OW 2939   0.881   3.479   1.807
  935SOL    HW1 2940   0.878   3.430   1.889
  935SOL    HW2 2941   0.861   3.569   1.832
  936SOL     OW 2942   3.111   0.004   2.351
  936SOL    HW1 2943   3.131   0.088   2.393
  936SOL    HW2 2944   3.197  -0.036   2.335
  937SOL     OW 2945   0.645   3.659   3.275
  937SOL    HW1 2946   0.739   3.641   3.270
  937SOL    HW2 2947   0.629   3.724   3.207
  938SOL     OW 2948   3.324   0.919   3.092
  938SOL    HW1 2949   3.245   0.969   3.072
  938SOL    HW2 2950   3.292   0.838   3.131
  939SOL     OW 2951   0.500   0.539   2.181
  939SOL    HW1 2952   0.567   0.547   2.113
  939SOL    HW2 2953   0.417   0.545   2.134
  940SOL     OW 2954   3.807   3.004   1.568
  940SOL    HW1 2955   3.808   3.099   1.581
  940SOL    HW2 2956   3.760   2.970   1.644
  941SOL     OW 2957   0.573   1.443   0.881
  941SOL    HW1 2958   0.659   1.458   0.919
  941SOL    HW2 2959   0.565   1.348   0.872
  942SOL     OW 2960   1.570   0.857   1.647
  942SOL    HW1 2961   1.618   0.920   1.701
  942SOL    HW2 2962   1.636   0.794   1.619
  943SOL     OW 2963   0.028   2.650   1.000
  943SOL    HW1 2964   0.014   2.744   0.987
  943SOL    HW2 2965   0.082   2.645   1.079
  944SOL     OW 2966   2.731   3.379   3.625
  944SOL    HW1 2967   2.818   3.339   3.619
  944SOL    HW2 2968   2.683   3.322   3.685
  945SOL     OW 2969   1.127   3.623   0.534
  945SOL    HW1 2970   1.124   3.530   0.514
  945SOL    HW2 2971   1.163   3.663   0.454
  946SOL     OW 2972   3.270   0.317   3.310
  946SOL    HW1 2973   3.244   0.234   3.352
  946SOL    HW2 2974   3.295   0.373   3.383
  947SOL     OW 2975   2.348   0.373   3.770
  947SOL    HW1 2976   2.437   0.402   3.786
  947SOL    HW2 2977   2.309   0.363   3.857
  948SOL     OW 2978   1.275   3.826   2.212
  948SOL    HW1 2979   1.214   3.893   2.181
  948SOL    HW2 2980   1.359   3.870   2.217
  949SOL     OW 2981   0.613   1.812   1.605
  949SOL    HW1 2982   0.694   1.855   1.579
  949SOL    HW2 2983   0.610   1.731   1.554
  950SOL     OW 2984   0.799   3.265   0.005
  950SOL    HW1 2985   0.867   3.198  -0.003
  950SOL    HW2 2986   0.717   3.216   0.006
  951SOL     OW 2987   1.880   2.383   2.908
  951SOL    HW1 2988   1.819   2.427   2.849
  951SOL    HW2 2989   1.916   2.311   2.857
  952SOL     OW 2990   1.100   3.639   2.303
  952SOL    HW1 2991   1.148   3.707   2.256
  952SOL    HW2 2992   1.118   3.656   2.395
  953SOL     OW 2993   0.568   0.268   1.657
  953SOL    HW1 2994   0.643   0.208   1.653
  953SOL    HW2 2995   0.565   0.307   1.570
  954SOL     OW 2996   3.414   2.960   2.915
  954SOL    HW1 2997   3.320   2.957   2.931
  954SOL    HW2 2998   3.447   3.021   2.981
  955SOL     OW 2999   3.706   2.650   1.128
  955SOL    HW1 3000   3.801   2.651   1.138
  955SOL    HW2 3001   3.684   2.557   1.120
  956SOL     OW 3002   0.291   0.495   3.190
  956SOL    HW1 3003   0.369   0.445   3.166
  956SOL    HW2 3004   0.324   0.579   3.220
  957SOL     OW 3005   0.390   1.933   0.089
  957SOL    HW1 3006   0.468   1.888   0.121
  957SOL    HW2 3007   0.318   1.875   0.111
  958SOL     OW 3008   2.030   2.576   0.883
  958SOL    HW1 3009   2.117   2.578   0.921
  958SOL    HW2 3010   1.971   2.558   0.957
  959SOL     OW 3011   2.294   2.385   1.268
  959SOL    HW1 3012   2.255   2.336   1.340
  959SOL    HW2 3013   2.253   2.472   1.272
  960SOL     OW 3014   2.981   1.584   0.194
  960SOL    HW1 3015   2.988   1.509   0.134
  960SOL    HW2 3016   3.021   1.553   0.275
  961SOL     OW 3017   2.634   0.153   2.481
  961SOL    HW1 3018   2.724   0.144   2.450
  961SOL    HW2 3019   2.596   0.066   2.470
  962SOL     OW 3020   2.730   3.162   1.429
  962SOL    HW1 3021   2.720   3.257   1.434
  962SOL    HW2 3022   2.694   3.139   1.343
  963SOL     OW 3023   0.976   0.755   1.419
  963SOL    HW1 3024   0.984   0.669   1.376
  963SOL    HW2 3025   1.036   0.811   1.369
  964SOL     OW 3026   2.060   3.897   0.124
  964SOL    HW1 3027   2.071   3.979   0.173
  964SOL    HW2 3028   2.111   3.909   0.045
  965SOL     OW 3029   0.267   3.194   1.743
  965SOL    HW1 3030   0.322   3.138   1.797
  965SOL    HW2 3031   0.268   3.152   1.657
  966SOL     OW 3032   1.658   0.754   3.703
  966SOL    HW1 3033   1.635   0.770   3.794
  966SOL    HW2 3034   1.747   0.789   3.694
  967SOL     OW 3035   3.981   0.245   1.406
  967SOL    HW1 3036   3.891   0.271   1.385
  967SOL    HW2 3037   3.972   0.176   1.471
  968SOL     OW 3038   0.335   3.798   3.959
  968SOL    HW1 3039   0.305   3.803   3.868
  968SOL    HW2 3040   0.429   3.820   3.954
  969SOL     OW 3041   1.108   3.629   0.247
  969SOL    HW1 3042   1.062   3.694   0.194
  969SOL    HW2 3043   1.045   3.557   0.256
  970SOL     OW 3044   1.116   1.167   2.529
  970SOL    HW1 3045   1.063   1.156   2.450
  970SOL    HW2 3046   1.087   1.249   2.567
  971SOL     OW 3047   3.656   2.133   3.823
  971SOL    HW1 3048   3.693   2.130   3.735
  971SOL    HW2 3049   3.632   2.042   3.842
  972SOL     OW 3050   0.932   2.374   2.858
  972SOL    HW1 3051   0.969   2.429   2.789
  972SOL    HW2 3052   0.887   2.304   2.811
  973SOL     OW 3053   0.051   1.504   2.937
  973SOL    HW1 3054   0.134   1.469   2.970
  973SOL    HW2 3055   0.076   1.583   2.889
  974SOL     OW 3056   0.134   1.742   2.814
  974SOL    HW1 3057   0.088   1.747   2.730
  974SOL    HW2 3058   0.199   1.812   2.810
  975SOL     OW 3059   3.156   1.519   0.748
  975SOL    HW1 3060   3.151   1.513   0.843
  975SOL    HW2 3061   3.128   1.608   0.728
  976SOL     OW 3062   2.199   3.006   0.612
  976SOL    HW1 3063   2.224   2.915   0.627
  976SOL    HW2 3064   2.248   3.056   0.678
  977SOL     OW 3065   0.048   1.885   2.109
  977SOL    HW1 3066   0.109   1.856   2.042
  977SOL    HW2 3067   0.049   1.980   2.104
  978SOL     OW 3068   2.646   3.558   0.308
  978SOL    HW1 3069   2.737   3.586   0.310
  978SOL    HW2 3070   2.619   3.555   0.400
  979SOL     OW 3071   1.582   0.450   2.006
  979SOL    HW1 3072   1.626   0.438   1.922
  979SOL    HW2 3073   1.613   0.378   2.061
  980SOL     OW 3074   2.770   2.537   2.356
  980SOL    HW1 3075   2.766   2.444   2.377
  980SOL    HW2 3076   2.783   2.580   2.441
  981SOL     OW 3077   1.805   2.496   2.437
  981SOL    HW1 3078   1.760   2.570   2.397
  981SOL    HW2 3079   1.790   2.423   2.376
  982SOL     OW 3080   3.258   1.834   0.213
  982SOL    HW1 3081   3.215   1.763   0.262
  982SOL    HW2 3082   3.186   1.887   0.181
  983SOL     OW 3083   3.902   3.421   3.003
  983SOL    HW1 3084   3.873   3.366   3.076
  983SOL    HW2 3085   3.839   3.494   3.002
  984SOL     OW 3086   1.526   3.732   2.688
  984SOL    HW1 3087   1.563   3.804   2.637
  984SOL    HW2 3088   1.436   3.725   2.658
  985SOL     OW 3089   0.912   3.357   2.521
  985SOL    HW1 3090   0.928   3.437   2.571
  985SOL    HW2 3091   0.820   3.336   2.540
  986SOL     OW 3092   2.322   3.801   3.480
  986SOL    HW1 3093   2.339   3.802   3.575
  986SOL    HW2 3094   2.339   3.891   3.452
  987SOL     OW 3095   1.933   3.153   0.360
  987SOL    HW1 3096   1.996   3.124   0.294
  987SOL    HW2 3097   1.915   3.075   0.412
  988SOL     OW 3098   2.090   1.100   1.886
  988SOL    HW1 3099   2.022   1.039   1.915
  988SOL    HW2 3100   2.042   1.173   1.847
  989SOL     OW 3101   1.994   0.747   3.170
  989SOL    HW1 3102   1.946   0.821   3.133
  989SOL    HW2 3103   1.933   0.708   3.233
  990SOL     OW 3104   1.604   2.413   3.642
  990SOL    HW1 3105   1.622   2.447   3.554
  990SOL    HW2 3106   1.567   2.326   3.627
  991SOL     OW 3107   3.165   2.554   1.909
  991SOL    HW1 3108   3.187   2.499   1.984
  991SOL    HW2 3109   3.073   2.535   1.892
  992SOL     OW 3110   0.688   0.451   1.207
  992SOL    HW1 3111   0.610   0.483   1.252
  992SOL    HW2 3112   0.703   0.364   1.244
  993SOL     OW 3113   2.928   2.739   1.442
  993SOL    HW1 3114   2.881   2.809   1.487
  993SOL    HW2 3115   3.016   2.773   1.428
  994SOL     OW 3116   3.834   2.525   3.115
  994SOL    HW1 3117   3.914   2.472   3.115
  994SOL    HW2 3118   3.789   2.501   3.034
  995SOL     OW 3119   2.601   3.391   0.055
  995SOL    HW1 3120   2.678   3.338   0.073
  995SOL    HW2 3121   2.595   3.452   0.128
  996SOL     OW 3122   1.620   3.224   0.233
  996SOL    HW1 3123   1.683   3.153   0.241
  996SOL    HW2 3124   1.669   3.295   0.191
  997SOL     OW 3125   3.526   1.929   0.213
  997SOL    HW1 3126   3.489   1.954   0.129
  997SOL    HW2 3127   3.451   1.913   0.270
  998SOL     OW 3128   0.473   3.931   3.545
  998SOL    HW1 3129   0.391   3.900   3.584
  998SOL    HW2 3130   0.530   3.948   3.619
  999SOL     OW 3131   2.126   2.305   3.791
  999SOL    HW1 3132   2.114   2.214   3.765
  999SOL    HW2 3133   2.164   2.348   3.714
 1000SOL     OW 3134   2.115   1.688   0.324
 1000SOL    HW1 3135   2.055   1.689   0.250
 1000SOL    HW2 3136   2.175   1.761   0.307
 1001SOL     OW 3137   1.251   0.594   1.005
 1001SOL    HW1 3138   1.279   0.639   0.925
 1001SOL    HW2 3139   1.164   0.561   0.985
 1002SOL     OW 3140   1.814   3.398   0.463
 1002SOL    HW1 3141   1.841   3.344   0.388
 1002SOL    HW2 3142   1.759   3.466   0.425
 1003SOL     OW 3143   3.489   1.443   1.979
 1003SOL    HW1 3144   3.470   1.442   1.885
 1003SOL    HW2 3145   3.438   1.517   2.013
 1004SOL     OW 3146   2.175   3.232   0.092
 1004SOL    HW1 3147   2.198   3.306   0.147
 1004SOL    HW2 3148   2.205   3.155   0.141
 1005SOL     OW 3149   2.229   2.977   3.735
 1005SOL    HW1 3150   2.229   2.895   3.686
 1005SOL    HW2 3151   2.216   3.045   3.669
 1006SOL     OW 3152   1.826   1.101   2.801
 1006SOL    HW1 3153   1.870   1.175   2.759
 1006SOL    HW2 3154   1.782   1.055   2.729
 1007SOL     OW 3155   1.228   2.547   3.187
 1007SOL    HW1 3156   1.315   2.580   3.209
 1007SOL    HW2 3157   1.169   2.619   3.207
 1008SOL     OW 3158   1.471   2.105   1.985
 1008SOL    HW1 3159   1.542   2.053   1.948
 1008SOL    HW2 3160   1.515   2.180   2.026
 1009SOL     OW 3161   3.351   0.896   0.667
 1009SOL    HW1 3162   3.390   0.813   0.644
 1009SOL    HW2 3163   3.319   0.884   0.756
 1010SOL     OW 3164   0.691   0.218   2.285
 1010SOL    HW1 3165   0.766   0.166   2.257
 1010SOL    HW2 3166   0.644   0.162   2.347
 1011SOL     OW 3167   0.158   3.220   2.959
 1011SOL    HW1 3168   0.122   3.148   2.907
 1011SOL    HW2 3169   0.085   3.282   2.969
 1012SOL     OW 3170   3.295   2.198   1.347
 1012SOL    HW1 3171   3.226   2.253   1.309
 1012SOL    HW2 3172   3.272   2.191   1.440
 1013SOL     OW 3173   2.168   0.368   2.676
 1013SOL    HW1 3174   2.253   0.327   2.690
 1013SOL    HW2 3175   2.153   0.360   2.582
 1014SOL     OW 3176   2.298   0.622   2.640
 1014SOL    HW1 3177   2.266   0.540   2.677
 1014SOL    HW2 3178   2.222   0.680   2.641
 1015SOL     OW 3179   0.037   2.029   0.379
 1015SOL    HW1 3180  -0.050   1.990   0.384
 1015SOL    HW2 3181   0.049   2.049   0.287
 1016SOL     OW 3182   2.684   0.054   2.128
 1016SOL    HW1 3183   2.717   0.099   2.051
 1016SOL    HW2 3184   2.743   0.081   2.199
 1017SOL     OW 3185   2.448   0.797   3.455
 1017SOL    HW1 3186   2.449   0.702   3.448
 1017SOL    HW2 3187   2.488   0.828   3.374
 1018SOL     OW 3188   0.818   0.460   3.727
 1018SOL    HW1 3189   0.775   0.380   3.700
 1018SOL    HW2 3190   0.890   0.431   3.783
 1019SOL     OW 3191   2.374   2.542   3.383
 1019SOL    HW1 3192   2.425   2.539   3.302
 1019SOL    HW2 3193   2.288   2.510   3.357
 1020SOL     OW 3194   1.640   2.250   2.365
 1020SOL    HW1 3195   1.705   2.197   2.319
 1020SOL    HW2 3196   1.560   2.198   2.361
 1021SOL     OW 3197   3.834   1.076   3.468
 1021SOL    HW1 3198   3.799   1.015   3.403
 1021SOL    HW2 3199   3.800   1.161   3.441
 1022SOL     OW 3200   1.173   0.273   1.217
 1022SOL    HW1 3201   1.214   0.204   1.164
 1022SOL    HW2 3202   1.102   0.307   1.161
 1023SOL     OW 3203   1.656   2.350   1.019
 1023SOL    HW1 3204   1.574   2.399   1.012
 1023SOL    HW2 3205   1.700   2.365   0.936
 1024SOL     OW 3206   3.672   1.538   1.419
 1024SOL    HW1 3207   3.729   1.615   1.412
 1024SOL    HW2 3208   3.608   1.550   1.348
 1025SOL     OW 3209   1.717   1.443   3.829
 1025SOL    HW1 3210   1.799   1.429   3.876
 1025SOL    HW2 3211   1.661   1.488   3.891
 1026SOL     OW 3212   2.405   3.671   1.571
 1026SOL    HW1 3213   2.332   3.610   1.584
 1026SOL    HW2 3214   2.424   3.704   1.659
 1027SOL     OW 3215   1.780   3.770   2.933
 1027SOL    HW1 3216   1.846   3.718   2.886
 1027SOL    HW2 3217   1.783   3.856   2.891
 1028SOL     OW 3218   3.796   1.082   1.794
 1028SOL    HW1 3219   3.793   0.987   1.779
 1028SOL    HW2 3220   3.881   1.109   1.761
 1029SOL     OW 3221   2.758   2.986   0.525
 1029SOL    HW1 3222   2.701   3.061   0.506
 1029SOL    HW2 3223   2.797   2.964   0.440
 1030SOL     OW 3224   1.225   0.775   0.337
 1030SOL    HW1 3225   1.180   0.693   0.357
 1030SOL    HW2 3226   1.264   0.803   0.420
 1031SOL     OW 3227   1.227   3.910   0.859
 1031SOL    HW1 3228   1.278   3.848   0.807
 1031SOL    HW2 3229   1.203   3.979   0.797
 1032SOL     OW 3230   1.495   0.857   2.934
 1032SOL    HW1 3231   1.563   0.922   2.952
 1032SOL    HW2 3232   1.446   0.850   3.016
 1033SOL     OW 3233   1.998   2.913   0.435
 1033SOL    HW1 3234   1.992   2.817   0.437
 1033SOL    HW2 3235   2.060   2.934   0.504
 1034SOL     OW 3236   0.189   1.740   0.191
 1034SOL    HW1 3237   0.161   1.733   0.283
 1034SOL    HW2 3238   0.113   1.712   0.141
 1035SOL     OW 3239   2.819   3.242   2.289
 1035SOL    HW1 3240   2.727   3.268   2.297
 1035SOL    HW2 3241   2.852   3.243   2.379
 1036SOL     OW 3242   1.593   1.487   0.711
 1036SOL    HW1 3243   1.529   1.513   0.645
 1036SOL    HW2 3244   1.565   1.530   0.791
 1037SOL     OW 3245   0.820   1.207   0.632
 1037SOL    HW1 3246   0.884   1.279   0.628
 1037SOL    HW2 3247   0.859   1.139   0.577
 1038SOL     OW 3248   2.058   2.045   3.714
 1038SOL    HW1 3249   2.133   1.999   3.752
 1038SOL    HW2 3250   2.019   1.982   3.654
 1039SOL     OW 3251   3.285   3.343   0.488
 1039SOL    HW1 3252   3.309   3.253   0.467
 1039SOL    HW2 3253   3.189   3.343   0.490
 1040SOL     OW 3254   1.466   0.112   2.798
 1040SOL    HW1 3255   1.445   0.157   2.716
 1040SOL    HW2 3256   1.537   0.164   2.836
 1041SOL     OW 3257   3.537   3.882   1.393
 1041SOL    HW1 3258   3.449   3.850   1.372
 1041SOL    HW2 3259   3.522   3.964   1.440
 1042SOL     OW 3260   3.222   3.189   2.378
 1042SOL    HW1 3261   3.207   3.223   2.291
 1042SOL    HW2 3262   3.195   3.259   2.437
 1043SOL     OW 3263   0.091   1.926   1.748
 1043SOL    HW1 3264   0.009   1.879   1.761
 1043SOL    HW2 3265   0.158   1.857   1.746
 1044SOL     OW 3266   2.357   2.783   0.615
 1044SOL    HW1 3267   2.341   2.706   0.560
 1044SOL    HW2 3268   2.448   2.807   0.596
 1045SOL     OW 3269   0.723   3.024   2.831
 1045SOL    HW1 3270   0.817   3.013   2.846
 1045SOL    HW2 3271   0.694   3.083   2.900
 1046SOL     OW 3272   3.474   2.749   2.503
 1046SOL    HW1 3273   3.476   2.767   2.597
 1046SOL    HW2 3274   3.416   2.816   2.467
 1047SOL     OW 3275   1.659   3.937   2.503
 1047SOL    HW1 3276   1.733   3.934   2.563
 1047SOL    HW2 3277   1.594   3.990   2.548
 1048SOL     OW 3278   3.447   1.519   1.300
 1048SOL    HW1 3279   3.355   1.541   1.318
 1048SOL    HW2 3280   3.447   1.424   1.291
 1049SOL     OW 3281   1.415   3.106   1.253
 1049SOL    HW1 3282   1.331   3.150   1.267
 1049SOL    HW2 3283   1.479   3.176   1.255
 1050SOL     OW 3284   1.409   1.574   0.547
 1050SOL    HW1 3285   1.348   1.555   0.476
 1050SOL    HW2 3286   1.444   1.661   0.525
 1051SOL     OW 3287   1.140   3.377   1.743
 1051SOL    HW1 3288   1.141   3.444   1.675
 1051SOL    HW2 3289   1.061   3.395   1.794
 1052SOL     OW 3290   2.760   0.910   0.743
 1052SOL    HW1 3291   2.814   0.858   0.802
 1052SOL    HW2 3292   2.823   0.948   0.681
 1053SOL     OW 3293   0.013   0.695   2.947
 1053SOL    HW1 3294   0.105   0.696   2.917
 1053SOL    HW2 3295   0.018   0.718   3.039
 1054SOL     OW 3296   2.344   2.076   0.486
 1054SOL    HW1 3297   2.367   2.002   0.430
 1054SOL    HW2 3298   2.249   2.078   0.486
 1055SOL     OW 3299   1.930   3.546   3.800
 1055SOL    HW1 3300   1.993   3.591   3.744
 1055SOL    HW2 3301   1.953   3.453   3.793
 1056SOL     OW 3302   0.848   0.528   2.719
 1056SOL    HW1 3303   0.889   0.456   2.671
 1056SOL    HW2 3304   0.775   0.486   2.765
 1057SOL     OW 3305   1.543   2.895   2.956
 1057SOL    HW1 3306   1.604   2.881   2.884
 1057SOL    HW2 3307   1.525   2.989   2.954
 1058SOL     OW 3308   0.976   1.867   3.101
 1058SOL    HW1 3309   0.904   1.930   3.101
 1058SOL    HW2 3310   1.011   1.870   3.190
 1059SOL     OW 3311   0.865   2.421   0.949
 1059SOL    HW1 3312   0.910   2.504   0.963
 1059SOL    HW2 3313   0.908   2.384   0.871
 1060SOL     OW 3314  -0.026   2.195   2.330
 1060SOL    HW1 3315   0.059   2.166   2.364
 1060SOL    HW2 3316  -0.029   2.161   2.241
 1061SOL     OW 3317   3.443   3.063   3.703
 1061SOL    HW1 3318   3.491   2.984   3.680
 1061SOL    HW2 3319   3.475   3.085   3.791
 1062SOL     OW 3320   3.257   3.282   3.595
 1062SOL    HW1 3321   3.251   3.275   3.500
 1062SOL    HW2 3322   3.303   3.202   3.622
 1063SOL     OW 3323   1.358   1.761   2.731
 1063SOL    HW1 3324   1.449   1.762   2.762
 1063SOL    HW2 3325   1.306   1.770   2.811
 1064SOL     OW 3326   2.875   0.391   1.531
 1064SOL    HW1 3327   2.841   0.479   1.517
 1064SOL    HW2 3328   2.969   0.398   1.515
 1065SOL     OW 3329   1.217   2.929   3.012
 1065SOL    HW1 3330   1.291   2.875   3.040
 1065SOL    HW2 3331   1.167   2.944   3.092
 1066SOL     OW 3332   3.105   2.025   0.078
 1066SOL    HW1 3333   3.037   1.959   0.094
 1066SOL    HW2 3334   3.080   2.065  -0.005
 1067SOL     OW 3335   0.683   3.874   1.357
 1067SOL    HW1 3336   0.739   3.951   1.360
 1067SOL    HW2 3337   0.656   3.868   1.265
 1068SOL     OW 3338   3.135   3.785   3.353
 1068SOL    HW1 3339   3.107   3.825   3.435
 1068SOL    HW2 3340   3.093   3.838   3.285
 1069SOL     OW 3341   0.600   3.938   1.819
 1069SOL    HW1 3342   0.599   3.868   1.754
 1069SOL    HW2 3343   0.669   3.997   1.791
 1070SOL     OW 3344   2.111   2.239   1.793
 1070SOL    HW1 3345   2.135   2.146   1.795
 1070SOL    HW2 3346   2.189   2.284   1.826
 1071SOL     OW 3347   0.403   3.395   3.086
 1071SOL    HW1 3348   0.322   3.382   3.134
 1071SOL    HW2 3349   0.376   3.422   2.998
 1072SOL     OW 3350   1.249   1.649   3.405
 1072SOL    HW1 3351   1.163   1.609   3.416
 1072SOL    HW2 3352   1.265   1.694   3.488
 1073SOL     OW 3353   3.130   2.434   1.602
 1073SOL    HW1 3354   3.191   2.364   1.625
 1073SOL    HW2 3355   3.184   2.512   1.595
 1074SOL     OW 3356   0.074   3.153   2.564
 1074SOL    HW1 3357   0.078   3.077   2.622
 1074SOL    HW2 3358  -0.014   3.150   2.527
 1075SOL     OW 3359   3.676   1.004   0.895
 1075SOL    HW1 3360   3.749   0.941   0.897
 1075SOL    HW2 3361   3.657   1.015   0.802
 1076SOL     OW 3362   0.781   1.748   1.073
 1076SOL    HW1 3363   0.718   1.800   1.122
 1076SOL    HW2 3364   0.866   1.774   1.108
 1077SOL     OW 3365   1.646   1.672   2.073
 1077SOL    HW1 3366   1.634   1.749   2.127
 1077SOL    HW2 3367   1.584   1.608   2.107
 1078SOL     OW 3368   0.560   2.698   1.609
 1078SOL    HW1 3369   0.509   2.697   1.689
 1078SOL    HW2 3370   0.552   2.609   1.574
 1079SOL     OW 3371   0.238   0.214   3.046
 1079SOL    HW1 3372   0.256   0.183   2.957
 1079SOL    HW2 3373   0.315   0.191   3.097
 1080SOL     OW 3374   3.848   3.895   3.945
 1080SOL    HW1 3375   3.868   3.823   3.885
 1080SOL    HW2 3376   3.905   3.879   4.020
 1081SOL     OW 3377   2.701   0.707   3.789
 1081SOL    HW1 3378   2.678   0.688   3.880
 1081SOL    HW2 3379   2.644   0.650   3.738
 1082SOL     OW 3380   3.361   2.671   3.005
 1082SOL    HW1 3381   3.429   2.679   2.938
 1082SOL    HW2 3382   3.279   2.687   2.959
 1083SOL     OW 3383   2.088   3.918   2.245
 1083SOL    HW1 3384   1.999   3.891   2.224
 1083SOL    HW2 3385   2.094   4.008   2.213
 1084SOL     OW 3386   3.448   0.443   3.956
 1084SOL    HW1 3387   3.368   0.492   3.978
 1084SOL    HW2 3388   3.428   0.403   3.871
 1085SOL     OW 3389   2.430   3.604   2.748
 1085SOL    HW1 3390   2.367   3.582   2.679
 1085SOL    HW2 3391   2.395   3.685   2.787
 1086SOL     OW 3392   3.202   3.924   2.895
 1086SOL    HW1 3393   3.126   3.925   2.836
 1086SOL    HW2 3394   3.249   4.005   2.874
 1087SOL     OW 3395   1.309   0.988   1.942
 1087SOL    HW1 3396   1.342   0.927   2.008
 1087SOL    HW2 3397   1.383   1.046   1.923
 1088SOL     OW 3398   1.677   2.789   1.132
 1088SOL    HW1 3399   1.649   2.842   1.057
 1088SOL    HW2 3400   1.712   2.709   1.093
 1089SOL     OW 3401   2.091   3.681   2.410
 1089SOL    HW1 3402   2.049   3.602   2.378
 1089SOL    HW2 3403   2.088   3.742   2.336
 1090SOL     OW 3404   0.886   0.068   1.255
 1090SOL    HW1 3405   0.937   0.027   1.185
 1090SOL    HW2 3406   0.951   0.105   1.314
 1091SOL     OW 3407   3.732   3.540   3.576
 1091SOL    HW1 3408   3.690   3.459   3.547
 1091SOL    HW2 3409   3.770   3.577   3.496
 1092SOL     OW 3410   1.221   3.115   3.245
 1092SOL    HW1 3411   1.148   3.165   3.209
 1092SOL    HW2 3412   1.249   3.164   3.322
 1093SOL     OW 3413   3.312   1.872   2.174
 1093SOL    HW1 3414   3.358   1.953   2.197
 1093SOL    HW2 3415   3.353   1.843   2.093
 1094SOL     OW 3416   2.852   3.503   3.911
 1094SOL    HW1 3417   2.919   3.508   3.980
 1094SOL    HW2 3418   2.771   3.486   3.958
 1095SOL     OW 3419   2.944   1.778   3.011
 1095SOL    HW1 3420   2.850   1.788   2.995
 1095SOL    HW2 3421   2.980   1.751   2.927
 1096SOL     OW 3422   3.296   2.520   1.333
 1096SOL    HW1 3423   3.289   2.554   1.244
 1096SOL    HW2 3424   3.243   2.440   1.332
 1097SOL     OW 3425   0.085   2.243   1.324
 1097SOL    HW1 3426  -0.008   2.226   1.340
 1097SOL    HW2 3427   0.125   2.241   1.411
 1098SOL     OW 3428   0.318   0.892   3.015
 1098SOL    HW1 3429   0.256   0.919   2.948
 1098SOL    HW2 3430   0.399   0.874   2.968
 1099SOL     OW 3431   2.554   3.185   1.945
 1099SOL    HW1 3432   2.485   3.208   2.008
 1099SOL    HW2 3433   2.507   3.170   1.863
 1100SOL     OW 3434   3.376   1.660   1.650
 1100SOL    HW1 3435   3.325   1.731   1.689
 1100SOL    HW2 3436   3.381   1.682   1.557
 1101SOL     OW 3437   1.435   1.497   1.974
 1101SOL    HW1 3438   1.497   1.425   1.987
 1101SOL    HW2 3439   1.428   1.506   1.879
 1102SOL     OW 3440   3.057   0.845   2.691
 1102SOL    HW1 3441   3.113   0.823   2.766
 1102SOL    HW2 3442   3.097   0.799   2.617
 1103SOL     OW 3443   1.947   3.223   3.475
 1103SOL    HW1 3444   1.969   3.300   3.423
 1103SOL    HW2 3445   1.984   3.149   3.426
 1104SOL     OW 3446   3.648   0.540   1.562
 1104SOL    HW1 3447   3.717   0.575   1.507
 1104SOL    HW2 3448   3.567   0.563   1.516
 1105SOL     OW 3449   1.905   2.095   1.475
 1105SOL    HW1 3450   1.889   2.054   1.561
 1105SOL    HW2 3451   1.823   2.083   1.428
 1106SOL     OW 3452   2.629   2.830   2.582
 1106SOL    HW1 3453   2.614   2.919   2.550
 1106SOL    HW2 3454   2.548   2.806   2.627
 1107SOL     OW 3455   0.411   3.856   2.812
 1107SOL    HW1 3456   0.451   3.930   2.857
 1107SOL    HW2 3457   0.335   3.893   2.767
 1108SOL     OW 3458   0.785   0.788   3.290
 1108SOL    HW1 3459   0.730   0.856   3.329
 1108SOL    HW2 3460   0.817   0.737   3.365
 1109SOL     OW 3461   0.656   1.928   1.253
 1109SOL    HW1 3462   0.600   1.989   1.301
 1109SOL    HW2 3463   0.745   1.962   1.266
 1110SOL     OW 3464   2.195   1.506   3.712
 1110SOL    HW1 3465   2.119   1.519   3.656
 1110SOL    HW2 3466   2.170   1.436   3.772
 1111SOL     OW 3467   2.196   0.909   3.444
 1111SOL    HW1 3468   2.276   0.857   3.447
 1111SOL    HW2 3469   2.191   0.940   3.353
 1112SOL     OW 3470   2.464   1.703   1.603
 1112SOL    HW1 3471   2.441   1.685   1.512
 1112SOL    HW2 3472   2.506   1.622   1.633
 1113SOL     OW 3473   2.954   3.173   1.035
 1113SOL    HW1 3474   2.968   3.208   1.123
 1113SOL    HW2 3475   2.938   3.250   0.980
 1114SOL     OW 3476   1.489   1.931   1.575
 1114SOL    HW1 3477   1.488   1.998   1.506
 1114SOL    HW2 3478   1.401   1.892   1.571
 1115SOL     OW 3479   1.173   2.555   1.804
 1115SOL    HW1 3480   1.221   2.515   1.731
 1115SOL    HW2 3481   1.148   2.641   1.771
 1116SOL     OW 3482   1.993   2.873   2.705
 1116SOL    HW1 3483   1.968   2.798   2.651
 1116SOL    HW2 3484   2.057   2.921   2.652
 1117SOL     OW 3485   3.438   3.286   0.119
 1117SOL    HW1 3486   3.452   3.283   0.214
 1117SOL    HW2 3487   3.440   3.194   0.092
 1118SOL     OW 3488   1.773   1.784   1.546
 1118SOL    HW1 3489   1.708   1.814   1.610
 1118SOL    HW2 3490   1.853   1.833   1.569
 1119SOL     OW 3491   3.841   2.553   0.402
 1119SOL    HW1 3492   3.857   2.493   0.474
 1119SOL    HW2 3493   3.863   2.639   0.437
 1120SOL     OW 3494   3.440   2.916   1.798
 1120SOL    HW1 3495   3.500   2.852   1.760
 1120SOL    HW2 3496   3.480   2.940   1.882
 1121SOL     OW 3497   0.065   1.292   2.418
 1121SOL    HW1 3498  -0.023   1.278   2.453
 1121SOL    HW2 3499   0.061   1.379   2.378
 1122SOL     OW 3500   1.543   1.604   0.943
 1122SOL    HW1 3501   1.601   1.603   1.019
 1122SOL    HW2 3502   1.533   1.697   0.922
 1123SOL     OW 3503   1.284   0.403   2.611
 1123SOL    HW1 3504   1.194   0.422   2.584
 1123SOL    HW2 3505   1.318   0.488   2.640
 1124SOL     OW 3506   3.552   2.242   1.305
 1124SOL    HW1 3507   3.546   2.238   1.400
 1124SOL    HW2 3508   3.470   2.203   1.274
 1125SOL     OW 3509   1.161   3.228   1.266
 1125SOL    HW1 3510   1.177   3.282   1.188
 1125SOL    HW2 3511   1.102   3.280   1.320
 1126SOL     OW 3512   2.802   3.391   0.947
 1126SOL    HW1 3513   2.773   3.345   0.868
 1126SOL    HW2 3514   2.748   3.470   0.950
 1127SOL     OW 3515   0.268   0.452   1.810
 1127SOL    HW1 3516   0.204   0.500   1.862
 1127SOL    HW2 3517   0.343   0.439   1.870
 1128SOL     OW 3518   3.188   3.260   2.809
 1128SOL    HW1 3519   3.147   3.198   2.749
 1128SOL    HW2 3520   3.279   3.266   2.779
 1129SOL     OW 3521   3.520   1.627   3.778
 1129SOL    HW1 3522   3.473   1.649   3.858
 1129SOL    HW2 3523   3.458   1.576   3.726
 1130SOL     OW 3524   3.041   3.563   3.703
 1130SOL    HW1 3525   2.964   3.528   3.748
 1130SOL    HW2 3526   3.010   3.582   3.614
 1131SOL     OW 3527   1.868   2.378   1.807
 1131SOL    HW1 3528   1.941   2.316   1.806
 1131SOL    HW2 3529   1.830   2.372   1.720
 1132SOL     OW 3530   2.231   3.418   1.544
 1132SOL    HW1 3531   2.214   3.430   1.638
 1132SOL    HW2 3532   2.227   3.323   1.531
 1133SOL     OW 3533   2.132   1.701   3.391
 1133SOL    HW1 3534   2.094   1.672   3.309
 1133SOL    HW2 3535   2.164   1.620   3.432
 1134SOL     OW 3536   2.238   1.016   2.108
 1134SOL    HW1 3537   2.201   1.075   2.174
 1134SOL    HW2 3538   2.178   1.024   2.033
 1135SOL     OW 3539   3.790   2.600   1.447
 1135SOL    HW1 3540   3.739   2.521   1.464
 1135SOL    HW2 3541   3.863   2.571   1.393
 1136SOL     OW 3542   2.686   1.802   3.014
 1136SOL    HW1 3543   2.667   1.714   3.047
 1136SOL    HW2 3544   2.606   1.827   2.967
 1137SOL     OW 3545   2.435   2.341   2.976
 1137SOL    HW1 3546   2.423   2.415   3.035
 1137SOL    HW2 3547   2.405   2.373   2.891
 1138SOL     OW 3548   3.345   0.201   2.742
 1138SOL    HW1 3549   3.400   0.235   2.813
 1138SOL    HW2 3550   3.376   0.247   2.664
 1139SOL     OW 3551   2.082   2.506   0.401
 1139SOL    HW1 3552   2.007   2.450   0.423
 1139SOL    HW2 3553   2.046   2.595   0.399
 1140SOL     OW 3554   1.435   3.404   3.335
 1140SOL    HW1 3555   1.369   3.346   3.374
 1140SOL    HW2 3556   1.516   3.383   3.381
 1141SOL     OW 3557   2.576   0.959   2.306
 1141SOL    HW1 3558   2.595   0.933   2.396
 1141SOL    HW2 3559   2.661   0.979   2.268
 1142SOL     OW 3560   2.446   1.179   2.093
 1142SOL    HW1 3561   2.386   1.253   2.084
 1142SOL    HW2 3562   2.389   1.102   2.099
 1143SOL     OW 3563   1.421   3.637   3.162
 1143SOL    HW1 3564   1.392   3.564   3.217
 1143SOL    HW2 3565   1.394   3.613   3.073
 1144SOL     OW 3566   0.397   3.736   1.179
 1144SOL    HW1 3567   0.469   3.765   1.123
 1144SOL    HW2 3568   0.369   3.653   1.141
 1145SOL     OW 3569   0.471   0.981   2.381
 1145SOL    HW1 3570   0.375   0.990   2.384
 1145SOL    HW2 3571   0.499   1.043   2.314
 1146SOL     OW 3572   1.651   3.157   2.632
 1146SOL    HW1 3573   1.683   3.079   2.678
 1146SOL    HW2 3574   1.584   3.193   2.690
 1147SOL     OW 3575   3.607   1.045   1.579
 1147SOL    HW1 3576   3.599   1.057   1.673
 1147SOL    HW2 3577   3.645   1.127   1.547
 1148SOL     OW 3578   1.287   0.505   1.944
 1148SOL    HW1 3579   1.327   0.548   1.868
 1148SOL    HW2 3580   1.359   0.496   2.007
 1149SOL     OW 3581   3.357   0.810   2.249
 1149SOL    HW1 3582   3.336   0.900   2.223
 1149SOL    HW2 3583   3.338   0.757   2.172
 1150SOL     OW 3584   1.743   1.227   1.069
 1150SOL    HW1 3585   1.662   1.274   1.091
 1150SOL    HW2 3586   1.754   1.164   1.140
 1151SOL     OW 3587   1.223   0.125   3.516
 1151SOL    HW1 3588   1.266   0.091   3.437
 1151SOL    HW2 3589   1.291   0.125   3.583
 1152SOL     OW 3590   3.019   1.817   3.673
 1152SOL    HW1 3591   2.938   1.780   3.639
 1152SOL    HW2 3592   2.990   1.889   3.730
 1153SOL     OW 3593   2.790   2.607   3.026
 1153SOL    HW1 3594   2.737   2.587   2.948
 1153SOL    HW2 3595   2.761   2.695   3.052
 1154SOL     OW 3596   2.258   2.537   2.457
 1154SOL    HW1 3597   2.183   2.478   2.449
 1154SOL    HW2 3598   2.275   2.566   2.368
 1155SOL     OW 3599   2.917   3.783   2.372
 1155SOL    HW1 3600   2.924   3.727   2.295
 1155SOL    HW2 3601   2.987   3.847   2.363
 1156SOL     OW 3602   2.819   2.929   1.576
 1156SOL    HW1 3603   2.787   3.008   1.533
 1156SOL    HW2 3604   2.834   2.955   1.667
 1157SOL     OW 3605   3.692   3.324   0.303
 1157SOL    HW1 3606   3.684   3.229   0.294
 1157SOL    HW2 3607   3.747   3.351   0.230
 1158SOL     OW 3608   0.931   0.266   2.639
 1158SOL    HW1 3609   1.000   0.218   2.594
 1158SOL    HW2 3610   0.922   0.223   2.723
 1159SOL     OW 3611   1.207   1.281   2.874
 1159SOL    HW1 3612   1.162   1.199   2.849
 1159SOL    HW2 3613   1.163   1.349   2.822
 1160SOL     OW 3614   1.493   3.051   1.824
 1160SOL    HW1 3615   1.476   3.013   1.910
 1160SOL    HW2 3616   1.455   3.139   1.828
 1161SOL     OW 3617   3.597   0.606   3.360
 1161SOL    HW1 3618   3.610   0.641   3.448
 1161SOL    HW2 3619   3.683   0.615   3.318
 1162SOL     OW 3620   2.755   0.201   1.897
 1162SOL    HW1 3621   2.702   0.156   1.832
 1162SOL    HW2 3622   2.742   0.294   1.879
 1163SOL     OW 3623   3.324   2.646   1.696
 1163SOL    HW1 3624   3.294   2.628   1.785
 1163SOL    HW2 3625   3.261   2.710   1.662
 1164SOL     OW 3626   3.090   2.016   3.022
 1164SOL    HW1 3627   3.171   1.987   3.062
 1164SOL    HW2 3628   3.039   1.936   3.009
 1165SOL     OW 3629   0.073   0.157   2.103
 1165SOL    HW1 3630   0.166   0.146   2.083
 1165SOL    HW2 3631   0.036   0.199   2.025
 1166SOL     OW 3632   1.738   2.533   2.760
 1166SOL    HW1 3633   1.781   2.572   2.683
 1166SOL    HW2 3634   1.645   2.547   2.745
 1167SOL     OW 3635   0.854   0.778   0.353
 1167SOL    HW1 3636   0.809   0.706   0.308
 1167SOL    HW2 3637   0.799   0.854   0.335
 1168SOL     OW 3638   3.669   1.381   2.405
 1168SOL    HW1 3639   3.699   1.452   2.347
 1168SOL    HW2 3640   3.613   1.327   2.349
 1169SOL     OW 3641   3.407   0.687   1.954
 1169SOL    HW1 3642   3.482   0.632   1.932
 1169SOL    HW2 3643   3.403   0.752   1.883
 1170SOL     OW 3644   3.898   3.701   3.760
 1170SOL    HW1 3645   3.950   3.638   3.809
 1170SOL    HW2 3646   3.838   3.648   3.707
 1171SOL     OW 3647   1.703   2.340   0.127
 1171SOL    HW1 3648   1.717   2.370   0.037
 1171SOL    HW2 3649   1.608   2.341   0.139
 1172SOL     OW 3650   0.693   0.032   3.739
 1172SOL    HW1 3651   0.664  -0.038   3.797
 1172SOL    HW2 3652   0.735   0.096   3.797
 1173SOL     OW 3653   2.120   1.257   2.896
 1173SOL    HW1 3654   2.149   1.167   2.910
 1173SOL    HW2 3655   2.121   1.297   2.983
 1174SOL     OW 3656   1.791   2.124   0.962
 1174SOL    HW1 3657   1.744   2.194   1.008
 1174SOL    HW2 3658   1.772   2.046   1.013
 1175SOL     OW 3659   2.594   1.906   1.344
 1175SOL    HW1 3660   2.506   1.925   1.312
 1175SOL    HW2 3661   2.614   1.976   1.406
 1176SOL     OW 3662   1.251   3.885   0.353
 1176SOL    HW1 3663   1.243   3.813   0.291
 1176SOL    HW2 3664   1.214   3.961   0.307
 1177SOL     OW 3665   0.452   3.640   2.043
 1177SOL    HW1 3666   0.382   3.592   1.997
 1177SOL    HW2 3667   0.442   3.731   2.013
 1178SOL     OW 3668   0.865   1.927   1.693
 1178SOL    HW1 3669   0.918   1.901   1.768
 1178SOL    HW2 3670   0.782   1.956   1.730
 1179SOL     OW 3671   2.916   3.706   0.469
 1179SOL    HW1 3672   2.904   3.679   0.560
 1179SOL    HW2 3673   2.931   3.624   0.421
 1180SOL     OW 3674   0.110   0.992   3.528
 1180SOL    HW1 3675   0.107   0.953   3.616
 1180SOL    HW2 3676   0.031   1.046   3.523
 1181SOL     OW 3677   0.629   3.871   3.117
 1181SOL    HW1 3678   0.566   3.929   3.075
 1181SOL    HW2 3679   0.710   3.883   3.068
 1182SOL     OW 3680   0.969   0.618   0.820
 1182SOL    HW1 3681   0.881   0.611   0.783
 1182SOL    HW2 3682   0.975   0.709   0.848
 1183SOL     OW 3683   3.244   0.109   0.161
 1183SOL    HW1 3684   3.300   0.046   0.115
 1183SOL    HW2 3685   3.185   0.055   0.213
 1184SOL     OW 3686   1.231   1.848   0.755
 1184SOL    HW1 3687   1.316   1.855   0.710
 1184SOL    HW2 3688   1.196   1.937   0.753
 1185SOL     OW 3689   2.449   3.090   2.739
 1185SOL    HW1 3690   2.502   3.099   2.660
 1185SOL    HW2 3691   2.425   3.180   2.762
 1186SOL     OW 3692   0.706   3.404   0.895
 1186SOL    HW1 3693   0.663   3.437   0.817
 1186SOL    HW2 3694   0.787   3.364   0.863
 1187SOL     OW 3695   0.518   3.038   1.677
 1187SOL    HW1 3696   0.609   3.055   1.651
 1187SOL    HW2 3697   0.470   3.034   1.594
 1188SOL     OW 3698   3.674   3.536   3.205
 1188SOL    HW1 3699   3.615   3.462   3.190
 1188SOL    HW2 3700   3.615   3.609   3.227
 1189SOL     OW 3701   3.948   1.267   1.263
 1189SOL    HW1 3702   3.883   1.250   1.195
 1189SOL    HW2 3703   3.982   1.355   1.243
 1190SOL     OW 3704   0.551   3.396   3.306
 1190SOL    HW1 3705   0.484   3.394   3.238
 1190SOL    HW2 3706   0.585   3.486   3.304
 1191SOL     OW 3707   0.241   2.393   2.935
 1191SOL    HW1 3708   0.166   2.377   2.991
 1191SOL    HW2 3709   0.306   2.435   2.992
 1192SOL     OW 3710   1.670   3.883   3.738
 1192SOL    HW1 3711   1.714   3.879   3.823
 1192SOL    HW2 3712   1.740   3.869   3.674
 1193SOL     OW 3713   3.143   0.458   1.505
 1193SOL    HW1 3714   3.163   0.429   1.416
 1193SOL    HW2 3715   3.188   0.542   1.513
 1194SOL     OW 3716   2.737   1.523   1.449
 1194SOL    HW1 3717   2.683   1.444   1.437
 1194SOL    HW2 3718   2.694   1.590   1.396
 1195SOL     OW 3719   1.156   3.581   1.522
 1195SOL    HW1 3720   1.106   3.558   1.444
 1195SOL    HW2 3721   1.236   3.530   1.515
 1196SOL     OW 3722   0.299   1.430   3.016
 1196SOL    HW1 3723   0.321   1.378   2.938
 1196SOL    HW2 3724   0.326   1.376   3.090
 1197SOL     OW 3725   1.199   1.161   3.656
 1197SOL    HW1 3726   1.203   1.081   3.708
 1197SOL    HW2 3727   1.284   1.166   3.613
 1198SOL     OW 3728   0.897   0.305   0.860
 1198SOL    HW1 3729   0.871   0.277   0.948
 1198SOL    HW2 3730   0.922   0.397   0.871
 1199SOL     OW 3731   0.108   2.825   0.192
 1199SOL    HW1 3732   0.156   2.887   0.248
 1199SOL    HW2 3733   0.176   2.769   0.155
 1200SOL     OW 3734   2.554   1.452   1.717
 1200SOL    HW1 3735   2.512   1.401   1.648
 1200SOL    HW2 3736   2.631   1.400   1.742
 1201SOL     OW 3737   2.359   2.724   1.717
 1201SOL    HW1 3738   2.380   2.760   1.631
 1201SOL    HW2 3739   2.380   2.631   1.709
 1202SOL     OW 3740   1.801   3.485   0.093
 1202SOL    HW1 3741   1.876   3.530   0.134
 1202SOL    HW2 3742   1.800   3.519   0.004
 1203SOL     OW 3743   1.231   3.180   2.114
 1203SOL    HW1 3744   1.308   3.234   2.097
 1203SOL    HW2 3745   1.216   3.133   2.032
 1204SOL     OW 3746   1.842   1.103   2.195
 1204SOL    HW1 3747   1.750   1.084   2.211
 1204SOL    HW2 3748   1.877   1.023   2.157
 1205SOL     OW 3749   2.625   1.888   2.490
 1205SOL    HW1 3750   2.546   1.918   2.444
 1205SOL    HW2 3751   2.654   1.812   2.439
 1206SOL     OW 3752   3.513   1.863   2.539
 1206SOL    HW1 3753   3.424   1.827   2.543
 1206SOL    HW2 3754   3.501   1.958   2.538
 1207SOL     OW 3755   3.772   0.273   2.122
 1207SOL    HW1 3756   3.859   0.233   2.133
 1207SOL    HW2 3757   3.747   0.249   2.032
 1208SOL     OW 3758   2.789   1.649   3.608
 1208SOL    HW1 3759   2.770   1.570   3.558
 1208SOL    HW2 3760   2.751   1.720   3.557
 1209SOL     OW 3761   1.635   3.057   0.571
 1209SOL    HW1 3762   1.650   3.151   0.558
 1209SOL    HW2 3763   1.707   3.029   0.628
 1210SOL     OW 3764   2.905   1.234   0.305
 1210SOL    HW1 3765   2.940   1.180   0.235
 1210SOL    HW2 3766   2.828   1.277   0.267
 1211SOL     OW 3767   0.874   3.289   0.720
 1211SOL    HW1 3768   0.796   3.262   0.670
 1211SOL    HW2 3769   0.941   3.302   0.653
 1212SOL     OW 3770   0.081   2.073   3.758
 1212SOL    HW1 3771   0.172   2.069   3.728
 1212SOL    HW2 3772   0.030   2.074   3.677
 1213SOL     OW 3773   3.652   3.591   3.948
 1213SOL    HW1 3774   3.638   3.666   3.891
 1213SOL    HW2 3775   3.617   3.516   3.899
 1214SOL     OW 3776   3.680   2.080   0.885
 1214SOL    HW1 3777   3.591   2.108   0.907
 1214SOL    HW2 3778   3.732   2.109   0.960
 1215SOL     OW 3779   1.213   2.487   2.320
 1215SOL    HW1 3780   1.140   2.430   2.296
 1215SOL    HW2 3781   1.172   2.561   2.365
 1216SOL     OW 3782   1.553   1.028   3.330
 1216SOL    HW1 3783   1.560   0.949   3.383
 1216SOL    HW2 3784   1.483   1.009   3.267
 1217SOL     OW 3785   0.130   3.925   0.148
 1217SOL    HW1 3786   0.169   3.942   0.234
 1217SOL    HW2 3787   0.204   3.909   0.090
 1218SOL     OW 3788   2.666   1.505   1.173
 1218SOL    HW1 3789   2.744   1.543   1.132
 1218SOL    HW2 3790   2.615   1.470   1.100
 1219SOL     OW 3791   2.391   1.580   0.990
 1219SOL    HW1 3792   2.350   1.621   0.914
 1219SOL    HW2 3793   2.318   1.560   1.049
 1220SOL     OW 3794   2.240   3.109   1.504
 1220SOL    HW1 3795   2.147   3.122   1.523
 1220SOL    HW2 3796   2.243   3.097   1.409
 1221SOL     OW 3797   2.760   1.796   0.875
 1221SOL    HW1 3798   2.837   1.744   0.899
 1221SOL    HW2 3799   2.697   1.731   0.844
 1222SOL     OW 3800   3.591   1.762   3.350
 1222SOL    HW1 3801   3.586   1.850   3.313
 1222SOL    HW2 3802   3.625   1.775   3.438
 1223SOL     OW 3803   3.634   3.083   1.982
 1223SOL    HW1 3804   3.685   3.131   2.048
 1223SOL    HW2 3805   3.570   3.147   1.952
 1224SOL     OW 3806   2.135   3.583   1.150
 1224SOL    HW1 3807   2.201   3.614   1.211
 1224SOL    HW2 3808   2.094   3.662   1.115
 1225SOL     OW 3809   0.386   3.337   0.330
 1225SOL    HW1 3810   0.472   3.361   0.366
 1225SOL    HW2 3811   0.364   3.408   0.269
 1226SOL     OW 3812   3.332   0.743   3.745
 1226SOL    HW1 3813   3.339   0.837   3.729
 1226SOL    HW2 3814   3.419   0.717   3.776
 1227SOL     OW 3815   0.790   0.930   2.559
 1227SOL    HW1 3816   0.745   0.863   2.611
 1227SOL    HW2 3817   0.767   0.908   2.468
 1228SOL     OW 3818   2.957   2.279   2.340
 1228SOL    HW1 3819   3.017   2.245   2.406
 1228SOL    HW2 3820   2.873   2.285   2.384
 1229SOL     OW 3821   3.804   2.866   0.129
 1229SOL    HW1 3822   3.741   2.797   0.148
 1229SOL    HW2 3823   3.889   2.822   0.132
 1230SOL     OW 3824   2.114   3.136   2.176
 1230SOL    HW1 3825   2.116   3.061   2.116
 1230SOL    HW2 3826   2.055   3.109   2.247
 1231SOL     OW 3827   3.625   2.908   2.762
 1231SOL    HW1 3828   3.603   2.815   2.752
 1231SOL    HW2 3829   3.550   2.945   2.808
 1232SOL     OW 3830   3.609   1.842   0.800
 1232SOL    HW1 3831   3.524   1.856   0.843
 1232SOL    HW2 3832   3.659   1.921   0.820
 1233SOL     OW 3833   3.165   2.978   3.071
 1233SOL    HW1 3834   3.186   2.975   3.164
 1233SOL    HW2 3835   3.072   3.002   3.067
 1234SOL     OW 3836   3.688   2.912   3.684
 1234SOL    HW1 3837   3.719   2.829   3.646
 1234SOL    HW2 3838   3.757   2.938   3.744
 1235SOL     OW 3839   1.473   3.232   2.837
 1235SOL    HW1 3840   1.428   3.227   2.922
 1235SOL    HW2 3841   1.530   3.309   2.845
 1236SOL     OW 3842   1.642   0.815   3.961
 1236SOL    HW1 3843   1.732   0.846   3.952
 1236SOL    HW2 3844   1.589   0.895   3.967
 1237SOL     OW 3845   3.073   2.810   2.593
 1237SOL    HW1 3846   3.065   2.733   2.537
 1237SOL    HW2 3847   2.985   2.825   2.626
 1238SOL     OW 3848   2.391   0.103   2.146
 1238SOL    HW1 3849   2.486   0.095   2.143
 1238SOL    HW2 3850   2.365   0.124   2.057
 1239SOL     OW 3851   3.750   1.266   2.905
 1239SOL    HW1 3852   3.684   1.201   2.879
 1239SOL    HW2 3853   3.786   1.299   2.823
 1240SOL     OW 3854   1.962   3.038   2.375
 1240SOL    HW1 3855   1.892   3.074   2.430
 1240SOL    HW2 3856   2.027   3.005   2.436
 1241SOL     OW 3857   3.779   0.303   1.700
 1241SOL    HW1 3858   3.716   0.363   1.659
 1241SOL    HW2 3859   3.754   0.302   1.792
 1242SOL     OW 3860   3.960   2.909   0.923
 1242SOL    HW1 3861   3.978   2.983   0.980
 1242SOL    HW2 3862   3.925   2.948   0.843
 1243SOL     OW 3863   2.632   3.135   2.569
 1243SOL    HW1 3864   2.590   3.199   2.513
 1243SOL    HW2 3865   2.714   3.176   2.597
 1244SOL     OW 3866   0.938   0.599   2.308
 1244SOL    HW1 3867   1.020   0.627   2.349
 1244SOL    HW2 3868   0.878   0.584   2.382
 1245SOL     OW 3869   1.604   2.793   0.438
 1245SOL    HW1 3870   1.534   2.803   0.373
 1245SOL    HW2 3871   1.618   2.881   0.472
 1246SOL     OW 3872   0.713   0.362   0.566
 1246SOL    HW1 3873   0.698   0.449   0.602
 1246SOL    HW2 3874   0.684   0.302   0.635
 1247SOL     OW 3875   0.398   2.025   3.506
 1247SOL    HW1 3876   0.478   2.008   3.555
 1247SOL    HW2 3877   0.354   1.940   3.500
 1248SOL     OW 3878   3.305   2.410   0.719
 1248SOL    HW1 3879   3.337   2.411   0.628
 1248SOL    HW2 3880   3.214   2.437   0.712
 1249SOL     OW 3881   0.882   3.499   0.291
 1249SOL    HW1 3882   0.879   3.455   0.376
 1249SOL    HW2 3883   0.790   3.509   0.266
 1250SOL     OW 3884   3.251   0.380   0.316
 1250SOL    HW1 3885   3.221   0.289   0.317
 1250SOL    HW2 3886   3.202   0.421   0.245
 1251SOL     OW 3887   2.811   2.561   0.868
 1251SOL    HW1 3888   2.733   2.507   0.854
 1251SOL    HW2 3889   2.810   2.623   0.794
 1252SOL     OW 3890   2.117   1.884   1.058
 1252SOL    HW1 3891   2.084   1.948   0.996
 1252SOL    HW2 3892   2.210   1.905   1.068
 1253SOL     OW 3893   3.772   2.048   3.541
 1253SOL    HW1 3894   3.807   2.029   3.454
 1253SOL    HW2 3895   3.745   1.962   3.575
 1254SOL     OW 3896   0.365   1.628   2.569
 1254SOL    HW1 3897   0.451   1.613   2.608
 1254SOL    HW2 3898   0.308   1.647   2.644
 1255SOL     OW 3899   2.929   2.420   0.403
 1255SOL    HW1 3900   2.897   2.479   0.334
 1255SOL    HW2 3901   3.000   2.372   0.362
 1256SOL     OW 3902   1.688   2.727   2.345
 1256SOL    HW1 3903   1.747   2.794   2.309
 1256SOL    HW2 3904   1.610   2.776   2.373
 1257SOL     OW 3905   0.558   0.343   0.280
 1257SOL    HW1 3906   0.491   0.311   0.340
 1257SOL    HW2 3907   0.635   0.354   0.335
 1258SOL     OW 3908   1.864   1.702   3.773
 1258SOL    HW1 3909   1.839   1.754   3.696
 1258SOL    HW2 3910   1.925   1.637   3.739
 1259SOL     OW 3911   0.932   3.374   3.628
 1259SOL    HW1 3912   1.019   3.377   3.668
 1259SOL    HW2 3913   0.934   3.297   3.571
 1260SOL     OW 3914   2.373   0.758   2.855
 1260SOL    HW1 3915   2.357   0.729   2.766
 1260SOL    HW2 3916   2.468   0.755   2.866
 1261SOL     OW 3917   0.383   0.314   2.331
 1261SOL    HW1 3918   0.407   0.361   2.251
 1261SOL    HW2 3919   0.293   0.342   2.349
 1262SOL     OW 3920   0.598   3.756   3.849
 1262SOL    HW1 3921   0.686   3.734   3.818
 1262SOL    HW2 3922   0.540   3.696   3.803
 1263SOL     OW 3923   1.369   1.016   1.269
 1263SOL    HW1 3924   1.353   0.939   1.323
 1263SOL    HW2 3925   1.450   1.053   1.303
 1264SOL     OW 3926   3.948   2.483   2.136
 1264SOL    HW1 3927   3.914   2.394   2.142
 1264SOL    HW2 3928   3.916   2.526   2.216
 1265SOL     OW 3929   0.073   0.270   2.423
 1265SOL    HW1 3930   0.051   0.202   2.487
 1265SOL    HW2 3931   0.059   0.228   2.338
 1266SOL     OW 3932   0.330   1.788   1.661
 1266SOL    HW1 3933   0.322   1.693   1.654
 1266SOL    HW2 3934   0.424   1.804   1.670
 1267SOL     OW 3935   1.927   0.209   2.454
 1267SOL    HW1 3936   1.993   0.272   2.425
 1267SOL    HW2 3937   1.977   0.138   2.494
 1268SOL     OW 3938   3.264   3.510   1.560
 1268SOL    HW1 3939   3.352   3.481   1.538
 1268SOL    HW2 3940   3.217   3.509   1.476
 1269SOL     OW 3941   0.087   2.082   0.072
 1269SOL    HW1 3942   0.071   2.106  -0.019
 1269SOL    HW2 3943   0.181   2.060   0.075
 1270SOL     OW 3944   0.447   0.842   1.986
 1270SOL    HW1 3945   0.479   0.851   2.076
 1270SOL    HW2 3946   0.489   0.763   1.953
 1271SOL     OW 3947   0.391   1.287   2.808
 1271SOL    HW1 3948   0.456   1.274   2.739
 1271SOL    HW2 3949   0.307   1.274   2.765
 1272SOL     OW 3950   1.466   2.598   3.443
 1272SOL    HW1 3951   1.524   2.663   3.404
 1272SOL    HW2 3952   1.495   2.515   3.408
 1273SOL     OW 3953   0.033   2.594   2.790
 1273SOL    HW1 3954  -0.029   2.621   2.721
 1273SOL    HW2 3955   0.021   2.499   2.796
 1274SOL     OW 3956   2.640   2.959   2.895
 1274SOL    HW1 3957   2.560   2.993   2.855
 1274SOL    HW2 3958   2.674   3.031   2.948
 1275SOL     OW 3959   2.203   1.398   3.454
 1275SOL    HW1 3960   2.273   1.345   3.416
 1275SOL    HW2 3961   2.211   1.386   3.549
 1276SOL     OW 3962   2.881   2.066   0.605
 1276SOL    HW1 3963   2.952   2.124   0.578
 1276SOL    HW2 3964   2.802   2.105   0.565
 1277SOL     OW 3965   2.354   1.516   3.185
 1277SOL    HW1 3966   2.318   1.428   3.178
 1277SOL    HW2 3967   2.279   1.574   3.175
 1278SOL     OW 3968   0.726   1.616   1.433
 1278SOL    HW1 3969   0.695   1.525   1.438
 1278SOL    HW2 3970   0.709   1.642   1.343
 1279SOL     OW 3971   2.026   1.583   1.405
 1279SOL    HW1 3972   1.984   1.500   1.385
 1279SOL    HW2 3973   2.010   1.596   1.499
 1280SOL     OW 3974   1.507   2.969   2.117
 1280SOL    HW1 3975   1.514   3.064   2.117
 1280SOL    HW2 3976   1.591   2.938   2.152
 1281SOL     OW 3977   3.344   3.730   2.422
 1281SOL    HW1 3978   3.407   3.779   2.475
 1281SOL    HW2 3979   3.269   3.718   2.479
 1282SOL     OW 3980   0.277   3.365   1.298
 1282SOL    HW1 3981   0.186   3.358   1.269
 1282SOL    HW2 3982   0.284   3.451   1.338
 1283SOL     OW 3983   1.631   3.601   1.200
 1283SOL    HW1 3984   1.575   3.666   1.243
 1283SOL    HW2 3985   1.713   3.604   1.250
 1284SOL     OW 3986   0.431   3.011   0.565
 1284SOL    HW1 3987   0.453   2.983   0.476
 1284SOL    HW2 3988   0.379   2.940   0.600
 1285SOL     OW 3989   3.431   2.991   1.322
 1285SOL    HW1 3990   3.467   2.902   1.322
 1285SOL    HW2 3991   3.444   3.022   1.412
 1286SOL     OW 3992   2.547   1.649   0.084
 1286SOL    HW1 3993   2.599   1.706   0.028
 1286SOL    HW2 3994   2.471   1.626   0.030
 1287SOL     OW 3995   1.019   2.293   2.257
 1287SOL    HW1 3996   0.948   2.313   2.318
 1287SOL    HW2 3997   0.975   2.280   2.173
 1288SOL     OW 3998   2.375   3.347   1.040
 1288SOL    HW1 3999   2.411   3.435   1.053
 1288SOL    HW2 4000   2.452   3.291   1.030
 1289SOL     OW 4001  -0.021   1.903   1.238
 1289SOL    HW1 4002   0.033   1.927   1.313
 1289SOL    HW2 4003   0.038   1.856   1.179
 1290SOL     OW 4004   1.615   0.341   0.135
 1290SOL    HW1 4005   1.561   0.378   0.205
 1290SOL    HW2 4006   1.559   0.275   0.094
 1291SOL     OW 4007   1.025   3.304   0.463
 1291SOL    HW1 4008   0.992   3.218   0.437
 1291SOL    HW2 4009   1.102   3.318   0.408
 1292SOL     OW 4010   2.910   0.358   0.937
 1292SOL    HW1 4011   2.893   0.280   0.990
 1292SOL    HW2 4012   2.862   0.343   0.855
 1293SOL     OW 4013   0.617   2.736   0.593
 1293SOL    HW1 4014   0.652   2.802   0.653
 1293SOL    HW2 4015   0.546   2.695   0.642
 1294SOL     OW 4016   2.511   3.581   1.093
 1294SOL    HW1 4017   2.594   3.614   1.058
 1294SOL    HW2 4018   2.444   3.623   1.039
 1295SOL     OW 4019   3.683   0.029   3.306
 1295SOL    HW1 4020   3.667   0.093   3.375
 1295SOL    HW2 4021   3.767   0.054   3.268
 1296SOL     OW 4022   0.917   0.639   3.494
 1296SOL    HW1 4023   0.900   0.549   3.464
 1296SOL    HW2 4024   0.930   0.630   3.588
 1297SOL     OW 4025   3.526   0.598   0.821
 1297SOL    HW1 4026   3.562   0.511   0.806
 1297SOL    HW2 4027   3.570   0.654   0.757
 1298SOL     OW 4028   3.426   3.426   2.731
 1298SOL    HW1 4029   3.381   3.426   2.647
 1298SOL    HW2 4030   3.517   3.446   2.710
 1299SOL     OW 4031   2.372   3.847   0.148
 1299SOL    HW1 4032   2.377   3.938   0.179
 1299SOL    HW2 4033   2.369   3.795   0.228
 1300SOL     OW 4034   1.849   0.464   0.016
 1300SOL    HW1 4035   1.764   0.430   0.044
 1300SOL    HW2 4036   1.857   0.547   0.062
 1301SOL     OW 4037   2.858   1.560   2.394
 1301SOL    HW1 4038   2.931   1.518   2.440
 1301SOL    HW2 4039   2.813   1.612   2.461
 1302SOL     OW 4040   0.308   3.696   3.022
 1302SOL    HW1 4041   0.304   3.640   2.944
 1302SOL    HW2 4042   0.334   3.781   2.989
 1303SOL     OW 4043   3.184   0.521   3.667
 1303SOL    HW1 4044   3.232   0.565   3.737
 1303SOL    HW2 4045   3.145   0.592   3.616
 1304SOL     OW 4046   0.912   3.492   3.370
 1304SOL    HW1 4047   0.943   3.502   3.460
 1304SOL    HW2 4048   0.959   3.560   3.321
 1305SOL     OW 4049   2.538   2.564   0.594
 1305SOL    HW1 4050   2.633   2.549   0.599
 1305SOL    HW2 4051   2.511   2.516   0.516
 1306SOL     OW 4052   1.879   0.750   2.823
 1306SOL    HW1 4053   1.950   0.765   2.760
 1306SOL    HW2 4054   1.907   0.798   2.902
 1307SOL     OW 4055   1.026   3.311   3.193
 1307SOL    HW1 4056   0.999   3.369   3.265
 1307SOL    HW2 4057   1.010   3.361   3.114
 1308SOL     OW 4058   1.005   3.814   1.721
 1308SOL    HW1 4059   1.050   3.887   1.677
 1308SOL    HW2 4060   0.997   3.747   1.654
 1309SOL     OW 4061   3.059   0.149   1.873
 1309SOL    HW1 4062   3.051   0.054   1.882
 1309SOL    HW2 4063   2.970   0.182   1.885
 1310SOL     OW 4064   0.942   0.450   1.103
 1310SOL    HW1 4065   0.937   0.527   1.046
 1310SOL    HW2 4066   0.869   0.460   1.164
 1311SOL     OW 4067   0.711   3.764   2.166
 1311SOL    HW1 4068   0.767   3.738   2.094
 1311SOL    HW2 4069   0.622   3.752   2.133
 1312SOL     OW 4070   2.729   3.148   3.330
 1312SOL    HW1 4071   2.767   3.207   3.265
 1312SOL    HW2 4072   2.780   3.165   3.410
 1313SOL     OW 4073   3.079   0.807   1.998
 1313SOL    HW1 4074   3.063   0.855   1.917
 1313SOL    HW2 4075   3.031   0.724   1.987
 1314SOL     OW 4076   0.982   3.418   1.331
 1314SOL    HW1 4077   0.950   3.503   1.301
 1314SOL    HW2 4078   0.929   3.397   1.407
 1315SOL     OW 4079   0.832   1.435   0.157
 1315SOL    HW1 4080   0.817   1.450   0.063
 1315SOL    HW2 4081   0.813   1.343   0.170
 1316SOL     OW 4082   1.222   0.507   0.420
 1316SOL    HW1 4083   1.147   0.474   0.370
 1316SOL    HW2 4084   1.189   0.517   0.509
 1317SOL     OW 4085   3.886   0.604   3.356
 1317SOL    HW1 4086   3.942   0.681   3.354
 1317SOL    HW2 4087   3.918   0.549   3.284
 1318SOL     OW 4088   1.382   0.768   2.404
 1318SOL    HW1 4089   1.470   0.760   2.368
 1318SOL    HW2 4090   1.396   0.786   2.497
 1319SOL     OW 4091   1.742   3.476   3.491
 1319SOL    HW1 4092   1.674   3.539   3.466
 1319SOL    HW2 4093   1.823   3.525   3.487
 1320SOL     OW 4094   0.501   1.583   2.321
 1320SOL    HW1 4095   0.584   1.629   2.311
 1320SOL    HW2 4096   0.477   1.597   2.413
 1321SOL     OW 4097   2.340   0.938   3.180
 1321SOL    HW1 4098   2.307   0.851   3.156
 1321SOL    HW2 4099   2.435   0.932   3.166
 1322SOL     OW 4100   1.641   3.868   1.989
 1322SOL    HW1 4101   1.631   3.773   1.984
 1322SOL    HW2 4102   1.621   3.899   1.901
 1323SOL     OW 4103   1.186   3.113   3.900
 1323SOL    HW1 4104   1.099   3.078   3.918
 1323SOL    HW2 4105   1.232   3.107   3.984
 1324SOL     OW 4106   2.344   3.681   0.908
 1324SOL    HW1 4107   2.304   3.741   0.845
 1324SOL    HW2 4108   2.283   3.608   0.914
 1325SOL     OW 4109   2.397   2.879   3.103
 1325SOL    HW1 4110   2.412   2.940   3.176
 1325SOL    HW2 4111   2.371   2.936   3.030
 1326SOL     OW 4112   0.608   0.834   2.203
 1326SOL    HW1 4113   0.564   0.854   2.286
 1326SOL    HW2 4114   0.618   0.739   2.203
 1327SOL     OW 4115   0.071   3.076   3.640
 1327SOL    HW1 4116   0.114   3.155   3.607
 1327SOL    HW2 4117   0.001   3.058   3.578
 1328SOL     OW 4118   3.929   3.373   0.763
 1328SOL    HW1 4119   3.856   3.316   0.787
 1328SOL    HW2 4120   3.929   3.374   0.667
 1329SOL     OW 4121   0.804   0.764   2.880
 1329SOL    HW1 4122   0.800   0.677   2.841
 1329SOL    HW2 4123   0.715   0.779   2.914
 1330SOL     OW 4124   0.265   3.465   2.854
 1330SOL    HW1 4125   0.206   3.391   2.868
 1330SOL    HW2 4126   0.318   3.440   2.778
 1331SOL     OW 4127   2.832   0.898   1.883
 1331SOL    HW1 4128   2.772   0.950   1.829
 1331SOL    HW2 4129   2.830   0.811   1.844
 1332SOL     OW 4130   3.186   1.622   1.410
 1332SOL    HW1 4131   3.156   1.705   1.447
 1332SOL    HW2 4132   3.155   1.556   1.472
 1333SOL     OW 4133   0.477   2.053   1.433
 1333SOL    HW1 4134   0.423   2.016   1.503
 1333SOL    HW2 4135   0.554   2.088   1.479
 1334SOL     OW 4136   1.054   1.927   2.712
 1334SOL    HW1 4137   1.077   1.850   2.765
 1334SOL    HW2 4138   1.042   1.997   2.776
 1335SOL     OW 4139   0.691   1.070   0.390
 1335SOL    HW1 4140   0.627   0.999   0.378
 1335SOL    HW2 4141   0.639   1.150   0.384
 1336SOL     OW 4142   1.385   2.465   1.325
 1336SOL    HW1 4143   1.297   2.481   1.289
 1336SOL    HW2 4144   1.374   2.474   1.420
 1337SOL     OW 4145   0.779   0.782   0.025
 1337SOL    HW1 4146   0.691   0.819   0.026
 1337SOL    HW2 4147   0.768   0.692   0.056
 1338SOL     OW 4148   0.668   1.731   0.361
 1338SOL    HW1 4149   0.671   1.663   0.428
 1338SOL    HW2 4150   0.641   1.684   0.282
 1339SOL     OW 4151   1.818   2.544   1.124
 1339SOL    HW1 4152   1.892   2.493   1.156
 1339SOL    HW2 4153   1.744   2.484   1.127
 1340SOL     OW 4154   2.736   0.105   0.836
 1340SOL    HW1 4155   2.657   0.088   0.784
 1340SOL    HW2 4156   2.793   0.154   0.777
 1341SOL     OW 4157   1.977   0.099   3.287
 1341SOL    HW1 4158   1.911   0.031   3.298
 1341SOL    HW2 4159   1.978   0.146   3.370
 1342SOL     OW 4160   1.393   2.324   3.014
 1342SOL    HW1 4161   1.386   2.339   2.920
 1342SOL    HW2 4162   1.305   2.298   3.041
 1343SOL     OW 4163   0.077   3.864   2.672
 1343SOL    HW1 4164   0.126   3.819   2.603
 1343SOL    HW2 4165   0.017   3.922   2.626
 1344SOL     OW 4166   2.339   1.862   0.275
 1344SOL    HW1 4167   2.417   1.916   0.285
 1344SOL    HW2 4168   2.373   1.776   0.248
 1345SOL     OW 4169   1.289   2.612   2.065
 1345SOL    HW1 4170   1.281   2.531   2.115
 1345SOL    HW2 4171   1.270   2.586   1.974
 1346SOL     OW 4172   2.971   3.411   2.784
 1346SOL    HW1 4173   2.993   3.500   2.812
 1346SOL    HW2 4174   3.052   3.362   2.792
 1347SOL     OW 4175   1.434   2.105   0.349
 1347SOL    HW1 4176   1.457   2.176   0.289
 1347SOL    HW2 4177   1.516   2.087   0.395
 1348SOL     OW 4178   1.308   0.332   2.905
 1348SOL    HW1 4179   1.326   0.239   2.920
 1348SOL    HW2 4180   1.271   0.335   2.816
 1349SOL     OW 4181   2.519   2.682   3.631
 1349SOL    HW1 4182   2.550   2.769   3.657
 1349SOL    HW2 4183   2.580   2.654   3.563
 1350SOL     OW 4184   3.697  -0.004   2.981
 1350SOL    HW1 4185   3.750  -0.034   3.055
 1350SOL    HW2 4186   3.629   0.050   3.022
 1351SOL     OW 4187   1.079   0.973   2.828
 1351SOL    HW1 4188   1.125   0.901   2.784
 1351SOL    HW2 4189   1.010   0.929   2.879
 1352SOL     OW 4190   2.259   3.395   3.231
 1352SOL    HW1 4191   2.254   3.489   3.217
 1352SOL    HW2 4192   2.324   3.364   3.169
 1353SOL     OW 4193   1.425   2.264   0.094
 1353SOL    HW1 4194   1.425   2.291   0.002
 1353SOL    HW2 4195   1.393   2.341   0.141
 1354SOL     OW 4196   0.808   2.275   0.656
 1354SOL    HW1 4197   0.721   2.314   0.652
 1354SOL    HW2 4198   0.793   2.181   0.652
 1355SOL     OW 4199   3.507   2.309   1.887
 1355SOL    HW1 4200   3.533   2.386   1.939
 1355SOL    HW2 4201   3.418   2.289   1.916
 1356SOL     OW 4202   2.915   2.640   3.888
 1356SOL    HW1 4203   2.865   2.574   3.840
 1356SOL    HW2 4204   2.994   2.653   3.835
 1357SOL     OW 4205   3.454   1.413   1.702
 1357SOL    HW1 4206   3.428   1.503   1.686
 1357SOL    HW2 4207   3.449   1.371   1.616
 1358SOL     OW 4208   3.641   0.141   0.125
 1358SOL    HW1 4209   3.718   0.091   0.099
 1358SOL    HW2 4210   3.572   0.076   0.135
 1359SOL     OW 4211   1.992   3.423   2.334
 1359SOL    HW1 4212   1.905   3.387   2.352
 1359SOL    HW2 4213   2.033   3.358   2.277
 1360SOL     OW 4214   3.818   2.119   1.102
 1360SOL    HW1 4215   3.860   2.046   1.148
 1360SOL    HW2 4216   3.859   2.197   1.137
 1361SOL     OW 4217   0.301   3.166   2.347
 1361SOL    HW1 4218   0.207   3.160   2.364
 1361SOL    HW2 4219   0.341   3.102   2.407
 1362SOL     OW 4220   2.344   1.748   0.739
 1362SOL    HW1 4221   2.404   1.812   0.777
 1362SOL    HW2 4222   2.368   1.745   0.646
 1363SOL     OW 4223   2.919   0.791   2.369
 1363SOL    HW1 4224   2.855   0.757   2.431
 1363SOL    HW2 4225   2.867   0.832   2.300
 1364SOL     OW 4226   3.689   3.044   3.269
 1364SOL    HW1 4227   3.600   3.054   3.235
 1364SOL    HW2 4228   3.702   2.949   3.273
 1365SOL     OW 4229   0.588   1.712   1.958
 1365SOL    HW1 4230   0.529   1.786   1.970
 1365SOL    HW2 4231   0.541   1.653   1.899
 1366SOL     OW 4232   1.210   3.947   2.841
 1366SOL    HW1 4233   1.295   3.952   2.799
 1366SOL    HW2 4234   1.147   3.944   2.769
 1367SOL     OW 4235   2.231   3.788   2.993
 1367SOL    HW1 4236   2.223   3.878   3.025
 1367SOL    HW2 4237   2.196   3.735   3.064
 1368SOL     OW 4238   2.991   2.527   3.626
 1368SOL    HW1 4239   3.005   2.434   3.608
 1368SOL    HW2 4240   3.065   2.552   3.682
 1369SOL     OW 4241   0.774   3.729   0.140
 1369SOL    HW1 4242   0.691   3.727   0.092
 1369SOL    HW2 4243   0.831   3.668   0.092
 1370SOL     OW 4244   1.906   1.961   2.377
 1370SOL    HW1 4245   1.976   1.998   2.430
 1370SOL    HW2 4246   1.939   1.964   2.287
 1371SOL     OW 4247   2.204   3.676   3.260
 1371SOL    HW1 4248   2.109   3.684   3.272
 1371SOL    HW2 4249   2.242   3.705   3.342
 1372SOL     OW 4250   3.842   0.685   1.405
 1372SOL    HW1 4251   3.901   0.623   1.447
 1372SOL    HW2 4252   3.891   0.716   1.329
 1373SOL     OW 4253   0.141   3.751   1.585
 1373SOL    HW1 4254   0.164   3.795   1.667
 1373SOL    HW2 4255   0.048   3.770   1.573
 1374SOL     OW 4256   2.935   1.099   3.279
 1374SOL    HW1 4257   2.991   1.040   3.330
 1374SOL    HW2 4258   2.975   1.185   3.289
 1375SOL     OW 4259   3.223   2.142   2.405
 1375SOL    HW1 4260   3.315   2.115   2.406
 1375SOL    HW2 4261   3.191   2.113   2.320
 1376SOL     OW 4262   3.408   2.014   3.944
 1376SOL    HW1 4263   3.316   2.029   3.963
 1376SOL    HW2 4264   3.410   1.986   3.853
 1377SOL     OW 4265   0.407   0.936   3.803
 1377SOL    HW1 4266   0.440   1.023   3.826
 1377SOL    HW2 4267   0.485   0.882   3.794
 1378SOL     OW 4268   3.400   3.727   2.735
 1378SOL    HW1 4269   3.490   3.705   2.713
 1378SOL    HW2 4270   3.386   3.690   2.821
 1379SOL     OW 4271   0.214   1.712   1.125
 1379SOL    HW1 4272   0.242   1.799   1.154
 1379SOL    HW2 4273   0.283   1.684   1.066
 1380SOL     OW 4274   0.452   3.047   3.335
 1380SOL    HW1 4275   0.532   3.100   3.335
 1380SOL    HW2 4276   0.443   3.018   3.245
 1381SOL     OW 4277   1.065   2.508   2.651
 1381SOL    HW1 4278   1.093   2.547   2.734
 1381SOL    HW2 4279   1.093   2.571   2.584
 1382SOL     OW 4280   3.604   3.436   1.960
 1382SOL    HW1 4281   3.538   3.392   1.905
 1382SOL    HW2 4282   3.580   3.528   1.957
 1383SOL     OW 4283   0.859   3.589   2.613
 1383SOL    HW1 4284   0.850   3.653   2.543
 1383SOL    HW2 4285   0.786   3.607   2.672
 1384SOL     OW 4286   2.046   1.623   3.152
 1384SOL    HW1 4287   1.961   1.655   3.184
 1384SOL    HW2 4288   2.055   1.662   3.065
 1385SOL     OW 4289   1.421   2.457   1.029
 1385SOL    HW1 4290   1.333   2.488   1.005
 1385SOL    HW2 4291   1.407   2.404   1.108
 1386SOL     OW 4292   2.668   1.243   2.298
 1386SOL    HW1 4293   2.587   1.285   2.329
 1386SOL    HW2 4294   2.638   1.177   2.235
 1387SOL     OW 4295   0.442   1.233   1.435
 1387SOL    HW1 4296   0.400   1.194   1.512
 1387SOL    HW2 4297   0.410   1.180   1.362
 1388SOL     OW 4298   1.523   3.231   2.088
 1388SOL    HW1 4299   1.514   3.275   2.173
 1388SOL    HW2 4300   1.588   3.284   2.041
 1389SOL     OW 4301   3.370   2.454   0.046
 1389SOL    HW1 4302   3.431   2.380   0.039
 1389SOL    HW2 4303   3.311   2.429   0.117
 1390SOL     OW 4304   2.493   3.324   2.443
 1390SOL    HW1 4305   2.536   3.397   2.400
 1390SOL    HW2 4306   2.420   3.364   2.491
 1391SOL     OW 4307   3.736   0.746   0.182
 1391SOL    HW1 4308   3.673   0.810   0.149
 1391SOL    HW2 4309   3.804   0.743   0.115
 1392SOL     OW 4310   2.050   2.893   1.066
 1392SOL    HW1 4311   2.122   2.873   1.006
 1392SOL    HW2 4312   2.015   2.807   1.090
 1393SOL     OW 4313   2.127   1.154   2.312
 1393SOL    HW1 4314   2.051   1.212   2.304
 1393SOL    HW2 4315   2.097   1.082   2.367
 1394SOL     OW 4316   1.240   3.514   2.068
 1394SOL    HW1 4317   1.205   3.555   2.148
 1394SOL    HW2 4318   1.195   3.559   1.997
 1395SOL     OW 4319   2.876   2.180   1.462
 1395SOL    HW1 4320   2.967   2.201   1.481
 1395SOL    HW2 4321   2.845   2.254   1.410
 1396SOL     OW 4322   1.287   1.515   0.285
 1396SOL    HW1 4323   1.329   1.535   0.201
 1396SOL    HW2 4324   1.232   1.439   0.266
 1397SOL     OW 4325   1.559   0.790   1.297
 1397SOL    HW1 4326   1.574   0.769   1.389
 1397SOL    HW2 4327   1.472   0.755   1.278
 1398SOL     OW 4328   2.018   0.457   3.369
 1398SOL    HW1 4329   1.997   0.548   3.392
 1398SOL    HW2 4330   2.048   0.418   3.452
 1399SOL     OW 4331   1.117   1.635   1.777
 1399SOL    HW1 4332   1.047   1.673   1.830
 1399SOL    HW2 4333   1.198   1.665   1.819
 1400SOL     OW 4334   1.988   3.461   3.061
 1400SOL    HW1 4335   1.992   3.546   3.017
 1400SOL    HW2 4336   2.021   3.479   3.150
 1401SOL     OW 4337   0.337   1.998   0.953
 1401SOL    HW1 4338   0.342   1.961   1.042
 1401SOL    HW2 4339   0.428   2.007   0.925
 1402SOL     OW 4340   0.582   0.315   3.062
 1402SOL    HW1 4341   0.584   0.270   3.147
 1402SOL    HW2 4342   0.617   0.402   3.081
 1403SOL     OW 4343   0.968   2.427   3.396
 1403SOL    HW1 4344   1.016   2.495   3.443
 1403SOL    HW2 4345   0.897   2.474   3.352
 1404SOL     OW 4346   0.296   0.998   3.323
 1404SOL    HW1 4347   0.239   0.974   3.396
 1404SOL    HW2 4348   0.380   1.020   3.364
 1405SOL     OW 4349   1.522   1.197   1.782
 1405SOL    HW1 4350   1.558   1.279   1.747
 1405SOL    HW2 4351   1.595   1.159   1.831
 1406SOL     OW 4352   3.751   1.914   2.865
 1406SOL    HW1 4353   3.768   1.947   2.953
 1406SOL    HW2 4354   3.737   1.820   2.877
 1407SOL     OW 4355   3.197   1.726   1.139
 1407SOL    HW1 4356   3.180   1.663   1.209
 1407SOL    HW2 4357   3.160   1.808   1.171
 1408SOL     OW 4358   0.377   0.079   1.997
 1408SOL    HW1 4359   0.452   0.066   1.939
 1408SOL    HW2 4360   0.414   0.079   2.085
 1409SOL     OW 4361   3.721   1.828   2.166
 1409SOL    HW1 4362   3.790   1.824   2.100
 1409SOL    HW2 4363   3.640   1.838   2.117
 1410SOL     OW 4364   2.737   2.640   3.461
 1410SOL    HW1 4365   2.820   2.607   3.495
 1410SOL    HW2 4366   2.722   2.589   3.381
 1411SOL     OW 4367   1.867   2.293   3.569
 1411SOL    HW1 4368   1.844   2.263   3.657
 1411SOL    HW2 4369   1.867   2.214   3.515
 1412SOL     OW 4370   3.031   0.869   3.436
 1412SOL    HW1 4371   3.124   0.847   3.440
 1412SOL    HW2 4372   2.995   0.837   3.519
 1413SOL     OW 4373   1.374   3.408   0.401
 1413SOL    HW1 4374   1.386   3.483   0.343
 1413SOL    HW2 4375   1.429   3.339   0.364
 1414SOL     OW 4376   0.864   0.391   2.161
 1414SOL    HW1 4377   0.796   0.340   2.204
 1414SOL    HW2 4378   0.879   0.466   2.219
 1415SOL     OW 4379   1.199   3.227   2.950
 1415SOL    HW1 4380   1.149   3.203   2.872
 1415SOL    HW2 4381   1.209   3.144   2.998
 1416SOL     OW 4382   3.209   1.616   3.555
 1416SOL    HW1 4383   3.224   1.710   3.549
 1416SOL    HW2 4384   3.141   1.598   3.491
 1417SOL     OW 4385   0.030   2.361   3.392
 1417SOL    HW1 4386  -0.061   2.338   3.409
 1417SOL    HW2 4387   0.063   2.390   3.477
 1418SOL     OW 4388   3.868   1.055   3.848
 1418SOL    HW1 4389   3.872   1.062   3.943
 1418SOL    HW2 4390   3.941   0.997   3.825
 1419SOL     OW 4391   0.983   1.406   0.770
 1419SOL    HW1 4392   1.045   1.474   0.741
 1419SOL    HW2 4393   0.925   1.450   0.831
 1420SOL     OW 4394   3.884   0.520   0.279
 1420SOL    HW1 4395   3.793   0.546   0.268
 1420SOL    HW2 4396   3.934   0.587   0.232
 1421SOL     OW 4397   3.872   0.082   2.540
 1421SOL    HW1 4398   3.792   0.085   2.592
 1421SOL    HW2 4399   3.846   0.111   2.453
 1422SOL     OW 4400   0.373   3.357   0.723
 1422SOL    HW1 4401   0.448   3.410   0.697
 1422SOL    HW2 4402   0.302   3.386   0.666
 1423SOL     OW 4403   0.581   1.557   3.312
 1423SOL    HW1 4404   0.645   1.488   3.294
 1423SOL    HW2 4405   0.549   1.536   3.400
 1424SOL     OW 4406   3.502   2.003   2.807
 1424SOL    HW1 4407   3.592   1.979   2.826
 1424SOL    HW2 4408   3.450   1.931   2.844
 1425SOL     OW 4409   0.895   3.115   2.397
 1425SOL    HW1 4410   0.901   3.161   2.480
 1425SOL    HW2 4411   0.906   3.023   2.421
 1426SOL     OW 4412   0.681   1.386   2.035
 1426SOL    HW1 4413   0.734   1.397   1.956
 1426SOL    HW2 4414   0.593   1.412   2.009
 1427SOL     OW 4415   3.797   3.657   0.667
 1427SOL    HW1 4416   3.788   3.733   0.609
 1427SOL    HW2 4417   3.781   3.582   0.610
 1428SOL     OW 4418   3.668   0.823   3.606
 1428SOL    HW1 4419   3.686   0.892   3.670
 1428SOL    HW2 4420   3.667   0.867   3.521
 1429SOL     OW 4421   2.253   2.081   2.643
 1429SOL    HW1 4422   2.312   2.154   2.661
 1429SOL    HW2 4423   2.309   2.004   2.638
 1430SOL     OW 4424   0.185   3.428   0.529
 1430SOL    HW1 4425   0.144   3.514   0.514
 1430SOL    HW2 4426   0.237   3.413   0.450
 1431SOL     OW 4427   1.237   3.310   0.677
 1431SOL    HW1 4428   1.239   3.215   0.667
 1431SOL    HW2 4429   1.282   3.343   0.599
 1432SOL     OW 4430   3.569   2.523   2.042
 1432SOL    HW1 4431   3.544   2.614   2.032
 1432SOL    HW2 4432   3.574   2.509   2.137
 1433SOL     OW 4433   2.855   0.296   0.647
 1433SOL    HW1 4434   2.919   0.265   0.583
 1433SOL    HW2 4435   2.788   0.339   0.595
 1434SOL     OW 4436   3.866   2.925   2.279
 1434SOL    HW1 4437   3.861   3.004   2.332
 1434SOL    HW2 4438   3.881   2.956   2.190
 1435SOL     OW 4439   3.229   1.190   0.766
 1435SOL    HW1 4440   3.211   1.283   0.774
 1435SOL    HW2 4441   3.311   1.177   0.814
 1436SOL     OW 4442   1.213   2.243   0.755
 1436SOL    HW1 4443   1.142   2.198   0.710
 1436SOL    HW2 4444   1.178   2.329   0.775
 1437SOL     OW 4445   2.584   1.276   1.275
 1437SOL    HW1 4446   2.633   1.353   1.246
 1437SOL    HW2 4447   2.648   1.224   1.324
 1438SOL     OW 4448   2.296   1.560   1.817
 1438SOL    HW1 4449   2.360   1.488   1.815
 1438SOL    HW2 4450   2.321   1.617   1.745
 1439SOL     OW 4451   3.238   0.597   0.033
 1439SOL    HW1 4452   3.145   0.608   0.012
 1439SOL    HW2 4453   3.273   0.686   0.037
 1440SOL     OW 4454   0.042   0.421   3.783
 1440SOL    HW1 4455  -0.047   0.426   3.748
 1440SOL    HW2 4456   0.044   0.338   3.831
 1441SOL     OW 4457   1.119   0.050   2.143
 1441SOL    HW1 4458   1.045   0.002   2.106
 1441SOL    HW2 4459   1.120   0.132   2.095
 1442SOL     OW 4460   2.301   3.726   0.382
 1442SOL    HW1 4461   2.358   3.780   0.437
 1442SOL    HW2 4462   2.213   3.762   0.395
 1443SOL     OW 4463   2.602   0.060   1.470
 1443SOL    HW1 4464   2.559   0.042   1.553
 1443SOL    HW2 4465   2.575  -0.013   1.413
 1444SOL     OW 4466   3.208   2.858   2.002
 1444SOL    HW1 4467   3.196   2.808   1.922
 1444SOL    HW2 4468   3.300   2.846   2.025
 1445SOL     OW 4469   2.739   2.074   2.948
 1445SOL    HW1 4470   2.723   1.984   2.978
 1445SOL    HW2 4471   2.698   2.078   2.862
 1446SOL     OW 4472   2.233   1.809   2.783
 1446SOL    HW1 4473   2.262   1.830   2.872
 1446SOL    HW2 4474   2.138   1.819   2.786
 1447SOL     OW 4475   0.127   1.329   0.630
 1447SOL    HW1 4476   0.086   1.288   0.705
 1447SOL    HW2 4477   0.056   1.340   0.566
 1448SOL     OW 4478   1.341   1.971   3.233
 1448SOL    HW1 4479   1.331   2.058   3.272
 1448SOL    HW2 4480   1.331   1.910   3.306
 1449SOL     OW 4481   3.711   2.528   0.130
 1449SOL    HW1 4482   3.803   2.511   0.150
 1449SOL    HW2 4483   3.690   2.466   0.060
 1450SOL     OW 4484   2.832   1.425   3.431
 1450SOL    HW1 4485   2.742   1.397   3.447
 1450SOL    HW2 4486   2.828   1.469   3.346
 1451SOL     OW 4487   3.723   0.103   1.927
 1451SOL    HW1 4488   3.656   0.074   1.864
 1451SOL    HW2 4489   3.786   0.031   1.928
 1452SOL     OW 4490   1.965   1.512   3.582
 1452SOL    HW1 4491   1.937   1.427   3.549
 1452SOL    HW2 4492   1.940   1.575   3.514
 1453SOL     OW 4493   2.562   3.761   2.198
 1453SOL    HW1 4494   2.589   3.850   2.176
 1453SOL    HW2 4495   2.472   3.754   2.166
 1454SOL     OW 4496   2.040   1.415   2.648
 1454SOL    HW1 4497   2.079   1.369   2.723
 1454SOL    HW2 4498   1.948   1.424   2.671
 1455SOL     OW 4499   0.590   2.027   0.865
 1455SOL    HW1 4500   0.644   2.081   0.922
 1455SOL    HW2 4501   0.648   2.004   0.792
 1456SOL     OW 4502   3.894   1.660   3.375
 1456SOL    HW1 4503   3.824   1.628   3.317
 1456SOL    HW2 4504   3.887   1.755   3.370
 1457SOL     OW 4505   3.067   1.316   3.396
 1457SOL    HW1 4506   2.976   1.343   3.409
 1457SOL    HW2 4507   3.080   1.242   3.454
 1458SOL     OW 4508   2.777   3.000   0.260
 1458SOL    HW1 4509   2.866   2.985   0.228
 1458SOL    HW2 4510   2.746   3.076   0.210
 1459SOL     OW 4511   1.613   3.324   1.221
 1459SOL    HW1 4512   1.566   3.408   1.221
 1459SOL    HW2 4513   1.630   3.307   1.128
 1460SOL     OW 4514   1.449   0.100   3.725
 1460SOL    HW1 4515   1.445   0.129   3.816
 1460SOL    HW2 4516   1.517   0.033   3.723
 1461SOL     OW 4517   3.167   3.146   1.549
 1461SOL    HW1 4518   3.101   3.213   1.565
 1461SOL    HW2 4519   3.143   3.107   1.465
 1462SOL     OW 4520   0.560   3.266   1.455
 1462SOL    HW1 4521   0.562   3.277   1.550
 1462SOL    HW2 4522   0.532   3.351   1.422
 1463SOL     OW 4523   3.886   2.394   0.594
 1463SOL    HW1 4524   3.967   2.405   0.645
 1463SOL    HW2 4525   3.860   2.304   0.611
 1464SOL     OW 4526   1.532   3.339   3.776
 1464SOL    HW1 4527   1.564   3.427   3.797
 1464SOL    HW2 4528   1.609   3.283   3.780
 1465SOL     OW 4529   2.367   2.414   3.640
 1465SOL    HW1 4530   2.359   2.474   3.566
 1465SOL    HW2 4531   2.452   2.437   3.680
 1466SOL     OW 4532   1.509   2.640   2.658
 1466SOL    HW1 4533   1.504   2.580   2.583
 1466SOL    HW2 4534   1.480   2.724   2.623
 1467SOL     OW 4535   0.292   0.452   2.893
 1467SOL    HW1 4536   0.219   0.439   2.832
 1467SOL    HW2 4537   0.268   0.403   2.971
 1468SOL     OW 4538   3.114   3.484   2.413
 1468SOL    HW1 4539   3.078   3.525   2.334
 1468SOL    HW2 4540   3.142   3.557   2.467
 1469SOL     OW 4541   0.253   2.772   0.505
 1469SOL    HW1 4542   0.171   2.778   0.456
 1469SOL    HW2 4543   0.320   2.761   0.438
 1470SOL     OW 4544   0.631   3.602   0.358
 1470SOL    HW1 4545   0.683   3.678   0.331
 1470SOL    HW2 4546   0.541   3.632   0.355
 1471SOL     OW 4547   2.614   3.608   0.597
 1471SOL    HW1 4548   2.528   3.584   0.632
 1471SOL    HW2 4549   2.676   3.577   0.663
 1472SOL     OW 4550   1.787   2.372   0.770
 1472SOL    HW1 4551   1.881   2.382   0.784
 1472SOL    HW2 4552   1.774   2.391   0.677
 1473SOL     OW 4553   3.008   1.103   2.004
 1473SOL    HW1 4554   3.035   1.014   2.026
 1473SOL    HW2 4555   3.086   1.157   2.022
 1474SOL     OW 4556   0.069   0.464   2.644
 1474SOL    HW1 4557   0.072   0.405   2.569
 1474SOL    HW2 4558   0.098   0.549   2.610
 1475SOL     OW 4559   0.046   2.825   2.967
 1475SOL    HW1 4560   0.130   2.854   2.931
 1475SOL    HW2 4561   0.027   2.743   2.921
 1476SOL     OW 4562   1.637   1.048   3.072
 1476SOL    HW1 4563   1.582   1.112   3.028
 1476SOL    HW2 4564   1.606   1.046   3.162
 1477SOL     OW 4565   3.074   0.488   2.300
 1477SOL    HW1 4566   3.014   0.554   2.266
 1477SOL    HW2 4567   3.153   0.498   2.247
 1478SOL     OW 4568   2.577   0.523   2.596
 1478SOL    HW1 4569   2.509   0.569   2.546
 1478SOL    HW2 4570   2.550   0.432   2.595
 1479SOL     OW 4571   2.487   1.929   1.787
 1479SOL    HW1 4572   2.448   1.846   1.759
 1479SOL    HW2 4573   2.554   1.948   1.721
 1480SOL     OW 4574   1.285   1.701   2.056
 1480SOL    HW1 4575   1.304   1.760   1.983
 1480SOL    HW2 4576   1.342   1.625   2.042
 1481SOL     OW 4577   0.743   3.946   3.444
 1481SOL    HW1 4578   0.653   3.917   3.460
 1481SOL    HW2 4579   0.754   3.937   3.349
 1482SOL     OW 4580   3.498   1.122   0.635
 1482SOL    HW1 4581   3.444   1.177   0.578
 1482SOL    HW2 4582   3.442   1.048   0.658
 1483SOL     OW 4583   2.512   1.081   1.030
 1483SOL    HW1 4584   2.419   1.100   1.035
 1483SOL    HW2 4585   2.549   1.127   1.106
 1484SOL     OW 4586   2.578   3.024   0.724
 1484SOL    HW1 4587   2.602   2.957   0.788
 1484SOL    HW2 4588   2.642   3.015   0.654
 1485SOL     OW 4589   0.113   0.943   0.912
 1485SOL    HW1 4590   0.136   0.879   0.979
 1485SOL    HW2 4591   0.089   0.890   0.836
 1486SOL     OW 4592   1.030   1.377   2.657
 1486SOL    HW1 4593   1.023   1.453   2.598
 1486SOL    HW2 4594   0.963   1.392   2.724
 1487SOL     OW 4595   3.920   2.805   0.423
 1487SOL    HW1 4596   3.934   2.847   0.339
 1487SOL    HW2 4597   3.859   2.863   0.469
 1488SOL     OW 4598   3.679   0.900   3.333
 1488SOL    HW1 4599   3.650   0.947   3.255
 1488SOL    HW2 4600   3.762   0.859   3.307
 1489SOL     OW 4601   0.454   2.637   1.223
 1489SOL    HW1 4602   0.416   2.550   1.238
 1489SOL    HW2 4603   0.526   2.642   1.286
 1490SOL     OW 4604   3.245   1.091   2.336
 1490SOL    HW1 4605   3.190   1.050   2.403
 1490SOL    HW2 4606   3.214   1.181   2.331
 1491SOL     OW 4607   1.301   0.398   3.871
 1491SOL    HW1 4608   1.310   0.448   3.790
 1491SOL    HW2 4609   1.352   0.449   3.935
 1492SOL     OW 4610   0.871   3.426   2.273
 1492SOL    HW1 4611   0.867   3.415   2.368
 1492SOL    HW2 4612   0.917   3.509   2.260
 1493SOL     OW 4613   3.415   0.891   1.782
 1493SOL    HW1 4614   3.412   0.987   1.787
 1493SOL    HW2 4615   3.382   0.871   1.694
 1494SOL     OW 4616   0.305   3.063   1.494
 1494SOL    HW1 4617   0.259   3.121   1.433
 1494SOL    HW2 4618   0.273   2.976   1.473
 1495SOL     OW 4619   0.378   0.860   2.624
 1495SOL    HW1 4620   0.330   0.922   2.679
 1495SOL    HW2 4621   0.426   0.915   2.561
 1496SOL     OW 4622   1.335   1.977   0.044
 1496SOL    HW1 4623   1.278   1.916   0.091
 1496SOL    HW2 4624   1.412   1.986   0.101
 1497SOL     OW 4625   0.488   3.550   2.344
 1497SOL    HW1 4626   0.560   3.486   2.340
 1497SOL    HW2 4627   0.483   3.585   2.255
 1498SOL     OW 4628   0.751   2.947   1.882
 1498SOL    HW1 4629   0.656   2.945   1.893
 1498SOL    HW2 4630   0.782   3.006   1.950
 1499SOL     OW 4631   0.758   1.867   3.860
 1499SOL    HW1 4632   0.690   1.934   3.868
 1499SOL    HW2 4633   0.748   1.812   3.938
 1500SOL     OW 4634   2.052   2.160   0.914
 1500SOL    HW1 4635   1.959   2.143   0.901
 1500SOL    HW2 4636   2.091   2.150   0.827
 1501SOL     OW 4637   3.012   0.217   2.780
 1501SOL    HW1 4638   3.103   0.236   2.759
 1501SOL    HW2 4639   2.970   0.303   2.785
 1502SOL     OW 4640   1.791   1.288   0.752
 1502SOL    HW1 4641   1.722   1.350   0.729
 1502SOL    HW2 4642   1.869   1.320   0.707
 1503SOL     OW 4643   2.722   0.109   0.394
 1503SOL    HW1 4644   2.694   0.070   0.476
 1503SOL    HW2 4645   2.671   0.190   0.387
 1504SOL     OW 4646   3.081   0.337   1.240
 1504SOL    HW1 4647   3.100   0.252   1.280
 1504SOL    HW2 4648   3.014   0.317   1.174
 1505SOL     OW 4649   3.217   2.287   3.463
 1505SOL    HW1 4650   3.268   2.264   3.385
 1505SOL    HW2 4651   3.273   2.261   3.537
 1506SOL     OW 4652   2.901   3.487   0.266
 1506SOL    HW1 4653   2.976   3.485   0.207
 1506SOL    HW2 4654   2.904   3.403   0.312
 1507SOL     OW 4655   3.082   1.795   0.862
 1507SOL    HW1 4656   3.174   1.799   0.888
 1507SOL    HW2 4657   3.052   1.886   0.865
 1508SOL     OW 4658   0.407   2.512   1.997
 1508SOL    HW1 4659   0.419   2.546   2.085
 1508SOL    HW2 4660   0.386   2.589   1.944
 1509SOL     OW 4661   0.637   0.906   3.494
 1509SOL    HW1 4662   0.626   0.989   3.448
 1509SOL    HW2 4663   0.550   0.886   3.529
 1510SOL     OW 4664   2.126   2.406   3.328
 1510SOL    HW1 4665   2.122   2.326   3.275
 1510SOL    HW2 4666   2.054   2.460   3.294
 1511SOL     OW 4667   0.282   0.052   2.445
 1511SOL    HW1 4668   0.297   0.138   2.407
 1511SOL    HW2 4669   0.201   0.021   2.404
 1512SOL     OW 4670   2.238   2.704   2.796
 1512SOL    HW1 4671   2.204   2.724   2.883
 1512SOL    HW2 4672   2.166   2.724   2.736
 1513SOL     OW 4673   0.601   3.209   2.985
 1513SOL    HW1 4674   0.618   3.294   2.945
 1513SOL    HW2 4675   0.543   3.228   3.059
 1514SOL     OW 4676   1.289   2.190   3.387
 1514SOL    HW1 4677   1.347   2.262   3.361
 1514SOL    HW2 4678   1.214   2.196   3.328
 1515SOL     OW 4679   3.869   3.268   3.225
 1515SOL    HW1 4680   3.945   3.273   3.284
 1515SOL    HW2 4681   3.822   3.190   3.254
 1516SOL     OW 4682   1.499   2.466   0.670
 1516SOL    HW1 4683   1.591   2.449   0.651
 1516SOL    HW2 4684   1.470   2.389   0.719
 1517SOL     OW 4685   3.618   1.148   1.973
 1517SOL    HW1 4686   3.599   1.239   1.991
 1517SOL    HW2 4687   3.692   1.150   1.913
 1518SOL     OW 4688   0.857   1.369   1.816
 1518SOL    HW1 4689   0.920   1.436   1.792
 1518SOL    HW2 4690   0.889   1.288   1.776
 1519SOL     OW 4691   0.935   1.213   2.992
 1519SOL    HW1 4692   0.963   1.124   3.013
 1519SOL    HW2 4693   0.993   1.269   3.043
 1520SOL     OW 4694   2.246   1.026   2.869
 1520SOL    HW1 4695   2.249   0.932   2.891
 1520SOL    HW2 4696   2.337   1.048   2.850
 1521SOL     OW 4697   2.409   1.674   3.471
 1521SOL    HW1 4698   2.472   1.723   3.419
 1521SOL    HW2 4699   2.325   1.687   3.428
 1522SOL     OW 4700   1.912   2.688   0.667
 1522SOL    HW1 4701   1.872   2.765   0.709
 1522SOL    HW2 4702   1.949   2.638   0.740
 1523SOL     OW 4703   2.398   1.619   2.667
 1523SOL    HW1 4704   2.335   1.683   2.698
 1523SOL    HW2 4705   2.360   1.534   2.691
 1524SOL     OW 4706   1.706   3.850   0.432
 1524SOL    HW1 4707   1.640   3.815   0.373
 1524SOL    HW2 4708   1.725   3.777   0.492
 1525SOL     OW 4709   0.469   2.692   0.953
 1525SOL    HW1 4710   0.443   2.657   1.038
 1525SOL    HW2 4711   0.467   2.616   0.895
 1526SOL     OW 4712   3.594   0.048   2.170
 1526SOL    HW1 4713   3.641   0.121   2.130
 1526SOL    HW2 4714   3.632  -0.030   2.131
 1527SOL     OW 4715   3.320   1.823   3.052
 1527SOL    HW1 4716   3.328   1.731   3.078
 1527SOL    HW2 4717   3.286   1.820   2.963
 1528SOL     OW 4718   3.129   2.742   2.918
 1528SOL    HW1 4719   3.137   2.826   2.965
 1528SOL    HW2 4720   3.117   2.768   2.827
 1529SOL     OW 4721   2.877   2.119   1.169
 1529SOL    HW1 4722   2.895   2.102   1.076
 1529SOL    HW2 4723   2.811   2.188   1.168
 1530SOL     OW 4724   0.449   3.942   2.237
 1530SOL    HW1 4725   0.394   3.959   2.314
 1530SOL    HW2 4726   0.508   3.873   2.266
 1531SOL     OW 4727   0.069   3.939   2.291
 1531SOL    HW1 4728   0.057   4.006   2.223
 1531SOL    HW2 4729   0.042   3.857   2.250
 1532SOL     OW 4730   1.056   1.420   3.150
 1532SOL    HW1 4731   1.132   1.478   3.142
 1532SOL    HW2 4732   1.069   1.374   3.232
 1533SOL     OW 4733   0.473   0.044   0.502
 1533SOL    HW1 4734   0.556   0.065   0.458
 1533SOL    HW2 4735   0.410   0.106   0.466
 1534SOL     OW 4736   0.545   3.632   3.572
 1534SOL    HW1 4737   0.528   3.677   3.489
 1534SOL    HW2 4738   0.634   3.598   3.563
 1535SOL     OW 4739   0.945   1.152   1.628
 1535SOL    HW1 4740   0.851   1.137   1.615
 1535SOL    HW2 4741   0.982   1.065   1.638
 1536SOL     OW 4742   1.663   2.147   0.718
 1536SOL    HW1 4743   1.718   2.082   0.764
 1536SOL    HW2 4744   1.700   2.231   0.743
 1537SOL     OW 4745   2.159   1.832   1.472
 1537SOL    HW1 4746   2.156   1.740   1.444
 1537SOL    HW2 4747   2.185   1.880   1.393
 1538SOL     OW 4748   0.559   1.782   3.606
 1538SOL    HW1 4749   0.637   1.748   3.563
 1538SOL    HW2 4750   0.487   1.760   3.547
 1539SOL     OW 4751   3.394   3.183   1.929
 1539SOL    HW1 4752   3.382   3.099   1.884
 1539SOL    HW2 4753   3.340   3.245   1.879
 1540SOL     OW 4754   1.853   2.196   3.112
 1540SOL    HW1 4755   1.803   2.164   3.038
 1540SOL    HW2 4756   1.870   2.288   3.091
 1541SOL     OW 4757   1.377   0.800   3.174
 1541SOL    HW1 4758   1.384   0.713   3.133
 1541SOL    HW2 4759   1.287   0.804   3.207
 1542SOL     OW 4760   3.082   2.302   1.237
 1542SOL    HW1 4761   3.014   2.237   1.218
 1542SOL    HW2 4762   3.034   2.380   1.261
 1543SOL     OW 4763   3.455   2.691   0.159
 1543SOL    HW1 4764   3.536   2.640   0.163
 1543SOL    HW2 4765   3.391   2.631   0.123
 1544SOL     OW 4766   1.602   1.919   2.583
 1544SOL    HW1 4767   1.637   1.989   2.639
 1544SOL    HW2 4768   1.600   1.842   2.640
 1545SOL     OW 4769   1.735   3.361   1.945
 1545SOL    HW1 4770   1.825   3.360   1.978
 1545SOL    HW2 4771   1.729   3.284   1.889
 1546SOL     OW 4772   2.931   3.912   2.655
 1546SOL    HW1 4773   2.954   3.996   2.693
 1546SOL    HW2 4774   2.841   3.896   2.683
 1547SOL     OW 4775   2.365   3.869   3.736
 1547SOL    HW1 4776   2.341   3.797   3.795
 1547SOL    HW2 4777   2.460   3.878   3.747
 1548SOL     OW 4778   1.937   1.022   3.428
 1548SOL    HW1 4779   2.029   1.022   3.452
 1548SOL    HW2 4780   1.937   1.003   3.334
 1549SOL     OW 4781   2.917   1.800   2.251
 1549SOL    HW1 4782   2.987   1.768   2.195
 1549SOL    HW2 4783   2.906   1.732   2.317
 1550SOL     OW 4784   1.160   3.929   3.748
 1550SOL    HW1 4785   1.069   3.915   3.723
 1550SOL    HW2 4786   1.202   3.964   3.670
 1551SOL     OW 4787   0.309   1.124   1.685
 1551SOL    HW1 4788   0.251   1.062   1.729
 1551SOL    HW2 4789   0.393   1.114   1.730
 1552SOL     OW 4790   0.957   2.920   2.576
 1552SOL    HW1 4791   0.870   2.915   2.617
 1552SOL    HW2 4792   1.017   2.934   2.650
 1553SOL     OW 4793   1.458   1.173   3.555
 1553SOL    HW1 4794   1.529   1.222   3.596
 1553SOL    HW2 4795   1.496   1.136   3.476
 1554SOL     OW 4796   2.258   2.858   0.889
 1554SOL    HW1 4797   2.274   2.826   0.800
 1554SOL    HW2 4798   2.291   2.948   0.888
 1555SOL     OW 4799   0.298   0.120   1.655
 1555SOL    HW1 4800   0.367   0.150   1.714
 1555SOL    HW2 4801   0.344   0.070   1.588
 1556SOL     OW 4802   1.194   0.832   2.197
 1556SOL    HW1 4803   1.251   0.908   2.206
 1556SOL    HW2 4804   1.223   0.772   2.265
 1557SOL     OW 4805   2.560   0.045   1.735
 1557SOL    HW1 4806   2.530   0.133   1.713
 1557SOL    HW2 4807   2.480  -0.006   1.744
 1558SOL     OW 4808   2.717   3.210   2.970
 1558SOL    HW1 4809   2.697   3.286   2.916
 1558SOL    HW2 4810   2.777   3.243   3.037
 1559SOL     OW 4811   3.418   0.724   2.601
 1559SOL    HW1 4812   3.340   0.732   2.546
 1559SOL    HW2 4813   3.383   0.695   2.686
 1560SOL     OW 4814   3.128   3.058   0.688
 1560SOL    HW1 4815   3.162   2.992   0.748
 1560SOL    HW2 4816   3.124   3.138   0.741
 1561SOL     OW 4817   1.770   3.192   3.699
 1561SOL    HW1 4818   1.802   3.215   3.612
 1561SOL    HW2 4819   1.849   3.182   3.753
 1562SOL     OW 4820   2.978   0.303   0.343
 1562SOL    HW1 4821   2.981   0.215   0.306
 1562SOL    HW2 4822   2.907   0.346   0.296
 1563SOL     OW 4823   1.437   2.112   0.860
 1563SOL    HW1 4824   1.357   2.159   0.838
 1563SOL    HW2 4825   1.508   2.166   0.824
 1564SOL     OW 4826   1.479   2.456   2.462
 1564SOL    HW1 4827   1.404   2.442   2.405
 1564SOL    HW2 4828   1.544   2.392   2.433
 1565SOL     OW 4829   3.251   2.461   2.812
 1565SOL    HW1 4830   3.191   2.511   2.866
 1565SOL    HW2 4831   3.196   2.417   2.748
 1566SOL     OW 4832   2.409   0.924   1.840
 1566SOL    HW1 4833   2.369   0.908   1.754
 1566SOL    HW2 4834   2.337   0.953   1.895
 1567SOL     OW 4835   1.159   0.071   2.415
 1567SOL    HW1 4836   1.152   0.073   2.320
 1567SOL    HW2 4837   1.251   0.091   2.432
 1568SOL     OW 4838   3.021   2.987   0.138
 1568SOL    HW1 4839   3.063   2.984   0.224
 1568SOL    HW2 4840   3.094   2.983   0.076
 1569SOL     OW 4841   3.829   2.555   2.388
 1569SOL    HW1 4842   3.854   2.497   2.460
 1569SOL    HW2 4843   3.792   2.632   2.431
 1570SOL     OW 4844   0.858   2.321   3.114
 1570SOL    HW1 4845   0.906   2.338   3.033
 1570SOL    HW2 4846   0.825   2.406   3.142
 1571SOL     OW 4847   2.499   3.866   2.456
 1571SOL    HW1 4848   2.486   3.834   2.367
 1571SOL    HW2 4849   2.419   3.913   2.477
 1572SOL     OW 4850   3.677   3.511   2.652
 1572SOL    HW1 4851   3.709   3.434   2.698
 1572SOL    HW2 4852   3.734   3.582   2.682
 1573SOL     OW 4853   1.709   3.928   3.286
 1573SOL    HW1 4854   1.660   4.006   3.311
 1573SOL    HW2 4855   1.652   3.881   3.226
 1574SOL     OW 4856   3.756   0.393   2.704
 1574SOL    HW1 4857   3.727   0.478   2.670
 1574SOL    HW2 4858   3.851   0.394   2.693
 1575SOL     OW 4859   2.069   0.659   2.362
 1575SOL    HW1 4860   2.017   0.684   2.285
 1575SOL    HW2 4861   2.142   0.720   2.363
 1576SOL     OW 4862   0.159   0.729   1.054
 1576SOL    HW1 4863   0.164   0.703   1.146
 1576SOL    HW2 4864   0.113   0.656   1.012
 1577SOL     OW 4865   3.889   1.563   3.646
 1577SOL    HW1 4866   3.888   1.572   3.551
 1577SOL    HW2 4867   3.871   1.470   3.661
 1578SOL     OW 4868   0.982   1.847   1.216
 1578SOL    HW1 4869   1.077   1.840   1.218
 1578SOL    HW2 4870   0.965   1.939   1.239
 1579SOL     OW 4871   0.481   1.725   0.976
 1579SOL    HW1 4872   0.512   1.635   0.973
 1579SOL    HW2 4873   0.544   1.770   1.033
 1580SOL     OW 4874   2.042   2.441   0.042
 1580SOL    HW1 4875   1.991   2.370   0.080
 1580SOL    HW2 4876   2.088   2.401  -0.032
 1581SOL     OW 4877   1.762   1.326   2.389
 1581SOL    HW1 4878   1.804   1.240   2.387
 1581SOL    HW2 4879   1.680   1.312   2.437
 1582SOL     OW 4880   2.020   3.671   0.256
 1582SOL    HW1 4881   2.036   3.758   0.220
 1582SOL    HW2 4882   2.019   3.684   0.351
 1583SOL     OW 4883   2.478   3.077   3.287
 1583SOL    HW1 4884   2.570   3.096   3.303
 1583SOL    HW2 4885   2.431   3.121   3.358
 1584SOL     OW 4886   0.937   1.714   1.957
 1584SOL    HW1 4887   0.842   1.707   1.970
 1584SOL    HW2 4888   0.975   1.664   2.030
 1585SOL     OW 4889   2.519   2.188   1.885
 1585SOL    HW1 4890   2.528   2.109   1.832
 1585SOL    HW2 4891   2.458   2.162   1.955
 1586SOL     OW 4892   1.696   0.705   2.630
 1586SOL    HW1 4893   1.759   0.702   2.702
 1586SOL    HW2 4894   1.612   0.684   2.671
 1587SOL     OW 4895   2.815   3.210   0.053
 1587SOL    HW1 4896   2.862   3.243  -0.023
 1587SOL    HW2 4897   2.857   3.127   0.074
 1588SOL     OW 4898   0.789   2.066   2.193
 1588SOL    HW1 4899   0.710   2.040   2.239
 1588SOL    HW2 4900   0.859   2.016   2.236
 1589SOL     OW 4901   0.038   0.863   3.178
 1589SOL    HW1 4902  -0.036   0.921   3.162
 1589SOL    HW2 4903   0.114   0.910   3.143
 1590SOL     OW 4904   0.357   3.243   2.072
 1590SOL    HW1 4905   0.323   3.237   2.161
 1590SOL    HW2 4906   0.452   3.246   2.083
 1591SOL     OW 4907   3.381   2.458   0.434
 1591SOL    HW1 4908   3.460   2.409   0.412
 1591SOL    HW2 4909   3.414   2.542   0.467
 1592SOL     OW 4910   0.367   1.669   3.100
 1592SOL    HW1 4911   0.338   1.594   3.049
 1592SOL    HW2 4912   0.296   1.733   3.092
 1593SOL     OW 4913   2.771   2.376   2.792
 1593SOL    HW1 4914   2.699   2.366   2.854
 1593SOL    HW2 4915   2.844   2.328   2.831
 1594SOL     OW 4916   2.904   2.045   3.798
 1594SOL    HW1 4917   2.971   2.111   3.816
 1594SOL    HW2 4918   2.822   2.093   3.799
 1595SOL     OW 4919   2.190   1.250   1.268
 1595SOL    HW1 4920   2.230   1.217   1.348
 1595SOL    HW2 4921   2.226   1.195   1.198
 1596SOL     OW 4922   0.404   1.923   2.788
 1596SOL    HW1 4923   0.461   1.937   2.713
 1596SOL    HW2 4924   0.374   2.011   2.812
 1597SOL     OW 4925   1.730   1.370   1.855
 1597SOL    HW1 4926   1.694   1.450   1.817
 1597SOL    HW2 4927   1.716   1.380   1.949
 1598SOL     OW 4928   0.901   3.705   1.973
 1598SOL    HW1 4929   0.912   3.779   1.913
 1598SOL    HW2 4930   0.985   3.699   2.018
 1599SOL     OW 4931   3.020   0.055   3.275
 1599SOL    HW1 4932   2.927   0.034   3.275
 1599SOL    HW2 4933   3.038   0.083   3.185
 1600SOL     OW 4934   3.682   2.048   1.946
 1600SOL    HW1 4935   3.714   1.992   1.876
 1600SOL    HW2 4936   3.626   2.112   1.902
 1601SOL     OW 4937   0.914   2.610   2.325
 1601SOL    HW1 4938   1.004   2.636   2.307
 1601SOL    HW2 4939   0.865   2.633   2.246
 1602SOL     OW 4940   0.290   2.584   0.092
 1602SOL    HW1 4941   0.234   2.530   0.037
 1602SOL    HW2 4942   0.259   2.569   0.181
 1603SOL     OW 4943   3.773   1.886   1.442
 1603SOL    HW1 4944   3.810   1.866   1.355
 1603SOL    HW2 4945   3.843   1.864   1.503
 1604SOL     OW 4946   3.023   3.697   1.616
 1604SOL    HW1 4947   3.079   3.635   1.569
 1604SOL    HW2 4948   2.939   3.652   1.623
 1605SOL     OW 4949   1.379   0.211   0.998
 1605SOL    HW1 4950   1.354   0.216   0.906
 1605SOL    HW2 4951   1.406   0.120   1.011
 1606SOL     OW 4952   1.782   1.703   3.176
 1606SOL    HW1 4953   1.823   1.789   3.187
 1606SOL    HW2 4954   1.759   1.676   3.265
 1607SOL     OW 4955   2.522   1.095   2.885
 1607SOL    HW1 4956   2.587   1.062   2.946
 1607SOL    HW2 4957   2.550   1.061   2.800
 1608SOL     OW 4958   2.017   3.636   0.626
 1608SOL    HW1 4959   2.101   3.682   0.630
 1608SOL    HW2 4960   2.034   3.561   0.569
 1609SOL     OW 4961   0.950   1.711   1.530
 1609SOL    HW1 4962   0.913   1.780   1.586
 1609SOL    HW2 4963   0.873   1.667   1.493
 1610SOL     OW 4964   0.138   0.361   3.445
 1610SOL    HW1 4965   0.180   0.423   3.385
 1610SOL    HW2 4966   0.201   0.349   3.515
 1611SOL     OW 4967   2.630   0.905   0.053
 1611SOL    HW1 4968   2.628   0.915  -0.042
 1611SOL    HW2 4969   2.723   0.900   0.075
 1612SOL     OW 4970   0.473   3.119   2.760
 1612SOL    HW1 4971   0.472   3.120   2.855
 1612SOL    HW2 4972   0.550   3.065   2.738
 1613SOL     OW 4973   3.604   2.659   0.513
 1613SOL    HW1 4974   3.675   2.636   0.454
 1613SOL    HW2 4975   3.641   2.647   0.601
 1614SOL     OW 4976   2.464   1.231   0.472
 1614SOL    HW1 4977   2.410   1.298   0.514
 1614SOL    HW2 4978   2.508   1.187   0.545
 1615SOL     OW 4979   2.571   3.415   1.759
 1615SOL    HW1 4980   2.561   3.340   1.818
 1615SOL    HW2 4981   2.482   3.434   1.729
 1616SOL     OW 4982   2.278   3.388   1.839
 1616SOL    HW1 4983   2.273   3.423   1.928
 1616SOL    HW2 4984   2.334   3.310   1.847
 1617SOL     OW 4985   1.887   0.977   3.019
 1617SOL    HW1 4986   1.883   1.027   2.938
 1617SOL    HW2 4987   1.796   0.973   3.049
 1618SOL     OW 4988   3.574   3.366   3.833
 1618SOL    HW1 4989   3.630   3.289   3.820
 1618SOL    HW2 4990   3.527   3.348   3.914
 1619SOL     OW 4991   3.331   1.441   2.849
 1619SOL    HW1 4992   3.388   1.507   2.809
 1619SOL    HW2 4993   3.243   1.479   2.843
 1620SOL     OW 4994   3.085   1.524   2.542
 1620SOL    HW1 4995   3.056   1.465   2.612
 1620SOL    HW2 4996   3.161   1.480   2.503
 1621SOL     OW 4997   0.067   3.136   2.064
 1621SOL    HW1 4998   0.159   3.162   2.064
 1621SOL    HW2 4999   0.070   3.040   2.067
 1622SOL     OW 5000   1.929   3.149   0.967
 1622SOL    HW1 5001   1.956   3.057   0.971
 1622SOL    HW2 5002   1.995   3.195   1.020
 1623SOL     OW 5003   0.443   3.899   1.495
 1623SOL    HW1 5004   0.458   3.833   1.563
 1623SOL    HW2 5005   0.526   3.905   1.448
 1624SOL     OW 5006   0.998   1.295   1.381
 1624SOL    HW1 5007   1.053   1.373   1.373
 1624SOL    HW2 5008   1.003   1.272   1.474
 1625SOL     OW 5009   2.611   0.518   3.610
 1625SOL    HW1 5010   2.659   0.450   3.657
 1625SOL    HW2 5011   2.550   0.470   3.554
 1626SOL     OW 5012   0.310   2.801   3.393
 1626SOL    HW1 5013   0.310   2.746   3.471
 1626SOL    HW2 5014   0.336   2.888   3.424
 1627SOL     OW 5015   2.397   2.280   2.168
 1627SOL    HW1 5016   2.370   2.212   2.230
 1627SOL    HW2 5017   2.404   2.359   2.221
 1628SOL     OW 5018   1.585   1.902   3.079
 1628SOL    HW1 5019   1.602   1.812   3.106
 1628SOL    HW2 5020   1.506   1.927   3.129
 1629SOL     OW 5021   1.765   3.056   1.761
 1629SOL    HW1 5022   1.679   3.026   1.790
 1629SOL    HW2 5023   1.823   2.982   1.778
 1630SOL     OW 5024   3.302   1.345   2.517
 1630SOL    HW1 5025   3.304   1.333   2.612
 1630SOL    HW2 5026   3.391   1.324   2.488
 1631SOL     OW 5027   2.412   0.295   0.495
 1631SOL    HW1 5028   2.332   0.315   0.447
 1631SOL    HW2 5029   2.388   0.223   0.553
 1632SOL     OW 5030   1.158   2.281   3.144
 1632SOL    HW1 5031   1.064   2.293   3.150
 1632SOL    HW2 5032   1.196   2.363   3.175
 1633SOL     OW 5033   0.242   3.964   1.248
 1633SOL    HW1 5034   0.301   3.988   1.320
 1633SOL    HW2 5035   0.263   3.873   1.229
 1634SOL     OW 5036   3.250   0.302   1.720
 1634SOL    HW1 5037   3.181   0.289   1.786
 1634SOL    HW2 5038   3.210   0.359   1.655
 1635SOL     OW 5039   2.075   1.802   1.755
 1635SOL    HW1 5040   2.111   1.801   1.667
 1635SOL    HW2 5041   2.076   1.710   1.782
 1636SOL     OW 5042   3.078   1.939   3.300
 1636SOL    HW1 5043   2.998   1.929   3.249
 1636SOL    HW2 5044   3.145   1.893   3.249
 1637SOL     OW 5045   2.284   0.376   3.253
 1637SOL    HW1 5046   2.189   0.386   3.258
 1637SOL    HW2 5047   2.303   0.382   3.159
 1638SOL     OW 5048   1.878   2.900   0.139
 1638SOL    HW1 5049   1.893   2.856   0.055
 1638SOL    HW2 5050   1.895   2.992   0.121
 1639SOL     OW 5051   0.676   2.950   3.693
 1639SOL    HW1 5052   0.600   2.997   3.660
 1639SOL    HW2 5053   0.639   2.874   3.739
 1640SOL     OW 5054   1.906   1.717   0.977
 1640SOL    HW1 5055   1.972   1.764   1.028
 1640SOL    HW2 5056   1.953   1.644   0.938
 1641SOL     OW 5057   0.933   1.531   1.016
 1641SOL    HW1 5058   1.021   1.568   1.009
 1641SOL    HW2 5059   0.879   1.603   1.049
 1642SOL     OW 5060   2.503   0.390   3.399
 1642SOL    HW1 5061   2.433   0.364   3.340
 1642SOL    HW2 5062   2.558   0.448   3.346
 1643SOL     OW 5063   0.563   0.589   3.727
 1643SOL    HW1 5064   0.656   0.568   3.740
 1643SOL    HW2 5065   0.516   0.522   3.777
 1644SOL     OW 5066   2.343   3.282   2.085
 1644SOL    HW1 5067   2.268   3.236   2.122
 1644SOL    HW2 5068   2.398   3.304   2.160
 1645SOL     OW 5069   3.252   2.919   2.394
 1645SOL    HW1 5070   3.216   3.007   2.385
 1645SOL    HW2 5071   3.180   2.861   2.370
 1646SOL     OW 5072   3.746   2.690   0.787
 1646SOL    HW1 5073   3.721   2.696   0.879
 1646SOL    HW2 5074   3.841   2.701   0.787
 1647SOL     OW 5075   3.161   1.710   0.455
 1647SOL    HW1 5076   3.093   1.775   0.473
 1647SOL    HW2 5077   3.113   1.632   0.427
 1648SOL     OW 5078   1.094   1.568   1.336
 1648SOL    HW1 5079   1.055   1.609   1.413
 1648SOL    HW2 5080   1.161   1.631   1.307
 1649SOL     OW 5081   3.138   2.487   2.328
 1649SOL    HW1 5082   3.059   2.433   2.332
 1649SOL    HW2 5083   3.105   2.576   2.316
 1650SOL     OW 5084   3.520   3.655   1.589
 1650SOL    HW1 5085   3.439   3.673   1.636
 1650SOL    HW2 5086   3.520   3.717   1.516
 1651SOL     OW 5087   1.148   1.739   2.889
 1651SOL    HW1 5088   1.192   1.675   2.945
 1651SOL    HW2 5089   1.106   1.799   2.950
 1652SOL     OW 5090   2.132   1.297   0.006
 1652SOL    HW1 5091   2.082   1.223  -0.030
 1652SOL    HW2 5092   2.213   1.257   0.039
 1653SOL     OW 5093   0.178   1.063   2.330
 1653SOL    HW1 5094   0.165   1.062   2.235
 1653SOL    HW2 5095   0.152   1.152   2.357
 1654SOL     OW 5096   1.831   1.582   2.460
 1654SOL    HW1 5097   1.795   1.497   2.434
 1654SOL    HW2 5098   1.837   1.631   2.378
 1655SOL     OW 5099   3.858   3.064   2.800
 1655SOL    HW1 5100   3.912   2.991   2.829
 1655SOL    HW2 5101   3.775   3.023   2.773
 1656SOL     OW 5102   0.658   2.798   3.359
 1656SOL    HW1 5103   0.588   2.862   3.348
 1656SOL    HW2 5104   0.679   2.801   3.453
 1657SOL     OW 5105   0.475   1.948   2.014
 1657SOL    HW1 5106   0.439   2.019   2.066
 1657SOL    HW2 5107   0.551   1.986   1.970
 1658SOL     OW 5108   0.659   2.745   2.795
 1658SOL    HW1 5109   0.606   2.734   2.873
 1658SOL    HW2 5110   0.691   2.835   2.799
 1659SOL     OW 5111   3.451   2.796   3.225
 1659SOL    HW1 5112   3.537   2.806   3.184
 1659SOL    HW2 5113   3.400   2.747   3.161
 1660SOL     OW 5114   2.953   0.207   3.047
 1660SOL    HW1 5115   2.860   0.187   3.037
 1660SOL    HW2 5116   2.990   0.192   2.960
 1661SOL     OW 5117   0.867   3.695   0.845
 1661SOL    HW1 5118   0.903   3.720   0.760
 1661SOL    HW2 5119   0.884   3.601   0.851
 1662SOL     OW 5120   3.036   2.397   0.057
 1662SOL    HW1 5121   3.061   2.345   0.134
 1662SOL    HW2 5122   3.049   2.487   0.085
 1663SOL     OW 5123   3.165   2.351   2.578
 1663SOL    HW1 5124   3.172   2.415   2.507
 1663SOL    HW2 5125   3.178   2.266   2.536
 1664SOL     OW 5126   1.376   3.847   0.602
 1664SOL    HW1 5127   1.358   3.865   0.510
 1664SOL    HW2 5128   1.399   3.754   0.604
 1665SOL     OW 5129   2.280   2.392   1.934
 1665SOL    HW1 5130   2.191   2.400   1.968
 1665SOL    HW2 5131   2.333   2.371   2.011
 1666SOL     OW 5132   2.279   3.138   0.882
 1666SOL    HW1 5133   2.281   3.151   0.977
 1666SOL    HW2 5134   2.278   3.226   0.845
 1667SOL     OW 5135   1.774   2.990   2.820
 1667SOL    HW1 5136   1.855   2.957   2.780
 1667SOL    HW2 5137   1.805   3.043   2.893
 1668SOL     OW 5138   2.284   1.234   1.735
 1668SOL    HW1 5139   2.222   1.306   1.730
 1668SOL    HW2 5140   2.268   1.194   1.821
 1669SOL     OW 5141   0.637   1.184   3.044
 1669SOL    HW1 5142   0.732   1.179   3.033
 1669SOL    HW2 5143   0.601   1.169   2.957
 1670SOL     OW 5144   1.036   1.987   1.948
 1670SOL    HW1 5145   1.105   2.005   2.012
 1670SOL    HW2 5146   1.010   1.897   1.966
 1671SOL     OW 5147   1.416   0.637   1.757
 1671SOL    HW1 5148   1.478   0.570   1.728
 1671SOL    HW2 5149   1.440   0.715   1.709
 1672SOL     OW 5150   0.473   1.620   3.807
 1672SOL    HW1 5151   0.496   1.698   3.757
 1672SOL    HW2 5152   0.382   1.603   3.786
 1673SOL     OW 5153   3.456   3.630   1.267
 1673SOL    HW1 5154   3.464   3.664   1.177
 1673SOL    HW2 5155   3.520   3.559   1.271
 1674SOL     OW 5156   1.907   1.686   2.212
 1674SOL    HW1 5157   1.837   1.641   2.165
 1674SOL    HW2 5158   1.959   1.727   2.143
 1675SOL     OW 5159   1.038   1.025   1.913
 1675SOL    HW1 5160   1.047   0.978   1.830
 1675SOL    HW2 5161   1.108   0.989   1.968
 1676SOL     OW 5162   0.608   1.965   0.465
 1676SOL    HW1 5163   0.640   1.879   0.438
 1676SOL    HW2 5164   0.515   1.952   0.480
 1677SOL     OW 5165   2.110   0.016   3.838
 1677SOL    HW1 5166   2.055   0.091   3.862
 1677SOL    HW2 5167   2.193   0.056   3.810
 1678SOL     OW 5168   1.672   0.283   2.848
 1678SOL    HW1 5169   1.717   0.360   2.882
 1678SOL    HW2 5170   1.673   0.296   2.753
 1679SOL     OW 5171   3.678   3.171   0.680
 1679SOL    HW1 5172   3.644   3.184   0.591
 1679SOL    HW2 5173   3.602   3.186   0.736
 1680SOL     OW 5174   0.595   2.342   1.820
 1680SOL    HW1 5175   0.543   2.392   1.883
 1680SOL    HW2 5176   0.683   2.379   1.827
 1681SOL     OW 5177   0.898   2.389   3.925
 1681SOL    HW1 5178   0.981   2.388   3.974
 1681SOL    HW2 5179   0.924   2.374   3.834
 1682SOL     OW 5180   2.223   3.871   0.730
 1682SOL    HW1 5181   2.264   3.880   0.644
 1682SOL    HW2 5182   2.145   3.925   0.725
 1683SOL     OW 5183   0.308   3.493   1.818
 1683SOL    HW1 5184   0.220   3.457   1.831
 1683SOL    HW2 5185   0.353   3.429   1.763
 1684SOL     OW 5186   3.738   3.317   2.171
 1684SOL    HW1 5187   3.813   3.375   2.183
 1684SOL    HW2 5188   3.686   3.359   2.102
 1685SOL     OW 5189   0.269   2.449   3.616
 1685SOL    HW1 5190   0.296   2.541   3.618
 1685SOL    HW2 5191   0.272   2.420   3.707
 1686SOL     OW 5192   0.681   3.348   2.106
 1686SOL    HW1 5193   0.610   3.413   2.096
 1686SOL    HW2 5194   0.748   3.395   2.156
 1687SOL     OW 5195   3.491   2.654   2.777
 1687SOL    HW1 5196   3.572   2.605   2.764
 1687SOL    HW2 5197   3.421   2.594   2.750
 1688SOL     OW 5198   3.397   0.341   3.706
 1688SOL    HW1 5199   3.323   0.382   3.662
 1688SOL    HW2 5200   3.373   0.248   3.711
 1689SOL     OW 5201   2.278   0.700   3.098
 1689SOL    HW1 5202   2.306   0.719   3.009
 1689SOL    HW2 5203   2.183   0.690   3.092
 1690SOL     OW 5204   0.415   2.421   2.725
 1690SOL    HW1 5205   0.354   2.395   2.655
 1690SOL    HW2 5206   0.363   2.416   2.805
 1691SOL     OW 5207   2.574   1.993   0.285
 1691SOL    HW1 5208   2.663   1.960   0.299
 1691SOL    HW2 5209   2.584   2.088   0.278
 1692SOL     OW 5210   0.653   1.138   3.370
 1692SOL    HW1 5211   0.656   1.167   3.279
 1692SOL    HW2 5212   0.672   1.217   3.421
 1693SOL     OW 5213   1.348   1.347   1.405
 1693SOL    HW1 5214   1.329   1.391   1.322
 1693SOL    HW2 5215   1.332   1.415   1.472
 1694SOL     OW 5216   0.153   3.295   3.507
 1694SOL    HW1 5217   0.158   3.383   3.470
 1694SOL    HW2 5218   0.180   3.237   3.436
 1695SOL     OW 5219   2.487   2.240   2.590
 1695SOL    HW1 5220   2.433   2.305   2.636
 1695SOL    HW2 5221   2.552   2.292   2.542
 1696SOL     OW 5222   2.046   2.366   2.511
 1696SOL    HW1 5223   1.971   2.424   2.498
 1696SOL    HW2 5224   2.022   2.312   2.586
 1697SOL     OW 5225   0.777   0.373   1.882
 1697SOL    HW1 5226   0.803   0.461   1.856
 1697SOL    HW2 5227   0.822   0.358   1.964
 1698SOL     OW 5228   0.265   2.858   0.754
 1698SOL    HW1 5229   0.208   2.844   0.830
 1698SOL    HW2 5230   0.215   2.826   0.680
 1699SOL     OW 5231   2.902   1.639   1.088
 1699SOL    HW1 5232   2.988   1.656   1.050
 1699SOL    HW2 5233   2.868   1.725   1.112
 1700SOL     OW 5234   0.316   0.204   3.638
 1700SOL    HW1 5235   0.227   0.174   3.623
 1700SOL    HW2 5236   0.357   0.204   3.551
 1701SOL     OW 5237   0.443   1.522   3.535
 1701SOL    HW1 5238   0.426   1.464   3.609
 1701SOL    HW2 5239   0.356   1.541   3.499
 1702SOL     OW 5240   0.541   1.206   2.597
 1702SOL    HW1 5241   0.543   1.185   2.503
 1702SOL    HW2 5242   0.632   1.193   2.625
 1703SOL     OW 5243   3.460   3.174   3.094
 1703SOL    HW1 5244   3.407   3.245   3.058
 1703SOL    HW2 5245   3.409   3.143   3.169
 1704SOL     OW 5246   2.771   3.595   1.661
 1704SOL    HW1 5247   2.716   3.550   1.726
 1704SOL    HW2 5248   2.752   3.688   1.674
 1705SOL     OW 5249   3.046   2.981   3.627
 1705SOL    HW1 5250   3.048   2.895   3.585
 1705SOL    HW2 5251   3.022   2.963   3.718
 1706SOL     OW 5252   0.166   2.880   3.835
 1706SOL    HW1 5253   0.133   2.941   3.769
 1706SOL    HW2 5254   0.179   2.933   3.913
 1707SOL     OW 5255   1.845   3.651   1.597
 1707SOL    HW1 5256   1.811   3.561   1.590
 1707SOL    HW2 5257   1.883   3.669   1.511
 1708SOL     OW 5258   1.358   3.658   1.053
 1708SOL    HW1 5259   1.319   3.652   0.965
 1708SOL    HW2 5260   1.446   3.622   1.043
 1709SOL     OW 5261   3.696   1.759   3.620
 1709SOL    HW1 5262   3.627   1.714   3.668
 1709SOL    HW2 5263   3.777   1.717   3.648
 1710SOL     OW 5264   0.209   1.330   0.361
 1710SOL    HW1 5265   0.192   1.310   0.453
 1710SOL    HW2 5266   0.253   1.415   0.363
 1711SOL     OW 5267   0.633   3.276   2.609
 1711SOL    HW1 5268   0.631   3.209   2.540
 1711SOL    HW2 5269   0.554   3.260   2.661
 1712SOL     OW 5270   2.908   1.100   0.540
 1712SOL    HW1 5271   2.879   1.169   0.480
 1712SOL    HW2 5272   2.994   1.075   0.507
 1713SOL     OW 5273   0.285   1.890   0.434
 1713SOL    HW1 5274   0.241   1.975   0.444
 1713SOL    HW2 5275   0.273   1.847   0.518
 1714SOL     OW 5276   0.591   2.354   0.922
 1714SOL    HW1 5277   0.602   2.347   1.017
 1714SOL    HW2 5278   0.672   2.392   0.890
 1715SOL     OW 5279   0.102   2.014   0.826
 1715SOL    HW1 5280   0.190   1.990   0.856
 1715SOL    HW2 5281   0.044   1.968   0.887
 1716SOL     OW 5282   1.714   3.597   3.198
 1716SOL    HW1 5283   1.715   3.602   3.103
 1716SOL    HW2 5284   1.631   3.637   3.223
 1717SOL     OW 5285   3.409   1.215   2.982
 1717SOL    HW1 5286   3.342   1.236   3.046
 1717SOL    HW2 5287   3.426   1.297   2.937
 1718SOL     OW 5288   1.271   1.596   3.110
 1718SOL    HW1 5289   1.364   1.584   3.089
 1718SOL    HW2 5290   1.271   1.631   3.199
 1719SOL     OW 5291   3.549   3.485   0.567
 1719SOL    HW1 5292   3.561   3.463   0.474
 1719SOL    HW2 5293   3.478   3.428   0.596
 1720SOL     OW 5294   1.972   2.740   2.443
 1720SOL    HW1 5295   1.948   2.649   2.427
 1720SOL    HW2 5296   2.029   2.762   2.369
 1721SOL     OW 5297   0.505   3.704   1.664
 1721SOL    HW1 5298   0.457   3.651   1.727
 1721SOL    HW2 5299   0.476   3.671   1.578
 1722SOL     OW 5300   1.076   2.582   1.338
 1722SOL    HW1 5301   1.042   2.653   1.392
 1722SOL    HW2 5302   1.023   2.506   1.362
 1723SOL     OW 5303   1.420   3.452   1.448
 1723SOL    HW1 5304   1.475   3.529   1.430
 1723SOL    HW2 5305   1.465   3.380   1.404
 1724SOL     OW 5306   0.892   3.491   3.005
 1724SOL    HW1 5307   0.949   3.516   2.932
 1724SOL    HW2 5308   0.807   3.475   2.965
 1725SOL     OW 5309   3.704   2.101   3.095
 1725SOL    HW1 5310   3.701   2.164   3.023
 1725SOL    HW2 5311   3.625   2.119   3.146
 1726SOL     OW 5312   2.445   2.452   1.720
 1726SOL    HW1 5313   2.452   2.368   1.674
 1726SOL    HW2 5314   2.393   2.433   1.798
 1727SOL     OW 5315   1.272   1.194   1.080
 1727SOL    HW1 5316   1.319   1.132   1.135
 1727SOL    HW2 5317   1.288   1.279   1.119
 1728SOL     OW 5318   3.651   2.413   3.295
 1728SOL    HW1 5319   3.725   2.456   3.252
 1728SOL    HW2 5320   3.585   2.481   3.304
 1729SOL     OW 5321   3.722   1.262   1.467
 1729SOL    HW1 5322   3.810   1.266   1.428
 1729SOL    HW2 5323   3.682   1.346   1.446
 1730SOL     OW 5324   0.359   3.442   2.567
 1730SOL    HW1 5325   0.316   3.367   2.527
 1730SOL    HW2 5326   0.391   3.493   2.493
 1731SOL     OW 5327   0.350   2.933   2.154
 1731SOL    HW1 5328   0.367   2.979   2.237
 1731SOL    HW2 5329   0.275   2.876   2.173
 1732SOL     OW 5330   0.948   3.841   3.598
 1732SOL    HW1 5331   0.910   3.771   3.545
 1732SOL    HW2 5332   0.890   3.916   3.584
 1733SOL     OW 5333   3.756   1.326   2.654
 1733SOL    HW1 5334   3.714   1.240   2.646
 1733SOL    HW2 5335   3.717   1.378   2.584
 1734SOL     OW 5336   0.751   1.448   2.828
 1734SOL    HW1 5337   0.744   1.444   2.923
 1734SOL    HW2 5338   0.735   1.358   2.798
 1735SOL     OW 5339   3.165   0.635   0.847
 1735SOL    HW1 5340   3.217   0.589   0.913
 1735SOL    HW2 5341   3.159   0.575   0.773
 1736SOL     OW 5342   0.593   3.479   0.655
 1736SOL    HW1 5343   0.593   3.569   0.622
 1736SOL    HW2 5344   0.631   3.428   0.583
 1737SOL     OW 5345   3.097   2.056   2.635
 1737SOL    HW1 5346   3.031   1.996   2.601
 1737SOL    HW2 5347   3.138   2.093   2.557
 1738SOL     OW 5348   1.042   3.465   0.879
 1738SOL    HW1 5349   0.979   3.401   0.911
 1738SOL    HW2 5350   1.095   3.418   0.815
 1739SOL     OW 5351   1.755   3.693   0.635
 1739SOL    HW1 5352   1.850   3.697   0.629
 1739SOL    HW2 5353   1.736   3.675   0.727
 1740SOL     OW 5354   3.111   3.491   1.333
 1740SOL    HW1 5355   3.018   3.506   1.315
 1740SOL    HW2 5356   3.122   3.397   1.326
 1741SOL     OW 5357   0.123   0.648   3.637
 1741SOL    HW1 5358   0.098   0.560   3.664
 1741SOL    HW2 5359   0.066   0.668   3.563
 1742SOL     OW 5360   1.217   1.278   3.342
 1742SOL    HW1 5361   1.201   1.184   3.333
 1742SOL    HW2 5362   1.195   1.298   3.433
 1743SOL     OW 5363   3.583   3.834   0.325
 1743SOL    HW1 5364   3.580   3.746   0.363
 1743SOL    HW2 5365   3.540   3.824   0.239
 1744SOL     OW 5366   0.447   3.180   1.166
 1744SOL    HW1 5367   0.453   3.149   1.257
 1744SOL    HW2 5368   0.407   3.266   1.173
 1745SOL     OW 5369   0.839   1.806   3.586
 1745SOL    HW1 5370   0.795   1.796   3.670
 1745SOL    HW2 5371   0.905   1.874   3.601
 1746SOL     OW 5372   2.629   3.881   0.588
 1746SOL    HW1 5373   2.603   3.880   0.680
 1746SOL    HW2 5374   2.617   3.790   0.559
 1747SOL     OW 5375   3.296   1.363   0.112
 1747SOL    HW1 5376   3.374   1.319   0.147
 1747SOL    HW2 5377   3.322   1.455   0.105
 1748SOL     OW 5378   0.417   2.613   0.699
 1748SOL    HW1 5379   0.392   2.612   0.607
 1748SOL    HW2 5380   0.349   2.664   0.742
 1749SOL     OW 5381   2.406   3.468   0.675
 1749SOL    HW1 5382   2.366   3.452   0.761
 1749SOL    HW2 5383   2.344   3.431   0.612
 1750SOL     OW 5384   2.721   0.611   3.327
 1750SOL    HW1 5385   2.766   0.620   3.411
 1750SOL    HW2 5386   2.767   0.539   3.283
 1751SOL     OW 5387   0.675   2.140   0.263
 1751SOL    HW1 5388   0.751   2.179   0.306
 1751SOL    HW2 5389   0.644   2.074   0.325
 1752SOL     OW 5390   1.649   2.647   1.710
 1752SOL    HW1 5391   1.579   2.665   1.774
 1752SOL    HW2 5392   1.609   2.668   1.625
 1753SOL     OW 5393   3.534   1.184   2.259
 1753SOL    HW1 5394   3.455   1.135   2.283
 1753SOL    HW2 5395   3.549   1.163   2.167
 1754SOL     OW 5396   2.655   1.170   3.214
 1754SOL    HW1 5397   2.662   1.201   3.124
 1754SOL    HW2 5398   2.743   1.140   3.236
 1755SOL     OW 5399   3.492   2.130   2.515
 1755SOL    HW1 5400   3.503   2.140   2.610
 1755SOL    HW2 5401   3.560   2.185   2.477
 1756SOL     OW 5402   1.502   0.455   2.356
 1756SOL    HW1 5403   1.415   0.415   2.352
 1756SOL    HW2 5404   1.485   0.547   2.375
 1757SOL     OW 5405   2.372   0.833   0.162
 1757SOL    HW1 5406   2.444   0.884   0.124
 1757SOL    HW2 5407   2.336   0.889   0.231
 1758SOL     OW 5408   1.527   2.695   1.970
 1758SOL    HW1 5409   1.449   2.651   2.004
 1758SOL    HW2 5410   1.519   2.786   2.002
 1759SOL     OW 5411   0.618   3.040   2.351
 1759SOL    HW1 5412   0.585   2.956   2.319
 1759SOL    HW2 5413   0.694   3.058   2.295
 1760SOL     OW 5414   0.038   1.182   0.190
 1760SOL    HW1 5415  -0.045   1.195   0.236
 1760SOL    HW2 5416   0.103   1.228   0.244
 1761SOL     OW 5417   1.955   0.945   2.432
 1761SOL    HW1 5418   1.860   0.954   2.435
 1761SOL    HW2 5419   1.973   0.900   2.349
 1762SOL     OW 5420   3.747   0.589   1.172
 1762SOL    HW1 5421   3.803   0.617   1.244
 1762SOL    HW2 5422   3.770   0.647   1.100
 1763SOL     OW 5423   2.736   1.503   2.140
 1763SOL    HW1 5424   2.687   1.440   2.192
 1763SOL    HW2 5425   2.826   1.498   2.175
 1764SOL     OW 5426   1.600   2.033   3.711
 1764SOL    HW1 5427   1.529   2.093   3.689
 1764SOL    HW2 5428   1.612   1.980   3.632
 1765SOL     OW 5429   0.998   2.396   1.973
 1765SOL    HW1 5430   1.018   2.478   1.928
 1765SOL    HW2 5431   1.083   2.361   1.998
 1766SOL     OW 5432   0.996   3.077   0.883
 1766SOL    HW1 5433   1.011   3.111   0.971
 1766SOL    HW2 5434   0.943   3.145   0.840
 1767SOL     OW 5435   3.149   1.654   2.164
 1767SOL    HW1 5436   3.231   1.699   2.185
 1767SOL    HW2 5437   3.112   1.706   2.092
 1768SOL     OW 5438   1.415   2.208   3.626
 1768SOL    HW1 5439   1.374   2.294   3.629
 1768SOL    HW2 5440   1.383   2.169   3.544
 1769SOL     OW 5441   2.427   1.386   1.488
 1769SOL    HW1 5442   2.430   1.453   1.420
 1769SOL    HW2 5443   2.366   1.320   1.454
 1770SOL     OW 5444   3.024   1.330   1.266
 1770SOL    HW1 5445   2.951   1.273   1.288
 1770SOL    HW2 5446   2.998   1.416   1.299
 1771SOL     OW 5447   2.856   1.215   3.940
 1771SOL    HW1 5448   2.792   1.279   3.910
 1771SOL    HW2 5449   2.941   1.254   3.920
 1772SOL     OW 5450   3.381   0.587   1.448
 1772SOL    HW1 5451   3.426   0.671   1.440
 1772SOL    HW2 5452   3.419   0.533   1.379
 1773SOL     OW 5453   0.612   0.120   0.108
 1773SOL    HW1 5454   0.525   0.158   0.116
 1773SOL    HW2 5455   0.605   0.034   0.148
 1774SOL     OW 5456   0.594   0.035   2.492
 1774SOL    HW1 5457   0.529  -0.026   2.527
 1774SOL    HW2 5458   0.582   0.115   2.543
 1775SOL     OW 5459   3.704   3.059   0.296
 1775SOL    HW1 5460   3.772   3.015   0.246
 1775SOL    HW2 5461   3.633   2.994   0.302
 1776SOL     OW 5462   3.365   1.375   0.499
 1776SOL    HW1 5463   3.434   1.428   0.537
 1776SOL    HW2 5464   3.286   1.429   0.506
 1777SOL     OW 5465   3.108   1.345   3.849
 1777SOL    HW1 5466   3.105   1.440   3.838
 1777SOL    HW2 5467   3.192   1.328   3.890
 1778SOL     OW 5468   3.205   3.611   1.065
 1778SOL    HW1 5469   3.198   3.521   1.032
 1778SOL    HW2 5470   3.152   3.611   1.145
 1779SOL     OW 5471   2.455   3.263   3.497
 1779SOL    HW1 5472   2.416   3.349   3.510
 1779SOL    HW2 5473   2.535   3.265   3.550
 1780SOL     OW 5474   2.431   1.606   1.312
 1780SOL    HW1 5475   2.365   1.574   1.250
 1780SOL    HW2 5476   2.512   1.609   1.261
 1781SOL     OW 5477   0.925   1.895   2.478
 1781SOL    HW1 5478   0.972   1.893   2.561
 1781SOL    HW2 5479   0.988   1.928   2.415
 1782SOL     OW 5480   3.160   3.314   3.079
 1782SOL    HW1 5481   3.179   3.260   3.003
 1782SOL    HW2 5482   3.232   3.377   3.082
 1783SOL     OW 5483   3.500   1.919   1.514
 1783SOL    HW1 5484   3.471   1.975   1.443
 1783SOL    HW2 5485   3.586   1.887   1.486
 1784SOL     OW 5486   0.716   2.006   1.926
 1784SOL    HW1 5487   0.768   2.063   1.870
 1784SOL    HW2 5488   0.756   2.013   2.012
 1785SOL     OW 5489   2.779   3.850   1.762
 1785SOL    HW1 5490   2.841   3.922   1.774
 1785SOL    HW2 5491   2.693   3.891   1.766
 1786SOL     OW 5492   0.045   1.758   2.552
 1786SOL    HW1 5493  -0.041   1.783   2.518
 1786SOL    HW2 5494   0.078   1.693   2.490
 1787SOL     OW 5495   1.221   1.702   0.008
 1787SOL    HW1 5496   1.221   1.615  -0.033
 1787SOL    HW2 5497   1.130   1.717   0.032
 1788SOL     OW 5498   2.165   0.318   3.561
 1788SOL    HW1 5499   2.238   0.329   3.500
 1788SOL    HW2 5500   2.205   0.326   3.647
 1789SOL     OW 5501   1.251   3.349   3.734
 1789SOL    HW1 5502   1.200   3.286   3.786
 1789SOL    HW2 5503   1.338   3.347   3.772
 1790SOL     OW 5504   0.305   2.838   2.914
 1790SOL    HW1 5505   0.370   2.798   2.972
 1790SOL    HW2 5506   0.303   2.779   2.838
 1791SOL     OW 5507   0.169   3.511   3.136
 1791SOL    HW1 5508   0.217   3.589   3.108
 1791SOL    HW2 5509   0.091   3.509   3.080
 1792SOL     OW 5510   2.923   0.537   3.964
 1792SOL    HW1 5511   2.969   0.456   3.942
 1792SOL    HW2 5512   2.860   0.549   3.893
 1793SOL     OW 5513   2.008   0.032   1.894
 1793SOL    HW1 5514   1.959  -0.046   1.865
 1793SOL    HW2 5515   1.949   0.075   1.956
 1794SOL     OW 5516   1.569   0.236   3.194
 1794SOL    HW1 5517   1.662   0.247   3.217
 1794SOL    HW2 5518   1.557   0.292   3.117
 1795SOL     OW 5519   1.060   0.177   3.889
 1795SOL    HW1 5520   1.042   0.250   3.829
 1795SOL    HW2 5521   1.088   0.106   3.833
 1796SOL     OW 5522   3.395   3.121   0.377
 1796SOL    HW1 5523   3.316   3.068   0.390
 1796SOL    HW2 5524   3.466   3.057   0.373
 1797SOL     OW 5525   1.197   2.638   2.864
 1797SOL    HW1 5526   1.203   2.634   2.959
 1797SOL    HW2 5527   1.275   2.686   2.836
 1798SOL     OW 5528   0.360   1.103   1.206
 1798SOL    HW1 5529   0.348   1.012   1.180
 1798SOL    HW2 5530   0.364   1.152   1.124
 1799SOL     OW 5531   2.043   3.043   1.786
 1799SOL    HW1 5532   1.965   3.094   1.810
 1799SOL    HW2 5533   2.019   3.001   1.703
 1800SOL     OW 5534   3.094   1.151   3.640
 1800SOL    HW1 5535   3.009   1.108   3.651
 1800SOL    HW2 5536   3.085   1.234   3.687
 1801SOL     OW 5537   0.829   2.590   3.219
 1801SOL    HW1 5538   0.760   2.647   3.254
 1801SOL    HW2 5539   0.872   2.643   3.152
 1802SOL     OW 5540   0.417   2.461   3.183
 1802SOL    HW1 5541   0.333   2.501   3.205
 1802SOL    HW2 5542   0.432   2.397   3.253
 1803SOL     OW 5543   2.258   3.483   2.544
 1803SOL    HW1 5544   2.172   3.445   2.562
 1803SOL    HW2 5545   2.240   3.553   2.482
 1804SOL     OW 5546   1.768   3.160   1.405
 1804SOL    HW1 5547   1.735   3.230   1.348
 1804SOL    HW2 5548   1.710   3.086   1.387
 1805SOL     OW 5549   2.610   1.520   3.094
 1805SOL    HW1 5550   2.538   1.504   3.156
 1805SOL    HW2 5551   2.584   1.473   3.015
 1806SOL     OW 5552   1.388   1.512   2.582
 1806SOL    HW1 5553   1.377   1.601   2.615
 1806SOL    HW2 5554   1.318   1.501   2.518
 1807SOL     OW 5555   0.334   2.915   2.500
 1807SOL    HW1 5556   0.313   2.894   2.591
 1807SOL    HW2 5557   0.415   2.867   2.483
 1808SOL     OW 5558   0.941   0.864   3.068
 1808SOL    HW1 5559   0.879   0.846   3.139
 1808SOL    HW2 5560   0.902   0.824   2.991
 1809SOL     OW 5561   2.140   0.919   1.657
 1809SOL    HW1 5562   2.048   0.920   1.629
 1809SOL    HW2 5563   2.142   0.974   1.735
 1810SOL     OW 5564   1.943   1.718   0.096
 1810SOL    HW1 5565   1.891   1.695   0.019
 1810SOL    HW2 5566   1.952   1.814   0.092
 1811SOL     OW 5567   2.961   2.238   3.506
 1811SOL    HW1 5568   3.042   2.283   3.483
 1811SOL    HW2 5569   2.988   2.150   3.531
 1812SOL     OW 5570   3.257   3.896   1.026
 1812SOL    HW1 5571   3.181   3.948   1.053
 1812SOL    HW2 5572   3.277   3.841   1.101
 1813SOL     OW 5573   2.177   0.641   0.076
 1813SOL    HW1 5574   2.259   0.690   0.087
 1813SOL    HW2 5575   2.204   0.549   0.075
 1814SOL     OW 5576   2.833   3.062   1.817
 1814SOL    HW1 5577   2.875   3.143   1.787
 1814SOL    HW2 5578   2.810   3.079   1.908
 1815SOL     OW 5579   1.621   3.587   0.305
 1815SOL    HW1 5580   1.538   3.600   0.259
 1815SOL    HW2 5581   1.679   3.548   0.239
 1816SOL     OW 5582   0.008   0.611   1.807
 1816SOL    HW1 5583   0.005   0.572   1.719
 1816SOL    HW2 5584  -0.003   0.705   1.792
 1817SOL     OW 5585   2.888   3.847   2.953
 1817SOL    HW1 5586   2.911   3.939   2.967
 1817SOL    HW2 5587   2.857   3.817   3.038
 1818SOL     OW 5588   2.026   3.686   2.823
 1818SOL    HW1 5589   2.117   3.709   2.845
 1818SOL    HW2 5590   2.034   3.607   2.769
 1819SOL     OW 5591   3.650   1.279   3.330
 1819SOL    HW1 5592   3.654   1.370   3.360
 1819SOL    HW2 5593   3.681   1.283   3.240
 1820SOL     OW 5594   1.169   3.045   0.639
 1820SOL    HW1 5595   1.111   3.071   0.568
 1820SOL    HW2 5596   1.111   3.034   0.715
 1821SOL     OW 5597   1.940   1.000   3.907
 1821SOL    HW1 5598   1.900   0.951   3.835
 1821SOL    HW2 5599   2.027   1.023   3.874
 1822SOL     OW 5600   1.614   2.322   2.082
 1822SOL    HW1 5601   1.705   2.335   2.054
 1822SOL    HW2 5602   1.610   2.357   2.171
 1823SOL     OW 5603   0.976   2.882   3.685
 1823SOL    HW1 5604   1.006   2.965   3.647
 1823SOL    HW2 5605   0.886   2.874   3.653
 1824SOL     OW 5606   0.784   1.095   1.966
 1824SOL    HW1 5607   0.872   1.065   1.944
 1824SOL    HW2 5608   0.795   1.184   1.997
 1825SOL     OW 5609   1.071   3.518   2.765
 1825SOL    HW1 5610   1.151   3.557   2.731
 1825SOL    HW2 5611   1.002   3.553   2.709
 1826SOL     OW 5612   1.132   1.228   2.200
 1826SOL    HW1 5613   1.043   1.211   2.233
 1826SOL    HW2 5614   1.120   1.294   2.132
 1827SOL     OW 5615   0.235   3.881   1.821
 1827SOL    HW1 5616   0.262   3.947   1.757
 1827SOL    HW2 5617   0.291   3.898   1.897
 1828SOL     OW 5618   0.180   3.942   0.981
 1828SOL    HW1 5619   0.192   3.937   1.076
 1828SOL    HW2 5620   0.268   3.960   0.947
 1829SOL     OW 5621   3.537   1.281   3.755
 1829SOL    HW1 5622   3.543   1.226   3.677
 1829SOL    HW2 5623   3.492   1.360   3.725
 1830SOL     OW 5624   1.296   3.224   3.469
 1830SOL    HW1 5625   1.367   3.172   3.507
 1830SOL    HW2 5626   1.257   3.268   3.545
 1831SOL     OW 5627   0.087   2.445   0.267
 1831SOL    HW1 5628   0.015   2.485   0.316
 1831SOL    HW2 5629   0.144   2.409   0.335
 1832SOL     OW 5630   1.002   3.700   1.306
 1832SOL    HW1 5631   0.913   3.671   1.290
 1832SOL    HW2 5632   1.033   3.730   1.220
 1833SOL     OW 5633   3.003   3.038   2.064
 1833SOL    HW1 5634   3.019   3.111   2.123
 1833SOL    HW2 5635   3.087   2.992   2.058
 1834SOL     OW 5636   3.404   2.167   0.896
 1834SOL    HW1 5637   3.372   2.238   0.839
 1834SOL    HW2 5638   3.329   2.147   0.952
 1835SOL     OW 5639   3.693   3.921   0.895
 1835SOL    HW1 5640   3.668   3.828   0.890
 1835SOL    HW2 5641   3.661   3.950   0.980
 1836SOL     OW 5642   3.864   1.415   3.980
 1836SOL    HW1 5643   3.776   1.387   4.001
 1836SOL    HW2 5644   3.883   1.375   3.895
 1837SOL     OW 5645   2.242   1.400   2.193
 1837SOL    HW1 5646   2.205   1.451   2.265
 1837SOL    HW2 5647   2.209   1.311   2.208
 1838SOL     OW 5648   0.802   2.616   1.797
 1838SOL    HW1 5649   0.755   2.664   1.729
 1838SOL    HW2 5650   0.894   2.637   1.782
 1839SOL     OW 5651   3.797   1.054   3.121
 1839SOL    HW1 5652   3.808   1.125   3.057
 1839SOL    HW2 5653   3.744   0.989   3.075
 1840SOL     OW 5654   0.649   0.611   0.907
 1840SOL    HW1 5655   0.681   0.556   0.978
 1840SOL    HW2 5656   0.570   0.651   0.942
 1841SOL     OW 5657   1.765   2.434   3.377
 1841SOL    HW1 5658   1.819   2.394   3.446
 1841SOL    HW2 5659   1.827   2.479   3.321
 1842SOL     OW 5660   0.587   1.583   0.611
 1842SOL    HW1 5661   0.555   1.501   0.649
 1842SOL    HW2 5662   0.665   1.605   0.663
 1843SOL     OW 5663   1.594   1.621   1.447
 1843SOL    HW1 5664   1.671   1.647   1.498
 1843SOL    HW2 5665   1.546   1.703   1.432
 1844SOL     OW 5666   0.733   3.078   1.515
 1844SOL    HW1 5667   0.670   3.129   1.464
 1844SOL    HW2 5668   0.804   3.058   1.454
 1845SOL     OW 5669   3.476   2.698   3.744
 1845SOL    HW1 5670   3.541   2.740   3.801
 1845SOL    HW2 5671   3.528   2.642   3.686
 1846SOL     OW 5672   1.869   2.687   0.329
 1846SOL    HW1 5673   1.902   2.720   0.245
 1846SOL    HW2 5674   1.785   2.731   0.341
 1847SOL     OW 5675   1.116   0.759   3.242
 1847SOL    HW1 5676   1.063   0.712   3.307
 1847SOL    HW2 5677   1.053   0.793   3.179
 1848SOL     OW 5678   2.643   2.962   3.671
 1848SOL    HW1 5679   2.727   2.935   3.708
 1848SOL    HW2 5680   2.626   3.047   3.712
 1849SOL     OW 5681   2.734   0.271   1.149
 1849SOL    HW1 5682   2.685   0.327   1.088
 1849SOL    HW2 5683   2.708   0.301   1.236
 1850SOL     OW 5684   2.441   2.268   1.511
 1850SOL    HW1 5685   2.441   2.360   1.484
 1850SOL    HW2 5686   2.350   2.240   1.504
 1851SOL     OW 5687   1.064   2.946   2.110
 1851SOL    HW1 5688   0.985   3.000   2.116
 1851SOL    HW2 5689   1.135   3.009   2.098
 1852SOL     OW 5690   3.776   1.870   2.444
 1852SOL    HW1 5691   3.791   1.859   2.350
 1852SOL    HW2 5692   3.681   1.873   2.453
 1853SOL     OW 5693   0.897   2.191   1.821
 1853SOL    HW1 5694   0.960   2.126   1.852
 1853SOL    HW2 5695   0.926   2.273   1.862
 1854SOL     OW 5696   2.896   3.544   0.699
 1854SOL    HW1 5697   2.900   3.452   0.672
 1854SOL    HW2 5698   2.967   3.554   0.762
 1855SOL     OW 5699   1.502   3.598   0.591
 1855SOL    HW1 5700   1.483   3.547   0.512
 1855SOL    HW2 5701   1.596   3.612   0.588
 1856SOL     OW 5702   3.474   1.640   2.751
 1856SOL    HW1 5703   3.565   1.623   2.777
 1856SOL    HW2 5704   3.478   1.717   2.694
 1857SOL     OW 5705   3.354   2.412   3.142
 1857SOL    HW1 5706   3.338   2.478   3.074
 1857SOL    HW2 5707   3.393   2.462   3.214
 1858SOL     OW 5708   0.023   2.307   3.117
 1858SOL    HW1 5709   0.001   2.214   3.108
 1858SOL    HW2 5710   0.066   2.314   3.202
 1859SOL     OW 5711   0.506   2.947   0.024
 1859SOL    HW1 5712   0.422   2.994   0.026
 1859SOL    HW2 5713   0.563   3.003  -0.028
 1860SOL     OW 5714   2.895   2.978   3.077
 1860SOL    HW1 5715   2.834   2.915   3.114
 1860SOL    HW2 5716   2.859   3.064   3.101
 1861SOL     OW 5717   3.041   2.100   2.136
 1861SOL    HW1 5718   3.028   2.178   2.190
 1861SOL    HW2 5719   2.965   2.099   2.077
 1862SOL     OW 5720   3.727   1.061   2.425
 1862SOL    HW1 5721   3.712   1.128   2.357
 1862SOL    HW2 5722   3.648   1.063   2.479
 1863SOL     OW 5723   1.705   0.309   2.237
 1863SOL    HW1 5724   1.641   0.369   2.276
 1863SOL    HW2 5725   1.788   0.331   2.279
 1864SOL     OW 5726   0.630   1.629   2.639
 1864SOL    HW1 5727   0.659   1.593   2.722
 1864SOL    HW2 5728   0.710   1.640   2.587
 1865SOL     OW 5729   1.457   3.535   1.728
 1865SOL    HW1 5730   1.460   3.508   1.636
 1865SOL    HW2 5731   1.432   3.456   1.775
 1866SOL     OW 5732   2.182   3.436   0.835
 1866SOL    HW1 5733   2.127   3.374   0.787
 1866SOL    HW2 5734   2.120   3.498   0.874
 1867SOL     OW 5735   0.658   1.092   1.548
 1867SOL    HW1 5736   0.571   1.113   1.516
 1867SOL    HW2 5737   0.686   1.017   1.496
 1868SOL     OW 5738   0.532   0.816   2.868
 1868SOL    HW1 5739   0.526   0.823   2.773
 1868SOL    HW2 5740   0.493   0.731   2.888
 1869SOL     OW 5741   1.396   2.453   0.282
 1869SOL    HW1 5742   1.447   2.527   0.316
 1869SOL    HW2 5743   1.331   2.436   0.350
 1870SOL     OW 5744   3.516   3.183   2.394
 1870SOL    HW1 5745   3.501   3.274   2.370
 1870SOL    HW2 5746   3.439   3.137   2.360
 1871SOL     OW 5747   3.111   3.283   0.825
 1871SOL    HW1 5748   3.183   3.337   0.792
 1871SOL    HW2 5749   3.139   3.256   0.913
 1872SOL     OW 5750   1.871   0.444   3.685
 1872SOL    HW1 5751   1.851   0.419   3.775
 1872SOL    HW2 5752   1.942   0.508   3.694
 1873SOL     OW 5753   1.655   1.662   2.649
 1873SOL    HW1 5754   1.730   1.621   2.606
 1873SOL    HW2 5755   1.580   1.636   2.596
 1874SOL     OW 5756   1.399   2.110   2.325
 1874SOL    HW1 5757   1.358   2.076   2.404
 1874SOL    HW2 5758   1.354   2.064   2.253
 1875SOL     OW 5759   1.949   1.810   2.665
 1875SOL    HW1 5760   1.881   1.876   2.657
 1875SOL    HW2 5761   1.921   1.739   2.606
 1876SOL     OW 5762   2.528   2.685   2.855
 1876SOL    HW1 5763   2.544   2.773   2.890
 1876SOL    HW2 5764   2.438   2.687   2.823
 1877SOL     OW 5765   1.497   0.757   2.010
 1877SOL    HW1 5766   1.455   0.722   1.931
 1877SOL    HW2 5767   1.520   0.679   2.061
 1878SOL     OW 5768   3.462   1.964   3.684
 1878SOL    HW1 5769   3.526   1.899   3.657
 1878SOL    HW2 5770   3.379   1.932   3.650
 1879SOL     OW 5771   2.951   1.200   2.333
 1879SOL    HW1 5772   2.866   1.243   2.344
 1879SOL    HW2 5773   3.005   1.265   2.289
 1880SOL     OW 5774   3.530   3.553   0.277
 1880SOL    HW1 5775   3.579   3.471   0.279
 1880SOL    HW2 5776   3.520   3.572   0.184
 1881SOL     OW 5777   0.790   0.140   1.724
 1881SOL    HW1 5778   0.786   0.218   1.779
 1881SOL    HW2 5779   0.876   0.145   1.682
 1882SOL     OW 5780   0.930   3.012   3.926
 1882SOL    HW1 5781   0.903   2.988   3.837
 1882SOL    HW2 5782   0.936   2.929   3.972
 1883SOL     OW 5783   3.739   1.044   0.134
 1883SOL    HW1 5784   3.751   1.059   0.227
 1883SOL    HW2 5785   3.757   1.128   0.092
 1884SOL     OW 5786   3.252   2.208   1.906
 1884SOL    HW1 5787   3.250   2.250   1.992
 1884SOL    HW2 5788   3.222   2.119   1.922
 1885SOL     OW 5789   2.027   2.832   3.309
 1885SOL    HW1 5790   2.042   2.792   3.223
 1885SOL    HW2 5791   2.025   2.926   3.291
 1886SOL     OW 5792   3.530   0.812   1.437
 1886SOL    HW1 5793   3.536   0.895   1.483
 1886SOL    HW2 5794   3.608   0.810   1.381
 1887SOL     OW 5795   2.371   0.153   0.234
 1887SOL    HW1 5796   2.282   0.172   0.264
 1887SOL    HW2 5797   2.393   0.227   0.177
 1888SOL     OW 5798   3.564   3.066   3.949
 1888SOL    HW1 5799   3.649   3.089   3.910
 1888SOL    HW2 5800   3.573   2.975   3.974
 1889SOL     OW 5801   1.142   2.568   1.040
 1889SOL    HW1 5802   1.110   2.593   1.126
 1889SOL    HW2 5803   1.133   2.647   0.987
 1890SOL     OW 5804   0.735   3.075   1.108
 1890SOL    HW1 5805   0.727   2.980   1.118
 1890SOL    HW2 5806   0.647   3.109   1.125
 1891SOL     OW 5807   0.907   2.788   0.179
 1891SOL    HW1 5808   0.853   2.711   0.161
 1891SOL    HW2 5809   0.997   2.754   0.180
 1892SOL     OW 5810   2.274   0.853   2.329
 1892SOL    HW1 5811   2.255   0.886   2.242
 1892SOL    HW2 5812   2.366   0.876   2.345
 1893SOL     OW 5813   1.385   0.715   0.575
 1893SOL    HW1 5814   1.346   0.763   0.648
 1893SOL    HW2 5815   1.385   0.624   0.604
 1894SOL     OW 5816   2.071   3.890   0.451
 1894SOL    HW1 5817   2.079   3.967   0.395
 1894SOL    HW2 5818   1.982   3.896   0.487
 1895SOL     OW 5819   2.368   3.078   3.915
 1895SOL    HW1 5820   2.324   3.035   3.841
 1895SOL    HW2 5821   2.306   3.144   3.944
 1896SOL     OW 5822   0.215   0.912   1.884
 1896SOL    HW1 5823   0.164   0.944   1.959
 1896SOL    HW2 5824   0.284   0.859   1.923
 1897SOL     OW 5825   2.741   0.329   3.747
 1897SOL    HW1 5826   2.699   0.252   3.784
 1897SOL    HW2 5827   2.825   0.297   3.713
 1898SOL     OW 5828   1.487   3.898   3.105
 1898SOL    HW1 5829   1.474   3.807   3.077
 1898SOL    HW2 5830   1.485   3.949   3.024
 1899SOL     OW 5831   2.077   3.586   2.050
 1899SOL    HW1 5832   2.012   3.582   1.981
 1899SOL    HW2 5833   2.027   3.571   2.131
 1900SOL     OW 5834   2.914   0.688   2.997
 1900SOL    HW1 5835   2.933   0.656   3.085
 1900SOL    HW2 5836   2.968   0.766   2.987
 1901SOL     OW 5837   3.743   1.614   1.945
 1901SOL    HW1 5838   3.733   1.536   1.889
 1901SOL    HW2 5839   3.764   1.579   2.031
 1902SOL     OW 5840   2.544   2.832   0.091
 1902SOL    HW1 5841   2.476   2.896   0.073
 1902SOL    HW2 5842   2.607   2.879   0.146
 1903SOL     OW 5843   3.948   1.698   0.023
 1903SOL    HW1 5844   3.890   1.622   0.020
 1903SOL    HW2 5845   3.890   1.774   0.018
 1904SOL     OW 5846   2.321   2.514   0.801
 1904SOL    HW1 5847   2.308   2.609   0.802
 1904SOL    HW2 5848   2.410   2.502   0.766
 1905SOL     OW 5849   0.446   1.179   2.059
 1905SOL    HW1 5850   0.493   1.187   1.977
 1905SOL    HW2 5851   0.404   1.092   2.055
 1906SOL     OW 5852   3.441   3.088   1.581
 1906SOL    HW1 5853   3.354   3.127   1.578
 1906SOL    HW2 5854   3.435   3.019   1.647
 1907SOL     OW 5855   2.977   0.301   3.590
 1907SOL    HW1 5856   3.054   0.342   3.628
 1907SOL    HW2 5857   2.916   0.374   3.575
 1908SOL     OW 5858   3.605   2.257   3.510
 1908SOL    HW1 5859   3.643   2.169   3.504
 1908SOL    HW2 5860   3.589   2.283   3.420
 1909SOL     OW 5861   3.188   3.866   0.378
 1909SOL    HW1 5862   3.115   3.846   0.436
 1909SOL    HW2 5863   3.205   3.784   0.331
 1910SOL     OW 5864   0.651   0.924   0.720
 1910SOL    HW1 5865   0.702   1.003   0.700
 1910SOL    HW2 5866   0.611   0.899   0.636
 1911SOL     OW 5867   0.549   2.395   3.921
 1911SOL    HW1 5868   0.519   2.424   4.008
 1911SOL    HW2 5869   0.473   2.352   3.883
 1912SOL     OW 5870   2.559   1.571   0.500
 1912SOL    HW1 5871   2.596   1.566   0.587
 1912SOL    HW2 5872   2.618   1.630   0.452
 1913SOL     OW 5873   2.684   0.426   0.484
 1913SOL    HW1 5874   2.590   0.415   0.468
 1913SOL    HW2 5875   2.710   0.493   0.421
 1914SOL     OW 5876   3.134   2.991   0.422
 1914SOL    HW1 5877   3.087   2.908   0.431
 1914SOL    HW2 5878   3.154   3.017   0.512
 1915SOL     OW 5879   3.519   0.458   2.959
 1915SOL    HW1 5880   3.523   0.536   2.904
 1915SOL    HW2 5881   3.605   0.454   3.002
 1916SOL     OW 5882   3.984   2.846   1.421
 1916SOL    HW1 5883   3.938   2.775   1.378
 1916SOL    HW2 5884   3.923   2.879   1.486
 1917SOL     OW 5885   1.543   2.922   0.911
 1917SOL    HW1 5886   1.474   2.984   0.933
 1917SOL    HW2 5887   1.497   2.844   0.880
 1918NA      NA 5888   0.317   3.104   0.767
 1919NA      NA 5889   0.606   1.720   3.142
   3.96100   3.96100   3.96100   0.00000   0.00000   0.00000   0.00000   0.00000   0.00000
