Generated with MDTraj, t= 37578.0
 5889
    1TYR      N    1   1.575   1.641   1.293
    1TYR     H1    2   1.638   1.721   1.269
    1TYR     H2    3   1.488   1.667   1.343
    1TYR     H3    4   1.623   1.578   1.361
    1TYR     CA    5   1.541   1.575   1.166
    1TYR     HA    6   1.488   1.656   1.119
    1TYR     CB    7   1.657   1.520   1.088
    1TYR    HB1    8   1.716   1.445   1.145
    1TYR    HB2    9   1.621   1.471   0.994
    1TYR     CG   10   1.741   1.617   1.029
    1TYR    CD1   11   1.873   1.618   1.071
    1TYR    HD1   12   1.905   1.543   1.142
    1TYR    CE1   13   1.961   1.710   1.022
    1TYR    HE1   14   2.066   1.708   1.047
    1TYR     CZ   15   1.907   1.819   0.955
    1TYR     OH   16   1.990   1.922   0.921
    1TYR     HH   17   1.934   1.985   0.874
    1TYR    CD2   18   1.688   1.724   0.947
    1TYR    HD2   19   1.587   1.725   0.910
    1TYR    CE2   20   1.779   1.828   0.913
    1TYR    HE2   21   1.753   1.901   0.837
    1TYR      C   22   1.434   1.464   1.201
    1TYR      O   23   1.393   1.455   1.323
    2TYR      N   24   1.396   1.383   1.099
    2TYR     HN   25   1.424   1.403   1.005
    2TYR     CA   26   1.350   1.251   1.126
    2TYR     HA   27   1.285   1.254   1.212
    2TYR     CB   28   1.261   1.181   1.014
    2TYR    HB1   29   1.241   1.081   1.058
    2TYR    HB2   30   1.166   1.238   1.004
    2TYR     CG   31   1.321   1.160   0.872
    2TYR    CD1   32   1.414   1.064   0.840
    2TYR    HD1   33   1.456   1.012   0.925
    2TYR    CE1   34   1.460   1.036   0.709
    2TYR    HE1   35   1.532   0.958   0.689
    2TYR     CZ   36   1.402   1.118   0.610
    2TYR     OH   37   1.442   1.098   0.478
    2TYR     HH   38   1.503   1.024   0.482
    2TYR    CD2   39   1.276   1.243   0.765
    2TYR    HD2   40   1.206   1.322   0.791
    2TYR    CE2   41   1.316   1.227   0.637
    2TYR    HE2   42   1.271   1.285   0.558
    2TYR      C   43   1.462   1.149   1.177
    2TYR      O   44   1.580   1.158   1.134
    3ASP      N   45   1.416   1.060   1.264
    3ASP     HN   46   1.323   1.058   1.298
    3ASP     CA   47   1.493   0.952   1.317
    3ASP     HA   48   1.597   0.965   1.291
    3ASP     CB   49   1.467   0.929   1.471
    3ASP    HB1   50   1.490   1.022   1.526
    3ASP    HB2   51   1.359   0.905   1.485
    3ASP     CG   52   1.564   0.817   1.525
    3ASP    OD1   53   1.650   0.766   1.454
    3ASP    OD2   54   1.552   0.781   1.646
    3ASP      C   55   1.431   0.836   1.239
    3ASP      O   56   1.312   0.819   1.244
    4PRO      N   57   1.498   0.745   1.162
    4PRO     CD   58   1.606   0.804   1.074
    4PRO    HD1   59   1.702   0.763   1.113
    4PRO    HD2   60   1.612   0.915   1.066
    4PRO     CA   61   1.422   0.644   1.086
    4PRO     HA   62   1.329   0.685   1.049
    4PRO     CB   63   1.521   0.600   0.979
    4PRO    HB1   64   1.597   0.530   1.021
    4PRO    HB2   65   1.475   0.558   0.887
    4PRO     CG   66   1.574   0.731   0.937
    4PRO    HG1   67   1.670   0.711   0.885
    4PRO    HG2   68   1.509   0.793   0.871
    4PRO      C   69   1.375   0.522   1.169
    4PRO      O   70   1.274   0.463   1.121
    5GLU      N   71   1.442   0.474   1.275
    5GLU     HN   72   1.532   0.513   1.295
    5GLU     CA   73   1.404   0.351   1.342
    5GLU     HA   74   1.355   0.284   1.273
    5GLU     CB   75   1.527   0.286   1.405
    5GLU    HB1   76   1.585   0.354   1.471
    5GLU    HB2   77   1.505   0.192   1.461
    5GLU     CG   78   1.623   0.241   1.289
    5GLU    HG1   79   1.572   0.179   1.212
    5GLU    HG2   80   1.663   0.330   1.236
    5GLU     CD   81   1.733   0.153   1.346
    5GLU    OE1   82   1.825   0.193   1.424
    5GLU    OE2   83   1.728   0.028   1.310
    5GLU      C   84   1.305   0.374   1.452
    5GLU      O   85   1.223   0.290   1.482
    6THR      N   86   1.307   0.499   1.510
    6THR     HN   87   1.375   0.569   1.489
    6THR     CA   88   1.196   0.542   1.602
    6THR     HA   89   1.163   0.453   1.654
    6THR     CB   90   1.233   0.649   1.695
    6THR     HB   91   1.239   0.749   1.647
    6THR    OG1   92   1.358   0.622   1.748
    6THR    HG1   93   1.422   0.678   1.704
    6THR    CG2   94   1.144   0.667   1.807
    6THR   HG21   95   1.037   0.663   1.777
    6THR   HG22   96   1.158   0.588   1.884
    6THR   HG23   97   1.169   0.765   1.853
    6THR      C   98   1.072   0.579   1.521
    6THR      O   99   0.966   0.554   1.570
    7GLY      N  100   1.080   0.637   1.394
    7GLY     HN  101   1.172   0.654   1.360
    7GLY     CA  102   0.960   0.685   1.313
    7GLY    HA1  103   0.992   0.681   1.210
    7GLY    HA2  104   0.877   0.620   1.334
    7GLY      C  105   0.917   0.826   1.338
    7GLY      O  106   0.803   0.857   1.313
    8THR      N  107   1.001   0.914   1.376
    8THR     HN  108   1.100   0.901   1.385
    8THR     CA  109   0.957   1.055   1.393
    8THR     HA  110   0.855   1.062   1.428
    8THR     CB  111   1.046   1.130   1.492
    8THR     HB  112   1.034   1.240   1.478
    8THR    OG1  113   1.187   1.093   1.473
    8THR    HG1  114   1.234   1.152   1.533
    8THR    CG2  115   0.999   1.078   1.632
    8THR   HG21  116   1.068   1.119   1.708
    8THR   HG22  117   0.893   1.105   1.656
    8THR   HG23  118   0.991   0.968   1.642
    8THR      C  119   0.958   1.135   1.258
    8THR      O  120   1.035   1.230   1.241
    9TRP      N  121   0.863   1.097   1.169
    9TRP     HN  122   0.810   1.017   1.197
    9TRP     CA  123   0.854   1.135   1.027
    9TRP     HA  124   0.954   1.141   0.988
    9TRP     CB  125   0.774   1.047   0.933
    9TRP    HB1  126   0.665   1.067   0.944
    9TRP    HB2  127   0.814   1.065   0.831
    9TRP     CG  128   0.793   0.895   0.948
    9TRP    CD1  129   0.695   0.801   0.956
    9TRP    HD1  130   0.588   0.809   0.974
    9TRP    NE1  131   0.752   0.674   0.964
    9TRP    HE1  132   0.696   0.598   0.988
    9TRP    CE2  133   0.890   0.686   0.943
    9TRP    CD2  134   0.916   0.827   0.934
    9TRP    CE3  135   1.043   0.866   0.898
    9TRP    HE3  136   1.067   0.968   0.873
    9TRP    CZ3  137   1.140   0.770   0.882
    9TRP    HZ3  138   1.231   0.809   0.838
    9TRP    CZ2  139   0.988   0.589   0.930
    9TRP    HZ2  140   0.948   0.489   0.945
    9TRP    CH2  141   1.118   0.631   0.900
    9TRP    HH2  142   1.202   0.566   0.880
    9TRP      C  143   0.815   1.277   1.010
    9TRP      O  144   0.853   1.353   0.919
   10TYR      N  145   0.732   1.328   1.106
   10TYR     HN  146   0.719   1.271   1.187
   10TYR     CA  147   0.690   1.461   1.122
   10TYR     HA  148   0.756   1.527   1.068
   10TYR     CB  149   0.542   1.488   1.075
   10TYR    HB1  150   0.483   1.411   1.129
   10TYR    HB2  151   0.505   1.582   1.122
   10TYR     CG  152   0.525   1.483   0.925
   10TYR    CD1  153   0.491   1.364   0.861
   10TYR    HD1  154   0.479   1.277   0.924
   10TYR    CE1  155   0.472   1.361   0.721
   10TYR    HE1  156   0.448   1.264   0.681
   10TYR     CZ  157   0.478   1.476   0.639
   10TYR     OH  158   0.450   1.470   0.506
   10TYR     HH  159   0.379   1.406   0.496
   10TYR    CD2  160   0.551   1.589   0.842
   10TYR    HD2  161   0.579   1.677   0.898
   10TYR    CE2  162   0.520   1.591   0.705
   10TYR    HE2  163   0.541   1.674   0.640
   10TYR      C  164   0.706   1.503   1.267
   10TYR    OT1  165   0.803   1.584   1.291
   10TYR    OT2  166   0.636   1.452   1.357
   11SOL     OW  167   1.121   1.182   2.383
   11SOL    HW1  168   1.184   1.120   2.420
   11SOL    HW2  169   1.171   1.229   2.315
   12SOL     OW  170   0.808   3.903   1.137
   12SOL    HW1  171   0.746   3.895   1.210
   12SOL    HW2  172   0.863   3.978   1.162
   13SOL     OW  173   1.986   1.875   2.253
   13SOL    HW1  174   2.075   1.895   2.283
   13SOL    HW2  175   1.982   1.780   2.251
   14SOL     OW  176   1.341   3.350   0.618
   14SOL    HW1  177   1.313   3.270   0.573
   14SOL    HW2  178   1.341   3.326   0.711
   15SOL     OW  179   2.587   0.892   0.665
   15SOL    HW1  180   2.679   0.868   0.657
   15SOL    HW2  181   2.565   0.874   0.757
   16SOL     OW  182   0.878   3.564   1.967
   16SOL    HW1  183   0.873   3.468   1.972
   16SOL    HW2  184   0.828   3.586   1.889
   17SOL     OW  185   0.375   2.105   3.767
   17SOL    HW1  186   0.311   2.166   3.732
   17SOL    HW2  187   0.335   2.019   3.756
   18SOL     OW  188   3.633   0.296   1.617
   18SOL    HW1  189   3.552   0.315   1.665
   18SOL    HW2  190   3.658   0.381   1.580
   19SOL     OW  191   3.134   1.049   1.045
   19SOL    HW1  192   3.116   1.141   1.065
   19SOL    HW2  193   3.188   1.018   1.118
   20SOL     OW  194   2.265   3.581   3.399
   20SOL    HW1  195   2.313   3.616   3.324
   20SOL    HW2  196   2.332   3.540   3.454
   21SOL     OW  197   3.402   3.167   0.273
   21SOL    HW1  198   3.466   3.163   0.201
   21SOL    HW2  199   3.415   3.254   0.311
   22SOL     OW  200   1.895   3.681   3.134
   22SOL    HW1  201   1.967   3.737   3.162
   22SOL    HW2  202   1.918   3.594   3.167
   23SOL     OW  203   1.466   0.710   2.625
   23SOL    HW1  204   1.508   0.697   2.711
   23SOL    HW2  205   1.382   0.751   2.645
   24SOL     OW  206   1.937   2.055   1.984
   24SOL    HW1  207   2.024   2.058   2.024
   24SOL    HW2  208   1.909   2.146   1.982
   25SOL     OW  209   0.876   2.167   3.071
   25SOL    HW1  210   0.824   2.207   3.002
   25SOL    HW2  211   0.959   2.215   3.069
   26SOL     OW  212   1.744   3.412   3.420
   26SOL    HW1  213   1.809   3.382   3.357
   26SOL    HW2  214   1.789   3.409   3.504
   27SOL     OW  215   2.789   3.746   1.554
   27SOL    HW1  216   2.809   3.725   1.462
   27SOL    HW2  217   2.847   3.820   1.574
   28SOL     OW  218   1.502   3.610   0.947
   28SOL    HW1  219   1.435   3.654   0.896
   28SOL    HW2  220   1.540   3.680   1.002
   29SOL     OW  221   1.090   3.212   0.665
   29SOL    HW1  222   1.153   3.173   0.604
   29SOL    HW2  223   1.104   3.165   0.747
   30SOL     OW  224   0.446   2.433   0.119
   30SOL    HW1  225   0.400   2.448   0.036
   30SOL    HW2  226   0.475   2.520   0.146
   31SOL     OW  227   2.729   2.379   0.463
   31SOL    HW1  228   2.746   2.469   0.490
   31SOL    HW2  229   2.789   2.326   0.516
   32SOL     OW  230   2.802   3.638   2.785
   32SOL    HW1  231   2.812   3.732   2.796
   32SOL    HW2  232   2.719   3.617   2.826
   33SOL     OW  233   1.187   3.627   1.930
   33SOL    HW1  234   1.096   3.629   1.960
   33SOL    HW2  235   1.213   3.535   1.935
   34SOL     OW  236   1.525   2.011   2.644
   34SOL    HW1  237   1.475   1.937   2.611
   34SOL    HW2  238   1.514   2.007   2.739
   35SOL     OW  239   2.933   1.675   1.217
   35SOL    HW1  240   2.978   1.716   1.291
   35SOL    HW2  241   2.842   1.670   1.245
   36SOL     OW  242   0.582   0.702   0.528
   36SOL    HW1  243   0.540   0.655   0.456
   36SOL    HW2  244   0.532   0.678   0.606
   37SOL     OW  245   1.453   0.398   2.735
   37SOL    HW1  246   1.467   0.438   2.650
   37SOL    HW2  247   1.434   0.471   2.794
   38SOL     OW  248   3.338   0.830   3.441
   38SOL    HW1  249   3.325   0.896   3.372
   38SOL    HW2  250   3.428   0.844   3.470
   39SOL     OW  251   0.676   2.710   2.292
   39SOL    HW1  252   0.618   2.711   2.368
   39SOL    HW2  253   0.616   2.713   2.217
   40SOL     OW  254   1.301   2.425   1.253
   40SOL    HW1  255   1.366   2.398   1.188
   40SOL    HW2  256   1.229   2.461   1.201
   41SOL     OW  257   2.994   0.172   0.098
   41SOL    HW1  258   2.952   0.192   0.015
   41SOL    HW2  259   3.088   0.180   0.080
   42SOL     OW  260   1.214   1.766   1.171
   42SOL    HW1  261   1.166   1.684   1.160
   42SOL    HW2  262   1.251   1.761   1.259
   43SOL     OW  263   0.084   0.841   3.302
   43SOL    HW1  264   0.081   0.911   3.236
   43SOL    HW2  265   0.164   0.793   3.282
   44SOL     OW  266   2.603   1.307   1.917
   44SOL    HW1  267   2.616   1.267   1.830
   44SOL    HW2  268   2.675   1.273   1.970
   45SOL     OW  269   0.194   2.871   2.167
   45SOL    HW1  270   0.245   2.887   2.087
   45SOL    HW2  271   0.178   2.777   2.167
   46SOL     OW  272   2.992   3.221   0.645
   46SOL    HW1  273   2.983   3.309   0.610
   46SOL    HW2  274   3.039   3.233   0.728
   47SOL     OW  275   2.796   1.191   2.092
   47SOL    HW1  276   2.780   1.113   2.039
   47SOL    HW2  277   2.885   1.217   2.069
   48SOL     OW  278   2.786   1.895   1.892
   48SOL    HW1  279   2.787   1.914   1.798
   48SOL    HW2  280   2.878   1.881   1.915
   49SOL     OW  281   0.815   2.216   2.187
   49SOL    HW1  282   0.873   2.188   2.258
   49SOL    HW2  283   0.760   2.284   2.226
   50SOL     OW  284   1.232   3.704   2.626
   50SOL    HW1  285   1.203   3.760   2.554
   50SOL    HW2  286   1.154   3.655   2.651
   51SOL     OW  287   2.035   2.607   2.041
   51SOL    HW1  288   2.035   2.529   1.985
   51SOL    HW2  289   2.110   2.594   2.099
   52SOL     OW  290   3.056   0.603   3.129
   52SOL    HW1  291   3.126   0.572   3.072
   52SOL    HW2  292   3.100   0.625   3.211
   53SOL     OW  293   1.097   0.051   2.957
   53SOL    HW1  294   1.183   0.010   2.943
   53SOL    HW2  295   1.110   0.142   2.930
   54SOL     OW  296   2.643   1.903   0.842
   54SOL    HW1  297   2.702   1.977   0.831
   54SOL    HW2  298   2.607   1.913   0.930
   55SOL     OW  299   3.029   2.519   3.973
   55SOL    HW1  300   3.087   2.466   3.918
   55SOL    HW2  301   3.078   2.600   3.988
   56SOL     OW  302   1.365   2.077   2.233
   56SOL    HW1  303   1.328   2.111   2.314
   56SOL    HW2  304   1.361   1.982   2.244
   57SOL     OW  305   3.095   3.160   0.418
   57SOL    HW1  306   3.080   3.167   0.512
   57SOL    HW2  307   3.135   3.244   0.394
   58SOL     OW  308   0.681   2.911   0.237
   58SOL    HW1  309   0.613   2.912   0.170
   58SOL    HW2  310   0.636   2.934   0.318
   59SOL     OW  311   1.996   1.815   0.598
   59SOL    HW1  312   2.062   1.836   0.663
   59SOL    HW2  313   1.947   1.897   0.585
   60SOL     OW  314   0.189   1.885   3.719
   60SOL    HW1  315   0.253   1.825   3.759
   60SOL    HW2  316   0.194   1.867   3.626
   61SOL     OW  317   3.148   3.833   2.533
   61SOL    HW1  318   3.070   3.827   2.589
   61SOL    HW2  319   3.221   3.832   2.594
   62SOL     OW  320   3.757   2.691   2.755
   62SOL    HW1  321   3.689   2.681   2.689
   62SOL    HW2  322   3.839   2.672   2.709
   63SOL     OW  323   0.479   0.500   2.494
   63SOL    HW1  324   0.534   0.421   2.500
   63SOL    HW2  325   0.401   0.479   2.546
   64SOL     OW  326   2.252   3.935   3.732
   64SOL    HW1  327   2.214   3.929   3.820
   64SOL    HW2  328   2.312   4.009   3.737
   65SOL     OW  329   3.457   1.218   1.693
   65SOL    HW1  330   3.511   1.165   1.634
   65SOL    HW2  331   3.520   1.259   1.753
   66SOL     OW  332   1.734   3.741   0.618
   66SOL    HW1  333   1.691   3.656   0.633
   66SOL    HW2  334   1.664   3.805   0.624
   67SOL     OW  335   2.781   1.554   1.758
   67SOL    HW1  336   2.732   1.574   1.838
   67SOL    HW2  337   2.836   1.479   1.780
   68SOL     OW  338   0.216   1.797   1.504
   68SOL    HW1  339   0.266   1.867   1.547
   68SOL    HW2  340   0.170   1.753   1.575
   69SOL     OW  341   1.240   1.030   2.038
   69SOL    HW1  342   1.306   1.058   2.102
   69SOL    HW2  343   1.279   1.050   1.953
   70SOL     OW  344   2.403   0.476   1.476
   70SOL    HW1  345   2.318   0.498   1.437
   70SOL    HW2  346   2.421   0.387   1.445
   71SOL     OW  347   2.458   1.565   2.354
   71SOL    HW1  348   2.546   1.601   2.340
   71SOL    HW2  349   2.442   1.511   2.277
   72SOL     OW  350   0.953   3.224   1.962
   72SOL    HW1  351   0.870   3.175   1.963
   72SOL    HW2  352   1.015   3.168   2.008
   73SOL     OW  353   1.197   1.904   2.756
   73SOL    HW1  354   1.128   1.857   2.804
   73SOL    HW2  355   1.201   1.860   2.671
   74SOL     OW  356   2.863   3.119   1.326
   74SOL    HW1  357   2.777   3.162   1.327
   74SOL    HW2  358   2.856   3.051   1.394
   75SOL     OW  359   2.325   3.004   3.321
   75SOL    HW1  360   2.250   2.956   3.287
   75SOL    HW2  361   2.398   2.942   3.316
   76SOL     OW  362   3.834   2.813   1.729
   76SOL    HW1  363   3.830   2.728   1.773
   76SOL    HW2  364   3.753   2.818   1.679
   77SOL     OW  365   2.710   3.849   1.056
   77SOL    HW1  366   2.680   3.759   1.043
   77SOL    HW2  367   2.712   3.886   0.968
   78SOL     OW  368   1.541   3.125   2.882
   78SOL    HW1  369   1.501   3.073   2.813
   78SOL    HW2  370   1.545   3.066   2.958
   79SOL     OW  371   1.924   3.868   2.272
   79SOL    HW1  372   1.849   3.828   2.315
   79SOL    HW2  373   1.979   3.901   2.343
   80SOL     OW  374   3.145   3.082   1.664
   80SOL    HW1  375   3.193   3.134   1.599
   80SOL    HW2  376   3.162   3.126   1.747
   81SOL     OW  377   3.421   2.246   3.176
   81SOL    HW1  378   3.386   2.289   3.254
   81SOL    HW2  379   3.442   2.157   3.205
   82SOL     OW  380   0.585   0.209   3.703
   82SOL    HW1  381   0.569   0.303   3.696
   82SOL    HW2  382   0.679   0.199   3.688
   83SOL     OW  383   2.520   0.585   0.551
   83SOL    HW1  384   2.510   0.680   0.563
   83SOL    HW2  385   2.443   0.548   0.593
   84SOL     OW  386   1.851   3.091   2.919
   84SOL    HW1  387   1.799   3.011   2.919
   84SOL    HW2  388   1.911   3.081   2.844
   85SOL     OW  389   0.048   0.749   0.039
   85SOL    HW1  390   0.123   0.803   0.065
   85SOL    HW2  391   0.087   0.665   0.014
   86SOL     OW  392   0.098   3.548   0.077
   86SOL    HW1  393   0.066   3.464   0.111
   86SOL    HW2  394   0.036   3.613   0.111
   87SOL     OW  395   0.338   1.588   2.199
   87SOL    HW1  396   0.362   1.650   2.131
   87SOL    HW2  397   0.416   1.579   2.253
   88SOL     OW  398   1.722   1.305   2.596
   88SOL    HW1  399   1.813   1.276   2.597
   88SOL    HW2  400   1.709   1.346   2.682
   89SOL     OW  401   2.327   0.163   1.711
   89SOL    HW1  402   2.256   0.224   1.694
   89SOL    HW2  403   2.286   0.089   1.755
   90SOL     OW  404   3.852   0.405   2.422
   90SOL    HW1  405   3.820   0.474   2.480
   90SOL    HW2  406   3.946   0.402   2.439
   91SOL     OW  407   2.754   3.640   3.503
   91SOL    HW1  408   2.840   3.683   3.503
   91SOL    HW2  409   2.753   3.589   3.585
   92SOL     OW  410   2.394   0.516   2.274
   92SOL    HW1  411   2.459   0.541   2.340
   92SOL    HW2  412   2.345   0.445   2.316
   93SOL     OW  413   1.405   2.838   3.296
   93SOL    HW1  414   1.334   2.890   3.334
   93SOL    HW2  415   1.484   2.889   3.314
   94SOL     OW  416   0.259   1.378   3.017
   94SOL    HW1  417   0.189   1.420   2.968
   94SOL    HW2  418   0.292   1.310   2.958
   95SOL     OW  419   3.706   1.979   0.283
   95SOL    HW1  420   3.719   2.049   0.346
   95SOL    HW2  421   3.663   2.021   0.209
   96SOL     OW  422   2.560   2.277   0.717
   96SOL    HW1  423   2.601   2.210   0.773
   96SOL    HW2  424   2.574   2.244   0.627
   97SOL     OW  425   2.124   1.928   0.186
   97SOL    HW1  426   2.097   1.859   0.247
   97SOL    HW2  427   2.044   1.950   0.139
   98SOL     OW  428   2.964   3.015   3.547
   98SOL    HW1  429   3.003   3.055   3.470
   98SOL    HW2  430   2.950   2.923   3.522
   99SOL     OW  431   0.448   1.656   1.704
   99SOL    HW1  432   0.369   1.602   1.695
   99SOL    HW2  433   0.475   1.673   1.613
  100SOL     OW  434   2.238   2.711   1.344
  100SOL    HW1  435   2.262   2.731   1.254
  100SOL    HW2  436   2.278   2.781   1.396
  101SOL     OW  437   1.502   2.038   3.799
  101SOL    HW1  438   1.466   1.992   3.875
  101SOL    HW2  439   1.459   2.123   3.801
  102SOL     OW  440   3.539   3.375   2.114
  102SOL    HW1  441   3.502   3.287   2.112
  102SOL    HW2  442   3.479   3.424   2.170
  103SOL     OW  443   0.672   3.357   1.209
  103SOL    HW1  444   0.596   3.358   1.267
  103SOL    HW2  445   0.724   3.433   1.236
  104SOL     OW  446   3.701   2.635   1.897
  104SOL    HW1  447   3.636   2.570   1.871
  104SOL    HW2  448   3.752   2.592   1.966
  105SOL     OW  449   2.547   1.493   2.780
  105SOL    HW1  450   2.455   1.468   2.784
  105SOL    HW2  451   2.580   1.451   2.700
  106SOL     OW  452   2.564   2.789   0.414
  106SOL    HW1  453   2.647   2.835   0.408
  106SOL    HW2  454   2.549   2.753   0.326
  107SOL     OW  455   2.002   3.599   3.483
  107SOL    HW1  456   2.090   3.598   3.443
  107SOL    HW2  457   1.998   3.518   3.534
  108SOL     OW  458   0.955   3.173   3.570
  108SOL    HW1  459   1.006   3.196   3.648
  108SOL    HW2  460   0.997   3.094   3.536
  109SOL     OW  461   1.935   2.801   1.212
  109SOL    HW1  462   1.932   2.801   1.308
  109SOL    HW2  463   1.976   2.884   1.190
  110SOL     OW  464   0.110   1.079   3.451
  110SOL    HW1  465   0.121   1.120   3.365
  110SOL    HW2  466   0.097   0.986   3.432
  111SOL     OW  467   3.271   0.677   3.663
  111SOL    HW1  468   3.283   0.722   3.580
  111SOL    HW2  469   3.359   0.656   3.692
  112SOL     OW  470   1.354   3.264   3.776
  112SOL    HW1  471   1.268   3.275   3.816
  112SOL    HW2  472   1.340   3.200   3.706
  113SOL     OW  473   3.800   3.788   2.034
  113SOL    HW1  474   3.806   3.694   2.015
  113SOL    HW2  475   3.874   3.806   2.092
  114SOL     OW  476   3.131   0.761   0.253
  114SOL    HW1  477   3.135   0.769   0.157
  114SOL    HW2  478   3.196   0.694   0.274
  115SOL     OW  479   0.815   0.940   3.328
  115SOL    HW1  480   0.895   0.903   3.291
  115SOL    HW2  481   0.747   0.918   3.265
  116SOL     OW  482   3.758   0.571   0.065
  116SOL    HW1  483   3.804   0.651   0.089
  116SOL    HW2  484   3.773   0.562  -0.029
  117SOL     OW  485   0.173   2.671   3.242
  117SOL    HW1  486   0.106   2.647   3.306
  117SOL    HW2  487   0.144   2.632   3.160
  118SOL     OW  488   1.708   3.632   2.649
  118SOL    HW1  489   1.670   3.546   2.665
  118SOL    HW2  490   1.795   3.614   2.614
  119SOL     OW  491   1.627   2.029   1.840
  119SOL    HW1  492   1.543   2.068   1.817
  119SOL    HW2  493   1.659   2.083   1.912
  120SOL     OW  494   0.019   1.507   1.041
  120SOL    HW1  495  -0.021   1.592   1.063
  120SOL    HW2  496   0.077   1.527   0.968
  121SOL     OW  497   2.981   3.090   1.068
  121SOL    HW1  498   2.915   3.105   1.136
  121SOL    HW2  499   3.045   3.032   1.110
  122SOL     OW  500   1.356   3.239   1.180
  122SOL    HW1  501   1.309   3.169   1.225
  122SOL    HW2  502   1.316   3.320   1.214
  123SOL     OW  503   2.293   1.412   0.366
  123SOL    HW1  504   2.264   1.343   0.306
  123SOL    HW2  505   2.250   1.491   0.333
  124SOL     OW  506   3.681   0.357   0.179
  124SOL    HW1  507   3.700   0.434   0.126
  124SOL    HW2  508   3.746   0.292   0.152
  125SOL     OW  509   2.574   2.935   0.767
  125SOL    HW1  510   2.625   2.857   0.789
  125SOL    HW2  511   2.637   2.994   0.725
  126SOL     OW  512   3.565   0.019   1.840
  126SOL    HW1  513   3.544   0.112   1.830
  126SOL    HW2  514   3.591   0.010   1.932
  127SOL     OW  515   3.287   1.125   2.805
  127SOL    HW1  516   3.293   1.113   2.711
  127SOL    HW2  517   3.375   1.147   2.833
  128SOL     OW  518   0.493   3.352   3.567
  128SOL    HW1  519   0.448   3.295   3.505
  128SOL    HW2  520   0.454   3.331   3.651
  129SOL     OW  521   2.147   3.337   2.656
  129SOL    HW1  522   2.076   3.354   2.718
  129SOL    HW2  523   2.196   3.265   2.695
  130SOL     OW  524   3.154   1.862   0.052
  130SOL    HW1  525   3.216   1.805   0.006
  130SOL    HW2  526   3.078   1.807   0.067
  131SOL     OW  527   0.523   3.370   2.102
  131SOL    HW1  528   0.455   3.425   2.065
  131SOL    HW2  529   0.542   3.409   2.187
  132SOL     OW  530   2.743   0.407   1.254
  132SOL    HW1  531   2.755   0.356   1.173
  132SOL    HW2  532   2.756   0.343   1.324
  133SOL     OW  533   1.537   2.798   1.509
  133SOL    HW1  534   1.530   2.879   1.459
  133SOL    HW2  535   1.606   2.748   1.465
  134SOL     OW  536   0.167   3.350   2.253
  134SOL    HW1  537   0.136   3.262   2.276
  134SOL    HW2  538   0.223   3.374   2.327
  135SOL     OW  539   3.507   0.545   2.749
  135SOL    HW1  540   3.462   0.469   2.712
  135SOL    HW2  541   3.471   0.554   2.837
  136SOL     OW  542   2.667   0.347   0.069
  136SOL    HW1  543   2.650   0.439   0.085
  136SOL    HW2  544   2.631   0.330  -0.018
  137SOL     OW  545   3.318   1.892   1.871
  137SOL    HW1  546   3.331   1.804   1.906
  137SOL    HW2  547   3.375   1.896   1.794
  138SOL     OW  548   0.862   3.899   2.868
  138SOL    HW1  549   0.939   3.949   2.895
  138SOL    HW2  550   0.828   3.862   2.950
  139SOL     OW  551   2.865   0.960   0.289
  139SOL    HW1  552   2.872   0.975   0.383
  139SOL    HW2  553   2.867   0.864   0.280
  140SOL     OW  554   0.888   2.558   2.095
  140SOL    HW1  555   0.809   2.556   2.042
  140SOL    HW2  556   0.899   2.650   2.119
  141SOL     OW  557   2.351   0.608   0.097
  141SOL    HW1  558   2.443   0.583   0.087
  141SOL    HW2  559   2.329   0.653   0.016
  142SOL     OW  560   3.717   2.389   3.717
  142SOL    HW1  561   3.649   2.324   3.704
  142SOL    HW2  562   3.676   2.457   3.771
  143SOL     OW  563   0.934   3.549   0.190
  143SOL    HW1  564   1.020   3.508   0.199
  143SOL    HW2  565   0.943   3.633   0.234
  144SOL     OW  566   1.681   3.329   2.253
  144SOL    HW1  567   1.745   3.372   2.196
  144SOL    HW2  568   1.719   3.335   2.341
  145SOL     OW  569   2.831   3.848   2.968
  145SOL    HW1  570   2.889   3.921   2.945
  145SOL    HW2  571   2.744   3.880   2.945
  146SOL     OW  572   2.287   1.932   3.261
  146SOL    HW1  573   2.286   1.850   3.311
  146SOL    HW2  574   2.344   1.990   3.312
  147SOL     OW  575   0.593   3.228   2.847
  147SOL    HW1  576   0.655   3.289   2.806
  147SOL    HW2  577   0.648   3.161   2.887
  148SOL     OW  578   2.544   1.364   2.518
  148SOL    HW1  579   2.631   1.400   2.498
  148SOL    HW2  580   2.483   1.432   2.490
  149SOL     OW  581   3.022   3.511   0.618
  149SOL    HW1  582   3.107   3.530   0.658
  149SOL    HW2  583   2.997   3.593   0.575
  150SOL     OW  584   0.659   1.890   1.294
  150SOL    HW1  585   0.660   1.969   1.348
  150SOL    HW2  586   0.750   1.876   1.269
  151SOL     OW  587   1.265   1.558   1.998
  151SOL    HW1  588   1.341   1.601   2.038
  151SOL    HW2  589   1.296   1.471   1.974
  152SOL     OW  590   3.643   2.786   1.534
  152SOL    HW1  591   3.626   2.797   1.441
  152SOL    HW2  592   3.563   2.743   1.568
  153SOL     OW  593   0.799   2.117   1.095
  153SOL    HW1  594   0.835   2.183   1.155
  153SOL    HW2  595   0.817   2.033   1.137
  154SOL     OW  596   1.136   0.559   2.625
  154SOL    HW1  597   1.071   0.629   2.619
  154SOL    HW2  598   1.152   0.532   2.535
  155SOL     OW  599   2.904   2.349   0.969
  155SOL    HW1  600   2.884   2.443   0.965
  155SOL    HW2  601   2.908   2.329   1.062
  156SOL     OW  602   3.016   3.658   3.098
  156SOL    HW1  603   3.040   3.750   3.094
  156SOL    HW2  604   2.937   3.651   3.044
  157SOL     OW  605   2.374   0.970   2.785
  157SOL    HW1  606   2.351   1.049   2.736
  157SOL    HW2  607   2.298   0.952   2.840
  158SOL     OW  608   2.122   0.983   2.506
  158SOL    HW1  609   2.193   1.043   2.483
  158SOL    HW2  610   2.163   0.918   2.563
  159SOL     OW  611   3.735   0.621   1.971
  159SOL    HW1  612   3.764   0.577   2.052
  159SOL    HW2  613   3.644   0.645   1.988
  160SOL     OW  614   1.740   2.506   2.288
  160SOL    HW1  615   1.718   2.497   2.196
  160SOL    HW2  616   1.656   2.519   2.332
  161SOL     OW  617   0.315   0.517   3.383
  161SOL    HW1  618   0.391   0.482   3.337
  161SOL    HW2  619   0.240   0.487   3.332
  162SOL     OW  620   2.967   0.537   3.556
  162SOL    HW1  621   3.018   0.567   3.481
  162SOL    HW2  622   2.916   0.464   3.522
  163SOL     OW  623   1.558   1.256   2.368
  163SOL    HW1  624   1.553   1.168   2.406
  163SOL    HW2  625   1.613   1.305   2.429
  164SOL     OW  626   2.996   2.291   1.433
  164SOL    HW1  627   3.026   2.204   1.460
  164SOL    HW2  628   3.018   2.348   1.507
  165SOL     OW  629   3.252   3.328   0.019
  165SOL    HW1  630   3.233   3.402  -0.038
  165SOL    HW2  631   3.169   3.309   0.062
  166SOL     OW  632   2.756   2.017   2.767
  166SOL    HW1  633   2.668   2.054   2.779
  166SOL    HW2  634   2.744   1.945   2.705
  167SOL     OW  635   1.832   1.606   0.205
  167SOL    HW1  636   1.886   1.528   0.193
  167SOL    HW2  637   1.795   1.623   0.119
  168SOL     OW  638   3.249   1.017   1.290
  168SOL    HW1  639   3.269   1.108   1.313
  168SOL    HW2  640   3.327   0.968   1.315
  169SOL     OW  641   0.724   0.634   1.647
  169SOL    HW1  642   0.668   0.559   1.670
  169SOL    HW2  643   0.811   0.595   1.633
  170SOL     OW  644   3.693   2.385   0.666
  170SOL    HW1  645   3.668   2.470   0.700
  170SOL    HW2  646   3.672   2.324   0.737
  171SOL     OW  647   0.360   1.845   0.374
  171SOL    HW1  648   0.290   1.826   0.437
  171SOL    HW2  649   0.432   1.878   0.428
  172SOL     OW  650   2.359   1.199   2.635
  172SOL    HW1  651   2.426   1.248   2.588
  172SOL    HW2  652   2.299   1.267   2.667
  173SOL     OW  653   1.779   0.369   2.580
  173SOL    HW1  654   1.786   0.464   2.579
  173SOL    HW2  655   1.700   0.351   2.528
  174SOL     OW  656   1.732   2.172   1.582
  174SOL    HW1  657   1.680   2.121   1.644
  174SOL    HW2  658   1.808   2.201   1.632
  175SOL     OW  659   1.791   2.563   0.821
  175SOL    HW1  660   1.747   2.647   0.811
  175SOL    HW2  661   1.839   2.570   0.904
  176SOL     OW  662   2.325   2.924   2.664
  176SOL    HW1  663   2.367   2.839   2.682
  176SOL    HW2  664   2.310   2.923   2.569
  177SOL     OW  665   2.768   0.969   3.654
  177SOL    HW1  666   2.732   1.056   3.673
  177SOL    HW2  667   2.762   0.962   3.558
  178SOL     OW  668   1.948   3.371   2.843
  178SOL    HW1  669   1.929   3.337   2.931
  178SOL    HW2  670   1.863   3.393   2.807
  179SOL     OW  671   1.363   2.380   0.376
  179SOL    HW1  672   1.357   2.358   0.469
  179SOL    HW2  673   1.454   2.405   0.363
  180SOL     OW  674   0.773   2.625   2.900
  180SOL    HW1  675   0.814   2.592   2.820
  180SOL    HW2  676   0.772   2.720   2.890
  181SOL     OW  677   1.735   2.707   3.350
  181SOL    HW1  678   1.827   2.730   3.363
  181SOL    HW2  679   1.690   2.791   3.341
  182SOL     OW  680   3.075   3.590   1.738
  182SOL    HW1  681   3.075   3.579   1.833
  182SOL    HW2  682   3.094   3.683   1.725
  183SOL     OW  683   3.556   1.070   2.069
  183SOL    HW1  684   3.598   1.005   2.013
  183SOL    HW2  685   3.627   1.124   2.101
  184SOL     OW  686   0.718   2.663   1.556
  184SOL    HW1  687   0.779   2.642   1.627
  184SOL    HW2  688   0.643   2.702   1.600
  185SOL     OW  689   1.972   0.395   1.941
  185SOL    HW1  690   1.995   0.409   2.033
  185SOL    HW2  691   1.940   0.305   1.937
  186SOL     OW  692   3.193   2.297   1.674
  186SOL    HW1  693   3.174   2.205   1.654
  186SOL    HW2  694   3.249   2.294   1.751
  187SOL     OW  695   2.646   1.322   0.185
  187SOL    HW1  696   2.705   1.262   0.140
  187SOL    HW2  697   2.600   1.369   0.115
  188SOL     OW  698   1.851   2.592   0.182
  188SOL    HW1  699   1.825   2.657   0.117
  188SOL    HW2  700   1.938   2.620   0.211
  189SOL     OW  701   1.864   1.768   3.330
  189SOL    HW1  702   1.801   1.701   3.304
  189SOL    HW2  703   1.923   1.723   3.390
  190SOL     OW  704   0.699   2.258   2.864
  190SOL    HW1  705   0.730   2.245   2.775
  190SOL    HW2  706   0.604   2.270   2.855
  191SOL     OW  707   0.725   1.615   1.784
  191SOL    HW1  708   0.643   1.624   1.735
  191SOL    HW2  709   0.761   1.703   1.787
  192SOL     OW  710   2.566   2.585   0.864
  192SOL    HW1  711   2.573   2.596   0.959
  192SOL    HW2  712   2.484   2.630   0.841
  193SOL     OW  713   2.004   0.868   0.963
  193SOL    HW1  714   2.031   0.950   0.922
  193SOL    HW2  715   1.947   0.826   0.898
  194SOL     OW  716   0.211   1.039   1.248
  194SOL    HW1  717   0.136   1.057   1.191
  194SOL    HW2  718   0.287   1.042   1.190
  195SOL     OW  719   1.625   2.286   3.288
  195SOL    HW1  720   1.599   2.257   3.201
  195SOL    HW2  721   1.557   2.347   3.315
  196SOL     OW  722   2.707   1.207   1.682
  196SOL    HW1  723   2.724   1.138   1.746
  196SOL    HW2  724   2.791   1.220   1.637
  197SOL     OW  725   3.852   0.812   2.657
  197SOL    HW1  726   3.831   0.828   2.749
  197SOL    HW2  727   3.846   0.717   2.647
  198SOL     OW  728   0.025   2.653   0.829
  198SOL    HW1  729   0.098   2.615   0.780
  198SOL    HW2  730  -0.042   2.671   0.763
  199SOL     OW  731   3.361   2.887   2.234
  199SOL    HW1  732   3.266   2.891   2.222
  199SOL    HW2  733   3.380   2.961   2.291
  200SOL     OW  734   3.356   1.996   0.450
  200SOL    HW1  735   3.414   1.955   0.515
  200SOL    HW2  736   3.323   1.923   0.398
  201SOL     OW  737   3.795   2.407   0.993
  201SOL    HW1  738   3.820   2.350   0.920
  201SOL    HW2  739   3.760   2.485   0.951
  202SOL     OW  740   0.477   0.722   1.470
  202SOL    HW1  741   0.485   0.734   1.376
  202SOL    HW2  742   0.567   0.705   1.500
  203SOL     OW  743   3.803   3.046   2.487
  203SOL    HW1  744   3.837   3.067   2.574
  203SOL    HW2  745   3.874   3.070   2.427
  204SOL     OW  746   1.687   2.849   3.807
  204SOL    HW1  747   1.774   2.887   3.817
  204SOL    HW2  748   1.678   2.833   3.714
  205SOL     OW  749   0.510   2.159   1.048
  205SOL    HW1  750   0.600   2.172   1.077
  205SOL    HW2  751   0.492   2.067   1.065
  206SOL     OW  752   1.884   0.706   0.320
  206SOL    HW1  753   1.792   0.689   0.302
  206SOL    HW2  754   1.923   0.619   0.327
  207SOL     OW  755   2.547   1.963   3.067
  207SOL    HW1  756   2.458   1.928   3.069
  207SOL    HW2  757   2.565   1.978   2.975
  208SOL     OW  758   1.044   2.505   0.386
  208SOL    HW1  759   0.997   2.426   0.411
  208SOL    HW2  760   1.032   2.565   0.459
  209SOL     OW  761   3.887   1.782   3.198
  209SOL    HW1  762   3.934   1.839   3.258
  209SOL    HW2  763   3.955   1.729   3.157
  210SOL     OW  764   2.749   0.039   0.826
  210SOL    HW1  765   2.755   0.023   0.732
  210SOL    HW2  766   2.821   0.099   0.845
  211SOL     OW  767   3.217   3.589   3.882
  211SOL    HW1  768   3.232   3.627   3.969
  211SOL    HW2  769   3.277   3.637   3.825
  212SOL     OW  770   3.732   0.682   2.874
  212SOL    HW1  771   3.701   0.673   2.964
  212SOL    HW2  772   3.796   0.610   2.863
  213SOL     OW  773   3.900   3.316   0.190
  213SOL    HW1  774   3.837   3.250   0.161
  213SOL    HW2  775   3.956   3.270   0.252
  214SOL     OW  776   0.773   1.534   2.256
  214SOL    HW1  777   0.868   1.527   2.257
  214SOL    HW2  778   0.743   1.452   2.217
  215SOL     OW  779   1.618   0.915   2.447
  215SOL    HW1  780   1.648   0.883   2.362
  215SOL    HW2  781   1.615   0.837   2.502
  216SOL     OW  782   2.410   3.845   1.825
  216SOL    HW1  783   2.320   3.815   1.814
  216SOL    HW2  784   2.463   3.766   1.820
  217SOL     OW  785   0.780   3.448   1.606
  217SOL    HW1  786   0.747   3.537   1.624
  217SOL    HW2  787   0.875   3.457   1.610
  218SOL     OW  788   3.027   1.772   3.008
  218SOL    HW1  789   2.940   1.736   2.993
  218SOL    HW2  790   3.016   1.833   3.081
  219SOL     OW  791   1.576   3.082   3.597
  219SOL    HW1  792   1.508   3.140   3.563
  219SOL    HW2  793   1.658   3.126   3.575
  220SOL     OW  794   0.182   0.439   2.645
  220SOL    HW1  795   0.193   0.392   2.728
  220SOL    HW2  796   0.185   0.370   2.578
  221SOL     OW  797   3.491   2.318   2.923
  221SOL    HW1  798   3.580   2.285   2.911
  221SOL    HW2  799   3.474   2.306   3.017
  222SOL     OW  800   3.040   1.975   3.786
  222SOL    HW1  801   3.058   1.942   3.874
  222SOL    HW2  802   3.058   1.900   3.729
  223SOL     OW  803   2.194   1.327   3.076
  223SOL    HW1  804   2.130   1.271   3.031
  223SOL    HW2  805   2.274   1.320   3.024
  224SOL     OW  806   1.052   1.657   1.836
  224SOL    HW1  807   1.111   1.615   1.899
  224SOL    HW2  808   1.101   1.733   1.805
  225SOL     OW  809   3.130   2.555   0.266
  225SOL    HW1  810   3.090   2.489   0.323
  225SOL    HW2  811   3.087   2.544   0.182
  226SOL     OW  812   1.741   0.105   3.559
  226SOL    HW1  813   1.666   0.054   3.587
  226SOL    HW2  814   1.815   0.044   3.563
  227SOL     OW  815   3.348   1.958   3.773
  227SOL    HW1  816   3.369   1.878   3.821
  227SOL    HW2  817   3.260   1.981   3.802
  228SOL     OW  818   1.891   0.324   2.827
  228SOL    HW1  819   1.854   0.338   2.740
  228SOL    HW2  820   1.815   0.306   2.882
  229SOL     OW  821   0.240   3.615   0.499
  229SOL    HW1  822   0.209   3.681   0.560
  229SOL    HW2  823   0.325   3.648   0.470
  230SOL     OW  824   2.000   2.951   2.742
  230SOL    HW1  825   2.021   2.971   2.651
  230SOL    HW2  826   2.083   2.921   2.780
  231SOL     OW  827   0.623   2.254   1.986
  231SOL    HW1  828   0.647   2.232   1.896
  231SOL    HW2  829   0.694   2.218   2.039
  232SOL     OW  830   3.735   3.034   3.720
  232SOL    HW1  831   3.677   2.958   3.725
  232SOL    HW2  832   3.698   3.088   3.651
  233SOL     OW  833   1.497   0.948   2.968
  233SOL    HW1  834   1.567   0.914   3.024
  233SOL    HW2  835   1.543   0.998   2.900
  234SOL     OW  836   3.738   3.713   1.067
  234SOL    HW1  837   3.691   3.648   1.016
  234SOL    HW2  838   3.681   3.791   1.065
  235SOL     OW  839   1.681   3.020   2.609
  235SOL    HW1  840   1.719   2.934   2.589
  235SOL    HW2  841   1.637   3.007   2.693
  236SOL     OW  842   0.330   2.647   0.597
  236SOL    HW1  843   0.322   2.620   0.689
  236SOL    HW2  844   0.411   2.698   0.595
  237SOL     OW  845   2.660   2.330   1.136
  237SOL    HW1  846   2.709   2.412   1.127
  237SOL    HW2  847   2.592   2.335   1.069
  238SOL     OW  848   1.628   0.895   0.430
  238SOL    HW1  849   1.695   0.943   0.478
  238SOL    HW2  850   1.645   0.914   0.338
  239SOL     OW  851   3.097   1.062   0.717
  239SOL    HW1  852   3.082   1.090   0.807
  239SOL    HW2  853   3.181   1.101   0.693
  240SOL     OW  854   3.357   0.956   2.298
  240SOL    HW1  855   3.343   1.027   2.361
  240SOL    HW2  856   3.431   0.986   2.245
  241SOL     OW  857   3.268   0.288   3.140
  241SOL    HW1  858   3.190   0.338   3.117
  241SOL    HW2  859   3.341   0.341   3.108
  242SOL     OW  860   2.258   0.381   2.479
  242SOL    HW1  861   2.274   0.367   2.573
  242SOL    HW2  862   2.174   0.338   2.463
  243SOL     OW  863   1.525   0.732   3.969
  243SOL    HW1  864   1.517   0.827   3.967
  243SOL    HW2  865   1.583   0.711   3.895
  244SOL     OW  866   2.329   0.296   0.538
  244SOL    HW1  867   2.406   0.248   0.569
  244SOL    HW2  868   2.306   0.354   0.610
  245SOL     OW  869   3.660   3.810   0.016
  245SOL    HW1  870   3.744   3.844   0.048
  245SOL    HW2  871   3.668   3.715   0.023
  246SOL     OW  872   0.292   0.849   0.034
  246SOL    HW1  873   0.281   0.883  -0.054
  246SOL    HW2  874   0.357   0.778   0.025
  247SOL     OW  875   2.990   1.130   2.546
  247SOL    HW1  876   2.981   1.177   2.630
  247SOL    HW2  877   2.930   1.176   2.487
  248SOL     OW  878   2.812   0.730   0.643
  248SOL    HW1  879   2.831   0.700   0.732
  248SOL    HW2  880   2.856   0.667   0.586
  249SOL     OW  881   3.486   2.469   1.225
  249SOL    HW1  882   3.580   2.447   1.227
  249SOL    HW2  883   3.449   2.409   1.160
  250SOL     OW  884   0.842   2.931   2.302
  250SOL    HW1  885   0.784   2.857   2.285
  250SOL    HW2  886   0.815   2.963   2.388
  251SOL     OW  887   2.312   0.038   2.476
  251SOL    HW1  888   2.324   0.125   2.513
  251SOL    HW2  889   2.398   0.015   2.440
  252SOL     OW  890   2.845   2.403   1.802
  252SOL    HW1  891   2.809   2.465   1.865
  252SOL    HW2  892   2.911   2.452   1.754
  253SOL     OW  893   2.939   0.612   2.048
  253SOL    HW1  894   2.874   0.615   2.118
  253SOL    HW2  895   2.908   0.677   1.984
  254SOL     OW  896   3.815   0.718   3.381
  254SOL    HW1  897   3.756   0.782   3.419
  254SOL    HW2  898   3.894   0.767   3.359
  255SOL     OW  899   0.250   1.997   0.658
  255SOL    HW1  900   0.232   2.076   0.607
  255SOL    HW2  901   0.193   1.930   0.621
  256SOL     OW  902   1.405   2.214   1.743
  256SOL    HW1  903   1.414   2.308   1.726
  256SOL    HW2  904   1.347   2.182   1.674
  257SOL     OW  905   2.656   3.638   0.660
  257SOL    HW1  906   2.560   3.636   0.658
  257SOL    HW2  907   2.682   3.590   0.582
  258SOL     OW  908   3.548   0.977   3.179
  258SOL    HW1  909   3.457   1.007   3.181
  258SOL    HW2  910   3.593   1.041   3.123
  259SOL     OW  911   3.116   1.307   1.287
  259SOL    HW1  912   3.050   1.251   1.245
  259SOL    HW2  913   3.136   1.374   1.221
  260SOL     OW  914   1.862   2.190   2.876
  260SOL    HW1  915   1.886   2.268   2.925
  260SOL    HW2  916   1.794   2.148   2.929
  261SOL     OW  917   1.702   0.167   3.874
  261SOL    HW1  918   1.784   0.122   3.853
  261SOL    HW2  919   1.662   0.114   3.942
  262SOL     OW  920   1.832   2.345   3.700
  262SOL    HW1  921   1.883   2.411   3.746
  262SOL    HW2  922   1.897   2.294   3.651
  263SOL     OW  923   3.498   0.417   3.051
  263SOL    HW1  924   3.531   0.389   3.136
  263SOL    HW2  925   3.523   0.509   3.044
  264SOL     OW  926   3.974   3.714   2.861
  264SOL    HW1  927   3.938   3.785   2.807
  264SOL    HW2  928   3.900   3.654   2.873
  265SOL     OW  929   3.323   3.749   0.858
  265SOL    HW1  930   3.323   3.672   0.800
  265SOL    HW2  931   3.351   3.821   0.802
  266SOL     OW  932   0.676   2.388   1.461
  266SOL    HW1  933   0.683   2.455   1.530
  266SOL    HW2  934   0.701   2.434   1.381
  267SOL     OW  935   1.789   2.890   0.886
  267SOL    HW1  936   1.805   2.982   0.903
  267SOL    HW2  937   1.868   2.861   0.839
  268SOL     OW  938   0.267   2.884   1.362
  268SOL    HW1  939   0.307   2.969   1.380
  268SOL    HW2  940   0.293   2.863   1.273
  269SOL     OW  941   0.296   1.444   3.788
  269SOL    HW1  942   0.265   1.373   3.844
  269SOL    HW2  943   0.367   1.406   3.737
  270SOL     OW  944   1.734   0.822   2.824
  270SOL    HW1  945   1.732   0.908   2.782
  270SOL    HW2  946   1.755   0.840   2.916
  271SOL     OW  947   0.767   2.245   3.928
  271SOL    HW1  948   0.733   2.289   3.851
  271SOL    HW2  949   0.775   2.314   3.994
  272SOL     OW  950   0.573   2.726   0.502
  272SOL    HW1  951   0.527   2.648   0.473
  272SOL    HW2  952   0.645   2.737   0.439
  273SOL     OW  953   1.978   0.100   1.881
  273SOL    HW1  954   1.938   0.097   1.794
  273SOL    HW2  955   1.927   0.039   1.934
  274SOL     OW  956   0.858   0.195   3.708
  274SOL    HW1  957   0.926   0.127   3.708
  274SOL    HW2  958   0.895   0.266   3.761
  275SOL     OW  959   2.056   1.109   3.680
  275SOL    HW1  960   2.066   1.083   3.589
  275SOL    HW2  961   2.146   1.116   3.712
  276SOL     OW  962   2.559   3.357   1.132
  276SOL    HW1  963   2.512   3.319   1.207
  276SOL    HW2  964   2.636   3.399   1.171
  277SOL     OW  965   3.408   3.057   2.757
  277SOL    HW1  966   3.379   2.998   2.687
  277SOL    HW2  967   3.495   3.025   2.780
  278SOL     OW  968   1.541   3.872   0.811
  278SOL    HW1  969   1.506   3.906   0.729
  278SOL    HW2  970   1.586   3.948   0.850
  279SOL     OW  971   2.655   2.423   2.757
  279SOL    HW1  972   2.723   2.372   2.713
  279SOL    HW2  973   2.627   2.369   2.830
  280SOL     OW  974   0.154   3.066   0.859
  280SOL    HW1  975   0.176   3.094   0.948
  280SOL    HW2  976   0.076   3.012   0.870
  281SOL     OW  977   0.127   2.205   3.684
  281SOL    HW1  978   0.079   2.122   3.683
  281SOL    HW2  979   0.077   2.261   3.743
  282SOL     OW  980   3.299   0.766   2.838
  282SOL    HW1  981   3.366   0.831   2.817
  282SOL    HW2  982   3.216   0.808   2.814
  283SOL     OW  983   1.789   3.031   0.390
  283SOL    HW1  984   1.760   2.970   0.322
  283SOL    HW2  985   1.884   3.036   0.378
  284SOL     OW  986   3.880   0.462   0.342
  284SOL    HW1  987   3.791   0.434   0.318
  284SOL    HW2  988   3.919   0.385   0.383
  285SOL     OW  989   2.661   3.879   2.039
  285SOL    HW1  990   2.584   3.846   1.993
  285SOL    HW2  991   2.716   3.802   2.051
  286SOL     OW  992   3.825   3.296   3.220
  286SOL    HW1  993   3.874   3.228   3.266
  286SOL    HW2  994   3.880   3.374   3.225
  287SOL     OW  995   1.297   3.380   3.238
  287SOL    HW1  996   1.332   3.331   3.164
  287SOL    HW2  997   1.374   3.407   3.288
  288SOL     OW  998   1.885   2.898   2.316
  288SOL    HW1  999   1.878   2.858   2.403
  288SOL    HW2 1000   1.799   2.884   2.277
  289SOL     OW 1001   1.937   2.353   1.886
  289SOL    HW1 1002   1.862   2.392   1.840
  289SOL    HW2 1003   1.980   2.299   1.819
  290SOL     OW 1004   2.704   1.981  -0.012
  290SOL    HW1 1005   2.753   1.919   0.042
  290SOL    HW2 1006   2.645   2.025   0.049
  291SOL     OW 1007   2.332   1.658   2.014
  291SOL    HW1 1008   2.362   1.590   2.075
  291SOL    HW2 1009   2.380   1.641   1.933
  292SOL     OW 1010   3.225   0.131   3.946
  292SOL    HW1 1011   3.275   0.173   3.876
  292SOL    HW2 1012   3.274   0.051   3.966
  293SOL     OW 1013   2.271   2.086   0.975
  293SOL    HW1 1014   2.184   2.072   1.011
  293SOL    HW2 1015   2.328   2.030   1.028
  294SOL     OW 1016   2.334   1.170   0.117
  294SOL    HW1 1017   2.406   1.233   0.111
  294SOL    HW2 1018   2.378   1.085   0.126
  295SOL     OW 1019   3.434   2.542   3.771
  295SOL    HW1 1020   3.459   2.608   3.706
  295SOL    HW2 1021   3.413   2.592   3.850
  296SOL     OW 1022   2.212   2.514   3.378
  296SOL    HW1 1023   2.210   2.420   3.395
  296SOL    HW2 1024   2.179   2.523   3.289
  297SOL     OW 1025   1.477   3.925   0.514
  297SOL    HW1 1026   1.521   3.939   0.429
  297SOL    HW2 1027   1.422   4.002   0.525
  298SOL     OW 1028   3.426   3.812   3.781
  298SOL    HW1 1029   3.490   3.755   3.739
  298SOL    HW2 1030   3.458   3.822   3.871
  299SOL     OW 1031   3.471   0.732   2.014
  299SOL    HW1 1032   3.438   0.806   1.963
  299SOL    HW2 1033   3.427   0.738   2.098
  300SOL     OW 1034   1.860   3.576   0.218
  300SOL    HW1 1035   1.881   3.637   0.288
  300SOL    HW2 1036   1.933   3.583   0.157
  301SOL     OW 1037   1.541   1.560   3.551
  301SOL    HW1 1038   1.610   1.494   3.549
  301SOL    HW2 1039   1.464   1.514   3.586
  302SOL     OW 1040   0.892   2.429   3.555
  302SOL    HW1 1041   0.837   2.394   3.625
  302SOL    HW2 1042   0.979   2.436   3.594
  303SOL     OW 1043   3.413   2.176   2.339
  303SOL    HW1 1044   3.474   2.213   2.275
  303SOL    HW2 1045   3.334   2.230   2.331
  304SOL     OW 1046   2.465   1.095   1.612
  304SOL    HW1 1047   2.531   1.163   1.598
  304SOL    HW2 1048   2.515   1.015   1.629
  305SOL     OW 1049   1.561   2.317   2.690
  305SOL    HW1 1050   1.482   2.337   2.639
  305SOL    HW2 1051   1.569   2.222   2.685
  306SOL     OW 1052   0.092   3.098   2.335
  306SOL    HW1 1053   0.172   3.132   2.374
  306SOL    HW2 1054   0.121   3.022   2.284
  307SOL     OW 1055   2.536   0.166   0.678
  307SOL    HW1 1056   2.563   0.093   0.623
  307SOL    HW2 1057   2.521   0.126   0.764
  308SOL     OW 1058   3.245   0.411   3.774
  308SOL    HW1 1059   3.206   0.489   3.735
  308SOL    HW2 1060   3.222   0.416   3.867
  309SOL     OW 1061   3.313   2.958   1.213
  309SOL    HW1 1062   3.377   3.011   1.165
  309SOL    HW2 1063   3.362   2.925   1.289
  310SOL     OW 1064   1.094   2.165   2.808
  310SOL    HW1 1065   1.151   2.229   2.851
  310SOL    HW2 1066   1.141   2.082   2.818
  311SOL     OW 1067   1.045   3.506   1.593
  311SOL    HW1 1068   1.001   3.581   1.554
  311SOL    HW2 1069   1.137   3.532   1.598
  312SOL     OW 1070   3.827   1.727   0.308
  312SOL    HW1 1071   3.874   1.699   0.229
  312SOL    HW2 1072   3.781   1.806   0.281
  313SOL     OW 1073   2.939   3.212   3.795
  313SOL    HW1 1074   2.991   3.188   3.873
  313SOL    HW2 1075   2.970   3.153   3.727
  314SOL     OW 1076   2.842   2.154   0.560
  314SOL    HW1 1077   2.830   2.130   0.652
  314SOL    HW2 1078   2.934   2.133   0.542
  315SOL     OW 1079   0.197   0.753   2.955
  315SOL    HW1 1080   0.266   0.728   2.894
  315SOL    HW2 1081   0.240   0.755   3.041
  316SOL     OW 1082   0.964   1.107   1.994
  316SOL    HW1 1083   0.903   1.040   2.025
  316SOL    HW2 1084   1.028   1.116   2.065
  317SOL     OW 1085   1.584   2.148   1.337
  317SOL    HW1 1086   1.650   2.189   1.393
  317SOL    HW2 1087   1.557   2.217   1.277
  318SOL     OW 1088   1.855   2.526   3.178
  318SOL    HW1 1089   1.846   2.441   3.220
  318SOL    HW2 1090   1.828   2.589   3.245
  319SOL     OW 1091   2.080   1.995   2.834
  319SOL    HW1 1092   2.070   1.904   2.807
  319SOL    HW2 1093   1.995   2.035   2.816
  320SOL     OW 1094   1.125   3.064   2.089
  320SOL    HW1 1095   1.187   3.087   2.158
  320SOL    HW2 1096   1.167   2.991   2.043
  321SOL     OW 1097   3.775   1.224   2.110
  321SOL    HW1 1098   3.817   1.279   2.176
  321SOL    HW2 1099   3.847   1.196   2.053
  322SOL     OW 1100   0.324   1.763   2.483
  322SOL    HW1 1101   0.352   1.711   2.408
  322SOL    HW2 1102   0.398   1.758   2.544
  323SOL     OW 1103   0.945   3.618   0.680
  323SOL    HW1 1104   0.971   3.548   0.739
  323SOL    HW2 1105   0.862   3.650   0.717
  324SOL     OW 1106   3.859   2.894   0.137
  324SOL    HW1 1107   3.803   2.823   0.168
  324SOL    HW2 1108   3.798   2.965   0.115
  325SOL     OW 1109   2.784   0.711   1.850
  325SOL    HW1 1110   2.717   0.645   1.869
  325SOL    HW2 1111   2.812   0.693   1.761
  326SOL     OW 1112   2.264   2.222   3.333
  326SOL    HW1 1113   2.221   2.184   3.256
  326SOL    HW2 1114   2.354   2.188   3.329
  327SOL     OW 1115   2.087   0.775   0.126
  327SOL    HW1 1116   2.159   0.713   0.138
  327SOL    HW2 1117   2.030   0.761   0.202
  328SOL     OW 1118   2.168   2.714   0.137
  328SOL    HW1 1119   2.175   2.625   0.103
  328SOL    HW2 1120   2.249   2.757   0.112
  329SOL     OW 1121   3.730   2.589   0.483
  329SOL    HW1 1122   3.713   2.498   0.507
  329SOL    HW2 1123   3.733   2.635   0.567
  330SOL     OW 1124   3.397   1.418   1.364
  330SOL    HW1 1125   3.470   1.385   1.312
  330SOL    HW2 1126   3.372   1.500   1.320
  331SOL     OW 1127   0.340   3.184   3.460
  331SOL    HW1 1128   0.403   3.111   3.451
  331SOL    HW2 1129   0.260   3.151   3.421
  332SOL     OW 1130   1.507   2.478   0.791
  332SOL    HW1 1131   1.457   2.542   0.843
  332SOL    HW2 1132   1.598   2.498   0.811
  333SOL     OW 1133   3.739   2.527   2.501
  333SOL    HW1 1134   3.733   2.467   2.575
  333SOL    HW2 1135   3.775   2.474   2.430
  334SOL     OW 1136   0.222   1.871   3.400
  334SOL    HW1 1137   0.203   1.790   3.352
  334SOL    HW2 1138   0.313   1.891   3.377
  335SOL     OW 1139   1.844   1.125   1.695
  335SOL    HW1 1140   1.859   1.035   1.725
  335SOL    HW2 1141   1.814   1.115   1.605
  336SOL     OW 1142   2.880   3.846   1.827
  336SOL    HW1 1143   2.898   3.857   1.733
  336SOL    HW2 1144   2.888   3.934   1.863
  337SOL     OW 1145   3.207   2.822   1.472
  337SOL    HW1 1146   3.283   2.875   1.495
  337SOL    HW2 1147   3.132   2.881   1.483
  338SOL     OW 1148   2.643   1.166   1.279
  338SOL    HW1 1149   2.659   1.158   1.185
  338SOL    HW2 1150   2.720   1.125   1.319
  339SOL     OW 1151   0.881   0.302   0.500
  339SOL    HW1 1152   0.847   0.388   0.477
  339SOL    HW2 1153   0.970   0.301   0.466
  340SOL     OW 1154   3.459   0.930   0.622
  340SOL    HW1 1155   3.371   0.901   0.599
  340SOL    HW2 1156   3.451   1.023   0.639
  341SOL     OW 1157   1.979   3.773   2.005
  341SOL    HW1 1158   1.955   3.681   2.018
  341SOL    HW2 1159   1.942   3.818   2.081
  342SOL     OW 1160   0.872   3.796   2.236
  342SOL    HW1 1161   0.821   3.737   2.180
  342SOL    HW2 1162   0.959   3.797   2.196
  343SOL     OW 1163   0.829   2.913   3.151
  343SOL    HW1 1164   0.845   3.005   3.172
  343SOL    HW2 1165   0.734   2.903   3.159
  344SOL     OW 1166   3.228   3.845   0.164
  344SOL    HW1 1167   3.225   3.901   0.242
  344SOL    HW2 1168   3.264   3.762   0.196
  345SOL     OW 1169   3.749   1.047   1.705
  345SOL    HW1 1170   3.841   1.050   1.680
  345SOL    HW2 1171   3.747   1.087   1.792
  346SOL     OW 1172   0.643   3.580   3.276
  346SOL    HW1 1173   0.577   3.513   3.259
  346SOL    HW2 1174   0.708   3.537   3.331
  347SOL     OW 1175   3.251   1.617   2.268
  347SOL    HW1 1176   3.211   1.608   2.181
  347SOL    HW2 1177   3.257   1.712   2.282
  348SOL     OW 1178   2.959   0.636   1.565
  348SOL    HW1 1179   2.928   0.546   1.558
  348SOL    HW2 1180   3.052   0.630   1.546
  349SOL     OW 1181   1.612   3.336   1.241
  349SOL    HW1 1182   1.520   3.314   1.222
  349SOL    HW2 1183   1.607   3.414   1.296
  350SOL     OW 1184   2.894   3.090   1.926
  350SOL    HW1 1185   2.878   3.106   1.833
  350SOL    HW2 1186   2.845   3.157   1.972
  351SOL     OW 1187   1.354   2.506   2.797
  351SOL    HW1 1188   1.284   2.483   2.735
  351SOL    HW2 1189   1.341   2.446   2.871
  352SOL     OW 1190   2.775   2.647   3.304
  352SOL    HW1 1191   2.810   2.636   3.215
  352SOL    HW2 1192   2.792   2.563   3.347
  353SOL     OW 1193   1.198   2.821   0.114
  353SOL    HW1 1194   1.285   2.837   0.079
  353SOL    HW2 1195   1.189   2.725   0.113
  354SOL     OW 1196   3.598   0.138   1.380
  354SOL    HW1 1197   3.618   0.045   1.392
  354SOL    HW2 1198   3.628   0.179   1.461
  355SOL     OW 1199   2.643   0.654   1.381
  355SOL    HW1 1200   2.678   0.575   1.341
  355SOL    HW2 1201   2.553   0.632   1.405
  356SOL     OW 1202   0.855   0.310   1.471
  356SOL    HW1 1203   0.772   0.357   1.482
  356SOL    HW2 1204   0.922   0.375   1.494
  357SOL     OW 1205   1.645   2.504   3.908
  357SOL    HW1 1206   1.644   2.576   3.971
  357SOL    HW2 1207   1.610   2.541   3.828
  358SOL     OW 1208   0.279   3.406   1.622
  358SOL    HW1 1209   0.233   3.354   1.688
  358SOL    HW2 1210   0.232   3.388   1.541
  359SOL     OW 1211   1.071   3.385   2.436
  359SOL    HW1 1212   1.108   3.402   2.350
  359SOL    HW2 1213   1.002   3.451   2.447
  360SOL     OW 1214   3.154   3.093   2.034
  360SOL    HW1 1215   3.117   3.177   2.062
  360SOL    HW2 1216   3.083   3.050   1.987
  361SOL     OW 1217   2.787   3.264   2.101
  361SOL    HW1 1218   2.755   3.216   2.178
  361SOL    HW2 1219   2.716   3.323   2.078
  362SOL     OW 1220   1.058   0.655   2.953
  362SOL    HW1 1221   0.973   0.637   2.913
  362SOL    HW2 1222   1.081   0.574   2.999
  363SOL     OW 1223   0.486   0.350   2.227
  363SOL    HW1 1224   0.435   0.418   2.184
  363SOL    HW2 1225   0.565   0.394   2.258
  364SOL     OW 1226   1.396   1.032   1.810
  364SOL    HW1 1227   1.406   0.978   1.731
  364SOL    HW2 1228   1.475   1.087   1.811
  365SOL     OW 1229   0.242   1.366   0.204
  365SOL    HW1 1230   0.195   1.436   0.158
  365SOL    HW2 1231   0.173   1.304   0.230
  366SOL     OW 1232   1.668   3.356   2.690
  366SOL    HW1 1233   1.666   3.307   2.608
  366SOL    HW2 1234   1.668   3.290   2.758
  367SOL     OW 1235   2.777   2.598   1.114
  367SOL    HW1 1236   2.828   2.617   1.192
  367SOL    HW2 1237   2.810   2.660   1.048
  368SOL     OW 1238   3.041   2.385   2.327
  368SOL    HW1 1239   3.092   2.449   2.376
  368SOL    HW2 1240   2.977   2.438   2.278
  369SOL     OW 1241   2.779   2.240   3.878
  369SOL    HW1 1242   2.828   2.242   3.796
  369SOL    HW2 1243   2.763   2.147   3.894
  370SOL     OW 1244   0.350   3.158   1.070
  370SOL    HW1 1245   0.316   3.070   1.083
  370SOL    HW2 1246   0.444   3.149   1.078
  371SOL     OW 1247   0.443   2.856   1.053
  371SOL    HW1 1248   0.529   2.871   1.092
  371SOL    HW2 1249   0.462   2.820   0.966
  372SOL     OW 1250   3.615   1.323   1.868
  372SOL    HW1 1251   3.621   1.266   1.945
  372SOL    HW2 1252   3.690   1.382   1.877
  373SOL     OW 1253   3.399   2.193   1.914
  373SOL    HW1 1254   3.356   2.192   1.999
  373SOL    HW2 1255   3.384   2.106   1.877
  374SOL     OW 1256   1.643   0.328   2.918
  374SOL    HW1 1257   1.622   0.395   2.982
  374SOL    HW2 1258   1.583   0.344   2.845
  375SOL     OW 1259   1.092   2.581   2.556
  375SOL    HW1 1260   1.023   2.603   2.494
  375SOL    HW2 1261   1.123   2.665   2.590
  376SOL     OW 1262   2.025   0.417   0.801
  376SOL    HW1 1263   1.991   0.412   0.712
  376SOL    HW2 1264   1.949   0.437   0.855
  377SOL     OW 1265   2.131   3.862   2.606
  377SOL    HW1 1266   2.047   3.874   2.561
  377SOL    HW2 1267   2.194   3.912   2.554
  378SOL     OW 1268   0.886   3.610   2.439
  378SOL    HW1 1269   0.899   3.679   2.374
  378SOL    HW2 1270   0.869   3.657   2.521
  379SOL     OW 1271   1.865   3.643   3.828
  379SOL    HW1 1272   1.915   3.579   3.878
  379SOL    HW2 1273   1.784   3.598   3.805
  380SOL     OW 1274   0.671   3.135   1.038
  380SOL    HW1 1275   0.683   3.055   1.089
  380SOL    HW2 1276   0.708   3.205   1.093
  381SOL     OW 1277   1.628   1.324   0.294
  381SOL    HW1 1278   1.684   1.352   0.367
  381SOL    HW2 1279   1.598   1.236   0.320
  382SOL     OW 1280   0.591   1.253   2.328
  382SOL    HW1 1281   0.537   1.323   2.364
  382SOL    HW2 1282   0.530   1.199   2.277
  383SOL     OW 1283   3.334   1.870   3.162
  383SOL    HW1 1284   3.294   1.939   3.110
  383SOL    HW2 1285   3.261   1.828   3.208
  384SOL     OW 1286   3.179   1.720   3.322
  384SOL    HW1 1287   3.215   1.632   3.325
  384SOL    HW2 1288   3.190   1.754   3.410
  385SOL     OW 1289   1.813   0.664   0.627
  385SOL    HW1 1290   1.840   0.658   0.536
  385SOL    HW2 1291   1.870   0.731   0.664
  386SOL     OW 1292   0.904   0.249   2.804
  386SOL    HW1 1293   0.975   0.219   2.748
  386SOL    HW2 1294   0.947   0.278   2.884
  387SOL     OW 1295   2.861   2.963   0.079
  387SOL    HW1 1296   2.930   2.913   0.035
  387SOL    HW2 1297   2.781   2.911   0.064
  388SOL     OW 1298   1.675   1.942   3.268
  388SOL    HW1 1299   1.599   1.938   3.326
  388SOL    HW2 1300   1.751   1.931   3.327
  389SOL     OW 1301   3.721   1.206   0.041
  389SOL    HW1 1302   3.795   1.145   0.049
  389SOL    HW2 1303   3.759   1.286   0.006
  390SOL     OW 1304   2.486   1.398   3.934
  390SOL    HW1 1305   2.392   1.413   3.917
  390SOL    HW2 1306   2.531   1.455   3.872
  391SOL     OW 1307   2.881   1.496   0.285
  391SOL    HW1 1308   2.839   1.411   0.270
  391SOL    HW2 1309   2.809   1.553   0.312
  392SOL     OW 1310   2.146   1.995   3.611
  392SOL    HW1 1311   2.215   2.044   3.567
  392SOL    HW2 1312   2.149   2.026   3.702
  393SOL     OW 1313   1.922   0.814   2.391
  393SOL    HW1 1314   1.874   0.865   2.326
  393SOL    HW2 1315   1.998   0.868   2.413
  394SOL     OW 1316   3.033   1.298   3.965
  394SOL    HW1 1317   2.960   1.319   3.907
  394SOL    HW2 1318   3.106   1.351   3.933
  395SOL     OW 1319   3.730   0.128   2.449
  395SOL    HW1 1320   3.726   0.064   2.378
  395SOL    HW2 1321   3.773   0.204   2.410
  396SOL     OW 1322   1.739   2.203   0.051
  396SOL    HW1 1323   1.688   2.244  -0.019
  396SOL    HW2 1324   1.753   2.273   0.115
  397SOL     OW 1325   2.232   0.270   3.346
  397SOL    HW1 1326   2.231   0.180   3.380
  397SOL    HW2 1327   2.184   0.264   3.263
  398SOL     OW 1328   0.989   2.266   1.747
  398SOL    HW1 1329   1.029   2.329   1.806
  398SOL    HW2 1330   1.012   2.297   1.659
  399SOL     OW 1331   3.444   1.720   2.549
  399SOL    HW1 1332   3.351   1.739   2.537
  399SOL    HW2 1333   3.483   1.737   2.463
  400SOL     OW 1334   2.588   0.107   1.741
  400SOL    HW1 1335   2.500   0.146   1.739
  400SOL    HW2 1336   2.581   0.036   1.805
  401SOL     OW 1337   1.350   3.911   1.251
  401SOL    HW1 1338   1.415   3.861   1.302
  401SOL    HW2 1339   1.394   3.995   1.234
  402SOL     OW 1340   3.622   2.459   3.205
  402SOL    HW1 1341   3.703   2.408   3.197
  402SOL    HW2 1342   3.562   2.401   3.253
  403SOL     OW 1343   3.918   3.817   0.131
  403SOL    HW1 1344   3.943   3.854   0.215
  403SOL    HW2 1345   3.968   3.867   0.066
  404SOL     OW 1346   2.073   1.753   3.707
  404SOL    HW1 1347   2.140   1.805   3.665
  404SOL    HW2 1348   2.113   1.723   3.789
  405SOL     OW 1349   0.798   2.457   3.118
  405SOL    HW1 1350   0.751   2.378   3.145
  405SOL    HW2 1351   0.753   2.487   3.039
  406SOL     OW 1352   3.433   1.531   1.691
  406SOL    HW1 1353   3.357   1.498   1.739
  406SOL    HW2 1354   3.408   1.619   1.662
  407SOL     OW 1355   3.067   0.932   2.301
  407SOL    HW1 1356   3.046   0.964   2.213
  407SOL    HW2 1357   3.161   0.946   2.309
  408SOL     OW 1358   3.254   3.487   0.763
  408SOL    HW1 1359   3.194   3.437   0.818
  408SOL    HW2 1360   3.321   3.423   0.737
  409SOL     OW 1361   3.697   3.106   0.044
  409SOL    HW1 1362   3.601   3.102   0.044
  409SOL    HW2 1363   3.720   3.130  -0.045
  410SOL     OW 1364   3.189   0.284   0.736
  410SOL    HW1 1365   3.116   0.343   0.755
  410SOL    HW2 1366   3.147   0.199   0.720
  411SOL     OW 1367   0.038   1.679   2.572
  411SOL    HW1 1368  -0.014   1.747   2.614
  411SOL    HW2 1369   0.126   1.714   2.569
  412SOL     OW 1370   3.905   1.402   1.712
  412SOL    HW1 1371   3.917   1.496   1.703
  412SOL    HW2 1372   3.835   1.381   1.649
  413SOL     OW 1373   1.582   1.224   1.780
  413SOL    HW1 1374   1.676   1.205   1.776
  413SOL    HW2 1375   1.575   1.316   1.754
  414SOL     OW 1376   2.378   1.955   2.576
  414SOL    HW1 1377   2.330   2.037   2.570
  414SOL    HW2 1378   2.405   1.949   2.668
  415SOL     OW 1379   2.261   3.523   1.283
  415SOL    HW1 1380   2.179   3.525   1.234
  415SOL    HW2 1381   2.250   3.591   1.350
  416SOL     OW 1382   1.701   3.174   3.837
  416SOL    HW1 1383   1.625   3.134   3.795
  416SOL    HW2 1384   1.771   3.110   3.827
  417SOL     OW 1385   1.705   0.995   0.169
  417SOL    HW1 1386   1.794   1.009   0.136
  417SOL    HW2 1387   1.649   1.030   0.099
  418SOL     OW 1388   2.027   2.303   3.531
  418SOL    HW1 1389   2.018   2.256   3.448
  418SOL    HW2 1390   2.120   2.298   3.551
  419SOL     OW 1391   3.822   0.334   3.832
  419SOL    HW1 1392   3.864   0.264   3.882
  419SOL    HW2 1393   3.731   0.306   3.822
  420SOL     OW 1394   1.059   0.057   1.630
  420SOL    HW1 1395   1.077   0.136   1.579
  420SOL    HW2 1396   0.972   0.029   1.601
  421SOL     OW 1397   1.263   1.851   3.457
  421SOL    HW1 1398   1.240   1.939   3.486
  421SOL    HW2 1399   1.179   1.807   3.444
  422SOL     OW 1400   0.411   2.631   1.409
  422SOL    HW1 1401   0.337   2.618   1.350
  422SOL    HW2 1402   0.448   2.715   1.382
  423SOL     OW 1403   2.375   1.805   0.356
  423SOL    HW1 1404   2.404   1.831   0.443
  423SOL    HW2 1405   2.280   1.801   0.362
  424SOL     OW 1406   1.333   1.320   1.566
  424SOL    HW1 1407   1.416   1.282   1.594
  424SOL    HW2 1408   1.352   1.359   1.481
  425SOL     OW 1409   1.479   0.706   2.191
  425SOL    HW1 1410   1.513   0.653   2.119
  425SOL    HW2 1411   1.500   0.796   2.167
  426SOL     OW 1412   2.749   3.052   2.558
  426SOL    HW1 1413   2.792   2.968   2.577
  426SOL    HW2 1414   2.816   3.118   2.574
  427SOL     OW 1415   0.498   0.322   2.926
  427SOL    HW1 1416   0.560   0.262   2.967
  427SOL    HW2 1417   0.536   0.409   2.940
  428SOL     OW 1418   0.672   3.681   1.774
  428SOL    HW1 1419   0.586   3.671   1.815
  428SOL    HW2 1420   0.683   3.775   1.762
  429SOL     OW 1421   2.794   3.608   2.391
  429SOL    HW1 1422   2.715   3.593   2.339
  429SOL    HW2 1423   2.791   3.541   2.460
  430SOL     OW 1424   1.595   0.222   1.881
  430SOL    HW1 1425   1.540   0.154   1.844
  430SOL    HW2 1426   1.684   0.189   1.871
  431SOL     OW 1427   3.405   0.724   1.254
  431SOL    HW1 1428   3.474   0.739   1.189
  431SOL    HW2 1429   3.442   0.756   1.336
  432SOL     OW 1430   1.307   3.637   1.520
  432SOL    HW1 1431   1.386   3.604   1.564
  432SOL    HW2 1432   1.328   3.729   1.500
  433SOL     OW 1433   1.465   3.477   2.367
  433SOL    HW1 1434   1.441   3.457   2.457
  433SOL    HW2 1435   1.501   3.395   2.333
  434SOL     OW 1436   1.075   1.175   3.388
  434SOL    HW1 1437   1.096   1.247   3.448
  434SOL    HW2 1438   1.002   1.130   3.429
  435SOL     OW 1439   0.095   2.789   2.626
  435SOL    HW1 1440   0.044   2.826   2.553
  435SOL    HW2 1441   0.186   2.800   2.600
  436SOL     OW 1442   3.829   1.820   1.937
  436SOL    HW1 1443   3.890   1.768   1.989
  436SOL    HW2 1444   3.837   1.909   1.973
  437SOL     OW 1445   0.425   3.678   3.017
  437SOL    HW1 1446   0.485   3.690   2.943
  437SOL    HW2 1447   0.466   3.610   3.070
  438SOL     OW 1448   1.245   0.800   2.780
  438SOL    HW1 1449   1.251   0.779   2.873
  438SOL    HW2 1450   1.184   0.734   2.745
  439SOL     OW 1451   0.415   1.201   1.763
  439SOL    HW1 1452   0.457   1.186   1.679
  439SOL    HW2 1453   0.397   1.295   1.765
  440SOL     OW 1454   3.087   2.825   3.881
  440SOL    HW1 1455   3.170   2.864   3.852
  440SOL    HW2 1456   3.040   2.807   3.800
  441SOL     OW 1457   3.500   3.112   3.592
  441SOL    HW1 1458   3.424   3.056   3.611
  441SOL    HW2 1459   3.471   3.167   3.518
  442SOL     OW 1460   0.359   2.497   1.640
  442SOL    HW1 1461   0.398   2.543   1.566
  442SOL    HW2 1462   0.407   2.529   1.716
  443SOL     OW 1463   2.953   2.494   2.640
  443SOL    HW1 1464   2.932   2.401   2.627
  443SOL    HW2 1465   3.042   2.493   2.675
  444SOL     OW 1466   2.348   3.768   0.969
  444SOL    HW1 1467   2.426   3.805   1.011
  444SOL    HW2 1468   2.275   3.798   1.023
  445SOL     OW 1469   3.386   3.701   1.998
  445SOL    HW1 1470   3.375   3.643   2.074
  445SOL    HW2 1471   3.467   3.671   1.957
  446SOL     OW 1472   3.628   2.084   1.245
  446SOL    HW1 1473   3.569   2.077   1.170
  446SOL    HW2 1474   3.690   2.153   1.220
  447SOL     OW 1475   1.331   0.964   2.483
  447SOL    HW1 1476   1.426   0.952   2.479
  447SOL    HW2 1477   1.295   0.891   2.433
  448SOL     OW 1478   2.756   1.717   2.861
  448SOL    HW1 1479   2.743   1.627   2.890
  448SOL    HW2 1480   2.683   1.735   2.802
  449SOL     OW 1481   3.450   3.289   2.404
  449SOL    HW1 1482   3.409   3.348   2.467
  449SOL    HW2 1483   3.542   3.316   2.403
  450SOL     OW 1484   3.335   1.747   0.293
  450SOL    HW1 1485   3.369   1.765   0.205
  450SOL    HW2 1486   3.241   1.760   0.286
  451SOL     OW 1487   2.213   1.280   2.003
  451SOL    HW1 1488   2.129   1.310   1.968
  451SOL    HW2 1489   2.237   1.206   1.947
  452SOL     OW 1490   3.822   3.256   1.021
  452SOL    HW1 1491   3.734   3.281   1.049
  452SOL    HW2 1492   3.880   3.318   1.066
  453SOL     OW 1493   3.521   3.683   3.090
  453SOL    HW1 1494   3.550   3.656   3.177
  453SOL    HW2 1495   3.478   3.767   3.104
  454SOL     OW 1496   0.041   1.620   2.054
  454SOL    HW1 1497   0.047   1.527   2.076
  454SOL    HW2 1498   0.125   1.657   2.083
  455SOL     OW 1499   1.348   2.814   3.738
  455SOL    HW1 1500   1.407   2.816   3.813
  455SOL    HW2 1501   1.361   2.727   3.700
  456SOL     OW 1502   0.491   3.726   2.326
  456SOL    HW1 1503   0.573   3.682   2.304
  456SOL    HW2 1504   0.487   3.800   2.264
  457SOL     OW 1505   2.391   3.121   0.198
  457SOL    HW1 1506   2.356   3.209   0.192
  457SOL    HW2 1507   2.362   3.089   0.284
  458SOL     OW 1508   1.259   3.546   0.362
  458SOL    HW1 1509   1.347   3.584   0.362
  458SOL    HW2 1510   1.208   3.607   0.416
  459SOL     OW 1511   1.408   2.552   3.606
  459SOL    HW1 1512   1.344   2.579   3.539
  459SOL    HW2 1513   1.490   2.545   3.558
  460SOL     OW 1514   3.451   2.425   2.681
  460SOL    HW1 1515   3.443   2.377   2.763
  460SOL    HW2 1516   3.506   2.370   2.626
  461SOL     OW 1517   3.506   0.790   2.573
  461SOL    HW1 1518   3.420   0.794   2.614
  461SOL    HW2 1519   3.528   0.697   2.573
  462SOL     OW 1520   1.897   3.013   3.202
  462SOL    HW1 1521   1.976   2.982   3.158
  462SOL    HW2 1522   1.870   3.089   3.151
  463SOL     OW 1523   2.840   1.257   2.374
  463SOL    HW1 1524   2.845   1.271   2.279
  463SOL    HW2 1525   2.830   1.345   2.411
  464SOL     OW 1526   3.120   1.809   0.744
  464SOL    HW1 1527   3.077   1.730   0.775
  464SOL    HW2 1528   3.209   1.782   0.721
  465SOL     OW 1529   3.073   1.631   3.859
  465SOL    HW1 1530   3.085   1.630   3.954
  465SOL    HW2 1531   2.979   1.639   3.846
  466SOL     OW 1532   1.871   0.030   1.633
  466SOL    HW1 1533   1.949  -0.025   1.639
  466SOL    HW2 1534   1.861   0.048   1.540
  467SOL     OW 1535   0.699   1.979   3.969
  467SOL    HW1 1536   0.720   2.072   3.954
  467SOL    HW2 1537   0.718   1.937   3.885
  468SOL     OW 1538   1.388   0.101   1.741
  468SOL    HW1 1539   1.324   0.112   1.670
  468SOL    HW2 1540   1.336   0.072   1.816
  469SOL     OW 1541   1.857   3.455   1.577
  469SOL    HW1 1542   1.918   3.382   1.570
  469SOL    HW2 1543   1.856   3.478   1.670
  470SOL     OW 1544   3.677   1.328   2.422
  470SOL    HW1 1545   3.613   1.343   2.352
  470SOL    HW2 1546   3.759   1.363   2.388
  471SOL     OW 1547   3.091   0.153   2.773
  471SOL    HW1 1548   3.013   0.209   2.777
  471SOL    HW2 1549   3.114   0.153   2.680
  472SOL     OW 1550   2.871   3.823   0.620
  472SOL    HW1 1551   2.803   3.758   0.640
  472SOL    HW2 1552   2.904   3.797   0.534
  473SOL     OW 1553   2.543   1.942   0.203
  473SOL    HW1 1554   2.540   2.033   0.232
  473SOL    HW2 1555   2.463   1.903   0.239
  474SOL     OW 1556   1.293   3.691   0.796
  474SOL    HW1 1557   1.301   3.697   0.701
  474SOL    HW2 1558   1.222   3.752   0.818
  475SOL     OW 1559   2.287   2.310   3.648
  475SOL    HW1 1560   2.358   2.249   3.666
  475SOL    HW2 1561   2.325   2.397   3.663
  476SOL     OW 1562   3.063   0.599   0.800
  476SOL    HW1 1563   2.986   0.542   0.798
  476SOL    HW2 1564   3.053   0.651   0.879
  477SOL     OW 1565   0.215   0.716   2.443
  477SOL    HW1 1566   0.132   0.724   2.396
  477SOL    HW2 1567   0.247   0.629   2.420
  478SOL     OW 1568   0.552   1.683   1.459
  478SOL    HW1 1569   0.599   1.606   1.427
  478SOL    HW2 1570   0.583   1.755   1.404
  479SOL     OW 1571   0.599   2.073   3.624
  479SOL    HW1 1572   0.534   2.059   3.692
  479SOL    HW2 1573   0.561   2.140   3.567
  480SOL     OW 1574   1.655   2.061   3.025
  480SOL    HW1 1575   1.654   2.028   3.115
  480SOL    HW2 1576   1.599   2.000   2.977
  481SOL     OW 1577   0.976   3.299   2.992
  481SOL    HW1 1578   1.053   3.247   3.016
  481SOL    HW2 1579   0.976   3.372   3.053
  482SOL     OW 1580   1.844   1.992   2.562
  482SOL    HW1 1581   1.763   2.033   2.531
  482SOL    HW2 1582   1.830   1.977   2.655
  483SOL     OW 1583   2.038   2.838   0.825
  483SOL    HW1 1584   2.080   2.760   0.789
  483SOL    HW2 1585   2.065   2.909   0.766
  484SOL     OW 1586   2.284   3.407   2.136
  484SOL    HW1 1587   2.199   3.395   2.094
  484SOL    HW2 1588   2.295   3.329   2.191
  485SOL     OW 1589   2.354   1.317   3.304
  485SOL    HW1 1590   2.412   1.390   3.281
  485SOL    HW2 1591   2.274   1.333   3.255
  486SOL     OW 1592   2.210   1.414   0.954
  486SOL    HW1 1593   2.196   1.345   1.019
  486SOL    HW2 1594   2.212   1.369   0.870
  487SOL     OW 1595   3.100   2.042   0.538
  487SOL    HW1 1596   3.195   2.035   0.530
  487SOL    HW2 1597   3.076   1.971   0.598
  488SOL     OW 1598   3.727   1.627   1.370
  488SOL    HW1 1599   3.718   1.557   1.436
  488SOL    HW2 1600   3.727   1.708   1.421
  489SOL     OW 1601   1.535   1.058   3.594
  489SOL    HW1 1602   1.626   1.030   3.599
  489SOL    HW2 1603   1.512   1.081   3.684
  490SOL     OW 1604   2.788   1.918   0.376
  490SOL    HW1 1605   2.719   1.963   0.327
  490SOL    HW2 1606   2.790   1.963   0.461
  491SOL     OW 1607   2.658   3.190   0.170
  491SOL    HW1 1608   2.562   3.196   0.166
  491SOL    HW2 1609   2.685   3.182   0.079
  492SOL     OW 1610   3.598   0.930   3.470
  492SOL    HW1 1611   3.613   0.997   3.538
  492SOL    HW2 1612   3.587   0.980   3.390
  493SOL     OW 1613   3.189   0.525   2.884
  493SOL    HW1 1614   3.107   0.534   2.834
  493SOL    HW2 1615   3.215   0.615   2.904
  494SOL     OW 1616   2.869   2.851   2.062
  494SOL    HW1 1617   2.807   2.883   2.127
  494SOL    HW2 1618   2.880   2.923   2.001
  495SOL     OW 1619   2.800   2.677   2.481
  495SOL    HW1 1620   2.853   2.705   2.407
  495SOL    HW2 1621   2.861   2.630   2.538
  496SOL     OW 1622   1.779   3.977   2.061
  496SOL    HW1 1623   1.688   3.948   2.058
  496SOL    HW2 1624   1.812   3.943   2.145
  497SOL     OW 1625  -0.001   0.309   2.879
  497SOL    HW1 1626   0.088   0.276   2.872
  497SOL    HW2 1627   0.006   0.402   2.860
  498SOL     OW 1628   1.644   1.123   2.812
  498SOL    HW1 1629   1.607   1.125   2.724
  498SOL    HW2 1630   1.626   1.211   2.847
  499SOL     OW 1631   1.660   3.401   2.994
  499SOL    HW1 1632   1.667   3.306   3.005
  499SOL    HW2 1633   1.658   3.436   3.083
  500SOL     OW 1634   0.130   2.299   1.860
  500SOL    HW1 1635   0.122   2.394   1.852
  500SOL    HW2 1636   0.214   2.285   1.905
  501SOL     OW 1637   2.488   2.524   3.373
  501SOL    HW1 1638   2.396   2.506   3.393
  501SOL    HW2 1639   2.487   2.556   3.282
  502SOL     OW 1640   2.065   2.931   0.480
  502SOL    HW1 1641   2.064   3.008   0.537
  502SOL    HW2 1642   2.149   2.936   0.434
  503SOL     OW 1643   2.464   0.719   3.479
  503SOL    HW1 1644   2.410   0.794   3.454
  503SOL    HW2 1645   2.553   0.745   3.457
  504SOL     OW 1646   1.655   1.297   2.115
  504SOL    HW1 1647   1.628   1.254   2.197
  504SOL    HW2 1648   1.576   1.297   2.061
  505SOL     OW 1649   3.647   2.163   2.508
  505SOL    HW1 1650   3.606   2.172   2.422
  505SOL    HW2 1651   3.589   2.103   2.556
  506SOL     OW 1652   0.285   3.807   1.145
  506SOL    HW1 1653   0.229   3.783   1.071
  506SOL    HW2 1654   0.367   3.759   1.131
  507SOL     OW 1655   2.363   3.152   2.793
  507SOL    HW1 1656   2.357   3.078   2.733
  507SOL    HW2 1657   2.441   3.200   2.764
  508SOL     OW 1658   1.636   2.990   3.309
  508SOL    HW1 1659   1.642   2.990   3.404
  508SOL    HW2 1660   1.727   3.002   3.279
  509SOL     OW 1661   1.989   1.308   2.813
  509SOL    HW1 1662   1.959   1.244   2.878
  509SOL    HW2 1663   1.988   1.261   2.730
  510SOL     OW 1664   1.053   0.857   3.199
  510SOL    HW1 1665   1.093   0.891   3.278
  510SOL    HW2 1666   1.125   0.818   3.149
  511SOL     OW 1667   1.086   2.710   1.195
  511SOL    HW1 1668   1.128   2.751   1.120
  511SOL    HW2 1669   1.151   2.714   1.265
  512SOL     OW 1670   0.408   0.603   3.899
  512SOL    HW1 1671   0.405   0.578   3.807
  512SOL    HW2 1672   0.496   0.581   3.927
  513SOL     OW 1673   0.944   2.672   3.338
  513SOL    HW1 1674   0.921   2.581   3.357
  513SOL    HW2 1675   0.920   2.683   3.246
  514SOL     OW 1676   1.132   1.913   0.618
  514SOL    HW1 1677   1.044   1.943   0.597
  514SOL    HW2 1678   1.190   1.982   0.587
  515SOL     OW 1679   3.717   3.394   2.398
  515SOL    HW1 1680   3.768   3.390   2.479
  515SOL    HW2 1681   3.755   3.468   2.350
  516SOL     OW 1682   3.878   0.694   1.789
  516SOL    HW1 1683   3.948   0.744   1.833
  516SOL    HW2 1684   3.830   0.653   1.861
  517SOL     OW 1685   0.173   0.381   0.167
  517SOL    HW1 1686   0.153   0.420   0.082
  517SOL    HW2 1687   0.116   0.426   0.229
  518SOL     OW 1688  -0.011   3.523   0.449
  518SOL    HW1 1689  -0.017   3.448   0.389
  518SOL    HW2 1690   0.083   3.543   0.452
  519SOL     OW 1691   3.861   2.836   2.113
  519SOL    HW1 1692   3.952   2.857   2.132
  519SOL    HW2 1693   3.823   2.920   2.086
  520SOL     OW 1694   2.552   3.641   3.101
  520SOL    HW1 1695   2.617   3.710   3.114
  520SOL    HW2 1696   2.546   3.596   3.186
  521SOL     OW 1697   3.746   3.895   0.742
  521SOL    HW1 1698   3.766   3.923   0.653
  521SOL    HW2 1699   3.736   3.976   0.792
  522SOL     OW 1700   2.003   2.938   0.168
  522SOL    HW1 1701   2.062   2.863   0.156
  522SOL    HW2 1702   2.060   3.008   0.200
  523SOL     OW 1703   3.449   3.366   1.022
  523SOL    HW1 1704   3.390   3.429   1.062
  523SOL    HW2 1705   3.515   3.420   0.977
  524SOL     OW 1706   0.335   3.035   2.526
  524SOL    HW1 1707   0.332   3.057   2.619
  524SOL    HW2 1708   0.355   2.942   2.525
  525SOL     OW 1709   0.366   0.776   0.929
  525SOL    HW1 1710   0.284   0.731   0.907
  525SOL    HW2 1711   0.338   0.858   0.968
  526SOL     OW 1712   3.092   3.462   3.336
  526SOL    HW1 1713   3.095   3.509   3.253
  526SOL    HW2 1714   3.056   3.525   3.398
  527SOL     OW 1715   2.566   1.817   2.095
  527SOL    HW1 1716   2.632   1.866   2.047
  527SOL    HW2 1717   2.523   1.882   2.150
  528SOL     OW 1718   3.931   0.774   2.247
  528SOL    HW1 1719   3.838   0.761   2.261
  528SOL    HW2 1720   3.945   0.868   2.260
  529SOL     OW 1721   2.809   0.998   1.877
  529SOL    HW1 1722   2.784   0.945   1.952
  529SOL    HW2 1723   2.860   0.938   1.822
  530SOL     OW 1724   2.810   3.665   2.030
  530SOL    HW1 1725   2.844   3.699   1.948
  530SOL    HW2 1726   2.886   3.624   2.072
  531SOL     OW 1727   0.400   1.883   1.199
  531SOL    HW1 1728   0.403   1.791   1.173
  531SOL    HW2 1729   0.489   1.903   1.229
  532SOL     OW 1730   1.899   2.974   3.869
  532SOL    HW1 1731   1.973   2.959   3.811
  532SOL    HW2 1732   1.937   2.978   3.957
  533SOL     OW 1733   1.724   2.394   1.208
  533SOL    HW1 1734   1.730   2.485   1.177
  533SOL    HW2 1735   1.815   2.370   1.227
  534SOL     OW 1736   2.380   1.760   3.713
  534SOL    HW1 1737   2.448   1.826   3.704
  534SOL    HW2 1738   2.425   1.685   3.752
  535SOL     OW 1739   2.596   3.017   1.082
  535SOL    HW1 1740   2.597   3.094   1.025
  535SOL    HW2 1741   2.682   2.977   1.068
  536SOL     OW 1742   1.458   0.358   3.919
  536SOL    HW1 1743   1.544   0.322   3.900
  536SOL    HW2 1744   1.396   0.297   3.880
  537SOL     OW 1745   1.380   2.669   2.083
  537SOL    HW1 1746   1.446   2.690   2.149
  537SOL    HW2 1747   1.410   2.586   2.045
  538SOL     OW 1748   0.902   0.227   0.818
  538SOL    HW1 1749   0.893   0.319   0.791
  538SOL    HW2 1750   0.979   0.226   0.875
  539SOL     OW 1751   0.121   2.259   1.328
  539SOL    HW1 1752   0.166   2.175   1.328
  539SOL    HW2 1753   0.146   2.301   1.246
  540SOL     OW 1754   2.178  -0.009   0.044
  540SOL    HW1 1755   2.140  -0.010   0.133
  540SOL    HW2 1756   2.259   0.040   0.053
  541SOL     OW 1757   2.405   3.496   2.635
  541SOL    HW1 1758   2.322   3.453   2.655
  541SOL    HW2 1759   2.467   3.423   2.625
  542SOL     OW 1760   2.610   2.238   0.268
  542SOL    HW1 1761   2.650   2.292   0.199
  542SOL    HW2 1762   2.626   2.288   0.349
  543SOL     OW 1763   2.495   3.147   1.315
  543SOL    HW1 1764   2.490   3.114   1.225
  543SOL    HW2 1765   2.532   3.075   1.365
  544SOL     OW 1766   3.458   0.466   1.349
  544SOL    HW1 1767   3.430   0.554   1.323
  544SOL    HW2 1768   3.548   0.477   1.379
  545SOL     OW 1769   0.854   1.177   3.551
  545SOL    HW1 1770   0.824   1.111   3.488
  545SOL    HW2 1771   0.860   1.129   3.634
  546SOL     OW 1772   3.017   0.774   0.971
  546SOL    HW1 1773   3.029   0.866   0.994
  546SOL    HW2 1774   2.932   0.751   1.009
  547SOL     OW 1775   3.141   0.848   2.002
  547SOL    HW1 1776   3.227   0.841   1.960
  547SOL    HW2 1777   3.100   0.764   1.984
  548SOL     OW 1778   1.343   0.226   3.267
  548SOL    HW1 1779   1.434   0.205   3.289
  548SOL    HW2 1780   1.297   0.142   3.272
  549SOL     OW 1781   3.048   2.863   0.462
  549SOL    HW1 1782   3.080   2.953   0.462
  549SOL    HW2 1783   3.128   2.810   0.459
  550SOL     OW 1784   3.870   1.898   2.693
  550SOL    HW1 1785   3.879   1.994   2.690
  550SOL    HW2 1786   3.846   1.879   2.784
  551SOL     OW 1787   2.480   0.866   3.083
  551SOL    HW1 1788   2.517   0.794   3.033
  551SOL    HW2 1789   2.390   0.873   3.052
  552SOL     OW 1790   0.956   2.601   1.681
  552SOL    HW1 1791   0.972   2.687   1.720
  552SOL    HW2 1792   0.999   2.539   1.740
  553SOL     OW 1793   1.617   0.566   3.121
  553SOL    HW1 1794   1.634   0.494   3.183
  553SOL    HW2 1795   1.682   0.632   3.143
  554SOL     OW 1796   2.874   2.253   2.717
  554SOL    HW1 1797   2.906   2.209   2.638
  554SOL    HW2 1798   2.839   2.183   2.771
  555SOL     OW 1799   1.401   0.561   2.934
  555SOL    HW1 1800   1.463   0.572   3.005
  555SOL    HW2 1801   1.344   0.638   2.940
  556SOL     OW 1802   1.631   2.981   1.154
  556SOL    HW1 1803   1.707   3.031   1.124
  556SOL    HW2 1804   1.609   3.020   1.239
  557SOL     OW 1805   0.448   3.377   3.128
  557SOL    HW1 1806   0.363   3.349   3.163
  557SOL    HW2 1807   0.507   3.304   3.148
  558SOL     OW 1808   1.682   3.120   1.390
  558SOL    HW1 1809   1.674   3.175   1.467
  558SOL    HW2 1810   1.655   3.176   1.317
  559SOL     OW 1811   1.878   3.385   1.252
  559SOL    HW1 1812   1.795   3.403   1.296
  559SOL    HW2 1813   1.863   3.413   1.161
  560SOL     OW 1814   2.785   2.202   2.148
  560SOL    HW1 1815   2.857   2.212   2.086
  560SOL    HW2 1816   2.789   2.110   2.175
  561SOL     OW 1817   2.523   2.215   1.995
  561SOL    HW1 1818   2.615   2.218   2.020
  561SOL    HW2 1819   2.521   2.246   1.905
  562SOL     OW 1820   0.059   3.147   1.260
  562SOL    HW1 1821   0.144   3.148   1.304
  562SOL    HW2 1822   0.052   3.235   1.222
  563SOL     OW 1823   1.612   0.209   3.316
  563SOL    HW1 1824   1.681   0.166   3.264
  563SOL    HW2 1825   1.658   0.240   3.394
  564SOL     OW 1826   3.916   1.755   1.091
  564SOL    HW1 1827   4.007   1.761   1.060
  564SOL    HW2 1828   3.913   1.812   1.168
  565SOL     OW 1829   1.417   1.868   0.711
  565SOL    HW1 1830   1.322   1.871   0.716
  565SOL    HW2 1831   1.446   1.929   0.779
  566SOL     OW 1832   1.630   0.271   0.672
  566SOL    HW1 1833   1.614   0.276   0.578
  566SOL    HW2 1834   1.542   0.270   0.712
  567SOL     OW 1835   3.449   0.217   0.212
  567SOL    HW1 1836   3.539   0.242   0.190
  567SOL    HW2 1837   3.415   0.176   0.133
  568SOL     OW 1838   0.030   1.991   1.757
  568SOL    HW1 1839   0.004   2.064   1.701
  568SOL    HW2 1840   0.122   1.977   1.737
  569SOL     OW 1841   2.333   3.386   0.160
  569SOL    HW1 1842   2.257   3.385   0.101
  569SOL    HW2 1843   2.304   3.434   0.237
  570SOL     OW 1844   2.446   3.706   3.642
  570SOL    HW1 1845   2.354   3.722   3.620
  570SOL    HW2 1846   2.454   3.611   3.642
  571SOL     OW 1847   1.913   3.937   3.865
  571SOL    HW1 1848   1.896   3.846   3.841
  571SOL    HW2 1849   1.950   3.932   3.952
  572SOL     OW 1850   2.843   0.765   2.372
  572SOL    HW1 1851   2.794   0.805   2.444
  572SOL    HW2 1852   2.917   0.824   2.359
  573SOL     OW 1853   0.341   2.286   0.872
  573SOL    HW1 1854   0.386   2.268   0.789
  573SOL    HW2 1855   0.381   2.225   0.934
  574SOL     OW 1856   3.702   1.093   0.367
  574SOL    HW1 1857   3.613   1.103   0.401
  574SOL    HW2 1858   3.699   1.134   0.281
  575SOL     OW 1859   0.871   1.207   2.628
  575SOL    HW1 1860   0.937   1.139   2.619
  575SOL    HW2 1861   0.787   1.161   2.625
  576SOL     OW 1862   1.964   1.599   2.194
  576SOL    HW1 1863   1.971   1.510   2.160
  576SOL    HW2 1864   1.933   1.651   2.120
  577SOL     OW 1865   3.142   0.373   2.087
  577SOL    HW1 1866   3.138   0.453   2.138
  577SOL    HW2 1867   3.053   0.338   2.088
  578SOL     OW 1868   2.320   3.785   1.432
  578SOL    HW1 1869   2.405   3.807   1.470
  578SOL    HW2 1870   2.256   3.819   1.495
  579SOL     OW 1871   1.390   0.097   0.984
  579SOL    HW1 1872   1.388   0.002   0.975
  579SOL    HW2 1873   1.482   0.121   0.973
  580SOL     OW 1874   1.453   1.953   1.519
  580SOL    HW1 1875   1.472   2.007   1.442
  580SOL    HW2 1876   1.443   2.014   1.591
  581SOL     OW 1877   1.450   2.685   0.521
  581SOL    HW1 1878   1.483   2.629   0.451
  581SOL    HW2 1879   1.520   2.748   0.537
  582SOL     OW 1880   1.981   2.564   3.815
  582SOL    HW1 1881   2.036   2.641   3.810
  582SOL    HW2 1882   1.933   2.573   3.897
  583SOL     OW 1883   0.073   1.003   2.875
  583SOL    HW1 1884   0.114   1.015   2.789
  583SOL    HW2 1885   0.111   0.923   2.910
  584SOL     OW 1886   1.660   2.483   3.518
  584SOL    HW1 1887   1.731   2.454   3.574
  584SOL    HW2 1888   1.700   2.495   3.432
  585SOL     OW 1889   1.247   2.618   3.181
  585SOL    HW1 1890   1.165   2.659   3.156
  585SOL    HW2 1891   1.306   2.691   3.201
  586SOL     OW 1892   1.176   3.854   2.428
  586SOL    HW1 1893   1.113   3.823   2.363
  586SOL    HW2 1894   1.229   3.918   2.381
  587SOL     OW 1895   0.134   2.557   1.781
  587SOL    HW1 1896   0.210   2.520   1.737
  587SOL    HW2 1897   0.101   2.623   1.720
  588SOL     OW 1898   0.884   3.587   3.630
  588SOL    HW1 1899   0.847   3.665   3.588
  588SOL    HW2 1900   0.832   3.514   3.595
  589SOL     OW 1901   0.431   3.144   2.250
  589SOL    HW1 1902   0.439   3.194   2.169
  589SOL    HW2 1903   0.378   3.068   2.227
  590SOL     OW 1904   1.878   1.964   0.028
  590SOL    HW1 1905   1.813   2.035   0.027
  590SOL    HW2 1906   1.854   1.908  -0.045
  591SOL     OW 1907   1.020   3.793   0.282
  591SOL    HW1 1908   1.035   3.886   0.266
  591SOL    HW2 1909   1.057   3.777   0.368
  592SOL     OW 1910   0.470   2.716   0.166
  592SOL    HW1 1911   0.469   2.766   0.084
  592SOL    HW2 1912   0.412   2.765   0.224
  593SOL     OW 1913   1.750   2.482   2.775
  593SOL    HW1 1914   1.681   2.427   2.737
  593SOL    HW2 1915   1.719   2.503   2.862
  594SOL     OW 1916   0.165   2.961   3.052
  594SOL    HW1 1917   0.125   2.892   3.105
  594SOL    HW2 1918   0.094   3.025   3.039
  595SOL     OW 1919   2.455   0.927   2.086
  595SOL    HW1 1920   2.431   0.970   2.004
  595SOL    HW2 1921   2.547   0.903   2.075
  596SOL     OW 1922   2.018   2.205   1.669
  596SOL    HW1 1923   2.036   2.230   1.578
  596SOL    HW2 1924   2.099   2.166   1.701
  597SOL     OW 1925   3.468   1.254   3.938
  597SOL    HW1 1926   3.451   1.162   3.957
  597SOL    HW2 1927   3.563   1.264   3.953
  598SOL     OW 1928   0.889   1.826   0.839
  598SOL    HW1 1929   0.844   1.797   0.760
  598SOL    HW2 1930   0.913   1.745   0.884
  599SOL     OW 1931   1.274   3.124   3.419
  599SOL    HW1 1932   1.193   3.077   3.399
  599SOL    HW2 1933   1.248   3.216   3.423
  600SOL     OW 1934   2.180   0.931   2.984
  600SOL    HW1 1935   2.119   0.875   2.936
  600SOL    HW2 1936   2.161   0.914   3.076
  601SOL     OW 1937   2.238   3.060   3.015
  601SOL    HW1 1938   2.278   3.106   2.941
  601SOL    HW2 1939   2.281   2.975   3.017
  602SOL     OW 1940   0.943   3.657   2.754
  602SOL    HW1 1941   0.998   3.641   2.831
  602SOL    HW2 1942   0.897   3.739   2.774
  603SOL     OW 1943   2.538   3.405   2.034
  603SOL    HW1 1944   2.448   3.384   2.061
  603SOL    HW2 1945   2.537   3.499   2.017
  604SOL     OW 1946   2.811   1.938   2.213
  604SOL    HW1 1947   2.886   1.890   2.177
  604SOL    HW2 1948   2.800   1.903   2.301
  605SOL     OW 1949   1.862   0.428   1.067
  605SOL    HW1 1950   1.826   0.466   1.148
  605SOL    HW2 1951   1.874   0.335   1.088
  606SOL     OW 1952   1.325   2.892   1.920
  606SOL    HW1 1953   1.386   2.823   1.945
  606SOL    HW2 1954   1.312   2.880   1.826
  607SOL     OW 1955   0.814   0.892   2.457
  607SOL    HW1 1956   0.851   0.967   2.409
  607SOL    HW2 1957   0.782   0.833   2.390
  608SOL     OW 1958   3.146   0.474   0.452
  608SOL    HW1 1959   3.220   0.524   0.488
  608SOL    HW2 1960   3.181   0.386   0.439
  609SOL     OW 1961   3.047   3.012   2.935
  609SOL    HW1 1962   3.056   3.003   2.840
  609SOL    HW2 1963   3.126   3.059   2.962
  610SOL     OW 1964   2.058   1.056   3.427
  610SOL    HW1 1965   2.102   0.974   3.403
  610SOL    HW2 1966   1.967   1.042   3.402
  611SOL     OW 1967   3.644   2.612   0.838
  611SOL    HW1 1968   3.673   2.701   0.853
  611SOL    HW2 1969   3.555   2.609   0.872
  612SOL     OW 1970   0.514   2.194   0.664
  612SOL    HW1 1971   0.474   2.244   0.593
  612SOL    HW2 1972   0.595   2.241   0.684
  613SOL     OW 1973   1.264   0.066   2.225
  613SOL    HW1 1974   1.346   0.075   2.272
  613SOL    HW2 1975   1.223   0.153   2.231
  614SOL     OW 1976   1.788   1.799   3.758
  614SOL    HW1 1977   1.739   1.720   3.779
  614SOL    HW2 1978   1.872   1.767   3.724
  615SOL     OW 1979   0.592   1.196   1.314
  615SOL    HW1 1980   0.579   1.291   1.316
  615SOL    HW2 1981   0.605   1.171   1.406
  616SOL     OW 1982   0.147   0.539   2.160
  616SOL    HW1 1983   0.067   0.589   2.178
  616SOL    HW2 1984   0.211   0.604   2.134
  617SOL     OW 1985   3.719   3.592   2.840
  617SOL    HW1 1986   3.762   3.562   2.760
  617SOL    HW2 1987   3.666   3.517   2.868
  618SOL     OW 1988   2.272   1.190   3.813
  618SOL    HW1 1989   2.232   1.163   3.896
  618SOL    HW2 1990   2.360   1.154   3.816
  619SOL     OW 1991   0.186   1.181   1.482
  619SOL    HW1 1992   0.181   1.275   1.466
  619SOL    HW2 1993   0.211   1.144   1.398
  620SOL     OW 1994   3.678   3.075   1.653
  620SOL    HW1 1995   3.624   3.040   1.724
  620SOL    HW2 1996   3.721   2.999   1.616
  621SOL     OW 1997   1.524   3.138   2.397
  621SOL    HW1 1998   1.584   3.182   2.337
  621SOL    HW2 1999   1.580   3.080   2.449
  622SOL     OW 2000   3.262   1.380   0.453
  622SOL    HW1 2001   3.262   1.332   0.370
  622SOL    HW2 2002   3.171   1.375   0.483
  623SOL     OW 2003   2.690   0.320   1.937
  623SOL    HW1 2004   2.717   0.295   2.026
  623SOL    HW2 2005   2.655   0.240   1.899
  624SOL     OW 2006   1.900   3.375  -0.000
  624SOL    HW1 2007   1.889   3.367   0.095
  624SOL    HW2 2008   1.820   3.337  -0.037
  625SOL     OW 2009   0.459   1.000   2.382
  625SOL    HW1 2010   0.531   1.047   2.424
  625SOL    HW2 2011   0.410   0.961   2.454
  626SOL     OW 2012   1.958   3.140   1.317
  626SOL    HW1 2013   1.869   3.124   1.348
  626SOL    HW2 2014   1.953   3.221   1.267
  627SOL     OW 2015   0.444   3.273   0.239
  627SOL    HW1 2016   0.527   3.295   0.196
  627SOL    HW2 2017   0.468   3.251   0.329
  628SOL     OW 2018   0.141   3.383   3.510
  628SOL    HW1 2019   0.095   3.355   3.589
  628SOL    HW2 2020   0.213   3.321   3.500
  629SOL     OW 2021   1.406   3.080   1.594
  629SOL    HW1 2022   1.463   3.144   1.551
  629SOL    HW2 2023   1.319   3.097   1.558
  630SOL     OW 2024   1.096   3.843   0.912
  630SOL    HW1 2025   1.022   3.789   0.884
  630SOL    HW2 2026   1.124   3.803   0.995
  631SOL     OW 2027   3.086   1.787   3.587
  631SOL    HW1 2028   3.110   1.720   3.650
  631SOL    HW2 2029   3.003   1.757   3.549
  632SOL     OW 2030   2.179   3.819   1.189
  632SOL    HW1 2031   2.134   3.891   1.234
  632SOL    HW2 2032   2.236   3.781   1.256
  633SOL     OW 2033   0.139   3.750   3.138
  633SOL    HW1 2034   0.085   3.720   3.064
  633SOL    HW2 2035   0.229   3.735   3.109
  634SOL     OW 2036   0.792   3.285   0.419
  634SOL    HW1 2037   0.876   3.329   0.428
  634SOL    HW2 2038   0.727   3.350   0.448
  635SOL     OW 2039   1.833   2.807   2.571
  635SOL    HW1 2040   1.870   2.728   2.531
  635SOL    HW2 2041   1.895   2.830   2.641
  636SOL     OW 2042   3.245   0.230   0.400
  636SOL    HW1 2043   3.290   0.198   0.479
  636SOL    HW2 2044   3.312   0.226   0.332
  637SOL     OW 2045   0.799   3.161   3.230
  637SOL    HW1 2046   0.810   3.246   3.186
  637SOL    HW2 2047   0.770   3.184   3.318
  638SOL     OW 2048   0.869   0.623   3.280
  638SOL    HW1 2049   0.926   0.681   3.229
  638SOL    HW2 2050   0.872   0.658   3.369
  639SOL     OW 2051   1.404   1.526   0.841
  639SOL    HW1 2052   1.325   1.577   0.830
  639SOL    HW2 2053   1.398   1.456   0.776
  640SOL     OW 2054   2.019   3.139   0.665
  640SOL    HW1 2055   1.935   3.185   0.666
  640SOL    HW2 2056   2.068   3.177   0.737
  641SOL     OW 2057   0.608   2.055   0.256
  641SOL    HW1 2058   0.531   2.113   0.257
  641SOL    HW2 2059   0.598   2.005   0.175
  642SOL     OW 2060   2.858   0.237   1.043
  642SOL    HW1 2061   2.943   0.222   1.086
  642SOL    HW2 2062   2.811   0.155   1.056
  643SOL     OW 2063   1.958   1.169   3.068
  643SOL    HW1 2064   1.929   1.083   3.101
  643SOL    HW2 2065   1.961   1.224   3.145
  644SOL     OW 2066   2.565   3.849   0.159
  644SOL    HW1 2067   2.570   3.939   0.190
  644SOL    HW2 2068   2.537   3.857   0.068
  645SOL     OW 2069   2.921   0.481   0.130
  645SOL    HW1 2070   2.985   0.417   0.098
  645SOL    HW2 2071   2.838   0.434   0.131
  646SOL     OW 2072   1.871   3.059   2.002
  646SOL    HW1 2073   1.776   3.065   2.016
  646SOL    HW2 2074   1.883   2.984   1.945
  647SOL     OW 2075   0.335   2.874   3.264
  647SOL    HW1 2076   0.309   2.924   3.187
  647SOL    HW2 2077   0.281   2.794   3.261
  648SOL     OW 2078   0.903   2.313   0.527
  648SOL    HW1 2079   0.926   2.239   0.470
  648SOL    HW2 2080   0.953   2.297   0.608
  649SOL     OW 2081   1.162   1.452   3.379
  649SOL    HW1 2082   1.144   1.518   3.312
  649SOL    HW2 2083   1.092   1.464   3.443
  650SOL     OW 2084   0.509   1.944   2.335
  650SOL    HW1 2085   0.493   2.015   2.273
  650SOL    HW2 2086   0.476   1.977   2.418
  651SOL     OW 2087   1.205   2.067   3.605
  651SOL    HW1 2088   1.160   2.081   3.689
  651SOL    HW2 2089   1.250   2.150   3.587
  652SOL     OW 2090   3.268   2.719   0.418
  652SOL    HW1 2091   3.302   2.663   0.488
  652SOL    HW2 2092   3.208   2.662   0.369
  653SOL     OW 2093   0.460   0.687   1.194
  653SOL    HW1 2094   0.424   0.610   1.237
  653SOL    HW2 2095   0.471   0.661   1.102
  654SOL     OW 2096   0.471   2.098   2.591
  654SOL    HW1 2097   0.456   2.192   2.588
  654SOL    HW2 2098   0.540   2.087   2.657
  655SOL     OW 2099   3.048   1.414   2.125
  655SOL    HW1 2100   3.121   1.365   2.162
  655SOL    HW2 2101   3.041   1.381   2.035
  656SOL     OW 2102   2.492   1.906   0.591
  656SOL    HW1 2103   2.409   1.915   0.639
  656SOL    HW2 2104   2.558   1.895   0.660
  657SOL     OW 2105   0.378   0.705   2.686
  657SOL    HW1 2106   0.434   0.628   2.679
  657SOL    HW2 2107   0.313   0.694   2.616
  658SOL     OW 2108   3.087   1.842   2.724
  658SOL    HW1 2109   3.091   1.931   2.689
  658SOL    HW2 2110   3.064   1.852   2.816
  659SOL     OW 2111   2.535   3.180   3.114
  659SOL    HW1 2112   2.452   3.194   3.070
  659SOL    HW2 2113   2.553   3.086   3.102
  660SOL     OW 2114   1.163   2.245   0.847
  660SOL    HW1 2115   1.156   2.313   0.915
  660SOL    HW2 2116   1.082   2.196   0.854
  661SOL     OW 2117   2.578   0.559   2.963
  661SOL    HW1 2118   2.632   0.525   3.034
  661SOL    HW2 2119   2.640   0.576   2.892
  662SOL     OW 2120   3.621   0.617   0.371
  662SOL    HW1 2121   3.665   0.532   0.368
  662SOL    HW2 2122   3.595   0.633   0.280
  663SOL     OW 2123   2.245   2.398   2.857
  663SOL    HW1 2124   2.296   2.478   2.863
  663SOL    HW2 2125   2.161   2.425   2.819
  664SOL     OW 2126   0.431   0.317   0.213
  664SOL    HW1 2127   0.459   0.242   0.160
  664SOL    HW2 2128   0.339   0.331   0.188
  665SOL     OW 2129   0.004   0.430   1.350
  665SOL    HW1 2130   0.040   0.342   1.342
  665SOL    HW2 2131   0.031   0.474   1.269
  666SOL     OW 2132   3.426   3.289   0.647
  666SOL    HW1 2133   3.388   3.215   0.600
  666SOL    HW2 2134   3.520   3.269   0.652
  667SOL     OW 2135   3.136   3.226   0.867
  667SOL    HW1 2136   3.208   3.165   0.848
  667SOL    HW2 2137   3.111   3.205   0.957
  668SOL     OW 2138   2.021   2.545   1.378
  668SOL    HW1 2139   2.109   2.582   1.372
  668SOL    HW2 2140   2.027   2.462   1.330
  669SOL     OW 2141   3.639   0.771   1.707
  669SOL    HW1 2142   3.724   0.740   1.737
  669SOL    HW2 2143   3.644   0.866   1.715
  670SOL     OW 2144   2.643   2.444   1.452
  670SOL    HW1 2145   2.588   2.384   1.401
  670SOL    HW2 2146   2.731   2.408   1.444
  671SOL     OW 2147   2.066   2.341   0.728
  671SOL    HW1 2148   2.076   2.314   0.819
  671SOL    HW2 2149   1.983   2.388   0.725
  672SOL     OW 2150   0.969   0.694   2.242
  672SOL    HW1 2151   0.968   0.600   2.226
  672SOL    HW2 2152   1.060   0.720   2.233
  673SOL     OW 2153   2.564   3.910   1.499
  673SOL    HW1 2154   2.580   3.954   1.582
  673SOL    HW2 2155   2.622   3.834   1.500
  674SOL     OW 2156   3.699   1.070   0.789
  674SOL    HW1 2157   3.728   0.984   0.821
  674SOL    HW2 2158   3.642   1.049   0.715
  675SOL     OW 2159   3.293   2.532   2.260
  675SOL    HW1 2160   3.321   2.557   2.171
  675SOL    HW2 2161   3.371   2.547   2.314
  676SOL     OW 2162   1.071   3.375   0.420
  676SOL    HW1 2163   1.157   3.414   0.404
  676SOL    HW2 2164   1.083   3.323   0.500
  677SOL     OW 2165   2.586   2.770   3.914
  677SOL    HW1 2166   2.558   2.689   3.873
  677SOL    HW2 2167   2.664   2.797   3.867
  678SOL     OW 2168   0.459   2.355   2.645
  678SOL    HW1 2169   0.546   2.394   2.635
  678SOL    HW2 2170   0.430   2.383   2.731
  679SOL     OW 2171   1.837   0.759   3.787
  679SOL    HW1 2172   1.800   0.675   3.760
  679SOL    HW2 2173   1.932   0.749   3.773
  680SOL     OW 2174   0.004   2.335   2.392
  680SOL    HW1 2175   0.000   2.246   2.356
  680SOL    HW2 2176  -0.003   2.392   2.315
  681SOL     OW 2177   0.334   0.978   0.289
  681SOL    HW1 2178   0.292   0.934   0.215
  681SOL    HW2 2179   0.313   0.923   0.365
  682SOL     OW 2180   0.832   1.961   0.473
  682SOL    HW1 2181   0.831   2.018   0.397
  682SOL    HW2 2182   0.754   1.987   0.523
  683SOL     OW 2183   3.147   2.442   0.849
  683SOL    HW1 2184   3.119   2.466   0.761
  683SOL    HW2 2185   3.071   2.397   0.887
  684SOL     OW 2186   3.768   3.747   3.499
  684SOL    HW1 2187   3.716   3.770   3.576
  684SOL    HW2 2188   3.803   3.830   3.468
  685SOL     OW 2189   0.072   2.628   2.178
  685SOL    HW1 2190   0.048   2.609   2.087
  685SOL    HW2 2191  -0.011   2.630   2.225
  686SOL     OW 2192   3.319   2.294   1.046
  686SOL    HW1 2193   3.251   2.324   0.986
  686SOL    HW2 2194   3.292   2.206   1.071
  687SOL     OW 2195   2.619   1.995   1.108
  687SOL    HW1 2196   2.701   2.024   1.149
  687SOL    HW2 2197   2.560   1.980   1.182
  688SOL     OW 2198   2.804   1.039   3.014
  688SOL    HW1 2199   2.836   0.960   3.058
  688SOL    HW2 2200   2.867   1.055   2.944
  689SOL     OW 2201   0.292   2.212   2.314
  689SOL    HW1 2202   0.208   2.172   2.294
  689SOL    HW2 2203   0.271   2.303   2.335
  690SOL     OW 2204   3.377   1.478   3.770
  690SOL    HW1 2205   3.408   1.390   3.789
  690SOL    HW2 2206   3.292   1.465   3.728
  691SOL     OW 2207   2.209   1.919   2.003
  691SOL    HW1 2208   2.181   1.911   2.094
  691SOL    HW2 2209   2.275   1.850   1.992
  692SOL     OW 2210   2.862   2.724   1.704
  692SOL    HW1 2211   2.910   2.650   1.667
  692SOL    HW2 2212   2.927   2.770   1.757
  693SOL     OW 2213   1.688   2.816   0.523
  693SOL    HW1 2214   1.730   2.891   0.480
  693SOL    HW2 2215   1.760   2.760   0.551
  694SOL     OW 2216   2.648   3.393   0.514
  694SOL    HW1 2217   2.621   3.424   0.427
  694SOL    HW2 2218   2.633   3.299   0.511
  695SOL     OW 2219   2.948   1.333   1.866
  695SOL    HW1 2220   2.992   1.253   1.894
  695SOL    HW2 2221   2.944   1.326   1.771
  696SOL     OW 2222   3.693   1.874   2.443
  696SOL    HW1 2223   3.699   1.779   2.445
  696SOL    HW2 2224   3.750   1.904   2.513
  697SOL     OW 2225   2.840   3.515   3.749
  697SOL    HW1 2226   2.896   3.446   3.785
  697SOL    HW2 2227   2.785   3.541   3.823
  698SOL     OW 2228   1.201   2.165   1.498
  698SOL    HW1 2229   1.185   2.108   1.423
  698SOL    HW2 2230   1.171   2.251   1.469
  699SOL     OW 2231   1.597   3.282   1.594
  699SOL    HW1 2232   1.607   3.374   1.618
  699SOL    HW2 2233   1.598   3.235   1.677
  700SOL     OW 2234   1.796   2.353   0.643
  700SOL    HW1 2235   1.714   2.306   0.653
  700SOL    HW2 2236   1.790   2.427   0.704
  701SOL     OW 2237   0.214   1.780   1.001
  701SOL    HW1 2238   0.281   1.840   1.033
  701SOL    HW2 2239   0.259   1.729   0.933
  702SOL     OW 2240   2.089   2.216   0.434
  702SOL    HW1 2241   2.185   2.223   0.436
  702SOL    HW2 2242   2.060   2.264   0.512
  703SOL     OW 2243   3.599   1.348   0.606
  703SOL    HW1 2244   3.518   1.296   0.607
  703SOL    HW2 2245   3.589   1.406   0.531
  704SOL     OW 2246   0.251   3.923   1.599
  704SOL    HW1 2247   0.262   3.835   1.564
  704SOL    HW2 2248   0.183   3.915   1.666
  705SOL     OW 2249   3.002   1.707   2.497
  705SOL    HW1 2250   3.009   1.759   2.577
  705SOL    HW2 2251   3.084   1.658   2.493
  706SOL     OW 2252   0.016   2.518   3.642
  706SOL    HW1 2253   0.055   2.548   3.724
  706SOL    HW2 2254  -0.065   2.474   3.668
  707SOL     OW 2255   2.639   1.087   2.712
  707SOL    HW1 2256   2.684   1.101   2.796
  707SOL    HW2 2257   2.570   1.025   2.732
  708SOL     OW 2258   3.592   1.199   1.326
  708SOL    HW1 2259   3.612   1.271   1.266
  708SOL    HW2 2260   3.609   1.120   1.275
  709SOL     OW 2261   2.525   1.165   0.674
  709SOL    HW1 2262   2.582   1.171   0.597
  709SOL    HW2 2263   2.554   1.085   0.718
  710SOL     OW 2264   2.400   0.229   1.173
  710SOL    HW1 2265   2.477   0.173   1.160
  710SOL    HW2 2266   2.386   0.231   1.267
  711SOL     OW 2267   2.000   2.001   3.277
  711SOL    HW1 2268   1.965   1.913   3.296
  711SOL    HW2 2269   2.094   1.989   3.273
  712SOL     OW 2270   1.961   2.812   1.855
  712SOL    HW1 2271   1.982   2.736   1.910
  712SOL    HW2 2272   1.997   2.789   1.769
  713SOL     OW 2273   1.009   3.004   0.001
  713SOL    HW1 2274   0.975   3.048   0.078
  713SOL    HW2 2275   1.078   2.947   0.035
  714SOL     OW 2276   2.618   1.235   3.695
  714SOL    HW1 2277   2.569   1.266   3.771
  714SOL    HW2 2278   2.702   1.280   3.700
  715SOL     OW 2279   2.477   1.410   0.968
  715SOL    HW1 2280   2.382   1.415   0.960
  715SOL    HW2 2281   2.509   1.477   0.907
  716SOL     OW 2282   2.252   2.228   2.578
  716SOL    HW1 2283   2.167   2.229   2.622
  716SOL    HW2 2284   2.234   2.259   2.490
  717SOL     OW 2285   2.921   2.877   2.697
  717SOL    HW1 2286   3.009   2.876   2.658
  717SOL    HW2 2287   2.895   2.785   2.699
  718SOL     OW 2288   2.962   3.664   0.390
  718SOL    HW1 2289   2.973   3.575   0.422
  718SOL    HW2 2290   2.981   3.659   0.297
  719SOL     OW 2291   2.869   3.752   1.285
  719SOL    HW1 2292   2.960   3.777   1.274
  719SOL    HW2 2293   2.825   3.788   1.207
  720SOL     OW 2294   1.251   3.240   2.899
  720SOL    HW1 2295   1.327   3.184   2.913
  720SOL    HW2 2296   1.226   3.225   2.808
  721SOL     OW 2297   1.784   1.354   0.506
  721SOL    HW1 2298   1.848   1.351   0.435
  721SOL    HW2 2299   1.802   1.436   0.551
  722SOL     OW 2300   3.141   3.838   1.189
  722SOL    HW1 2301   3.188   3.854   1.271
  722SOL    HW2 2302   3.132   3.925   1.149
  723SOL     OW 2303   3.632   2.704   3.378
  723SOL    HW1 2304   3.635   2.613   3.350
  723SOL    HW2 2305   3.559   2.742   3.329
  724SOL     OW 2306   2.794   2.004   1.322
  724SOL    HW1 2307   2.756   2.084   1.358
  724SOL    HW2 2308   2.738   1.934   1.355
  725SOL     OW 2309   1.227   0.287   2.877
  725SOL    HW1 2310   1.299   0.311   2.819
  725SOL    HW2 2311   1.236   0.346   2.952
  726SOL     OW 2312   3.792   2.287   1.219
  726SOL    HW1 2313   3.826   2.345   1.151
  726SOL    HW2 2314   3.865   2.276   1.280
  727SOL     OW 2315   0.384   0.363   1.210
  727SOL    HW1 2316   0.296   0.391   1.185
  727SOL    HW2 2317   0.372   0.316   1.293
  728SOL     OW 2318   2.329   2.402   2.110
  728SOL    HW1 2319   2.249   2.352   2.127
  728SOL    HW2 2320   2.381   2.345   2.053
  729SOL     OW 2321   1.845   1.888   1.731
  729SOL    HW1 2322   1.873   1.837   1.807
  729SOL    HW2 2323   1.794   1.960   1.768
  730SOL     OW 2324   2.613   2.875   3.263
  730SOL    HW1 2325   2.654   2.790   3.279
  730SOL    HW2 2326   2.670   2.918   3.199
  731SOL     OW 2327   1.472   3.339   0.899
  731SOL    HW1 2328   1.518   3.422   0.884
  731SOL    HW2 2329   1.441   3.345   0.990
  732SOL     OW 2330   1.080   0.206   3.897
  732SOL    HW1 2331   1.115   0.288   3.932
  732SOL    HW2 2332   1.154   0.167   3.849
  733SOL     OW 2333   1.211   3.042   1.336
  733SOL    HW1 2334   1.155   2.989   1.393
  733SOL    HW2 2335   1.277   2.982   1.303
  734SOL     OW 2336   0.232   1.488   1.659
  734SOL    HW1 2337   0.157   1.441   1.696
  734SOL    HW2 2338   0.206   1.508   1.569
  735SOL     OW 2339   3.517   2.868   1.831
  735SOL    HW1 2340   3.590   2.839   1.885
  735SOL    HW2 2341   3.488   2.789   1.785
  736SOL     OW 2342   1.526   2.672   2.623
  736SOL    HW1 2343   1.494   2.618   2.696
  736SOL    HW2 2344   1.622   2.665   2.629
  737SOL     OW 2345   0.955   2.902   1.766
  737SOL    HW1 2346   0.994   2.989   1.761
  737SOL    HW2 2347   0.917   2.898   1.854
  738SOL     OW 2348   1.064   1.290   3.123
  738SOL    HW1 2349   1.105   1.225   3.067
  738SOL    HW2 2350   1.055   1.248   3.208
  739SOL     OW 2351   0.483   2.609   3.156
  739SOL    HW1 2352   0.519   2.582   3.241
  739SOL    HW2 2353   0.454   2.699   3.170
  740SOL     OW 2354   2.109   1.794   1.329
  740SOL    HW1 2355   2.113   1.704   1.295
  740SOL    HW2 2356   2.118   1.784   1.424
  741SOL     OW 2357   2.358   2.831   3.632
  741SOL    HW1 2358   2.437   2.851   3.582
  741SOL    HW2 2359   2.383   2.757   3.688
  742SOL     OW 2360   0.569   1.386   0.041
  742SOL    HW1 2361   0.487   1.341   0.062
  742SOL    HW2 2362   0.633   1.315   0.030
  743SOL     OW 2363   0.841   1.670   0.467
  743SOL    HW1 2364   0.764   1.645   0.415
  743SOL    HW2 2365   0.857   1.761   0.443
  744SOL     OW 2366   1.117   3.837   2.125
  744SOL    HW1 2367   1.175   3.795   2.062
  744SOL    HW2 2368   1.167   3.911   2.160
  745SOL     OW 2369   1.657   1.436   1.473
  745SOL    HW1 2370   1.730   1.374   1.474
  745SOL    HW2 2371   1.647   1.464   1.564
  746SOL     OW 2372   0.654   1.312   2.849
  746SOL    HW1 2373   0.743   1.346   2.844
  746SOL    HW2 2374   0.610   1.350   2.773
  747SOL     OW 2375   3.145   3.388   3.021
  747SOL    HW1 2376   3.080   3.437   3.070
  747SOL    HW2 2377   3.227   3.436   3.036
  748SOL     OW 2378   2.154   0.087   0.496
  748SOL    HW1 2379   2.225   0.023   0.496
  748SOL    HW2 2380   2.191   0.165   0.537
  749SOL     OW 2381   2.296   2.730   1.790
  749SOL    HW1 2382   2.378   2.683   1.807
  749SOL    HW2 2383   2.248   2.673   1.730
  750SOL     OW 2384   3.961   1.279   0.279
  750SOL    HW1 2385   3.866   1.281   0.284
  750SOL    HW2 2386   3.986   1.199   0.325
  751SOL     OW 2387   2.433   2.779   1.121
  751SOL    HW1 2388   2.490   2.856   1.127
  751SOL    HW2 2389   2.417   2.769   1.028
  752SOL     OW 2390   3.824   1.113   2.503
  752SOL    HW1 2391   3.754   1.178   2.498
  752SOL    HW2 2392   3.780   1.032   2.529
  753SOL     OW 2393   0.975   1.077   0.392
  753SOL    HW1 2394   0.932   1.163   0.395
  753SOL    HW2 2395   0.916   1.020   0.442
  754SOL     OW 2396   0.956   0.331   3.043
  754SOL    HW1 2397   0.874   0.367   3.079
  754SOL    HW2 2398   1.024   0.367   3.099
  755SOL     OW 2399   1.766   1.990   0.546
  755SOL    HW1 2400   1.744   1.918   0.488
  755SOL    HW2 2401   1.684   2.012   0.590
  756SOL     OW 2402   1.210   3.736   3.628
  756SOL    HW1 2403   1.159   3.794   3.685
  756SOL    HW2 2404   1.156   3.658   3.619
  757SOL     OW 2405   2.145   2.898   2.220
  757SOL    HW1 2406   2.056   2.866   2.232
  757SOL    HW2 2407   2.183   2.840   2.154
  758SOL     OW 2408   2.068   1.186   0.134
  758SOL    HW1 2409   2.159   1.160   0.148
  758SOL    HW2 2410   2.047   1.154   0.047
  759SOL     OW 2411   0.629   1.155   0.491
  759SOL    HW1 2412   0.544   1.199   0.482
  759SOL    HW2 2413   0.674   1.204   0.560
  760SOL     OW 2414   0.950   3.388   1.064
  760SOL    HW1 2415   0.965   3.337   1.144
  760SOL    HW2 2416   1.037   3.408   1.031
  761SOL     OW 2417   1.751   1.362   3.602
  761SOL    HW1 2418   1.755   1.276   3.644
  761SOL    HW2 2419   1.825   1.363   3.541
  762SOL     OW 2420   3.927   3.140   2.991
  762SOL    HW1 2421   3.870   3.064   2.983
  762SOL    HW2 2422   3.878   3.202   3.044
  763SOL     OW 2423   2.736   0.527   2.249
  763SOL    HW1 2424   2.786   0.577   2.313
  763SOL    HW2 2425   2.645   0.539   2.274
  764SOL     OW 2426   3.031   1.052   2.844
  764SOL    HW1 2427   3.118   1.090   2.838
  764SOL    HW2 2428   3.035   0.973   2.790
  765SOL     OW 2429   3.720   2.078   3.927
  765SOL    HW1 2430   3.688   2.098   3.839
  765SOL    HW2 2431   3.808   2.044   3.914
  766SOL     OW 2432   0.939   1.447   2.498
  766SOL    HW1 2433   0.919   1.354   2.511
  766SOL    HW2 2434   0.858   1.493   2.523
  767SOL     OW 2435   0.265   0.958   3.758
  767SOL    HW1 2436   0.203   0.907   3.705
  767SOL    HW2 2437   0.274   1.040   3.710
  768SOL     OW 2438   3.328   1.468   3.277
  768SOL    HW1 2439   3.399   1.440   3.335
  768SOL    HW2 2440   3.370   1.479   3.192
  769SOL     OW 2441   2.751   2.028   3.420
  769SOL    HW1 2442   2.817   1.962   3.439
  769SOL    HW2 2443   2.763   2.048   3.327
  770SOL     OW 2444   1.003   2.708   3.045
  770SOL    HW1 2445   0.935   2.646   3.017
  770SOL    HW2 2446   0.958   2.791   3.052
  771SOL     OW 2447   0.038   3.243   0.664
  771SOL    HW1 2448   0.123   3.269   0.626
  771SOL    HW2 2449   0.053   3.155   0.699
  772SOL     OW 2450   1.311   0.576   3.787
  772SOL    HW1 2451   1.317   0.504   3.850
  772SOL    HW2 2452   1.257   0.541   3.716
  773SOL     OW 2453   2.948   1.379   2.947
  773SOL    HW1 2454   2.854   1.363   2.938
  773SOL    HW2 2455   2.967   1.364   3.040
  774SOL     OW 2456   3.780   3.896   3.185
  774SOL    HW1 2457   3.794   3.970   3.126
  774SOL    HW2 2458   3.787   3.819   3.128
  775SOL     OW 2459   0.627   1.623   0.314
  775SOL    HW1 2460   0.574   1.565   0.368
  775SOL    HW2 2461   0.569   1.695   0.290
  776SOL     OW 2462   0.467   0.975   1.132
  776SOL    HW1 2463   0.478   0.880   1.143
  776SOL    HW2 2464   0.529   1.013   1.194
  777SOL     OW 2465   3.553   3.584   3.640
  777SOL    HW1 2466   3.598   3.529   3.576
  777SOL    HW2 2467   3.581   3.552   3.725
  778SOL     OW 2468   1.446   2.461   2.351
  778SOL    HW1 2469   1.374   2.513   2.316
  778SOL    HW2 2470   1.404   2.396   2.407
  779SOL     OW 2471   1.023   2.545   3.747
  779SOL    HW1 2472   0.956   2.583   3.803
  779SOL    HW2 2473   1.104   2.553   3.798
  780SOL     OW 2474   0.079   1.424   0.588
  780SOL    HW1 2475   0.018   1.357   0.618
  780SOL    HW2 2476   0.062   1.432   0.494
  781SOL     OW 2477   1.310   1.889   0.038
  781SOL    HW1 2478   1.223   1.864   0.069
  781SOL    HW2 2479   1.367   1.881   0.115
  782SOL     OW 2480   1.637   0.674   0.237
  782SOL    HW1 2481   1.592   0.689   0.154
  782SOL    HW2 2482   1.567   0.669   0.302
  783SOL     OW 2483   2.894   2.134   1.763
  783SOL    HW1 2484   2.958   2.121   1.833
  783SOL    HW2 2485   2.843   2.210   1.790
  784SOL     OW 2486   0.087   0.502   3.898
  784SOL    HW1 2487  -0.004   0.492   3.871
  784SOL    HW2 2488   0.138   0.477   3.821
  785SOL     OW 2489   3.000   3.924   1.593
  785SOL    HW1 2490   3.036   4.001   1.635
  785SOL    HW2 2491   3.074   3.885   1.545
  786SOL     OW 2492   2.123   0.710   2.609
  786SOL    HW1 2493   2.188   0.640   2.615
  786SOL    HW2 2494   2.082   0.697   2.523
  787SOL     OW 2495   0.225   3.443   3.825
  787SOL    HW1 2496   0.251   3.498   3.751
  787SOL    HW2 2497   0.174   3.501   3.881
  788SOL     OW 2498   2.213   3.084   1.242
  788SOL    HW1 2499   2.122   3.104   1.264
  788SOL    HW2 2500   2.265   3.137   1.303
  789SOL     OW 2501   0.823   1.410   0.227
  789SOL    HW1 2502   0.782   1.358   0.157
  789SOL    HW2 2503   0.759   1.477   0.248
  790SOL     OW 2504   0.995   3.915   3.720
  790SOL    HW1 2505   0.943   3.918   3.801
  790SOL    HW2 2506   0.940   3.868   3.658
  791SOL     OW 2507   2.706   2.942   2.260
  791SOL    HW1 2508   2.715   2.971   2.351
  791SOL    HW2 2509   2.625   2.984   2.230
  792SOL     OW 2510   2.592   2.982   1.850
  792SOL    HW1 2511   2.604   2.909   1.789
  792SOL    HW2 2512   2.603   3.061   1.797
  793SOL     OW 2513   1.229   3.490   2.224
  793SOL    HW1 2514   1.250   3.450   2.139
  793SOL    HW2 2515   1.312   3.492   2.271
  794SOL     OW 2516   2.638   0.184   2.747
  794SOL    HW1 2517   2.600   0.096   2.744
  794SOL    HW2 2518   2.637   0.208   2.840
  795SOL     OW 2519   0.743   0.099   0.619
  795SOL    HW1 2520   0.783   0.115   0.705
  795SOL    HW2 2521   0.772   0.173   0.565
  796SOL     OW 2522   0.684   0.092   1.743
  796SOL    HW1 2523   0.589   0.104   1.749
  796SOL    HW2 2524   0.716   0.109   1.832
  797SOL     OW 2525   2.240   2.279   1.515
  797SOL    HW1 2526   2.208   2.368   1.503
  797SOL    HW2 2527   2.311   2.270   1.451
  798SOL     OW 2528   0.329   3.917   0.242
  798SOL    HW1 2529   0.385   3.968   0.183
  798SOL    HW2 2530   0.362   3.828   0.235
  799SOL     OW 2531   1.861   1.504   1.787
  799SOL    HW1 2532   1.916   1.574   1.823
  799SOL    HW2 2533   1.921   1.447   1.740
  800SOL     OW 2534   3.673   0.732   3.149
  800SOL    HW1 2535   3.612   0.804   3.164
  800SOL    HW2 2536   3.724   0.727   3.230
  801SOL     OW 2537   3.226   3.941   2.038
  801SOL    HW1 2538   3.170   3.908   2.109
  801SOL    HW2 2539   3.301   3.882   2.038
  802SOL     OW 2540   3.049   2.103   2.034
  802SOL    HW1 2541   3.048   2.029   2.094
  802SOL    HW2 2542   3.132   2.148   2.051
  803SOL     OW 2543   3.365   0.989   3.961
  803SOL    HW1 2544   3.301   0.922   3.937
  803SOL    HW2 2545   3.315   1.070   3.964
  804SOL     OW 2546   2.802   2.254   3.606
  804SOL    HW1 2547   2.790   2.175   3.553
  804SOL    HW2 2548   2.786   2.326   3.545
  805SOL     OW 2549   0.995   1.380   1.873
  805SOL    HW1 2550   0.998   1.422   1.959
  805SOL    HW2 2551   0.949   1.297   1.888
  806SOL     OW 2552   3.328   3.044   0.764
  806SOL    HW1 2553   3.271   2.967   0.769
  806SOL    HW2 2554   3.372   3.035   0.679
  807SOL     OW 2555   3.724   1.596   2.468
  807SOL    HW1 2556   3.701   1.505   2.490
  807SOL    HW2 2557   3.817   1.602   2.488
  808SOL     OW 2558   1.617   1.511   1.734
  808SOL    HW1 2559   1.712   1.511   1.748
  808SOL    HW2 2560   1.599   1.595   1.691
  809SOL     OW 2561   3.542   2.430   1.847
  809SOL    HW1 2562   3.575   2.352   1.802
  809SOL    HW2 2563   3.514   2.398   1.933
  810SOL     OW 2564   0.033   3.130   3.373
  810SOL    HW1 2565   0.013   3.127   3.467
  810SOL    HW2 2566   0.017   3.041   3.342
  811SOL     OW 2567   2.266   2.394   1.209
  811SOL    HW1 2568   2.263   2.354   1.122
  811SOL    HW2 2569   2.336   2.459   1.203
  812SOL     OW 2570   3.431   3.279   1.798
  812SOL    HW1 2571   3.430   3.337   1.723
  812SOL    HW2 2572   3.471   3.330   1.868
  813SOL     OW 2573   3.058   0.869   2.644
  813SOL    HW1 2574   2.998   0.802   2.612
  813SOL    HW2 2575   3.045   0.943   2.585
  814SOL     OW 2576   0.209   2.922   3.680
  814SOL    HW1 2577   0.153   2.992   3.646
  814SOL    HW2 2578   0.195   2.925   3.775
  815SOL     OW 2579   2.535   3.893   2.830
  815SOL    HW1 2580   2.445   3.902   2.863
  815SOL    HW2 2581   2.527   3.826   2.762
  816SOL     OW 2582   3.260   1.113   3.562
  816SOL    HW1 2583   3.223   1.105   3.650
  816SOL    HW2 2584   3.206   1.054   3.508
  817SOL     OW 2585   0.010   3.761   1.337
  817SOL    HW1 2586  -0.021   3.671   1.347
  817SOL    HW2 2587   0.105   3.753   1.335
  818SOL     OW 2588   0.296   3.151   1.384
  818SOL    HW1 2589   0.250   3.156   1.467
  818SOL    HW2 2590   0.366   3.216   1.392
  819SOL     OW 2591   0.729   3.930   2.440
  819SOL    HW1 2592   0.787   3.906   2.369
  819SOL    HW2 2593   0.654   3.973   2.397
  820SOL     OW 2594   1.652   0.196   0.941
  820SOL    HW1 2595   1.729   0.199   0.997
  820SOL    HW2 2596   1.685   0.221   0.854
  821SOL     OW 2597   0.022   3.944   1.084
  821SOL    HW1 2598   0.017   3.866   1.139
  821SOL    HW2 2599   0.026   3.910   0.995
  822SOL     OW 2600   1.628   1.635   3.291
  822SOL    HW1 2601   1.551   1.688   3.268
  822SOL    HW2 2602   1.611   1.607   3.381
  823SOL     OW 2603   0.317   0.145   1.363
  823SOL    HW1 2604   0.224   0.127   1.347
  823SOL    HW2 2605   0.339   0.088   1.438
  824SOL     OW 2606   3.282   1.016   3.244
  824SOL    HW1 2607   3.203   0.968   3.268
  824SOL    HW2 2608   3.249   1.094   3.198
  825SOL     OW 2609   2.276   0.482   0.726
  825SOL    HW1 2610   2.316   0.462   0.811
  825SOL    HW2 2611   2.182   0.480   0.744
  826SOL     OW 2612   1.297   3.070   2.279
  826SOL    HW1 2613   1.294   2.976   2.297
  826SOL    HW2 2614   1.382   3.099   2.314
  827SOL     OW 2615   3.717   0.543   2.233
  827SOL    HW1 2616   3.632   0.512   2.266
  827SOL    HW2 2617   3.780   0.512   2.298
  828SOL     OW 2618   3.158   2.801   1.078
  828SOL    HW1 2619   3.212   2.875   1.104
  828SOL    HW2 2620   3.111   2.776   1.158
  829SOL     OW 2621   1.615   3.076   0.677
  829SOL    HW1 2622   1.656   3.146   0.626
  829SOL    HW2 2623   1.687   3.036   0.725
  830SOL     OW 2624   0.666   3.679   0.763
  830SOL    HW1 2625   0.667   3.769   0.730
  830SOL    HW2 2626   0.694   3.686   0.854
  831SOL     OW 2627   2.724   0.838   3.882
  831SOL    HW1 2628   2.735   0.891   3.803
  831SOL    HW2 2629   2.776   0.759   3.865
  832SOL     OW 2630   3.839   0.091   0.520
  832SOL    HW1 2631   3.876   0.178   0.535
  832SOL    HW2 2632   3.905   0.046   0.467
  833SOL     OW 2633   1.846   1.042   0.474
  833SOL    HW1 2634   1.863   1.049   0.380
  833SOL    HW2 2635   1.854   1.132   0.507
  834SOL     OW 2636   3.780   0.940   1.990
  834SOL    HW1 2637   3.786   0.906   2.079
  834SOL    HW2 2638   3.868   0.931   1.954
  835SOL     OW 2639   0.492   0.323   0.508
  835SOL    HW1 2640   0.551   0.254   0.538
  835SOL    HW2 2641   0.499   0.321   0.413
  836SOL     OW 2642   0.453   3.633   0.347
  836SOL    HW1 2643   0.492   3.570   0.287
  836SOL    HW2 2644   0.520   3.699   0.359
  837SOL     OW 2645   3.438   2.644   1.699
  837SOL    HW1 2646   3.416   2.644   1.606
  837SOL    HW2 2647   3.457   2.553   1.720
  838SOL     OW 2648   3.521   1.640   2.825
  838SOL    HW1 2649   3.481   1.635   2.739
  838SOL    HW2 2650   3.515   1.732   2.849
  839SOL     OW 2651   1.857   0.631   3.238
  839SOL    HW1 2652   1.886   0.541   3.221
  839SOL    HW2 2653   1.846   0.635   3.333
  840SOL     OW 2654   0.398   2.439   3.612
  840SOL    HW1 2655   0.324   2.417   3.555
  840SOL    HW2 2656   0.359   2.450   3.699
  841SOL     OW 2657   0.825   1.618   3.110
  841SOL    HW1 2658   0.817   1.602   3.204
  841SOL    HW2 2659   0.770   1.551   3.070
  842SOL     OW 2660   1.149   0.249   1.043
  842SOL    HW1 2661   1.224   0.189   1.038
  842SOL    HW2 2662   1.179   0.320   1.099
  843SOL     OW 2663   2.273   0.385   0.281
  843SOL    HW1 2664   2.330   0.365   0.355
  843SOL    HW2 2665   2.313   0.463   0.241
  844SOL     OW 2666   0.541   1.752   2.668
  844SOL    HW1 2667   0.504   1.724   2.752
  844SOL    HW2 2668   0.608   1.816   2.691
  845SOL     OW 2669   2.777   0.474   3.105
  845SOL    HW1 2670   2.821   0.389   3.106
  845SOL    HW2 2671   2.848   0.538   3.092
  846SOL     OW 2672   0.949   0.157   1.225
  846SOL    HW1 2673   0.946   0.220   1.297
  846SOL    HW2 2674   1.009   0.196   1.161
  847SOL     OW 2675   3.236   2.632   3.425
  847SOL    HW1 2676   3.170   2.697   3.448
  847SOL    HW2 2677   3.225   2.619   3.331
  848SOL     OW 2678   2.285   1.671   0.906
  848SOL    HW1 2679   2.315   1.647   0.818
  848SOL    HW2 2680   2.258   1.589   0.945
  849SOL     OW 2681   3.644   3.541   1.869
  849SOL    HW1 2682   3.649   3.467   1.809
  849SOL    HW2 2683   3.689   3.511   1.948
  850SOL     OW 2684   2.863   0.299   2.669
  850SOL    HW1 2685   2.785   0.244   2.661
  850SOL    HW2 2686   2.899   0.302   2.580
  851SOL     OW 2687   3.167   2.520   2.791
  851SOL    HW1 2688   3.242   2.487   2.841
  851SOL    HW2 2689   3.150   2.607   2.827
  852SOL     OW 2690   2.213   3.333   3.136
  852SOL    HW1 2691   2.268   3.369   3.066
  852SOL    HW2 2692   2.197   3.242   3.109
  853SOL     OW 2693   2.609   3.620   0.996
  853SOL    HW1 2694   2.553   3.542   1.001
  853SOL    HW2 2695   2.669   3.602   0.924
  854SOL     OW 2696   0.276   0.259   2.811
  854SOL    HW1 2697   0.356   0.286   2.854
  854SOL    HW2 2698   0.252   0.177   2.854
  855SOL     OW 2699   0.211   3.399   0.281
  855SOL    HW1 2700   0.199   3.492   0.259
  855SOL    HW2 2701   0.292   3.374   0.238
  856SOL     OW 2702   3.048   3.316   2.137
  856SOL    HW1 2703   2.955   3.298   2.129
  856SOL    HW2 2704   3.065   3.384   2.072
  857SOL     OW 2705   3.032   3.700   3.512
  857SOL    HW1 2706   3.043   3.784   3.557
  857SOL    HW2 2707   3.043   3.635   3.582
  858SOL     OW 2708   2.583   3.906   2.334
  858SOL    HW1 2709   2.593   3.927   2.241
  858SOL    HW2 2710   2.623   3.980   2.380
  859SOL     OW 2711  -0.018   3.583   2.306
  859SOL    HW1 2712   0.022   3.652   2.360
  859SOL    HW2 2713   0.044   3.510   2.310
  860SOL     OW 2714   2.065   0.669   1.627
  860SOL    HW1 2715   2.004   0.600   1.654
  860SOL    HW2 2716   2.151   0.628   1.634
  861SOL     OW 2717   0.325   1.191   2.813
  861SOL    HW1 2718   0.311   1.156   2.725
  861SOL    HW2 2719   0.412   1.230   2.810
  862SOL     OW 2720   0.741   2.687   0.747
  862SOL    HW1 2721   0.661   2.704   0.697
  862SOL    HW2 2722   0.809   2.732   0.697
  863SOL     OW 2723   1.310   0.771   3.081
  863SOL    HW1 2724   1.370   0.712   3.126
  863SOL    HW2 2725   1.363   0.849   3.062
  864SOL     OW 2726   1.375   3.036   0.816
  864SOL    HW1 2727   1.433   3.021   0.741
  864SOL    HW2 2728   1.418   3.103   0.867
  865SOL     OW 2729   2.790   3.813   3.259
  865SOL    HW1 2730   2.812   3.841   3.170
  865SOL    HW2 2731   2.871   3.777   3.294
  866SOL     OW 2732   3.370   1.172   0.722
  866SOL    HW1 2733   3.367   1.123   0.804
  866SOL    HW2 2734   3.342   1.261   0.746
  867SOL     OW 2735   3.604   2.121   3.660
  867SOL    HW1 2736   3.520   2.106   3.702
  867SOL    HW2 2737   3.635   2.033   3.638
  868SOL     OW 2738   1.055   3.506   3.183
  868SOL    HW1 2739   1.135   3.460   3.210
  868SOL    HW2 2740   1.080   3.551   3.102
  869SOL     OW 2741   2.675   1.820   2.541
  869SOL    HW1 2742   2.651   1.766   2.465
  869SOL    HW2 2743   2.594   1.861   2.568
  870SOL     OW 2744   2.060   3.620   1.035
  870SOL    HW1 2745   2.038   3.680   0.964
  870SOL    HW2 2746   2.098   3.675   1.104
  871SOL     OW 2747   2.940   1.614   0.856
  871SOL    HW1 2748   2.877   1.623   0.927
  871SOL    HW2 2749   2.886   1.608   0.777
  872SOL     OW 2750   0.539   0.114   2.350
  872SOL    HW1 2751   0.539   0.196   2.300
  872SOL    HW2 2752   0.447   0.091   2.358
  873SOL     OW 2753   2.174   0.296   2.769
  873SOL    HW1 2754   2.082   0.310   2.788
  873SOL    HW2 2755   2.214   0.277   2.854
  874SOL     OW 2756   1.083   3.882   1.273
  874SOL    HW1 2757   1.035   3.962   1.253
  874SOL    HW2 2758   1.175   3.910   1.279
  875SOL     OW 2759   2.777   1.516   2.515
  875SOL    HW1 2760   2.800   1.595   2.466
  875SOL    HW2 2761   2.842   1.510   2.585
  876SOL     OW 2762   0.576   3.288   2.455
  876SOL    HW1 2763   0.503   3.244   2.411
  876SOL    HW2 2764   0.619   3.220   2.506
  877SOL     OW 2765   3.786   0.546   0.924
  877SOL    HW1 2766   3.795   0.627   0.874
  877SOL    HW2 2767   3.834   0.481   0.873
  878SOL     OW 2768   3.650   2.233   1.647
  878SOL    HW1 2769   3.722   2.172   1.629
  878SOL    HW2 2770   3.687   2.320   1.629
  879SOL     OW 2771   0.661   0.022   2.709
  879SOL    HW1 2772   0.733  -0.006   2.766
  879SOL    HW2 2773   0.699   0.024   2.622
  880SOL     OW 2774   2.231   3.082   3.817
  880SOL    HW1 2775   2.254   3.024   3.744
  880SOL    HW2 2776   2.249   3.030   3.896
  881SOL     OW 2777   0.769   2.012   3.295
  881SOL    HW1 2778   0.767   2.066   3.374
  881SOL    HW2 2779   0.769   2.075   3.222
  882SOL     OW 2780   3.373   1.683   3.935
  882SOL    HW1 2781   3.338   1.633   3.862
  882SOL    HW2 2782   3.435   1.623   3.978
  883SOL     OW 2783   1.052  -0.003   0.665
  883SOL    HW1 2784   1.096  -0.009   0.750
  883SOL    HW2 2785   0.962   0.020   0.686
  884SOL     OW 2786   2.765   3.444   0.220
  884SOL    HW1 2787   2.844   3.439   0.167
  884SOL    HW2 2788   2.727   3.356   0.216
  885SOL     OW 2789   0.539   0.448   0.994
  885SOL    HW1 2790   0.477   0.444   1.067
  885SOL    HW2 2791   0.612   0.392   1.022
  886SOL     OW 2792   0.784   1.098   3.034
  886SOL    HW1 2793   0.732   1.165   2.989
  886SOL    HW2 2794   0.870   1.103   2.993
  887SOL     OW 2795   2.838   1.387   3.779
  887SOL    HW1 2796   2.832   1.435   3.862
  887SOL    HW2 2797   2.898   1.438   3.726
  888SOL     OW 2798   1.452   2.318   3.821
  888SOL    HW1 2799   1.506   2.381   3.868
  888SOL    HW2 2800   1.453   2.347   3.730
  889SOL     OW 2801   3.146  -0.029   0.416
  889SOL    HW1 2802   3.054  -0.008   0.398
  889SOL    HW2 2803   3.183   0.053   0.449
  890SOL     OW 2804   3.225   1.539   2.588
  890SOL    HW1 2805   3.231   1.547   2.684
  890SOL    HW2 2806   3.263   1.453   2.569
  891SOL     OW 2807   1.625   1.421   2.818
  891SOL    HW1 2808   1.559   1.462   2.873
  891SOL    HW2 2809   1.688   1.491   2.800
  892SOL     OW 2810   3.248   1.320   1.836
  892SOL    HW1 2811   3.332   1.283   1.809
  892SOL    HW2 2812   3.189   1.304   1.762
  893SOL     OW 2813   0.931   3.044   0.255
  893SOL    HW1 2814   0.922   3.113   0.321
  893SOL    HW2 2815   0.848   2.996   0.259
  894SOL     OW 2816   3.322   1.734   1.195
  894SOL    HW1 2817   3.396   1.739   1.136
  894SOL    HW2 2818   3.335   1.806   1.257
  895SOL     OW 2819   1.537   1.687   1.945
  895SOL    HW1 2820   1.541   1.620   1.877
  895SOL    HW2 2821   1.623   1.682   1.988
  896SOL     OW 2822   1.874   1.540   2.733
  896SOL    HW1 2823   1.901   1.455   2.767
  896SOL    HW2 2824   1.887   1.532   2.638
  897SOL     OW 2825   3.746   0.102   2.106
  897SOL    HW1 2826   3.824   0.125   2.056
  897SOL    HW2 2827   3.763   0.015   2.140
  898SOL     OW 2828   2.964   3.557   0.076
  898SOL    HW1 2829   2.932   3.645   0.059
  898SOL    HW2 2830   3.032   3.543   0.010
  899SOL     OW 2831   2.569   0.819   2.618
  899SOL    HW1 2832   2.493   0.868   2.650
  899SOL    HW2 2833   2.607   0.876   2.551
  900SOL     OW 2834   3.715   0.501   1.433
  900SOL    HW1 2835   3.789   0.444   1.414
  900SOL    HW2 2836   3.751   0.590   1.425
  901SOL     OW 2837   1.741   2.693   2.050
  901SOL    HW1 2838   1.730   2.759   2.118
  901SOL    HW2 2839   1.836   2.686   2.037
  902SOL     OW 2840   0.049   2.179   3.124
  902SOL    HW1 2841  -0.010   2.127   3.179
  902SOL    HW2 2842   0.114   2.215   3.185
  903SOL     OW 2843   2.428   1.402   3.554
  903SOL    HW1 2844   2.383   1.380   3.472
  903SOL    HW2 2845   2.495   1.335   3.563
  904SOL     OW 2846   1.577   1.303   3.337
  904SOL    HW1 2847   1.521   1.318   3.262
  904SOL    HW2 2848   1.517   1.291   3.411
  905SOL     OW 2849   3.664   1.399   1.546
  905SOL    HW1 2850   3.573   1.413   1.572
  905SOL    HW2 2851   3.658   1.341   1.470
  906SOL     OW 2852   2.283   1.694   2.552
  906SOL    HW1 2853   2.314   1.784   2.540
  906SOL    HW2 2854   2.331   1.643   2.486
  907SOL     OW 2855   3.029   3.703   2.233
  907SOL    HW1 2856   2.952   3.670   2.279
  907SOL    HW2 2857   3.073   3.759   2.296
  908SOL     OW 2858   1.490   2.838   0.016
  908SOL    HW1 2859   1.560   2.859  -0.047
  908SOL    HW2 2860   1.500   2.902   0.086
  909SOL     OW 2861   1.366   1.322   3.179
  909SOL    HW1 2862   1.307   1.387   3.218
  909SOL    HW2 2863   1.309   1.249   3.156
  910SOL     OW 2864   0.357   2.151   0.117
  910SOL    HW1 2865   0.400   2.146   0.032
  910SOL    HW2 2866   0.305   2.231   0.114
  911SOL     OW 2867   0.858   2.111   2.682
  911SOL    HW1 2868   0.867   2.040   2.619
  911SOL    HW2 2869   0.944   2.119   2.722
  912SOL     OW 2870   0.109   2.434   2.966
  912SOL    HW1 2871   0.058   2.356   2.989
  912SOL    HW2 2872   0.047   2.506   2.972
  913SOL     OW 2873   0.129   2.394   1.033
  913SOL    HW1 2874   0.159   2.342   0.959
  913SOL    HW2 2875   0.038   2.415   1.013
  914SOL     OW 2876   0.495   3.024   0.428
  914SOL    HW1 2877   0.460   2.952   0.480
  914SOL    HW2 2878   0.516   3.092   0.491
  915SOL     OW 2879   0.612   2.297   3.259
  915SOL    HW1 2880   0.618   2.359   3.333
  915SOL    HW2 2881   0.540   2.239   3.282
  916SOL     OW 2882   1.792   3.706   1.801
  916SOL    HW1 2883   1.842   3.748   1.871
  916SOL    HW2 2884   1.737   3.775   1.766
  917SOL     OW 2885   0.402   3.792   0.862
  917SOL    HW1 2886   0.490   3.829   0.870
  917SOL    HW2 2887   0.409   3.728   0.792
  918SOL     OW 2888   2.555   3.527   3.340
  918SOL    HW1 2889   2.628   3.576   3.377
  918SOL    HW2 2890   2.523   3.474   3.413
  919SOL     OW 2891   3.716   3.350   1.644
  919SOL    HW1 2892   3.693   3.258   1.656
  919SOL    HW2 2893   3.639   3.391   1.606
  920SOL     OW 2894   2.900   1.265   1.081
  920SOL    HW1 2895   2.821   1.229   1.039
  920SOL    HW2 2896   2.866   1.331   1.142
  921SOL     OW 2897   2.509   0.242   3.588
  921SOL    HW1 2898   2.473   0.320   3.546
  921SOL    HW2 2899   2.445   0.219   3.655
  922SOL     OW 2900   0.763   0.447   2.207
  922SOL    HW1 2901   0.795   0.395   2.133
  922SOL    HW2 2902   0.806   0.410   2.284
  923SOL     OW 2903   3.010   0.505   2.441
  923SOL    HW1 2904   2.991   0.496   2.535
  923SOL    HW2 2905   2.969   0.587   2.416
  924SOL     OW 2906   3.616   3.368   3.400
  924SOL    HW1 2907   3.674   3.386   3.326
  924SOL    HW2 2908   3.530   3.395   3.369
  925SOL     OW 2909   3.632   2.179   2.111
  925SOL    HW1 2910   3.602   2.182   2.020
  925SOL    HW2 2911   3.629   2.086   2.135
  926SOL     OW 2912   2.442   2.927   2.072
  926SOL    HW1 2913   2.362   2.957   2.030
  926SOL    HW2 2914   2.512   2.947   2.010
  927SOL     OW 2915   0.966   1.613   0.065
  927SOL    HW1 2916   1.055   1.595   0.095
  927SOL    HW2 2917   0.911   1.597   0.143
  928SOL     OW 2918   3.582   0.377   3.515
  928SOL    HW1 2919   3.615   0.356   3.428
  928SOL    HW2 2920   3.537   0.461   3.504
  929SOL     OW 2921   1.016   1.941   3.129
  929SOL    HW1 2922   0.990   1.926   3.219
  929SOL    HW2 2923   0.975   2.024   3.104
  930SOL     OW 2924   0.302   0.146   2.534
  930SOL    HW1 2925   0.316   0.056   2.563
  930SOL    HW2 2926   0.333   0.200   2.607
  931SOL     OW 2927   0.838   3.844   3.491
  931SOL    HW1 2928   0.928   3.845   3.457
  931SOL    HW2 2929   0.783   3.856   3.414
  932SOL     OW 2930   2.296   3.118   0.960
  932SOL    HW1 2931   2.275   3.089   1.048
  932SOL    HW2 2932   2.328   3.208   0.971
  933SOL     OW 2933   0.222   3.096   0.170
  933SOL    HW1 2934   0.304   3.143   0.177
  933SOL    HW2 2935   0.176   3.115   0.252
  934SOL     OW 2936   0.606   0.587   0.132
  934SOL    HW1 2937   0.676   0.619   0.190
  934SOL    HW2 2938   0.525   0.603   0.180
  935SOL     OW 2939   3.547   3.875   2.815
  935SOL    HW1 2940   3.596   3.811   2.868
  935SOL    HW2 2941   3.566   3.959   2.856
  936SOL     OW 2942   1.631   2.868   2.239
  936SOL    HW1 2943   1.593   2.945   2.196
  936SOL    HW2 2944   1.559   2.830   2.289
  937SOL     OW 2945   2.835   3.550   0.850
  937SOL    HW1 2946   2.924   3.560   0.818
  937SOL    HW2 2947   2.780   3.558   0.772
  938SOL     OW 2948   1.967   3.653   0.487
  938SOL    HW1 2949   2.008   3.603   0.558
  938SOL    HW2 2950   1.891   3.694   0.528
  939SOL     OW 2951   0.941   0.746   2.657
  939SOL    HW1 2952   0.866   0.718   2.711
  939SOL    HW2 2953   0.903   0.803   2.591
  940SOL     OW 2954   1.386   0.292   3.551
  940SOL    HW1 2955   1.376   0.262   3.461
  940SOL    HW2 2956   1.471   0.337   3.552
  941SOL     OW 2957   2.785   1.469   2.165
  941SOL    HW1 2958   2.880   1.460   2.154
  941SOL    HW2 2959   2.751   1.467   2.075
  942SOL     OW 2960   3.199   1.604   2.848
  942SOL    HW1 2961   3.157   1.616   2.934
  942SOL    HW2 2962   3.171   1.680   2.797
  943SOL     OW 2963   2.590   1.540   3.716
  943SOL    HW1 2964   2.521   1.509   3.657
  943SOL    HW2 2965   2.670   1.537   3.664
  944SOL     OW 2966   0.415   3.951   1.850
  944SOL    HW1 2967   0.399   3.867   1.894
  944SOL    HW2 2968   0.358   3.948   1.773
  945SOL     OW 2969   2.731   0.902   2.128
  945SOL    HW1 2970   2.757   0.837   2.194
  945SOL    HW2 2971   2.724   0.984   2.176
  946SOL     OW 2972   0.426   1.703   1.973
  946SOL    HW1 2973   0.439   1.704   1.878
  946SOL    HW2 2974   0.500   1.754   2.007
  947SOL     OW 2975   3.468   3.125   3.067
  947SOL    HW1 2976   3.377   3.142   3.091
  947SOL    HW2 2977   3.463   3.064   2.994
  948SOL     OW 2978   0.017   2.088   2.255
  948SOL    HW1 2979  -0.011   2.080   2.164
  948SOL    HW2 2980   0.011   1.999   2.290
  949SOL     OW 2981   0.560   1.552   2.417
  949SOL    HW1 2982   0.623   1.526   2.351
  949SOL    HW2 2983   0.593   1.635   2.451
  950SOL     OW 2984   3.631   3.548   0.888
  950SOL    HW1 2985   3.706   3.516   0.837
  950SOL    HW2 2986   3.589   3.612   0.830
  951SOL     OW 2987   2.100   0.748   3.794
  951SOL    HW1 2988   2.185   0.707   3.775
  951SOL    HW2 2989   2.117   0.804   3.870
  952SOL     OW 2990   1.177   0.436   3.150
  952SOL    HW1 2991   1.220   0.516   3.180
  952SOL    HW2 2992   1.219   0.366   3.200
  953SOL     OW 2993   1.255   0.873   3.689
  953SOL    HW1 2994   1.238   0.960   3.724
  953SOL    HW2 2995   1.207   0.814   3.747
  954SOL     OW 2996   1.767   0.115   0.215
  954SOL    HW1 2997   1.853   0.082   0.240
  954SOL    HW2 2998   1.786   0.194   0.164
  955SOL     OW 2999   2.359   0.907   0.196
  955SOL    HW1 3000   2.396   0.824   0.165
  955SOL    HW2 3001   2.380   0.908   0.290
  956SOL     OW 3002   3.077   1.136   2.022
  956SOL    HW1 3003   3.158   1.165   2.064
  956SOL    HW2 3004   3.090   1.042   2.008
  957SOL     OW 3005   3.538   1.176   3.666
  957SOL    HW1 3006   3.500   1.186   3.754
  957SOL    HW2 3007   3.468   1.206   3.607
  958SOL     OW 3008   0.677   1.143   3.921
  958SOL    HW1 3009   0.651   1.110   4.007
  958SOL    HW2 3010   0.755   1.091   3.898
  959SOL     OW 3011   1.332   3.864   2.905
  959SOL    HW1 3012   1.314   3.841   2.814
  959SOL    HW2 3013   1.398   3.801   2.933
  960SOL     OW 3014   2.778   3.196   1.668
  960SOL    HW1 3015   2.797   3.284   1.634
  960SOL    HW2 3016   2.686   3.181   1.645
  961SOL     OW 3017   2.833   2.976   3.131
  961SOL    HW1 3018   2.852   2.902   3.074
  961SOL    HW2 3019   2.918   3.013   3.152
  962SOL     OW 3020   3.042   2.521   0.611
  962SOL    HW1 3021   2.950   2.516   0.639
  962SOL    HW2 3022   3.044   2.475   0.527
  963SOL     OW 3023   3.639   3.545   0.420
  963SOL    HW1 3024   3.713   3.603   0.402
  963SOL    HW2 3025   3.584   3.594   0.482
  964SOL     OW 3026   1.376   0.574   2.427
  964SOL    HW1 3027   1.401   0.621   2.506
  964SOL    HW2 3028   1.384   0.639   2.357
  965SOL     OW 3029   0.182   1.995   2.474
  965SOL    HW1 3030   0.247   2.062   2.453
  965SOL    HW2 3031   0.228   1.912   2.460
  966SOL     OW 3032   2.808   0.137   2.101
  966SOL    HW1 3033   2.774   0.048   2.108
  966SOL    HW2 3034   2.866   0.135   2.024
  967SOL     OW 3035   2.237   3.967   2.868
  967SOL    HW1 3036   2.236   3.932   2.779
  967SOL    HW2 3037   2.149   3.948   2.902
  968SOL     OW 3038   1.637   2.206   3.569
  968SOL    HW1 3039   1.622   2.233   3.478
  968SOL    HW2 3040   1.706   2.265   3.601
  969SOL     OW 3041   0.325   3.673   1.575
  969SOL    HW1 3042   0.381   3.668   1.498
  969SOL    HW2 3043   0.294   3.583   1.587
  970SOL     OW 3044   0.802  -0.014   1.531
  970SOL    HW1 3045   0.741   0.011   1.601
  970SOL    HW2 3046   0.788   0.052   1.462
  971SOL     OW 3047   0.332   3.079   2.824
  971SOL    HW1 3048   0.337   3.052   2.916
  971SOL    HW2 3049   0.411   3.131   2.810
  972SOL     OW 3050   2.793   3.425   2.587
  972SOL    HW1 3051   2.809   3.503   2.641
  972SOL    HW2 3052   2.878   3.380   2.585
  973SOL     OW 3053   1.969   3.587   2.553
  973SOL    HW1 3054   2.034   3.653   2.577
  973SOL    HW2 3055   2.017   3.505   2.552
  974SOL     OW 3056   2.262   0.492   1.902
  974SOL    HW1 3057   2.186   0.452   1.859
  974SOL    HW2 3058   2.253   0.467   1.994
  975SOL     OW 3059   1.253   3.467   1.254
  975SOL    HW1 3060   1.162   3.480   1.280
  975SOL    HW2 3061   1.301   3.537   1.300
  976SOL     OW 3062   0.880   3.241   0.857
  976SOL    HW1 3063   0.903   3.267   0.946
  976SOL    HW2 3064   0.945   3.283   0.801
  977SOL     OW 3065   2.151   3.165   3.452
  977SOL    HW1 3066   2.191   3.231   3.396
  977SOL    HW2 3067   2.202   3.086   3.436
  978SOL     OW 3068   2.566   0.539   1.891
  978SOL    HW1 3069   2.479   0.534   1.931
  978SOL    HW2 3070   2.599   0.449   1.896
  979SOL     OW 3071   3.489   0.525   1.817
  979SOL    HW1 3072   3.533   0.556   1.738
  979SOL    HW2 3073   3.509   0.592   1.883
  980SOL     OW 3074   0.668   1.616   3.637
  980SOL    HW1 3075   0.592   1.649   3.685
  980SOL    HW2 3076   0.739   1.615   3.701
  981SOL     OW 3077   0.634   3.887   3.325
  981SOL    HW1 3078   0.578   3.822   3.367
  981SOL    HW2 3079   0.616   3.968   3.374
  982SOL     OW 3080   2.699   1.692   2.274
  982SOL    HW1 3081   2.672   1.749   2.203
  982SOL    HW2 3082   2.710   1.606   2.233
  983SOL     OW 3083   3.296   2.776   2.905
  983SOL    HW1 3084   3.352   2.826   2.846
  983SOL    HW2 3085   3.350   2.703   2.934
  984SOL     OW 3086   0.095   2.756   1.577
  984SOL    HW1 3087   0.022   2.812   1.605
  984SOL    HW2 3088   0.158   2.817   1.539
  985SOL     OW 3089   1.873   0.443   2.327
  985SOL    HW1 3090   1.782   0.415   2.331
  985SOL    HW2 3091   1.884   0.501   2.402
  986SOL     OW 3092   2.070   3.298   2.402
  986SOL    HW1 3093   2.105   3.302   2.491
  986SOL    HW2 3094   2.143   3.264   2.349
  987SOL     OW 3095   3.936   3.579   3.691
  987SOL    HW1 3096   3.904   3.616   3.608
  987SOL    HW2 3097   3.984   3.651   3.732
  988SOL     OW 3098   3.292   2.792   1.977
  988SOL    HW1 3099   3.357   2.836   1.923
  988SOL    HW2 3100   3.321   2.810   2.067
  989SOL     OW 3101   3.361   0.621   0.242
  989SOL    HW1 3102   3.383   0.603   0.334
  989SOL    HW2 3103   3.421   0.691   0.216
  990SOL     OW 3104   0.587   1.352   3.497
  990SOL    HW1 3105   0.676   1.318   3.485
  990SOL    HW2 3106   0.600   1.444   3.522
  991SOL     OW 3107   3.917   1.376   2.311
  991SOL    HW1 3108   3.930   1.417   2.397
  991SOL    HW2 3109   4.005   1.372   2.273
  992SOL     OW 3110   1.569   1.986   0.256
  992SOL    HW1 3111   1.603   1.905   0.295
  992SOL    HW2 3112   1.647   2.038   0.237
  993SOL     OW 3113   0.811   0.750   3.533
  993SOL    HW1 3114   0.864   0.762   3.612
  993SOL    HW2 3115   0.817   0.834   3.487
  994SOL     OW 3116   3.752   1.467   3.668
  994SOL    HW1 3117   3.813   1.412   3.620
  994SOL    HW2 3118   3.740   1.545   3.613
  995SOL     OW 3119   1.040   1.499   1.152
  995SOL    HW1 3120   0.962   1.520   1.203
  995SOL    HW2 3121   1.061   1.408   1.175
  996SOL     OW 3122   1.003   0.023   1.904
  996SOL    HW1 3123   1.043  -0.051   1.948
  996SOL    HW2 3124   1.054   0.035   1.825
  997SOL     OW 3125   1.308   0.156   3.756
  997SOL    HW1 3126   1.350   0.075   3.728
  997SOL    HW2 3127   1.337   0.221   3.691
  998SOL     OW 3128   1.317   3.706   3.370
  998SOL    HW1 3129   1.385   3.639   3.364
  998SOL    HW2 3130   1.299   3.715   3.463
  999SOL     OW 3131   2.413   2.556   3.122
  999SOL    HW1 3132   2.317   2.554   3.124
  999SOL    HW2 3133   2.435   2.636   3.074
 1000SOL     OW 3134   0.378   0.981   1.549
 1000SOL    HW1 3135   0.392   0.935   1.466
 1000SOL    HW2 3136   0.288   1.014   1.543
 1001SOL     OW 3137   0.404   1.239   0.369
 1001SOL    HW1 3138   0.356   1.295   0.307
 1001SOL    HW2 3139   0.361   1.154   0.363
 1002SOL     OW 3140   2.967   2.746   3.469
 1002SOL    HW1 3141   2.949   2.674   3.530
 1002SOL    HW2 3142   2.909   2.730   3.395
 1003SOL     OW 3143   2.903   0.076   0.326
 1003SOL    HW1 3144   2.928   0.117   0.243
 1003SOL    HW2 3145   2.901   0.148   0.389
 1004SOL     OW 3146   3.338   0.246   0.968
 1004SOL    HW1 3147   3.390   0.319   1.001
 1004SOL    HW2 3148   3.295   0.282   0.890
 1005SOL     OW 3149   2.626   2.980   2.812
 1005SOL    HW1 3150   2.652   3.062   2.854
 1005SOL    HW2 3151   2.638   2.995   2.719
 1006SOL     OW 3152   3.329   1.425   0.168
 1006SOL    HW1 3153   3.394   1.455   0.231
 1006SOL    HW2 3154   3.369   1.349   0.125
 1007SOL     OW 3155   3.605   1.539   0.093
 1007SOL    HW1 3156   3.656   1.515   0.016
 1007SOL    HW2 3157   3.652   1.499   0.166
 1008SOL     OW 3158   2.158   0.776   1.164
 1008SOL    HW1 3159   2.131   0.826   1.087
 1008SOL    HW2 3160   2.229   0.720   1.133
 1009SOL     OW 3161   3.716   2.704   1.242
 1009SOL    HW1 3162   3.775   2.637   1.276
 1009SOL    HW2 3163   3.765   2.786   1.248
 1010SOL     OW 3164   3.332   1.383   2.390
 1010SOL    HW1 3165   3.399   1.429   2.338
 1010SOL    HW2 3166   3.263   1.449   2.403
 1011SOL     OW 3167   1.220   1.659   0.182
 1011SOL    HW1 3168   1.176   1.723   0.237
 1011SOL    HW2 3169   1.233   1.583   0.239
 1012SOL     OW 3170   1.294   0.448   0.552
 1012SOL    HW1 3171   1.378   0.492   0.540
 1012SOL    HW2 3172   1.314   0.374   0.610
 1013SOL     OW 3173   2.901   2.778   0.944
 1013SOL    HW1 3174   2.884   2.821   0.860
 1013SOL    HW2 3175   2.996   2.769   0.948
 1014SOL     OW 3176   2.109   1.493   0.117
 1014SOL    HW1 3177   2.081   1.459   0.031
 1014SOL    HW2 3178   2.169   1.564   0.095
 1015SOL     OW 3179   1.622   2.479   0.381
 1015SOL    HW1 3180   1.682   2.541   0.340
 1015SOL    HW2 3181   1.677   2.421   0.433
 1016SOL     OW 3182   0.516   3.734   1.352
 1016SOL    HW1 3183   0.477   3.819   1.330
 1016SOL    HW2 3184   0.489   3.677   1.280
 1017SOL     OW 3185   3.457   2.584   3.016
 1017SOL    HW1 3186   3.467   2.509   2.958
 1017SOL    HW2 3187   3.496   2.555   3.099
 1018SOL     OW 3188   0.667   1.966   2.804
 1018SOL    HW1 3189   0.726   2.025   2.757
 1018SOL    HW2 3190   0.682   1.986   2.897
 1019SOL     OW 3191   1.063   1.491   2.216
 1019SOL    HW1 3192   1.150   1.479   2.178
 1019SOL    HW2 3193   1.069   1.455   2.304
 1020SOL     OW 3194   2.948   1.300   1.564
 1020SOL    HW1 3195   3.031   1.269   1.526
 1020SOL    HW2 3196   2.927   1.378   1.514
 1021SOL     OW 3197   0.926   1.870   2.582
 1021SOL    HW1 3198   0.927   1.793   2.638
 1021SOL    HW2 3199   0.933   1.836   2.492
 1022SOL     OW 3200   3.962   3.297   1.790
 1022SOL    HW1 3201   3.881   3.313   1.742
 1022SOL    HW2 3202   3.936   3.243   1.864
 1023SOL     OW 3203   0.008   0.806   1.068
 1023SOL    HW1 3204   0.048   0.785   1.152
 1023SOL    HW2 3205   0.051   0.887   1.041
 1024SOL     OW 3206   1.903   3.786   2.855
 1024SOL    HW1 3207   1.877   3.869   2.895
 1024SOL    HW2 3208   1.873   3.719   2.916
 1025SOL     OW 3209   0.773   1.409   1.565
 1025SOL    HW1 3210   0.698   1.357   1.595
 1025SOL    HW2 3211   0.746   1.444   1.481
 1026SOL     OW 3212   2.350   2.898   0.035
 1026SOL    HW1 3213   2.421   2.859  -0.015
 1026SOL    HW2 3214   2.394   2.951   0.102
 1027SOL     OW 3215   0.621   1.841   2.081
 1027SOL    HW1 3216   0.582   1.849   2.168
 1027SOL    HW2 3217   0.715   1.848   2.096
 1028SOL     OW 3218   0.947   1.443   0.450
 1028SOL    HW1 3219   0.918   1.533   0.462
 1028SOL    HW2 3220   0.925   1.422   0.359
 1029SOL     OW 3221   3.224   0.383   1.286
 1029SOL    HW1 3222   3.300   0.418   1.331
 1029SOL    HW2 3223   3.217   0.434   1.205
 1030SOL     OW 3224   1.207   0.946   3.404
 1030SOL    HW1 3225   1.164   1.032   3.408
 1030SOL    HW2 3226   1.224   0.924   3.495
 1031SOL     OW 3227   0.752   0.899   0.496
 1031SOL    HW1 3228   0.686   0.830   0.509
 1031SOL    HW2 3229   0.706   0.980   0.517
 1032SOL     OW 3230   2.019   2.284   1.265
 1032SOL    HW1 3231   2.111   2.301   1.287
 1032SOL    HW2 3232   2.007   2.191   1.283
 1033SOL     OW 3233   0.212   1.609   0.764
 1033SOL    HW1 3234   0.301   1.575   0.769
 1033SOL    HW2 3235   0.165   1.547   0.708
 1034SOL     OW 3236   3.700   2.152   0.507
 1034SOL    HW1 3237   3.686   2.243   0.531
 1034SOL    HW2 3238   3.663   2.102   0.580
 1035SOL     OW 3239   0.171   3.113   1.647
 1035SOL    HW1 3240   0.165   3.066   1.730
 1035SOL    HW2 3241   0.086   3.156   1.637
 1036SOL     OW 3242   0.808   1.297   0.649
 1036SOL    HW1 3243   0.883   1.334   0.603
 1036SOL    HW2 3244   0.818   1.329   0.739
 1037SOL     OW 3245   1.121   3.735   0.516
 1037SOL    HW1 3246   1.120   3.816   0.566
 1037SOL    HW2 3247   1.043   3.688   0.546
 1038SOL     OW 3248   0.011   0.566   2.818
 1038SOL    HW1 3249   0.040   0.644   2.864
 1038SOL    HW2 3250   0.078   0.551   2.751
 1039SOL     OW 3251   1.904   1.390   2.027
 1039SOL    HW1 3252   1.888   1.437   1.946
 1039SOL    HW2 3253   1.819   1.353   2.051
 1040SOL     OW 3254   2.165   3.325   3.933
 1040SOL    HW1 3255   2.069   3.330   3.928
 1040SOL    HW2 3256   2.186   3.237   3.903
 1041SOL     OW 3257   0.089   3.768   2.461
 1041SOL    HW1 3258   0.084   3.859   2.432
 1041SOL    HW2 3259   0.172   3.763   2.509
 1042SOL     OW 3260   2.841   2.841   0.653
 1042SOL    HW1 3261   2.860   2.917   0.708
 1042SOL    HW2 3262   2.889   2.857   0.572
 1043SOL     OW 3263   0.673   0.445   3.301
 1043SOL    HW1 3264   0.722   0.363   3.294
 1043SOL    HW2 3265   0.741   0.513   3.300
 1044SOL     OW 3266   2.935   2.565   3.672
 1044SOL    HW1 3267   2.980   2.510   3.736
 1044SOL    HW2 3268   2.843   2.538   3.677
 1045SOL     OW 3269   0.061   0.136   1.286
 1045SOL    HW1 3270   0.059   0.067   1.220
 1045SOL    HW2 3271  -0.012   0.116   1.344
 1046SOL     OW 3272   0.679   3.505   2.297
 1046SOL    HW1 3273   0.677   3.413   2.326
 1046SOL    HW2 3274   0.754   3.543   2.344
 1047SOL     OW 3275   3.501   1.509   2.218
 1047SOL    HW1 3276   3.418   1.554   2.231
 1047SOL    HW2 3277   3.557   1.573   2.174
 1048SOL     OW 3278   2.900   0.971   0.563
 1048SOL    HW1 3279   2.864   0.890   0.601
 1048SOL    HW2 3280   2.961   1.004   0.630
 1049SOL     OW 3281   1.466   2.739   2.947
 1049SOL    HW1 3282   1.426   2.653   2.939
 1049SOL    HW2 3283   1.414   2.784   3.014
 1050SOL     OW 3284   2.359   0.696   0.972
 1050SOL    HW1 3285   2.387   0.610   1.001
 1050SOL    HW2 3286   2.293   0.678   0.905
 1051SOL     OW 3287   3.564   1.873   3.011
 1051SOL    HW1 3288   3.544   1.913   2.927
 1051SOL    HW2 3289   3.479   1.851   3.048
 1052SOL     OW 3290   1.005   2.697   0.585
 1052SOL    HW1 3291   1.065   2.665   0.652
 1052SOL    HW2 3292   1.059   2.755   0.531
 1053SOL     OW 3293   1.461   1.551   3.015
 1053SOL    HW1 3294   1.435   1.464   3.045
 1053SOL    HW2 3295   1.434   1.610   3.084
 1054SOL     OW 3296   1.274   2.129   2.487
 1054SOL    HW1 3297   1.336   2.092   2.550
 1054SOL    HW2 3298   1.201   2.067   2.486
 1055SOL     OW 3299   0.354   2.759   2.569
 1055SOL    HW1 3300   0.437   2.758   2.618
 1055SOL    HW2 3301   0.333   2.667   2.556
 1056SOL     OW 3302   1.836   0.463   3.544
 1056SOL    HW1 3303   1.926   0.430   3.539
 1056SOL    HW2 3304   1.817   0.465   3.638
 1057SOL     OW 3305   1.608   0.275   0.395
 1057SOL    HW1 3306   1.671   0.233   0.337
 1057SOL    HW2 3307   1.559   0.335   0.338
 1058SOL     OW 3308   2.983   3.200   3.334
 1058SOL    HW1 3309   2.909   3.236   3.285
 1058SOL    HW2 3310   3.041   3.275   3.349
 1059SOL     OW 3311   1.894   2.159   2.296
 1059SOL    HW1 3312   1.889   2.177   2.390
 1059SOL    HW2 3313   1.885   2.064   2.289
 1060SOL     OW 3314   3.785   0.846   0.475
 1060SOL    HW1 3315   3.713   0.793   0.442
 1060SOL    HW2 3316   3.754   0.936   0.467
 1061SOL     OW 3317   3.438   3.126   2.027
 1061SOL    HW1 3318   3.349   3.107   2.055
 1061SOL    HW2 3319   3.434   3.125   1.932
 1062SOL     OW 3320   1.537   1.823   3.560
 1062SOL    HW1 3321   1.562   1.730   3.561
 1062SOL    HW2 3322   1.451   1.825   3.601
 1063SOL     OW 3323   2.293   3.820   3.114
 1063SOL    HW1 3324   2.387   3.805   3.115
 1063SOL    HW2 3325   2.257   3.749   3.062
 1064SOL     OW 3326   0.664   3.570   0.087
 1064SOL    HW1 3327   0.755   3.554   0.111
 1064SOL    HW2 3328   0.639   3.493   0.036
 1065SOL     OW 3329   3.749   2.237   3.444
 1065SOL    HW1 3330   3.795   2.296   3.504
 1065SOL    HW2 3331   3.674   2.206   3.494
 1066SOL     OW 3332   0.558   2.901   3.924
 1066SOL    HW1 3333   0.510   2.875   3.846
 1066SOL    HW2 3334   0.626   2.961   3.891
 1067SOL     OW 3335   1.212   3.116   0.437
 1067SOL    HW1 3336   1.183   3.099   0.347
 1067SOL    HW2 3337   1.277   3.047   0.454
 1068SOL     OW 3338   3.185   2.897   2.621
 1068SOL    HW1 3339   3.242   2.829   2.657
 1068SOL    HW2 3340   3.206   2.899   2.528
 1069SOL     OW 3341   0.978   3.977   3.179
 1069SOL    HW1 3342   1.029   3.996   3.101
 1069SOL    HW2 3343   1.016   3.897   3.214
 1070SOL     OW 3344   1.145   3.719   0.034
 1070SOL    HW1 3345   1.126   3.640  -0.016
 1070SOL    HW2 3346   1.075   3.724   0.098
 1071SOL     OW 3347   2.683   1.668   1.318
 1071SOL    HW1 3348   2.623   1.618   1.262
 1071SOL    HW2 3349   2.628   1.738   1.355
 1072SOL     OW 3350   1.559   0.522   3.501
 1072SOL    HW1 3351   1.654   0.519   3.515
 1072SOL    HW2 3352   1.530   0.599   3.551
 1073SOL     OW 3353   3.538   0.446   0.991
 1073SOL    HW1 3354   3.548   0.418   1.082
 1073SOL    HW2 3355   3.622   0.483   0.967
 1074SOL     OW 3356   0.777   1.578   2.717
 1074SOL    HW1 3357   0.687   1.596   2.745
 1074SOL    HW2 3358   0.814   1.522   2.786
 1075SOL     OW 3359   1.991   0.279   0.098
 1075SOL    HW1 3360   2.058   0.324   0.149
 1075SOL    HW2 3361   1.915   0.338   0.101
 1076SOL     OW 3362   1.183   0.453   2.230
 1076SOL    HW1 3363   1.235   0.523   2.191
 1076SOL    HW2 3364   1.241   0.413   2.295
 1077SOL     OW 3365   1.380   0.611   3.330
 1077SOL    HW1 3366   1.394   0.706   3.329
 1077SOL    HW2 3367   1.442   0.578   3.394
 1078SOL     OW 3368   3.529   0.180   2.886
 1078SOL    HW1 3369   3.521   0.253   2.947
 1078SOL    HW2 3370   3.475   0.205   2.811
 1079SOL     OW 3371   2.798   2.846   3.773
 1079SOL    HW1 3372   2.760   2.926   3.737
 1079SOL    HW2 3373   2.862   2.817   3.707
 1080SOL     OW 3374   0.734   0.824   3.087
 1080SOL    HW1 3375   0.770   0.908   3.057
 1080SOL    HW2 3376   0.767   0.760   3.024
 1081SOL     OW 3377   1.807   3.777   1.177
 1081SOL    HW1 3378   1.774   3.831   1.250
 1081SOL    HW2 3379   1.902   3.790   1.179
 1082SOL     OW 3380   1.796   1.895   2.800
 1082SOL    HW1 3381   1.767   1.946   2.876
 1082SOL    HW2 3382   1.716   1.854   2.767
 1083SOL     OW 3383   0.413   2.788   3.724
 1083SOL    HW1 3384   0.386   2.696   3.728
 1083SOL    HW2 3385   0.336   2.833   3.689
 1084SOL     OW 3386   2.421   2.827   2.948
 1084SOL    HW1 3387   2.406   2.744   2.901
 1084SOL    HW2 3388   2.496   2.866   2.903
 1085SOL     OW 3389   3.529   3.019   2.421
 1085SOL    HW1 3390   3.492   3.106   2.416
 1085SOL    HW2 3391   3.614   3.031   2.462
 1086SOL     OW 3392   3.529   1.993   1.701
 1086SOL    HW1 3393   3.575   1.957   1.624
 1086SOL    HW2 3394   3.575   2.075   1.720
 1087SOL     OW 3395   0.488   2.781   1.706
 1087SOL    HW1 3396   0.412   2.802   1.652
 1087SOL    HW2 3397   0.480   2.839   1.781
 1088SOL     OW 3398   3.525   1.917   2.748
 1088SOL    HW1 3399   3.434   1.943   2.731
 1088SOL    HW2 3400   3.540   1.843   2.689
 1089SOL     OW 3401   1.560   0.584   1.955
 1089SOL    HW1 3402   1.478   0.580   1.906
 1089SOL    HW2 3403   1.578   0.493   1.979
 1090SOL     OW 3404   0.333   1.091   3.115
 1090SOL    HW1 3405   0.374   1.144   3.183
 1090SOL    HW2 3406   0.377   1.118   3.034
 1091SOL     OW 3407   2.548   3.845   3.410
 1091SOL    HW1 3408   2.539   3.792   3.489
 1091SOL    HW2 3409   2.635   3.824   3.377
 1092SOL     OW 3410   2.386   2.552   1.569
 1092SOL    HW1 3411   2.464   2.502   1.547
 1092SOL    HW2 3412   2.348   2.575   1.484
 1093SOL     OW 3413   2.527   0.894   0.925
 1093SOL    HW1 3414   2.608   0.887   0.975
 1093SOL    HW2 3415   2.466   0.836   0.971
 1094SOL     OW 3416   3.704   3.189   0.753
 1094SOL    HW1 3417   3.692   3.267   0.806
 1094SOL    HW2 3418   3.738   3.124   0.814
 1095SOL     OW 3419   3.444   3.517   2.576
 1095SOL    HW1 3420   3.372   3.579   2.571
 1095SOL    HW2 3421   3.509   3.560   2.631
 1096SOL     OW 3422   3.885   3.468   2.600
 1096SOL    HW1 3423   3.932   3.415   2.664
 1096SOL    HW2 3424   3.943   3.542   2.584
 1097SOL     OW 3425   1.813   3.182   0.975
 1097SOL    HW1 3426   1.748   3.236   0.931
 1097SOL    HW2 3427   1.894   3.233   0.969
 1098SOL     OW 3428   2.022   2.681   3.472
 1098SOL    HW1 3429   2.081   2.613   3.438
 1098SOL    HW2 3430   1.997   2.649   3.559
 1099SOL     OW 3431   3.717   1.177   2.820
 1099SOL    HW1 3432   3.677   1.090   2.828
 1099SOL    HW2 3433   3.652   1.228   2.772
 1100SOL     OW 3434   0.816   1.611   3.372
 1100SOL    HW1 3435   0.807   1.526   3.416
 1100SOL    HW2 3436   0.730   1.651   3.382
 1101SOL     OW 3437   2.315   3.192   2.304
 1101SOL    HW1 3438   2.383   3.253   2.332
 1101SOL    HW2 3439   2.339   3.109   2.345
 1102SOL     OW 3440   1.251   0.247   2.457
 1102SOL    HW1 3441   1.164   0.236   2.495
 1102SOL    HW2 3442   1.307   0.270   2.531
 1103SOL     OW 3443   0.683   2.449   0.453
 1103SOL    HW1 3444   0.760   2.394   0.465
 1103SOL    HW2 3445   0.612   2.387   0.434
 1104SOL     OW 3446   0.833   1.926   3.695
 1104SOL    HW1 3447   0.898   1.995   3.702
 1104SOL    HW2 3448   0.750   1.972   3.685
 1105SOL     OW 3449   2.910   1.565   3.558
 1105SOL    HW1 3450   2.818   1.580   3.536
 1105SOL    HW2 3451   2.953   1.553   3.473
 1106SOL     OW 3452   3.118   0.146   1.169
 1106SOL    HW1 3453   3.191   0.181   1.118
 1106SOL    HW2 3454   3.117   0.199   1.249
 1107SOL     OW 3455   1.347   1.914   1.985
 1107SOL    HW1 3456   1.353   1.971   2.062
 1107SOL    HW2 3457   1.425   1.859   1.989
 1108SOL     OW 3458   1.304   2.065   0.449
 1108SOL    HW1 3459   1.354   1.985   0.434
 1108SOL    HW2 3460   1.371   2.134   0.455
 1109SOL     OW 3461   0.126   1.554   3.609
 1109SOL    HW1 3462   0.204   1.551   3.665
 1109SOL    HW2 3463   0.096   1.463   3.604
 1110SOL     OW 3464   3.896   0.277   3.377
 1110SOL    HW1 3465   3.987   0.279   3.348
 1110SOL    HW2 3466   3.867   0.368   3.371
 1111SOL     OW 3467   0.121   3.214   3.911
 1111SOL    HW1 3468   0.156   3.186   3.996
 1111SOL    HW2 3469   0.184   3.278   3.879
 1112SOL     OW 3470   0.021   2.283   0.771
 1112SOL    HW1 3471   0.101   2.234   0.748
 1112SOL    HW2 3472   0.012   2.347   0.701
 1113SOL     OW 3473   3.661   2.866   1.033
 1113SOL    HW1 3474   3.681   2.822   1.116
 1113SOL    HW2 3475   3.572   2.900   1.044
 1114SOL     OW 3476   2.633   3.576  -0.017
 1114SOL    HW1 3477   2.547   3.536  -0.032
 1114SOL    HW2 3478   2.670   3.525   0.055
 1115SOL     OW 3479   1.604   3.486   0.610
 1115SOL    HW1 3480   1.589   3.492   0.515
 1115SOL    HW2 3481   1.527   3.441   0.644
 1116SOL     OW 3482   0.911   0.589   0.028
 1116SOL    HW1 3483   0.882   0.621   0.113
 1116SOL    HW2 3484   0.848   0.520   0.005
 1117SOL     OW 3485   2.496   3.384   0.779
 1117SOL    HW1 3486   2.522   3.387   0.686
 1117SOL    HW2 3487   2.550   3.313   0.816
 1118SOL     OW 3488   3.163   0.781   3.894
 1118SOL    HW1 3489   3.199   0.754   3.809
 1118SOL    HW2 3490   3.084   0.728   3.904
 1119SOL     OW 3491   2.545   2.639   0.198
 1119SOL    HW1 3492   2.617   2.578   0.216
 1119SOL    HW2 3493   2.567   2.678   0.113
 1120SOL     OW 3494   0.241   2.188   0.449
 1120SOL    HW1 3495   0.224   2.277   0.418
 1120SOL    HW2 3496   0.183   2.133   0.397
 1121SOL     OW 3497   3.389   1.886   2.320
 1121SOL    HW1 3498   3.435   1.885   2.236
 1121SOL    HW2 3499   3.414   1.969   2.359
 1122SOL     OW 3500   0.943   3.141   2.780
 1122SOL    HW1 3501   0.972   3.182   2.861
 1122SOL    HW2 3502   0.922   3.214   2.722
 1123SOL     OW 3503   2.338   2.761   0.827
 1123SOL    HW1 3504   2.286   2.839   0.805
 1123SOL    HW2 3505   2.318   2.698   0.759
 1124SOL     OW 3506   0.133   1.453   1.373
 1124SOL    HW1 3507   0.217   1.489   1.345
 1124SOL    HW2 3508   0.070   1.484   1.308
 1125SOL     OW 3509   0.055   1.063   0.444
 1125SOL    HW1 3510   0.120   0.993   0.456
 1125SOL    HW2 3511  -0.028   1.018   0.433
 1126SOL     OW 3512   1.433   3.316   0.090
 1126SOL    HW1 3513   1.448   3.410   0.083
 1126SOL    HW2 3514   1.406   3.290   0.002
 1127SOL     OW 3515   3.750   2.417   2.185
 1127SOL    HW1 3516   3.746   2.324   2.164
 1127SOL    HW2 3517   3.663   2.438   2.218
 1128SOL     OW 3518   0.173   3.812   0.650
 1128SOL    HW1 3519   0.118   3.804   0.727
 1128SOL    HW2 3520   0.242   3.873   0.675
 1129SOL     OW 3521   0.726   2.368   0.726
 1129SOL    HW1 3522   0.726   2.464   0.716
 1129SOL    HW2 3523   0.798   2.339   0.671
 1130SOL     OW 3524   1.005   1.580   0.904
 1130SOL    HW1 3525   0.953   1.508   0.868
 1130SOL    HW2 3526   1.016   1.558   0.996
 1131SOL     OW 3527   0.692   3.030   2.594
 1131SOL    HW1 3528   0.659   2.941   2.609
 1131SOL    HW2 3529   0.753   3.045   2.666
 1132SOL     OW 3530   0.122   1.641   0.103
 1132SOL    HW1 3531   0.118   1.726   0.147
 1132SOL    HW2 3532   0.209   1.640   0.062
 1133SOL     OW 3533   0.663   2.586   3.906
 1133SOL    HW1 3534   0.715   2.585   3.987
 1133SOL    HW2 3535   0.608   2.664   3.915
 1134SOL     OW 3536   2.293   2.024   3.940
 1134SOL    HW1 3537   2.268   2.011   4.032
 1134SOL    HW2 3538   2.222   2.076   3.903
 1135SOL     OW 3539   3.466   0.351   0.692
 1135SOL    HW1 3540   3.370   0.354   0.695
 1135SOL    HW2 3541   3.494   0.407   0.765
 1136SOL     OW 3542   0.057   3.859   3.689
 1136SOL    HW1 3543   0.074   3.860   3.595
 1136SOL    HW2 3544   0.138   3.826   3.727
 1137SOL     OW 3545   3.177   0.521   1.080
 1137SOL    HW1 3546   3.131   0.600   1.106
 1137SOL    HW2 3547   3.158   0.512   0.986
 1138SOL     OW 3548   0.102   0.659   0.864
 1138SOL    HW1 3549   0.040   0.662   0.791
 1138SOL    HW2 3550   0.056   0.701   0.937
 1139SOL     OW 3551   2.480   1.766   2.840
 1139SOL    HW1 3552   2.404   1.793   2.890
 1139SOL    HW2 3553   2.490   1.673   2.860
 1140SOL     OW 3554   3.573   0.086   0.444
 1140SOL    HW1 3555   3.668   0.081   0.455
 1140SOL    HW2 3556   3.560   0.095   0.349
 1141SOL     OW 3557   2.499   2.049   2.205
 1141SOL    HW1 3558   2.499   2.107   2.129
 1141SOL    HW2 3559   2.538   2.101   2.275
 1142SOL     OW 3560   2.576   3.318   2.336
 1142SOL    HW1 3561   2.566   3.413   2.343
 1142SOL    HW2 3562   2.611   3.291   2.420
 1143SOL     OW 3563   2.382   1.829   1.095
 1143SOL    HW1 3564   2.331   1.781   1.030
 1143SOL    HW2 3565   2.436   1.762   1.138
 1144SOL     OW 3566   1.497   2.374   1.072
 1144SOL    HW1 3567   1.540   2.357   0.988
 1144SOL    HW2 3568   1.567   2.400   1.131
 1145SOL     OW 3569   2.930   1.218   3.221
 1145SOL    HW1 3570   3.024   1.216   3.205
 1145SOL    HW2 3571   2.892   1.172   3.147
 1146SOL     OW 3572   2.954   2.741   3.022
 1146SOL    HW1 3573   2.869   2.734   2.980
 1146SOL    HW2 3574   2.998   2.812   2.975
 1147SOL     OW 3575   3.319   1.775   1.604
 1147SOL    HW1 3576   3.334   1.829   1.527
 1147SOL    HW2 3577   3.228   1.746   1.596
 1148SOL     OW 3578   0.368   2.233   1.540
 1148SOL    HW1 3579   0.374   2.318   1.583
 1148SOL    HW2 3580   0.292   2.240   1.483
 1149SOL     OW 3581   0.712   3.790   3.098
 1149SOL    HW1 3582   0.710   3.854   3.169
 1149SOL    HW2 3583   0.668   3.712   3.134
 1150SOL     OW 3584   1.104   1.476   1.542
 1150SOL    HW1 3585   1.163   1.413   1.583
 1150SOL    HW2 3586   1.151   1.506   1.464
 1151SOL     OW 3587   0.956   3.721   1.444
 1151SOL    HW1 3588   0.898   3.792   1.472
 1151SOL    HW2 3589   1.020   3.763   1.387
 1152SOL     OW 3590   3.057   3.162   0.124
 1152SOL    HW1 3591   3.095   3.147   0.210
 1152SOL    HW2 3592   2.973   3.116   0.127
 1153SOL     OW 3593   1.187   1.070   3.861
 1153SOL    HW1 3594   1.214   1.150   3.817
 1153SOL    HW2 3595   1.181   1.094   3.953
 1154SOL     OW 3596   1.331   3.849   1.925
 1154SOL    HW1 3597   1.417   3.811   1.909
 1154SOL    HW2 3598   1.269   3.780   1.901
 1155SOL     OW 3599   2.558   0.877   1.700
 1155SOL    HW1 3600   2.509   0.799   1.673
 1155SOL    HW2 3601   2.629   0.842   1.754
 1156SOL     OW 3602   1.563   0.083   2.311
 1156SOL    HW1 3603   1.573   0.037   2.228
 1156SOL    HW2 3604   1.569   0.014   2.377
 1157SOL     OW 3605   2.993   0.128   1.915
 1157SOL    HW1 3606   3.014   0.171   1.832
 1157SOL    HW2 3607   3.076   0.092   1.946
 1158SOL     OW 3608   0.220   2.462   0.385
 1158SOL    HW1 3609   0.177   2.500   0.308
 1158SOL    HW2 3610   0.296   2.519   0.400
 1159SOL     OW 3611   1.293   2.261   2.981
 1159SOL    HW1 3612   1.219   2.271   3.042
 1159SOL    HW2 3613   1.332   2.177   3.005
 1160SOL     OW 3614   3.449   3.082   1.016
 1160SOL    HW1 3615   3.424   3.059   0.927
 1160SOL    HW2 3616   3.443   3.178   1.019
 1161SOL     OW 3617   1.916   3.793   0.857
 1161SOL    HW1 3618   1.979   3.862   0.838
 1161SOL    HW2 3619   1.854   3.797   0.784
 1162SOL     OW 3620   2.125   2.813   3.224
 1162SOL    HW1 3621   2.080   2.775   3.300
 1162SOL    HW2 3622   2.083   2.773   3.148
 1163SOL     OW 3623   3.736   1.495   3.148
 1163SOL    HW1 3624   3.742   1.497   3.053
 1163SOL    HW2 3625   3.689   1.575   3.171
 1164SOL     OW 3626   1.081   1.838   1.467
 1164SOL    HW1 3627   1.035   1.777   1.524
 1164SOL    HW2 3628   1.058   1.925   1.500
 1165SOL     OW 3629   1.931   2.608   2.450
 1165SOL    HW1 3630   2.011   2.594   2.400
 1165SOL    HW2 3631   1.865   2.552   2.408
 1166SOL     OW 3632   0.873   3.279   0.094
 1166SOL    HW1 3633   0.899   3.232   0.173
 1166SOL    HW2 3634   0.872   3.371   0.119
 1167SOL     OW 3635   0.430   0.771   1.760
 1167SOL    HW1 3636   0.513   0.818   1.771
 1167SOL    HW2 3637   0.432   0.739   1.669
 1168SOL     OW 3638   0.294   0.298   3.881
 1168SOL    HW1 3639   0.312   0.310   3.788
 1168SOL    HW2 3640   0.286   0.386   3.916
 1169SOL     OW 3641   2.750   2.158   3.150
 1169SOL    HW1 3642   2.678   2.214   3.122
 1169SOL    HW2 3643   2.742   2.080   3.095
 1170SOL     OW 3644   2.186   3.685   1.837
 1170SOL    HW1 3645   2.134   3.684   1.918
 1170SOL    HW2 3646   2.200   3.592   1.817
 1171SOL     OW 3647   1.572   0.363   2.384
 1171SOL    HW1 3648   1.559   0.278   2.342
 1171SOL    HW2 3649   1.487   0.406   2.377
 1172SOL     OW 3650   0.651   2.708   2.622
 1172SOL    HW1 3651   0.660   2.615   2.601
 1172SOL    HW2 3652   0.679   2.714   2.713
 1173SOL     OW 3653   0.678   1.408   2.002
 1173SOL    HW1 3654   0.700   1.484   1.948
 1173SOL    HW2 3655   0.603   1.368   1.957
 1174SOL     OW 3656   1.553   2.711   1.843
 1174SOL    HW1 3657   1.506   2.629   1.861
 1174SOL    HW2 3658   1.624   2.712   1.906
 1175SOL     OW 3659   2.146   0.582   3.172
 1175SOL    HW1 3660   2.201   0.515   3.133
 1175SOL    HW2 3661   2.060   0.570   3.132
 1176SOL     OW 3662   3.371   0.938   1.849
 1176SOL    HW1 3663   3.336   0.935   1.760
 1176SOL    HW2 3664   3.404   1.028   1.859
 1177SOL     OW 3665   3.565   2.096   0.779
 1177SOL    HW1 3666   3.517   2.075   0.859
 1177SOL    HW2 3667   3.657   2.082   0.802
 1178SOL     OW 3668   3.324   3.238   3.362
 1178SOL    HW1 3669   3.281   3.171   3.309
 1178SOL    HW2 3670   3.313   3.319   3.312
 1179SOL     OW 3671   2.621   2.999   1.507
 1179SOL    HW1 3672   2.537   2.955   1.523
 1179SOL    HW2 3673   2.685   2.927   1.501
 1180SOL     OW 3674   2.023   2.623   1.005
 1180SOL    HW1 3675   2.006   2.651   1.095
 1180SOL    HW2 3676   2.051   2.702   0.960
 1181SOL     OW 3677   1.352   1.726   3.220
 1181SOL    HW1 3678   1.261   1.698   3.216
 1181SOL    HW2 3679   1.357   1.779   3.300
 1182SOL     OW 3680   3.722   0.860   2.415
 1182SOL    HW1 3681   3.768   0.807   2.481
 1182SOL    HW2 3682   3.638   0.880   2.455
 1183SOL     OW 3683   1.644   2.984   1.750
 1183SOL    HW1 3684   1.564   2.995   1.699
 1183SOL    HW2 3685   1.638   2.895   1.785
 1184SOL     OW 3686   1.718   2.856   2.892
 1184SOL    HW1 3687   1.744   2.798   2.821
 1184SOL    HW2 3688   1.631   2.824   2.917
 1185SOL     OW 3689   3.197   2.790   0.761
 1185SOL    HW1 3690   3.231   2.739   0.834
 1185SOL    HW2 3691   3.132   2.733   0.720
 1186SOL     OW 3692   0.022   1.078   2.304
 1186SOL    HW1 3693  -0.044   1.099   2.371
 1186SOL    HW2 3694   0.038   1.161   2.259
 1187SOL     OW 3695   0.370   0.974   2.645
 1187SOL    HW1 3696   0.278   1.000   2.640
 1187SOL    HW2 3697   0.368   0.881   2.668
 1188SOL     OW 3698   0.471   1.436   2.688
 1188SOL    HW1 3699   0.515   1.485   2.619
 1188SOL    HW2 3700   0.378   1.445   2.668
 1189SOL     OW 3701   0.830   2.731   1.323
 1189SOL    HW1 3702   0.831   2.702   1.414
 1189SOL    HW2 3703   0.921   2.722   1.294
 1190SOL     OW 3704   2.754   0.340   1.596
 1190SOL    HW1 3705   2.772   0.402   1.667
 1190SOL    HW2 3706   2.706   0.268   1.639
 1191SOL     OW 3707   0.053   0.091   2.418
 1191SOL    HW1 3708   0.133   0.129   2.455
 1191SOL    HW2 3709  -0.017   0.123   2.474
 1192SOL     OW 3710   0.787   0.889   2.115
 1192SOL    HW1 3711   0.855   0.825   2.136
 1192SOL    HW2 3712   0.800   0.960   2.178
 1193SOL     OW 3713   1.764   2.671   1.415
 1193SOL    HW1 3714   1.850   2.627   1.414
 1193SOL    HW2 3715   1.737   2.672   1.323
 1194SOL     OW 3716   0.877   1.640   3.773
 1194SOL    HW1 3717   0.882   1.735   3.761
 1194SOL    HW2 3718   0.931   1.622   3.849
 1195SOL     OW 3719   0.232   0.816   0.513
 1195SOL    HW1 3720   0.290   0.753   0.556
 1195SOL    HW2 3721   0.175   0.763   0.458
 1196SOL     OW 3722   3.425   2.822   3.251
 1196SOL    HW1 3723   3.332   2.837   3.237
 1196SOL    HW2 3724   3.463   2.910   3.256
 1197SOL     OW 3725   1.168   1.874   1.762
 1197SOL    HW1 3726   1.112   1.952   1.758
 1197SOL    HW2 3727   1.225   1.890   1.837
 1198SOL     OW 3728   1.487   0.743   3.685
 1198SOL    HW1 3729   1.424   0.815   3.684
 1198SOL    HW2 3730   1.438   0.669   3.722
 1199SOL     OW 3731   0.763   0.647   2.875
 1199SOL    HW1 3732   0.686   0.630   2.929
 1199SOL    HW2 3733   0.766   0.575   2.812
 1200SOL     OW 3734   1.964   1.373   0.298
 1200SOL    HW1 3735   1.986   1.287   0.263
 1200SOL    HW2 3736   2.029   1.432   0.259
 1201SOL     OW 3737   3.832   3.454   0.721
 1201SOL    HW1 3738   3.892   3.380   0.711
 1201SOL    HW2 3739   3.831   3.496   0.635
 1202SOL     OW 3740   3.791   3.484   2.110
 1202SOL    HW1 3741   3.713   3.428   2.118
 1202SOL    HW2 3742   3.822   3.495   2.200
 1203SOL     OW 3743   1.875   2.019   3.545
 1203SOL    HW1 3744   1.909   1.991   3.460
 1203SOL    HW2 3745   1.948   2.066   3.586
 1204SOL     OW 3746   0.176   0.995   0.967
 1204SOL    HW1 3747   0.150   1.087   0.970
 1204SOL    HW2 3748   0.187   0.976   0.874
 1205SOL     OW 3749   3.368   1.635   1.990
 1205SOL    HW1 3750   3.346   1.542   1.982
 1205SOL    HW2 3751   3.450   1.644   1.941
 1206SOL     OW 3752   0.009   3.532   3.324
 1206SOL    HW1 3753   0.046   3.487   3.400
 1206SOL    HW2 3754   0.067   3.608   3.311
 1207SOL     OW 3755   2.003   1.582   2.494
 1207SOL    HW1 3756   2.020   1.570   2.400
 1207SOL    HW2 3757   2.090   1.596   2.532
 1208SOL     OW 3758   0.575   0.240   2.601
 1208SOL    HW1 3759   0.592   0.177   2.671
 1208SOL    HW2 3760   0.565   0.187   2.522
 1209SOL     OW 3761   0.212   0.195   3.551
 1209SOL    HW1 3762   0.279   0.133   3.579
 1209SOL    HW2 3763   0.188   0.166   3.463
 1210SOL     OW 3764   2.588   2.737   1.710
 1210SOL    HW1 3765   2.679   2.737   1.740
 1210SOL    HW2 3766   2.594   2.723   1.615
 1211SOL     OW 3767   0.621   0.457   3.580
 1211SOL    HW1 3768   0.713   0.448   3.605
 1211SOL    HW2 3769   0.621   0.449   3.485
 1212SOL     OW 3770   0.163   0.075   3.975
 1212SOL    HW1 3771   0.212   0.154   3.953
 1212SOL    HW2 3772   0.218   0.003   3.943
 1213SOL     OW 3773   3.480   3.763   2.312
 1213SOL    HW1 3774   3.475   3.858   2.326
 1213SOL    HW2 3775   3.562   3.738   2.354
 1214SOL     OW 3776   3.676   3.756   1.681
 1214SOL    HW1 3777   3.647   3.835   1.726
 1214SOL    HW2 3778   3.682   3.689   1.750
 1215SOL     OW 3779   2.754   1.544   0.603
 1215SOL    HW1 3780   2.706   1.582   0.529
 1215SOL    HW2 3781   2.805   1.473   0.565
 1216SOL     OW 3782   3.274   3.441   0.418
 1216SOL    HW1 3783   3.311   3.416   0.502
 1216SOL    HW2 3784   3.260   3.536   0.425
 1217SOL     OW 3785   0.013   1.803   0.778
 1217SOL    HW1 3786  -0.038   1.780   0.856
 1217SOL    HW2 3787   0.087   1.742   0.778
 1218SOL     OW 3788   0.919   1.865   1.203
 1218SOL    HW1 3789   0.903   1.773   1.180
 1218SOL    HW2 3790   1.000   1.863   1.255
 1219SOL     OW 3791   3.339   0.683   2.276
 1219SOL    HW1 3792   3.358   0.764   2.323
 1219SOL    HW2 3793   3.260   0.649   2.318
 1220SOL     OW 3794   2.910   1.792   0.168
 1220SOL    HW1 3795   2.874   1.842   0.241
 1220SOL    HW2 3796   2.952   1.717   0.209
 1221SOL     OW 3797   2.418   1.409   2.136
 1221SOL    HW1 3798   2.484   1.381   2.072
 1221SOL    HW2 3799   2.336   1.371   2.105
 1222SOL     OW 3800   2.266   2.085   1.807
 1222SOL    HW1 3801   2.299   2.146   1.873
 1222SOL    HW2 3802   2.247   2.005   1.856
 1223SOL     OW 3803   3.644   1.870   3.569
 1223SOL    HW1 3804   3.713   1.804   3.577
 1223SOL    HW2 3805   3.621   1.869   3.476
 1224SOL     OW 3806   3.721   1.425   0.338
 1224SOL    HW1 3807   3.780   1.499   0.323
 1224SOL    HW2 3808   3.640   1.464   0.370
 1225SOL     OW 3809   0.591   2.773   2.024
 1225SOL    HW1 3810   0.580   2.850   1.967
 1225SOL    HW2 3811   0.504   2.733   2.027
 1226SOL     OW 3812   3.704   3.058   2.122
 1226SOL    HW1 3813   3.694   3.050   2.217
 1226SOL    HW2 3814   3.617   3.041   2.087
 1227SOL     OW 3815   2.809   2.880   0.324
 1227SOL    HW1 3816   2.816   2.933   0.244
 1227SOL    HW2 3817   2.899   2.872   0.355
 1228SOL     OW 3818   0.759   1.228   3.302
 1228SOL    HW1 3819   0.695   1.249   3.234
 1228SOL    HW2 3820   0.842   1.216   3.255
 1229SOL     OW 3821   0.133   2.283   0.036
 1229SOL    HW1 3822   0.091   2.198   0.027
 1229SOL    HW2 3823   0.074   2.333   0.092
 1230SOL     OW 3824   0.222   3.291   3.248
 1230SOL    HW1 3825   0.240   3.377   3.285
 1230SOL    HW2 3826   0.148   3.258   3.299
 1231SOL     OW 3827   0.411   2.993   1.898
 1231SOL    HW1 3828   0.467   3.071   1.892
 1231SOL    HW2 3829   0.323   3.028   1.912
 1232SOL     OW 3830   3.941   2.520   3.385
 1232SOL    HW1 3831   3.910   2.430   3.399
 1232SOL    HW2 3832   3.955   2.555   3.473
 1233SOL     OW 3833   0.116   0.982   2.581
 1233SOL    HW1 3834   0.048   0.915   2.593
 1233SOL    HW2 3835   0.099   1.018   2.494
 1234SOL     OW 3836   0.342   0.733   2.160
 1234SOL    HW1 3837   0.339   0.820   2.200
 1234SOL    HW2 3838   0.411   0.687   2.209
 1235SOL     OW 3839   0.439   1.915   0.900
 1235SOL    HW1 3840   0.517   1.887   0.852
 1235SOL    HW2 3841   0.384   1.957   0.834
 1236SOL     OW 3842   0.812   3.400   2.775
 1236SOL    HW1 3843   0.832   3.488   2.743
 1236SOL    HW2 3844   0.833   3.404   2.869
 1237SOL     OW 3845   2.227   1.048   2.225
 1237SOL    HW1 3846   2.311   1.041   2.180
 1237SOL    HW2 3847   2.204   0.958   2.247
 1238SOL     OW 3848   2.508   1.442   1.490
 1238SOL    HW1 3849   2.451   1.479   1.422
 1238SOL    HW2 3850   2.582   1.405   1.441
 1239SOL     OW 3851   3.446   3.153   3.933
 1239SOL    HW1 3852   3.363   3.201   3.943
 1239SOL    HW2 3853   3.446   3.123   3.842
 1240SOL     OW 3854   2.624   2.394   2.244
 1240SOL    HW1 3855   2.621   2.457   2.173
 1240SOL    HW2 3856   2.668   2.318   2.207
 1241SOL     OW 3857   2.735   1.080   0.055
 1241SOL    HW1 3858   2.784   1.058   0.134
 1241SOL    HW2 3859   2.721   0.996   0.011
 1242SOL     OW 3860   2.341   0.222   3.803
 1242SOL    HW1 3861   2.367   0.245   3.893
 1242SOL    HW2 3862   2.246   0.227   3.803
 1243SOL     OW 3863   2.961   0.542   2.708
 1243SOL    HW1 3864   2.918   0.457   2.704
 1243SOL    HW2 3865   2.899   0.598   2.756
 1244SOL     OW 3866   1.557   3.563   1.623
 1244SOL    HW1 3867   1.618   3.612   1.679
 1244SOL    HW2 3868   1.590   3.576   1.534
 1245SOL     OW 3869   0.711   2.420   2.599
 1245SOL    HW1 3870   0.760   2.408   2.518
 1245SOL    HW2 3871   0.777   2.413   2.668
 1246SOL     OW 3872   2.673   2.903   3.508
 1246SOL    HW1 3873   2.694   2.996   3.518
 1246SOL    HW2 3874   2.644   2.895   3.417
 1247SOL     OW 3875   2.961   1.879   3.272
 1247SOL    HW1 3876   3.039   1.825   3.280
 1247SOL    HW2 3877   2.890   1.817   3.258
 1248SOL     OW 3878   2.133   2.804   3.795
 1248SOL    HW1 3879   2.170   2.815   3.707
 1248SOL    HW2 3880   2.203   2.763   3.845
 1249SOL     OW 3881   1.371   3.157   1.868
 1249SOL    HW1 3882   1.344   3.165   1.777
 1249SOL    HW2 3883   1.344   3.069   1.894
 1250SOL     OW 3884   1.164   1.905   0.304
 1250SOL    HW1 3885   1.204   1.984   0.340
 1250SOL    HW2 3886   1.070   1.924   0.301
 1251SOL     OW 3887   2.724   3.454   1.574
 1251SOL    HW1 3888   2.719   3.449   1.479
 1251SOL    HW2 3889   2.740   3.546   1.593
 1252SOL     OW 3890   3.849   1.244   0.640
 1252SOL    HW1 3891   3.776   1.287   0.596
 1252SOL    HW2 3892   3.858   1.160   0.596
 1253SOL     OW 3893   1.517   3.670   0.391
 1253SOL    HW1 3894   1.566   3.664   0.308
 1253SOL    HW2 3895   1.545   3.753   0.429
 1254SOL     OW 3896   1.953   0.878   2.020
 1254SOL    HW1 3897   2.034   0.873   1.971
 1254SOL    HW2 3898   1.895   0.814   1.978
 1255SOL     OW 3899   0.775   0.049   2.019
 1255SOL    HW1 3900   0.810   0.016   2.101
 1255SOL    HW2 3901   0.851   0.057   1.961
 1256SOL     OW 3902   1.728   1.083   3.324
 1256SOL    HW1 3903   1.678   1.164   3.332
 1256SOL    HW2 3904   1.699   1.029   3.397
 1257SOL     OW 3905   2.516   2.163   2.750
 1257SOL    HW1 3906   2.430   2.204   2.758
 1257SOL    HW2 3907   2.538   2.170   2.657
 1258SOL     OW 3908  -0.006   2.232   1.606
 1258SOL    HW1 3909   0.035   2.251   1.521
 1258SOL    HW2 3910   0.041   2.288   1.668
 1259SOL     OW 3911   1.801   1.001   3.634
 1259SOL    HW1 3912   1.868   1.049   3.683
 1259SOL    HW2 3913   1.794   0.917   3.678
 1260SOL     OW 3914   0.964   0.290   2.055
 1260SOL    HW1 3915   0.977   0.279   1.961
 1260SOL    HW2 3916   1.041   0.338   2.084
 1261SOL     OW 3917   1.118   0.147   3.500
 1261SOL    HW1 3918   1.132   0.139   3.595
 1261SOL    HW2 3919   1.101   0.058   3.471
 1262SOL     OW 3920   2.331   2.332   0.357
 1262SOL    HW1 3921   2.401   2.269   0.338
 1262SOL    HW2 3922   2.377   2.406   0.396
 1263SOL     OW 3923   3.397   1.434   2.997
 1263SOL    HW1 3924   3.493   1.432   2.989
 1263SOL    HW2 3925   3.370   1.504   2.937
 1264SOL     OW 3926   2.497   2.076   3.320
 1264SOL    HW1 3927   2.575   2.110   3.363
 1264SOL    HW2 3928   2.531   2.026   3.246
 1265SOL     OW 3929   1.358   0.081   0.232
 1265SOL    HW1 3930   1.274   0.091   0.188
 1265SOL    HW2 3931   1.380   0.168   0.263
 1266SOL     OW 3932   0.952   0.744   0.617
 1266SOL    HW1 3933   0.966   0.781   0.704
 1266SOL    HW2 3934   0.872   0.786   0.585
 1267SOL     OW 3935   1.999   1.192   2.248
 1267SOL    HW1 3936   2.075   1.135   2.239
 1267SOL    HW2 3937   1.979   1.221   2.159
 1268SOL     OW 3938   2.336   3.794   0.452
 1268SOL    HW1 3939   2.361   3.818   0.541
 1268SOL    HW2 3940   2.416   3.760   0.413
 1269SOL     OW 3941   2.091   3.206   2.089
 1269SOL    HW1 3942   2.013   3.151   2.086
 1269SOL    HW2 3943   2.152   3.160   2.146
 1270SOL     OW 3944   0.057   1.014   1.671
 1270SOL    HW1 3945   0.108   0.991   1.749
 1270SOL    HW2 3946   0.110   1.079   1.625
 1271SOL     OW 3947   2.553   1.788   1.691
 1271SOL    HW1 3948   2.575   1.819   1.779
 1271SOL    HW2 3949   2.521   1.699   1.705
 1272SOL     OW 3950   0.783   3.914   0.873
 1272SOL    HW1 3951   0.747   4.002   0.869
 1272SOL    HW2 3952   0.794   3.897   0.967
 1273SOL     OW 3953   0.029   3.124   3.648
 1273SOL    HW1 3954  -0.057   3.096   3.680
 1273SOL    HW2 3955   0.067   3.175   3.719
 1274SOL     OW 3956   3.203   3.144   3.113
 1274SOL    HW1 3957   3.202   3.234   3.080
 1274SOL    HW2 3958   3.131   3.141   3.176
 1275SOL     OW 3959   0.657   1.039   2.641
 1275SOL    HW1 3960   0.694   0.970   2.586
 1275SOL    HW2 3961   0.573   1.004   2.670
 1276SOL     OW 3962   2.838   1.752   3.875
 1276SOL    HW1 3963   2.856   1.763   3.969
 1276SOL    HW2 3964   2.808   1.838   3.846
 1277SOL     OW 3965   1.973   1.688   2.966
 1277SOL    HW1 3966   1.895   1.744   2.973
 1277SOL    HW2 3967   1.959   1.638   2.885
 1278SOL     OW 3968   3.226   3.893   1.441
 1278SOL    HW1 3969   3.270   3.973   1.413
 1278SOL    HW2 3970   3.276   3.863   1.516
 1279SOL     OW 3971   0.113   0.233   0.946
 1279SOL    HW1 3972   0.204   0.252   0.970
 1279SOL    HW2 3973   0.080   0.180   1.019
 1280SOL     OW 3974   1.029   2.396   1.481
 1280SOL    HW1 3975   1.070   2.483   1.478
 1280SOL    HW2 3976   0.941   2.410   1.445
 1281SOL     OW 3977   1.992   1.228   2.545
 1281SOL    HW1 3978   2.026   1.145   2.512
 1281SOL    HW2 3979   2.017   1.292   2.479
 1282SOL     OW 3980   1.444   3.107   3.170
 1282SOL    HW1 3981   1.516   3.052   3.202
 1282SOL    HW2 3982   1.392   3.126   3.247
 1283SOL     OW 3983   0.123   3.964   0.408
 1283SOL    HW1 3984   0.179   3.926   0.476
 1283SOL    HW2 3985   0.181   3.971   0.331
 1284SOL     OW 3986   0.354   1.709   3.868
 1284SOL    HW1 3987   0.449   1.704   3.880
 1284SOL    HW2 3988   0.327   1.620   3.848
 1285SOL     OW 3989   2.162   0.784   3.539
 1285SOL    HW1 3990   2.118   0.713   3.586
 1285SOL    HW2 3991   2.175   0.852   3.605
 1286SOL     OW 3992   2.118   2.524   3.089
 1286SOL    HW1 3993   2.037   2.520   3.139
 1286SOL    HW2 3994   2.121   2.441   3.041
 1287SOL     OW 3995   0.078   2.698   0.206
 1287SOL    HW1 3996   0.111   2.719   0.293
 1287SOL    HW2 3997   0.051   2.782   0.170
 1288SOL     OW 3998   3.151   1.514   1.129
 1288SOL    HW1 3999   3.069   1.561   1.123
 1288SOL    HW2 4000   3.217   1.581   1.146
 1289SOL     OW 4001   0.510   3.254   1.849
 1289SOL    HW1 4002   0.517   3.302   1.931
 1289SOL    HW2 4003   0.522   3.320   1.781
 1290SOL     OW 4004   1.046   2.972   3.355
 1290SOL    HW1 4005   0.981   2.985   3.286
 1290SOL    HW2 4006   1.029   2.885   3.389
 1291SOL     OW 4007   1.569   3.885   0.213
 1291SOL    HW1 4008   1.632   3.957   0.213
 1291SOL    HW2 4009   1.483   3.927   0.212
 1292SOL     OW 4010   2.633   1.209   0.982
 1292SOL    HW1 4011   2.572   1.281   0.997
 1292SOL    HW2 4012   2.598   1.163   0.905
 1293SOL     OW 4013   2.849   0.422   0.858
 1293SOL    HW1 4014   2.788   0.407   0.785
 1293SOL    HW2 4015   2.839   0.346   0.914
 1294SOL     OW 4016   3.599   0.269   3.244
 1294SOL    HW1 4017   3.688   0.255   3.214
 1294SOL    HW2 4018   3.559   0.183   3.244
 1295SOL     OW 4019   0.577   2.931   3.477
 1295SOL    HW1 4020   0.512   2.883   3.424
 1295SOL    HW2 4021   0.633   2.862   3.513
 1296SOL     OW 4022   2.817   1.523   1.508
 1296SOL    HW1 4023   2.759   1.556   1.440
 1296SOL    HW2 4024   2.785   1.563   1.589
 1297SOL     OW 4025   0.021   2.481   0.571
 1297SOL    HW1 4026   0.099   2.467   0.517
 1297SOL    HW2 4027  -0.031   2.544   0.522
 1298SOL     OW 4028   1.749   1.534   3.907
 1298SOL    HW1 4029   1.655   1.516   3.896
 1298SOL    HW2 4030   1.790   1.448   3.906
 1299SOL     OW 4031   1.683   1.763   0.393
 1299SOL    HW1 4032   1.653   1.719   0.473
 1299SOL    HW2 4033   1.698   1.692   0.331
 1300SOL     OW 4034   1.490   3.497   3.428
 1300SOL    HW1 4035   1.495   3.523   3.520
 1300SOL    HW2 4036   1.582   3.487   3.401
 1301SOL     OW 4037   1.505   1.498   2.222
 1301SOL    HW1 4038   1.558   1.538   2.290
 1301SOL    HW2 4039   1.554   1.422   2.193
 1302SOL     OW 4040   0.420   3.941   3.642
 1302SOL    HW1 4041   0.483   4.011   3.662
 1302SOL    HW2 4042   0.460   3.862   3.679
 1303SOL     OW 4043   0.199   1.626   3.295
 1303SOL    HW1 4044   0.272   1.572   3.262
 1303SOL    HW2 4045   0.135   1.563   3.327
 1304SOL     OW 4046   3.195   0.463   1.745
 1304SOL    HW1 4047   3.288   0.465   1.767
 1304SOL    HW2 4048   3.151   0.449   1.828
 1305SOL     OW 4049   0.357   2.297   2.001
 1305SOL    HW1 4050   0.449   2.285   2.023
 1305SOL    HW2 4051   0.310   2.250   2.070
 1306SOL     OW 4052   1.932   0.401   3.115
 1306SOL    HW1 4053   1.970   0.388   3.028
 1306SOL    HW2 4054   1.906   0.313   3.143
 1307SOL     OW 4055   2.363   3.296   1.612
 1307SOL    HW1 4056   2.430   3.290   1.545
 1307SOL    HW2 4057   2.396   3.243   1.685
 1308SOL     OW 4058   3.878   3.497   1.405
 1308SOL    HW1 4059   3.844   3.436   1.471
 1308SOL    HW2 4060   3.833   3.472   1.324
 1309SOL     OW 4061   3.530   0.797   0.122
 1309SOL    HW1 4062   3.605   0.795   0.063
 1309SOL    HW2 4063   3.486   0.880   0.104
 1310SOL     OW 4064   0.862   0.762   0.284
 1310SOL    HW1 4065   0.946   0.741   0.323
 1310SOL    HW2 4066   0.837   0.845   0.325
 1311SOL     OW 4067   1.572   3.122   2.061
 1311SOL    HW1 4068   1.509   3.149   1.995
 1311SOL    HW2 4069   1.592   3.202   2.109
 1312SOL     OW 4070   3.158   1.410   0.841
 1312SOL    HW1 4071   3.076   1.459   0.828
 1312SOL    HW2 4072   3.198   1.451   0.918
 1313SOL     OW 4073   2.355   0.648   3.739
 1313SOL    HW1 4074   2.348   0.560   3.703
 1313SOL    HW2 4075   2.394   0.700   3.668
 1314SOL     OW 4076   2.918   0.433   1.807
 1314SOL    HW1 4077   2.934   0.498   1.876
 1314SOL    HW2 4078   2.878   0.359   1.853
 1315SOL     OW 4079   3.459   1.498   0.906
 1315SOL    HW1 4080   3.411   1.428   0.863
 1315SOL    HW2 4081   3.532   1.454   0.949
 1316SOL     OW 4082   3.205   0.988   1.621
 1316SOL    HW1 4083   3.198   1.077   1.587
 1316SOL    HW2 4084   3.120   0.949   1.603
 1317SOL     OW 4085   3.963   3.791   0.869
 1317SOL    HW1 4086   3.899   3.835   0.813
 1317SOL    HW2 4087   3.910   3.749   0.937
 1318SOL     OW 4088   3.855   2.982   0.888
 1318SOL    HW1 4089   3.872   3.059   0.943
 1318SOL    HW2 4090   3.792   2.930   0.939
 1319SOL     OW 4091   0.267   1.058   0.676
 1319SOL    HW1 4092   0.262   0.971   0.637
 1319SOL    HW2 4093   0.183   1.099   0.654
 1320SOL     OW 4094   3.501   3.824   0.601
 1320SOL    HW1 4095   3.566   3.849   0.666
 1320SOL    HW2 4096   3.506   3.892   0.534
 1321SOL     OW 4097   2.197   2.956   1.884
 1321SOL    HW1 4098   2.113   2.930   1.921
 1321SOL    HW2 4099   2.239   2.874   1.858
 1322SOL     OW 4100   2.677   1.666   3.478
 1322SOL    HW1 4101   2.609   1.631   3.420
 1322SOL    HW2 4102   2.645   1.753   3.503
 1323SOL     OW 4103   0.931   2.120   0.263
 1323SOL    HW1 4104   0.883   2.072   0.195
 1323SOL    HW2 4105   0.998   2.168   0.215
 1324SOL     OW 4106   2.607   2.497   3.831
 1324SOL    HW1 4107   2.670   2.425   3.829
 1324SOL    HW2 4108   2.620   2.542   3.748
 1325SOL     OW 4109   0.187   3.984   2.907
 1325SOL    HW1 4110   0.176   3.947   2.995
 1325SOL    HW2 4111   0.126   3.935   2.853
 1326SOL     OW 4112   2.175   1.520   1.282
 1326SOL    HW1 4113   2.209   1.508   1.371
 1326SOL    HW2 4114   2.157   1.432   1.251
 1327SOL     OW 4115   1.818   0.995   2.221
 1327SOL    HW1 4116   1.874   0.980   2.144
 1327SOL    HW2 4117   1.851   1.075   2.260
 1328SOL     OW 4118   0.034   1.217   0.911
 1328SOL    HW1 4119   0.000   1.201   0.823
 1328SOL    HW2 4120   0.006   1.306   0.932
 1329SOL     OW 4121   1.375   0.283   0.803
 1329SOL    HW1 4122   1.282   0.295   0.824
 1329SOL    HW2 4123   1.414   0.250   0.883
 1330SOL     OW 4124   0.689   0.870   1.778
 1330SOL    HW1 4125   0.723   0.805   1.718
 1330SOL    HW2 4126   0.696   0.830   1.865
 1331SOL     OW 4127   1.578   3.715   2.915
 1331SOL    HW1 4128   1.631   3.667   2.851
 1331SOL    HW2 4129   1.639   3.736   2.985
 1332SOL     OW 4130   3.596   1.644   1.878
 1332SOL    HW1 4131   3.585   1.584   1.804
 1332SOL    HW2 4132   3.679   1.689   1.861
 1333SOL     OW 4133   2.108   1.889   1.626
 1333SOL    HW1 4134   2.019   1.914   1.648
 1333SOL    HW2 4135   2.161   1.965   1.648
 1334SOL     OW 4136   3.684   3.858   1.412
 1334SOL    HW1 4137   3.780   3.860   1.405
 1334SOL    HW2 4138   3.667   3.832   1.503
 1335SOL     OW 4139   0.190   0.229   3.239
 1335SOL    HW1 4140   0.247   0.153   3.251
 1335SOL    HW2 4141   0.170   0.230   3.145
 1336SOL     OW 4142   1.963   3.348   3.574
 1336SOL    HW1 4143   2.054   3.320   3.568
 1336SOL    HW2 4144   1.945   3.353   3.668
 1337SOL     OW 4145   1.908   0.317   0.559
 1337SOL    HW1 4146   1.816   0.312   0.584
 1337SOL    HW2 4147   1.936   0.226   0.549
 1338SOL     OW 4148   3.812   2.911   3.360
 1338SOL    HW1 4149   3.735   2.962   3.334
 1338SOL    HW2 4150   3.777   2.828   3.392
 1339SOL     OW 4151   0.252   3.474   2.021
 1339SOL    HW1 4152   0.206   3.439   2.097
 1339SOL    HW2 4153   0.197   3.449   1.946
 1340SOL     OW 4154   2.392   1.212   1.347
 1340SOL    HW1 4155   2.386   1.157   1.425
 1340SOL    HW2 4156   2.476   1.189   1.308
 1341SOL     OW 4157   2.948   2.159   2.456
 1341SOL    HW1 4158   2.993   2.229   2.408
 1341SOL    HW2 4159   2.992   2.079   2.429
 1342SOL     OW 4160   2.771   3.876   2.568
 1342SOL    HW1 4161   2.780   3.846   2.477
 1342SOL    HW2 4162   2.685   3.842   2.595
 1343SOL     OW 4163   3.068   1.812   1.878
 1343SOL    HW1 4164   3.152   1.857   1.884
 1343SOL    HW2 4165   3.078   1.752   1.804
 1344SOL     OW 4166   1.274   2.222   2.007
 1344SOL    HW1 4167   1.274   2.148   1.946
 1344SOL    HW2 4168   1.264   2.182   2.093
 1345SOL     OW 4169   0.948   2.096   0.833
 1345SOL    HW1 4170   0.871   2.106   0.889
 1345SOL    HW2 4171   0.956   2.001   0.820
 1346SOL     OW 4172   2.554   1.200   0.407
 1346SOL    HW1 4173   2.487   1.260   0.441
 1346SOL    HW2 4174   2.596   1.248   0.336
 1347SOL     OW 4175   1.030   1.009   2.976
 1347SOL    HW1 4176   1.062   0.969   2.895
 1347SOL    HW2 4177   1.047   0.943   3.043
 1348SOL     OW 4178   2.413   2.931   2.411
 1348SOL    HW1 4179   2.472   2.865   2.447
 1348SOL    HW2 4180   2.365   2.885   2.341
 1349SOL     OW 4181   1.069   2.444   1.091
 1349SOL    HW1 4182   1.028   2.531   1.084
 1349SOL    HW2 4183   1.002   2.389   1.132
 1350SOL     OW 4184   1.992   0.858   0.638
 1350SOL    HW1 4185   2.059   0.920   0.665
 1350SOL    HW2 4186   1.947   0.901   0.565
 1351SOL     OW 4187   0.026   3.129   0.383
 1351SOL    HW1 4188   0.084   3.054   0.396
 1351SOL    HW2 4189   0.034   3.180   0.463
 1352SOL     OW 4190   2.961   1.391   2.694
 1352SOL    HW1 4191   3.044   1.435   2.674
 1352SOL    HW2 4192   2.960   1.383   2.789
 1353SOL     OW 4193   0.411   0.297   0.777
 1353SOL    HW1 4194   0.423   0.337   0.691
 1353SOL    HW2 4195   0.465   0.350   0.835
 1354SOL     OW 4196   2.176   2.609   0.680
 1354SOL    HW1 4197   2.201   2.581   0.592
 1354SOL    HW2 4198   2.148   2.529   0.724
 1355SOL     OW 4199   3.274   1.235   2.162
 1355SOL    HW1 4200   3.356   1.188   2.150
 1355SOL    HW2 4201   3.287   1.287   2.241
 1356SOL     OW 4202   2.165   0.521   1.312
 1356SOL    HW1 4203   2.151   0.607   1.273
 1356SOL    HW2 4204   2.079   0.480   1.313
 1357SOL     OW 4205   1.429   1.478   0.426
 1357SOL    HW1 4206   1.482   1.436   0.359
 1357SOL    HW2 4207   1.486   1.546   0.463
 1358SOL     OW 4208   0.571   1.967   0.529
 1358SOL    HW1 4209   0.545   2.045   0.579
 1358SOL    HW2 4210   0.593   2.001   0.442
 1359SOL     OW 4211   2.040   3.344   0.923
 1359SOL    HW1 4212   2.010   3.422   0.970
 1359SOL    HW2 4213   2.134   3.342   0.938
 1360SOL     OW 4214   3.331   3.551   2.223
 1360SOL    HW1 4215   3.384   3.624   2.253
 1360SOL    HW2 4216   3.255   3.550   2.281
 1361SOL     OW 4217   0.809   3.087   0.612
 1361SOL    HW1 4218   0.800   3.151   0.542
 1361SOL    HW2 4219   0.861   3.131   0.679
 1362SOL     OW 4220   2.217   2.201   3.059
 1362SOL    HW1 4221   2.154   2.148   3.011
 1362SOL    HW2 4222   2.261   2.254   2.992
 1363SOL     OW 4223   3.645   1.212   3.062
 1363SOL    HW1 4224   3.682   1.212   2.973
 1363SOL    HW2 4225   3.680   1.292   3.102
 1364SOL     OW 4226   3.446   0.054   3.252
 1364SOL    HW1 4227   3.372   0.114   3.240
 1364SOL    HW2 4228   3.417  -0.008   3.318
 1365SOL     OW 4229   1.709   1.836   2.348
 1365SOL    HW1 4230   1.730   1.853   2.440
 1365SOL    HW2 4231   1.784   1.870   2.299
 1366SOL     OW 4232   0.616   1.108   1.572
 1366SOL    HW1 4233   0.543   1.047   1.573
 1366SOL    HW2 4234   0.682   1.068   1.629
 1367SOL     OW 4235   3.095   1.927   2.359
 1367SOL    HW1 4236   3.024   1.869   2.385
 1367SOL    HW2 4237   3.129   1.889   2.279
 1368SOL     OW 4238   3.501   0.644   3.812
 1368SOL    HW1 4239   3.569   0.695   3.768
 1368SOL    HW2 4240   3.527   0.643   3.904
 1369SOL     OW 4241   1.360   0.365   1.891
 1369SOL    HW1 4242   1.356   0.415   1.809
 1369SOL    HW2 4243   1.432   0.303   1.878
 1370SOL     OW 4244   1.555   0.984   2.106
 1370SOL    HW1 4245   1.640   1.024   2.122
 1370SOL    HW2 4246   1.535   1.004   2.014
 1371SOL     OW 4247   3.465   3.486   1.574
 1371SOL    HW1 4248   3.393   3.539   1.607
 1371SOL    HW2 4249   3.477   3.515   1.484
 1372SOL     OW 4250   2.738   2.412   0.117
 1372SOL    HW1 4251   2.800   2.482   0.097
 1372SOL    HW2 4252   2.754   2.346   0.050
 1373SOL     OW 4253   3.218   2.061   1.104
 1373SOL    HW1 4254   3.260   1.988   1.059
 1373SOL    HW2 4255   3.126   2.054   1.078
 1374SOL     OW 4256   3.820   0.067   3.784
 1374SOL    HW1 4257   3.810   0.103   3.697
 1374SOL    HW2 4258   3.884  -0.004   3.774
 1375SOL     OW 4259   0.640   3.468   0.575
 1375SOL    HW1 4260   0.672   3.482   0.664
 1375SOL    HW2 4261   0.581   3.543   0.559
 1376SOL     OW 4262   3.693   3.529   0.074
 1376SOL    HW1 4263   3.764   3.512   0.013
 1376SOL    HW2 4264   3.698   3.457   0.137
 1377SOL     OW 4265   0.618   2.106   1.491
 1377SOL    HW1 4266   0.655   2.192   1.470
 1377SOL    HW2 4267   0.526   2.124   1.512
 1378SOL     OW 4268   2.627   0.631   0.069
 1378SOL    HW1 4269   2.661   0.700   0.012
 1378SOL    HW2 4270   2.650   0.660   0.158
 1379SOL     OW 4271   3.173   0.648   3.350
 1379SOL    HW1 4272   3.222   0.573   3.385
 1379SOL    HW2 4273   3.213   0.724   3.393
 1380SOL     OW 4274   1.307   1.992   3.059
 1380SOL    HW1 4275   1.216   1.978   3.083
 1380SOL    HW2 4276   1.356   1.927   3.111
 1381SOL     OW 4277   2.663   3.209   0.869
 1381SOL    HW1 4278   2.704   3.289   0.903
 1381SOL    HW2 4279   2.736   3.150   0.852
 1382SOL     OW 4280   1.239   1.985   1.000
 1382SOL    HW1 4281   1.177   1.969   0.929
 1382SOL    HW2 4282   1.247   1.902   1.045
 1383SOL     OW 4283   1.922   0.415   1.503
 1383SOL    HW1 4284   1.850   0.441   1.562
 1383SOL    HW2 4285   1.895   0.330   1.470
 1384SOL     OW 4286   3.126   1.201   0.247
 1384SOL    HW1 4287   3.074   1.227   0.171
 1384SOL    HW2 4288   3.086   1.119   0.276
 1385SOL     OW 4289   1.965   3.387   3.232
 1385SOL    HW1 4290   2.043   3.358   3.185
 1385SOL    HW2 4291   1.994   3.396   3.323
 1386SOL     OW 4292   0.165   2.210   3.407
 1386SOL    HW1 4293   0.155   2.242   3.497
 1386SOL    HW2 4294   0.132   2.121   3.409
 1387SOL     OW 4295   0.474   0.509   1.921
 1387SOL    HW1 4296   0.432   0.579   1.872
 1387SOL    HW2 4297   0.541   0.553   1.974
 1388SOL     OW 4298   0.666   1.891   3.080
 1388SOL    HW1 4299   0.704   1.921   3.163
 1388SOL    HW2 4300   0.695   1.800   3.072
 1389SOL     OW 4301   0.767   0.475   0.742
 1389SOL    HW1 4302   0.683   0.488   0.786
 1389SOL    HW2 4303   0.768   0.541   0.673
 1390SOL     OW 4304   0.855   1.095   2.287
 1390SOL    HW1 4305   0.795   1.170   2.284
 1390SOL    HW2 4306   0.941   1.134   2.307
 1391SOL     OW 4307   3.010   2.688   1.314
 1391SOL    HW1 4308   3.058   2.736   1.382
 1391SOL    HW2 4309   3.021   2.596   1.336
 1392SOL     OW 4310   3.328   2.916   3.771
 1392SOL    HW1 4311   3.380   2.879   3.700
 1392SOL    HW2 4312   3.382   2.900   3.849
 1393SOL     OW 4313   2.733   1.733   3.161
 1393SOL    HW1 4314   2.645   1.741   3.199
 1393SOL    HW2 4315   2.723   1.766   3.071
 1394SOL     OW 4316   1.560   2.775   0.930
 1394SOL    HW1 4317   1.640   2.826   0.918
 1394SOL    HW2 4318   1.492   2.825   0.884
 1395SOL     OW 4319   2.912   0.829   3.157
 1395SOL    HW1 4320   2.978   0.761   3.166
 1395SOL    HW2 4321   2.850   0.812   3.228
 1396SOL     OW 4322   3.812   1.873   2.948
 1396SOL    HW1 4323   3.720   1.859   2.969
 1396SOL    HW2 4324   3.860   1.831   3.020
 1397SOL     OW 4325   2.954   3.936   3.729
 1397SOL    HW1 4326   2.868   3.976   3.722
 1397SOL    HW2 4327   2.956   3.896   3.816
 1398SOL     OW 4328   2.086   2.139   3.854
 1398SOL    HW1 4329   2.088   2.234   3.846
 1398SOL    HW2 4330   2.033   2.122   3.932
 1399SOL     OW 4331   3.147   1.091   3.830
 1399SOL    HW1 4332   3.085   1.022   3.855
 1399SOL    HW2 4333   3.112   1.170   3.872
 1400SOL     OW 4334   2.297   0.228   2.998
 1400SOL    HW1 4335   2.388   0.249   3.019
 1400SOL    HW2 4336   2.303   0.148   2.947
 1401SOL     OW 4337   3.224   2.478   1.975
 1401SOL    HW1 4338   3.241   2.569   1.953
 1401SOL    HW2 4339   3.129   2.469   1.970
 1402SOL     OW 4340   0.430   1.216   3.653
 1402SOL    HW1 4341   0.488   1.255   3.588
 1402SOL    HW2 4342   0.487   1.161   3.707
 1403SOL     OW 4343   3.492   1.954   1.005
 1403SOL    HW1 4344   3.552   1.890   1.044
 1403SOL    HW2 4345   3.461   1.912   0.925
 1404SOL     OW 4346   1.772   0.433   0.167
 1404SOL    HW1 4347   1.835   0.437   0.238
 1404SOL    HW2 4348   1.710   0.504   0.186
 1405SOL     OW 4349   0.873   0.236   3.329
 1405SOL    HW1 4350   0.901   0.160   3.279
 1405SOL    HW2 4351   0.953   0.269   3.370
 1406SOL     OW 4352   0.494   3.619   1.107
 1406SOL    HW1 4353   0.439   3.600   1.030
 1406SOL    HW2 4354   0.576   3.573   1.089
 1407SOL     OW 4355   3.887   2.096   1.977
 1407SOL    HW1 4356   3.916   2.062   1.892
 1407SOL    HW2 4357   3.933   2.180   1.986
 1408SOL     OW 4358   2.908   0.634   3.818
 1408SOL    HW1 4359   2.937   0.592   3.737
 1408SOL    HW2 4360   2.921   0.567   3.885
 1409SOL     OW 4361   1.522   3.877   2.102
 1409SOL    HW1 4362   1.432   3.889   2.072
 1409SOL    HW2 4363   1.521   3.793   2.148
 1410SOL     OW 4364   0.565   0.564   3.065
 1410SOL    HW1 4365   0.517   0.636   3.106
 1410SOL    HW2 4366   0.619   0.528   3.135
 1411SOL     OW 4367   3.395   2.451   0.158
 1411SOL    HW1 4368   3.320   2.407   0.199
 1411SOL    HW2 4369   3.370   2.543   0.156
 1412SOL     OW 4370   0.863   0.358   2.432
 1412SOL    HW1 4371   0.902   0.277   2.465
 1412SOL    HW2 4372   0.851   0.412   2.510
 1413SOL     OW 4373   2.013   1.323   3.451
 1413SOL    HW1 4374   2.063   1.241   3.452
 1413SOL    HW2 4375   1.981   1.330   3.361
 1414SOL     OW 4376   1.464   3.874   3.721
 1414SOL    HW1 4377   1.519   3.871   3.799
 1414SOL    HW2 4378   1.394   3.811   3.740
 1415SOL     OW 4379   3.649   1.906   2.172
 1415SOL    HW1 4380   3.638   1.821   2.130
 1415SOL    HW2 4381   3.688   1.886   2.257
 1416SOL     OW 4382   2.261   1.898   0.741
 1416SOL    HW1 4383   2.268   1.831   0.808
 1416SOL    HW2 4384   2.200   1.963   0.778
 1417SOL     OW 4385   2.548   3.722   2.627
 1417SOL    HW1 4386   2.489   3.646   2.631
 1417SOL    HW2 4387   2.609   3.700   2.556
 1418SOL     OW 4388   0.378   2.932   0.734
 1418SOL    HW1 4389   0.457   2.973   0.769
 1418SOL    HW2 4390   0.306   2.985   0.771
 1419SOL     OW 4391   0.417   2.526   2.881
 1419SOL    HW1 4392   0.451   2.559   2.964
 1419SOL    HW2 4393   0.323   2.548   2.884
 1420SOL     OW 4394   3.694   0.274   1.148
 1420SOL    HW1 4395   3.761   0.319   1.199
 1420SOL    HW2 4396   3.629   0.247   1.212
 1421SOL     OW 4397   2.349   0.183   0.126
 1421SOL    HW1 4398   2.426   0.147   0.169
 1421SOL    HW2 4399   2.320   0.253   0.184
 1422SOL     OW 4400   3.114   3.391   1.531
 1422SOL    HW1 4401   3.119   3.462   1.596
 1422SOL    HW2 4402   3.038   3.413   1.477
 1423SOL     OW 4403   3.412   3.465   2.975
 1423SOL    HW1 4404   3.478   3.417   2.925
 1423SOL    HW2 4405   3.450   3.552   2.988
 1424SOL     OW 4406   2.516   2.299   1.749
 1424SOL    HW1 4407   2.439   2.273   1.699
 1424SOL    HW2 4408   2.570   2.349   1.688
 1425SOL     OW 4409   2.717   1.011   3.373
 1425SOL    HW1 4410   2.752   1.035   3.288
 1425SOL    HW2 4411   2.622   1.010   3.360
 1426SOL     OW 4412   3.271   2.083   2.601
 1426SOL    HW1 4413   3.327   2.105   2.526
 1426SOL    HW2 4414   3.196   2.142   2.593
 1427SOL     OW 4415   1.017   3.225   1.676
 1427SOL    HW1 4416   1.043   3.308   1.635
 1427SOL    HW2 4417   0.983   3.250   1.762
 1428SOL     OW 4418   2.555   3.276   2.624
 1428SOL    HW1 4419   2.637   3.326   2.630
 1428SOL    HW2 4420   2.581   3.194   2.581
 1429SOL     OW 4421   0.041   3.884   1.782
 1429SOL    HW1 4422  -0.040   3.919   1.819
 1429SOL    HW2 4423   0.054   3.801   1.827
 1430SOL     OW 4424   2.739   3.490   1.288
 1430SOL    HW1 4425   2.825   3.449   1.297
 1430SOL    HW2 4426   2.756   3.573   1.244
 1431SOL     OW 4427   0.846   2.439   0.158
 1431SOL    HW1 4428   0.828   2.395   0.241
 1431SOL    HW2 4429   0.874   2.527   0.183
 1432SOL     OW 4430   1.206   1.655   0.735
 1432SOL    HW1 4431   1.128   1.607   0.764
 1432SOL    HW2 4432   1.173   1.719   0.672
 1433SOL     OW 4433   1.493   2.032   0.910
 1433SOL    HW1 4434   1.414   2.048   0.962
 1433SOL    HW2 4435   1.548   2.108   0.927
 1434SOL     OW 4436   1.105   2.853   2.652
 1434SOL    HW1 4437   1.149   2.937   2.659
 1434SOL    HW2 4438   1.093   2.840   2.558
 1435SOL     OW 4439   0.457   3.929   2.112
 1435SOL    HW1 4440   0.453   3.942   2.018
 1435SOL    HW2 4441   0.518   3.997   2.142
 1436SOL     OW 4442   0.287   2.475   2.464
 1436SOL    HW1 4443   0.362   2.431   2.503
 1436SOL    HW2 4444   0.212   2.447   2.517
 1437SOL     OW 4445   1.979   2.043   1.378
 1437SOL    HW1 4446   1.905   2.042   1.438
 1437SOL    HW2 4447   2.023   1.959   1.393
 1438SOL     OW 4448   3.532   1.789   0.557
 1438SOL    HW1 4449   3.576   1.843   0.492
 1438SOL    HW2 4450   3.502   1.712   0.508
 1439SOL     OW 4451   0.753   0.430   2.705
 1439SOL    HW1 4452   0.818   0.365   2.733
 1439SOL    HW2 4453   0.670   0.383   2.707
 1440SOL     OW 4454   2.589   1.924   3.635
 1440SOL    HW1 4455   2.607   1.976   3.713
 1440SOL    HW2 4456   2.603   1.985   3.562
 1441SOL     OW 4457   2.391   3.478   2.955
 1441SOL    HW1 4458   2.455   3.542   2.988
 1441SOL    HW2 4459   2.334   3.529   2.898
 1442SOL     OW 4460   0.478   0.103   0.973
 1442SOL    HW1 4461   0.438   0.169   0.918
 1442SOL    HW2 4462   0.408   0.040   0.990
 1443SOL     OW 4463   0.709   2.143   1.745
 1443SOL    HW1 4464   0.682   2.099   1.665
 1443SOL    HW2 4465   0.782   2.199   1.718
 1444SOL     OW 4466   0.548   0.065   1.249
 1444SOL    HW1 4467   0.557   0.074   1.154
 1444SOL    HW2 4468   0.465   0.108   1.268
 1445SOL     OW 4469   3.787   1.064   3.684
 1445SOL    HW1 4470   3.820   1.124   3.617
 1445SOL    HW2 4471   3.700   1.098   3.706
 1446SOL     OW 4472   0.347   1.597   1.321
 1446SOL    HW1 4473   0.300   1.680   1.332
 1446SOL    HW2 4474   0.419   1.601   1.384
 1447SOL     OW 4475   2.089   1.002   1.320
 1447SOL    HW1 4476   2.110   0.925   1.268
 1447SOL    HW2 4477   2.022   0.971   1.382
 1448SOL     OW 4478   3.588  -0.008   1.113
 1448SOL    HW1 4479   3.603   0.046   1.036
 1448SOL    HW2 4480   3.609   0.049   1.187
 1449SOL     OW 4481   2.984   3.384   1.270
 1449SOL    HW1 4482   2.967   3.290   1.267
 1449SOL    HW2 4483   3.044   3.400   1.197
 1450SOL     OW 4484   1.101   2.454   1.927
 1450SOL    HW1 4485   1.158   2.387   1.965
 1450SOL    HW2 4486   1.037   2.474   1.995
 1451SOL     OW 4487   2.718   0.913   1.415
 1451SOL    HW1 4488   2.633   0.957   1.405
 1451SOL    HW2 4489   2.695   0.820   1.421
 1452SOL     OW 4490   0.682   0.664   2.368
 1452SOL    HW1 4491   0.610   0.613   2.406
 1452SOL    HW2 4492   0.734   0.600   2.319
 1453SOL     OW 4493   2.427   2.341   0.941
 1453SOL    HW1 4494   2.474   2.353   0.858
 1453SOL    HW2 4495   2.371   2.265   0.927
 1454SOL     OW 4496   0.471   3.354   3.907
 1454SOL    HW1 4497   0.382   3.385   3.894
 1454SOL    HW2 4498   0.472   3.267   3.866
 1455SOL     OW 4499   1.937   2.230   2.593
 1455SOL    HW1 4500   1.926   2.261   2.683
 1455SOL    HW2 4501   1.899   2.142   2.593
 1456SOL     OW 4502   2.336   3.030   0.723
 1456SOL    HW1 4503   2.296   3.077   0.797
 1456SOL    HW2 4504   2.418   2.996   0.758
 1457SOL     OW 4505   2.033   2.515   2.718
 1457SOL    HW1 4506   2.038   2.559   2.633
 1457SOL    HW2 4507   1.939   2.508   2.735
 1458SOL     OW 4508   2.157   3.371   1.825
 1458SOL    HW1 4509   2.162   3.338   1.735
 1458SOL    HW2 4510   2.123   3.298   1.876
 1459SOL     OW 4511   2.488   2.144   3.780
 1459SOL    HW1 4512   2.567   2.177   3.823
 1459SOL    HW2 4513   2.435   2.110   3.851
 1460SOL     OW 4514   3.913   3.160   2.020
 1460SOL    HW1 4515   3.953   3.218   2.085
 1460SOL    HW2 4516   3.824   3.145   2.052
 1461SOL     OW 4517   3.576   1.922   3.302
 1461SOL    HW1 4518   3.481   1.935   3.304
 1461SOL    HW2 4519   3.592   1.876   3.219
 1462SOL     OW 4520   2.651   2.725   1.439
 1462SOL    HW1 4521   2.661   2.633   1.465
 1462SOL    HW2 4522   2.683   2.728   1.349
 1463SOL     OW 4523   3.004   2.286   3.062
 1463SOL    HW1 4524   3.003   2.360   3.001
 1463SOL    HW2 4525   2.913   2.259   3.070
 1464SOL     OW 4526   3.078   2.860   1.829
 1464SOL    HW1 4527   3.143   2.834   1.894
 1464SOL    HW2 4528   3.117   2.934   1.783
 1465SOL     OW 4529   0.030   1.274   2.789
 1465SOL    HW1 4530   0.089   1.205   2.818
 1465SOL    HW2 4531  -0.051   1.228   2.765
 1466SOL     OW 4532   0.874   1.674   1.527
 1466SOL    HW1 4533   0.848   1.644   1.440
 1466SOL    HW2 4534   0.797   1.720   1.560
 1467SOL     OW 4535   3.329   1.919   3.474
 1467SOL    HW1 4536   3.255   1.972   3.505
 1467SOL    HW2 4537   3.382   1.904   3.552
 1468SOL     OW 4538   3.723   3.284   0.458
 1468SOL    HW1 4539   3.734   3.269   0.552
 1468SOL    HW2 4540   3.688   3.373   0.452
 1469SOL     OW 4541   3.898   0.339   0.789
 1469SOL    HW1 4542   3.967   0.302   0.844
 1469SOL    HW2 4543   3.837   0.266   0.776
 1470SOL     OW 4544   2.235   1.966   2.289
 1470SOL    HW1 4545   2.319   1.977   2.244
 1470SOL    HW2 4546   2.258   1.937   2.377
 1471SOL     OW 4547   2.051   0.224   3.827
 1471SOL    HW1 4548   2.040   0.223   3.922
 1471SOL    HW2 4549   2.008   0.144   3.797
 1472SOL     OW 4550   0.128   2.808   1.043
 1472SOL    HW1 4551   0.222   2.818   1.026
 1472SOL    HW2 4552   0.088   2.809   0.956
 1473SOL     OW 4553   1.275   1.124   3.027
 1473SOL    HW1 4554   1.355   1.084   2.993
 1473SOL    HW2 4555   1.215   1.123   2.952
 1474SOL     OW 4556   0.755   3.054   3.764
 1474SOL    HW1 4557   0.800   3.097   3.691
 1474SOL    HW2 4558   0.812   3.069   3.840
 1475SOL     OW 4559   1.342   2.342   0.635
 1475SOL    HW1 4560   1.282   2.291   0.689
 1475SOL    HW2 4561   1.394   2.392   0.697
 1476SOL     OW 4562   1.639   3.457   3.784
 1476SOL    HW1 4563   1.626   3.374   3.738
 1476SOL    HW2 4564   1.586   3.450   3.863
 1477SOL     OW 4565   1.765   0.846   3.108
 1477SOL    HW1 4566   1.803   0.787   3.173
 1477SOL    HW2 4567   1.763   0.932   3.152
 1478SOL     OW 4568   1.711   0.554   1.619
 1478SOL    HW1 4569   1.668   0.550   1.704
 1478SOL    HW2 4570   1.698   0.645   1.590
 1479SOL     OW 4571   3.397   0.911   0.918
 1479SOL    HW1 4572   3.315   0.889   0.962
 1479SOL    HW2 4573   3.465   0.882   0.979
 1480SOL     OW 4574   3.574   1.363   2.682
 1480SOL    HW1 4575   3.536   1.451   2.675
 1480SOL    HW2 4576   3.589   1.337   2.592
 1481SOL     OW 4577   3.099   2.678   2.425
 1481SOL    HW1 4578   3.153   2.639   2.356
 1481SOL    HW2 4579   3.080   2.767   2.393
 1482SOL     OW 4580   0.077   1.790   0.499
 1482SOL    HW1 4581   0.042   1.787   0.588
 1482SOL    HW2 4582   0.005   1.759   0.444
 1483SOL     OW 4583   2.615   0.136   0.241
 1483SOL    HW1 4584   2.697   0.121   0.289
 1483SOL    HW2 4585   2.632   0.214   0.189
 1484SOL     OW 4586   3.556   0.916   2.813
 1484SOL    HW1 4587   3.616   0.852   2.852
 1484SOL    HW2 4588   3.551   0.892   2.721
 1485SOL     OW 4589   2.380   0.631   1.697
 1485SOL    HW1 4590   2.366   0.578   1.775
 1485SOL    HW2 4591   2.413   0.569   1.632
 1486SOL     OW 4592   0.876   2.744   0.126
 1486SOL    HW1 4593   0.938   2.817   0.119
 1486SOL    HW2 4594   0.793   2.787   0.148
 1487SOL     OW 4595   1.644   3.751   2.343
 1487SOL    HW1 4596   1.616   3.767   2.433
 1487SOL    HW2 4597   1.622   3.659   2.327
 1488SOL     OW 4598   1.765   0.574   1.298
 1488SOL    HW1 4599   1.824   0.530   1.360
 1488SOL    HW2 4600   1.740   0.655   1.342
 1489SOL     OW 4601   3.195   2.441   3.774
 1489SOL    HW1 4602   3.180   2.385   3.698
 1489SOL    HW2 4603   3.288   2.463   3.770
 1490SOL     OW 4604   2.456   2.530   0.473
 1490SOL    HW1 4605   2.502   2.528   0.557
 1490SOL    HW2 4606   2.497   2.603   0.425
 1491SOL     OW 4607   3.659   2.939   2.810
 1491SOL    HW1 4608   3.704   2.949   2.894
 1491SOL    HW2 4609   3.695   2.859   2.773
 1492SOL     OW 4610   0.984   1.798   2.904
 1492SOL    HW1 4611   0.924   1.724   2.912
 1492SOL    HW2 4612   0.994   1.831   2.993
 1493SOL     OW 4613   3.852   2.029   3.304
 1493SOL    HW1 4614   3.785   1.962   3.288
 1493SOL    HW2 4615   3.811   2.090   3.365
 1494SOL     OW 4616   1.060   0.576   0.443
 1494SOL    HW1 4617   1.125   0.534   0.499
 1494SOL    HW2 4618   1.006   0.627   0.503
 1495SOL     OW 4619   1.624   3.889   1.715
 1495SOL    HW1 4620   1.686   3.948   1.672
 1495SOL    HW2 4621   1.543   3.940   1.723
 1496SOL     OW 4622   3.951   1.674   1.733
 1496SOL    HW1 4623   3.964   1.662   1.827
 1496SOL    HW2 4624   3.936   1.768   1.723
 1497SOL     OW 4625   3.323   0.336   2.699
 1497SOL    HW1 4626   3.269   0.291   2.635
 1497SOL    HW2 4627   3.261   0.369   2.765
 1498SOL     OW 4628   1.107   2.144   1.215
 1498SOL    HW1 4629   1.132   2.110   1.129
 1498SOL    HW2 4630   1.143   2.232   1.218
 1499SOL     OW 4631   3.409   1.140   0.295
 1499SOL    HW1 4632   3.401   1.046   0.282
 1499SOL    HW2 4633   3.319   1.171   0.303
 1500SOL     OW 4634   1.118   2.726   2.138
 1500SOL    HW1 4635   1.092   2.781   2.064
 1500SOL    HW2 4636   1.197   2.682   2.109
 1501SOL     OW 4637   3.201   3.161   2.337
 1501SOL    HW1 4638   3.291   3.185   2.359
 1501SOL    HW2 4639   3.172   3.231   2.278
 1502SOL     OW 4640   3.451   2.760   3.577
 1502SOL    HW1 4641   3.400   2.713   3.511
 1502SOL    HW2 4642   3.526   2.795   3.530
 1503SOL     OW 4643   3.103   1.591   0.166
 1503SOL    HW1 4644   3.184   1.538   0.168
 1503SOL    HW2 4645   3.037   1.535   0.207
 1504SOL     OW 4646   0.657   2.395   3.727
 1504SOL    HW1 4647   0.573   2.389   3.682
 1504SOL    HW2 4648   0.647   2.469   3.786
 1505SOL     OW 4649   1.950   0.968   3.938
 1505SOL    HW1 4650   1.891   0.907   3.894
 1505SOL    HW2 4651   1.994   0.915   4.005
 1506SOL     OW 4652   1.201   2.917   0.992
 1506SOL    HW1 4653   1.177   2.993   1.044
 1506SOL    HW2 4654   1.254   2.953   0.921
 1507SOL     OW 4655   3.319   1.982   1.360
 1507SOL    HW1 4656   3.326   2.052   1.426
 1507SOL    HW2 4657   3.280   2.025   1.284
 1508SOL     OW 4658   1.164   1.412   0.296
 1508SOL    HW1 4659   1.102   1.408   0.369
 1508SOL    HW2 4660   1.250   1.413   0.338
 1509SOL     OW 4661   3.382   0.333   1.989
 1509SOL    HW1 4662   3.390   0.426   1.965
 1509SOL    HW2 4663   3.294   0.325   2.025
 1510SOL     OW 4664   2.576   2.310   3.025
 1510SOL    HW1 4665   2.550   2.385   3.078
 1510SOL    HW2 4666   2.503   2.296   2.965
 1511SOL     OW 4667   1.381   3.519   2.938
 1511SOL    HW1 4668   1.473   3.541   2.943
 1511SOL    HW2 4669   1.380   3.428   2.908
 1512SOL     OW 4670   2.980   2.598   2.167
 1512SOL    HW1 4671   2.894   2.602   2.125
 1512SOL    HW2 4672   3.011   2.689   2.168
 1513SOL     OW 4673   3.336   3.832   1.690
 1513SOL    HW1 4674   3.427   3.803   1.696
 1513SOL    HW2 4675   3.319   3.875   1.774
 1514SOL     OW 4676   1.851   1.399   3.257
 1514SOL    HW1 4677   1.872   1.492   3.262
 1514SOL    HW2 4678   1.758   1.396   3.234
 1515SOL     OW 4679   1.802   3.305   0.688
 1515SOL    HW1 4680   1.828   3.365   0.757
 1515SOL    HW2 4681   1.724   3.344   0.649
 1516SOL     OW 4682   3.899   1.288   3.541
 1516SOL    HW1 4683   3.964   1.219   3.552
 1516SOL    HW2 4684   3.903   1.311   3.448
 1517SOL     OW 4685   2.077   1.679   1.860
 1517SOL    HW1 4686   2.164   1.662   1.895
 1517SOL    HW2 4687   2.091   1.748   1.795
 1518SOL     OW 4688   1.870   1.576   0.631
 1518SOL    HW1 4689   1.871   1.670   0.615
 1518SOL    HW2 4690   1.913   1.566   0.717
 1519SOL     OW 4691   3.150   2.207   3.603
 1519SOL    HW1 4692   3.131   2.179   3.514
 1519SOL    HW2 4693   3.133   2.129   3.657
 1520SOL     OW 4694   2.495   3.618   2.328
 1520SOL    HW1 4695   2.497   3.711   2.351
 1520SOL    HW2 4696   2.411   3.606   2.284
 1521SOL     OW 4697   2.839   0.334   3.443
 1521SOL    HW1 4698   2.764   0.286   3.408
 1521SOL    HW2 4699   2.881   0.273   3.503
 1522SOL     OW 4700   0.963   1.820   3.433
 1522SOL    HW1 4701   0.912   1.746   3.399
 1522SOL    HW2 4702   0.921   1.841   3.516
 1523SOL     OW 4703   0.074   0.394   3.629
 1523SOL    HW1 4704  -0.017   0.366   3.643
 1523SOL    HW2 4705   0.121   0.314   3.606
 1524SOL     OW 4706   0.961   2.410   2.759
 1524SOL    HW1 4707   1.018   2.447   2.691
 1524SOL    HW2 4708   1.000   2.325   2.779
 1525SOL     OW 4709   2.060   1.708   0.350
 1525SOL    HW1 4710   1.983   1.673   0.304
 1525SOL    HW2 4711   2.040   1.696   0.443
 1526SOL     OW 4712   2.591   0.243   2.403
 1526SOL    HW1 4713   2.542   0.316   2.367
 1526SOL    HW2 4714   2.657   0.283   2.459
 1527SOL     OW 4715   2.276   1.277   0.724
 1527SOL    HW1 4716   2.359   1.230   0.719
 1527SOL    HW2 4717   2.242   1.276   0.635
 1528SOL     OW 4718   3.231   1.290   1.544
 1528SOL    HW1 4719   3.317   1.276   1.583
 1528SOL    HW2 4720   3.247   1.347   1.469
 1529SOL     OW 4721   0.369   0.068   0.618
 1529SOL    HW1 4722   0.389   0.140   0.678
 1529SOL    HW2 4723   0.367   0.109   0.532
 1530SOL     OW 4724   2.734   3.178   3.576
 1530SOL    HW1 4725   2.683   3.223   3.510
 1530SOL    HW2 4726   2.825   3.195   3.552
 1531SOL     OW 4727   1.067   3.766   3.330
 1531SOL    HW1 4728   1.056   3.680   3.290
 1531SOL    HW2 4729   1.162   3.780   3.330
 1532SOL     OW 4730   2.956   3.837   0.062
 1532SOL    HW1 4731   2.899   3.906   0.098
 1532SOL    HW2 4732   3.033   3.838   0.118
 1533SOL     OW 4733   3.542   3.645   1.343
 1533SOL    HW1 4734   3.568   3.734   1.369
 1533SOL    HW2 4735   3.479   3.658   1.272
 1534SOL     OW 4736   3.311   0.214   1.472
 1534SOL    HW1 4737   3.405   0.202   1.456
 1534SOL    HW2 4738   3.282   0.269   1.398
 1535SOL     OW 4739   3.923   0.815   1.517
 1535SOL    HW1 4740   3.901   0.754   1.587
 1535SOL    HW2 4741   3.956   0.893   1.562
 1536SOL     OW 4742   0.377   0.039   3.227
 1536SOL    HW1 4743   0.426   0.071   3.302
 1536SOL    HW2 4744   0.433  -0.028   3.188
 1537SOL     OW 4745   0.112   2.989   1.893
 1537SOL    HW1 4746   0.060   2.909   1.881
 1537SOL    HW2 4747   0.052   3.051   1.932
 1538SOL     OW 4748   0.891   0.446   3.618
 1538SOL    HW1 4749   0.986   0.451   3.611
 1538SOL    HW2 4750   0.863   0.400   3.539
 1539SOL     OW 4751   0.973   0.127   2.503
 1539SOL    HW1 4752   0.884   0.099   2.481
 1539SOL    HW2 4753   1.026   0.049   2.488
 1540SOL     OW 4754   0.176   2.796   0.450
 1540SOL    HW1 4755   0.227   2.743   0.512
 1540SOL    HW2 4756   0.114   2.844   0.505
 1541SOL     OW 4757   1.120   0.745   3.888
 1541SOL    HW1 4758   1.174   0.672   3.857
 1541SOL    HW2 4759   1.043   0.703   3.925
 1542SOL     OW 4760   2.551   0.133   3.335
 1542SOL    HW1 4761   2.571   0.042   3.357
 1542SOL    HW2 4762   2.522   0.172   3.418
 1543SOL     OW 4763   0.449   3.117   3.744
 1543SOL    HW1 4764   0.396   3.062   3.686
 1543SOL    HW2 4765   0.530   3.067   3.754
 1544SOL     OW 4766   2.833   0.598   1.057
 1544SOL    HW1 4767   2.812   0.521   1.005
 1544SOL    HW2 4768   2.812   0.573   1.147
 1545SOL     OW 4769   0.930   1.391   2.878
 1545SOL    HW1 4770   0.914   1.317   2.819
 1545SOL    HW2 4771   0.968   1.351   2.957
 1546SOL     OW 4772   2.112   0.064   3.137
 1546SOL    HW1 4773   2.176   0.123   3.098
 1546SOL    HW2 4774   2.158  -0.019   3.146
 1547SOL     OW 4775   1.473   0.855   3.361
 1547SOL    HW1 4776   1.477   0.849   3.457
 1547SOL    HW2 4777   1.402   0.916   3.344
 1548SOL     OW 4778   1.128   0.434   0.053
 1548SOL    HW1 4779   1.056   0.493   0.030
 1548SOL    HW2 4780   1.176   0.479   0.122
 1549SOL     OW 4781   0.488   0.059   3.997
 1549SOL    HW1 4782   0.445   0.107   3.926
 1549SOL    HW2 4783   0.567   0.023   3.957
 1550SOL     OW 4784   1.431   2.924   2.751
 1550SOL    HW1 4785   1.414   2.880   2.667
 1550SOL    HW2 4786   1.445   2.852   2.812
 1551SOL     OW 4787   3.391   0.005   3.527
 1551SOL    HW1 4788   3.455   0.070   3.555
 1551SOL    HW2 4789   3.380  -0.052   3.603
 1552SOL     OW 4790   0.584   2.372   2.306
 1552SOL    HW1 4791   0.503   2.323   2.310
 1552SOL    HW2 4792   0.565   2.447   2.249
 1553SOL     OW 4793   3.844   1.671   3.521
 1553SOL    HW1 4794   3.874   1.691   3.432
 1553SOL    HW2 4795   3.915   1.618   3.558
 1554SOL     OW 4796   0.071   2.629   3.869
 1554SOL    HW1 4797  -0.013   2.651   3.910
 1554SOL    HW2 4798   0.130   2.700   3.895
 1555SOL     OW 4799   2.532   1.864   1.406
 1555SOL    HW1 4800   2.442   1.888   1.387
 1555SOL    HW2 4801   2.530   1.832   1.497
 1556SOL     OW 4802   3.254   3.786   2.818
 1556SOL    HW1 4803   3.276   3.703   2.860
 1556SOL    HW2 4804   3.335   3.838   2.822
 1557SOL     OW 4805   1.131   2.245   0.124
 1557SOL    HW1 4806   1.149   2.325   0.075
 1557SOL    HW2 4807   1.189   2.250   0.200
 1558SOL     OW 4808   0.041   2.015   3.906
 1558SOL    HW1 4809   0.081   1.976   3.828
 1558SOL    HW2 4810   0.083   1.969   3.979
 1559SOL     OW 4811   1.766   1.144   1.428
 1559SOL    HW1 4812   1.817   1.066   1.406
 1559SOL    HW2 4813   1.718   1.165   1.349
 1560SOL     OW 4814   1.128   0.254   0.413
 1560SOL    HW1 4815   1.150   0.337   0.455
 1560SOL    HW2 4816   1.211   0.208   0.405
 1561SOL     OW 4817   1.192   3.493   0.947
 1561SOL    HW1 4818   1.220   3.526   0.862
 1561SOL    HW2 4819   1.255   3.529   1.010
 1562SOL     OW 4820   2.317   1.569   0.635
 1562SOL    HW1 4821   2.343   1.478   0.619
 1562SOL    HW2 4822   2.233   1.578   0.590
 1563SOL     OW 4823   2.053   2.333   2.156
 1563SOL    HW1 4824   2.001   2.344   2.077
 1563SOL    HW2 4825   1.993   2.289   2.217
 1564SOL     OW 4826   3.334   3.230   1.488
 1564SOL    HW1 4827   3.412   3.282   1.504
 1564SOL    HW2 4828   3.263   3.293   1.481
 1565SOL     OW 4829   1.798   1.801   1.988
 1565SOL    HW1 4830   1.711   1.841   1.991
 1565SOL    HW2 4831   1.858   1.871   2.013
 1566SOL     OW 4832   2.158   1.030   0.806
 1566SOL    HW1 4833   2.211   0.953   0.827
 1566SOL    HW2 4834   2.219   1.103   0.811
 1567SOL     OW 4835   0.072   0.685   0.340
 1567SOL    HW1 4836   0.007   0.727   0.284
 1567SOL    HW2 4837   0.034   0.600   0.362
 1568SOL     OW 4838   3.160   0.208   2.518
 1568SOL    HW1 4839   3.075   0.199   2.474
 1568SOL    HW2 4840   3.215   0.142   2.477
 1569SOL     OW 4841   1.213   3.364   1.994
 1569SOL    HW1 4842   1.150   3.299   2.025
 1569SOL    HW2 4843   1.281   3.312   1.951
 1570SOL     OW 4844   2.914   2.940   1.516
 1570SOL    HW1 4845   2.896   2.872   1.581
 1570SOL    HW2 4846   2.975   2.999   1.560
 1571SOL     OW 4847   2.162   1.495   1.568
 1571SOL    HW1 4848   2.207   1.515   1.649
 1571SOL    HW2 4849   2.113   1.415   1.586
 1572SOL     OW 4850   0.275   2.458   3.864
 1572SOL    HW1 4851   0.207   2.526   3.864
 1572SOL    HW2 4852   0.233   2.383   3.905
 1573SOL     OW 4853   3.191   1.262   3.123
 1573SOL    HW1 4854   3.251   1.323   3.165
 1573SOL    HW2 4855   3.175   1.300   3.037
 1574SOL     OW 4856   3.749   0.057   3.474
 1574SOL    HW1 4857   3.693   0.050   3.396
 1574SOL    HW2 4858   3.798   0.138   3.460
 1575SOL     OW 4859   2.180   1.258   1.177
 1575SOL    HW1 4860   2.140   1.172   1.191
 1575SOL    HW2 4861   2.258   1.258   1.232
 1576SOL     OW 4862   2.532   2.644   2.102
 1576SOL    HW1 4863   2.452   2.591   2.104
 1576SOL    HW2 4864   2.502   2.734   2.093
 1577SOL     OW 4865   3.028   0.052   0.746
 1577SOL    HW1 4866   3.052  -0.031   0.787
 1577SOL    HW2 4867   2.984   0.026   0.665
 1578SOL     OW 4868   1.262   2.378   2.532
 1578SOL    HW1 4869   1.173   2.410   2.519
 1578SOL    HW2 4870   1.257   2.284   2.514
 1579SOL     OW 4871   2.641   3.658   0.361
 1579SOL    HW1 4872   2.712   3.595   0.346
 1579SOL    HW2 4873   2.643   3.715   0.284
 1580SOL     OW 4874   1.320   1.268   2.219
 1580SOL    HW1 4875   1.341   1.345   2.165
 1580SOL    HW2 4876   1.396   1.259   2.277
 1581SOL     OW 4877   3.326   2.361   3.403
 1581SOL    HW1 4878   3.313   2.290   3.466
 1581SOL    HW2 4879   3.291   2.439   3.446
 1582SOL     OW 4880   3.056   0.977   3.416
 1582SOL    HW1 4881   2.974   1.016   3.387
 1582SOL    HW2 4882   3.031   0.910   3.479
 1583SOL     OW 4883   3.206   0.453   0.064
 1583SOL    HW1 4884   3.252   0.397   0.126
 1583SOL    HW2 4885   3.228   0.542   0.092
 1584SOL     OW 4886   2.339   0.514   2.733
 1584SOL    HW1 4887   2.428   0.510   2.767
 1584SOL    HW2 4888   2.300   0.430   2.755
 1585SOL     OW 4889   1.092   2.864   2.372
 1585SOL    HW1 4890   1.020   2.922   2.347
 1585SOL    HW2 4891   1.105   2.808   2.295
 1586SOL     OW 4892   0.032   2.137   2.817
 1586SOL    HW1 4893   0.112   2.166   2.773
 1586SOL    HW2 4894   0.062   2.108   2.904
 1587SOL     OW 4895   3.512   1.544   3.511
 1587SOL    HW1 4896   3.529   1.454   3.541
 1587SOL    HW2 4897   3.479   1.589   3.588
 1588SOL     OW 4898   0.874   2.860   2.770
 1588SOL    HW1 4899   0.894   2.946   2.807
 1588SOL    HW2 4900   0.951   2.839   2.717
 1589SOL     OW 4901   3.676   0.792   0.784
 1589SOL    HW1 4902   3.724   0.750   0.713
 1589SOL    HW2 4903   3.585   0.792   0.755
 1590SOL     OW 4904   1.509   1.287   0.028
 1590SOL    HW1 4905   1.541   1.305   0.117
 1590SOL    HW2 4906   1.456   1.364   0.006
 1591SOL     OW 4907   1.762   0.648   2.552
 1591SOL    HW1 4908   1.772   0.694   2.635
 1591SOL    HW2 4909   1.793   0.711   2.486
 1592SOL     OW 4910   2.338   0.440   1.035
 1592SOL    HW1 4911   2.244   0.421   1.024
 1592SOL    HW2 4912   2.367   0.379   1.103
 1593SOL     OW 4913   3.090   3.549   2.002
 1593SOL    HW1 4914   3.179   3.577   1.980
 1593SOL    HW2 4915   3.063   3.609   2.072
 1594SOL     OW 4916   1.142   2.681   3.525
 1594SOL    HW1 4917   1.079   2.702   3.456
 1594SOL    HW2 4918   1.088   2.665   3.603
 1595SOL     OW 4919   3.690   2.152   2.883
 1595SOL    HW1 4920   3.677   2.093   2.809
 1595SOL    HW2 4921   3.758   2.111   2.935
 1596SOL     OW 4922   0.169   2.744   2.882
 1596SOL    HW1 4923   0.160   2.752   2.787
 1596SOL    HW2 4924   0.197   2.831   2.911
 1597SOL     OW 4925   0.596   3.050   0.796
 1597SOL    HW1 4926   0.657   3.029   0.725
 1597SOL    HW2 4927   0.653   3.076   0.868
 1598SOL     OW 4928  -0.031   2.555   1.337
 1598SOL    HW1 4929   0.054   2.565   1.294
 1598SOL    HW2 4930  -0.010   2.553   1.431
 1599SOL     OW 4931   1.938   2.700   0.543
 1599SOL    HW1 4932   1.967   2.786   0.514
 1599SOL    HW2 4933   2.013   2.664   0.590
 1600SOL     OW 4934   0.415   1.197   3.338
 1600SOL    HW1 4935   0.450   1.278   3.376
 1600SOL    HW2 4936   0.402   1.138   3.412
 1601SOL     OW 4937   0.360   0.547   0.348
 1601SOL    HW1 4938   0.394   0.485   0.284
 1601SOL    HW2 4939   0.265   0.542   0.339
 1602SOL     OW 4940   2.326   0.441   3.531
 1602SOL    HW1 4941   2.299   0.380   3.463
 1602SOL    HW2 4942   2.329   0.526   3.487
 1603SOL     OW 4943   1.744   0.506   3.822
 1603SOL    HW1 4944   1.753   0.555   3.903
 1603SOL    HW2 4945   1.725   0.416   3.851
 1604SOL     OW 4946   2.506   2.238   1.356
 1604SOL    HW1 4947   2.449   2.163   1.342
 1604SOL    HW2 4948   2.569   2.234   1.284
 1605SOL     OW 4949   1.525   3.336   0.361
 1605SOL    HW1 4950   1.432   3.355   0.368
 1605SOL    HW2 4951   1.541   3.332   0.267
 1606SOL     OW 4952   1.583   1.658   0.621
 1606SOL    HW1 4953   1.576   1.598   0.695
 1606SOL    HW2 4954   1.525   1.731   0.643
 1607SOL     OW 4955   2.612   3.137   0.499
 1607SOL    HW1 4956   2.522   3.107   0.486
 1607SOL    HW2 4957   2.665   3.082   0.441
 1608SOL     OW 4958   1.143   1.496   2.707
 1608SOL    HW1 4959   1.098   1.506   2.791
 1608SOL    HW2 4960   1.073   1.481   2.643
 1609SOL     OW 4961   2.657   0.698   0.327
 1609SOL    HW1 4962   2.596   0.672   0.396
 1609SOL    HW2 4963   2.743   0.677   0.363
 1610SOL     OW 4964   3.803   3.859   2.671
 1610SOL    HW1 4965   3.796   3.943   2.625
 1610SOL    HW2 4966   3.720   3.852   2.720
 1611SOL     OW 4967   3.109   2.049   1.643
 1611SOL    HW1 4968   3.118   1.954   1.630
 1611SOL    HW2 4969   3.019   2.059   1.674
 1612SOL     OW 4970   2.446   1.662   3.239
 1612SOL    HW1 4971   2.375   1.650   3.177
 1612SOL    HW2 4972   2.404   1.662   3.325
 1613SOL     OW 4973   1.807   3.253   2.458
 1613SOL    HW1 4974   1.818   3.162   2.487
 1613SOL    HW2 4975   1.894   3.279   2.429
 1614SOL     OW 4976   2.851   1.254   0.506
 1614SOL    HW1 4977   2.807   1.168   0.504
 1614SOL    HW2 4978   2.944   1.233   0.504
 1615SOL     OW 4979   1.701   2.195   0.892
 1615SOL    HW1 4980   1.753   2.232   0.964
 1615SOL    HW2 4981   1.764   2.148   0.839
 1616SOL     OW 4982   3.512   0.470   2.402
 1616SOL    HW1 4983   3.536   0.398   2.343
 1616SOL    HW2 4984   3.431   0.440   2.443
 1617SOL     OW 4985   1.693   0.848   1.872
 1617SOL    HW1 4986   1.663   0.840   1.782
 1617SOL    HW2 4987   1.668   0.765   1.913
 1618SOL     OW 4988   3.908   2.885   1.239
 1618SOL    HW1 4989   3.962   2.839   1.176
 1618SOL    HW2 4990   3.947   2.973   1.244
 1619SOL     OW 4991   3.373   0.592   0.528
 1619SOL    HW1 4992   3.465   0.607   0.508
 1619SOL    HW2 4993   3.366   0.607   0.622
 1620SOL     OW 4994   0.215   1.357   2.191
 1620SOL    HW1 4995   0.260   1.441   2.188
 1620SOL    HW2 4996   0.272   1.298   2.142
 1621SOL     OW 4997   2.097   0.496   2.171
 1621SOL    HW1 4998   2.024   0.451   2.213
 1621SOL    HW2 4999   2.148   0.534   2.243
 1622SOL     OW 5000   0.120   0.784   1.301
 1622SOL    HW1 5001   0.058   0.786   1.374
 1622SOL    HW2 5002   0.167   0.868   1.307
 1623SOL     OW 5003   0.787   3.156   1.537
 1623SOL    HW1 5004   0.765   3.249   1.539
 1623SOL    HW2 5005   0.856   3.146   1.603
 1624SOL     OW 5006   1.130   1.028   2.687
 1624SOL    HW1 5007   1.119   0.934   2.703
 1624SOL    HW2 5008   1.212   1.034   2.637
 1625SOL     OW 5009   1.203   2.538   0.178
 1625SOL    HW1 5010   1.289   2.510   0.211
 1625SOL    HW2 5011   1.141   2.512   0.246
 1626SOL     OW 5012   2.745   3.305   3.227
 1626SOL    HW1 5013   2.683   3.247   3.183
 1626SOL    HW2 5014   2.692   3.351   3.293
 1627SOL     OW 5015   3.415   2.882   0.225
 1627SOL    HW1 5016   3.353   2.863   0.296
 1627SOL    HW2 5017   3.375   2.955   0.178
 1628SOL     OW 5018   3.490   1.567   0.406
 1628SOL    HW1 5019   3.443   1.645   0.378
 1628SOL    HW2 5020   3.422   1.511   0.444
 1629SOL     OW 5021   3.035   1.923   0.976
 1629SOL    HW1 5022   3.019   1.846   1.031
 1629SOL    HW2 5023   3.070   1.887   0.894
 1630SOL     OW 5024   3.843   1.431   3.921
 1630SOL    HW1 5025   3.898   1.500   3.956
 1630SOL    HW2 5026   3.835   1.452   3.828
 1631SOL     OW 5027   2.886   0.260   2.377
 1631SOL    HW1 5028   2.835   0.231   2.301
 1631SOL    HW2 5029   2.924   0.343   2.348
 1632SOL     OW 5030   2.698   0.393   0.643
 1632SOL    HW1 5031   2.625   0.335   0.662
 1632SOL    HW2 5032   2.657   0.470   0.602
 1633SOL     OW 5033   2.014   0.180   2.443
 1633SOL    HW1 5034   2.027   0.200   2.536
 1633SOL    HW2 5035   1.927   0.215   2.422
 1634SOL     OW 5036   3.019   1.749   2.149
 1634SOL    HW1 5037   2.969   1.676   2.183
 1634SOL    HW2 5038   2.998   1.752   2.055
 1635SOL     OW 5039   2.128   3.018   1.633
 1635SOL    HW1 5040   2.140   2.997   1.725
 1635SOL    HW2 5041   2.034   3.007   1.618
 1636SOL     OW 5042   2.360   2.598   3.863
 1636SOL    HW1 5043   2.329   2.537   3.930
 1636SOL    HW2 5044   2.442   2.560   3.832
 1637SOL     OW 5045   0.889   3.662   0.983
 1637SOL    HW1 5046   0.889   3.708   1.067
 1637SOL    HW2 5047   0.897   3.570   1.006
 1638SOL     OW 5048   3.838   2.043   0.793
 1638SOL    HW1 5049   3.893   2.120   0.776
 1638SOL    HW2 5050   3.887   1.970   0.754
 1639SOL     OW 5051   1.259   2.589   1.468
 1639SOL    HW1 5052   1.301   2.538   1.399
 1639SOL    HW2 5053   1.331   2.612   1.528
 1640SOL     OW 5054   3.685   1.916   1.475
 1640SOL    HW1 5055   3.629   1.972   1.421
 1640SOL    HW2 5056   3.774   1.932   1.443
 1641SOL     OW 5057   2.933   0.900   1.616
 1641SOL    HW1 5058   2.953   0.808   1.604
 1641SOL    HW2 5059   2.864   0.919   1.553
 1642SOL     OW 5060   1.043   3.534   3.846
 1642SOL    HW1 5061   1.031   3.440   3.854
 1642SOL    HW2 5062   0.986   3.560   3.774
 1643SOL     OW 5063   1.477   3.815   2.540
 1643SOL    HW1 5064   1.523   3.770   2.611
 1643SOL    HW2 5065   1.385   3.798   2.557
 1644SOL     OW 5066   2.613   2.625   3.598
 1644SOL    HW1 5067   2.665   2.668   3.531
 1644SOL    HW2 5068   2.549   2.573   3.549
 1645SOL     OW 5069   3.698   3.598   3.287
 1645SOL    HW1 5070   3.783   3.554   3.287
 1645SOL    HW2 5071   3.703   3.660   3.360
 1646SOL     OW 5072   1.348   1.522   3.941
 1646SOL    HW1 5073   1.349   1.565   3.855
 1646SOL    HW2 5074   1.314   1.588   4.001
 1647SOL     OW 5075   1.247   3.227   2.567
 1647SOL    HW1 5076   1.301   3.219   2.488
 1647SOL    HW2 5077   1.176   3.286   2.542
 1648SOL     OW 5078   3.210   3.232   2.721
 1648SOL    HW1 5079   3.202   3.267   2.810
 1648SOL    HW2 5080   3.282   3.169   2.725
 1649SOL     OW 5081   0.341   0.809   3.199
 1649SOL    HW1 5082   0.421   0.792   3.249
 1649SOL    HW2 5083   0.352   0.898   3.166
 1650SOL     OW 5084   1.720   0.025   3.016
 1650SOL    HW1 5085   1.673   0.099   2.977
 1650SOL    HW2 5086   1.768   0.064   3.090
 1651SOL     OW 5087   3.804   1.506   2.869
 1651SOL    HW1 5088   3.734   1.507   2.804
 1651SOL    HW2 5089   3.856   1.428   2.848
 1652SOL     OW 5090   0.648   1.073   0.201
 1652SOL    HW1 5091   0.553   1.065   0.207
 1652SOL    HW2 5092   0.675   1.106   0.286
 1653SOL     OW 5093   1.012   3.253   3.834
 1653SOL    HW1 5094   0.942   3.260   3.899
 1653SOL    HW2 5095   1.025   3.158   3.823
 1654SOL     OW 5096   2.064   1.281   1.718
 1654SOL    HW1 5097   2.131   1.233   1.767
 1654SOL    HW2 5098   1.993   1.217   1.706
 1655SOL     OW 5099   1.334   1.329   1.852
 1655SOL    HW1 5100   1.378   1.248   1.824
 1655SOL    HW2 5101   1.263   1.341   1.789
 1656SOL     OW 5102   3.262   0.388   3.398
 1656SOL    HW1 5103   3.224   0.321   3.454
 1656SOL    HW2 5104   3.279   0.344   3.315
 1657SOL     OW 5105   2.012   0.455   0.357
 1657SOL    HW1 5106   1.990   0.410   0.439
 1657SOL    HW2 5107   2.106   0.438   0.345
 1658SOL     OW 5108   2.005   1.604   3.489
 1658SOL    HW1 5109   2.027   1.616   3.581
 1658SOL    HW2 5110   2.024   1.512   3.471
 1659SOL     OW 5111   2.004   2.352   1.007
 1659SOL    HW1 5112   2.026   2.445   1.000
 1659SOL    HW2 5113   2.023   2.330   1.099
 1660SOL     OW 5114   1.591   1.734   2.664
 1660SOL    HW1 5115   1.643   1.653   2.670
 1660SOL    HW2 5116   1.509   1.707   2.624
 1661SOL     OW 5117   3.453   2.741  -0.002
 1661SOL    HW1 5118   3.435   2.793   0.077
 1661SOL    HW2 5119   3.547   2.750  -0.016
 1662SOL     OW 5120   0.432   1.809   2.921
 1662SOL    HW1 5121   0.493   1.868   2.965
 1662SOL    HW2 5122   0.373   1.867   2.873
 1663SOL     OW 5123   3.700   1.332   0.883
 1663SOL    HW1 5124   3.687   1.369   0.796
 1663SOL    HW2 5125   3.714   1.238   0.868
 1664SOL     OW 5126   1.372   2.397   3.336
 1664SOL    HW1 5127   1.331   2.402   3.422
 1664SOL    HW2 5128   1.312   2.447   3.279
 1665SOL     OW 5129   3.097   2.569   1.663
 1665SOL    HW1 5130   3.166   2.633   1.646
 1665SOL    HW2 5131   3.141   2.485   1.662
 1666SOL     OW 5132   3.162   0.043   3.406
 1666SOL    HW1 5133   3.128   0.097   3.477
 1666SOL    HW2 5134   3.245   0.009   3.440
 1667SOL     OW 5135   3.638   1.404   1.175
 1667SOL    HW1 5136   3.682   1.385   1.093
 1667SOL    HW2 5137   3.670   1.491   1.200
 1668SOL     OW 5138   0.007   1.228   1.887
 1668SOL    HW1 5139  -0.000   1.299   1.823
 1668SOL    HW2 5140  -0.003   1.148   1.835
 1669SOL     OW 5141   0.080   0.853   1.959
 1669SOL    HW1 5142   0.168   0.884   1.938
 1669SOL    HW2 5143   0.089   0.811   2.044
 1670SOL     OW 5144   2.412   2.440   2.398
 1670SOL    HW1 5145   2.480   2.430   2.331
 1670SOL    HW2 5146   2.430   2.370   2.461
 1671SOL     OW 5147   2.752   0.992   2.484
 1671SOL    HW1 5148   2.748   1.055   2.412
 1671SOL    HW2 5149   2.732   1.043   2.562
 1672SOL     OW 5150   0.738   3.105   1.824
 1672SOL    HW1 5151   0.655   3.151   1.815
 1672SOL    HW2 5152   0.736   3.038   1.757
 1673SOL     OW 5153   1.774   3.518   0.968
 1673SOL    HW1 5154   1.824   3.599   0.978
 1673SOL    HW2 5155   1.694   3.545   0.923
 1674SOL     OW 5156   0.469   3.700   1.963
 1674SOL    HW1 5157   0.508   3.699   2.050
 1674SOL    HW2 5158   0.409   3.626   1.962
 1675SOL     OW 5159   1.508   3.027   0.186
 1675SOL    HW1 5160   1.490   3.117   0.161
 1675SOL    HW2 5161   1.486   3.023   0.279
 1676SOL     OW 5162   1.499   1.910   2.883
 1676SOL    HW1 5163   1.410   1.907   2.917
 1676SOL    HW2 5164   1.515   1.821   2.851
 1677SOL     OW 5165   0.255   3.625   3.600
 1677SOL    HW1 5166   0.243   3.541   3.556
 1677SOL    HW2 5167   0.334   3.661   3.561
 1678SOL     OW 5168   0.868   2.524   2.365
 1678SOL    HW1 5169   0.791   2.580   2.356
 1678SOL    HW2 5170   0.903   2.518   2.276
 1679SOL     OW 5171   2.657   0.110   1.232
 1679SOL    HW1 5172   2.695   0.125   1.319
 1679SOL    HW2 5173   2.648   0.015   1.226
 1680SOL     OW 5174   3.649   1.738   1.137
 1680SOL    HW1 5175   3.637   1.708   1.227
 1680SOL    HW2 5176   3.743   1.734   1.123
 1681SOL     OW 5177   0.606   1.647   0.001
 1681SOL    HW1 5178   0.679   1.679   0.055
 1681SOL    HW2 5179   0.599   1.554   0.024
 1682SOL     OW 5180   2.741   0.699   3.422
 1682SOL    HW1 5181   2.711   0.627   3.367
 1682SOL    HW2 5182   2.814   0.661   3.473
 1683SOL     OW 5183   2.447   0.996   3.336
 1683SOL    HW1 5184   2.462   0.938   3.262
 1683SOL    HW2 5185   2.391   1.065   3.302
 1684SOL     OW 5186   3.715   0.594   2.560
 1684SOL    HW1 5187   3.675   0.587   2.647
 1684SOL    HW2 5188   3.650   0.554   2.502
 1685SOL     OW 5189   3.424   2.229   1.459
 1685SOL    HW1 5190   3.465   2.216   1.373
 1685SOL    HW2 5191   3.495   2.218   1.522
 1686SOL     OW 5192   0.801   1.859   1.797
 1686SOL    HW1 5193   0.743   1.925   1.836
 1686SOL    HW2 5194   0.853   1.826   1.870
 1687SOL     OW 5195   0.846   2.885   0.940
 1687SOL    HW1 5196   0.816   2.802   0.901
 1687SOL    HW2 5197   0.937   2.893   0.910
 1688SOL     OW 5198   2.173   3.643   2.861
 1688SOL    HW1 5199   2.139   3.711   2.803
 1688SOL    HW2 5200   2.103   3.577   2.863
 1689SOL     OW 5201   1.455   2.456   1.944
 1689SOL    HW1 5202   1.550   2.443   1.953
 1689SOL    HW2 5203   1.416   2.372   1.968
 1690SOL     OW 5204   1.867   2.942   1.601
 1690SOL    HW1 5205   1.804   3.006   1.569
 1690SOL    HW2 5206   1.844   2.930   1.693
 1691SOL     OW 5207   1.191   0.798   2.178
 1691SOL    HW1 5208   1.206   0.881   2.132
 1691SOL    HW2 5209   1.279   0.767   2.199
 1692SOL     OW 5210   3.533   2.646   2.359
 1692SOL    HW1 5211   3.597   2.622   2.427
 1692SOL    HW2 5212   3.561   2.732   2.330
 1693SOL     OW 5213   1.633   1.742   1.576
 1693SOL    HW1 5214   1.710   1.772   1.624
 1693SOL    HW2 5215   1.577   1.819   1.571
 1694SOL     OW 5216   2.720   0.840   1.117
 1694SOL    HW1 5217   2.747   0.756   1.080
 1694SOL    HW2 5218   2.717   0.826   1.212
 1695SOL     OW 5219   2.882   2.394   3.341
 1695SOL    HW1 5220   2.976   2.409   3.351
 1695SOL    HW2 5221   2.875   2.314   3.289
 1696SOL     OW 5222   3.873   1.938   1.285
 1696SOL    HW1 5223   3.823   2.010   1.246
 1696SOL    HW2 5224   3.958   1.978   1.308
 1697SOL     OW 5225   1.903   3.542   2.246
 1697SOL    HW1 5226   1.995   3.566   2.241
 1697SOL    HW2 5227   1.871   3.584   2.326
 1698SOL     OW 5228   3.337   3.594   0.188
 1698SOL    HW1 5229   3.325   3.515   0.242
 1698SOL    HW2 5230   3.428   3.590   0.160
 1699SOL     OW 5231   1.892   2.274   3.272
 1699SOL    HW1 5232   1.801   2.271   3.301
 1699SOL    HW2 5233   1.914   2.183   3.252
 1700SOL     OW 5234   2.396   3.666   0.709
 1700SOL    HW1 5235   2.346   3.585   0.718
 1700SOL    HW2 5236   2.372   3.718   0.786
 1701SOL     OW 5237   3.724   3.460   1.187
 1701SOL    HW1 5238   3.633   3.431   1.176
 1701SOL    HW2 5239   3.722   3.554   1.167
 1702SOL     OW 5240   2.083   3.454   0.648
 1702SOL    HW1 5241   2.094   3.427   0.739
 1702SOL    HW2 5242   2.049   3.375   0.604
 1703SOL     OW 5243   1.544   3.846   1.438
 1703SOL    HW1 5244   1.575   3.816   1.524
 1703SOL    HW2 5245   1.616   3.897   1.402
 1704SOL     OW 5246   1.194   1.343   3.772
 1704SOL    HW1 5247   1.161   1.356   3.683
 1704SOL    HW2 5248   1.169   1.423   3.818
 1705SOL     OW 5249   2.345   2.955   0.460
 1705SOL    HW1 5250   2.421   2.899   0.446
 1705SOL    HW2 5251   2.345   2.972   0.555
 1706SOL     OW 5252   0.507   1.885   3.366
 1706SOL    HW1 5253   0.561   1.916   3.439
 1706SOL    HW2 5254   0.473   1.964   3.326
 1707SOL     OW 5255   0.081   2.418   2.627
 1707SOL    HW1 5256   0.053   2.400   2.538
 1707SOL    HW2 5257   0.002   2.407   2.680
 1708SOL     OW 5258   3.393   2.692   0.989
 1708SOL    HW1 5259   3.333   2.759   1.021
 1708SOL    HW2 5260   3.359   2.609   1.023
 1709SOL     OW 5261   3.474   0.223   3.693
 1709SOL    HW1 5262   3.505   0.269   3.615
 1709SOL    HW2 5263   3.445   0.293   3.752
 1710SOL     OW 5264   3.274   1.114   2.528
 1710SOL    HW1 5265   3.178   1.114   2.527
 1710SOL    HW2 5266   3.298   1.202   2.499
 1711SOL     OW 5267   2.750   3.266   2.890
 1711SOL    HW1 5268   2.842   3.287   2.875
 1711SOL    HW2 5269   2.743   3.259   2.985
 1712SOL     OW 5270   1.252   1.837   2.474
 1712SOL    HW1 5271   1.169   1.798   2.444
 1712SOL    HW2 5272   1.312   1.823   2.400
 1713SOL     OW 5273   2.239   1.460   2.757
 1713SOL    HW1 5274   2.161   1.464   2.812
 1713SOL    HW2 5275   2.237   1.542   2.707
 1714SOL     OW 5276   3.145   3.568   1.080
 1714SOL    HW1 5277   3.111   3.607   1.000
 1714SOL    HW2 5278   3.174   3.643   1.133
 1715SOL     OW 5279   0.316   2.597   0.899
 1715SOL    HW1 5280   0.404   2.574   0.929
 1715SOL    HW2 5281   0.260   2.526   0.931
 1716SOL     OW 5282   2.284   1.741   3.450
 1716SOL    HW1 5283   2.199   1.702   3.433
 1716SOL    HW2 5284   2.293   1.741   3.545
 1717SOL     OW 5285   3.215   2.174   0.250
 1717SOL    HW1 5286   3.277   2.137   0.313
 1717SOL    HW2 5287   3.222   2.118   0.173
 1718SOL     OW 5288   0.335   2.274   3.079
 1718SOL    HW1 5289   0.257   2.323   3.052
 1718SOL    HW2 5290   0.403   2.340   3.089
 1719SOL     OW 5291   2.266   1.808   3.002
 1719SOL    HW1 5292   2.288   1.811   3.095
 1719SOL    HW2 5293   2.178   1.771   2.999
 1720SOL     OW 5294   3.828   2.802   0.618
 1720SOL    HW1 5295   3.771   2.830   0.547
 1720SOL    HW2 5296   3.826   2.875   0.680
 1721SOL     OW 5297   1.371   2.857   1.188
 1721SOL    HW1 5298   1.330   2.867   1.102
 1721SOL    HW2 5299   1.464   2.843   1.170
 1722SOL     OW 5300   0.857   2.839   2.022
 1722SOL    HW1 5301   0.877   2.911   2.082
 1722SOL    HW2 5302   0.763   2.823   2.036
 1723SOL     OW 5303   0.497   3.246   0.591
 1723SOL    HW1 5304   0.541   3.332   0.593
 1723SOL    HW2 5305   0.513   3.209   0.677
 1724SOL     OW 5306   1.585   2.203   2.100
 1724SOL    HW1 5307   1.643   2.223   2.174
 1724SOL    HW2 5308   1.499   2.191   2.139
 1725SOL     OW 5309   0.374   3.853   2.547
 1725SOL    HW1 5310   0.400   3.839   2.638
 1725SOL    HW2 5311   0.416   3.782   2.498
 1726SOL     OW 5312   0.949   1.733   2.353
 1726SOL    HW1 5313   0.923   1.649   2.389
 1726SOL    HW2 5314   0.919   1.731   2.262
 1727SOL     OW 5315   3.710   0.836   1.353
 1727SOL    HW1 5316   3.793   0.836   1.401
 1727SOL    HW2 5317   3.645   0.865   1.417
 1728SOL     OW 5318   0.136   2.895   0.003
 1728SOL    HW1 5319   0.041   2.908   0.010
 1728SOL    HW2 5320   0.173   2.958   0.065
 1729SOL     OW 5321   2.603   0.187   3.037
 1729SOL    HW1 5322   2.587   0.122   3.105
 1729SOL    HW2 5323   2.601   0.271   3.083
 1730SOL     OW 5324   3.014   2.307   0.389
 1730SOL    HW1 5325   3.066   2.247   0.335
 1730SOL    HW2 5326   2.923   2.284   0.370
 1731SOL     OW 5327   0.640   0.370   1.737
 1731SOL    HW1 5328   0.672   0.281   1.753
 1731SOL    HW2 5329   0.561   0.377   1.790
 1732SOL     OW 5330   1.879   3.061   3.506
 1732SOL    HW1 5331   1.957   3.118   3.502
 1732SOL    HW2 5332   1.884   3.009   3.426
 1733SOL     OW 5333   3.913   0.192   0.223
 1733SOL    HW1 5334   3.963   0.185   0.304
 1733SOL    HW2 5335   3.976   0.175   0.153
 1734SOL     OW 5336   0.068   3.891   3.419
 1734SOL    HW1 5337  -0.009   3.946   3.404
 1734SOL    HW2 5338   0.073   3.836   3.341
 1735SOL     OW 5339   2.284   2.436   0.102
 1735SOL    HW1 5340   2.348   2.401   0.164
 1735SOL    HW2 5341   2.201   2.394   0.126
 1736SOL     OW 5342   1.312   1.709   3.750
 1736SOL    HW1 5343   1.245   1.740   3.689
 1736SOL    HW2 5344   1.326   1.783   3.810
 1737SOL     OW 5345   3.602   0.805   1.094
 1737SOL    HW1 5346   3.655   0.778   1.019
 1737SOL    HW2 5347   3.666   0.827   1.162
 1738SOL     OW 5348   2.752   2.576   0.647
 1738SOL    HW1 5349   2.692   2.570   0.721
 1738SOL    HW2 5350   2.798   2.660   0.659
 1739SOL     OW 5351   3.640   2.332   0.082
 1739SOL    HW1 5352   3.659   2.248   0.038
 1739SOL    HW2 5353   3.545   2.332   0.092
 1740SOL     OW 5354   3.963   0.681   3.609
 1740SOL    HW1 5355   4.004   0.594   3.605
 1740SOL    HW2 5356   3.915   0.688   3.526
 1741SOL     OW 5357   1.697   2.529   1.672
 1741SOL    HW1 5358   1.682   2.613   1.715
 1741SOL    HW2 5359   1.709   2.551   1.580
 1742SOL     OW 5360   1.621   3.771  -0.021
 1742SOL    HW1 5361   1.617   3.792   0.073
 1742SOL    HW2 5362   1.688   3.703  -0.028
 1743SOL     OW 5363   1.887   3.851   3.399
 1743SOL    HW1 5364   1.812   3.793   3.389
 1743SOL    HW2 5365   1.948   3.802   3.455
 1744SOL     OW 5366   1.116   3.627   2.950
 1744SOL    HW1 5367   1.151   3.715   2.936
 1744SOL    HW2 5368   1.192   3.569   2.947
 1745SOL     OW 5369   1.387   1.557   2.607
 1745SOL    HW1 5370   1.403   1.463   2.614
 1745SOL    HW2 5371   1.293   1.567   2.623
 1746SOL     OW 5372   0.692   2.861   1.155
 1746SOL    HW1 5373   0.765   2.869   1.094
 1746SOL    HW2 5374   0.728   2.814   1.230
 1747SOL     OW 5375   2.093   0.458   3.660
 1747SOL    HW1 5376   2.074   0.371   3.694
 1747SOL    HW2 5377   2.175   0.448   3.611
 1748SOL     OW 5378   2.085   1.411   3.803
 1748SOL    HW1 5379   2.147   1.341   3.781
 1748SOL    HW2 5380   2.018   1.406   3.735
 1749SOL     OW 5381   2.613   3.891   0.555
 1749SOL    HW1 5382   2.645   3.813   0.600
 1749SOL    HW2 5383   2.658   3.890   0.471
 1750SOL     OW 5384   1.164   3.045   3.693
 1750SOL    HW1 5385   1.165   2.968   3.751
 1750SOL    HW2 5386   1.215   3.018   3.617
 1751SOL     OW 5387   0.521   3.316   1.472
 1751SOL    HW1 5388   0.462   3.349   1.539
 1751SOL    HW2 5389   0.609   3.333   1.507
 1752SOL     OW 5390   0.332   0.490   3.665
 1752SOL    HW1 5391   0.270   0.479   3.594
 1752SOL    HW2 5392   0.417   0.501   3.622
 1753SOL     OW 5393   1.397   0.360   0.214
 1753SOL    HW1 5394   1.378   0.441   0.260
 1753SOL    HW2 5395   1.412   0.387   0.123
 1754SOL     OW 5396   3.727   3.753   2.394
 1754SOL    HW1 5397   3.802   3.722   2.345
 1754SOL    HW2 5398   3.761   3.769   2.483
 1755SOL     OW 5399   3.238   2.083   3.040
 1755SOL    HW1 5400   3.156   2.128   3.018
 1755SOL    HW2 5401   3.302   2.153   3.053
 1756SOL     OW 5402   0.089   0.000   2.154
 1756SOL    HW1 5403   0.180   0.028   2.144
 1756SOL    HW2 5404   0.068   0.021   2.246
 1757SOL     OW 5405   3.122   0.201   1.692
 1757SOL    HW1 5406   3.120   0.296   1.705
 1757SOL    HW2 5407   3.208   0.184   1.653
 1758SOL     OW 5408   2.730   2.720   2.876
 1758SOL    HW1 5409   2.694   2.644   2.832
 1758SOL    HW2 5410   2.691   2.795   2.830
 1759SOL     OW 5411   2.902   0.316   0.503
 1759SOL    HW1 5412   2.953   0.395   0.482
 1759SOL    HW2 5413   2.842   0.345   0.573
 1760SOL     OW 5414   3.689   0.172   0.839
 1760SOL    HW1 5415   3.609   0.202   0.797
 1760SOL    HW2 5416   3.688   0.215   0.924
 1761SOL     OW 5417   2.765   2.598   1.987
 1761SOL    HW1 5418   2.810   2.681   1.973
 1761SOL    HW2 5419   2.678   2.622   2.018
 1762SOL     OW 5420   3.753   2.608   0.058
 1762SOL    HW1 5421   3.704   2.526   0.045
 1762SOL    HW2 5422   3.734   2.634   0.148
 1763SOL     OW 5423   3.830   3.377   3.832
 1763SOL    HW1 5424   3.873   3.445   3.780
 1763SOL    HW2 5425   3.902   3.326   3.868
 1764SOL     OW 5426   3.038   1.438   3.352
 1764SOL    HW1 5427   3.127   1.439   3.319
 1764SOL    HW2 5428   2.990   1.381   3.292
 1765SOL     OW 5429   0.636   0.669   2.063
 1765SOL    HW1 5430   0.638   0.765   2.059
 1765SOL    HW2 5431   0.707   0.647   2.124
 1766SOL     OW 5432   0.722   0.188   3.044
 1766SOL    HW1 5433   0.789   0.138   3.090
 1766SOL    HW2 5434   0.755   0.195   2.954
 1767SOL     OW 5435   1.419   2.775   2.379
 1767SOL    HW1 5436   1.323   2.770   2.374
 1767SOL    HW2 5437   1.438   2.754   2.470
 1768SOL     OW 5438   3.374   2.714   2.621
 1768SOL    HW1 5439   3.373   2.640   2.681
 1768SOL    HW2 5440   3.426   2.683   2.546
 1769SOL     OW 5441   1.440   1.814   2.279
 1769SOL    HW1 5442   1.458   1.725   2.246
 1769SOL    HW2 5443   1.526   1.846   2.307
 1770SOL     OW 5444   2.367   2.894   1.560
 1770SOL    HW1 5445   2.313   2.971   1.578
 1770SOL    HW2 5446   2.357   2.839   1.638
 1771SOL     OW 5447   0.289   0.980   1.831
 1771SOL    HW1 5448   0.334   0.911   1.783
 1771SOL    HW2 5449   0.328   1.062   1.800
 1772SOL     OW 5450   2.263   1.072   1.829
 1772SOL    HW1 5451   2.232   0.982   1.839
 1772SOL    HW2 5452   2.325   1.069   1.756
 1773SOL     OW 5453   0.403   1.150   2.154
 1773SOL    HW1 5454   0.419   1.118   2.065
 1773SOL    HW2 5455   0.376   1.072   2.203
 1774SOL     OW 5456   2.034   0.730   2.892
 1774SOL    HW1 5457   2.054   0.727   2.798
 1774SOL    HW2 5458   1.947   0.693   2.899
 1775SOL     OW 5459   3.235   0.944   0.439
 1775SOL    HW1 5460   3.160   0.934   0.499
 1775SOL    HW2 5461   3.227   0.870   0.379
 1776SOL     OW 5462   0.171   0.532   1.126
 1776SOL    HW1 5463   0.179   0.615   1.173
 1776SOL    HW2 5464   0.149   0.558   1.036
 1777SOL     OW 5465   2.247   3.513   0.368
 1777SOL    HW1 5466   2.191   3.475   0.435
 1777SOL    HW2 5467   2.244   3.607   0.385
 1778SOL     OW 5468   2.550   0.568   2.512
 1778SOL    HW1 5469   2.475   0.539   2.565
 1778SOL    HW2 5470   2.567   0.658   2.541
 1779SOL     OW 5471   0.253   3.360   0.597
 1779SOL    HW1 5472   0.242   3.445   0.555
 1779SOL    HW2 5473   0.339   3.330   0.570
 1780SOL     OW 5474   2.246   3.947   3.456
 1780SOL    HW1 5475   2.226   3.943   3.550
 1780SOL    HW2 5476   2.337   3.917   3.449
 1781SOL     OW 5477   2.762   0.694   2.809
 1781SOL    HW1 5478   2.699   0.727   2.745
 1781SOL    HW2 5479   2.776   0.768   2.868
 1782SOL     OW 5480   3.014   3.221   2.559
 1782SOL    HW1 5481   3.069   3.224   2.637
 1782SOL    HW2 5482   3.075   3.213   2.486
 1783SOL     OW 5483   0.179   3.451   1.360
 1783SOL    HW1 5484   0.091   3.464   1.397
 1783SOL    HW2 5485   0.162   3.425   1.269
 1784SOL     OW 5486   0.605   2.502   3.430
 1784SOL    HW1 5487   0.693   2.489   3.466
 1784SOL    HW2 5488   0.551   2.526   3.505
 1785SOL     OW 5489   2.162   0.818   1.848
 1785SOL    HW1 5490   2.132   0.785   1.763
 1785SOL    HW2 5491   2.225   0.752   1.877
 1786SOL     OW 5492   0.111   0.321   0.527
 1786SOL    HW1 5493   0.204   0.329   0.505
 1786SOL    HW2 5494   0.109   0.306   0.621
 1787SOL     OW 5495   2.094   3.306   1.533
 1787SOL    HW1 5496   2.183   3.340   1.535
 1787SOL    HW2 5497   2.105   3.211   1.530
 1788SOL     OW 5498   0.392   2.581   2.220
 1788SOL    HW1 5499   0.319   2.593   2.160
 1788SOL    HW2 5500   0.351   2.574   2.306
 1789SOL     OW 5501   0.760   3.591   1.280
 1789SOL    HW1 5502   0.698   3.649   1.325
 1789SOL    HW2 5503   0.846   3.615   1.315
 1790SOL     OW 5504   2.304   3.430   1.003
 1790SOL    HW1 5505   2.365   3.451   0.932
 1790SOL    HW2 5506   2.356   3.438   1.083
 1791SOL     OW 5507   3.711   2.494   1.518
 1791SOL    HW1 5508   3.736   2.513   1.428
 1791SOL    HW2 5509   3.680   2.578   1.553
 1792SOL     OW 5510   3.577   3.041   3.298
 1792SOL    HW1 5511   3.542   3.074   3.215
 1792SOL    HW2 5512   3.602   3.120   3.346
 1793SOL     OW 5513   3.786   2.342   2.690
 1793SOL    HW1 5514   3.792   2.304   2.778
 1793SOL    HW2 5515   3.757   2.269   2.635
 1794SOL     OW 5516   2.146   2.529   2.322
 1794SOL    HW1 5517   2.237   2.504   2.336
 1794SOL    HW2 5518   2.113   2.464   2.260
 1795SOL     OW 5519   0.979   1.423   3.617
 1795SOL    HW1 5520   0.929   1.345   3.594
 1795SOL    HW2 5521   0.919   1.474   3.673
 1796SOL     OW 5522   1.083   2.358   3.111
 1796SOL    HW1 5523   1.146   2.426   3.136
 1796SOL    HW2 5524   1.000   2.404   3.101
 1797SOL     OW 5525   0.735   2.498   1.182
 1797SOL    HW1 5526   0.769   2.582   1.214
 1797SOL    HW2 5527   0.653   2.520   1.138
 1798SOL     OW 5528   0.930   0.977   3.753
 1798SOL    HW1 5529   0.883   0.920   3.814
 1798SOL    HW2 5530   1.012   0.997   3.797
 1799SOL     OW 5531   1.854   0.117   3.221
 1799SOL    HW1 5532   1.941   0.140   3.192
 1799SOL    HW2 5533   1.868   0.047   3.286
 1800SOL     OW 5534   1.885   0.137   1.077
 1800SOL    HW1 5535   1.974   0.119   1.110
 1800SOL    HW2 5536   1.841   0.053   1.080
 1801SOL     OW 5537   1.150   1.122   0.171
 1801SOL    HW1 5538   1.086   1.105   0.240
 1801SOL    HW2 5539   1.181   1.211   0.189
 1802SOL     OW 5540   2.826   2.112   0.837
 1802SOL    HW1 5541   2.820   2.192   0.888
 1802SOL    HW2 5542   2.893   2.059   0.880
 1803SOL     OW 5543   1.496   1.034   3.917
 1803SOL    HW1 5544   1.500   1.130   3.917
 1803SOL    HW2 5545   1.409   1.013   3.950
 1804SOL     OW 5546   0.589   0.772   3.348
 1804SOL    HW1 5547   0.638   0.738   3.423
 1804SOL    HW2 5548   0.646   0.755   3.273
 1805SOL     OW 5549   0.335   1.985   1.651
 1805SOL    HW1 5550   0.392   1.987   1.728
 1805SOL    HW2 5551   0.349   2.070   1.609
 1806SOL     OW 5552   3.188   2.671   3.136
 1806SOL    HW1 5553   3.229   2.725   3.069
 1806SOL    HW2 5554   3.094   2.687   3.126
 1807SOL     OW 5555   2.710   0.112   3.734
 1807SOL    HW1 5556   2.651   0.149   3.668
 1807SOL    HW2 5557   2.659   0.042   3.775
 1808SOL     OW 5558   1.267   2.659   0.692
 1808SOL    HW1 5559   1.277   2.564   0.700
 1808SOL    HW2 5560   1.317   2.683   0.614
 1809SOL     OW 5561   2.669   2.191   2.445
 1809SOL    HW1 5562   2.692   2.273   2.403
 1809SOL    HW2 5563   2.751   2.159   2.484
 1810SOL     OW 5564   2.872   3.050   0.801
 1810SOL    HW1 5565   2.919   3.107   0.740
 1810SOL    HW2 5566   2.915   3.065   0.885
 1811SOL     OW 5567   0.222   2.589   1.196
 1811SOL    HW1 5568   0.192   2.514   1.144
 1811SOL    HW2 5569   0.187   2.665   1.151
 1812SOL     OW 5570   0.987   2.120   1.980
 1812SOL    HW1 5571   0.928   2.183   2.022
 1812SOL    HW2 5572   1.020   2.166   1.903
 1813SOL     OW 5573   0.553   1.606   3.008
 1813SOL    HW1 5574   0.513   1.689   2.983
 1813SOL    HW2 5575   0.481   1.542   3.002
 1814SOL     OW 5576   0.755   0.314   1.087
 1814SOL    HW1 5577   0.753   0.272   1.173
 1814SOL    HW2 5578   0.798   0.251   1.030
 1815SOL     OW 5579   1.912   2.109   0.739
 1815SOL    HW1 5580   1.970   2.185   0.732
 1815SOL    HW2 5581   1.869   2.103   0.654
 1816SOL     OW 5582   2.543   3.872   3.848
 1816SOL    HW1 5583   2.473   3.849   3.787
 1816SOL    HW2 5584   2.579   3.788   3.877
 1817SOL     OW 5585   0.008   1.412   3.287
 1817SOL    HW1 5586  -0.061   1.452   3.234
 1817SOL    HW2 5587   0.053   1.353   3.226
 1818SOL     OW 5588   0.613   3.394   0.892
 1818SOL    HW1 5589   0.666   3.335   0.840
 1818SOL    HW2 5590   0.645   3.383   0.982
 1819SOL     OW 5591   2.689   1.339   2.949
 1819SOL    HW1 5592   2.621   1.277   2.975
 1819SOL    HW2 5593   2.644   1.401   2.891
 1820SOL     OW 5594   3.531   0.234   2.229
 1820SOL    HW1 5595   3.499   0.269   2.145
 1820SOL    HW2 5596   3.605   0.179   2.205
 1821SOL     OW 5597   0.446   0.620   0.734
 1821SOL    HW1 5598   0.390   0.547   0.760
 1821SOL    HW2 5599   0.421   0.691   0.793
 1822SOL     OW 5600   1.290   3.926   3.177
 1822SOL    HW1 5601   1.319   3.956   3.091
 1822SOL    HW2 5602   1.360   3.869   3.208
 1823SOL     OW 5603   0.759   3.377   3.505
 1823SOL    HW1 5604   0.677   3.338   3.535
 1823SOL    HW2 5605   0.827   3.319   3.539
 1824SOL     OW 5606   3.405   2.635   1.444
 1824SOL    HW1 5607   3.418   2.588   1.361
 1824SOL    HW2 5608   3.343   2.705   1.422
 1825SOL     OW 5609   3.258   3.700   0.515
 1825SOL    HW1 5610   3.342   3.742   0.537
 1825SOL    HW2 5611   3.212   3.767   0.464
 1826SOL     OW 5612   3.146   2.078   3.323
 1826SOL    HW1 5613   3.181   2.067   3.234
 1826SOL    HW2 5614   3.072   2.017   3.327
 1827SOL     OW 5615   2.609   1.611   0.375
 1827SOL    HW1 5616   2.525   1.565   0.378
 1827SOL    HW2 5617   2.587   1.699   0.347
 1828SOL     OW 5618   3.689   0.368   0.494
 1828SOL    HW1 5619   3.670   0.279   0.467
 1828SOL    HW2 5620   3.630   0.383   0.568
 1829SOL     OW 5621   2.538   2.696   2.486
 1829SOL    HW1 5622   2.502   2.630   2.427
 1829SOL    HW2 5623   2.633   2.687   2.477
 1830SOL     OW 5624   2.908   0.622   0.366
 1830SOL    HW1 5625   3.000   0.616   0.390
 1830SOL    HW2 5626   2.905   0.597   0.274
 1831SOL     OW 5627   0.163   3.357   1.106
 1831SOL    HW1 5628   0.170   3.410   1.027
 1831SOL    HW2 5629   0.225   3.286   1.093
 1832SOL     OW 5630   0.299   1.940   2.734
 1832SOL    HW1 5631   0.224   1.924   2.678
 1832SOL    HW2 5632   0.354   2.002   2.685
 1833SOL     OW 5633   1.888   0.862   1.435
 1833SOL    HW1 5634   1.800   0.830   1.455
 1833SOL    HW2 5635   1.947   0.792   1.464
 1834SOL     OW 5636   2.412   0.196   1.442
 1834SOL    HW1 5637   2.466   0.117   1.431
 1834SOL    HW2 5638   2.368   0.183   1.526
 1835SOL     OW 5639   0.726   2.726   3.556
 1835SOL    HW1 5640   0.807   2.695   3.516
 1835SOL    HW2 5641   0.738   2.710   3.650
 1836SOL     OW 5642   1.684   3.569   1.365
 1836SOL    HW1 5643   1.759   3.564   1.424
 1836SOL    HW2 5644   1.709   3.635   1.300
 1837SOL     OW 5645   3.818   0.098   1.595
 1837SOL    HW1 5646   3.767   0.156   1.652
 1837SOL    HW2 5647   3.866   0.042   1.655
 1838SOL     OW 5648   0.574   2.453   0.946
 1838SOL    HW1 5649   0.660   2.439   0.906
 1838SOL    HW2 5650   0.539   2.364   0.957
 1839SOL     OW 5651   3.894   0.630   0.643
 1839SOL    HW1 5652   3.871   0.699   0.581
 1839SOL    HW2 5653   3.890   0.549   0.592
 1840SOL     OW 5654   1.012   2.116   3.852
 1840SOL    HW1 5655   1.057   2.162   3.922
 1840SOL    HW2 5656   0.932   2.165   3.837
 1841SOL     OW 5657   0.051   3.283   2.771
 1841SOL    HW1 5658   0.029   3.233   2.851
 1841SOL    HW2 5659   0.138   3.252   2.747
 1842SOL     OW 5660   2.343   0.792   2.327
 1842SOL    HW1 5661   2.321   0.703   2.299
 1842SOL    HW2 5662   2.422   0.813   2.277
 1843SOL     OW 5663   0.284   3.444   0.862
 1843SOL    HW1 5664   0.366   3.396   0.870
 1843SOL    HW2 5665   0.249   3.418   0.777
 1844SOL     OW 5666   3.420   1.752   0.808
 1844SOL    HW1 5667   3.500   1.771   0.758
 1844SOL    HW2 5668   3.438   1.669   0.852
 1845SOL     OW 5669   1.406   3.581   0.015
 1845SOL    HW1 5670   1.455   3.660  -0.006
 1845SOL    HW2 5671   1.317   3.611   0.033
 1846SOL     OW 5672   0.484   2.294   0.365
 1846SOL    HW1 5673   0.490   2.347   0.286
 1846SOL    HW2 5674   0.390   2.275   0.375
 1847SOL     OW 5675   3.242   2.256   2.127
 1847SOL    HW1 5676   3.178   2.296   2.185
 1847SOL    HW2 5677   3.238   2.309   2.047
 1848SOL     OW 5678   2.147   1.593   3.172
 1848SOL    HW1 5679   2.136   1.518   3.113
 1848SOL    HW2 5680   2.071   1.648   3.155
 1849SOL     OW 5681   3.050   1.653   1.636
 1849SOL    HW1 5682   3.068   1.563   1.607
 1849SOL    HW2 5683   2.954   1.660   1.630
 1850SOL     OW 5684   0.024   0.225   1.824
 1850SOL    HW1 5685   0.117   0.220   1.845
 1850SOL    HW2 5686   0.018   0.292   1.756
 1851SOL     OW 5687   2.436   1.527   1.780
 1851SOL    HW1 5688   2.447   1.446   1.829
 1851SOL    HW2 5689   2.461   1.504   1.690
 1852SOL     OW 5690   2.931   0.244   1.419
 1852SOL    HW1 5691   2.868   0.268   1.487
 1852SOL    HW2 5692   3.016   0.263   1.457
 1853SOL     OW 5693   2.415   3.429   3.583
 1853SOL    HW1 5694   2.394   3.346   3.540
 1853SOL    HW2 5695   2.421   3.408   3.676
 1854SOL     OW 5696   2.108   0.342   1.677
 1854SOL    HW1 5697   2.045   0.348   1.605
 1854SOL    HW2 5698   2.053   0.330   1.755
 1855SOL     OW 5699   0.199   2.010   1.314
 1855SOL    HW1 5700   0.241   1.981   1.233
 1855SOL    HW2 5701   0.204   1.933   1.371
 1856SOL     OW 5702   2.644   3.182   3.834
 1856SOL    HW1 5703   2.738   3.202   3.830
 1856SOL    HW2 5704   2.627   3.132   3.754
 1857SOL     OW 5705   3.421   0.630   0.804
 1857SOL    HW1 5706   3.405   0.724   0.816
 1857SOL    HW2 5707   3.443   0.598   0.891
 1858SOL     OW 5708   0.348   3.499   2.396
 1858SOL    HW1 5709   0.393   3.578   2.364
 1858SOL    HW2 5710   0.406   3.462   2.462
 1859SOL     OW 5711   2.403   1.172   2.992
 1859SOL    HW1 5712   2.365   1.155   3.078
 1859SOL    HW2 5713   2.405   1.087   2.949
 1860SOL     OW 5714   2.036   0.049   1.305
 1860SOL    HW1 5715   1.972   0.107   1.347
 1860SOL    HW2 5716   2.116   0.061   1.357
 1861SOL     OW 5717   3.462   0.841   1.514
 1861SOL    HW1 5718   3.524   0.823   1.584
 1861SOL    HW2 5719   3.390   0.888   1.557
 1862SOL     OW 5720   3.059   3.926   3.116
 1862SOL    HW1 5721   3.049   3.978   3.196
 1862SOL    HW2 5722   3.130   3.969   3.068
 1863SOL     OW 5723   2.484   0.924   0.440
 1863SOL    HW1 5724   2.522   0.914   0.527
 1863SOL    HW2 5725   2.513   1.011   0.412
 1864SOL     OW 5726   3.873   2.257   0.279
 1864SOL    HW1 5727   3.799   2.248   0.219
 1864SOL    HW2 5728   3.834   2.253   0.367
 1865SOL     OW 5729   1.978   3.615   1.381
 1865SOL    HW1 5730   1.984   3.530   1.424
 1865SOL    HW2 5731   1.970   3.593   1.288
 1866SOL     OW 5732   2.092   3.850   1.587
 1866SOL    HW1 5733   2.037   3.784   1.545
 1866SOL    HW2 5734   2.114   3.812   1.672
 1867SOL     OW 5735   2.056   3.019   2.480
 1867SOL    HW1 5736   2.137   2.992   2.436
 1867SOL    HW2 5737   1.986   2.991   2.421
 1868SOL     OW 5738   0.973   3.232   1.281
 1868SOL    HW1 5739   0.893   3.217   1.331
 1868SOL    HW2 5740   1.039   3.178   1.325
 1869SOL     OW 5741   1.727   2.662   1.136
 1869SOL    HW1 5742   1.658   2.720   1.104
 1869SOL    HW2 5743   1.807   2.714   1.128
 1870SOL     OW 5744   2.247   1.735   0.005
 1870SOL    HW1 5745   2.292   1.788  -0.062
 1870SOL    HW2 5746   2.212   1.800   0.066
 1871SOL     OW 5747   3.783   0.157   3.016
 1871SOL    HW1 5748   3.837   0.222   2.972
 1871SOL    HW2 5749   3.693   0.183   2.999
 1872SOL     OW 5750   1.152   0.835   0.177
 1872SOL    HW1 5751   1.144   0.813   0.085
 1872SOL    HW2 5752   1.176   0.928   0.177
 1873SOL     OW 5753   0.929   0.119   0.257
 1873SOL    HW1 5754   0.928   0.167   0.340
 1873SOL    HW2 5755   0.995   0.165   0.205
 1874SOL     OW 5756   2.325   2.028   1.314
 1874SOL    HW1 5757   2.327   1.978   1.233
 1874SOL    HW2 5758   2.238   2.009   1.352
 1875SOL     OW 5759   1.519   0.659   0.530
 1875SOL    HW1 5760   1.536   0.751   0.509
 1875SOL    HW2 5761   1.604   0.625   0.557
 1876SOL     OW 5762   3.070   2.920   2.283
 1876SOL    HW1 5763   3.091   3.011   2.303
 1876SOL    HW2 5764   3.026   2.923   2.199
 1877SOL     OW 5765   3.819   2.873   3.072
 1877SOL    HW1 5766   3.805   2.866   3.166
 1877SOL    HW2 5767   3.830   2.783   3.042
 1878SOL     OW 5768   2.575   3.627   1.818
 1878SOL    HW1 5769   2.664   3.625   1.854
 1878SOL    HW2 5770   2.581   3.573   1.739
 1879SOL     OW 5771   0.763   3.927  -0.010
 1879SOL    HW1 5772   0.787   3.854   0.048
 1879SOL    HW2 5773   0.793   4.005   0.036
 1880SOL     OW 5774   3.157   1.367   3.623
 1880SOL    HW1 5775   3.181   1.282   3.587
 1880SOL    HW2 5776   3.104   1.408   3.556
 1881SOL     OW 5777   3.931   1.431   2.565
 1881SOL    HW1 5778   3.966   1.519   2.580
 1881SOL    HW2 5779   3.961   1.380   2.640
 1882SOL     OW 5780   0.557   1.638   3.283
 1882SOL    HW1 5781   0.504   1.716   3.302
 1882SOL    HW2 5782   0.550   1.627   3.188
 1883SOL     OW 5783   2.446   3.267   3.382
 1883SOL    HW1 5784   2.447   3.334   3.313
 1883SOL    HW2 5785   2.430   3.185   3.336
 1884SOL     OW 5786   1.274   0.593   0.271
 1884SOL    HW1 5787   1.213   0.589   0.344
 1884SOL    HW2 5788   1.273   0.684   0.243
 1885SOL     OW 5789   3.427   2.988   1.526
 1885SOL    HW1 5790   3.395   3.077   1.509
 1885SOL    HW2 5791   3.506   3.001   1.579
 1886SOL     OW 5792   3.732   3.013   0.423
 1886SOL    HW1 5793   3.725   3.107   0.436
 1886SOL    HW2 5794   3.779   3.003   0.340
 1887SOL     OW 5795   3.439   3.042   0.521
 1887SOL    HW1 5796   3.413   3.037   0.429
 1887SOL    HW2 5797   3.527   3.005   0.523
 1888SOL     OW 5798   0.011   1.045   3.937
 1888SOL    HW1 5799   0.010   1.077   3.847
 1888SOL    HW2 5800   0.014   0.950   3.929
 1889SOL     OW 5801   3.098   0.219   3.597
 1889SOL    HW1 5802   3.083   0.151   3.662
 1889SOL    HW2 5803   3.164   0.276   3.636
 1890SOL     OW 5804   2.447   1.580   1.222
 1890SOL    HW1 5805   2.424   1.509   1.162
 1890SOL    HW2 5806   2.369   1.594   1.275
 1891SOL     OW 5807   0.537   0.185   3.417
 1891SOL    HW1 5808   0.518   0.223   3.502
 1891SOL    HW2 5809   0.593   0.249   3.373
 1892SOL     OW 5810   0.920   1.822   2.065
 1892SOL    HW1 5811   0.929   1.915   2.088
 1892SOL    HW2 5812   1.002   1.801   2.019
 1893SOL     OW 5813   2.185   0.841   3.266
 1893SOL    HW1 5814   2.201   0.754   3.231
 1893SOL    HW2 5815   2.167   0.827   3.359
 1894SOL     OW 5816   0.844   0.922   0.037
 1894SOL    HW1 5817   0.761   0.955   0.073
 1894SOL    HW2 5818   0.883   0.872   0.109
 1895SOL     OW 5819   3.533   0.088   3.926
 1895SOL    HW1 5820   3.564  -0.003   3.928
 1895SOL    HW2 5821   3.554   0.118   3.838
 1896SOL     OW 5822   2.404   2.647   2.740
 1896SOL    HW1 5823   2.407   2.638   2.645
 1896SOL    HW2 5824   2.470   2.585   2.772
 1897SOL     OW 5825   0.167   0.365   2.363
 1897SOL    HW1 5826   0.247   0.314   2.346
 1897SOL    HW2 5827   0.147   0.408   2.280
 1898SOL     OW 5828   0.572   3.743   3.781
 1898SOL    HW1 5829   0.561   3.708   3.870
 1898SOL    HW2 5830   0.657   3.786   3.782
 1899SOL     OW 5831   2.028   3.939   0.271
 1899SOL    HW1 5832   2.065   3.853   0.289
 1899SOL    HW2 5833   2.062   3.995   0.340
 1900SOL     OW 5834   3.652   2.722   0.264
 1900SOL    HW1 5835   3.689   2.692   0.347
 1900SOL    HW2 5836   3.561   2.746   0.285
 1901SOL     OW 5837   3.773   0.768   3.765
 1901SOL    HW1 5838   3.854   0.735   3.727
 1901SOL    HW2 5839   3.782   0.863   3.764
 1902SOL     OW 5840   1.176   0.487   3.558
 1902SOL    HW1 5841   1.214   0.538   3.486
 1902SOL    HW2 5842   1.226   0.406   3.558
 1903SOL     OW 5843   2.064   2.297   0.176
 1903SOL    HW1 5844   1.977   2.259   0.165
 1903SOL    HW2 5845   2.092   2.269   0.264
 1904SOL     OW 5846   2.020   2.698   1.623
 1904SOL    HW1 5847   1.973   2.776   1.592
 1904SOL    HW2 5848   2.004   2.632   1.555
 1905SOL     OW 5849   3.388   0.057   2.395
 1905SOL    HW1 5850   3.427   0.117   2.332
 1905SOL    HW2 5851   3.434   0.075   2.477
 1906SOL     OW 5852   3.425   3.750   1.124
 1906SOL    HW1 5853   3.480   3.828   1.126
 1906SOL    HW2 5854   3.380   3.755   1.039
 1907SOL     OW 5855   1.325   1.747   1.409
 1907SOL    HW1 5856   1.231   1.756   1.429
 1907SOL    HW2 5857   1.368   1.806   1.472
 1908SOL     OW 5858   1.706   1.909   1.253
 1908SOL    HW1 5859   1.678   1.992   1.290
 1908SOL    HW2 5860   1.792   1.928   1.214
 1909SOL     OW 5861   1.411   2.963   0.473
 1909SOL    HW1 5862   1.488   2.985   0.527
 1909SOL    HW2 5863   1.404   2.868   0.481
 1910SOL     OW 5864   0.206   1.927   0.154
 1910SOL    HW1 5865   0.253   2.003   0.119
 1910SOL    HW2 5866   0.262   1.894   0.224
 1911SOL     OW 5867   1.015   2.901   1.478
 1911SOL    HW1 5868   0.926   2.894   1.441
 1911SOL    HW2 5869   1.002   2.889   1.572
 1912SOL     OW 5870   0.369   2.120   3.277
 1912SOL    HW1 5871   0.296   2.157   3.326
 1912SOL    HW2 5872   0.362   2.159   3.190
 1913SOL     OW 5873   0.577   3.863   0.502
 1913SOL    HW1 5874   0.493   3.905   0.520
 1913SOL    HW2 5875   0.642   3.922   0.540
 1914SOL     OW 5876   1.107   1.629   3.177
 1914SOL    HW1 5877   1.017   1.662   3.171
 1914SOL    HW2 5878   1.112   1.563   3.107
 1915SOL     OW 5879   0.084   1.124   3.168
 1915SOL    HW1 5880   0.040   1.148   3.087
 1915SOL    HW2 5881   0.173   1.103   3.142
 1916SOL     OW 5882   3.579   3.324   2.816
 1916SOL    HW1 5883   3.574   3.243   2.868
 1916SOL    HW2 5884   3.569   3.295   2.725
 1917SOL     OW 5885   2.468   3.384   3.877
 1917SOL    HW1 5886   2.411   3.354   3.948
 1917SOL    HW2 5887   2.533   3.314   3.867
 1918NA      NA 5888   0.922   1.537   1.696
 1919NA      NA 5889   1.669   1.992   3.658
   3.96100   3.96100   3.96100   0.00000   0.00000   0.00000   0.00000   0.00000   0.00000
