Generated with MDTraj, t= 34432.0
 5889
    1TYR      N    1   0.976   3.964   2.197
    1TYR     H1    2   0.962   3.993   2.098
    1TYR     H2    3   1.063   4.014   2.223
    1TYR     H3    4   0.997   3.862   2.193
    1TYR     CA    5   0.864   3.976   2.297
    1TYR     HA    6   0.897   3.929   2.388
    1TYR     CB    7   0.836   4.130   2.336
    1TYR    HB1    8   0.930   4.167   2.382
    1TYR    HB2    9   0.806   4.185   2.244
    1TYR     CG   10   0.724   4.149   2.442
    1TYR    CD1   11   0.596   4.189   2.396
    1TYR    HD1   12   0.575   4.210   2.293
    1TYR    CE1   13   0.493   4.197   2.495
    1TYR    HE1   14   0.391   4.225   2.472
    1TYR     CZ   15   0.519   4.172   2.626
    1TYR     OH   16   0.408   4.187   2.718
    1TYR     HH   17   0.445   4.167   2.805
    1TYR    CD2   18   0.749   4.142   2.581
    1TYR    HD2   19   0.849   4.130   2.620
    1TYR    CE2   20   0.650   4.143   2.671
    1TYR    HE2   21   0.668   4.127   2.776
    1TYR      C   22   0.735   3.905   2.242
    1TYR      O   23   0.715   3.899   2.116
    2TYR      N   24   0.652   3.843   2.322
    2TYR     HN   25   0.662   3.862   2.419
    2TYR     CA   26   0.551   3.749   2.275
    2TYR     HA   27   0.607   3.689   2.206
    2TYR     CB   28   0.486   3.660   2.382
    2TYR    HB1   29   0.428   3.584   2.325
    2TYR    HB2   30   0.572   3.612   2.433
    2TYR     CG   31   0.405   3.733   2.485
    2TYR    CD1   32   0.462   3.782   2.589
    2TYR    HD1   33   0.570   3.791   2.597
    2TYR    CE1   34   0.389   3.845   2.696
    2TYR    HE1   35   0.451   3.886   2.774
    2TYR     CZ   36   0.251   3.844   2.693
    2TYR     OH   37   0.187   3.888   2.804
    2TYR     HH   38   0.093   3.887   2.786
    2TYR    CD2   39   0.268   3.740   2.473
    2TYR    HD2   40   0.220   3.700   2.385
    2TYR    CE2   41   0.187   3.792   2.577
    2TYR    HE2   42   0.080   3.780   2.581
    2TYR      C   43   0.448   3.818   2.196
    2TYR      O   44   0.397   3.920   2.237
    3ASP      N   45   0.407   3.764   2.077
    3ASP     HN   46   0.454   3.685   2.039
    3ASP     CA   47   0.297   3.832   2.000
    3ASP     HA   48   0.230   3.878   2.072
    3ASP     CB   49   0.352   3.949   1.916
    3ASP    HB1   50   0.420   4.012   1.977
    3ASP    HB2   51   0.404   3.916   1.824
    3ASP     CG   52   0.247   4.050   1.876
    3ASP    OD1   53   0.182   4.109   1.965
    3ASP    OD2   54   0.225   4.058   1.753
    3ASP      C   55   0.221   3.732   1.915
    3ASP      O   56   0.277   3.671   1.828
    4PRO      N   57   0.090   3.711   1.943
    4PRO     CD   58   0.005   3.794   2.035
    4PRO    HD1   59   0.033   3.902   2.031
    4PRO    HD2   60   0.036   3.767   2.139
    4PRO     CA   61   0.009   3.618   1.863
    4PRO     HA   62   0.046   3.516   1.862
    4PRO     CB   63  -0.126   3.623   1.929
    4PRO    HB1   64  -0.208   3.616   1.855
    4PRO    HB2   65  -0.132   3.541   2.004
    4PRO     CG   66  -0.136   3.757   2.005
    4PRO    HG1   67  -0.162   3.836   1.931
    4PRO    HG2   68  -0.207   3.755   2.091
    4PRO      C   69   0.006   3.662   1.719
    4PRO      O   70   0.002   3.583   1.625
    5GLU      N   71   0.006   3.796   1.689
    5GLU     HN   72   0.015   3.858   1.767
    5GLU     CA   73  -0.018   3.848   1.555
    5GLU     HA   74  -0.112   3.809   1.520
    5GLU     CB   75  -0.048   4.001   1.568
    5GLU    HB1   76   0.021   4.049   1.641
    5GLU    HB2   77  -0.037   4.041   1.466
    5GLU     CG   78  -0.197   4.033   1.607
    5GLU    HG1   79  -0.235   3.974   1.694
    5GLU    HG2   80  -0.198   4.142   1.626
    5GLU     CD   81  -0.293   4.013   1.489
    5GLU    OE1   82  -0.369   3.917   1.497
    5GLU    OE2   83  -0.291   4.084   1.387
    5GLU      C   84   0.094   3.829   1.455
    5GLU      O   85   0.080   3.771   1.348
    6THR      N   86   0.214   3.853   1.508
    6THR     HN   87   0.214   3.889   1.601
    6THR     CA   88   0.344   3.845   1.444
    6THR     HA   89   0.341   3.870   1.339
    6THR     CB   90   0.445   3.932   1.527
    6THR     HB   91   0.448   3.887   1.628
    6THR    OG1   92   0.392   4.066   1.524
    6THR    HG1   93   0.378   4.079   1.618
    6THR    CG2   94   0.581   3.939   1.459
    6THR   HG21   95   0.632   3.841   1.447
    6THR   HG22   96   0.581   3.986   1.358
    6THR   HG23   97   0.641   4.009   1.520
    6THR      C   98   0.405   3.700   1.451
    6THR      O   99   0.494   3.663   1.377
    7GLY      N  100   0.354   3.618   1.538
    7GLY     HN  101   0.291   3.658   1.604
    7GLY     CA  102   0.402   3.481   1.561
    7GLY    HA1  103   0.324   3.436   1.621
    7GLY    HA2  104   0.409   3.429   1.467
    7GLY      C  105   0.526   3.461   1.623
    7GLY      O  106   0.587   3.359   1.597
    8THR      N  107   0.568   3.551   1.706
    8THR     HN  108   0.519   3.636   1.719
    8THR     CA  109   0.692   3.531   1.790
    8THR     HA  110   0.751   3.446   1.759
    8THR     CB  111   0.787   3.652   1.785
    8THR     HB  112   0.873   3.617   1.845
    8THR    OG1  113   0.724   3.767   1.838
    8THR    HG1  114   0.710   3.749   1.931
    8THR    CG2  115   0.834   3.683   1.642
    8THR   HG21  116   0.744   3.722   1.589
    8THR   HG22  117   0.899   3.772   1.657
    8THR   HG23  118   0.876   3.598   1.584
    8THR      C  119   0.654   3.495   1.928
    8THR      O  120   0.560   3.546   1.980
    9TRP      N  121   0.723   3.394   1.993
    9TRP     HN  122   0.799   3.347   1.948
    9TRP     CA  123   0.690   3.353   2.133
    9TRP     HA  124   0.636   3.431   2.184
    9TRP     CB  125   0.606   3.219   2.136
    9TRP    HB1  126   0.659   3.132   2.092
    9TRP    HB2  127   0.560   3.194   2.234
    9TRP     CG  128   0.478   3.239   2.065
    9TRP    CD1  129   0.445   3.214   1.931
    9TRP    HD1  130   0.502   3.157   1.860
    9TRP    NE1  131   0.317   3.258   1.913
    9TRP    HE1  132   0.262   3.280   1.835
    9TRP    CE2  133   0.260   3.307   2.030
    9TRP    CD2  134   0.363   3.310   2.123
    9TRP    CE3  135   0.337   3.360   2.252
    9TRP    HE3  136   0.419   3.364   2.322
    9TRP    CZ3  137   0.211   3.419   2.279
    9TRP    HZ3  138   0.201   3.474   2.371
    9TRP    CZ2  139   0.129   3.345   2.065
    9TRP    HZ2  140   0.053   3.337   1.988
    9TRP    CH2  141   0.107   3.407   2.187
    9TRP    HH2  142   0.016   3.460   2.212
    9TRP      C  143   0.812   3.344   2.223
    9TRP      O  144   0.912   3.410   2.202
   10TYR      N  145   0.796   3.274   2.329
   10TYR     HN  146   0.712   3.234   2.364
   10TYR     CA  147   0.899   3.238   2.418
   10TYR     HA  148   0.995   3.277   2.389
   10TYR     CB  149   0.868   3.287   2.560
   10TYR    HB1  150   0.775   3.242   2.602
   10TYR    HB2  151   0.951   3.248   2.622
   10TYR     CG  152   0.865   3.437   2.569
   10TYR    CD1  153   0.754   3.495   2.642
   10TYR    HD1  154   0.684   3.424   2.682
   10TYR    CE1  155   0.753   3.629   2.683
   10TYR    HE1  156   0.680   3.666   2.754
   10TYR     CZ  157   0.850   3.717   2.623
   10TYR     OH  158   0.832   3.853   2.640
   10TYR     HH  159   0.874   3.866   2.726
   10TYR    CD2  160   0.957   3.523   2.514
   10TYR    HD2  161   1.028   3.486   2.442
   10TYR    CE2  162   0.952   3.667   2.535
   10TYR    HE2  163   1.015   3.733   2.476
   10TYR      C  164   0.929   3.086   2.423
   10TYR    OT1  165   1.045   3.045   2.405
   10TYR    OT2  166   0.832   3.016   2.441
   11SOL     OW  167   0.192   3.518   3.066
   11SOL    HW1  168   0.173   3.533   3.158
   11SOL    HW2  169   0.238   3.596   3.037
   12SOL     OW  170   0.309   2.097   1.384
   12SOL    HW1  171   0.226   2.119   1.424
   12SOL    HW2  172   0.331   2.173   1.330
   13SOL     OW  173   1.812   2.176   1.925
   13SOL    HW1  174   1.760   2.248   1.961
   13SOL    HW2  175   1.879   2.219   1.872
   14SOL     OW  176   1.101   3.475   2.776
   14SOL    HW1  177   1.177   3.454   2.722
   14SOL    HW2  178   1.030   3.490   2.714
   15SOL     OW  179   2.916   0.112   1.341
   15SOL    HW1  180   2.960   0.197   1.339
   15SOL    HW2  181   2.882   0.101   1.252
   16SOL     OW  182   0.828   3.515   0.618
   16SOL    HW1  183   0.766   3.506   0.690
   16SOL    HW2  184   0.903   3.461   0.644
   17SOL     OW  185   1.235   1.606   0.349
   17SOL    HW1  186   1.145   1.574   0.345
   17SOL    HW2  187   1.250   1.646   0.263
   18SOL     OW  188   3.486   2.869   2.021
   18SOL    HW1  189   3.441   2.944   1.982
   18SOL    HW2  190   3.459   2.795   1.967
   19SOL     OW  191   3.550   2.173   2.365
   19SOL    HW1  192   3.623   2.117   2.341
   19SOL    HW2  193   3.545   2.166   2.461
   20SOL     OW  194   0.898   3.771   3.952
   20SOL    HW1  195   0.873   3.695   3.900
   20SOL    HW2  196   0.845   3.843   3.919
   21SOL     OW  197   2.317   0.996   1.021
   21SOL    HW1  198   2.279   1.082   1.001
   21SOL    HW2  199   2.241   0.940   1.038
   22SOL     OW  200   1.242   1.921   2.638
   22SOL    HW1  201   1.225   1.973   2.716
   22SOL    HW2  202   1.327   1.952   2.606
   23SOL     OW  203   2.179   0.601   0.243
   23SOL    HW1  204   2.233   0.630   0.170
   23SOL    HW2  205   2.105   0.556   0.202
   24SOL     OW  206   0.317   1.617   2.912
   24SOL    HW1  207   0.278   1.535   2.943
   24SOL    HW2  208   0.247   1.660   2.864
   25SOL     OW  209   3.193   3.122   2.702
   25SOL    HW1  210   3.277   3.123   2.656
   25SOL    HW2  211   3.171   3.030   2.711
   26SOL     OW  212   3.831   2.489   2.406
   26SOL    HW1  213   3.882   2.475   2.485
   26SOL    HW2  214   3.877   2.439   2.338
   27SOL     OW  215   3.758   0.280   0.803
   27SOL    HW1  216   3.679   0.274   0.749
   27SOL    HW2  217   3.762   0.197   0.849
   28SOL     OW  218   3.039   3.755   3.890
   28SOL    HW1  219   2.987   3.771   3.968
   28SOL    HW2  220   2.975   3.737   3.821
   29SOL     OW  221   2.550   3.607   3.806
   29SOL    HW1  222   2.465   3.563   3.814
   29SOL    HW2  223   2.603   3.548   3.754
   30SOL     OW  224   0.081   2.411   2.574
   30SOL    HW1  225   0.097   2.374   2.661
   30SOL    HW2  226   0.149   2.478   2.563
   31SOL     OW  227   1.854   1.142   1.406
   31SOL    HW1  228   1.880   1.210   1.344
   31SOL    HW2  229   1.916   1.151   1.478
   32SOL     OW  230   0.305   0.716   2.867
   32SOL    HW1  231   0.237   0.765   2.913
   32SOL    HW2  232   0.262   0.685   2.787
   33SOL     OW  233   2.664   0.400   1.294
   33SOL    HW1  234   2.598   0.407   1.225
   33SOL    HW2  235   2.614   0.396   1.375
   34SOL     OW  236   1.055   0.423   3.783
   34SOL    HW1  237   1.011   0.488   3.838
   34SOL    HW2  238   0.987   0.393   3.723
   35SOL     OW  239   0.480   3.541   3.870
   35SOL    HW1  240   0.575   3.545   3.864
   35SOL    HW2  241   0.461   3.453   3.903
   36SOL     OW  242   2.224   3.337   0.980
   36SOL    HW1  243   2.216   3.372   0.891
   36SOL    HW2  244   2.317   3.315   0.989
   37SOL     OW  245   1.248   2.616   3.713
   37SOL    HW1  246   1.166   2.661   3.734
   37SOL    HW2  247   1.312   2.687   3.708
   38SOL     OW  248   1.731   3.451   2.445
   38SOL    HW1  249   1.697   3.538   2.423
   38SOL    HW2  250   1.670   3.391   2.401
   39SOL     OW  251   2.766   0.369   2.628
   39SOL    HW1  252   2.701   0.333   2.689
   39SOL    HW2  253   2.737   0.459   2.612
   40SOL     OW  254   3.203   3.249   0.997
   40SOL    HW1  255   3.217   3.251   0.903
   40SOL    HW2  256   3.131   3.310   1.012
   41SOL     OW  257   2.284   0.700   0.740
   41SOL    HW1  258   2.271   0.642   0.665
   41SOL    HW2  259   2.228   0.663   0.809
   42SOL     OW  260   0.607   2.954   2.898
   42SOL    HW1  261   0.580   2.872   2.857
   42SOL    HW2  262   0.687   2.979   2.852
   43SOL     OW  263   3.376   1.511   2.170
   43SOL    HW1  264   3.351   1.539   2.082
   43SOL    HW2  265   3.467   1.483   2.161
   44SOL     OW  266   0.866   0.130   3.106
   44SOL    HW1  267   0.802   0.200   3.123
   44SOL    HW2  268   0.865   0.077   3.186
   45SOL     OW  269   0.753   0.394   3.685
   45SOL    HW1  270   0.710   0.479   3.686
   45SOL    HW2  271   0.774   0.379   3.593
   46SOL     OW  272   2.497   2.511   3.354
   46SOL    HW1  273   2.579   2.548   3.386
   46SOL    HW2  274   2.453   2.478   3.432
   47SOL     OW  275   1.104   2.975   3.000
   47SOL    HW1  276   1.104   2.968   2.904
   47SOL    HW2  277   1.035   2.915   3.028
   48SOL     OW  278   1.703   1.102   0.022
   48SOL    HW1  279   1.690   1.115   0.116
   48SOL    HW2  280   1.753   1.021   0.017
   49SOL     OW  281   1.147   2.398   3.194
   49SOL    HW1  282   1.080   2.375   3.130
   49SOL    HW2  283   1.183   2.314   3.222
   50SOL     OW  284   2.684   2.039   0.087
   50SOL    HW1  285   2.726   1.983   0.153
   50SOL    HW2  286   2.756   2.089   0.049
   51SOL     OW  287   2.488   0.072   1.963
   51SOL    HW1  288   2.468  -0.022   1.958
   51SOL    HW2  289   2.420   0.114   1.910
   52SOL     OW  290   1.560   1.787   1.465
   52SOL    HW1  291   1.640   1.837   1.447
   52SOL    HW2  292   1.566   1.765   1.558
   53SOL     OW  293   0.348   2.558   3.346
   53SOL    HW1  294   0.442   2.567   3.333
   53SOL    HW2  295   0.317   2.510   3.269
   54SOL     OW  296   3.302   0.559   1.619
   54SOL    HW1  297   3.220   0.520   1.648
   54SOL    HW2  298   3.303   0.544   1.524
   55SOL     OW  299   1.173   3.545   0.648
   55SOL    HW1  300   1.138   3.466   0.690
   55SOL    HW2  301   1.226   3.512   0.575
   56SOL     OW  302   2.224   1.261   3.661
   56SOL    HW1  303   2.249   1.181   3.707
   56SOL    HW2  304   2.259   1.250   3.572
   57SOL     OW  305   0.818   0.352   1.779
   57SOL    HW1  306   0.800   0.284   1.844
   57SOL    HW2  307   0.880   0.312   1.718
   58SOL     OW  308   2.570   3.542   0.712
   58SOL    HW1  309   2.563   3.635   0.734
   58SOL    HW2  310   2.645   3.510   0.763
   59SOL     OW  311   1.639   0.742   3.284
   59SOL    HW1  312   1.584   0.819   3.266
   59SOL    HW2  313   1.697   0.770   3.355
   60SOL     OW  314   1.133   0.921   2.335
   60SOL    HW1  315   1.132   0.902   2.241
   60SOL    HW2  316   1.043   0.904   2.364
   61SOL     OW  317   2.514   1.201   1.685
   61SOL    HW1  318   2.577   1.240   1.746
   61SOL    HW2  319   2.446   1.164   1.741
   62SOL     OW  320   0.294   0.226   3.156
   62SOL    HW1  321   0.246   0.291   3.104
   62SOL    HW2  322   0.359   0.192   3.095
   63SOL     OW  323   2.600   2.065   2.793
   63SOL    HW1  324   2.536   2.087   2.860
   63SOL    HW2  325   2.568   1.984   2.754
   64SOL     OW  326   1.316   1.638   1.586
   64SOL    HW1  327   1.381   1.701   1.615
   64SOL    HW2  328   1.343   1.555   1.626
   65SOL     OW  329   2.672   1.640   3.340
   65SOL    HW1  330   2.629   1.715   3.299
   65SOL    HW2  331   2.602   1.599   3.392
   66SOL     OW  332   1.751   3.348   2.902
   66SOL    HW1  333   1.825   3.406   2.884
   66SOL    HW2  334   1.689   3.367   2.832
   67SOL     OW  335   2.104   3.491   1.168
   67SOL    HW1  336   2.143   3.427   1.109
   67SOL    HW2  337   2.072   3.439   1.242
   68SOL     OW  338   1.034   1.339   1.478
   68SOL    HW1  339   0.965   1.289   1.434
   68SOL    HW2  340   0.992   1.421   1.502
   69SOL     OW  341   1.231   0.585   3.524
   69SOL    HW1  342   1.161   0.644   3.496
   69SOL    HW2  343   1.195   0.537   3.598
   70SOL     OW  344   2.262   2.361   1.247
   70SOL    HW1  345   2.252   2.409   1.165
   70SOL    HW2  346   2.175   2.324   1.263
   71SOL     OW  347   3.754   3.217   3.506
   71SOL    HW1  348   3.735   3.138   3.557
   71SOL    HW2  349   3.674   3.234   3.457
   72SOL     OW  350   2.917   3.259   2.943
   72SOL    HW1  351   2.953   3.345   2.923
   72SOL    HW2  352   2.823   3.269   2.927
   73SOL     OW  353   3.461   3.182   1.077
   73SOL    HW1  354   3.504   3.131   1.008
   73SOL    HW2  355   3.373   3.198   1.044
   74SOL     OW  356   1.423   3.222   3.539
   74SOL    HW1  357   1.472   3.211   3.620
   74SOL    HW2  358   1.332   3.229   3.567
   75SOL     OW  359   1.072   0.145   0.842
   75SOL    HW1  360   1.046   0.072   0.898
   75SOL    HW2  361   1.110   0.104   0.764
   76SOL     OW  362   0.790   3.242   1.268
   76SOL    HW1  363   0.873   3.287   1.252
   76SOL    HW2  364   0.724   3.299   1.227
   77SOL     OW  365   0.406   2.511   1.406
   77SOL    HW1  366   0.468   2.575   1.372
   77SOL    HW2  367   0.414   2.436   1.347
   78SOL     OW  368   3.192   1.834   3.091
   78SOL    HW1  369   3.172   1.868   3.178
   78SOL    HW2  370   3.272   1.881   3.065
   79SOL     OW  371   2.444   3.876   1.563
   79SOL    HW1  372   2.512   3.815   1.533
   79SOL    HW2  373   2.406   3.911   1.482
   80SOL     OW  374   2.955   2.868   0.046
   80SOL    HW1  375   3.011   2.795   0.070
   80SOL    HW2  376   2.991   2.900  -0.037
   81SOL     OW  377   2.693   1.544   1.005
   81SOL    HW1  378   2.755   1.493   0.953
   81SOL    HW2  379   2.657   1.481   1.068
   82SOL     OW  380   1.705   2.823   0.896
   82SOL    HW1  381   1.702   2.769   0.974
   82SOL    HW2  382   1.780   2.881   0.909
   83SOL     OW  383   3.559   3.279   0.549
   83SOL    HW1  384   3.596   3.323   0.626
   83SOL    HW2  385   3.555   3.186   0.574
   84SOL     OW  386   1.398   3.005   1.332
   84SOL    HW1  387   1.433   2.982   1.246
   84SOL    HW2  388   1.330   3.070   1.314
   85SOL     OW  389   3.330   3.885   1.135
   85SOL    HW1  390   3.349   3.838   1.054
   85SOL    HW2  391   3.363   3.974   1.119
   86SOL     OW  392   3.181   2.723   0.754
   86SOL    HW1  393   3.090   2.696   0.765
   86SOL    HW2  394   3.180   2.776   0.674
   87SOL     OW  395   2.216   3.582   1.630
   87SOL    HW1  396   2.285   3.595   1.565
   87SOL    HW2  397   2.203   3.669   1.668
   88SOL     OW  398   2.075   0.811   2.979
   88SOL    HW1  399   2.108   0.862   3.053
   88SOL    HW2  400   1.981   0.831   2.976
   89SOL     OW  401   0.157   2.677   2.591
   89SOL    HW1  402   0.180   2.754   2.643
   89SOL    HW2  403   0.162   2.708   2.500
   90SOL     OW  404   1.336   2.807   0.038
   90SOL    HW1  405   1.335   2.788   0.132
   90SOL    HW2  406   1.415   2.765   0.006
   91SOL     OW  407   1.406   1.409   1.705
   91SOL    HW1  408   1.474   1.363   1.754
   91SOL    HW2  409   1.357   1.340   1.660
   92SOL     OW  410   1.640   2.820   2.668
   92SOL    HW1  411   1.581   2.751   2.637
   92SOL    HW2  412   1.726   2.778   2.674
   93SOL     OW  413   0.139   2.938   1.843
   93SOL    HW1  414   0.186   2.979   1.916
   93SOL    HW2  415   0.207   2.903   1.786
   94SOL     OW  416   2.168   3.336   1.551
   94SOL    HW1  417   2.167   3.428   1.578
   94SOL    HW2  418   2.256   3.306   1.573
   95SOL     OW  419   0.484   2.105   2.915
   95SOL    HW1  420   0.510   2.146   2.832
   95SOL    HW2  421   0.485   2.011   2.896
   96SOL     OW  422   0.723   0.228   1.133
   96SOL    HW1  423   0.728   0.202   1.224
   96SOL    HW2  424   0.757   0.318   1.132
   97SOL     OW  425   3.318   1.078   1.743
   97SOL    HW1  426   3.338   1.155   1.796
   97SOL    HW2  427   3.399   1.060   1.696
   98SOL     OW  428   0.511   3.894   3.182
   98SOL    HW1  429   0.518   3.956   3.254
   98SOL    HW2  430   0.556   3.816   3.213
   99SOL     OW  431   3.346   2.461   2.662
   99SOL    HW1  432   3.276   2.428   2.718
   99SOL    HW2  433   3.424   2.460   2.717
  100SOL     OW  434   3.776   1.816   2.258
  100SOL    HW1  435   3.690   1.853   2.276
  100SOL    HW2  436   3.761   1.752   2.188
  101SOL     OW  437   2.381   3.618   1.383
  101SOL    HW1  438   2.389   3.581   1.296
  101SOL    HW2  439   2.443   3.691   1.384
  102SOL     OW  440   3.084   2.813   2.714
  102SOL    HW1  441   3.015   2.833   2.777
  102SOL    HW2  442   3.047   2.744   2.659
  103SOL     OW  443   2.863   0.572   2.941
  103SOL    HW1  444   2.770   0.566   2.917
  103SOL    HW2  445   2.878   0.666   2.954
  104SOL     OW  446   3.645   2.343   2.595
  104SOL    HW1  447   3.576   2.354   2.530
  104SOL    HW2  448   3.598   2.339   2.679
  105SOL     OW  449   1.233   3.230   1.291
  105SOL    HW1  450   1.151   3.241   1.244
  105SOL    HW2  451   1.290   3.300   1.258
  106SOL     OW  452   3.718   3.405   1.099
  106SOL    HW1  453   3.763   3.483   1.131
  106SOL    HW2  454   3.635   3.404   1.147
  107SOL     OW  455   3.363   2.530   3.016
  107SOL    HW1  456   3.374   2.625   3.018
  107SOL    HW2  457   3.450   2.497   2.990
  108SOL     OW  458   2.344   1.436   2.921
  108SOL    HW1  459   2.366   1.481   3.004
  108SOL    HW2  460   2.300   1.503   2.869
  109SOL     OW  461   3.072   2.341   0.661
  109SOL    HW1  462   3.014   2.403   0.617
  109SOL    HW2  463   3.067   2.262   0.607
  110SOL     OW  464   2.301   1.590   2.028
  110SOL    HW1  465   2.281   1.504   1.992
  110SOL    HW2  466   2.304   1.577   2.122
  111SOL     OW  467   2.913   2.407   1.814
  111SOL    HW1  468   2.939   2.388   1.724
  111SOL    HW2  469   2.941   2.331   1.864
  112SOL     OW  470   0.023   1.148   3.396
  112SOL    HW1  471  -0.031   1.204   3.451
  112SOL    HW2  472   0.112   1.183   3.407
  113SOL     OW  473   2.552   1.292   3.140
  113SOL    HW1  474   2.628   1.325   3.092
  113SOL    HW2  475   2.540   1.355   3.212
  114SOL     OW  476   2.285   1.541   0.997
  114SOL    HW1  477   2.325   1.476   1.055
  114SOL    HW2  478   2.290   1.501   0.910
  115SOL     OW  479   1.694   1.742   2.417
  115SOL    HW1  480   1.753   1.813   2.393
  115SOL    HW2  481   1.608   1.769   2.385
  116SOL     OW  482   0.699   3.899   3.706
  116SOL    HW1  483   0.658   3.922   3.790
  116SOL    HW2  484   0.649   3.949   3.641
  117SOL     OW  485   2.584   1.780   1.772
  117SOL    HW1  486   2.588   1.788   1.677
  117SOL    HW2  487   2.655   1.836   1.804
  118SOL     OW  488   1.122   3.897   3.343
  118SOL    HW1  489   1.202   3.857   3.309
  118SOL    HW2  490   1.060   3.893   3.270
  119SOL     OW  491   2.408   0.469   3.457
  119SOL    HW1  492   2.440   0.437   3.541
  119SOL    HW2  493   2.475   0.531   3.429
  120SOL     OW  494   2.105   3.025   0.149
  120SOL    HW1  495   2.108   3.074   0.231
  120SOL    HW2  496   2.186   2.973   0.149
  121SOL     OW  497   1.949   0.541   1.689
  121SOL    HW1  498   1.920   0.502   1.772
  121SOL    HW2  499   1.880   0.603   1.667
  122SOL     OW  500   0.667   0.349   3.042
  122SOL    HW1  501   0.747   0.399   3.057
  122SOL    HW2  502   0.604   0.386   3.103
  123SOL     OW  503   1.170   1.154   3.501
  123SOL    HW1  504   1.212   1.115   3.577
  123SOL    HW2  505   1.110   1.220   3.538
  124SOL     OW  506   0.880   0.556   0.784
  124SOL    HW1  507   0.850   0.632   0.835
  124SOL    HW2  508   0.819   0.486   0.806
  125SOL     OW  509   2.982   1.700   1.880
  125SOL    HW1  510   3.075   1.719   1.882
  125SOL    HW2  511   2.975   1.609   1.910
  126SOL     OW  512   0.053   1.896   0.201
  126SOL    HW1  513   0.123   1.840   0.167
  126SOL    HW2  514  -0.010   1.835   0.238
  127SOL     OW  515   1.616   0.293   3.480
  127SOL    HW1  516   1.582   0.383   3.473
  127SOL    HW2  517   1.565   0.243   3.416
  128SOL     OW  518   1.961   3.940   0.458
  128SOL    HW1  519   1.967   3.998   0.534
  128SOL    HW2  520   2.026   3.872   0.475
  129SOL     OW  521   2.460   3.272   3.194
  129SOL    HW1  522   2.401   3.197   3.186
  129SOL    HW2  523   2.470   3.304   3.105
  130SOL     OW  524   3.349   2.371   1.672
  130SOL    HW1  525   3.282   2.336   1.613
  130SOL    HW2  526   3.320   2.342   1.759
  131SOL     OW  527   3.901   3.524   2.639
  131SOL    HW1  528   3.883   3.546   2.730
  131SOL    HW2  529   3.976   3.466   2.643
  132SOL     OW  530   1.743   1.945   2.054
  132SOL    HW1  531   1.782   2.021   2.010
  132SOL    HW2  532   1.654   1.973   2.077
  133SOL     OW  533   0.844   0.598   3.081
  133SOL    HW1  534   0.876   0.613   3.170
  133SOL    HW2  535   0.837   0.686   3.044
  134SOL     OW  536   3.268   3.640   0.377
  134SOL    HW1  537   3.359   3.616   0.393
  134SOL    HW2  538   3.267   3.736   0.386
  135SOL     OW  539   3.527   0.079   3.760
  135SOL    HW1  540   3.473   0.033   3.824
  135SOL    HW2  541   3.616   0.071   3.794
  136SOL     OW  542   1.131   3.626   1.547
  136SOL    HW1  543   1.210   3.623   1.492
  136SOL    HW2  544   1.103   3.535   1.552
  137SOL     OW  545   2.814   1.098   3.227
  137SOL    HW1  546   2.888   1.156   3.210
  137SOL    HW2  547   2.743   1.133   3.174
  138SOL     OW  548   3.451   3.374   1.251
  138SOL    HW1  549   3.449   3.311   1.179
  138SOL    HW2  550   3.524   3.346   1.307
  139SOL     OW  551   3.625   2.768   3.788
  139SOL    HW1  552   3.598   2.809   3.706
  139SOL    HW2  553   3.550   2.780   3.847
  140SOL     OW  554   3.658   2.171   1.267
  140SOL    HW1  555   3.643   2.224   1.189
  140SOL    HW2  556   3.572   2.134   1.288
  141SOL     OW  557   1.603   0.309   1.509
  141SOL    HW1  558   1.607   0.386   1.453
  141SOL    HW2  559   1.673   0.252   1.476
  142SOL     OW  560   2.432   2.876   0.494
  142SOL    HW1  561   2.386   2.816   0.435
  142SOL    HW2  562   2.508   2.905   0.443
  143SOL     OW  563   0.677   2.508   1.771
  143SOL    HW1  564   0.711   2.590   1.735
  143SOL    HW2  565   0.582   2.517   1.765
  144SOL     OW  566   3.428   3.490   3.743
  144SOL    HW1  567   3.370   3.454   3.811
  144SOL    HW2  568   3.373   3.549   3.693
  145SOL     OW  569   3.665   0.658   0.394
  145SOL    HW1  570   3.595   0.659   0.328
  145SOL    HW2  571   3.652   0.739   0.444
  146SOL     OW  572   0.289   1.037   3.135
  146SOL    HW1  573   0.239   0.962   3.165
  146SOL    HW2  574   0.376   1.002   3.116
  147SOL     OW  575   2.340   1.802   2.426
  147SOL    HW1  576   2.362   1.827   2.336
  147SOL    HW2  577   2.424   1.785   2.467
  148SOL     OW  578   0.459   1.341   2.481
  148SOL    HW1  579   0.388   1.317   2.421
  148SOL    HW2  580   0.433   1.304   2.565
  149SOL     OW  581   2.654   0.774   1.390
  149SOL    HW1  582   2.614   0.782   1.304
  149SOL    HW2  583   2.581   0.760   1.450
  150SOL     OW  584   2.274   0.369   0.840
  150SOL    HW1  585   2.361   0.382   0.804
  150SOL    HW2  586   2.265   0.274   0.848
  151SOL     OW  587   2.091   1.532   1.468
  151SOL    HW1  588   2.088   1.538   1.373
  151SOL    HW2  589   2.129   1.445   1.485
  152SOL     OW  590   0.380   3.173   0.738
  152SOL    HW1  591   0.397   3.083   0.766
  152SOL    HW2  592   0.286   3.175   0.718
  153SOL     OW  593   3.560   1.726   3.953
  153SOL    HW1  594   3.468   1.744   3.971
  153SOL    HW2  595   3.572   1.751   3.861
  154SOL     OW  596   2.143   2.438   0.200
  154SOL    HW1  597   2.137   2.456   0.106
  154SOL    HW2  598   2.162   2.345   0.205
  155SOL     OW  599   0.566   2.708   3.649
  155SOL    HW1  600   0.582   2.788   3.600
  155SOL    HW2  601   0.644   2.654   3.633
  156SOL     OW  602   3.738   0.819   1.905
  156SOL    HW1  603   3.820   0.860   1.877
  156SOL    HW2  604   3.689   0.890   1.946
  157SOL     OW  605   0.845   2.490   3.143
  157SOL    HW1  606   0.761   2.536   3.148
  157SOL    HW2  607   0.854   2.464   3.052
  158SOL     OW  608   0.309   2.967   2.576
  158SOL    HW1  609   0.373   2.919   2.522
  158SOL    HW2  610   0.361   3.027   2.628
  159SOL     OW  611   3.316   1.734   0.267
  159SOL    HW1  612   3.309   1.660   0.206
  159SOL    HW2  613   3.270   1.705   0.345
  160SOL     OW  614   2.334   0.676   2.971
  160SOL    HW1  615   2.321   0.582   2.955
  160SOL    HW2  616   2.246   0.714   2.964
  161SOL     OW  617   3.851   0.792   0.162
  161SOL    HW1  618   3.812   0.715   0.119
  161SOL    HW2  619   3.862   0.765   0.253
  162SOL     OW  620   2.623   2.140   1.269
  162SOL    HW1  621   2.528   2.128   1.275
  162SOL    HW2  622   2.651   2.074   1.205
  163SOL     OW  623   0.507   1.171   1.060
  163SOL    HW1  624   0.502   1.227   0.983
  163SOL    HW2  625   0.415   1.151   1.081
  164SOL     OW  626   2.805   3.023   2.529
  164SOL    HW1  627   2.730   3.078   2.506
  164SOL    HW2  628   2.845   3.067   2.604
  165SOL     OW  629   2.736   1.000   2.635
  165SOL    HW1  630   2.721   1.049   2.554
  165SOL    HW2  631   2.687   1.049   2.701
  166SOL     OW  632   1.154   1.773   0.008
  166SOL    HW1  633   1.163   1.798   0.100
  166SOL    HW2  634   1.069   1.731   0.002
  167SOL     OW  635   0.274   1.756   0.130
  167SOL    HW1  636   0.289   1.681   0.073
  167SOL    HW2  637   0.274   1.720   0.218
  168SOL     OW  638   1.122   3.375   3.621
  168SOL    HW1  639   1.064   3.441   3.658
  168SOL    HW2  640   1.063   3.309   3.584
  169SOL     OW  641   0.680   3.095   3.736
  169SOL    HW1  642   0.607   3.050   3.694
  169SOL    HW2  643   0.753   3.034   3.730
  170SOL     OW  644   0.922   0.575   3.355
  170SOL    HW1  645   0.942   0.482   3.367
  170SOL    HW2  646   0.832   0.585   3.387
  171SOL     OW  647   1.965   3.515   2.835
  171SOL    HW1  648   1.993   3.606   2.839
  171SOL    HW2  649   2.025   3.468   2.893
  172SOL     OW  650   1.951   2.483   2.213
  172SOL    HW1  651   2.025   2.543   2.216
  172SOL    HW2  652   1.990   2.397   2.199
  173SOL     OW  653   2.276   2.711   2.529
  173SOL    HW1  654   2.335   2.649   2.571
  173SOL    HW2  655   2.189   2.684   2.558
  174SOL     OW  656   3.504   1.853   0.682
  174SOL    HW1  657   3.587   1.853   0.729
  174SOL    HW2  658   3.526   1.886   0.595
  175SOL     OW  659   3.138   3.108   2.999
  175SOL    HW1  660   3.216   3.159   2.976
  175SOL    HW2  661   3.065   3.157   2.962
  176SOL     OW  662   1.031   1.025   3.763
  176SOL    HW1  663   1.126   1.037   3.766
  176SOL    HW2  664   1.020   0.933   3.740
  177SOL     OW  665   2.912   2.120   3.932
  177SOL    HW1  666   2.883   2.052   3.871
  177SOL    HW2  667   3.006   2.103   3.945
  178SOL     OW  668   0.271   0.033   0.655
  178SOL    HW1  669   0.254   0.085   0.734
  178SOL    HW2  670   0.366   0.034   0.645
  179SOL     OW  671   0.743   2.488   0.688
  179SOL    HW1  672   0.815   2.448   0.640
  179SOL    HW2  673   0.681   2.416   0.702
  180SOL     OW  674   1.193   1.537   0.813
  180SOL    HW1  675   1.118   1.564   0.761
  180SOL    HW2  676   1.166   1.455   0.854
  181SOL     OW  677   2.715   3.423   2.606
  181SOL    HW1  678   2.793   3.368   2.607
  181SOL    HW2  679   2.699   3.445   2.698
  182SOL     OW  680   3.674   3.415   3.838
  182SOL    HW1  681   3.697   3.322   3.833
  182SOL    HW2  682   3.591   3.423   3.791
  183SOL     OW  683   1.854   3.281   2.188
  183SOL    HW1  684   1.913   3.337   2.138
  183SOL    HW2  685   1.855   3.318   2.277
  184SOL     OW  686   3.923   3.335   1.436
  184SOL    HW1  687   3.988   3.370   1.376
  184SOL    HW2  688   3.909   3.404   1.500
  185SOL     OW  689   1.447   2.356   2.247
  185SOL    HW1  690   1.355   2.378   2.229
  185SOL    HW2  691   1.486   2.437   2.277
  186SOL     OW  692   1.809   3.816   3.244
  186SOL    HW1  693   1.838   3.875   3.175
  186SOL    HW2  694   1.714   3.825   3.246
  187SOL     OW  695   2.874   2.126   2.798
  187SOL    HW1  696   2.794   2.092   2.759
  187SOL    HW2  697   2.940   2.060   2.778
  188SOL     OW  698   3.312   2.534   0.375
  188SOL    HW1  699   3.395   2.510   0.334
  188SOL    HW2  700   3.332   2.540   0.469
  189SOL     OW  701   3.600   1.310   2.367
  189SOL    HW1  702   3.515   1.311   2.413
  189SOL    HW2  703   3.662   1.278   2.433
  190SOL     OW  704   2.003   1.253   1.159
  190SOL    HW1  705   1.933   1.252   1.094
  190SOL    HW2  706   2.082   1.227   1.111
  191SOL     OW  707   2.088   0.885   1.172
  191SOL    HW1  708   2.015   0.826   1.189
  191SOL    HW2  709   2.122   0.907   1.259
  192SOL     OW  710   1.556   3.947   3.199
  192SOL    HW1  711   1.491   3.882   3.226
  192SOL    HW2  712   1.523   4.030   3.233
  193SOL     OW  713   1.734   2.561   1.956
  193SOL    HW1  714   1.801   2.629   1.959
  193SOL    HW2  715   1.719   2.537   2.047
  194SOL     OW  716   0.100   1.029   1.894
  194SOL    HW1  717   0.161   0.964   1.929
  194SOL    HW2  718   0.065   0.989   1.814
  195SOL     OW  719   0.342   3.113   3.596
  195SOL    HW1  720   0.295   3.140   3.674
  195SOL    HW2  721   0.366   3.022   3.612
  196SOL     OW  722   0.072   3.606   3.317
  196SOL    HW1  723  -0.021   3.590   3.330
  196SOL    HW2  724   0.115   3.561   3.390
  197SOL     OW  725   0.092   2.939   0.259
  197SOL    HW1  726   0.164   2.877   0.250
  197SOL    HW2  727   0.016   2.893   0.223
  198SOL     OW  728   3.792   1.028   3.639
  198SOL    HW1  729   3.803   0.954   3.699
  198SOL    HW2  730   3.826   0.997   3.556
  199SOL     OW  731   1.299   3.875   0.287
  199SOL    HW1  732   1.282   3.955   0.238
  199SOL    HW2  733   1.231   3.872   0.354
  200SOL     OW  734   2.248   0.682   3.942
  200SOL    HW1  735   2.328   0.673   3.890
  200SOL    HW2  736   2.179   0.648   3.885
  201SOL     OW  737   3.652   0.441   1.676
  201SOL    HW1  738   3.580   0.379   1.686
  201SOL    HW2  739   3.659   0.454   1.581
  202SOL     OW  740   0.700   2.059   1.918
  202SOL    HW1  741   0.616   2.038   1.877
  202SOL    HW2  742   0.692   2.024   2.007
  203SOL     OW  743   1.225   2.774   2.824
  203SOL    HW1  744   1.319   2.765   2.809
  203SOL    HW2  745   1.211   2.736   2.911
  204SOL     OW  746   2.095   2.087   1.002
  204SOL    HW1  747   2.157   2.080   0.929
  204SOL    HW2  748   2.080   1.996   1.029
  205SOL     OW  749   0.561   3.271   0.490
  205SOL    HW1  750   0.499   3.272   0.563
  205SOL    HW2  751   0.574   3.178   0.472
  206SOL     OW  752   1.794   1.042   2.438
  206SOL    HW1  753   1.845   0.992   2.501
  206SOL    HW2  754   1.782   1.128   2.479
  207SOL     OW  755   3.066   2.843   3.444
  207SOL    HW1  756   3.094   2.917   3.389
  207SOL    HW2  757   3.107   2.767   3.403
  208SOL     OW  758   3.517   3.159   2.962
  208SOL    HW1  759   3.472   3.076   2.952
  208SOL    HW2  760   3.544   3.183   2.874
  209SOL     OW  761   3.202   0.271   1.958
  209SOL    HW1  762   3.135   0.208   1.987
  209SOL    HW2  763   3.181   0.285   1.865
  210SOL     OW  764   3.842   1.981   1.218
  210SOL    HW1  765   3.907   2.011   1.154
  210SOL    HW2  766   3.785   2.057   1.230
  211SOL     OW  767   0.769   2.302   2.563
  211SOL    HW1  768   0.841   2.357   2.534
  211SOL    HW2  769   0.812   2.228   2.606
  212SOL     OW  770   0.786   2.636   2.783
  212SOL    HW1  771   0.827   2.559   2.822
  212SOL    HW2  772   0.787   2.619   2.689
  213SOL     OW  773   2.661   2.364   3.860
  213SOL    HW1  774   2.570   2.350   3.832
  213SOL    HW2  775   2.709   2.292   3.820
  214SOL     OW  776   3.685   1.345   0.990
  214SOL    HW1  777   3.699   1.403   0.915
  214SOL    HW2  778   3.771   1.338   1.032
  215SOL     OW  779   1.791   1.522   1.650
  215SOL    HW1  780   1.868   1.465   1.649
  215SOL    HW2  781   1.828   1.611   1.645
  216SOL     OW  782   2.930   0.081   3.826
  216SOL    HW1  783   2.903   0.095   3.735
  216SOL    HW2  784   3.000   0.015   3.820
  217SOL     OW  785   1.071   0.763   3.179
  217SOL    HW1  786   1.039   0.847   3.210
  217SOL    HW2  787   1.027   0.699   3.235
  218SOL     OW  788   3.656   1.612   3.380
  218SOL    HW1  789   3.697   1.611   3.466
  218SOL    HW2  790   3.615   1.526   3.372
  219SOL     OW  791   1.369   2.207   0.293
  219SOL    HW1  792   1.411   2.156   0.363
  219SOL    HW2  793   1.289   2.241   0.334
  220SOL     OW  794   2.725   0.437   1.899
  220SOL    HW1  795   2.663   0.510   1.898
  220SOL    HW2  796   2.786   0.456   1.827
  221SOL     OW  797   2.495   2.786   1.909
  221SOL    HW1  798   2.528   2.702   1.878
  221SOL    HW2  799   2.567   2.848   1.895
  222SOL     OW  800   2.870   2.443   1.542
  222SOL    HW1  801   2.908   2.515   1.491
  222SOL    HW2  802   2.782   2.432   1.506
  223SOL     OW  803   3.000   1.820   1.614
  223SOL    HW1  804   2.975   1.769   1.691
  223SOL    HW2  805   2.962   1.773   1.540
  224SOL     OW  806   2.330   2.074   0.461
  224SOL    HW1  807   2.295   1.986   0.448
  224SOL    HW2  808   2.425   2.062   0.460
  225SOL     OW  809   3.859   0.395   2.779
  225SOL    HW1  810   3.777   0.412   2.825
  225SOL    HW2  811   3.853   0.448   2.699
  226SOL     OW  812   3.816   3.637   1.141
  226SOL    HW1  813   3.874   3.672   1.074
  226SOL    HW2  814   3.843   3.680   1.222
  227SOL     OW  815   2.488   0.439   2.179
  227SOL    HW1  816   2.529   0.356   2.155
  227SOL    HW2  817   2.423   0.454   2.111
  228SOL     OW  818   1.077   1.768   1.759
  228SOL    HW1  819   1.029   1.794   1.837
  228SOL    HW2  820   1.126   1.690   1.785
  229SOL     OW  821   3.518   0.316   0.231
  229SOL    HW1  822   3.464   0.319   0.310
  229SOL    HW2  823   3.459   0.345   0.161
  230SOL     OW  824   2.566   2.938   0.885
  230SOL    HW1  825   2.584   2.872   0.951
  230SOL    HW2  826   2.602   2.901   0.804
  231SOL     OW  827   3.304   0.614   0.813
  231SOL    HW1  828   3.269   0.682   0.871
  231SOL    HW2  829   3.281   0.532   0.856
  232SOL     OW  830   2.683   2.070   2.120
  232SOL    HW1  831   2.705   2.157   2.087
  232SOL    HW2  832   2.660   2.084   2.212
  233SOL     OW  833   0.018   3.818   0.683
  233SOL    HW1  834  -0.051   3.878   0.655
  233SOL    HW2  835   0.088   3.875   0.715
  234SOL     OW  836   2.991   2.664   1.989
  234SOL    HW1  837   3.029   2.649   1.902
  234SOL    HW2  838   3.014   2.755   2.009
  235SOL     OW  839   1.922   3.850   1.198
  235SOL    HW1  840   1.895   3.761   1.176
  235SOL    HW2  841   1.922   3.852   1.294
  236SOL     OW  842   1.855   0.758   0.440
  236SOL    HW1  843   1.903   0.840   0.457
  236SOL    HW2  844   1.767   0.775   0.474
  237SOL     OW  845   3.649   3.321   1.442
  237SOL    HW1  846   3.742   3.302   1.433
  237SOL    HW2  847   3.627   3.297   1.532
  238SOL     OW  848   1.294   1.744   3.240
  238SOL    HW1  849   1.290   1.833   3.275
  238SOL    HW2  850   1.370   1.705   3.282
  239SOL     OW  851   3.113   3.510   2.129
  239SOL    HW1  852   3.119   3.603   2.150
  239SOL    HW2  853   3.180   3.497   2.061
  240SOL     OW  854   2.484   1.071   3.267
  240SOL    HW1  855   2.522   1.153   3.236
  240SOL    HW2  856   2.447   1.030   3.189
  241SOL     OW  857   3.793   1.085   1.531
  241SOL    HW1  858   3.749   1.128   1.457
  241SOL    HW2  859   3.861   1.031   1.491
  242SOL     OW  860   0.870   0.617   1.859
  242SOL    HW1  861   0.843   0.532   1.824
  242SOL    HW2  862   0.788   0.663   1.877
  243SOL     OW  863   1.310   1.332   3.314
  243SOL    HW1  864   1.258   1.412   3.313
  243SOL    HW2  865   1.273   1.279   3.384
  244SOL     OW  866   1.529   2.136   1.308
  244SOL    HW1  867   1.515   2.129   1.213
  244SOL    HW2  868   1.529   2.230   1.325
  245SOL     OW  869   2.731   3.277   0.532
  245SOL    HW1  870   2.645   3.285   0.490
  245SOL    HW2  871   2.715   3.300   0.623
  246SOL     OW  872   3.600   0.484   2.466
  246SOL    HW1  873   3.527   0.534   2.500
  246SOL    HW2  874   3.570   0.393   2.466
  247SOL     OW  875   1.167   0.215   3.395
  247SOL    HW1  876   1.248   0.221   3.446
  247SOL    HW2  877   1.154   0.122   3.382
  248SOL     OW  878   0.171   0.107   0.940
  248SOL    HW1  879   0.115   0.076   1.012
  248SOL    HW2  880   0.260   0.089   0.969
  249SOL     OW  881   3.139   1.268   2.819
  249SOL    HW1  882   3.144   1.176   2.790
  249SOL    HW2  883   3.069   1.306   2.766
  250SOL     OW  884   3.615   1.069   1.003
  250SOL    HW1  885   3.557   1.137   0.969
  250SOL    HW2  886   3.703   1.096   0.975
  251SOL     OW  887   3.571   1.596   1.160
  251SOL    HW1  888   3.551   1.683   1.127
  251SOL    HW2  889   3.666   1.597   1.174
  252SOL     OW  890   0.568   2.998   0.801
  252SOL    HW1  891   0.552   2.907   0.776
  252SOL    HW2  892   0.618   2.992   0.883
  253SOL     OW  893   3.413   0.654   3.269
  253SOL    HW1  894   3.447   0.737   3.235
  253SOL    HW2  895   3.329   0.643   3.225
  254SOL     OW  896   3.865   1.607   0.555
  254SOL    HW1  897   3.816   1.597   0.636
  254SOL    HW2  898   3.799   1.629   0.489
  255SOL     OW  899   2.430   3.258   3.469
  255SOL    HW1  900   2.348   3.299   3.494
  255SOL    HW2  901   2.428   3.256   3.373
  256SOL     OW  902   0.045   1.039   0.063
  256SOL    HW1  903   0.138   1.060   0.061
  256SOL    HW2  904   0.036   0.976   0.135
  257SOL     OW  905   2.074   2.018   2.286
  257SOL    HW1  906   2.147   2.027   2.347
  257SOL    HW2  907   2.063   2.105   2.248
  258SOL     OW  908   1.769   0.515   2.863
  258SOL    HW1  909   1.727   0.441   2.818
  258SOL    HW2  910   1.715   0.530   2.940
  259SOL     OW  911   2.700   2.944   2.194
  259SOL    HW1  912   2.710   2.962   2.100
  259SOL    HW2  913   2.622   2.993   2.220
  260SOL     OW  914   1.347   3.750   2.730
  260SOL    HW1  915   1.416   3.809   2.760
  260SOL    HW2  916   1.289   3.741   2.805
  261SOL     OW  917   0.241   1.374   3.686
  261SOL    HW1  918   0.253   1.456   3.637
  261SOL    HW2  919   0.174   1.395   3.751
  262SOL     OW  920   1.291   2.310   1.757
  262SOL    HW1  921   1.357   2.264   1.704
  262SOL    HW2  922   1.333   2.393   1.779
  263SOL     OW  923   3.850   0.561   2.532
  263SOL    HW1  924   3.758   0.562   2.507
  263SOL    HW2  925   3.898   0.565   2.450
  264SOL     OW  926   0.656   1.264   2.293
  264SOL    HW1  927   0.591   1.299   2.353
  264SOL    HW2  928   0.699   1.194   2.342
  265SOL     OW  929   0.061   0.490   1.975
  265SOL    HW1  930   0.074   0.422   1.909
  265SOL    HW2  931  -0.028   0.522   1.960
  266SOL     OW  932   2.804   0.531   3.656
  266SOL    HW1  933   2.823   0.479   3.734
  266SOL    HW2  934   2.879   0.515   3.598
  267SOL     OW  935   1.020   0.068   0.526
  267SOL    HW1  936   0.978   0.071   0.440
  267SOL    HW2  937   1.045  -0.024   0.537
  268SOL     OW  938   3.950   2.356   0.038
  268SOL    HW1  939   3.884   2.324   0.099
  268SOL    HW2  940   3.919   2.442   0.010
  269SOL     OW  941   0.766   3.414   0.384
  269SOL    HW1  942   0.796   3.474   0.451
  269SOL    HW2  943   0.695   3.365   0.425
  270SOL     OW  944   0.411   1.798   3.581
  270SOL    HW1  945   0.413   1.849   3.662
  270SOL    HW2  946   0.364   1.853   3.519
  271SOL     OW  947   2.206   0.080   3.531
  271SOL    HW1  948   2.197   0.102   3.438
  271SOL    HW2  949   2.143   0.010   3.545
  272SOL     OW  950   3.450   3.863   1.714
  272SOL    HW1  951   3.367   3.830   1.678
  272SOL    HW2  952   3.498   3.895   1.638
  273SOL     OW  953   2.091   3.048   1.844
  273SOL    HW1  954   2.178   3.058   1.806
  273SOL    HW2  955   2.100   3.076   1.935
  274SOL     OW  956   2.109   0.753   1.631
  274SOL    HW1  957   2.160   0.723   1.706
  274SOL    HW2  958   2.047   0.682   1.615
  275SOL     OW  959   1.175   3.295   2.020
  275SOL    HW1  960   1.091   3.322   2.056
  275SOL    HW2  961   1.161   3.206   1.988
  276SOL     OW  962   3.818   2.911   0.925
  276SOL    HW1  963   3.831   2.979   0.991
  276SOL    HW2  964   3.725   2.890   0.929
  277SOL     OW  965   1.062   0.321   2.171
  277SOL    HW1  966   1.146   0.366   2.184
  277SOL    HW2  967   1.041   0.336   2.079
  278SOL     OW  968   3.006   3.588   1.672
  278SOL    HW1  969   3.010   3.493   1.657
  278SOL    HW2  970   2.945   3.619   1.605
  279SOL     OW  971   1.921   3.084   2.515
  279SOL    HW1  972   1.878   3.061   2.432
  279SOL    HW2  973   1.884   3.170   2.537
  280SOL     OW  974   1.685   2.258   3.149
  280SOL    HW1  975   1.639   2.318   3.090
  280SOL    HW2  976   1.633   2.178   3.146
  281SOL     OW  977   1.803   0.477   3.755
  281SOL    HW1  978   1.793   0.558   3.807
  281SOL    HW2  979   1.713   0.448   3.739
  282SOL     OW  980   2.361   0.581   1.782
  282SOL    HW1  981   2.417   0.593   1.858
  282SOL    HW2  982   2.315   0.499   1.798
  283SOL     OW  983   3.700   2.942   3.228
  283SOL    HW1  984   3.715   3.012   3.163
  283SOL    HW2  985   3.785   2.898   3.235
  284SOL     OW  986   3.806   0.839   3.830
  284SOL    HW1  987   3.746   0.771   3.858
  284SOL    HW2  988   3.841   0.875   3.912
  285SOL     OW  989   3.949   3.598   0.011
  285SOL    HW1  990   3.883   3.658   0.045
  285SOL    HW2  991   4.021   3.604   0.073
  286SOL     OW  992   0.509   1.515   3.303
  286SOL    HW1  993   0.593   1.474   3.323
  286SOL    HW2  994   0.460   1.512   3.385
  287SOL     OW  995   3.868   2.882   1.226
  287SOL    HW1  996   3.933   2.842   1.284
  287SOL    HW2  997   3.898   2.862   1.138
  288SOL     OW  998   1.885   0.434   1.447
  288SOL    HW1  999   1.797   0.461   1.422
  288SOL    HW2 1000   1.899   0.475   1.532
  289SOL     OW 1001   0.573   0.425   1.543
  289SOL    HW1 1002   0.551   0.428   1.450
  289SOL    HW2 1003   0.497   0.462   1.587
  290SOL     OW 1004   0.969   0.722   2.745
  290SOL    HW1 1005   0.910   0.647   2.737
  290SOL    HW2 1006   0.912   0.798   2.736
  291SOL     OW 1007   0.538   2.701   2.829
  291SOL    HW1 1008   0.629   2.676   2.811
  291SOL    HW2 1009   0.487   2.646   2.769
  292SOL     OW 1010   2.198   1.994   3.631
  292SOL    HW1 1011   2.234   2.001   3.719
  292SOL    HW2 1012   2.109   2.029   3.638
  293SOL     OW 1013   0.143   3.218   0.172
  293SOL    HW1 1014   0.129   3.128   0.203
  293SOL    HW2 1015   0.055   3.248   0.147
  294SOL     OW 1016   0.302   0.675   3.273
  294SOL    HW1 1017   0.285   0.715   3.358
  294SOL    HW2 1018   0.374   0.727   3.237
  295SOL     OW 1019   1.220   2.537   2.187
  295SOL    HW1 1020   1.184   2.479   2.120
  295SOL    HW2 1021   1.274   2.600   2.139
  296SOL     OW 1022   1.262   1.822   2.094
  296SOL    HW1 1023   1.221   1.744   2.055
  296SOL    HW2 1024   1.314   1.859   2.022
  297SOL     OW 1025   2.437   3.761   1.930
  297SOL    HW1 1026   2.517   3.724   1.892
  297SOL    HW2 1027   2.439   3.733   2.022
  298SOL     OW 1028   3.024   3.825   3.004
  298SOL    HW1 1029   2.983   3.906   2.972
  298SOL    HW2 1030   3.106   3.819   2.955
  299SOL     OW 1031   2.988   3.323   1.590
  299SOL    HW1 1032   2.917   3.264   1.617
  299SOL    HW2 1033   2.979   3.330   1.495
  300SOL     OW 1034   3.431   0.606   2.626
  300SOL    HW1 1035   3.345   0.647   2.638
  300SOL    HW2 1036   3.451   0.567   2.711
  301SOL     OW 1037   1.338   0.143   1.027
  301SOL    HW1 1038   1.269   0.131   0.961
  301SOL    HW2 1039   1.323   0.231   1.062
  302SOL     OW 1040   3.083   3.702   3.237
  302SOL    HW1 1041   3.179   3.704   3.236
  302SOL    HW2 1042   3.058   3.725   3.148
  303SOL     OW 1043   3.277   2.042   0.853
  303SOL    HW1 1044   3.260   1.994   0.934
  303SOL    HW2 1045   3.207   2.015   0.794
  304SOL     OW 1046   3.270   0.287   3.446
  304SOL    HW1 1047   3.187   0.314   3.406
  304SOL    HW2 1048   3.298   0.212   3.394
  305SOL     OW 1049   2.896   2.598   0.708
  305SOL    HW1 1050   2.816   2.647   0.728
  305SOL    HW2 1051   2.896   2.591   0.612
  306SOL     OW 1052   2.479   1.696   0.919
  306SOL    HW1 1053   2.567   1.665   0.941
  306SOL    HW2 1054   2.420   1.638   0.967
  307SOL     OW 1055   2.965   2.282   2.373
  307SOL    HW1 1056   3.041   2.224   2.383
  307SOL    HW2 1057   3.002   2.368   2.354
  308SOL     OW 1058   0.439   1.612   0.513
  308SOL    HW1 1059   0.375   1.544   0.493
  308SOL    HW2 1060   0.521   1.580   0.475
  309SOL     OW 1061   0.772   1.915   3.120
  309SOL    HW1 1062   0.704   1.925   3.187
  309SOL    HW2 1063   0.735   1.956   3.042
  310SOL     OW 1064   0.090   1.984   2.334
  310SOL    HW1 1065   0.169   1.949   2.293
  310SOL    HW2 1066   0.025   1.915   2.322
  311SOL     OW 1067   1.909   1.574   2.433
  311SOL    HW1 1068   1.925   1.566   2.339
  311SOL    HW2 1069   1.828   1.624   2.440
  312SOL     OW 1070   1.046   0.629   0.279
  312SOL    HW1 1071   1.006   0.609   0.364
  312SOL    HW2 1072   1.128   0.673   0.301
  313SOL     OW 1073   3.454   3.350   0.236
  313SOL    HW1 1074   3.519   3.361   0.306
  313SOL    HW2 1075   3.471   3.263   0.201
  314SOL     OW 1076   1.977   0.061   0.996
  314SOL    HW1 1077   1.925   0.039   0.919
  314SOL    HW2 1078   1.970  -0.016   1.052
  315SOL     OW 1079   3.643   3.726   3.774
  315SOL    HW1 1080   3.651   3.807   3.825
  315SOL    HW2 1081   3.559   3.690   3.800
  316SOL     OW 1082   0.464   1.326   1.759
  316SOL    HW1 1083   0.373   1.335   1.788
  316SOL    HW2 1084   0.463   1.350   1.667
  317SOL     OW 1085   0.585   3.305   2.948
  317SOL    HW1 1086   0.533   3.286   3.026
  317SOL    HW2 1087   0.666   3.255   2.961
  318SOL     OW 1088   3.760   3.404   0.344
  318SOL    HW1 1089   3.714   3.356   0.413
  318SOL    HW2 1090   3.831   3.346   0.316
  319SOL     OW 1091   1.201   2.666   3.072
  319SOL    HW1 1092   1.179   2.575   3.088
  319SOL    HW2 1093   1.127   2.716   3.106
  320SOL     OW 1094   0.882   2.326   1.860
  320SOL    HW1 1095   0.848   2.274   1.933
  320SOL    HW2 1096   0.806   2.340   1.803
  321SOL     OW 1097   0.972   0.938   0.220
  321SOL    HW1 1098   1.066   0.959   0.223
  321SOL    HW2 1099   0.938   0.970   0.303
  322SOL     OW 1100   3.106   2.304   1.541
  322SOL    HW1 1101   3.025   2.356   1.544
  322SOL    HW2 1102   3.130   2.303   1.448
  323SOL     OW 1103   2.055   3.947   2.679
  323SOL    HW1 1104   2.097   3.871   2.719
  323SOL    HW2 1105   2.083   3.944   2.588
  324SOL     OW 1106   1.095   0.556   1.981
  324SOL    HW1 1107   1.137   0.477   1.947
  324SOL    HW2 1108   1.004   0.548   1.954
  325SOL     OW 1109   2.749   2.090   2.431
  325SOL    HW1 1110   2.662   2.130   2.426
  325SOL    HW2 1111   2.809   2.163   2.415
  326SOL     OW 1112   0.773   1.934   1.366
  326SOL    HW1 1113   0.677   1.935   1.367
  326SOL    HW2 1114   0.798   2.023   1.391
  327SOL     OW 1115   1.812   0.874   1.433
  327SOL    HW1 1116   1.789   0.850   1.343
  327SOL    HW2 1117   1.848   0.963   1.425
  328SOL     OW 1118   1.772   3.859   2.176
  328SOL    HW1 1119   1.783   3.955   2.178
  328SOL    HW2 1120   1.794   3.835   2.085
  329SOL     OW 1121   3.866   2.238   2.728
  329SOL    HW1 1122   3.915   2.170   2.683
  329SOL    HW2 1123   3.801   2.268   2.664
  330SOL     OW 1124   1.071   2.217   1.626
  330SOL    HW1 1125   1.155   2.244   1.664
  330SOL    HW2 1126   1.006   2.244   1.691
  331SOL     OW 1127   1.031   2.128   3.157
  331SOL    HW1 1128   0.954   2.078   3.182
  331SOL    HW2 1129   1.085   2.131   3.236
  332SOL     OW 1130   3.880   0.068   2.531
  332SOL    HW1 1131   3.859  -0.025   2.526
  332SOL    HW2 1132   3.888   0.086   2.625
  333SOL     OW 1133   1.826   1.013   0.265
  333SOL    HW1 1134   1.836   1.025   0.359
  333SOL    HW2 1135   1.895   0.953   0.240
  334SOL     OW 1136   2.171   3.761   2.457
  334SOL    HW1 1137   2.137   3.707   2.385
  334SOL    HW2 1138   2.225   3.701   2.508
  335SOL     OW 1139   3.088   2.009   3.305
  335SOL    HW1 1140   3.124   2.029   3.391
  335SOL    HW2 1141   3.062   2.094   3.269
  336SOL     OW 1142   2.906   0.688   3.274
  336SOL    HW1 1143   2.873   0.766   3.319
  336SOL    HW2 1144   2.950   0.638   3.342
  337SOL     OW 1145   2.986   3.857   1.518
  337SOL    HW1 1146   2.948   3.934   1.474
  337SOL    HW2 1147   2.973   3.785   1.455
  338SOL     OW 1148   0.335   0.274   3.484
  338SOL    HW1 1149   0.245   0.279   3.515
  338SOL    HW2 1150   0.337   0.195   3.429
  339SOL     OW 1151   1.206   2.277   1.044
  339SOL    HW1 1152   1.209   2.254   0.951
  339SOL    HW2 1153   1.134   2.223   1.079
  340SOL     OW 1154   0.145   3.534   0.321
  340SOL    HW1 1155   0.120   3.460   0.266
  340SOL    HW2 1156   0.239   3.522   0.335
  341SOL     OW 1157   0.109   3.345   0.607
  341SOL    HW1 1158   0.045   3.414   0.589
  341SOL    HW2 1159   0.086   3.275   0.545
  342SOL     OW 1160   3.555   2.193   1.749
  342SOL    HW1 1161   3.463   2.211   1.730
  342SOL    HW2 1162   3.576   2.251   1.822
  343SOL     OW 1163   3.083   2.593   1.503
  343SOL    HW1 1164   3.141   2.520   1.526
  343SOL    HW2 1165   3.117   2.667   1.554
  344SOL     OW 1166   3.616   1.166   3.417
  344SOL    HW1 1167   3.685   1.184   3.479
  344SOL    HW2 1168   3.539   1.210   3.453
  345SOL     OW 1169   0.822   1.710   1.521
  345SOL    HW1 1170   0.811   1.792   1.473
  345SOL    HW2 1171   0.914   1.685   1.506
  346SOL     OW 1172   1.088   1.674   1.450
  346SOL    HW1 1173   1.164   1.650   1.503
  346SOL    HW2 1174   1.087   1.770   1.451
  347SOL     OW 1175   0.920   2.133   2.679
  347SOL    HW1 1176   0.906   2.041   2.658
  347SOL    HW2 1177   1.015   2.145   2.671
  348SOL     OW 1178   3.431   3.033   0.558
  348SOL    HW1 1179   3.486   2.962   0.524
  348SOL    HW2 1180   3.341   3.001   0.549
  349SOL     OW 1181   3.005   3.189   3.500
  349SOL    HW1 1182   2.942   3.136   3.550
  349SOL    HW2 1183   2.955   3.220   3.424
  350SOL     OW 1184   2.917   0.591   0.207
  350SOL    HW1 1185   2.875   0.520   0.255
  350SOL    HW2 1186   2.866   0.599   0.127
  351SOL     OW 1187   2.136   1.110   2.675
  351SOL    HW1 1188   2.132   1.191   2.725
  351SOL    HW2 1189   2.056   1.063   2.700
  352SOL     OW 1190   2.440   2.388   0.236
  352SOL    HW1 1191   2.384   2.410   0.310
  352SOL    HW2 1192   2.420   2.455   0.170
  353SOL     OW 1193   2.034   0.080   2.124
  353SOL    HW1 1194   2.080   0.000   2.097
  353SOL    HW2 1195   2.036   0.079   2.219
  354SOL     OW 1196   0.032   0.154   3.093
  354SOL    HW1 1197   0.116   0.157   3.139
  354SOL    HW2 1198   0.021   0.062   3.068
  355SOL     OW 1199   2.382   3.876   0.225
  355SOL    HW1 1200   2.372   3.934   0.301
  355SOL    HW2 1201   2.322   3.804   0.242
  356SOL     OW 1202   0.516   2.321   3.465
  356SOL    HW1 1203   0.541   2.237   3.502
  356SOL    HW2 1204   0.597   2.356   3.427
  357SOL     OW 1205   3.304   1.431   0.383
  357SOL    HW1 1206   3.245   1.372   0.337
  357SOL    HW2 1207   3.246   1.486   0.436
  358SOL     OW 1208   2.996   0.546   2.681
  358SOL    HW1 1209   2.929   0.559   2.748
  358SOL    HW2 1210   2.961   0.475   2.626
  359SOL     OW 1211   0.952   3.786   3.173
  359SOL    HW1 1212   0.953   3.707   3.119
  359SOL    HW2 1213   0.932   3.755   3.261
  360SOL     OW 1214   2.914   3.480   0.303
  360SOL    HW1 1215   2.931   3.415   0.371
  360SOL    HW2 1216   2.928   3.564   0.347
  361SOL     OW 1217   1.896   3.123   3.318
  361SOL    HW1 1218   1.891   3.126   3.413
  361SOL    HW2 1219   1.848   3.200   3.289
  362SOL     OW 1220   2.022   2.451   0.668
  362SOL    HW1 1221   2.002   2.475   0.578
  362SOL    HW2 1222   1.963   2.378   0.688
  363SOL     OW 1223   2.608   2.849   3.406
  363SOL    HW1 1224   2.514   2.847   3.390
  363SOL    HW2 1225   2.618   2.885   3.494
  364SOL     OW 1226   2.318   1.731   0.193
  364SOL    HW1 1227   2.315   1.645   0.151
  364SOL    HW2 1228   2.409   1.740   0.223
  365SOL     OW 1229   0.866   1.123   2.440
  365SOL    HW1 1230   0.870   1.028   2.425
  365SOL    HW2 1231   0.937   1.159   2.386
  366SOL     OW 1232   0.153   0.427   2.251
  366SOL    HW1 1233   0.080   0.480   2.221
  366SOL    HW2 1234   0.200   0.403   2.171
  367SOL     OW 1235   2.624   3.443   1.518
  367SOL    HW1 1236   2.620   3.518   1.458
  367SOL    HW2 1237   2.532   3.419   1.531
  368SOL     OW 1238   3.825   3.144   1.061
  368SOL    HW1 1239   3.776   3.224   1.078
  368SOL    HW2 1240   3.914   3.173   1.045
  369SOL     OW 1241   2.273   3.934   1.339
  369SOL    HW1 1242   2.302   3.995   1.271
  369SOL    HW2 1243   2.262   3.851   1.294
  370SOL     OW 1244   1.686   1.068   1.988
  370SOL    HW1 1245   1.680   1.003   2.057
  370SOL    HW2 1246   1.719   1.020   1.912
  371SOL     OW 1247   3.732   0.451   3.906
  371SOL    HW1 1248   3.710   0.526   3.961
  371SOL    HW2 1249   3.647   0.412   3.883
  372SOL     OW 1250   0.206   1.912   1.092
  372SOL    HW1 1251   0.207   1.961   1.011
  372SOL    HW2 1252   0.297   1.910   1.121
  373SOL     OW 1253   3.765   0.477   1.004
  373SOL    HW1 1254   3.780   0.418   1.078
  373SOL    HW2 1255   3.779   0.423   0.926
  374SOL     OW 1256   2.489   3.127   2.235
  374SOL    HW1 1257   2.458   3.057   2.294
  374SOL    HW2 1258   2.527   3.192   2.293
  375SOL     OW 1259   2.268   2.819   2.073
  375SOL    HW1 1260   2.281   2.905   2.112
  375SOL    HW2 1261   2.325   2.818   1.996
  376SOL     OW 1262   2.236   1.665   2.820
  376SOL    HW1 1263   2.232   1.751   2.862
  376SOL    HW2 1264   2.193   1.678   2.735
  377SOL     OW 1265   1.148   2.330   2.019
  377SOL    HW1 1266   1.069   2.291   1.982
  377SOL    HW2 1267   1.220   2.283   1.976
  378SOL     OW 1268   2.406   2.281   2.083
  378SOL    HW1 1269   2.471   2.347   2.060
  378SOL    HW2 1270   2.385   2.238   2.000
  379SOL     OW 1271   2.674   1.173   2.150
  379SOL    HW1 1272   2.707   1.102   2.093
  379SOL    HW2 1273   2.706   1.253   2.108
  380SOL     OW 1274   2.184   2.390   2.890
  380SOL    HW1 1275   2.132   2.435   2.958
  380SOL    HW2 1276   2.164   2.438   2.810
  381SOL     OW 1277   2.456   3.501   1.153
  381SOL    HW1 1278   2.461   3.422   1.100
  381SOL    HW2 1279   2.547   3.532   1.157
  382SOL     OW 1280   2.146   2.178   0.263
  382SOL    HW1 1281   2.141   2.107   0.199
  382SOL    HW2 1282   2.220   2.155   0.319
  383SOL     OW 1283   0.658   3.965   0.225
  383SOL    HW1 1284   0.608   3.985   0.305
  383SOL    HW2 1285   0.593   3.932   0.164
  384SOL     OW 1286   0.676   1.926   2.162
  384SOL    HW1 1287   0.713   1.985   2.228
  384SOL    HW2 1288   0.736   1.851   2.160
  385SOL     OW 1289   1.942   2.818   1.710
  385SOL    HW1 1290   2.005   2.746   1.720
  385SOL    HW2 1291   1.988   2.894   1.745
  386SOL     OW 1292   0.234   1.643   3.822
  386SOL    HW1 1293   0.157   1.587   3.830
  386SOL    HW2 1294   0.199   1.728   3.796
  387SOL     OW 1295   2.478   2.758   2.852
  387SOL    HW1 1296   2.520   2.830   2.805
  387SOL    HW2 1297   2.485   2.683   2.792
  388SOL     OW 1298   2.139   0.322   2.761
  388SOL    HW1 1299   2.082   0.251   2.731
  388SOL    HW2 1300   2.186   0.350   2.683
  389SOL     OW 1301   3.629   2.590   3.290
  389SOL    HW1 1302   3.619   2.603   3.196
  389SOL    HW2 1303   3.723   2.578   3.303
  390SOL     OW 1304   0.290   0.970   0.317
  390SOL    HW1 1305   0.251   0.977   0.404
  390SOL    HW2 1306   0.385   0.974   0.333
  391SOL     OW 1307   1.630   1.527   2.605
  391SOL    HW1 1308   1.661   1.534   2.695
  391SOL    HW2 1309   1.663   1.606   2.563
  392SOL     OW 1310   3.499   1.618   1.466
  392SOL    HW1 1311   3.480   1.589   1.376
  392SOL    HW2 1312   3.577   1.568   1.491
  393SOL     OW 1313   2.002   2.724   2.637
  393SOL    HW1 1314   1.987   2.812   2.671
  393SOL    HW2 1315   1.968   2.666   2.705
  394SOL     OW 1316   0.590   3.724   1.070
  394SOL    HW1 1317   0.579   3.711   1.165
  394SOL    HW2 1318   0.677   3.688   1.051
  395SOL     OW 1319   3.219   3.360   2.469
  395SOL    HW1 1320   3.136   3.352   2.515
  395SOL    HW2 1321   3.198   3.337   2.378
  396SOL     OW 1322   3.551   0.439   1.968
  396SOL    HW1 1323   3.616   0.425   1.900
  396SOL    HW2 1324   3.502   0.356   1.972
  397SOL     OW 1325   1.557   2.282   2.028
  397SOL    HW1 1326   1.528   2.294   2.119
  397SOL    HW2 1327   1.512   2.351   1.980
  398SOL     OW 1328   0.893   1.322   3.182
  398SOL    HW1 1329   0.808   1.278   3.185
  398SOL    HW2 1330   0.897   1.374   3.262
  399SOL     OW 1331   1.735   1.059   3.274
  399SOL    HW1 1332   1.644   1.030   3.280
  399SOL    HW2 1333   1.737   1.116   3.197
  400SOL     OW 1334   0.174   2.090   0.863
  400SOL    HW1 1335   0.082   2.114   0.877
  400SOL    HW2 1336   0.178   2.065   0.770
  401SOL     OW 1337   3.292   0.061   0.128
  401SOL    HW1 1338   3.307   0.073   0.221
  401SOL    HW2 1339   3.221   0.122   0.107
  402SOL     OW 1340   2.468   1.567   1.547
  402SOL    HW1 1341   2.433   1.481   1.527
  402SOL    HW2 1342   2.390   1.623   1.558
  403SOL     OW 1343   2.881   3.765   0.141
  403SOL    HW1 1344   2.788   3.787   0.129
  403SOL    HW2 1345   2.889   3.750   0.235
  404SOL     OW 1346   1.730   2.584   0.164
  404SOL    HW1 1347   1.741   2.670   0.205
  404SOL    HW2 1348   1.648   2.551   0.202
  405SOL     OW 1349   1.772   2.263   3.422
  405SOL    HW1 1350   1.836   2.334   3.416
  405SOL    HW2 1351   1.748   2.245   3.331
  406SOL     OW 1352   1.499   0.011   1.305
  406SOL    HW1 1353   1.590   0.022   1.333
  406SOL    HW2 1354   1.448   0.065   1.366
  407SOL     OW 1355   0.420   1.276   0.241
  407SOL    HW1 1356   0.435   1.198   0.295
  407SOL    HW2 1357   0.492   1.275   0.178
  408SOL     OW 1358   2.491   3.013   3.620
  408SOL    HW1 1359   2.419   3.014   3.682
  408SOL    HW2 1360   2.460   3.064   3.545
  409SOL     OW 1361   3.936   1.623   0.121
  409SOL    HW1 1362   4.002   1.577   0.174
  409SOL    HW2 1363   3.852   1.588   0.152
  410SOL     OW 1364   3.448   0.828   2.228
  410SOL    HW1 1365   3.409   0.740   2.221
  410SOL    HW2 1366   3.419   0.873   2.150
  411SOL     OW 1367   1.867   3.608   1.038
  411SOL    HW1 1368   1.948   3.564   1.063
  411SOL    HW2 1369   1.809   3.538   1.010
  412SOL     OW 1370   3.603   1.452   0.036
  412SOL    HW1 1371   3.526   1.395   0.035
  412SOL    HW2 1372   3.569   1.539   0.018
  413SOL     OW 1373  -0.009   1.279   0.997
  413SOL    HW1 1374   0.055   1.317   1.057
  413SOL    HW2 1375  -0.008   1.339   0.922
  414SOL     OW 1376   0.908   3.877   2.905
  414SOL    HW1 1377   0.947   3.832   2.979
  414SOL    HW2 1378   0.846   3.938   2.943
  415SOL     OW 1379   1.362   0.155   0.176
  415SOL    HW1 1380   1.351   0.239   0.219
  415SOL    HW2 1381   1.342   0.171   0.084
  416SOL     OW 1382   2.202   3.123   2.654
  416SOL    HW1 1383   2.119   3.112   2.700
  416SOL    HW2 1384   2.263   3.065   2.700
  417SOL     OW 1385   1.622   1.845   3.710
  417SOL    HW1 1386   1.561   1.811   3.776
  417SOL    HW2 1387   1.584   1.929   3.684
  418SOL     OW 1388   3.839   2.581   2.721
  418SOL    HW1 1389   3.825   2.506   2.664
  418SOL    HW2 1390   3.913   2.628   2.681
  419SOL     OW 1391   0.599   3.597   2.988
  419SOL    HW1 1392   0.534   3.660   3.018
  419SOL    HW2 1393   0.549   3.518   2.967
  420SOL     OW 1394   1.426   0.473   0.437
  420SOL    HW1 1395   1.335   0.470   0.468
  420SOL    HW2 1396   1.419   0.487   0.343
  421SOL     OW 1397   3.697   0.211   0.396
  421SOL    HW1 1398   3.720   0.131   0.349
  421SOL    HW2 1399   3.632   0.254   0.341
  422SOL     OW 1400   2.414   0.985   1.544
  422SOL    HW1 1401   2.458   0.907   1.576
  422SOL    HW2 1402   2.462   1.058   1.585
  423SOL     OW 1403   1.774   2.997   1.796
  423SOL    HW1 1404   1.854   2.946   1.811
  423SOL    HW2 1405   1.711   2.933   1.763
  424SOL     OW 1406   2.968   0.754   0.979
  424SOL    HW1 1407   2.992   0.688   1.045
  424SOL    HW2 1408   2.873   0.765   0.990
  425SOL     OW 1409   0.518   0.319   1.853
  425SOL    HW1 1410   0.449   0.339   1.790
  425SOL    HW2 1411   0.598   0.349   1.812
  426SOL     OW 1412   0.839   1.158   1.883
  426SOL    HW1 1413   0.744   1.169   1.886
  426SOL    HW2 1414   0.870   1.231   1.829
  427SOL     OW 1415   0.252   0.717   1.953
  427SOL    HW1 1416   0.324   0.671   1.910
  427SOL    HW2 1417   0.182   0.652   1.960
  428SOL     OW 1418   0.654   1.646   3.632
  428SOL    HW1 1419   0.583   1.696   3.593
  428SOL    HW2 1420   0.619   1.557   3.642
  429SOL     OW 1421   0.439   2.591   1.972
  429SOL    HW1 1422   0.455   2.516   2.030
  429SOL    HW2 1423   0.404   2.553   1.892
  430SOL     OW 1424   0.549   0.862   0.961
  430SOL    HW1 1425   0.545   0.954   0.989
  430SOL    HW2 1426   0.576   0.814   1.040
  431SOL     OW 1427   0.556   0.070   0.512
  431SOL    HW1 1428   0.534   0.148   0.461
  431SOL    HW2 1429   0.636   0.095   0.560
  432SOL     OW 1430   1.926   0.100   0.171
  432SOL    HW1 1431   1.836   0.070   0.157
  432SOL    HW2 1432   1.934   0.107   0.266
  433SOL     OW 1433   3.869   1.765   2.849
  433SOL    HW1 1434   3.936   1.763   2.780
  433SOL    HW2 1435   3.914   1.805   2.923
  434SOL     OW 1436   2.724   2.198   0.800
  434SOL    HW1 1437   2.635   2.204   0.835
  434SOL    HW2 1438   2.740   2.284   0.762
  435SOL     OW 1439   3.180   2.122   2.378
  435SOL    HW1 1440   3.219   2.091   2.460
  435SOL    HW2 1441   3.255   2.146   2.323
  436SOL     OW 1442   1.330   0.068   3.663
  436SOL    HW1 1443   1.260   0.006   3.644
  436SOL    HW2 1444   1.286   0.142   3.704
  437SOL     OW 1445   0.219   2.778   3.436
  437SOL    HW1 1446   0.270   2.707   3.397
  437SOL    HW2 1447   0.268   2.803   3.513
  438SOL     OW 1448   3.022   3.599   2.547
  438SOL    HW1 1449   2.987   3.538   2.482
  438SOL    HW2 1450   2.967   3.677   2.538
  439SOL     OW 1451   3.468   2.091   3.841
  439SOL    HW1 1452   3.554   2.093   3.800
  439SOL    HW2 1453   3.440   2.000   3.834
  440SOL     OW 1454   3.055   3.199   0.584
  440SOL    HW1 1455   2.965   3.212   0.555
  440SOL    HW2 1456   3.103   3.272   0.544
  441SOL     OW 1457   1.751   3.331   3.200
  441SOL    HW1 1458   1.760   3.375   3.115
  441SOL    HW2 1459   1.663   3.293   3.198
  442SOL     OW 1460   0.592   0.999   2.447
  442SOL    HW1 1461   0.562   1.013   2.357
  442SOL    HW2 1462   0.514   1.008   2.500
  443SOL     OW 1463   3.505   3.840   0.175
  443SOL    HW1 1464   3.440   3.868   0.110
  443SOL    HW2 1465   3.535   3.755   0.144
  444SOL     OW 1466   2.969   1.486   2.080
  444SOL    HW1 1467   3.007   1.457   2.163
  444SOL    HW2 1468   3.020   1.440   2.013
  445SOL     OW 1469   1.170   0.255   2.613
  445SOL    HW1 1470   1.134   0.211   2.690
  445SOL    HW2 1471   1.099   0.311   2.582
  446SOL     OW 1472   3.838   0.308   2.243
  446SOL    HW1 1473   3.750   0.340   2.225
  446SOL    HW2 1474   3.874   0.287   2.157
  447SOL     OW 1475   3.685   0.568   2.202
  447SOL    HW1 1476   3.622   0.538   2.136
  447SOL    HW2 1477   3.635   0.570   2.284
  448SOL     OW 1478   1.939   1.535   2.189
  448SOL    HW1 1479   1.974   1.614   2.148
  448SOL    HW2 1480   1.902   1.484   2.117
  449SOL     OW 1481   1.336   3.444   1.716
  449SOL    HW1 1482   1.264   3.429   1.654
  449SOL    HW2 1483   1.414   3.414   1.670
  450SOL     OW 1484   3.858   1.192   0.726
  450SOL    HW1 1485   3.871   1.124   0.660
  450SOL    HW2 1486   3.900   1.158   0.805
  451SOL     OW 1487   3.137   1.252   0.236
  451SOL    HW1 1488   3.082   1.247   0.157
  451SOL    HW2 1489   3.107   1.179   0.290
  452SOL     OW 1490   3.825   1.343   3.531
  452SOL    HW1 1491   3.839   1.437   3.538
  452SOL    HW2 1492   3.861   1.307   3.612
  453SOL     OW 1493   3.444   3.420   2.582
  453SOL    HW1 1494   3.382   3.372   2.526
  453SOL    HW2 1495   3.417   3.511   2.573
  454SOL     OW 1496   0.668   2.327   1.297
  454SOL    HW1 1497   0.736   2.284   1.348
  454SOL    HW2 1498   0.665   2.417   1.331
  455SOL     OW 1499   1.116   1.029   1.818
  455SOL    HW1 1500   1.125   0.980   1.900
  455SOL    HW2 1501   1.021   1.036   1.805
  456SOL     OW 1502   1.669   2.834   0.325
  456SOL    HW1 1503   1.621   2.914   0.304
  456SOL    HW2 1504   1.682   2.837   0.420
  457SOL     OW 1505   2.336   0.055   0.519
  457SOL    HW1 1506   2.297   0.132   0.477
  457SOL    HW2 1507   2.273   0.030   0.587
  458SOL     OW 1508   0.794   0.089   3.386
  458SOL    HW1 1509   0.736   0.113   3.458
  458SOL    HW2 1510   0.824   0.001   3.409
  459SOL     OW 1511   3.935   3.844   3.264
  459SOL    HW1 1512   3.877   3.791   3.209
  459SOL    HW2 1513   4.014   3.791   3.274
  460SOL     OW 1514   2.096   2.753   1.317
  460SOL    HW1 1515   2.187   2.750   1.290
  460SOL    HW2 1516   2.096   2.718   1.406
  461SOL     OW 1517   3.780   2.276   0.255
  461SOL    HW1 1518   3.833   2.302   0.331
  461SOL    HW2 1519   3.751   2.187   0.275
  462SOL     OW 1520   3.649   3.707   3.339
  462SOL    HW1 1521   3.685   3.685   3.425
  462SOL    HW2 1522   3.654   3.625   3.289
  463SOL     OW 1523   2.534   2.216   1.004
  463SOL    HW1 1524   2.455   2.205   1.058
  463SOL    HW2 1525   2.606   2.213   1.066
  464SOL     OW 1526   0.371   0.468   1.007
  464SOL    HW1 1527   0.349   0.504   0.921
  464SOL    HW2 1528   0.419   0.539   1.051
  465SOL     OW 1529   3.216   3.242   3.647
  465SOL    HW1 1530   3.180   3.213   3.731
  465SOL    HW2 1531   3.144   3.233   3.585
  466SOL     OW 1532   2.205   3.864   1.710
  466SOL    HW1 1533   2.205   3.942   1.765
  466SOL    HW2 1534   2.297   3.844   1.697
  467SOL     OW 1535   2.843   3.688   3.640
  467SOL    HW1 1536   2.912   3.718   3.581
  467SOL    HW2 1537   2.840   3.593   3.628
  468SOL     OW 1538   1.214   0.023   2.390
  468SOL    HW1 1539   1.288   0.077   2.417
  468SOL    HW2 1540   1.200  -0.037   2.463
  469SOL     OW 1541   0.911   3.270   0.187
  469SOL    HW1 1542   0.954   3.328   0.124
  469SOL    HW2 1543   0.862   3.329   0.244
  470SOL     OW 1544   0.104   1.739   2.098
  470SOL    HW1 1545   0.023   1.702   2.132
  470SOL    HW2 1546   0.164   1.736   2.173
  471SOL     OW 1547   0.835   0.992   3.050
  471SOL    HW1 1548   0.783   1.056   3.099
  471SOL    HW2 1549   0.925   1.025   3.054
  472SOL     OW 1550   1.709   0.493   0.434
  472SOL    HW1 1551   1.614   0.490   0.442
  472SOL    HW2 1552   1.729   0.585   0.417
  473SOL     OW 1553   0.563   1.148   1.934
  473SOL    HW1 1554   0.511   1.168   1.856
  473SOL    HW2 1555   0.541   1.217   1.996
  474SOL     OW 1556   0.130   2.649   2.939
  474SOL    HW1 1557   0.150   2.736   2.904
  474SOL    HW2 1558   0.065   2.613   2.878
  475SOL     OW 1559   3.548   3.938   0.489
  475SOL    HW1 1560   3.536   3.914   0.398
  475SOL    HW2 1561   3.567   3.856   0.533
  476SOL     OW 1562   2.974   0.873   0.154
  476SOL    HW1 1563   3.026   0.849   0.077
  476SOL    HW2 1564   2.934   0.791   0.183
  477SOL     OW 1565   2.337   3.455   1.913
  477SOL    HW1 1566   2.420   3.502   1.923
  477SOL    HW2 1567   2.358   3.365   1.938
  478SOL     OW 1568   1.510   1.110   0.524
  478SOL    HW1 1569   1.513   1.111   0.428
  478SOL    HW2 1570   1.497   1.202   0.548
  479SOL     OW 1571   1.399   2.930   2.357
  479SOL    HW1 1572   1.381   2.937   2.451
  479SOL    HW2 1573   1.379   3.018   2.323
  480SOL     OW 1574   3.593   1.821   3.700
  480SOL    HW1 1575   3.646   1.897   3.723
  480SOL    HW2 1576   3.532   1.853   3.634
  481SOL     OW 1577   1.652   3.722   2.593
  481SOL    HW1 1578   1.735   3.731   2.548
  481SOL    HW2 1579   1.588   3.762   2.535
  482SOL     OW 1580   0.538   3.809   0.644
  482SOL    HW1 1581   0.535   3.881   0.581
  482SOL    HW2 1582   0.619   3.823   0.693
  483SOL     OW 1583   3.294   2.306   0.837
  483SOL    HW1 1584   3.293   2.211   0.828
  483SOL    HW2 1585   3.232   2.337   0.771
  484SOL     OW 1586   0.065   0.605   3.121
  484SOL    HW1 1587   0.014   0.526   3.136
  484SOL    HW2 1588   0.109   0.623   3.204
  485SOL     OW 1589   1.002   3.847   0.921
  485SOL    HW1 1590   1.023   3.826   1.012
  485SOL    HW2 1591   0.989   3.762   0.879
  486SOL     OW 1592   3.975   0.621   1.653
  486SOL    HW1 1593   3.951   0.593   1.564
  486SOL    HW2 1594   3.922   0.566   1.711
  487SOL     OW 1595   2.614   2.624   0.354
  487SOL    HW1 1596   2.530   2.652   0.316
  487SOL    HW2 1597   2.590   2.568   0.427
  488SOL     OW 1598   0.485   2.849   2.084
  488SOL    HW1 1599   0.491   2.769   2.033
  488SOL    HW2 1600   0.571   2.858   2.125
  489SOL     OW 1601   3.524   1.948   0.424
  489SOL    HW1 1602   3.464   1.880   0.395
  489SOL    HW2 1603   3.589   1.955   0.354
  490SOL     OW 1604   0.048   2.060   2.589
  490SOL    HW1 1605   0.132   2.059   2.635
  490SOL    HW2 1606   0.071   2.059   2.496
  491SOL     OW 1607   3.373   0.039   1.376
  491SOL    HW1 1608   3.465   0.040   1.403
  491SOL    HW2 1609   3.365  -0.039   1.321
  492SOL     OW 1610   2.713   2.908   1.207
  492SOL    HW1 1611   2.689   2.836   1.149
  492SOL    HW2 1612   2.632   2.932   1.252
  493SOL     OW 1613   3.109   0.380   3.248
  493SOL    HW1 1614   3.078   0.330   3.172
  493SOL    HW2 1615   3.151   0.457   3.209
  494SOL     OW 1616   3.324   1.893   1.473
  494SOL    HW1 1617   3.401   1.880   1.529
  494SOL    HW2 1618   3.274   1.812   1.483
  495SOL     OW 1619   1.051   0.172   2.829
  495SOL    HW1 1620   1.034   0.089   2.875
  495SOL    HW2 1621   1.019   0.239   2.889
  496SOL     OW 1622   2.754   2.163   3.568
  496SOL    HW1 1623   2.704   2.171   3.488
  496SOL    HW2 1624   2.736   2.074   3.599
  497SOL     OW 1625   2.428   0.986   3.010
  497SOL    HW1 1626   2.414   1.028   2.925
  497SOL    HW2 1627   2.343   0.992   3.054
  498SOL     OW 1628   0.279   0.871   0.891
  498SOL    HW1 1629   0.228   0.789   0.896
  498SOL    HW2 1630   0.368   0.842   0.870
  499SOL     OW 1631   0.101   1.873   3.707
  499SOL    HW1 1632   0.070   1.953   3.748
  499SOL    HW2 1633   0.055   1.870   3.623
  500SOL     OW 1634   3.404   3.111   0.820
  500SOL    HW1 1635   3.405   3.084   0.728
  500SOL    HW2 1636   3.371   3.035   0.867
  501SOL     OW 1637   2.530   3.106   2.750
  501SOL    HW1 1638   2.599   3.040   2.763
  501SOL    HW2 1639   2.463   3.082   2.814
  502SOL     OW 1640   1.858   1.780   3.617
  502SOL    HW1 1641   1.773   1.798   3.658
  502SOL    HW2 1642   1.907   1.862   3.628
  503SOL     OW 1643   3.567   2.099   0.862
  503SOL    HW1 1644   3.578   2.126   0.771
  503SOL    HW2 1645   3.472   2.089   0.873
  504SOL     OW 1646   3.846   0.902   3.375
  504SOL    HW1 1647   3.906   0.975   3.361
  504SOL    HW2 1648   3.902   0.824   3.367
  505SOL     OW 1649   3.375   1.906   1.824
  505SOL    HW1 1650   3.438   1.905   1.752
  505SOL    HW2 1651   3.299   1.953   1.789
  506SOL     OW 1652   1.509   0.688   1.465
  506SOL    HW1 1653   1.450   0.623   1.426
  506SOL    HW2 1654   1.552   0.730   1.390
  507SOL     OW 1655   2.506   0.219   2.747
  507SOL    HW1 1656   2.589   0.170   2.743
  507SOL    HW2 1657   2.493   0.234   2.841
  508SOL     OW 1658   1.304   3.802   3.921
  508SOL    HW1 1659   1.257   3.872   3.878
  508SOL    HW2 1660   1.270   3.721   3.882
  509SOL     OW 1661   1.486   2.327   3.443
  509SOL    HW1 1662   1.578   2.303   3.429
  509SOL    HW2 1663   1.477   2.413   3.403
  510SOL     OW 1664   1.815   3.158   1.565
  510SOL    HW1 1665   1.872   3.113   1.503
  510SOL    HW2 1666   1.802   3.095   1.636
  511SOL     OW 1667   2.197   3.047   0.949
  511SOL    HW1 1668   2.240   3.066   0.866
  511SOL    HW2 1669   2.217   3.122   1.005
  512SOL     OW 1670   1.559   0.137   2.365
  512SOL    HW1 1671   1.571   0.082   2.288
  512SOL    HW2 1672   1.642   0.131   2.413
  513SOL     OW 1673   1.489   2.465   1.045
  513SOL    HW1 1674   1.548   2.461   0.970
  513SOL    HW2 1675   1.412   2.415   1.018
  514SOL     OW 1676   3.487   0.503   1.069
  514SOL    HW1 1677   3.483   0.599   1.063
  514SOL    HW2 1678   3.566   0.480   1.021
  515SOL     OW 1679   3.342   3.463   3.108
  515SOL    HW1 1680   3.346   3.417   3.024
  515SOL    HW2 1681   3.319   3.395   3.172
  516SOL     OW 1682   0.921   0.310   3.466
  516SOL    HW1 1683   1.015   0.302   3.449
  516SOL    HW2 1684   0.883   0.231   3.427
  517SOL     OW 1685   3.113   2.535   2.468
  517SOL    HW1 1686   3.182   2.502   2.526
  517SOL    HW2 1687   3.153   2.608   2.422
  518SOL     OW 1688   0.284   3.685   0.683
  518SOL    HW1 1689   0.378   3.694   0.671
  518SOL    HW2 1690   0.246   3.732   0.609
  519SOL     OW 1691   3.184   1.627   3.779
  519SOL    HW1 1692   3.190   1.635   3.684
  519SOL    HW2 1693   3.137   1.545   3.793
  520SOL     OW 1694   0.277   3.461   0.780
  520SOL    HW1 1695   0.253   3.398   0.712
  520SOL    HW2 1696   0.276   3.546   0.736
  521SOL     OW 1697   1.739   3.020   2.307
  521SOL    HW1 1698   1.653   3.006   2.269
  521SOL    HW2 1699   1.793   3.051   2.235
  522SOL     OW 1700   0.652   0.943   3.934
  522SOL    HW1 1701   0.735   0.938   3.888
  522SOL    HW2 1702   0.662   0.884   4.009
  523SOL     OW 1703   2.380   2.632   0.882
  523SOL    HW1 1704   2.287   2.631   0.904
  523SOL    HW2 1705   2.383   2.610   0.788
  524SOL     OW 1706   3.212   1.483   2.969
  524SOL    HW1 1707   3.190   1.390   2.966
  524SOL    HW2 1708   3.296   1.490   2.925
  525SOL     OW 1709   2.650   3.837   1.779
  525SOL    HW1 1710   2.695   3.921   1.780
  525SOL    HW2 1711   2.563   3.857   1.745
  526SOL     OW 1712   0.850   2.649   2.518
  526SOL    HW1 1713   0.892   2.568   2.489
  526SOL    HW2 1714   0.907   2.719   2.487
  527SOL     OW 1715   2.352   0.763   2.044
  527SOL    HW1 1716   2.430   0.791   1.997
  527SOL    HW2 1717   2.332   0.835   2.104
  528SOL     OW 1718   1.251   1.222   0.375
  528SOL    HW1 1719   1.252   1.249   0.467
  528SOL    HW2 1720   1.176   1.267   0.337
  529SOL     OW 1721   2.634   1.967   1.084
  529SOL    HW1 1722   2.561   1.970   1.022
  529SOL    HW2 1723   2.679   1.884   1.064
  530SOL     OW 1724   1.889   1.023   0.519
  530SOL    HW1 1725   1.836   1.082   0.573
  530SOL    HW2 1726   1.957   0.991   0.578
  531SOL     OW 1727   1.033   1.922   0.902
  531SOL    HW1 1728   1.104   1.871   0.942
  531SOL    HW2 1729   0.974   1.942   0.974
  532SOL     OW 1730   3.771   2.050   3.761
  532SOL    HW1 1731   3.864   2.069   3.764
  532SOL    HW2 1732   3.744   2.076   3.672
  533SOL     OW 1733   0.807   1.787   0.384
  533SOL    HW1 1734   0.725   1.810   0.340
  533SOL    HW2 1735   0.848   1.872   0.404
  534SOL     OW 1736   3.399   1.210   0.663
  534SOL    HW1 1737   3.412   1.223   0.757
  534SOL    HW2 1738   3.379   1.117   0.654
  535SOL     OW 1739   0.218   2.627   0.674
  535SOL    HW1 1740   0.277   2.670   0.737
  535SOL    HW2 1741   0.250   2.537   0.671
  536SOL     OW 1742   2.895   0.569   1.263
  536SOL    HW1 1743   2.808   0.532   1.267
  536SOL    HW2 1744   2.887   0.654   1.306
  537SOL     OW 1745   3.916   3.169   0.464
  537SOL    HW1 1746   3.871   3.099   0.512
  537SOL    HW2 1747   3.989   3.124   0.420
  538SOL     OW 1748   2.332   2.994   1.738
  538SOL    HW1 1749   2.345   2.975   1.645
  538SOL    HW2 1750   2.358   2.913   1.783
  539SOL     OW 1751   0.282   0.452   0.398
  539SOL    HW1 1752   0.364   0.500   0.396
  539SOL    HW2 1753   0.214   0.519   0.387
  540SOL     OW 1754   0.574   0.648   1.891
  540SOL    HW1 1755   0.568   0.642   1.986
  540SOL    HW2 1756   0.532   0.569   1.859
  541SOL     OW 1757   3.257   1.618   3.514
  541SOL    HW1 1758   3.303   1.535   3.523
  541SOL    HW2 1759   3.202   1.607   3.437
  542SOL     OW 1760   0.421   3.477   0.344
  542SOL    HW1 1761   0.483   3.438   0.282
  542SOL    HW2 1762   0.463   3.466   0.429
  543SOL     OW 1763   3.782   2.578   3.599
  543SOL    HW1 1764   3.841   2.627   3.655
  543SOL    HW2 1765   3.733   2.645   3.551
  544SOL     OW 1766   1.594   0.791   0.484
  544SOL    HW1 1767   1.531   0.720   0.492
  544SOL    HW2 1768   1.541   0.871   0.485
  545SOL     OW 1769   1.352   3.812   0.683
  545SOL    HW1 1770   1.395   3.729   0.702
  545SOL    HW2 1771   1.264   3.788   0.653
  546SOL     OW 1772   2.228   3.608   0.267
  546SOL    HW1 1773   2.192   3.650   0.189
  546SOL    HW2 1774   2.222   3.514   0.249
  547SOL     OW 1775   3.775   2.511   1.827
  547SOL    HW1 1776   3.739   2.457   1.897
  547SOL    HW2 1777   3.867   2.523   1.851
  548SOL     OW 1778   2.934   0.749   1.980
  548SOL    HW1 1779   2.986   0.812   2.029
  548SOL    HW2 1780   2.922   0.675   2.040
  549SOL     OW 1781   3.299   2.910   0.965
  549SOL    HW1 1782   3.317   2.887   1.056
  549SOL    HW2 1783   3.230   2.849   0.939
  550SOL     OW 1784   2.688   0.764   3.664
  550SOL    HW1 1785   2.710   0.805   3.580
  550SOL    HW2 1786   2.723   0.675   3.657
  551SOL     OW 1787   3.686   2.898   0.224
  551SOL    HW1 1788   3.740   2.945   0.160
  551SOL    HW2 1789   3.663   2.965   0.289
  552SOL     OW 1790   3.189   0.737   2.664
  552SOL    HW1 1791   3.141   0.655   2.676
  552SOL    HW2 1792   3.143   0.801   2.718
  553SOL     OW 1793   2.225   2.111   0.736
  553SOL    HW1 1794   2.215   2.114   0.640
  553SOL    HW2 1795   2.292   2.044   0.750
  554SOL     OW 1796   2.989   3.018   1.800
  554SOL    HW1 1797   2.937   3.038   1.722
  554SOL    HW2 1798   3.063   3.078   1.795
  555SOL     OW 1799   1.743   1.839   0.279
  555SOL    HW1 1800   1.762   1.822   0.371
  555SOL    HW2 1801   1.672   1.777   0.258
  556SOL     OW 1802   1.240   1.306   1.951
  556SOL    HW1 1803   1.318   1.253   1.934
  556SOL    HW2 1804   1.182   1.248   2.000
  557SOL     OW 1805   0.995   0.956   3.374
  557SOL    HW1 1806   0.923   1.017   3.359
  557SOL    HW2 1807   1.055   1.004   3.432
  558SOL     OW 1808   3.133   1.139   3.654
  558SOL    HW1 1809   3.041   1.144   3.681
  558SOL    HW2 1810   3.134   1.075   3.582
  559SOL     OW 1811   3.045   2.005   1.943
  559SOL    HW1 1812   3.107   2.057   1.892
  559SOL    HW2 1813   3.096   1.969   2.015
  560SOL     OW 1814   1.324   1.796   2.972
  560SOL    HW1 1815   1.313   1.786   3.066
  560SOL    HW2 1816   1.334   1.707   2.939
  561SOL     OW 1817   2.006   1.018   1.674
  561SOL    HW1 1818   2.063   0.944   1.652
  561SOL    HW2 1819   1.936   0.980   1.727
  562SOL     OW 1820   0.636   1.801   0.635
  562SOL    HW1 1821   0.710   1.767   0.583
  562SOL    HW2 1822   0.558   1.767   0.591
  563SOL     OW 1823   2.647   1.515   2.319
  563SOL    HW1 1824   2.709   1.442   2.326
  563SOL    HW2 1825   2.686   1.574   2.255
  564SOL     OW 1826   2.778   1.340   3.018
  564SOL    HW1 1827   2.785   1.358   2.925
  564SOL    HW2 1828   2.828   1.410   3.060
  565SOL     OW 1829   3.873   0.204   1.953
  565SOL    HW1 1830   3.855   0.264   1.881
  565SOL    HW2 1831   3.963   0.174   1.937
  566SOL     OW 1832   3.888   3.622   3.051
  566SOL    HW1 1833   3.818   3.557   3.050
  566SOL    HW2 1834   3.961   3.578   3.096
  567SOL     OW 1835   0.913   1.990   3.370
  567SOL    HW1 1836   0.871   1.984   3.455
  567SOL    HW2 1837   0.918   1.900   3.338
  568SOL     OW 1838   2.560   0.478   1.570
  568SOL    HW1 1839   2.653   0.481   1.593
  568SOL    HW2 1840   2.531   0.569   1.579
  569SOL     OW 1841   1.839   2.782   2.390
  569SOL    HW1 1842   1.904   2.820   2.450
  569SOL    HW2 1843   1.794   2.858   2.353
  570SOL     OW 1844   1.840   0.764   1.129
  570SOL    HW1 1845   1.758   0.778   1.081
  570SOL    HW2 1846   1.863   0.673   1.110
  571SOL     OW 1847   1.419   0.232   3.273
  571SOL    HW1 1848   1.343   0.209   3.219
  571SOL    HW2 1849   1.408   0.326   3.290
  572SOL     OW 1850   2.054   1.919   1.593
  572SOL    HW1 1851   2.093   2.006   1.596
  572SOL    HW2 1852   1.966   1.930   1.629
  573SOL     OW 1853   3.216   3.155   1.271
  573SOL    HW1 1854   3.253   3.071   1.245
  573SOL    HW2 1855   3.255   3.218   1.209
  574SOL     OW 1856   2.024   2.878   3.714
  574SOL    HW1 1857   2.006   2.827   3.635
  574SOL    HW2 1858   2.081   2.822   3.767
  575SOL     OW 1859   1.952   2.990   2.757
  575SOL    HW1 1860   1.940   3.012   2.664
  575SOL    HW2 1861   1.866   3.008   2.796
  576SOL     OW 1862   3.260   3.250   3.286
  576SOL    HW1 1863   3.282   3.237   3.378
  576SOL    HW2 1864   3.229   3.165   3.256
  577SOL     OW 1865   3.658   2.752   2.565
  577SOL    HW1 1866   3.611   2.691   2.508
  577SOL    HW2 1867   3.696   2.695   2.633
  578SOL     OW 1868   0.177   3.017   3.138
  578SOL    HW1 1869   0.160   2.928   3.168
  578SOL    HW2 1870   0.107   3.034   3.074
  579SOL     OW 1871   2.413   3.299   1.671
  579SOL    HW1 1872   2.382   3.225   1.724
  579SOL    HW2 1873   2.442   3.364   1.736
  580SOL     OW 1874   0.855   0.803   3.751
  580SOL    HW1 1875   0.915   0.772   3.819
  580SOL    HW2 1876   0.774   0.754   3.766
  581SOL     OW 1877   1.767   0.861   2.987
  581SOL    HW1 1878   1.746   0.843   3.079
  581SOL    HW2 1879   1.700   0.814   2.938
  582SOL     OW 1880   2.376   1.902   2.174
  582SOL    HW1 1881   2.306   1.906   2.108
  582SOL    HW2 1882   2.457   1.902   2.123
  583SOL     OW 1883   3.090   1.700   2.875
  583SOL    HW1 1884   3.112   1.607   2.882
  583SOL    HW2 1885   3.123   1.739   2.957
  584SOL     OW 1886   0.296   2.891   3.739
  584SOL    HW1 1887   0.274   2.801   3.761
  584SOL    HW2 1888   0.292   2.938   3.823
  585SOL     OW 1889   0.187   1.292   1.741
  585SOL    HW1 1890   0.154   1.335   1.663
  585SOL    HW2 1891   0.109   1.274   1.794
  586SOL     OW 1892   0.908   3.590   2.963
  586SOL    HW1 1893   0.972   3.544   2.908
  586SOL    HW2 1894   0.827   3.586   2.913
  587SOL     OW 1895   1.642   3.256   0.231
  587SOL    HW1 1896   1.585   3.301   0.168
  587SOL    HW2 1897   1.584   3.195   0.275
  588SOL     OW 1898   3.685   1.503   2.612
  588SOL    HW1 1899   3.761   1.538   2.565
  588SOL    HW2 1900   3.712   1.500   2.703
  589SOL     OW 1901   0.604   0.162   3.579
  589SOL    HW1 1902   0.524   0.190   3.536
  589SOL    HW2 1903   0.630   0.236   3.634
  590SOL     OW 1904   0.439   3.984   0.035
  590SOL    HW1 1905   0.448   3.893   0.062
  590SOL    HW2 1906   0.366   3.983  -0.027
  591SOL     OW 1907   2.609   2.638   3.906
  591SOL    HW1 1908   2.646   2.552   3.923
  591SOL    HW2 1909   2.620   2.652   3.812
  592SOL     OW 1910   3.055   0.096   0.963
  592SOL    HW1 1911   3.141   0.071   0.929
  592SOL    HW2 1912   3.068   0.183   1.000
  593SOL     OW 1913   2.900   2.192   0.336
  593SOL    HW1 1914   2.923   2.119   0.278
  593SOL    HW2 1915   2.929   2.164   0.422
  594SOL     OW 1916   0.982   0.580   2.243
  594SOL    HW1 1917   1.055   0.603   2.185
  594SOL    HW2 1918   0.962   0.489   2.220
  595SOL     OW 1919   1.010   3.295   0.612
  595SOL    HW1 1920   1.074   3.283   0.541
  595SOL    HW2 1921   0.950   3.221   0.602
  596SOL     OW 1922   1.689   3.384   1.007
  596SOL    HW1 1923   1.622   3.321   0.983
  596SOL    HW2 1924   1.763   3.332   1.039
  597SOL     OW 1925   3.366   0.946   1.975
  597SOL    HW1 1926   3.336   0.979   1.890
  597SOL    HW2 1927   3.400   0.859   1.956
  598SOL     OW 1928   3.340   0.061   3.312
  598SOL    HW1 1929   3.345  -0.012   3.250
  598SOL    HW2 1930   3.374   0.025   3.394
  599SOL     OW 1931   0.542   1.680   1.713
  599SOL    HW1 1932   0.622   1.645   1.751
  599SOL    HW2 1933   0.530   1.765   1.756
  600SOL     OW 1934   1.812   0.578   0.169
  600SOL    HW1 1935   1.802   0.533   0.253
  600SOL    HW2 1936   1.723   0.579   0.132
  601SOL     OW 1937   0.261   1.506   0.282
  601SOL    HW1 1938   0.243   1.468   0.368
  601SOL    HW2 1939   0.312   1.438   0.237
  602SOL     OW 1940   3.823   2.055   1.690
  602SOL    HW1 1941   3.844   2.017   1.775
  602SOL    HW2 1942   3.739   2.099   1.704
  603SOL     OW 1943   0.257   2.724   0.347
  603SOL    HW1 1944   0.190   2.765   0.401
  603SOL    HW2 1945   0.287   2.649   0.398
  604SOL     OW 1946   2.676   0.626   2.594
  604SOL    HW1 1947   2.597   0.680   2.598
  604SOL    HW2 1948   2.682   0.600   2.502
  605SOL     OW 1949   3.181   2.798   2.430
  605SOL    HW1 1950   3.253   2.853   2.401
  605SOL    HW2 1951   3.111   2.860   2.452
  606SOL     OW 1952   2.094   1.786   2.572
  606SOL    HW1 1953   2.027   1.741   2.520
  606SOL    HW2 1954   2.170   1.793   2.514
  607SOL     OW 1955   3.050   2.930   2.069
  607SOL    HW1 1956   3.036   3.014   2.112
  607SOL    HW2 1957   3.044   2.950   1.975
  608SOL     OW 1958   3.045   3.479   0.967
  608SOL    HW1 1959   3.084   3.531   1.038
  608SOL    HW2 1960   3.060   3.530   0.888
  609SOL     OW 1961   0.495   0.568   2.140
  609SOL    HW1 1962   0.450   0.614   2.211
  609SOL    HW2 1963   0.437   0.494   2.119
  610SOL     OW 1964   0.689   2.798   0.603
  610SOL    HW1 1965   0.772   2.782   0.558
  610SOL    HW2 1966   0.640   2.716   0.595
  611SOL     OW 1967   3.889   3.432   3.667
  611SOL    HW1 1968   3.836   3.473   3.736
  611SOL    HW2 1969   3.831   3.366   3.629
  612SOL     OW 1970   3.041   0.417   1.592
  612SOL    HW1 1971   2.967   0.358   1.607
  612SOL    HW2 1972   3.116   0.359   1.578
  613SOL     OW 1973   1.470   3.063   0.326
  613SOL    HW1 1974   1.455   3.060   0.420
  613SOL    HW2 1975   1.383   3.073   0.288
  614SOL     OW 1976   2.038   3.698   3.212
  614SOL    HW1 1977   1.958   3.725   3.169
  614SOL    HW2 1978   2.012   3.680   3.302
  615SOL     OW 1979   2.520   1.793   2.832
  615SOL    HW1 1980   2.557   1.755   2.752
  615SOL    HW2 1981   2.439   1.746   2.847
  616SOL     OW 1982   3.841   0.588   0.689
  616SOL    HW1 1983   3.766   0.637   0.656
  616SOL    HW2 1984   3.808   0.500   0.705
  617SOL     OW 1985   3.152   3.660   0.665
  617SOL    HW1 1986   3.102   3.688   0.588
  617SOL    HW2 1987   3.216   3.598   0.632
  618SOL     OW 1988   2.152   3.734   0.873
  618SOL    HW1 1989   2.190   3.698   0.793
  618SOL    HW2 1990   2.065   3.764   0.847
  619SOL     OW 1991   0.475   2.062   2.409
  619SOL    HW1 1992   0.456   2.148   2.371
  619SOL    HW2 1993   0.453   2.000   2.340
  620SOL     OW 1994   3.890   3.562   0.773
  620SOL    HW1 1995   3.952   3.495   0.803
  620SOL    HW2 1996   3.943   3.641   0.764
  621SOL     OW 1997   2.761   2.994   2.842
  621SOL    HW1 1998   2.789   2.904   2.861
  621SOL    HW2 1999   2.814   3.048   2.901
  622SOL     OW 2000   0.188   3.212   3.807
  622SOL    HW1 2001   0.270   3.258   3.826
  622SOL    HW2 2002   0.147   3.201   3.893
  623SOL     OW 2003   2.472   1.257   2.728
  623SOL    HW1 2004   2.421   1.313   2.669
  623SOL    HW2 2005   2.464   1.298   2.814
  624SOL     OW 2006   0.636   2.128   0.096
  624SOL    HW1 2007   0.566   2.189   0.119
  624SOL    HW2 2008   0.716   2.180   0.103
  625SOL     OW 2009   1.965   1.574   3.778
  625SOL    HW1 2010   1.893   1.525   3.817
  625SOL    HW2 2011   1.924   1.629   3.711
  626SOL     OW 2012   3.719   2.594   1.302
  626SOL    HW1 2013   3.660   2.563   1.371
  626SOL    HW2 2014   3.674   2.670   1.264
  627SOL     OW 2015   0.099   2.915   2.761
  627SOL    HW1 2016   0.036   2.986   2.746
  627SOL    HW2 2017   0.179   2.944   2.718
  628SOL     OW 2018   0.801   1.899   3.607
  628SOL    HW1 2019   0.759   1.814   3.624
  628SOL    HW2 2020   0.878   1.899   3.664
  629SOL     OW 2021   1.110   0.717   1.009
  629SOL    HW1 2022   1.132   0.685   1.097
  629SOL    HW2 2023   1.194   0.742   0.971
  630SOL     OW 2024   3.398   3.679   1.418
  630SOL    HW1 2025   3.472   3.738   1.404
  630SOL    HW2 2026   3.369   3.655   1.330
  631SOL     OW 2027   3.024   0.534   3.467
  631SOL    HW1 2028   3.054   0.478   3.396
  631SOL    HW2 2029   3.071   0.503   3.544
  632SOL     OW 2030   1.416   0.244   1.970
  632SOL    HW1 2031   1.474   0.176   1.935
  632SOL    HW2 2032   1.446   0.258   2.060
  633SOL     OW 2033   2.577   3.173   1.371
  633SOL    HW1 2034   2.530   3.097   1.407
  633SOL    HW2 2035   2.544   3.247   1.420
  634SOL     OW 2036   3.150   2.695   1.781
  634SOL    HW1 2037   3.227   2.685   1.837
  634SOL    HW2 2038   3.180   2.751   1.710
  635SOL     OW 2039   3.297   1.057   3.837
  635SOL    HW1 2040   3.385   1.035   3.808
  635SOL    HW2 2041   3.252   1.085   3.758
  636SOL     OW 2042   3.964   2.452   0.895
  636SOL    HW1 2043   3.915   2.496   0.827
  636SOL    HW2 2044   3.963   2.513   0.969
  637SOL     OW 2045   1.627   2.031   0.837
  637SOL    HW1 2046   1.594   1.954   0.790
  637SOL    HW2 2047   1.560   2.098   0.824
  638SOL     OW 2048   3.945   0.149   2.829
  638SOL    HW1 2049   3.993   0.161   2.911
  638SOL    HW2 2050   3.905   0.235   2.811
  639SOL     OW 2051   2.886   0.855   3.025
  639SOL    HW1 2052   2.798   0.844   2.989
  639SOL    HW2 2053   2.879   0.823   3.115
  640SOL     OW 2054   2.871   0.616   1.662
  640SOL    HW1 2055   2.906   0.540   1.616
  640SOL    HW2 2056   2.949   0.658   1.700
  641SOL     OW 2057   2.600   2.701   1.039
  641SOL    HW1 2058   2.533   2.672   0.977
  641SOL    HW2 2059   2.664   2.630   1.040
  642SOL     OW 2060   0.616   0.691   0.588
  642SOL    HW1 2061   0.586   0.675   0.498
  642SOL    HW2 2062   0.703   0.651   0.592
  643SOL     OW 2063   3.122   0.152   0.622
  643SOL    HW1 2064   3.205   0.177   0.661
  643SOL    HW2 2065   3.058   0.163   0.693
  644SOL     OW 2066   3.270   1.139   3.237
  644SOL    HW1 2067   3.218   1.219   3.247
  644SOL    HW2 2068   3.237   1.099   3.156
  645SOL     OW 2069   1.665   0.185   0.031
  645SOL    HW1 2070   1.615   0.192  -0.050
  645SOL    HW2 2071   1.610   0.132   0.089
  646SOL     OW 2072   1.918   2.492   3.395
  646SOL    HW1 2073   1.842   2.541   3.362
  646SOL    HW2 2074   1.978   2.560   3.427
  647SOL     OW 2075   2.452   0.421   1.115
  647SOL    HW1 2076   2.370   0.465   1.136
  647SOL    HW2 2077   2.460   0.431   1.020
  648SOL     OW 2078   1.520   0.585   3.943
  648SOL    HW1 2079   1.561   0.670   3.935
  648SOL    HW2 2080   1.494   0.562   3.853
  649SOL     OW 2081   1.714   0.838   0.810
  649SOL    HW1 2082   1.794   0.875   0.850
  649SOL    HW2 2083   1.687   0.904   0.746
  650SOL     OW 2084   0.832   2.274   3.659
  650SOL    HW1 2085   0.749   2.271   3.707
  650SOL    HW2 2086   0.810   2.243   3.571
  651SOL     OW 2087   1.912   2.954   1.277
  651SOL    HW1 2088   1.978   3.023   1.275
  651SOL    HW2 2089   1.962   2.873   1.283
  652SOL     OW 2090   1.273   3.184   2.271
  652SOL    HW1 2091   1.291   3.188   2.365
  652SOL    HW2 2092   1.219   3.261   2.253
  653SOL     OW 2093   1.521   0.735   2.835
  653SOL    HW1 2094   1.442   0.683   2.823
  653SOL    HW2 2095   1.571   0.722   2.754
  654SOL     OW 2096   2.806   1.835   0.198
  654SOL    HW1 2097   2.838   1.778   0.128
  654SOL    HW2 2098   2.883   1.885   0.225
  655SOL     OW 2099   1.426   3.257   1.105
  655SOL    HW1 2100   1.369   3.203   1.051
  655SOL    HW2 2101   1.502   3.201   1.123
  656SOL     OW 2102   3.106   1.036   3.031
  656SOL    HW1 2103   3.045   0.964   3.046
  656SOL    HW2 2104   3.056   1.099   2.978
  657SOL     OW 2105   3.914   1.350   3.200
  657SOL    HW1 2106   3.819   1.358   3.192
  657SOL    HW2 2107   3.927   1.281   3.265
  658SOL     OW 2108   2.037   2.559   3.076
  658SOL    HW1 2109   2.077   2.546   3.163
  658SOL    HW2 2110   1.976   2.632   3.088
  659SOL     OW 2111   2.449   2.522   2.630
  659SOL    HW1 2112   2.500   2.446   2.655
  659SOL    HW2 2113   2.495   2.559   2.555
  660SOL     OW 2114   2.323   0.167   1.067
  660SOL    HW1 2115   2.397   0.227   1.066
  660SOL    HW2 2116   2.363   0.080   1.070
  661SOL     OW 2117   1.150   0.644   0.703
  661SOL    HW1 2118   1.076   0.622   0.760
  661SOL    HW2 2119   1.209   0.569   0.710
  662SOL     OW 2120   2.104   2.031   2.708
  662SOL    HW1 2121   2.084   1.958   2.648
  662SOL    HW2 2122   2.159   2.090   2.656
  663SOL     OW 2123   3.531   0.845   2.546
  663SOL    HW1 2124   3.576   0.821   2.465
  663SOL    HW2 2125   3.498   0.762   2.581
  664SOL     OW 2126   1.887   2.284   3.670
  664SOL    HW1 2127   1.836   2.358   3.702
  664SOL    HW2 2128   1.864   2.276   3.577
  665SOL     OW 2129   0.595   2.571   3.098
  665SOL    HW1 2130   0.561   2.482   3.111
  665SOL    HW2 2131   0.591   2.585   3.003
  666SOL     OW 2132   1.985   0.925   3.283
  666SOL    HW1 2133   1.922   0.996   3.296
  666SOL    HW2 2134   1.944   0.848   3.324
  667SOL     OW 2135   1.531   3.329   2.312
  667SOL    HW1 2136   1.534   3.383   2.233
  667SOL    HW2 2137   1.487   3.249   2.285
  668SOL     OW 2138   0.144   1.496   1.189
  668SOL    HW1 2139   0.202   1.474   1.262
  668SOL    HW2 2140   0.062   1.524   1.230
  669SOL     OW 2141   0.331   2.282   1.977
  669SOL    HW1 2142   0.293   2.196   1.994
  669SOL    HW2 2143   0.263   2.330   1.931
  670SOL     OW 2144   2.179   0.254   0.371
  670SOL    HW1 2145   2.137   0.339   0.389
  670SOL    HW2 2146   2.158   0.236   0.279
  671SOL     OW 2147   1.219   1.624   2.521
  671SOL    HW1 2148   1.156   1.657   2.585
  671SOL    HW2 2149   1.303   1.662   2.548
  672SOL     OW 2150   0.451   0.300   0.801
  672SOL    HW1 2151   0.428   0.349   0.879
  672SOL    HW2 2152   0.405   0.345   0.730
  673SOL     OW 2153   2.350   2.344   3.518
  673SOL    HW1 2154   2.338   2.328   3.612
  673SOL    HW2 2155   2.429   2.295   3.496
  674SOL     OW 2156   0.489   0.137   2.957
  674SOL    HW1 2157   0.555   0.206   2.967
  674SOL    HW2 2158   0.520   0.067   3.015
  675SOL     OW 2159   1.287   3.913   1.981
  675SOL    HW1 2160   1.327   3.937   2.065
  675SOL    HW2 2161   1.268   3.820   1.990
  676SOL     OW 2162   2.785   3.794   2.508
  676SOL    HW1 2163   2.770   3.794   2.414
  676SOL    HW2 2164   2.732   3.721   2.541
  677SOL     OW 2165   3.131   1.974   3.798
  677SOL    HW1 2166   3.187   1.937   3.866
  677SOL    HW2 2167   3.054   1.917   3.796
  678SOL     OW 2168   2.519   0.128   3.775
  678SOL    HW1 2169   2.546   0.038   3.753
  678SOL    HW2 2170   2.451   0.117   3.841
  679SOL     OW 2171   0.426   2.274   3.793
  679SOL    HW1 2172   0.439   2.342   3.727
  679SOL    HW2 2173   0.441   2.318   3.877
  680SOL     OW 2174   0.800   0.484   2.741
  680SOL    HW1 2175   0.742   0.408   2.730
  680SOL    HW2 2176   0.859   0.458   2.812
  681SOL     OW 2177   0.017   2.946   3.417
  681SOL    HW1 2178   0.090   2.896   3.452
  681SOL    HW2 2179  -0.001   2.907   3.331
  682SOL     OW 2180   1.340   0.706   0.237
  682SOL    HW1 2181   1.352   0.731   0.145
  682SOL    HW2 2182   1.315   0.787   0.281
  683SOL     OW 2183   3.361   3.843   3.861
  683SOL    HW1 2184   3.353   3.783   3.787
  683SOL    HW2 2185   3.274   3.883   3.869
  684SOL     OW 2186   3.547   2.442   0.232
  684SOL    HW1 2187   3.635   2.422   0.202
  684SOL    HW2 2188   3.516   2.362   0.274
  685SOL     OW 2189   2.154   0.090   0.753
  685SOL    HW1 2190   2.085   0.128   0.698
  685SOL    HW2 2191   2.118   0.092   0.842
  686SOL     OW 2192   0.773   3.274   3.535
  686SOL    HW1 2193   0.747   3.272   3.627
  686SOL    HW2 2194   0.693   3.251   3.487
  687SOL     OW 2195   1.887   2.481   1.001
  687SOL    HW1 2196   1.878   2.471   1.096
  687SOL    HW2 2197   1.904   2.575   0.989
  688SOL     OW 2198   2.668   3.394   3.538
  688SOL    HW1 2199   2.582   3.352   3.533
  688SOL    HW2 2200   2.696   3.401   3.447
  689SOL     OW 2201   1.924   0.191   0.663
  689SOL    HW1 2202   1.932   0.274   0.618
  689SOL    HW2 2203   1.847   0.201   0.719
  690SOL     OW 2204   0.363   1.249   0.627
  690SOL    HW1 2205   0.447   1.226   0.587
  690SOL    HW2 2206   0.320   1.165   0.642
  691SOL     OW 2207   1.678   3.517   1.284
  691SOL    HW1 2208   1.642   3.602   1.309
  691SOL    HW2 2209   1.666   3.513   1.189
  692SOL     OW 2210   1.623   2.398   2.654
  692SOL    HW1 2211   1.643   2.305   2.661
  692SOL    HW2 2212   1.696   2.435   2.604
  693SOL     OW 2213   0.265   1.406   1.403
  693SOL    HW1 2214   0.339   1.414   1.463
  693SOL    HW2 2215   0.266   1.314   1.377
  694SOL     OW 2216   3.404   3.665   2.512
  694SOL    HW1 2217   3.314   3.631   2.517
  694SOL    HW2 2218   3.409   3.705   2.425
  695SOL     OW 2219   1.437   2.053   0.053
  695SOL    HW1 2220   1.370   2.095   0.107
  695SOL    HW2 2221   1.517   2.100   0.073
  696SOL     OW 2222   1.856   3.715   3.959
  696SOL    HW1 2223   1.842   3.808   3.939
  696SOL    HW2 2224   1.896   3.679   3.879
  697SOL     OW 2225   2.186   1.833   0.489
  697SOL    HW1 2226   2.237   1.760   0.456
  697SOL    HW2 2227   2.178   1.816   0.583
  698SOL     OW 2228   2.740   2.830   3.180
  698SOL    HW1 2229   2.768   2.922   3.181
  698SOL    HW2 2230   2.712   2.813   3.270
  699SOL     OW 2231   2.980   2.426   0.903
  699SOL    HW1 2232   3.033   2.384   0.835
  699SOL    HW2 2233   2.920   2.482   0.854
  700SOL     OW 2234   2.999   3.360   1.320
  700SOL    HW1 2235   2.923   3.310   1.288
  700SOL    HW2 2236   3.073   3.300   1.308
  701SOL     OW 2237   1.725   2.565   1.467
  701SOL    HW1 2238   1.698   2.640   1.413
  701SOL    HW2 2239   1.783   2.603   1.534
  702SOL     OW 2240   1.697   2.888   0.054
  702SOL    HW1 2241   1.767   2.941   0.017
  702SOL    HW2 2242   1.724   2.872   0.144
  703SOL     OW 2243   2.251   2.986   2.905
  703SOL    HW1 2244   2.259   2.892   2.924
  703SOL    HW2 2245   2.277   3.029   2.986
  704SOL     OW 2246   3.429   3.904   3.536
  704SOL    HW1 2247   3.512   3.859   3.522
  704SOL    HW2 2248   3.448   3.968   3.605
  705SOL     OW 2249   0.316   0.414   2.024
  705SOL    HW1 2250   0.395   0.368   1.998
  705SOL    HW2 2251   0.246   0.372   1.974
  706SOL     OW 2252   1.039   2.351   2.941
  706SOL    HW1 2253   1.034   2.258   2.963
  706SOL    HW2 2254   1.107   2.356   2.873
  707SOL     OW 2255   1.112   2.969   2.694
  707SOL    HW1 2256   1.149   2.894   2.741
  707SOL    HW2 2257   1.104   2.939   2.603
  708SOL     OW 2258   2.365   0.164   2.525
  708SOL    HW1 2259   2.417   0.145   2.447
  708SOL    HW2 2260   2.430   0.175   2.594
  709SOL     OW 2261   2.342   2.088   1.207
  709SOL    HW1 2262   2.274   2.144   1.170
  709SOL    HW2 2263   2.311   1.998   1.191
  710SOL     OW 2264   1.555   2.970   1.560
  710SOL    HW1 2265   1.495   2.965   1.485
  710SOL    HW2 2266   1.522   3.044   1.612
  711SOL     OW 2267   3.757   1.893   0.815
  711SOL    HW1 2268   3.839   1.867   0.857
  711SOL    HW2 2269   3.712   1.944   0.882
  712SOL     OW 2270   0.860   3.479   3.207
  712SOL    HW1 2271   0.864   3.524   3.123
  712SOL    HW2 2272   0.945   3.496   3.248
  713SOL     OW 2273   2.545   0.176   3.476
  713SOL    HW1 2274   2.473   0.236   3.458
  713SOL    HW2 2275   2.542   0.161   3.570
  714SOL     OW 2276   3.482   0.183   1.136
  714SOL    HW1 2277   3.474   0.156   1.227
  714SOL    HW2 2278   3.564   0.232   1.133
  715SOL     OW 2279   3.285   2.570   3.606
  715SOL    HW1 2280   3.224   2.557   3.533
  715SOL    HW2 2281   3.292   2.484   3.647
  716SOL     OW 2282   1.442   1.555   0.921
  716SOL    HW1 2283   1.432   1.560   1.016
  716SOL    HW2 2284   1.363   1.595   0.886
  717SOL     OW 2285   0.955   2.622   1.929
  717SOL    HW1 2286   0.949   2.546   1.871
  717SOL    HW2 2287   0.884   2.609   1.993
  718SOL     OW 2288   1.905   2.750   2.079
  718SOL    HW1 2289   1.878   2.717   2.165
  718SOL    HW2 2290   1.923   2.843   2.094
  719SOL     OW 2291   1.040   3.396   0.892
  719SOL    HW1 2292   1.053   3.309   0.853
  719SOL    HW2 2293   1.129   3.428   0.909
  720SOL     OW 2294   3.695   3.137   0.783
  720SOL    HW1 2295   3.750   3.117   0.707
  720SOL    HW2 2296   3.751   3.121   0.858
  721SOL     OW 2297   1.729   0.503   3.144
  721SOL    HW1 2298   1.666   0.431   3.131
  721SOL    HW2 2299   1.674   0.578   3.168
  722SOL     OW 2300   3.622   0.167   2.103
  722SOL    HW1 2301   3.694   0.177   2.041
  722SOL    HW2 2302   3.641   0.085   2.149
  723SOL     OW 2303   2.338   1.443   2.557
  723SOL    HW1 2304   2.253   1.444   2.600
  723SOL    HW2 2305   2.319   1.459   2.465
  724SOL     OW 2306   2.405   0.366   3.721
  724SOL    HW1 2307   2.320   0.329   3.696
  724SOL    HW2 2308   2.460   0.289   3.736
  725SOL     OW 2309   0.178   2.300   2.818
  725SOL    HW1 2310   0.237   2.226   2.804
  725SOL    HW2 2311   0.098   2.261   2.851
  726SOL     OW 2312   0.210   1.442   0.532
  726SOL    HW1 2313   0.263   1.372   0.568
  726SOL    HW2 2314   0.140   1.454   0.596
  727SOL     OW 2315   2.645   1.824   3.080
  727SOL    HW1 2316   2.631   1.846   2.988
  727SOL    HW2 2317   2.727   1.869   3.103
  728SOL     OW 2318   0.841   1.415   2.161
  728SOL    HW1 2319   0.798   1.500   2.149
  728SOL    HW2 2320   0.775   1.362   2.206
  729SOL     OW 2321   1.505   2.068   3.196
  729SOL    HW1 2322   1.432   2.071   3.258
  729SOL    HW2 2323   1.464   2.058   3.110
  730SOL     OW 2324   2.591   1.826   3.840
  730SOL    HW1 2325   2.511   1.873   3.817
  730SOL    HW2 2326   2.628   1.874   3.914
  731SOL     OW 2327   3.014   2.274   3.217
  731SOL    HW1 2328   3.011   2.346   3.281
  731SOL    HW2 2329   2.937   2.288   3.162
  732SOL     OW 2330   3.323   0.470   0.447
  732SOL    HW1 2331   3.319   0.546   0.389
  732SOL    HW2 2332   3.233   0.437   0.450
  733SOL     OW 2333   3.346   1.425   1.123
  733SOL    HW1 2334   3.279   1.487   1.094
  733SOL    HW2 2335   3.427   1.476   1.122
  734SOL     OW 2336   0.551   0.819   2.801
  734SOL    HW1 2337   0.472   0.768   2.821
  734SOL    HW2 2338   0.590   0.773   2.726
  735SOL     OW 2339   3.319   0.610   2.190
  735SOL    HW1 2340   3.314   0.521   2.224
  735SOL    HW2 2341   3.318   0.599   2.095
  736SOL     OW 2342   1.000   3.607   3.711
  736SOL    HW1 2343   1.050   3.675   3.757
  736SOL    HW2 2344   0.996   3.638   3.620
  737SOL     OW 2345   1.617   1.583   0.180
  737SOL    HW1 2346   1.671   1.554   0.107
  737SOL    HW2 2347   1.583   1.503   0.219
  738SOL     OW 2348   1.216   1.865   1.129
  738SOL    HW1 2349   1.247   1.874   1.219
  738SOL    HW2 2350   1.180   1.951   1.107
  739SOL     OW 2351   1.754   1.847   2.768
  739SOL    HW1 2352   1.771   1.939   2.747
  739SOL    HW2 2353   1.824   1.823   2.829
  740SOL     OW 2354   0.905   3.027   0.337
  740SOL    HW1 2355   0.821   3.054   0.374
  740SOL    HW2 2356   0.933   3.101   0.284
  741SOL     OW 2357   3.062   1.786   0.795
  741SOL    HW1 2358   3.028   1.860   0.846
  741SOL    HW2 2359   3.130   1.748   0.850
  742SOL     OW 2360   2.819   1.408   0.029
  742SOL    HW1 2361   2.736   1.431   0.070
  742SOL    HW2 2362   2.812   1.315   0.008
  743SOL     OW 2363   1.104   2.946   2.154
  743SOL    HW1 2364   1.023   2.956   2.103
  743SOL    HW2 2365   1.083   2.982   2.240
  744SOL     OW 2366   2.138   1.690   3.171
  744SOL    HW1 2367   2.164   1.751   3.241
  744SOL    HW2 2368   2.107   1.612   3.217
  745SOL     OW 2369   1.223   1.104   0.022
  745SOL    HW1 2370   1.297   1.161   0.042
  745SOL    HW2 2371   1.160   1.161  -0.022
  746SOL     OW 2372   3.567   0.740   1.616
  746SOL    HW1 2373   3.509   0.746   1.539
  746SOL    HW2 2374   3.541   0.657   1.657
  747SOL     OW 2375   2.931   2.945   0.339
  747SOL    HW1 2376   2.948   2.896   0.259
  747SOL    HW2 2377   2.935   3.037   0.312
  748SOL     OW 2378   3.644   2.844   3.492
  748SOL    HW1 2379   3.662   2.852   3.398
  748SOL    HW2 2380   3.548   2.842   3.498
  749SOL     OW 2381   2.614   0.778   0.494
  749SOL    HW1 2382   2.675   0.848   0.519
  749SOL    HW2 2383   2.633   0.707   0.555
  750SOL     OW 2384   2.139   0.715   3.526
  750SOL    HW1 2385   2.199   0.691   3.597
  750SOL    HW2 2386   2.196   0.727   3.449
  751SOL     OW 2387   3.687   2.957   1.435
  751SOL    HW1 2388   3.692   3.051   1.454
  751SOL    HW2 2389   3.738   2.947   1.354
  752SOL     OW 2390   1.309   0.417   2.190
  752SOL    HW1 2391   1.363   0.463   2.126
  752SOL    HW2 2392   1.299   0.479   2.262
  753SOL     OW 2393   3.857   1.222   1.986
  753SOL    HW1 2394   3.783   1.162   1.996
  753SOL    HW2 2395   3.932   1.173   2.021
  754SOL     OW 2396   0.895   3.662   0.285
  754SOL    HW1 2397   0.850   3.685   0.204
  754SOL    HW2 2398   0.847   3.587   0.319
  755SOL     OW 2399   3.722   1.437   0.726
  755SOL    HW1 2400   3.658   1.432   0.655
  755SOL    HW2 2401   3.774   1.357   0.718
  756SOL     OW 2402   1.409   2.732   2.158
  756SOL    HW1 2403   1.408   2.794   2.231
  756SOL    HW2 2404   1.416   2.787   2.080
  757SOL     OW 2405   1.007   0.641  -0.014
  757SOL    HW1 2406   0.952   0.653   0.063
  757SOL    HW2 2407   1.095   0.665   0.015
  758SOL     OW 2408   1.297   0.424   0.747
  758SOL    HW1 2409   1.303   0.350   0.807
  758SOL    HW2 2410   1.384   0.431   0.709
  759SOL     OW 2411   0.327   2.381   0.477
  759SOL    HW1 2412   0.248   2.362   0.528
  759SOL    HW2 2413   0.309   2.346   0.390
  760SOL     OW 2414   2.329   2.419   1.504
  760SOL    HW1 2415   2.311   2.406   1.410
  760SOL    HW2 2416   2.278   2.351   1.548
  761SOL     OW 2417   2.050   3.549   0.679
  761SOL    HW1 2418   2.069   3.529   0.771
  761SOL    HW2 2419   2.060   3.465   0.634
  762SOL     OW 2420   1.157   2.042   0.500
  762SOL    HW1 2421   1.093   1.973   0.516
  762SOL    HW2 2422   1.237   1.996   0.475
  763SOL     OW 2423   2.299   3.381   2.243
  763SOL    HW1 2424   2.232   3.338   2.296
  763SOL    HW2 2425   2.377   3.382   2.299
  764SOL     OW 2426   2.824   2.071   1.442
  764SOL    HW1 2427   2.872   1.989   1.431
  764SOL    HW2 2428   2.789   2.091   1.356
  765SOL     OW 2429   1.709   2.124   2.779
  765SOL    HW1 2430   1.647   2.121   2.851
  765SOL    HW2 2431   1.783   2.174   2.813
  766SOL     OW 2432   0.749   1.547   1.315
  766SOL    HW1 2433   0.802   1.564   1.238
  766SOL    HW2 2434   0.781   1.608   1.381
  767SOL     OW 2435   1.713   2.517   3.690
  767SOL    HW1 2436   1.634   2.572   3.697
  767SOL    HW2 2437   1.751   2.541   3.606
  768SOL     OW 2438   3.383   1.192   1.337
  768SOL    HW1 2439   3.451   1.124   1.340
  768SOL    HW2 2440   3.413   1.251   1.268
  769SOL     OW 2441   3.284   0.812   2.967
  769SOL    HW1 2442   3.243   0.897   2.980
  769SOL    HW2 2443   3.361   0.830   2.914
  770SOL     OW 2444   3.659   3.140   1.695
  770SOL    HW1 2445   3.636   3.210   1.756
  770SOL    HW2 2446   3.712   3.079   1.747
  771SOL     OW 2447   3.737   0.858   2.264
  771SOL    HW1 2448   3.648   0.859   2.229
  771SOL    HW2 2449   3.771   0.771   2.243
  772SOL     OW 2450   2.149   3.732   2.867
  772SOL    HW1 2451   2.131   3.730   2.961
  772SOL    HW2 2452   2.245   3.733   2.860
  773SOL     OW 2453   3.909   2.758   1.546
  773SOL    HW1 2454   3.873   2.715   1.469
  773SOL    HW2 2455   3.853   2.834   1.560
  774SOL     OW 2456   3.240   0.297   2.262
  774SOL    HW1 2457   3.205   0.303   2.174
  774SOL    HW2 2458   3.254   0.204   2.277
  775SOL     OW 2459   0.509   1.553   3.915
  775SOL    HW1 2460   0.422   1.581   3.887
  775SOL    HW2 2461   0.570   1.610   3.868
  776SOL     OW 2462   2.081   0.353   0.110
  776SOL    HW1 2463   2.051   0.405   0.036
  776SOL    HW2 2464   2.032   0.271   0.103
  777SOL     OW 2465   1.286   2.638   1.404
  777SOL    HW1 2466   1.260   2.554   1.367
  777SOL    HW2 2467   1.369   2.620   1.448
  778SOL     OW 2468   0.230   0.646   2.396
  778SOL    HW1 2469   0.198   0.560   2.366
  778SOL    HW2 2470   0.204   0.650   2.488
  779SOL     OW 2471   3.952   1.514   3.831
  779SOL    HW1 2472   3.939   1.562   3.913
  779SOL    HW2 2473   3.929   1.424   3.852
  780SOL     OW 2474   1.191   3.140   1.001
  780SOL    HW1 2475   1.133   3.096   1.062
  780SOL    HW2 2476   1.177   3.095   0.917
  781SOL     OW 2477   0.289   1.966   0.596
  781SOL    HW1 2478   0.244   1.889   0.562
  781SOL    HW2 2479   0.295   2.025   0.521
  782SOL     OW 2480   0.046   2.063   3.912
  782SOL    HW1 2481   0.077   2.006   3.983
  782SOL    HW2 2482  -0.000   2.134   3.957
  783SOL     OW 2483   2.003   2.723   1.066
  783SOL    HW1 2484   2.074   2.693   1.009
  783SOL    HW2 2485   2.040   2.720   1.154
  784SOL     OW 2486   1.640   0.337   1.795
  784SOL    HW1 2487   1.576   0.393   1.838
  784SOL    HW2 2488   1.621   0.345   1.702
  785SOL     OW 2489   3.887   2.186   0.505
  785SOL    HW1 2490   3.871   2.100   0.545
  785SOL    HW2 2491   3.976   2.180   0.470
  786SOL     OW 2492   0.436   2.832   0.180
  786SOL    HW1 2493   0.505   2.766   0.175
  786SOL    HW2 2494   0.365   2.789   0.227
  787SOL     OW 2495   2.649   2.369   2.731
  787SOL    HW1 2496   2.640   2.276   2.753
  787SOL    HW2 2497   2.743   2.383   2.722
  788SOL     OW 2498   2.173   1.794   3.895
  788SOL    HW1 2499   2.106   1.754   3.840
  788SOL    HW2 2500   2.185   1.733   3.968
  789SOL     OW 2501   1.519   2.075   2.235
  789SOL    HW1 2502   1.532   2.144   2.300
  789SOL    HW2 2503   1.533   2.118   2.151
  790SOL     OW 2504   1.502   3.808   3.636
  790SOL    HW1 2505   1.443   3.883   3.629
  790SOL    HW2 2506   1.548   3.822   3.719
  791SOL     OW 2507   3.574   0.441   0.541
  791SOL    HW1 2508   3.481   0.431   0.524
  791SOL    HW2 2509   3.608   0.490   0.467
  792SOL     OW 2510   0.132   0.054   3.907
  792SOL    HW1 2511   0.141  -0.034   3.945
  792SOL    HW2 2512   0.152   0.113   3.980
  793SOL     OW 2513   1.304   2.253   2.869
  793SOL    HW1 2514   1.255   2.250   2.787
  793SOL    HW2 2515   1.282   2.170   2.913
  794SOL     OW 2516   3.958   0.911   2.517
  794SOL    HW1 2517   3.913   0.887   2.436
  794SOL    HW2 2518   3.936   1.003   2.530
  795SOL     OW 2519   0.403   2.566   1.703
  795SOL    HW1 2520   0.410   2.507   1.628
  795SOL    HW2 2521   0.343   2.634   1.674
  796SOL     OW 2522   1.465   1.339   1.258
  796SOL    HW1 2523   1.518   1.386   1.323
  796SOL    HW2 2524   1.435   1.261   1.304
  797SOL     OW 2525   0.135   1.990   1.981
  797SOL    HW1 2526   0.123   1.902   2.017
  797SOL    HW2 2527   0.120   1.979   1.887
  798SOL     OW 2528   0.311   0.803   1.532
  798SOL    HW1 2529   0.261   0.865   1.586
  798SOL    HW2 2530   0.393   0.791   1.579
  799SOL     OW 2531   0.530   2.311   0.654
  799SOL    HW1 2532   0.499   2.246   0.717
  799SOL    HW2 2533   0.456   2.324   0.594
  800SOL     OW 2534   0.460   0.437   3.298
  800SOL    HW1 2535   0.398   0.507   3.277
  800SOL    HW2 2536   0.409   0.375   3.351
  801SOL     OW 2537   1.536   3.053   2.118
  801SOL    HW1 2538   1.448   3.040   2.082
  801SOL    HW2 2539   1.590   3.072   2.041
  802SOL     OW 2540   1.904   2.207   0.785
  802SOL    HW1 2541   1.951   2.154   0.850
  802SOL    HW2 2542   1.841   2.147   0.746
  803SOL     OW 2543   3.065   2.474   2.191
  803SOL    HW1 2544   3.041   2.555   2.144
  803SOL    HW2 2545   3.011   2.406   2.150
  804SOL     OW 2546   3.048   1.979   0.237
  804SOL    HW1 2547   3.100   1.899   0.237
  804SOL    HW2 2548   3.102   2.043   0.191
  805SOL     OW 2549   1.205   0.588   2.621
  805SOL    HW1 2550   1.166   0.668   2.657
  805SOL    HW2 2551   1.130   0.539   2.586
  806SOL     OW 2552   3.089   0.217   0.074
  806SOL    HW1 2553   3.035   0.142   0.046
  806SOL    HW2 2554   3.054   0.240   0.160
  807SOL     OW 2555   0.710   2.144   1.665
  807SOL    HW1 2556   0.649   2.070   1.666
  807SOL    HW2 2557   0.756   2.137   1.749
  808SOL     OW 2558   0.344   3.028   0.026
  808SOL    HW1 2559   0.269   3.059   0.075
  808SOL    HW2 2560   0.386   2.964   0.083
  809SOL     OW 2561   2.451   3.731   3.249
  809SOL    HW1 2562   2.544   3.716   3.265
  809SOL    HW2 2563   2.419   3.772   3.329
  810SOL     OW 2564   0.730   2.830   1.229
  810SOL    HW1 2565   0.691   2.840   1.142
  810SOL    HW2 2566   0.806   2.774   1.214
  811SOL     OW 2567   1.749   0.968   3.645
  811SOL    HW1 2568   1.810   0.955   3.717
  811SOL    HW2 2569   1.764   0.893   3.587
  812SOL     OW 2570   1.550   2.823   3.657
  812SOL    HW1 2571   1.465   2.855   3.629
  812SOL    HW2 2572   1.612   2.862   3.595
  813SOL     OW 2573   2.033   1.836   1.304
  813SOL    HW1 2574   2.002   1.886   1.380
  813SOL    HW2 2575   2.060   1.752   1.339
  814SOL     OW 2576   3.638   0.042   0.952
  814SOL    HW1 2577   3.686  -0.000   1.022
  814SOL    HW2 2578   3.560   0.078   0.994
  815SOL     OW 2579   1.028   3.436   1.826
  815SOL    HW1 2580   1.048   3.407   1.737
  815SOL    HW2 2581   1.081   3.380   1.882
  816SOL     OW 2582   2.926   1.918   2.250
  816SOL    HW1 2583   2.893   1.905   2.339
  816SOL    HW2 2584   2.854   1.889   2.194
  817SOL     OW 2585   2.292   3.441   3.874
  817SOL    HW1 2586   2.204   3.424   3.907
  817SOL    HW2 2587   2.340   3.360   3.890
  818SOL     OW 2588   1.849   2.478   2.491
  818SOL    HW1 2589   1.848   2.478   2.396
  818SOL    HW2 2590   1.918   2.540   2.515
  819SOL     OW 2591   3.299   2.341   1.947
  819SOL    HW1 2592   3.214   2.355   1.987
  819SOL    HW2 2593   3.338   2.268   1.995
  820SOL     OW 2594   0.570   0.797   3.270
  820SOL    HW1 2595   0.589   0.845   3.190
  820SOL    HW2 2596   0.543   0.864   3.333
  821SOL     OW 2597   2.347   2.584   3.961
  821SOL    HW1 2598   2.435   2.612   3.934
  821SOL    HW2 2599   2.289   2.618   3.894
  822SOL     OW 2600   3.620   3.973   2.708
  822SOL    HW1 2601   3.684   3.923   2.656
  822SOL    HW2 2602   3.663   3.986   2.792
  823SOL     OW 2603   2.136   1.295   2.999
  823SOL    HW1 2604   2.073   1.356   2.960
  823SOL    HW2 2605   2.220   1.316   2.958
  824SOL     OW 2606   0.722   0.944   2.125
  824SOL    HW1 2607   0.659   0.884   2.087
  824SOL    HW2 2608   0.707   1.027   2.079
  825SOL     OW 2609   1.018   2.566   0.962
  825SOL    HW1 2610   0.974   2.621   0.897
  825SOL    HW2 2611   0.972   2.483   0.958
  826SOL     OW 2612   0.852   3.045   1.750
  826SOL    HW1 2613   0.763   3.010   1.753
  826SOL    HW2 2614   0.854   3.100   1.672
  827SOL     OW 2615   1.495   0.378   3.043
  827SOL    HW1 2616   1.432   0.407   2.976
  827SOL    HW2 2617   1.450   0.308   3.089
  828SOL     OW 2618   1.206   2.114   0.760
  828SOL    HW1 2619   1.201   2.084   0.669
  828SOL    HW2 2620   1.139   2.064   0.806
  829SOL     OW 2621   3.034   0.910   2.174
  829SOL    HW1 2622   3.066   0.848   2.240
  829SOL    HW2 2623   3.004   0.985   2.224
  830SOL     OW 2624   3.202   2.639   3.318
  830SOL    HW1 2625   3.216   2.548   3.290
  830SOL    HW2 2626   3.285   2.683   3.300
  831SOL     OW 2627   2.425   0.733   2.581
  831SOL    HW1 2628   2.412   0.805   2.643
  831SOL    HW2 2629   2.362   0.667   2.608
  832SOL     OW 2630   3.362   0.433   0.030
  832SOL    HW1 2631   3.405   0.518   0.029
  832SOL    HW2 2632   3.385   0.393  -0.054
  833SOL     OW 2633   1.524   1.964   2.574
  833SOL    HW1 2634   1.535   1.917   2.657
  833SOL    HW2 2635   1.610   1.959   2.532
  834SOL     OW 2636   0.742   2.266   1.003
  834SOL    HW1 2637   0.741   2.327   1.077
  834SOL    HW2 2638   0.650   2.261   0.976
  835SOL     OW 2639   2.002   2.974   0.549
  835SOL    HW1 2640   1.934   3.032   0.515
  835SOL    HW2 2641   1.959   2.924   0.618
  836SOL     OW 2642   1.904   2.263   2.961
  836SOL    HW1 2643   1.829   2.246   3.019
  836SOL    HW2 2644   1.977   2.220   3.005
  837SOL     OW 2645   0.188   2.103   0.374
  837SOL    HW1 2646   0.239   2.148   0.308
  837SOL    HW2 2647   0.149   2.028   0.327
  838SOL     OW 2648   0.135   1.726   0.504
  838SOL    HW1 2649   0.059   1.670   0.495
  838SOL    HW2 2650   0.210   1.669   0.487
  839SOL     OW 2651   3.902   3.177   2.391
  839SOL    HW1 2652   3.930   3.141   2.475
  839SOL    HW2 2653   3.965   3.247   2.372
  840SOL     OW 2654   1.757   1.761   3.363
  840SOL    HW1 2655   1.798   1.759   3.450
  840SOL    HW2 2656   1.663   1.753   3.381
  841SOL     OW 2657   3.024   1.080   1.692
  841SOL    HW1 2658   2.989   0.994   1.714
  841SOL    HW2 2659   3.117   1.074   1.713
  842SOL     OW 2660   3.305   3.832   0.830
  842SOL    HW1 2661   3.230   3.782   0.797
  842SOL    HW2 2662   3.378   3.771   0.825
  843SOL     OW 2663   0.115   2.687   1.359
  843SOL    HW1 2664   0.205   2.658   1.370
  843SOL    HW2 2665   0.074   2.672   1.444
  844SOL     OW 2666   3.527   0.201   0.660
  844SOL    HW1 2667   3.549   0.143   0.587
  844SOL    HW2 2668   3.540   0.289   0.625
  845SOL     OW 2669   3.612   3.589   0.080
  845SOL    HW1 2670   3.576   3.515   0.129
  845SOL    HW2 2671   3.665   3.549   0.011
  846SOL     OW 2672   0.863   1.916   1.111
  846SOL    HW1 2673   0.806   1.863   1.055
  846SOL    HW2 2674   0.838   1.891   1.200
  847SOL     OW 2675   3.540   1.731   2.486
  847SOL    HW1 2676   3.585   1.650   2.513
  847SOL    HW2 2677   3.527   1.779   2.568
  848SOL     OW 2678   0.090   0.326   1.743
  848SOL    HW1 2679   0.031   0.319   1.667
  848SOL    HW2 2680   0.137   0.243   1.744
  849SOL     OW 2681   1.535   0.458   2.373
  849SOL    HW1 2682   1.467   0.525   2.373
  849SOL    HW2 2683   1.487   0.376   2.384
  850SOL     OW 2684   3.730   0.855   2.991
  850SOL    HW1 2685   3.664   0.883   2.927
  850SOL    HW2 2686   3.710   0.763   3.008
  851SOL     OW 2687   0.723   0.827   2.581
  851SOL    HW1 2688   0.795   0.797   2.527
  851SOL    HW2 2689   0.676   0.890   2.526
  852SOL     OW 2690   3.630   0.891   0.519
  852SOL    HW1 2691   3.577   0.929   0.590
  852SOL    HW2 2692   3.627   0.956   0.449
  853SOL     OW 2693   0.589   2.051   3.484
  853SOL    HW1 2694   0.657   2.004   3.532
  853SOL    HW2 2695   0.627   2.064   3.396
  854SOL     OW 2696   2.159   2.677   1.582
  854SOL    HW1 2697   2.144   2.642   1.670
  854SOL    HW2 2698   2.254   2.689   1.577
  855SOL     OW 2699   3.134   3.783   2.122
  855SOL    HW1 2700   3.189   3.810   2.195
  855SOL    HW2 2701   3.124   3.861   2.068
  856SOL     OW 2702   2.491   3.276   1.011
  856SOL    HW1 2703   2.566   3.308   0.961
  856SOL    HW2 2704   2.524   3.199   1.057
  857SOL     OW 2705   3.169   3.248   1.800
  857SOL    HW1 2706   3.125   3.289   1.725
  857SOL    HW2 2707   3.238   3.194   1.760
  858SOL     OW 2708   3.471   2.062   3.354
  858SOL    HW1 2709   3.415   2.127   3.312
  858SOL    HW2 2710   3.417   2.024   3.423
  859SOL     OW 2711   1.205   1.928   3.418
  859SOL    HW1 2712   1.218   1.860   3.484
  859SOL    HW2 2713   1.111   1.945   3.420
  860SOL     OW 2714   0.619   3.001   0.386
  860SOL    HW1 2715   0.637   2.923   0.439
  860SOL    HW2 2716   0.563   2.969   0.315
  861SOL     OW 2717   2.844   0.219   3.569
  861SOL    HW1 2718   2.832   0.314   3.563
  861SOL    HW2 2719   2.782   0.183   3.506
  862SOL     OW 2720   0.934   3.972   0.261
  862SOL    HW1 2721   0.968   3.894   0.217
  862SOL    HW2 2722   0.841   3.955   0.271
  863SOL     OW 2723   3.513   1.835   1.024
  863SOL    HW1 2724   3.465   1.841   0.942
  863SOL    HW2 2725   3.534   1.926   1.046
  864SOL     OW 2726   1.869   3.253   0.799
  864SOL    HW1 2727   1.922   3.195   0.853
  864SOL    HW2 2728   1.917   3.260   0.716
  865SOL     OW 2729   2.805   1.760   1.419
  865SOL    HW1 2730   2.777   1.679   1.461
  865SOL    HW2 2731   2.726   1.795   1.378
  866SOL     OW 2732   1.726   0.694   1.625
  866SOL    HW1 2733   1.789   0.741   1.572
  866SOL    HW2 2734   1.648   0.688   1.570
  867SOL     OW 2735   2.650   1.440   0.450
  867SOL    HW1 2736   2.623   1.349   0.443
  867SOL    HW2 2737   2.745   1.437   0.461
  868SOL     OW 2738   0.876   2.306   0.100
  868SOL    HW1 2739   0.948   2.263   0.055
  868SOL    HW2 2740   0.880   2.397   0.071
  869SOL     OW 2741   0.962   0.918   1.261
  869SOL    HW1 2742   0.914   0.970   1.326
  869SOL    HW2 2743   1.037   0.972   1.238
  870SOL     OW 2744   2.178   1.226   0.906
  870SOL    HW1 2745   2.110   1.289   0.884
  870SOL    HW2 2746   2.233   1.223   0.827
  871SOL     OW 2747   3.313   1.339   3.570
  871SOL    HW1 2748   3.360   1.337   3.653
  871SOL    HW2 2749   3.275   1.252   3.560
  872SOL     OW 2750   0.784   2.418   3.377
  872SOL    HW1 2751   0.844   2.483   3.413
  872SOL    HW2 2752   0.800   2.419   3.283
  873SOL     OW 2753   3.118   0.191   2.657
  873SOL    HW1 2754   3.115   0.275   2.610
  873SOL    HW2 2755   3.199   0.196   2.709
  874SOL     OW 2756   2.927   1.096   1.042
  874SOL    HW1 2757   2.958   1.171   1.092
  874SOL    HW2 2758   2.923   1.024   1.105
  875SOL     OW 2759   1.816   3.677   0.598
  875SOL    HW1 2760   1.791   3.653   0.509
  875SOL    HW2 2761   1.878   3.610   0.626
  876SOL     OW 2762   1.331   2.857   3.371
  876SOL    HW1 2763   1.341   2.935   3.317
  876SOL    HW2 2764   1.288   2.888   3.451
  877SOL     OW 2765   2.009   0.827   0.177
  877SOL    HW1 2766   2.096   0.816   0.213
  877SOL    HW2 2767   1.954   0.765   0.224
  878SOL     OW 2768   3.690   3.228   2.727
  878SOL    HW1 2769   3.690   3.160   2.660
  878SOL    HW2 2770   3.701   3.310   2.678
  879SOL     OW 2771   2.204   1.940   3.367
  879SOL    HW1 2772   2.218   1.951   3.462
  879SOL    HW2 2773   2.194   2.029   3.335
  880SOL     OW 2774   1.124   0.306   1.439
  880SOL    HW1 2775   1.127   0.341   1.350
  880SOL    HW2 2776   1.205   0.257   1.448
  881SOL     OW 2777   1.242   0.743   1.707
  881SOL    HW1 2778   1.150   0.750   1.730
  881SOL    HW2 2779   1.243   0.736   1.612
  882SOL     OW 2780   2.166   2.279   2.225
  882SOL    HW1 2781   2.215   2.306   2.303
  882SOL    HW2 2782   2.232   2.274   2.156
  883SOL     OW 2783   2.811   2.579   2.874
  883SOL    HW1 2784   2.863   2.511   2.832
  883SOL    HW2 2785   2.729   2.581   2.824
  884SOL     OW 2786   0.317   2.054   2.671
  884SOL    HW1 2787   0.358   1.996   2.735
  884SOL    HW2 2788   0.385   2.073   2.608
  885SOL     OW 2789   3.748   0.793   0.890
  885SOL    HW1 2790   3.755   0.711   0.939
  885SOL    HW2 2791   3.663   0.787   0.845
  886SOL     OW 2792   3.562   0.718   3.962
  886SOL    HW1 2793   3.509   0.738   3.885
  886SOL    HW2 2794   3.522   0.769   4.033
  887SOL     OW 2795   2.402   3.826   3.509
  887SOL    HW1 2796   2.454   3.816   3.589
  887SOL    HW2 2797   2.342   3.898   3.529
  888SOL     OW 2798   1.172   3.610   0.204
  888SOL    HW1 2799   1.122   3.646   0.277
  888SOL    HW2 2800   1.225   3.684   0.173
  889SOL     OW 2801   0.735   0.351   0.810
  889SOL    HW1 2802   0.640   0.359   0.807
  889SOL    HW2 2803   0.757   0.286   0.742
  890SOL     OW 2804   3.015   1.912   2.714
  890SOL    HW1 2805   3.032   1.853   2.787
  890SOL    HW2 2806   2.990   1.855   2.641
  891SOL     OW 2807   2.316   1.487   0.736
  891SOL    HW1 2808   2.310   1.406   0.685
  891SOL    HW2 2809   2.350   1.551   0.675
  892SOL     OW 2810   2.914   0.188   2.137
  892SOL    HW1 2811   2.821   0.205   2.150
  892SOL    HW2 2812   2.919   0.093   2.121
  893SOL     OW 2813   3.801   0.025   0.591
  893SOL    HW1 2814   3.793   0.109   0.545
  893SOL    HW2 2815   3.711  -0.006   0.600
  894SOL     OW 2816   0.449   0.963   3.680
  894SOL    HW1 2817   0.459   0.911   3.759
  894SOL    HW2 2818   0.355   0.966   3.665
  895SOL     OW 2819   2.689   2.542   1.744
  895SOL    HW1 2820   2.743   2.464   1.756
  895SOL    HW2 2821   2.751   2.614   1.736
  896SOL     OW 2822   3.370   1.881   3.563
  896SOL    HW1 2823   3.350   1.788   3.550
  896SOL    HW2 2824   3.286   1.920   3.588
  897SOL     OW 2825   3.558   1.012   1.278
  897SOL    HW1 2826   3.564   1.029   1.184
  897SOL    HW2 2827   3.598   0.926   1.290
  898SOL     OW 2828   2.873   1.837   3.497
  898SOL    HW1 2829   2.836   1.769   3.442
  898SOL    HW2 2830   2.937   1.882   3.441
  899SOL     OW 2831   1.655   0.444   1.283
  899SOL    HW1 2832   1.636   0.501   1.209
  899SOL    HW2 2833   1.697   0.367   1.244
  900SOL     OW 2834   1.679   0.081   1.884
  900SOL    HW1 2835   1.719   0.009   1.835
  900SOL    HW2 2836   1.676   0.153   1.822
  901SOL     OW 2837   2.779   2.500   2.053
  901SOL    HW1 2838   2.856   2.550   2.027
  901SOL    HW2 2839   2.730   2.487   1.972
  902SOL     OW 2840   0.799   0.409   3.981
  902SOL    HW1 2841   0.716   0.365   3.999
  902SOL    HW2 2842   0.808   0.405   3.885
  903SOL     OW 2843   1.049   0.449   1.670
  903SOL    HW1 2844   1.085   0.395   1.740
  903SOL    HW2 2845   1.089   0.415   1.590
  904SOL     OW 2846   0.851   0.494   0.522
  904SOL    HW1 2847   0.921   0.437   0.491
  904SOL    HW2 2848   0.868   0.506   0.615
  905SOL     OW 2849   2.146   2.397   0.959
  905SOL    HW1 2850   2.053   2.409   0.979
  905SOL    HW2 2851   2.150   2.392   0.863
  906SOL     OW 2852   1.314   2.409   1.258
  906SOL    HW1 2853   1.253   2.375   1.192
  906SOL    HW2 2854   1.398   2.413   1.213
  907SOL     OW 2855   3.654   1.332   3.053
  907SOL    HW1 2856   3.667   1.241   3.080
  907SOL    HW2 2857   3.728   1.350   2.995
  908SOL     OW 2858   2.377   2.303   3.796
  908SOL    HW1 2859   2.388   2.234   3.861
  908SOL    HW2 2860   2.325   2.370   3.840
  909SOL     OW 2861   1.883   2.536   2.818
  909SOL    HW1 2862   1.920   2.487   2.892
  909SOL    HW2 2863   1.799   2.494   2.801
  910SOL     OW 2864   0.463   0.700   0.072
  910SOL    HW1 2865   0.467   0.784   0.025
  910SOL    HW2 2866   0.371   0.694   0.101
  911SOL     OW 2867   3.263   0.380   0.923
  911SOL    HW1 2868   3.279   0.391   1.017
  911SOL    HW2 2869   3.307   0.298   0.901
  912SOL     OW 2870   1.364   3.753   3.296
  912SOL    HW1 2871   1.404   3.680   3.249
  912SOL    HW2 2872   1.349   3.720   3.384
  913SOL     OW 2873   0.452   1.680   1.401
  913SOL    HW1 2874   0.397   1.603   1.383
  913SOL    HW2 2875   0.463   1.680   1.496
  914SOL     OW 2876   2.907   3.644   1.314
  914SOL    HW1 2877   2.928   3.550   1.316
  914SOL    HW2 2878   2.963   3.679   1.245
  915SOL     OW 2879   3.913   0.380   0.410
  915SOL    HW1 2880   3.836   0.323   0.410
  915SOL    HW2 2881   3.974   0.338   0.470
  916SOL     OW 2882   3.913   2.740   0.173
  916SOL    HW1 2883   3.922   2.713   0.082
  916SOL    HW2 2884   3.829   2.786   0.176
  917SOL     OW 2885   1.344   1.548   2.877
  917SOL    HW1 2886   1.282   1.496   2.826
  917SOL    HW2 2887   1.397   1.483   2.924
  918SOL     OW 2888   3.430   1.273   0.926
  918SOL    HW1 2889   3.505   1.316   0.967
  918SOL    HW2 2890   3.354   1.320   0.959
  919SOL     OW 2891   0.263   0.261   1.231
  919SOL    HW1 2892   0.320   0.216   1.168
  919SOL    HW2 2893   0.190   0.201   1.244
  920SOL     OW 2894   1.725   3.049   2.932
  920SOL    HW1 2895   1.740   3.143   2.924
  920SOL    HW2 2896   1.629   3.041   2.933
  921SOL     OW 2897   1.365   3.738   2.213
  921SOL    HW1 2898   1.367   3.648   2.182
  921SOL    HW2 2899   1.330   3.732   2.302
  922SOL     OW 2900   2.293   3.112   3.901
  922SOL    HW1 2901   2.350   3.063   3.959
  922SOL    HW2 2902   2.215   3.131   3.954
  923SOL     OW 2903   0.045   1.059   2.192
  923SOL    HW1 2904  -0.036   1.009   2.198
  923SOL    HW2 2905   0.114   0.993   2.199
  924SOL     OW 2906   2.202   1.880   2.933
  924SOL    HW1 2907   2.167   1.905   3.018
  924SOL    HW2 2908   2.159   1.939   2.871
  925SOL     OW 2909   1.581   0.010   0.241
  925SOL    HW1 2910   1.606   0.031   0.332
  925SOL    HW2 2911   1.491   0.041   0.233
  926SOL     OW 2912   1.424   1.766   3.928
  926SOL    HW1 2913   1.483   1.807   3.992
  926SOL    HW2 2914   1.336   1.789   3.959
  927SOL     OW 2915   1.846   0.759   3.462
  927SOL    HW1 2916   1.931   0.753   3.506
  927SOL    HW2 2917   1.818   0.668   3.451
  928SOL     OW 2918   3.407   2.958   2.584
  928SOL    HW1 2919   3.357   2.877   2.600
  928SOL    HW2 2920   3.450   2.944   2.500
  929SOL     OW 2921   3.817   1.630   3.115
  929SOL    HW1 2922   3.758   1.624   3.191
  929SOL    HW2 2923   3.764   1.600   3.041
  930SOL     OW 2924   3.792   3.201   2.049
  930SOL    HW1 2925   3.827   3.135   1.989
  930SOL    HW2 2926   3.846   3.193   2.128
  931SOL     OW 2927   3.462   0.951   3.282
  931SOL    HW1 2928   3.392   0.996   3.235
  931SOL    HW2 2929   3.509   1.022   3.327
  932SOL     OW 2930   3.785   0.566   1.857
  932SOL    HW1 2931   3.755   0.657   1.865
  932SOL    HW2 2932   3.722   0.525   1.799
  933SOL     OW 2933   1.888   3.795   2.441
  933SOL    HW1 2934   1.983   3.807   2.443
  933SOL    HW2 2935   1.862   3.830   2.355
  934SOL     OW 2936   1.934   1.441   0.938
  934SOL    HW1 2937   1.885   1.503   0.883
  934SOL    HW2 2938   1.876   1.424   1.012
  935SOL     OW 2939   3.051   2.970   1.406
  935SOL    HW1 2940   3.036   2.902   1.340
  935SOL    HW2 2941   3.093   3.041   1.357
  936SOL     OW 2942   3.074   3.771   1.091
  936SOL    HW1 2943   3.049   3.859   1.063
  936SOL    HW2 2944   3.167   3.777   1.112
  937SOL     OW 2945   1.339   0.108   0.687
  937SOL    HW1 2946   1.321   0.130   0.596
  937SOL    HW2 2947   1.370   0.018   0.685
  938SOL     OW 2948   0.409   3.148   2.733
  938SOL    HW1 2949   0.381   3.208   2.803
  938SOL    HW2 2950   0.504   3.151   2.736
  939SOL     OW 2951   0.151   3.500   1.263
  939SOL    HW1 2952   0.112   3.580   1.296
  939SOL    HW2 2953   0.197   3.526   1.184
  940SOL     OW 2954   3.061   1.159   2.400
  940SOL    HW1 2955   3.127   1.089   2.401
  940SOL    HW2 2956   3.108   1.236   2.367
  941SOL     OW 2957   0.272   1.957   3.409
  941SOL    HW1 2958   0.183   1.932   3.433
  941SOL    HW2 2959   0.268   2.051   3.396
  942SOL     OW 2960   3.204   0.915   0.938
  942SOL    HW1 2961   3.179   0.996   0.982
  942SOL    HW2 2962   3.130   0.856   0.953
  943SOL     OW 2963   0.493   1.053   3.420
  943SOL    HW1 2964   0.507   1.000   3.498
  943SOL    HW2 2965   0.445   1.129   3.452
  944SOL     OW 2966   1.488   1.707   3.456
  944SOL    HW1 2967   1.418   1.718   3.520
  944SOL    HW2 2968   1.510   1.614   3.459
  945SOL     OW 2969   3.359   3.403   1.517
  945SOL    HW1 2970   3.342   3.497   1.511
  945SOL    HW2 2971   3.352   3.372   1.427
  946SOL     OW 2972   1.469   3.673   1.772
  946SOL    HW1 2973   1.537   3.636   1.828
  946SOL    HW2 2974   1.414   3.599   1.748
  947SOL     OW 2975   2.861   1.893   3.768
  947SOL    HW1 2976   2.861   1.861   3.678
  947SOL    HW2 2977   2.829   1.818   3.819
  948SOL     OW 2978   1.307   0.419   2.817
  948SOL    HW1 2979   1.262   0.482   2.761
  948SOL    HW2 2980   1.329   0.346   2.759
  949SOL     OW 2981   1.786   1.373   0.016
  949SOL    HW1 2982   1.760   1.281   0.009
  949SOL    HW2 2983   1.876   1.370   0.048
  950SOL     OW 2984   0.661   2.557   3.856
  950SOL    HW1 2985   0.740   2.575   3.806
  950SOL    HW2 2986   0.593   2.609   3.813
  951SOL     OW 2987   3.673   1.896   3.060
  951SOL    HW1 2988   3.665   1.931   3.149
  951SOL    HW2 2989   3.762   1.863   3.055
  952SOL     OW 2990   0.981   1.394   1.773
  952SOL    HW1 2991   1.056   1.376   1.829
  952SOL    HW2 2992   1.001   1.350   1.690
  953SOL     OW 2993   1.033   0.205   0.128
  953SOL    HW1 2994   0.999   0.150   0.198
  953SOL    HW2 2995   0.965   0.270   0.113
  954SOL     OW 2996   3.457   2.875   2.326
  954SOL    HW1 2997   3.493   2.878   2.237
  954SOL    HW2 2998   3.462   2.783   2.352
  955SOL     OW 2999   1.255   0.932   0.379
  955SOL    HW1 3000   1.248   1.026   0.360
  955SOL    HW2 3001   1.259   0.928   0.475
  956SOL     OW 3002   1.322   2.799   0.622
  956SOL    HW1 3003   1.369   2.882   0.611
  956SOL    HW2 3004   1.364   2.757   0.697
  957SOL     OW 3005   2.146   2.733   0.503
  957SOL    HW1 3006   2.078   2.667   0.515
  957SOL    HW2 3007   2.102   2.804   0.457
  958SOL     OW 3008   0.722   3.867   0.853
  958SOL    HW1 3009   0.667   3.833   0.924
  958SOL    HW2 3010   0.811   3.867   0.889
  959SOL     OW 3011   3.435   0.460   3.536
  959SOL    HW1 3012   3.372   0.393   3.510
  959SOL    HW2 3013   3.408   0.538   3.489
  960SOL     OW 3014   3.105   1.322   1.844
  960SOL    HW1 3015   3.064   1.236   1.841
  960SOL    HW2 3016   3.135   1.338   1.754
  961SOL     OW 3017   3.543   2.357   3.461
  961SOL    HW1 3018   3.602   2.412   3.409
  961SOL    HW2 3019   3.565   2.376   3.552
  962SOL     OW 3020   2.843   1.773   0.982
  962SOL    HW1 3021   2.910   1.751   0.917
  962SOL    HW2 3022   2.792   1.693   0.992
  963SOL     OW 3023   1.098   0.339   0.561
  963SOL    HW1 3024   1.136   0.353   0.647
  963SOL    HW2 3025   1.101   0.244   0.548
  964SOL     OW 3026   1.375   1.605   0.570
  964SOL    HW1 3027   1.300   1.587   0.626
  964SOL    HW2 3028   1.338   1.630   0.486
  965SOL     OW 3029   2.171   3.820   2.049
  965SOL    HW1 3030   2.231   3.800   1.977
  965SOL    HW2 3031   2.139   3.735   2.078
  966SOL     OW 3032   2.070   1.482   2.636
  966SOL    HW1 3033   2.015   1.497   2.559
  966SOL    HW2 3034   2.012   1.496   2.710
  967SOL     OW 3035   1.980   1.498   2.914
  967SOL    HW1 3036   2.052   1.561   2.909
  967SOL    HW2 3037   1.920   1.535   2.978
  968SOL     OW 3038   1.458   2.961   1.041
  968SOL    HW1 3039   1.476   2.868   1.055
  968SOL    HW2 3040   1.363   2.967   1.038
  969SOL     OW 3041   1.233   2.751   1.865
  969SOL    HW1 3042   1.151   2.749   1.915
  969SOL    HW2 3043   1.206   2.753   1.774
  970SOL     OW 3044   0.256   2.127   3.077
  970SOL    HW1 3045   0.333   2.110   3.022
  970SOL    HW2 3046   0.286   2.191   3.142
  971SOL     OW 3047   0.777   1.444   3.423
  971SOL    HW1 3048   0.735   1.503   3.485
  971SOL    HW2 3049   0.830   1.385   3.477
  972SOL     OW 3050   2.013   0.785   1.991
  972SOL    HW1 3051   2.064   0.775   2.071
  972SOL    HW2 3052   1.989   0.696   1.966
  973SOL     OW 3053   1.597   1.485   1.437
  973SOL    HW1 3054   1.560   1.572   1.425
  973SOL    HW2 3055   1.646   1.491   1.519
  974SOL     OW 3056   0.470   3.698   0.119
  974SOL    HW1 3057   0.474   3.642   0.042
  974SOL    HW2 3058   0.424   3.646   0.185
  975SOL     OW 3059   2.125   3.189   2.368
  975SOL    HW1 3060   2.037   3.181   2.404
  975SOL    HW2 3061   2.183   3.166   2.440
  976SOL     OW 3062   1.302   1.262   2.364
  976SOL    HW1 3063   1.380   1.310   2.337
  976SOL    HW2 3064   1.231   1.327   2.360
  977SOL     OW 3065   2.601   2.002   0.571
  977SOL    HW1 3066   2.656   1.923   0.579
  977SOL    HW2 3067   2.654   2.071   0.611
  978SOL     OW 3068   3.416   1.918   2.970
  978SOL    HW1 3069   3.496   1.899   3.019
  978SOL    HW2 3070   3.413   2.013   2.965
  979SOL     OW 3071   0.768   2.920   0.961
  979SOL    HW1 3072   0.791   2.845   0.906
  979SOL    HW2 3073   0.833   2.987   0.938
  980SOL     OW 3074   2.720   0.891   3.408
  980SOL    HW1 3075   2.735   0.971   3.358
  980SOL    HW2 3076   2.648   0.847   3.362
  981SOL     OW 3077   0.055   1.926   3.042
  981SOL    HW1 3078   0.099   1.875   3.110
  981SOL    HW2 3079   0.103   2.009   3.040
  982SOL     OW 3080   3.221   2.852   1.575
  982SOL    HW1 3081   3.147   2.901   1.539
  982SOL    HW2 3082   3.298   2.895   1.539
  983SOL     OW 3083   1.349   3.207   3.964
  983SOL    HW1 3084   1.425   3.165   3.922
  983SOL    HW2 3085   1.367   3.301   3.956
  984SOL     OW 3086   1.163   1.052   0.892
  984SOL    HW1 3087   1.068   1.059   0.882
  984SOL    HW2 3088   1.193   1.143   0.898
  985SOL     OW 3089   2.779   3.690   3.040
  985SOL    HW1 3090   2.748   3.743   3.113
  985SOL    HW2 3091   2.871   3.713   3.029
  986SOL     OW 3092   2.352   3.046   0.717
  986SOL    HW1 3093   2.429   3.025   0.770
  986SOL    HW2 3094   2.341   2.971   0.659
  987SOL     OW 3095   0.502   2.264   2.684
  987SOL    HW1 3096   0.580   2.276   2.629
  987SOL    HW2 3097   0.465   2.351   2.691
  988SOL     OW 3098   3.311   1.897   0.054
  988SOL    HW1 3099   3.335   1.835   0.122
  988SOL    HW2 3100   3.314   1.982   0.096
  989SOL     OW 3101   0.956   2.311   0.827
  989SOL    HW1 3102   0.959   2.244   0.759
  989SOL    HW2 3103   0.881   2.288   0.882
  990SOL     OW 3104   2.973   2.238   2.085
  990SOL    HW1 3105   2.972   2.154   2.038
  990SOL    HW2 3106   2.955   2.214   2.176
  991SOL     OW 3107   3.199   2.942   3.750
  991SOL    HW1 3108   3.127   2.974   3.695
  991SOL    HW2 3109   3.163   2.938   3.838
  992SOL     OW 3110   0.884   2.897   1.978
  992SOL    HW1 3111   0.915   2.814   1.944
  992SOL    HW2 3112   0.862   2.949   1.900
  993SOL     OW 3113   1.625   2.410   0.807
  993SOL    HW1 3114   1.656   2.441   0.722
  993SOL    HW2 3115   1.697   2.355   0.840
  994SOL     OW 3116   1.470   3.678   0.392
  994SOL    HW1 3117   1.553   3.701   0.350
  994SOL    HW2 3118   1.412   3.752   0.373
  995SOL     OW 3119   3.171   1.878   2.141
  995SOL    HW1 3120   3.224   1.869   2.220
  995SOL    HW2 3121   3.080   1.875   2.173
  996SOL     OW 3122   0.095   1.405   2.080
  996SOL    HW1 3123   0.175   1.408   2.027
  996SOL    HW2 3124   0.031   1.362   2.024
  997SOL     OW 3125   2.663   3.204   0.110
  997SOL    HW1 3126   2.646   3.251   0.029
  997SOL    HW2 3127   2.718   3.130   0.084
  998SOL     OW 3128   2.050   3.148   3.028
  998SOL    HW1 3129   2.050   3.100   2.946
  998SOL    HW2 3130   1.964   3.131   3.066
  999SOL     OW 3131   2.850   2.752   1.690
  999SOL    HW1 3132   2.889   2.806   1.758
  999SOL    HW2 3133   2.925   2.714   1.644
 1000SOL     OW 3134   1.762   0.717   3.891
 1000SOL    HW1 3135   1.845   0.756   3.865
 1000SOL    HW2 3136   1.771   0.702   3.985
 1001SOL     OW 3137   1.526   3.269   0.688
 1001SOL    HW1 3138   1.560   3.342   0.739
 1001SOL    HW2 3139   1.562   3.191   0.730
 1002SOL     OW 3140   2.673   0.963   0.708
 1002SOL    HW1 3141   2.723   0.926   0.781
 1002SOL    HW2 3142   2.582   0.948   0.732
 1003SOL     OW 3143   3.292   1.693   1.961
 1003SOL    HW1 3144   3.319   1.764   1.902
 1003SOL    HW2 3145   3.285   1.735   2.047
 1004SOL     OW 3146   0.484   3.343   0.924
 1004SOL    HW1 3147   0.426   3.413   0.893
 1004SOL    HW2 3148   0.457   3.266   0.873
 1005SOL     OW 3149   3.408   2.095   1.318
 1005SOL    HW1 3150   3.379   2.026   1.378
 1005SOL    HW2 3151   3.330   2.147   1.301
 1006SOL     OW 3152   2.967   0.522   2.142
 1006SOL    HW1 3153   3.007   0.553   2.224
 1006SOL    HW2 3154   3.003   0.434   2.129
 1007SOL     OW 3155   0.572   2.889   1.506
 1007SOL    HW1 3156   0.569   2.883   1.411
 1007SOL    HW2 3157   0.511   2.821   1.536
 1008SOL     OW 3158   2.432   2.114   3.177
 1008SOL    HW1 3159   2.397   2.089   3.092
 1008SOL    HW2 3160   2.432   2.210   3.176
 1009SOL     OW 3161   2.531   0.356   0.357
 1009SOL    HW1 3162   2.436   0.349   0.353
 1009SOL    HW2 3163   2.551   0.439   0.314
 1010SOL     OW 3164   2.185   0.939   1.408
 1010SOL    HW1 3165   2.172   0.851   1.443
 1010SOL    HW2 3166   2.262   0.972   1.455
 1011SOL     OW 3167   2.672   3.320   3.807
 1011SOL    HW1 3168   2.736   3.377   3.851
 1011SOL    HW2 3169   2.690   3.333   3.713
 1012SOL     OW 3170   0.471   0.263   0.351
 1012SOL    HW1 3171   0.396   0.322   0.361
 1012SOL    HW2 3172   0.502   0.280   0.262
 1013SOL     OW 3173   3.584   3.249   3.222
 1013SOL    HW1 3174   3.572   3.220   3.132
 1013SOL    HW2 3175   3.497   3.241   3.261
 1014SOL     OW 3176   1.978   1.201   1.940
 1014SOL    HW1 3177   1.899   1.154   1.966
 1014SOL    HW2 3178   2.002   1.164   1.855
 1015SOL     OW 3179   1.869   3.048   2.070
 1015SOL    HW1 3180   1.910   3.135   2.064
 1015SOL    HW2 3181   1.815   3.042   1.991
 1016SOL     OW 3182   1.910   0.820   2.584
 1016SOL    HW1 3183   1.931   0.727   2.590
 1016SOL    HW2 3184   1.888   0.845   2.674
 1017SOL     OW 3185   1.547   3.909   2.918
 1017SOL    HW1 3186   1.623   3.917   2.862
 1017SOL    HW2 3187   1.575   3.942   3.003
 1018SOL     OW 3188   3.014   1.015   0.401
 1018SOL    HW1 3189   2.978   0.972   0.323
 1018SOL    HW2 3190   2.956   0.987   0.472
 1019SOL     OW 3191   0.381   0.581   0.768
 1019SOL    HW1 3192   0.302   0.597   0.716
 1019SOL    HW2 3193   0.453   0.598   0.707
 1020SOL     OW 3194   2.665   2.354   0.398
 1020SOL    HW1 3195   2.725   2.289   0.360
 1020SOL    HW2 3196   2.589   2.353   0.340
 1021SOL     OW 3197   1.487   3.253   3.248
 1021SOL    HW1 3198   1.468   3.263   3.341
 1021SOL    HW2 3199   1.434   3.178   3.221
 1022SOL     OW 3200   2.905   2.802   2.953
 1022SOL    HW1 3201   2.875   2.718   2.917
 1022SOL    HW2 3202   2.917   2.785   3.046
 1023SOL     OW 3203   0.498   1.946   3.214
 1023SOL    HW1 3204   0.441   1.897   3.155
 1023SOL    HW2 3205   0.453   1.942   3.299
 1024SOL     OW 3206   1.849   0.944   2.200
 1024SOL    HW1 3207   1.822   0.969   2.288
 1024SOL    HW2 3208   1.944   0.944   2.204
 1025SOL     OW 3209   3.425   3.568   0.869
 1025SOL    HW1 3210   3.516   3.553   0.842
 1025SOL    HW2 3211   3.378   3.490   0.838
 1026SOL     OW 3212   3.431   1.385   2.576
 1026SOL    HW1 3213   3.361   1.449   2.583
 1026SOL    HW2 3214   3.510   1.433   2.598
 1027SOL     OW 3215   2.566   0.688   3.266
 1027SOL    HW1 3216   2.599   0.619   3.209
 1027SOL    HW2 3217   2.491   0.724   3.220
 1028SOL     OW 3218   3.914   0.928   1.360
 1028SOL    HW1 3219   3.879   0.841   1.342
 1028SOL    HW2 3220   3.959   0.954   1.280
 1029SOL     OW 3221   0.629   3.681   3.328
 1029SOL    HW1 3222   0.559   3.659   3.389
 1029SOL    HW2 3223   0.640   3.602   3.275
 1030SOL     OW 3224   0.648   1.170   2.789
 1030SOL    HW1 3225   0.604   1.206   2.866
 1030SOL    HW2 3226   0.619   1.079   2.785
 1031SOL     OW 3227   3.740   0.283   1.202
 1031SOL    HW1 3228   3.704   0.249   1.284
 1031SOL    HW2 3229   3.822   0.235   1.190
 1032SOL     OW 3230   1.924   2.006   3.763
 1032SOL    HW1 3231   1.903   2.005   3.856
 1032SOL    HW2 3232   1.891   2.090   3.732
 1033SOL     OW 3233   0.717   0.161   1.962
 1033SOL    HW1 3234   0.635   0.184   1.919
 1033SOL    HW2 3235   0.696   0.085   2.016
 1034SOL     OW 3236   3.442   2.807   3.246
 1034SOL    HW1 3237   3.496   2.885   3.242
 1034SOL    HW2 3238   3.501   2.738   3.276
 1035SOL     OW 3239   2.503   3.399   0.263
 1035SOL    HW1 3240   2.568   3.341   0.224
 1035SOL    HW2 3241   2.516   3.483   0.217
 1036SOL     OW 3242   1.059   2.760   2.369
 1036SOL    HW1 3243   1.090   2.747   2.279
 1036SOL    HW2 3244   1.060   2.855   2.381
 1037SOL     OW 3245   3.669   3.061   2.532
 1037SOL    HW1 3246   3.713   3.047   2.448
 1037SOL    HW2 3247   3.626   2.978   2.551
 1038SOL     OW 3248   0.396   0.692   3.727
 1038SOL    HW1 3249   0.374   0.603   3.754
 1038SOL    HW2 3250   0.333   0.712   3.658
 1039SOL     OW 3251   0.037   2.102   1.474
 1039SOL    HW1 3252  -0.014   2.163   1.420
 1039SOL    HW2 3253  -0.023   2.074   1.542
 1040SOL     OW 3254   1.076   1.349   0.974
 1040SOL    HW1 3255   1.017   1.413   1.015
 1040SOL    HW2 3256   1.124   1.311   1.047
 1041SOL     OW 3257   3.517   1.608   3.018
 1041SOL    HW1 3258   3.543   1.522   3.051
 1041SOL    HW2 3259   3.488   1.656   3.095
 1042SOL     OW 3260   0.903   2.206   2.108
 1042SOL    HW1 3261   0.842   2.181   2.177
 1042SOL    HW2 3262   0.981   2.234   2.154
 1043SOL     OW 3263   0.129   0.715   2.656
 1043SOL    HW1 3264   0.091   0.800   2.634
 1043SOL    HW2 3265   0.058   0.652   2.643
 1044SOL     OW 3266   3.379   2.053   2.591
 1044SOL    HW1 3267   3.442   2.086   2.655
 1044SOL    HW2 3268   3.356   1.966   2.622
 1045SOL     OW 3269   0.511   1.359   0.833
 1045SOL    HW1 3270   0.462   1.312   0.765
 1045SOL    HW2 3271   0.479   1.449   0.828
 1046SOL     OW 3272   0.538   0.851   1.681
 1046SOL    HW1 3273   0.606   0.787   1.703
 1046SOL    HW2 3274   0.519   0.896   1.763
 1047SOL     OW 3275   2.943   1.603   2.605
 1047SOL    HW1 3276   2.915   1.524   2.558
 1047SOL    HW2 3277   2.870   1.664   2.595
 1048SOL     OW 3278   1.960   2.535   0.414
 1048SOL    HW1 3279   2.012   2.489   0.348
 1048SOL    HW2 3280   1.902   2.592   0.363
 1049SOL     OW 3281   0.728   2.838   2.253
 1049SOL    HW1 3282   0.756   2.909   2.310
 1049SOL    HW2 3283   0.791   2.838   2.181
 1050SOL     OW 3284   2.529   1.662   2.568
 1050SOL    HW1 3285   2.601   1.603   2.590
 1050SOL    HW2 3286   2.451   1.607   2.573
 1051SOL     OW 3287   1.052   2.281   3.820
 1051SOL    HW1 3288   0.977   2.280   3.760
 1051SOL    HW2 3289   1.114   2.218   3.782
 1052SOL     OW 3290   3.460   0.776   0.244
 1052SOL    HW1 3291   3.469   0.871   0.230
 1052SOL    HW2 3292   3.376   0.766   0.288
 1053SOL     OW 3293   0.341   0.520   1.633
 1053SOL    HW1 3294   0.329   0.587   1.565
 1053SOL    HW2 3295   0.257   0.518   1.679
 1054SOL     OW 3296   1.221   0.212   3.887
 1054SOL    HW1 3297   1.162   0.194   3.960
 1054SOL    HW2 3298   1.185   0.290   3.845
 1055SOL     OW 3299   2.850   3.529   2.146
 1055SOL    HW1 3300   2.939   3.540   2.115
 1055SOL    HW2 3301   2.860   3.488   2.232
 1056SOL     OW 3302   0.057   0.825   2.963
 1056SOL    HW1 3303   0.069   0.743   3.010
 1056SOL    HW2 3304  -0.034   0.850   2.980
 1057SOL     OW 3305   3.526   1.554   1.884
 1057SOL    HW1 3306   3.467   1.618   1.923
 1057SOL    HW2 3307   3.552   1.593   1.800
 1058SOL     OW 3308   0.900   1.683   3.910
 1058SOL    HW1 3309   0.833   1.752   3.905
 1058SOL    HW2 3310   0.887   1.631   3.831
 1059SOL     OW 3311   1.671   3.726   0.212
 1059SOL    HW1 3312   1.733   3.727   0.139
 1059SOL    HW2 3313   1.653   3.819   0.229
 1060SOL     OW 3314   0.342   2.045   0.098
 1060SOL    HW1 3315   0.345   2.085   0.011
 1060SOL    HW2 3316   0.323   1.953   0.081
 1061SOL     OW 3317   1.482   0.979   3.234
 1061SOL    HW1 3318   1.470   0.988   3.140
 1061SOL    HW2 3319   1.410   1.028   3.273
 1062SOL     OW 3320   1.571   0.396   0.751
 1062SOL    HW1 3321   1.572   0.384   0.656
 1062SOL    HW2 3322   1.569   0.491   0.763
 1063SOL     OW 3323   2.932   3.409   2.364
 1063SOL    HW1 3324   2.935   3.349   2.438
 1063SOL    HW2 3325   2.977   3.363   2.293
 1064SOL     OW 3326   1.870   2.200   2.543
 1064SOL    HW1 3327   1.959   2.191   2.578
 1064SOL    HW2 3328   1.862   2.292   2.520
 1065SOL     OW 3329   3.727   1.085   3.165
 1065SOL    HW1 3330   3.755   1.005   3.120
 1065SOL    HW2 3331   3.700   1.056   3.252
 1066SOL     OW 3332   1.370   3.481   2.053
 1066SOL    HW1 3333   1.325   3.400   2.029
 1066SOL    HW2 3334   1.462   3.457   2.058
 1067SOL     OW 3335   2.382   0.990   0.046
 1067SOL    HW1 3336   2.406   0.923   0.110
 1067SOL    HW2 3337   2.465   1.036   0.028
 1068SOL     OW 3338   0.653   2.820   3.160
 1068SOL    HW1 3339   0.621   2.877   3.090
 1068SOL    HW2 3340   0.598   2.742   3.155
 1069SOL     OW 3341   0.261   3.896   3.412
 1069SOL    HW1 3342   0.292   3.806   3.420
 1069SOL    HW2 3343   0.177   3.896   3.458
 1070SOL     OW 3344   1.541   3.558   3.839
 1070SOL    HW1 3345   1.521   3.507   3.917
 1070SOL    HW2 3346   1.604   3.624   3.869
 1071SOL     OW 3347   1.035   1.225   2.144
 1071SOL    HW1 3348   0.983   1.299   2.175
 1071SOL    HW2 3349   0.994   1.199   2.062
 1072SOL     OW 3350   1.322   0.621   1.281
 1072SOL    HW1 3351   1.239   0.626   1.326
 1072SOL    HW2 3352   1.321   0.695   1.220
 1073SOL     OW 3353   0.711   1.891   3.895
 1073SOL    HW1 3354   0.634   1.902   3.839
 1073SOL    HW2 3355   0.705   1.964   3.958
 1074SOL     OW 3356   1.988   1.334   3.552
 1074SOL    HW1 3357   2.054   1.270   3.580
 1074SOL    HW2 3358   2.002   1.410   3.608
 1075SOL     OW 3359   3.669   3.412   0.754
 1075SOL    HW1 3360   3.752   3.448   0.784
 1075SOL    HW2 3361   3.654   3.336   0.811
 1076SOL     OW 3362   0.999   0.429   2.958
 1076SOL    HW1 3363   0.945   0.482   3.018
 1076SOL    HW2 3364   1.085   0.471   2.960
 1077SOL     OW 3365   1.498   3.511   2.672
 1077SOL    HW1 3366   1.572   3.564   2.641
 1077SOL    HW2 3367   1.447   3.570   2.728
 1078SOL     OW 3368   0.388   1.052   2.684
 1078SOL    HW1 3369   0.293   1.047   2.689
 1078SOL    HW2 3370   0.419   1.002   2.760
 1079SOL     OW 3371   1.088   3.050   0.757
 1079SOL    HW1 3372   1.004   3.051   0.711
 1079SOL    HW2 3373   1.093   2.964   0.797
 1080SOL     OW 3374   3.750   3.938   0.271
 1080SOL    HW1 3375   3.666   3.896   0.250
 1080SOL    HW2 3376   3.798   3.871   0.320
 1081SOL     OW 3377   3.074   0.303   0.364
 1081SOL    HW1 3378   3.060   0.262   0.449
 1081SOL    HW2 3379   3.006   0.370   0.358
 1082SOL     OW 3380   1.753   2.812   0.621
 1082SOL    HW1 3381   1.701   2.832   0.700
 1082SOL    HW2 3382   1.766   2.717   0.624
 1083SOL     OW 3383   1.805   1.953   3.173
 1083SOL    HW1 3384   1.798   1.879   3.233
 1083SOL    HW2 3385   1.719   1.996   3.177
 1084SOL     OW 3386   0.986   2.429   2.395
 1084SOL    HW1 3387   0.931   2.439   2.318
 1084SOL    HW2 3388   1.068   2.472   2.371
 1085SOL     OW 3389   2.345   1.988   3.873
 1085SOL    HW1 3390   2.282   1.928   3.913
 1085SOL    HW2 3391   2.361   2.054   3.941
 1086SOL     OW 3392   2.733   1.161   1.448
 1086SOL    HW1 3393   2.815   1.198   1.478
 1086SOL    HW2 3394   2.672   1.175   1.520
 1087SOL     OW 3395   2.196   1.392   1.924
 1087SOL    HW1 3396   2.135   1.319   1.936
 1087SOL    HW2 3397   2.158   1.445   1.855
 1088SOL     OW 3398   1.521   3.545   3.558
 1088SOL    HW1 3399   1.482   3.632   3.571
 1088SOL    HW2 3400   1.570   3.528   3.638
 1089SOL     OW 3401   2.860   3.713   0.457
 1089SOL    HW1 3402   2.779   3.718   0.507
 1089SOL    HW2 3403   2.894   3.803   0.458
 1090SOL     OW 3404   1.472   2.148   1.638
 1090SOL    HW1 3405   1.548   2.202   1.617
 1090SOL    HW2 3406   1.458   2.094   1.560
 1091SOL     OW 3407   2.674   2.761   0.656
 1091SOL    HW1 3408   2.680   2.824   0.584
 1091SOL    HW2 3409   2.598   2.707   0.635
 1092SOL     OW 3410   3.311   3.566   1.128
 1092SOL    HW1 3411   3.364   3.495   1.165
 1092SOL    HW2 3412   3.348   3.581   1.041
 1093SOL     OW 3413   2.297   3.377   2.727
 1093SOL    HW1 3414   2.242   3.383   2.805
 1093SOL    HW2 3415   2.271   3.294   2.686
 1094SOL     OW 3416   2.885   1.385   2.772
 1094SOL    HW1 3417   2.883   1.342   2.686
 1094SOL    HW2 3418   2.923   1.471   2.754
 1095SOL     OW 3419   1.062   3.464   0.017
 1095SOL    HW1 3420   1.100   3.509   0.092
 1095SOL    HW2 3421   1.131   3.463  -0.049
 1096SOL     OW 3422   0.524   1.435   1.530
 1096SOL    HW1 3423   0.550   1.508   1.586
 1096SOL    HW2 3424   0.590   1.434   1.461
 1097SOL     OW 3425   1.085   3.711   1.157
 1097SOL    HW1 3426   1.179   3.729   1.163
 1097SOL    HW2 3427   1.063   3.673   1.242
 1098SOL     OW 3428   2.496   1.379   3.851
 1098SOL    HW1 3429   2.431   1.323   3.809
 1098SOL    HW2 3430   2.502   1.456   3.794
 1099SOL     OW 3431   1.114   2.470   0.664
 1099SOL    HW1 3432   1.132   2.556   0.702
 1099SOL    HW2 3433   1.071   2.421   0.734
 1100SOL     OW 3434   1.573   3.676   1.488
 1100SOL    HW1 3435   1.639   3.637   1.545
 1100SOL    HW2 3436   1.594   3.769   1.486
 1101SOL     OW 3437   2.395   2.921   0.154
 1101SOL    HW1 3438   2.488   2.925   0.133
 1101SOL    HW2 3439   2.376   2.827   0.158
 1102SOL     OW 3440   2.414   0.887   0.346
 1102SOL    HW1 3441   2.472   0.837   0.404
 1102SOL    HW2 3442   2.340   0.912   0.401
 1103SOL     OW 3443   2.559   3.455   2.392
 1103SOL    HW1 3444   2.603   3.488   2.314
 1103SOL    HW2 3445   2.624   3.466   2.462
 1104SOL     OW 3446   0.243   1.646   2.326
 1104SOL    HW1 3447   0.313   1.589   2.358
 1104SOL    HW2 3448   0.204   1.683   2.406
 1105SOL     OW 3449   0.745   0.800   0.185
 1105SOL    HW1 3450   0.839   0.814   0.187
 1105SOL    HW2 3451   0.733   0.707   0.204
 1106SOL     OW 3452   1.267   2.210   2.423
 1106SOL    HW1 3453   1.279   2.150   2.349
 1106SOL    HW2 3454   1.300   2.294   2.391
 1107SOL     OW 3455   1.727   2.935   3.484
 1107SOL    HW1 3456   1.766   2.847   3.478
 1107SOL    HW2 3457   1.699   2.954   3.394
 1108SOL     OW 3458   2.173   2.647   2.270
 1108SOL    HW1 3459   2.195   2.690   2.353
 1108SOL    HW2 3460   2.192   2.713   2.204
 1109SOL     OW 3461   0.644   0.942   0.734
 1109SOL    HW1 3462   0.664   0.852   0.708
 1109SOL    HW2 3463   0.592   0.932   0.814
 1110SOL     OW 3464   2.677   1.334   1.890
 1110SOL    HW1 3465   2.772   1.329   1.902
 1110SOL    HW2 3466   2.654   1.423   1.916
 1111SOL     OW 3467   1.480   2.030   1.895
 1111SOL    HW1 3468   1.493   2.040   1.801
 1111SOL    HW2 3469   1.487   2.118   1.930
 1112SOL     OW 3470   0.485   0.125   1.022
 1112SOL    HW1 3471   0.569   0.159   1.053
 1112SOL    HW2 3472   0.476   0.160   0.933
 1113SOL     OW 3473   3.425   2.958   1.465
 1113SOL    HW1 3474   3.517   2.936   1.457
 1113SOL    HW2 3475   3.424   3.049   1.496
 1114SOL     OW 3476   1.717   2.509   0.573
 1114SOL    HW1 3477   1.782   2.454   0.529
 1114SOL    HW2 3478   1.654   2.531   0.505
 1115SOL     OW 3479   1.170   0.311   1.913
 1115SOL    HW1 3480   1.126   0.226   1.924
 1115SOL    HW2 3481   1.262   0.292   1.928
 1116SOL     OW 3482   0.373   2.504   2.722
 1116SOL    HW1 3483   0.313   2.578   2.708
 1116SOL    HW2 3484   0.315   2.432   2.747
 1117SOL     OW 3485   2.041   3.187   1.362
 1117SOL    HW1 3486   1.973   3.246   1.329
 1117SOL    HW2 3487   2.072   3.228   1.443
 1118SOL     OW 3488   2.733   3.402   0.885
 1118SOL    HW1 3489   2.823   3.434   0.893
 1118SOL    HW2 3490   2.740   3.307   0.894
 1119SOL     OW 3491   2.588   3.210   2.499
 1119SOL    HW1 3492   2.584   3.306   2.502
 1119SOL    HW2 3493   2.562   3.182   2.587
 1120SOL     OW 3494   1.100   0.688   1.396
 1120SOL    HW1 3495   1.020   0.662   1.442
 1120SOL    HW2 3496   1.089   0.782   1.381
 1121SOL     OW 3497   0.753   1.673   2.064
 1121SOL    HW1 3498   0.840   1.711   2.066
 1121SOL    HW2 3499   0.752   1.621   1.983
 1122SOL     OW 3500   1.283   1.876   0.250
 1122SOL    HW1 3501   1.368   1.880   0.293
 1122SOL    HW2 3502   1.238   1.955   0.279
 1123SOL     OW 3503   3.188   2.159   0.088
 1123SOL    HW1 3504   3.165   2.228   0.151
 1123SOL    HW2 3505   3.259   2.197   0.036
 1124SOL     OW 3506   2.485   2.276   1.808
 1124SOL    HW1 3507   2.436   2.198   1.784
 1124SOL    HW2 3508   2.575   2.258   1.779
 1125SOL     OW 3509   2.437   3.716   2.951
 1125SOL    HW1 3510   2.414   3.787   3.011
 1125SOL    HW2 3511   2.404   3.637   2.995
 1126SOL     OW 3512   3.098   1.337   3.275
 1126SOL    HW1 3513   3.074   1.422   3.237
 1126SOL    HW2 3514   3.043   1.330   3.354
 1127SOL     OW 3515   3.876   1.790   1.855
 1127SOL    HW1 3516   3.945   1.725   1.867
 1127SOL    HW2 3517   3.846   1.811   1.943
 1128SOL     OW 3518   0.960   1.317   3.584
 1128SOL    HW1 3519   1.019   1.331   3.657
 1128SOL    HW2 3520   0.899   1.249   3.614
 1129SOL     OW 3521   2.688   3.778   0.994
 1129SOL    HW1 3522   2.696   3.848   0.929
 1129SOL    HW2 3523   2.776   3.741   1.000
 1130SOL     OW 3524   1.743   3.604   1.859
 1130SOL    HW1 3525   1.762   3.681   1.805
 1130SOL    HW2 3526   1.744   3.531   1.798
 1131SOL     OW 3527   1.517   2.114   3.663
 1131SOL    HW1 3528   1.520   2.195   3.611
 1131SOL    HW2 3529   1.585   2.126   3.730
 1132SOL     OW 3530   2.424   1.938   0.775
 1132SOL    HW1 3531   2.440   1.860   0.827
 1132SOL    HW2 3532   2.503   1.949   0.722
 1133SOL     OW 3533   1.062   3.756   0.500
 1133SOL    HW1 3534   1.019   3.710   0.429
 1133SOL    HW2 3535   1.076   3.689   0.568
 1134SOL     OW 3536   1.325   0.995   2.118
 1134SOL    HW1 3537   1.388   0.994   2.047
 1134SOL    HW2 3538   1.245   0.960   2.080
 1135SOL     OW 3539   2.849   2.599   3.736
 1135SOL    HW1 3540   2.842   2.686   3.698
 1135SOL    HW2 3541   2.942   2.587   3.755
 1136SOL     OW 3542   2.070   0.674   2.266
 1136SOL    HW1 3543   2.164   0.673   2.281
 1136SOL    HW2 3544   2.032   0.656   2.352
 1137SOL     OW 3545   2.636   3.840   3.729
 1137SOL    HW1 3546   2.605   3.762   3.776
 1137SOL    HW2 3547   2.726   3.820   3.705
 1138SOL     OW 3548   1.182   1.248   3.033
 1138SOL    HW1 3549   1.126   1.268   3.108
 1138SOL    HW2 3550   1.149   1.303   2.962
 1139SOL     OW 3551   3.574   3.697   2.723
 1139SOL    HW1 3552   3.517   3.682   2.647
 1139SOL    HW2 3553   3.559   3.789   2.746
 1140SOL     OW 3554   1.967   3.893   3.528
 1140SOL    HW1 3555   1.920   3.818   3.563
 1140SOL    HW2 3556   1.918   3.919   3.451
 1141SOL     OW 3557   2.709   0.595   3.973
 1141SOL    HW1 3558   2.702   0.640   3.890
 1141SOL    HW2 3559   2.696   0.502   3.952
 1142SOL     OW 3560   2.393   2.533   1.821
 1142SOL    HW1 3561   2.419   2.442   1.807
 1142SOL    HW2 3562   2.415   2.577   1.738
 1143SOL     OW 3563   0.967   1.862   2.076
 1143SOL    HW1 3564   1.020   1.870   2.156
 1143SOL    HW2 3565   0.925   1.947   2.066
 1144SOL     OW 3566   2.648   0.675   1.942
 1144SOL    HW1 3567   2.732   0.688   1.897
 1144SOL    HW2 3568   2.647   0.742   2.010
 1145SOL     OW 3569   3.821   2.738   2.120
 1145SOL    HW1 3570   3.752   2.791   2.080
 1145SOL    HW2 3571   3.774   2.674   2.174
 1146SOL     OW 3572   1.379   0.147   1.524
 1146SOL    HW1 3573   1.392   0.088   1.599
 1146SOL    HW2 3574   1.459   0.199   1.522
 1147SOL     OW 3575   1.891   3.212   0.306
 1147SOL    HW1 3576   1.807   3.218   0.260
 1147SOL    HW2 3577   1.939   3.142   0.261
 1148SOL     OW 3578   0.800   1.608   1.805
 1148SOL    HW1 3579   0.807   1.639   1.715
 1148SOL    HW2 3580   0.855   1.530   1.808
 1149SOL     OW 3581   0.317   1.071   1.344
 1149SOL    HW1 3582   0.261   1.081   1.268
 1149SOL    HW2 3583   0.268   1.013   1.402
 1150SOL     OW 3584   1.583   3.566   0.707
 1150SOL    HW1 3585   1.505   3.565   0.652
 1150SOL    HW2 3586   1.652   3.599   0.649
 1151SOL     OW 3587   0.939   2.772   3.006
 1151SOL    HW1 3588   0.849   2.794   3.032
 1151SOL    HW2 3589   0.930   2.726   2.923
 1152SOL     OW 3590   0.272   1.570   3.499
 1152SOL    HW1 3591   0.311   1.637   3.555
 1152SOL    HW2 3592   0.225   1.619   3.431
 1153SOL     OW 3593   2.259   3.706   0.540
 1153SOL    HW1 3594   2.181   3.659   0.569
 1153SOL    HW2 3595   2.248   3.716   0.446
 1154SOL     OW 3596   2.596   3.729   2.711
 1154SOL    HW1 3597   2.569   3.697   2.797
 1154SOL    HW2 3598   2.522   3.710   2.654
 1155SOL     OW 3599   2.960   1.132   0.031
 1155SOL    HW1 3600   2.950   1.138  -0.064
 1155SOL    HW2 3601   2.951   1.039   0.051
 1156SOL     OW 3602   0.984   1.748   3.125
 1156SOL    HW1 3603   0.948   1.671   3.080
 1156SOL    HW2 3604   0.910   1.808   3.133
 1157SOL     OW 3605   0.068   0.702   3.738
 1157SOL    HW1 3606  -0.013   0.752   3.746
 1157SOL    HW2 3607   0.132   0.751   3.790
 1158SOL     OW 3608   1.308   0.627   2.363
 1158SOL    HW1 3609   1.362   0.698   2.398
 1158SOL    HW2 3610   1.249   0.604   2.436
 1159SOL     OW 3611   3.948   2.808   3.189
 1159SOL    HW1 3612   3.906   2.808   3.103
 1159SOL    HW2 3613   3.946   2.717   3.217
 1160SOL     OW 3614   0.148   2.259   2.344
 1160SOL    HW1 3615   0.090   2.195   2.304
 1160SOL    HW2 3616   0.097   2.295   2.417
 1161SOL     OW 3617   3.363   3.722   3.216
 1161SOL    HW1 3618   3.453   3.716   3.248
 1161SOL    HW2 3619   3.338   3.632   3.197
 1162SOL     OW 3620   3.406   2.559   1.235
 1162SOL    HW1 3621   3.354   2.552   1.155
 1162SOL    HW2 3622   3.361   2.503   1.299
 1163SOL     OW 3623   1.871   0.538   2.619
 1163SOL    HW1 3624   1.875   0.516   2.712
 1163SOL    HW2 3625   1.901   0.459   2.575
 1164SOL     OW 3626   1.588   1.950   2.966
 1164SOL    HW1 3627   1.502   1.910   2.961
 1164SOL    HW2 3628   1.642   1.899   2.905
 1165SOL     OW 3629   1.320   1.715   3.683
 1165SOL    HW1 3630   1.363   1.701   3.767
 1165SOL    HW2 3631   1.237   1.758   3.705
 1166SOL     OW 3632   0.774   1.204   1.118
 1166SOL    HW1 3633   0.818   1.176   1.038
 1166SOL    HW2 3634   0.681   1.191   1.100
 1167SOL     OW 3635   0.652   0.590   3.424
 1167SOL    HW1 3636   0.591   0.522   3.394
 1167SOL    HW2 3637   0.624   0.669   3.378
 1168SOL     OW 3638   2.293   0.719   3.238
 1168SOL    HW1 3639   2.199   0.702   3.242
 1168SOL    HW2 3640   2.314   0.715   3.145
 1169SOL     OW 3641   0.818   1.648   2.436
 1169SOL    HW1 3642   0.907   1.632   2.405
 1169SOL    HW2 3643   0.790   1.564   2.473
 1170SOL     OW 3644   1.205   0.755   2.934
 1170SOL    HW1 3645   1.139   0.729   2.871
 1170SOL    HW2 3646   1.159   0.757   3.018
 1171SOL     OW 3647   1.674   2.314   1.579
 1171SOL    HW1 3648   1.766   2.327   1.601
 1171SOL    HW2 3649   1.646   2.399   1.544
 1172SOL     OW 3650   3.714   1.485   1.523
 1172SOL    HW1 3651   3.744   1.422   1.588
 1172SOL    HW2 3652   3.752   1.568   1.551
 1173SOL     OW 3653   2.398   2.888   2.353
 1173SOL    HW1 3654   2.352   2.851   2.429
 1173SOL    HW2 3655   2.458   2.819   2.325
 1174SOL     OW 3656   1.983   3.407   1.776
 1174SOL    HW1 3657   2.041   3.331   1.765
 1174SOL    HW2 3658   1.895   3.370   1.772
 1175SOL     OW 3659   1.440   2.594   3.310
 1175SOL    HW1 3660   1.422   2.682   3.342
 1175SOL    HW2 3661   1.370   2.576   3.247
 1176SOL     OW 3662   2.233   2.983   1.416
 1176SOL    HW1 3663   2.177   2.909   1.392
 1176SOL    HW2 3664   2.172   3.054   1.434
 1177SOL     OW 3665   0.261   1.275   2.279
 1177SOL    HW1 3666   0.212   1.195   2.260
 1177SOL    HW2 3667   0.210   1.344   2.237
 1178SOL     OW 3668   1.705   1.485   1.091
 1178SOL    HW1 3669   1.659   1.498   1.174
 1178SOL    HW2 3670   1.645   1.517   1.025
 1179SOL     OW 3671   0.508   1.057   0.496
 1179SOL    HW1 3672   0.541   1.017   0.576
 1179SOL    HW2 3673   0.586   1.074   0.444
 1180SOL     OW 3674   2.724   2.343   2.268
 1180SOL    HW1 3675   2.746   2.404   2.198
 1180SOL    HW2 3676   2.808   2.314   2.302
 1181SOL     OW 3677   1.187   3.667   2.952
 1181SOL    HW1 3678   1.167   3.658   3.045
 1181SOL    HW2 3679   1.176   3.578   2.916
 1182SOL     OW 3680   0.952   2.929   1.415
 1182SOL    HW1 3681   0.894   2.998   1.447
 1182SOL    HW2 3682   0.895   2.853   1.404
 1183SOL     OW 3683   1.099   1.479   1.242
 1183SOL    HW1 3684   1.069   1.530   1.167
 1183SOL    HW2 3685   1.113   1.545   1.311
 1184SOL     OW 3686   3.718   1.432   2.136
 1184SOL    HW1 3687   3.687   1.386   2.215
 1184SOL    HW2 3688   3.726   1.363   2.071
 1185SOL     OW 3689   3.314   0.171   2.824
 1185SOL    HW1 3690   3.397   0.124   2.812
 1185SOL    HW2 3691   3.327   0.222   2.904
 1186SOL     OW 3692   0.644   1.171   3.185
 1186SOL    HW1 3693   0.572   1.228   3.157
 1186SOL    HW2 3694   0.612   1.128   3.264
 1187SOL     OW 3695   2.790   3.446   3.290
 1187SOL    HW1 3696   2.875   3.405   3.276
 1187SOL    HW2 3697   2.805   3.538   3.269
 1188SOL     OW 3698   1.513   3.361   1.508
 1188SOL    HW1 3699   1.517   3.454   1.489
 1188SOL    HW2 3700   1.561   3.320   1.436
 1189SOL     OW 3701   3.891   0.482   1.445
 1189SOL    HW1 3702   3.840   0.558   1.419
 1189SOL    HW2 3703   3.904   0.434   1.363
 1190SOL     OW 3704   1.304   3.666   2.462
 1190SOL    HW1 3705   1.298   3.575   2.493
 1190SOL    HW2 3706   1.305   3.718   2.542
 1191SOL     OW 3707   2.124   0.173   3.254
 1191SOL    HW1 3708   2.053   0.151   3.193
 1191SOL    HW2 3709   2.116   0.268   3.266
 1192SOL     OW 3710   3.272   3.431   0.056
 1192SOL    HW1 3711   3.337   3.428   0.125
 1192SOL    HW2 3712   3.213   3.502   0.082
 1193SOL     OW 3713   2.411   1.985   1.832
 1193SOL    HW1 3714   2.332   1.936   1.854
 1193SOL    HW2 3715   2.479   1.918   1.821
 1194SOL     OW 3716   1.358   1.051   2.609
 1194SOL    HW1 3717   1.269   1.023   2.632
 1194SOL    HW2 3718   1.358   1.145   2.628
 1195SOL     OW 3719   1.317   2.982   1.978
 1195SOL    HW1 3720   1.304   2.918   1.908
 1195SOL    HW2 3721   1.236   2.978   2.029
 1196SOL     OW 3722   1.783   1.939   1.725
 1196SOL    HW1 3723   1.740   2.018   1.759
 1196SOL    HW2 3724   1.760   1.871   1.788
 1197SOL     OW 3725   2.082   0.069   2.381
 1197SOL    HW1 3726   2.163   0.016   2.383
 1197SOL    HW2 3727   2.110   0.157   2.406
 1198SOL     OW 3728   3.387   2.791   3.916
 1198SOL    HW1 3729   3.347   2.772   4.000
 1198SOL    HW2 3730   3.328   2.752   3.851
 1199SOL     OW 3731   2.824   2.713   2.311
 1199SOL    HW1 3732   2.806   2.799   2.274
 1199SOL    HW2 3733   2.831   2.655   2.235
 1200SOL     OW 3734   2.044   2.749   3.461
 1200SOL    HW1 3735   2.022   2.778   3.372
 1200SOL    HW2 3736   2.135   2.723   3.455
 1201SOL     OW 3737   1.138   2.835   1.600
 1201SOL    HW1 3738   1.063   2.870   1.553
 1201SOL    HW2 3739   1.190   2.792   1.533
 1202SOL     OW 3740   1.274   2.047   3.793
 1202SOL    HW1 3741   1.323   2.050   3.875
 1202SOL    HW2 3742   1.338   2.076   3.727
 1203SOL     OW 3743   2.303   1.747   3.543
 1203SOL    HW1 3744   2.241   1.783   3.607
 1203SOL    HW2 3745   2.271   1.779   3.458
 1204SOL     OW 3746   2.376   0.659   3.710
 1204SOL    HW1 3747   2.444   0.715   3.674
 1204SOL    HW2 3748   2.414   0.571   3.711
 1205SOL     OW 3749   3.828   2.951   0.601
 1205SOL    HW1 3750   3.751   2.902   0.572
 1205SOL    HW2 3751   3.824   2.947   0.697
 1206SOL     OW 3752   2.161   0.262   3.721
 1206SOL    HW1 3753   2.095   0.212   3.769
 1206SOL    HW2 3754   2.193   0.202   3.654
 1207SOL     OW 3755   3.177   3.786   1.710
 1207SOL    HW1 3756   3.125   3.707   1.725
 1207SOL    HW2 3757   3.130   3.832   1.641
 1208SOL     OW 3758   2.185   1.718   0.769
 1208SOL    HW1 3759   2.202   1.720   0.863
 1208SOL    HW2 3760   2.201   1.627   0.743
 1209SOL     OW 3761   0.830   0.754   1.086
 1209SOL    HW1 3762   0.909   0.723   1.042
 1209SOL    HW2 3763   0.860   0.826   1.141
 1210SOL     OW 3764   3.468   3.365   3.483
 1210SOL    HW1 3765   3.473   3.390   3.575
 1210SOL    HW2 3766   3.531   3.422   3.438
 1211SOL     OW 3767   1.255   0.412   1.096
 1211SOL    HW1 3768   1.303   0.483   1.137
 1211SOL    HW2 3769   1.182   0.455   1.051
 1212SOL     OW 3770   2.821   3.877   3.258
 1212SOL    HW1 3771   2.896   3.894   3.315
 1212SOL    HW2 3772   2.784   3.964   3.240
 1213SOL     OW 3773   1.977   2.847   3.209
 1213SOL    HW1 3774   1.955   2.934   3.242
 1213SOL    HW2 3775   1.944   2.846   3.119
 1214SOL     OW 3776   1.437   0.267   2.586
 1214SOL    HW1 3777   1.459   0.213   2.510
 1214SOL    HW2 3778   1.342   0.256   2.596
 1215SOL     OW 3779   1.447   1.817   2.339
 1215SOL    HW1 3780   1.454   1.884   2.271
 1215SOL    HW2 3781   1.453   1.865   2.421
 1216SOL     OW 3782   1.436   1.334   3.041
 1216SOL    HW1 3783   1.403   1.366   3.125
 1216SOL    HW2 3784   1.366   1.280   3.007
 1217SOL     OW 3785   1.589   0.541   0.989
 1217SOL    HW1 3786   1.619   0.616   0.937
 1217SOL    HW2 3787   1.580   0.470   0.926
 1218SOL     OW 3788   0.869   2.664   3.699
 1218SOL    HW1 3789   0.914   2.609   3.635
 1218SOL    HW2 3790   0.919   2.746   3.700
 1219SOL     OW 3791   2.212   2.515   3.316
 1219SOL    HW1 3792   2.243   2.452   3.381
 1219SOL    HW2 3793   2.288   2.532   3.261
 1220SOL     OW 3794   0.737   0.534   0.273
 1220SOL    HW1 3795   0.791   0.511   0.349
 1220SOL    HW2 3796   0.736   0.454   0.220
 1221SOL     OW 3797   0.080   0.314   0.800
 1221SOL    HW1 3798   0.141   0.250   0.838
 1221SOL    HW2 3799   0.002   0.309   0.856
 1222SOL     OW 3800   0.618   2.912   1.788
 1222SOL    HW1 3801   0.548   2.872   1.839
 1222SOL    HW2 3802   0.592   2.898   1.697
 1223SOL     OW 3803   1.169   2.269   2.655
 1223SOL    HW1 3804   1.203   2.235   2.572
 1223SOL    HW2 3805   1.147   2.360   2.636
 1224SOL     OW 3806   2.397   0.869   3.494
 1224SOL    HW1 3807   2.395   0.806   3.423
 1224SOL    HW2 3808   2.425   0.951   3.453
 1225SOL     OW 3809   1.343   3.064   0.589
 1225SOL    HW1 3810   1.391   3.144   0.611
 1225SOL    HW2 3811   1.259   3.074   0.633
 1226SOL     OW 3812   1.376   1.129   1.400
 1226SOL    HW1 3813   1.451   1.069   1.407
 1226SOL    HW2 3814   1.343   1.135   1.490
 1227SOL     OW 3815   2.442   3.895   1.113
 1227SOL    HW1 3816   2.372   3.831   1.125
 1227SOL    HW2 3817   2.510   3.848   1.065
 1228SOL     OW 3818   2.151   2.209   3.364
 1228SOL    HW1 3819   2.103   2.291   3.352
 1228SOL    HW2 3820   2.210   2.227   3.438
 1229SOL     OW 3821   1.908   1.773   3.018
 1229SOL    HW1 3822   1.872   1.848   3.065
 1229SOL    HW2 3823   1.991   1.754   3.061
 1230SOL     OW 3824   1.439   2.689   0.823
 1230SOL    HW1 3825   1.371   2.697   0.890
 1230SOL    HW2 3826   1.519   2.718   0.867
 1231SOL     OW 3827   1.860   2.387   1.277
 1231SOL    HW1 3828   1.854   2.435   1.359
 1231SOL    HW2 3829   1.910   2.308   1.298
 1232SOL     OW 3830   0.050   0.746   1.126
 1232SOL    HW1 3831   0.137   0.742   1.166
 1232SOL    HW2 3832   0.065   0.731   1.033
 1233SOL     OW 3833   3.050   0.400   3.780
 1233SOL    HW1 3834   3.133   0.406   3.827
 1233SOL    HW2 3835   3.007   0.323   3.818
 1234SOL     OW 3836   2.134   3.551   3.676
 1234SOL    HW1 3837   2.199   3.549   3.746
 1234SOL    HW2 3838   2.172   3.500   3.605
 1235SOL     OW 3839   1.802   2.763   2.999
 1235SOL    HW1 3840   1.714   2.789   2.969
 1235SOL    HW2 3841   1.833   2.702   2.931
 1236SOL     OW 3842   3.253   3.774   2.830
 1236SOL    HW1 3843   3.251   3.843   2.764
 1236SOL    HW2 3844   3.342   3.776   2.865
 1237SOL     OW 3845   2.986   2.939   1.032
 1237SOL    HW1 3846   2.972   2.877   1.104
 1237SOL    HW2 3847   3.080   2.935   1.015
 1238SOL     OW 3848   1.916   1.804   0.793
 1238SOL    HW1 3849   1.892   1.826   0.883
 1238SOL    HW2 3850   2.011   1.787   0.797
 1239SOL     OW 3851   0.322   3.008   1.425
 1239SOL    HW1 3852   0.276   3.069   1.368
 1239SOL    HW2 3853   0.413   3.012   1.398
 1240SOL     OW 3854   0.834   3.058   0.675
 1240SOL    HW1 3855   0.802   3.124   0.737
 1240SOL    HW2 3856   0.755   3.023   0.634
 1241SOL     OW 3857   0.150   0.293   2.605
 1241SOL    HW1 3858   0.112   0.314   2.691
 1241SOL    HW2 3859   0.239   0.263   2.625
 1242SOL     OW 3860   3.455   2.211   3.092
 1242SOL    HW1 3861   3.487   2.223   3.181
 1242SOL    HW2 3862   3.364   2.241   3.095
 1243SOL     OW 3863   2.780   3.127   0.921
 1243SOL    HW1 3864   2.716   3.056   0.910
 1243SOL    HW2 3865   2.848   3.091   0.977
 1244SOL     OW 3866   1.391   3.924   1.724
 1244SOL    HW1 3867   1.432   3.838   1.720
 1244SOL    HW2 3868   1.354   3.929   1.812
 1245SOL     OW 3869   3.497   3.467   2.194
 1245SOL    HW1 3870   3.430   3.428   2.139
 1245SOL    HW2 3871   3.530   3.395   2.248
 1246SOL     OW 3872   2.881   2.854   3.650
 1246SOL    HW1 3873   2.934   2.842   3.571
 1246SOL    HW2 3874   2.831   2.934   3.634
 1247SOL     OW 3875   0.172   0.114   2.224
 1247SOL    HW1 3876   0.152   0.145   2.136
 1247SOL    HW2 3877   0.257   0.070   2.215
 1248SOL     OW 3878   2.712   2.159   1.693
 1248SOL    HW1 3879   2.757   2.145   1.610
 1248SOL    HW2 3880   2.734   2.082   1.745
 1249SOL     OW 3881   0.163   0.139   0.401
 1249SOL    HW1 3882   0.229   0.181   0.345
 1249SOL    HW2 3883   0.214   0.095   0.469
 1250SOL     OW 3884   0.595   3.103   2.448
 1250SOL    HW1 3885   0.690   3.089   2.446
 1250SOL    HW2 3886   0.558   3.018   2.426
 1251SOL     OW 3887   1.785   2.091   1.052
 1251SOL    HW1 3888   1.835   2.169   1.028
 1251SOL    HW2 3889   1.740   2.066   0.972
 1252SOL     OW 3890   2.206   0.987   0.477
 1252SOL    HW1 3891   2.187   0.949   0.563
 1252SOL    HW2 3892   2.129   1.040   0.456
 1253SOL     OW 3893   3.441   0.250   1.722
 1253SOL    HW1 3894   3.486   0.166   1.712
 1253SOL    HW2 3895   3.349   0.227   1.736
 1254SOL     OW 3896   3.350   3.164   2.234
 1254SOL    HW1 3897   3.425   3.204   2.278
 1254SOL    HW2 3898   3.360   3.070   2.248
 1255SOL     OW 3899   2.130   2.400   3.843
 1255SOL    HW1 3900   2.053   2.442   3.880
 1255SOL    HW2 3901   2.096   2.333   3.784
 1256SOL     OW 3902   2.805   0.288   1.530
 1256SOL    HW1 3903   2.767   0.346   1.463
 1256SOL    HW2 3904   2.814   0.204   1.486
 1257SOL     OW 3905   3.958   2.612   1.122
 1257SOL    HW1 3906   3.870   2.621   1.158
 1257SOL    HW2 3907   4.016   2.639   1.194
 1258SOL     OW 3908   1.796   3.165   3.628
 1258SOL    HW1 3909   1.758   3.098   3.571
 1258SOL    HW2 3910   1.819   3.118   3.708
 1259SOL     OW 3911   0.299   2.565   1.066
 1259SOL    HW1 3912   0.366   2.501   1.089
 1259SOL    HW2 3913   0.223   2.512   1.041
 1260SOL     OW 3914   1.145   2.985   3.879
 1260SOL    HW1 3915   1.161   2.895   3.909
 1260SOL    HW2 3916   1.206   3.038   3.931
 1261SOL     OW 3917   1.036   0.767   3.537
 1261SOL    HW1 3918   0.962   0.776   3.597
 1261SOL    HW2 3919   1.013   0.824   3.463
 1262SOL     OW 3920   3.231   1.592   3.246
 1262SOL    HW1 3921   3.184   1.599   3.162
 1262SOL    HW2 3922   3.311   1.642   3.233
 1263SOL     OW 3923   3.056   1.274   1.228
 1263SOL    HW1 3924   3.012   1.268   1.313
 1263SOL    HW2 3925   3.149   1.281   1.250
 1264SOL     OW 3926   3.320   0.131   0.832
 1264SOL    HW1 3927   3.404   0.148   0.789
 1264SOL    HW2 3928   3.305   0.038   0.821
 1265SOL     OW 3929   3.447   2.624   2.417
 1265SOL    HW1 3930   3.377   2.624   2.482
 1265SOL    HW2 3931   3.425   2.552   2.358
 1266SOL     OW 3932   3.269   1.991   0.553
 1266SOL    HW1 3933   3.321   1.975   0.474
 1266SOL    HW2 3934   3.332   1.988   0.624
 1267SOL     OW 3935   2.596   2.514   0.609
 1267SOL    HW1 3936   2.543   2.461   0.670
 1267SOL    HW2 3937   2.649   2.450   0.562
 1268SOL     OW 3938   2.916   1.944   3.046
 1268SOL    HW1 3939   2.915   2.037   3.022
 1268SOL    HW2 3940   3.006   1.928   3.077
 1269SOL     OW 3941   1.717   1.246   3.480
 1269SOL    HW1 3942   1.732   1.184   3.408
 1269SOL    HW2 3943   1.805   1.267   3.511
 1270SOL     OW 3944   2.092   1.413   3.307
 1270SOL    HW1 3945   2.037   1.400   3.383
 1270SOL    HW2 3946   2.073   1.339   3.249
 1271SOL     OW 3947   0.117   3.731   0.968
 1271SOL    HW1 3948   0.175   3.795   1.010
 1271SOL    HW2 3949   0.172   3.687   0.904
 1272SOL     OW 3950   2.851   1.185   3.715
 1272SOL    HW1 3951   2.765   1.144   3.721
 1272SOL    HW2 3952   2.841   1.254   3.649
 1273SOL     OW 3953   1.271   2.168   3.298
 1273SOL    HW1 3954   1.322   2.240   3.335
 1273SOL    HW2 3955   1.267   2.104   3.368
 1274SOL     OW 3956   0.919   3.171   2.862
 1274SOL    HW1 3957   0.987   3.157   2.796
 1274SOL    HW2 3958   0.845   3.118   2.834
 1275SOL     OW 3959   1.020   2.492   1.400
 1275SOL    HW1 3960   1.078   2.423   1.432
 1275SOL    HW2 3961   0.999   2.544   1.478
 1276SOL     OW 3962   3.376   0.637   1.863
 1276SOL    HW1 3963   3.436   0.564   1.879
 1276SOL    HW2 3964   3.352   0.628   1.771
 1277SOL     OW 3965   2.812   3.112   1.580
 1277SOL    HW1 3966   2.843   3.086   1.494
 1277SOL    HW2 3967   2.718   3.094   1.580
 1278SOL     OW 3968   2.975   0.756   0.702
 1278SOL    HW1 3969   3.048   0.696   0.685
 1278SOL    HW2 3970   2.975   0.766   0.797
 1279SOL     OW 3971   1.786   1.522   3.164
 1279SOL    HW1 3972   1.812   1.603   3.207
 1279SOL    HW2 3973   1.782   1.458   3.235
 1280SOL     OW 3974   2.639   0.185   3.220
 1280SOL    HW1 3975   2.605   0.172   3.309
 1280SOL    HW2 3976   2.672   0.275   3.219
 1281SOL     OW 3977   1.346   3.589   1.366
 1281SOL    HW1 3978   1.363   3.625   1.279
 1281SOL    HW2 3979   1.414   3.626   1.422
 1282SOL     OW 3980   3.158   1.620   0.559
 1282SOL    HW1 3981   3.096   1.666   0.616
 1282SOL    HW2 3982   3.237   1.612   0.612
 1283SOL     OW 3983   2.213   1.819   1.942
 1283SOL    HW1 3984   2.241   1.728   1.954
 1283SOL    HW2 3985   2.137   1.828   2.000
 1284SOL     OW 3986   1.373   0.813   0.916
 1284SOL    HW1 3987   1.362   0.838   1.007
 1284SOL    HW2 3988   1.412   0.890   0.875
 1285SOL     OW 3989   3.546   2.544   1.657
 1285SOL    HW1 3990   3.630   2.512   1.690
 1285SOL    HW2 3991   3.489   2.468   1.660
 1286SOL     OW 3992   1.871   2.502   3.918
 1286SOL    HW1 3993   1.802   2.502   3.852
 1286SOL    HW2 3994   1.826   2.521   4.000
 1287SOL     OW 3995   1.553   0.967   1.157
 1287SOL    HW1 3996   1.581   0.965   1.249
 1287SOL    HW2 3997   1.602   1.039   1.118
 1288SOL     OW 3998   3.263   0.813   0.475
 1288SOL    HW1 3999   3.202   0.882   0.449
 1288SOL    HW2 4000   3.232   0.735   0.430
 1289SOL     OW 4001   1.738   0.715   2.173
 1289SOL    HW1 4002   1.799   0.659   2.219
 1289SOL    HW2 4003   1.778   0.802   2.175
 1290SOL     OW 4004   2.353   2.678   0.291
 1290SOL    HW1 4005   2.318   2.605   0.239
 1290SOL    HW2 4006   2.284   2.699   0.353
 1291SOL     OW 4007   2.336   2.437   2.380
 1291SOL    HW1 4008   2.311   2.518   2.335
 1291SOL    HW2 4009   2.341   2.462   2.473
 1292SOL     OW 4010   2.261   0.597   0.496
 1292SOL    HW1 4011   2.335   0.555   0.452
 1292SOL    HW2 4012   2.192   0.599   0.431
 1293SOL     OW 4013   0.129   3.168   1.279
 1293SOL    HW1 4014   0.154   3.248   1.232
 1293SOL    HW2 4015   0.050   3.193   1.327
 1294SOL     OW 4016   2.283   2.076   2.520
 1294SOL    HW1 4017   2.302   1.986   2.496
 1294SOL    HW2 4018   2.335   2.129   2.459
 1295SOL     OW 4019   3.666   1.137   0.385
 1295SOL    HW1 4020   3.609   1.207   0.414
 1295SOL    HW2 4021   3.749   1.153   0.430
 1296SOL     OW 4022   2.066   1.568   1.166
 1296SOL    HW1 4023   2.150   1.581   1.122
 1296SOL    HW2 4024   2.004   1.552   1.095
 1297SOL     OW 4025   1.875   3.647   3.636
 1297SOL    HW1 4026   1.959   3.600   3.642
 1297SOL    HW2 4027   1.823   3.595   3.576
 1298SOL     OW 4028   1.919   3.010   0.964
 1298SOL    HW1 4029   1.928   2.983   1.055
 1298SOL    HW2 4030   2.009   3.018   0.933
 1299SOL     OW 4031   1.434   2.438   3.894
 1299SOL    HW1 4032   1.361   2.460   3.837
 1299SOL    HW2 4033   1.456   2.520   3.939
 1300SOL     OW 4034   3.815   2.872   2.944
 1300SOL    HW1 4035   3.841   2.861   2.853
 1300SOL    HW2 4036   3.733   2.922   2.940
 1301SOL     OW 4037   3.552   2.881   2.884
 1301SOL    HW1 4038   3.535   2.903   2.792
 1301SOL    HW2 4039   3.466   2.862   2.921
 1302SOL     OW 4040   0.970   3.082   3.474
 1302SOL    HW1 4041   0.968   3.066   3.379
 1302SOL    HW2 4042   0.905   3.150   3.488
 1303SOL     OW 4043   0.846   3.621   1.035
 1303SOL    HW1 4044   0.927   3.650   1.077
 1303SOL    HW2 4045   0.868   3.536   0.997
 1304SOL     OW 4046   2.627   3.828   0.564
 1304SOL    HW1 4047   2.555   3.804   0.622
 1304SOL    HW2 4048   2.585   3.856   0.483
 1305SOL     OW 4049   1.914   0.289   3.035
 1305SOL    HW1 4050   1.945   0.343   2.962
 1305SOL    HW2 4051   1.871   0.350   3.093
 1306SOL     OW 4052   2.275   0.011   3.089
 1306SOL    HW1 4053   2.252   0.098   3.122
 1306SOL    HW2 4054   2.241  -0.049   3.155
 1307SOL     OW 4055   3.561   0.675   0.744
 1307SOL    HW1 4056   3.546   0.654   0.652
 1307SOL    HW2 4057   3.484   0.641   0.789
 1308SOL     OW 4058   3.332   2.129   2.133
 1308SOL    HW1 4059   3.420   2.103   2.161
 1308SOL    HW2 4060   3.274   2.067   2.178
 1309SOL     OW 4061   1.788   0.501   3.402
 1309SOL    HW1 4062   1.773   0.412   3.434
 1309SOL    HW2 4063   1.786   0.494   3.307
 1310SOL     OW 4064   1.105   3.894   1.682
 1310SOL    HW1 4065   1.200   3.908   1.689
 1310SOL    HW2 4066   1.096   3.817   1.627
 1311SOL     OW 4067   2.917   1.674   3.949
 1311SOL    HW1 4068   2.918   1.578   3.942
 1311SOL    HW2 4069   2.976   1.703   3.880
 1312SOL     OW 4070   3.923   0.980   0.942
 1312SOL    HW1 4071   3.835   0.941   0.940
 1312SOL    HW2 4072   3.974   0.920   0.996
 1313SOL     OW 4073   2.543   1.835   1.347
 1313SOL    HW1 4074   2.521   1.885   1.269
 1313SOL    HW2 4075   2.464   1.837   1.400
 1314SOL     OW 4076   3.007   0.306   3.012
 1314SOL    HW1 4077   2.966   0.378   2.964
 1314SOL    HW2 4078   2.989   0.228   2.959
 1315SOL     OW 4079   0.754   3.227   0.878
 1315SOL    HW1 4080   0.661   3.221   0.899
 1315SOL    HW2 4081   0.781   3.311   0.915
 1316SOL     OW 4082   0.158   3.437   3.536
 1316SOL    HW1 4083   0.213   3.359   3.523
 1316SOL    HW2 4084   0.082   3.405   3.584
 1317SOL     OW 4085   1.881   3.314   2.649
 1317SOL    HW1 4086   1.859   3.374   2.577
 1317SOL    HW2 4087   1.920   3.371   2.716
 1318SOL     OW 4088   3.802   0.667   1.254
 1318SOL    HW1 4089   3.753   0.607   1.199
 1318SOL    HW2 4090   3.878   0.693   1.201
 1319SOL     OW 4091   0.891   0.862   2.325
 1319SOL    HW1 4092   0.805   0.875   2.286
 1319SOL    HW2 4093   0.917   0.774   2.298
 1320SOL     OW 4094   3.878   2.174   0.877
 1320SOL    HW1 4095   3.788   2.147   0.854
 1320SOL    HW2 4096   3.871   2.268   0.894
 1321SOL     OW 4097   2.200   3.108   0.383
 1321SOL    HW1 4098   2.284   3.117   0.428
 1321SOL    HW2 4099   2.144   3.062   0.446
 1322SOL     OW 4100   3.160   0.825   3.902
 1322SOL    HW1 4101   3.212   0.906   3.897
 1322SOL    HW2 4102   3.200   0.767   3.837
 1323SOL     OW 4103   1.599   1.164   2.793
 1323SOL    HW1 4104   1.606   1.147   2.887
 1323SOL    HW2 4105   1.536   1.098   2.762
 1324SOL     OW 4106   0.722   1.424   2.556
 1324SOL    HW1 4107   0.722   1.440   2.651
 1324SOL    HW2 4108   0.634   1.391   2.537
 1325SOL     OW 4109   0.971   1.613   0.217
 1325SOL    HW1 4110   0.936   1.639   0.132
 1325SOL    HW2 4111   0.917   1.661   0.280
 1326SOL     OW 4112   0.919   3.192   3.142
 1326SOL    HW1 4113   0.941   3.183   3.050
 1326SOL    HW2 4114   0.902   3.285   3.155
 1327SOL     OW 4115   1.701   2.652   3.346
 1327SOL    HW1 4116   1.615   2.613   3.327
 1327SOL    HW2 4117   1.715   2.715   3.275
 1328SOL     OW 4118   1.449   1.364   0.279
 1328SOL    HW1 4119   1.364   1.396   0.308
 1328SOL    HW2 4120   1.434   1.271   0.259
 1329SOL     OW 4121   1.539   2.694   3.879
 1329SOL    HW1 4122   1.606   2.740   3.930
 1329SOL    HW2 4123   1.542   2.736   3.793
 1330SOL     OW 4124   2.461   2.175   0.075
 1330SOL    HW1 4125   2.475   2.232   0.150
 1330SOL    HW2 4126   2.540   2.121   0.071
 1331SOL     OW 4127   3.512   0.790   3.535
 1331SOL    HW1 4128   3.500   0.841   3.455
 1331SOL    HW2 4129   3.566   0.716   3.508
 1332SOL     OW 4130   1.802   0.172   2.124
 1332SOL    HW1 4131   1.761   0.141   2.044
 1332SOL    HW2 4132   1.896   0.158   2.111
 1333SOL     OW 4133   1.985   3.311   0.559
 1333SOL    HW1 4134   1.952   3.278   0.475
 1333SOL    HW2 4135   2.067   3.265   0.573
 1334SOL     OW 4136   1.894   0.501   1.082
 1334SOL    HW1 4137   1.972   0.450   1.103
 1334SOL    HW2 4138   1.824   0.437   1.076
 1335SOL     OW 4139   1.167   0.913   0.656
 1335SOL    HW1 4140   1.190   0.821   0.656
 1335SOL    HW2 4141   1.157   0.936   0.748
 1336SOL     OW 4142   0.447   2.194   0.927
 1336SOL    HW1 4143   0.487   2.127   0.873
 1336SOL    HW2 4144   0.358   2.163   0.942
 1337SOL     OW 4145   3.371   3.371   2.852
 1337SOL    HW1 4146   3.294   3.348   2.800
 1337SOL    HW2 4147   3.441   3.382   2.788
 1338SOL     OW 4148   1.396   0.426   0.153
 1338SOL    HW1 4149   1.314   0.476   0.149
 1338SOL    HW2 4150   1.458   0.478   0.101
 1339SOL     OW 4151   2.634   2.351   1.446
 1339SOL    HW1 4152   2.544   2.383   1.448
 1339SOL    HW2 4153   2.631   2.277   1.385
 1340SOL     OW 4154   0.052   3.975   1.184
 1340SOL    HW1 4155  -0.036   3.955   1.215
 1340SOL    HW2 4156   0.105   3.901   1.213
 1341SOL     OW 4157   1.944   1.831   1.063
 1341SOL    HW1 4158   1.884   1.903   1.082
 1341SOL    HW2 4159   1.979   1.805   1.148
 1342SOL     OW 4160   2.497   1.612   3.701
 1342SOL    HW1 4161   2.443   1.664   3.642
 1342SOL    HW2 4162   2.551   1.677   3.747
 1343SOL     OW 4163   2.696   0.314   3.927
 1343SOL    HW1 4164   2.624   0.292   3.869
 1343SOL    HW2 4165   2.713   0.234   3.977
 1344SOL     OW 4166   2.702   3.145   3.285
 1344SOL    HW1 4167   2.663   3.225   3.250
 1344SOL    HW2 4168   2.644   3.075   3.256
 1345SOL     OW 4169   1.142   1.347   2.776
 1345SOL    HW1 4170   1.215   1.345   2.714
 1345SOL    HW2 4171   1.080   1.282   2.742
 1346SOL     OW 4172   0.071   0.695   3.435
 1346SOL    HW1 4173   0.112   0.655   3.512
 1346SOL    HW2 4174  -0.010   0.646   3.423
 1347SOL     OW 4175   3.836   3.830   2.856
 1347SOL    HW1 4176   3.754   3.781   2.846
 1347SOL    HW2 4177   3.886   3.780   2.920
 1348SOL     OW 4178   3.080   2.153   1.126
 1348SOL    HW1 4179   3.119   2.066   1.135
 1348SOL    HW2 4180   3.040   2.152   1.039
 1349SOL     OW 4181   3.877   0.468   3.663
 1349SOL    HW1 4182   3.812   0.467   3.734
 1349SOL    HW2 4183   3.950   0.519   3.698
 1350SOL     OW 4184   0.812   1.217   1.373
 1350SOL    HW1 4185   0.739   1.181   1.422
 1350SOL    HW2 4186   0.777   1.230   1.284
 1351SOL     OW 4187   2.239   0.994   3.764
 1351SOL    HW1 4188   2.269   0.937   3.694
 1351SOL    HW2 4189   2.297   0.975   3.838
 1352SOL     OW 4190   1.691   0.169   0.868
 1352SOL    HW1 4191   1.644   0.089   0.894
 1352SOL    HW2 4192   1.622   0.230   0.843
 1353SOL     OW 4193   0.969   3.946   1.921
 1353SOL    HW1 4194   0.884   3.959   1.879
 1353SOL    HW2 4195   1.023   3.904   1.854
 1354SOL     OW 4196   3.713   0.585   3.496
 1354SOL    HW1 4197   3.788   0.550   3.544
 1354SOL    HW2 4198   3.654   0.510   3.487
 1355SOL     OW 4199   3.728   3.920   1.202
 1355SOL    HW1 4200   3.693   3.949   1.286
 1355SOL    HW2 4201   3.676   3.842   1.180
 1356SOL     OW 4202   2.225   2.619   3.691
 1356SOL    HW1 4203   2.290   2.588   3.628
 1356SOL    HW2 4204   2.203   2.542   3.743
 1357SOL     OW 4205   3.017   3.527   2.841
 1357SOL    HW1 4206   3.011   3.570   2.756
 1357SOL    HW2 4207   3.097   3.562   2.880
 1358SOL     OW 4208   1.605   3.226   2.699
 1358SOL    HW1 4209   1.699   3.241   2.687
 1358SOL    HW2 4210   1.564   3.276   2.629
 1359SOL     OW 4211   1.707   2.809   1.373
 1359SOL    HW1 4212   1.771   2.870   1.336
 1359SOL    HW2 4213   1.665   2.859   1.444
 1360SOL     OW 4214   3.578   2.854   0.958
 1360SOL    HW1 4215   3.498   2.899   0.931
 1360SOL    HW2 4216   3.549   2.791   1.024
 1361SOL     OW 4217   1.727   3.141   0.514
 1361SOL    HW1 4218   1.717   3.217   0.571
 1361SOL    HW2 4219   1.750   3.178   0.428
 1362SOL     OW 4220   2.161   3.379   2.957
 1362SOL    HW1 4221   2.211   3.410   3.032
 1362SOL    HW2 4222   2.127   3.294   2.984
 1363SOL     OW 4223   0.916   1.180   2.704
 1363SOL    HW1 4224   0.845   1.148   2.760
 1363SOL    HW2 4225   0.874   1.196   2.619
 1364SOL     OW 4226   0.582   0.643   1.120
 1364SOL    HW1 4227   0.671   0.666   1.093
 1364SOL    HW2 4228   0.586   0.639   1.216
 1365SOL     OW 4229   0.352   2.497   3.625
 1365SOL    HW1 4230   0.411   2.561   3.665
 1365SOL    HW2 4231   0.349   2.520   3.533
 1366SOL     OW 4232   0.126   2.353   0.655
 1366SOL    HW1 4233   0.043   2.327   0.616
 1366SOL    HW2 4234   0.104   2.380   0.744
 1367SOL     OW 4235   2.008   1.668   0.270
 1367SOL    HW1 4236   2.097   1.703   0.266
 1367SOL    HW2 4237   1.951   1.744   0.268
 1368SOL     OW 4238   1.477   1.065   0.238
 1368SOL    HW1 4239   1.525   1.004   0.183
 1368SOL    HW2 4240   1.393   1.023   0.254
 1369SOL     OW 4241   2.549   0.381   0.845
 1369SOL    HW1 4242   2.633   0.372   0.889
 1369SOL    HW2 4243   2.559   0.333   0.763
 1370SOL     OW 4244   2.212   3.751   1.142
 1370SOL    HW1 4245   2.161   3.739   1.062
 1370SOL    HW2 4246   2.229   3.662   1.173
 1371SOL     OW 4247   1.275   3.559   3.485
 1371SOL    HW1 4248   1.371   3.557   3.485
 1371SOL    HW2 4249   1.250   3.469   3.507
 1372SOL     OW 4250   3.531   1.378   0.496
 1372SOL    HW1 4251   3.488   1.328   0.566
 1372SOL    HW2 4252   3.464   1.387   0.429
 1373SOL     OW 4253   1.405   1.332   2.667
 1373SOL    HW1 4254   1.437   1.404   2.613
 1373SOL    HW2 4255   1.483   1.289   2.700
 1374SOL     OW 4256   2.588   0.648   0.752
 1374SOL    HW1 4257   2.561   0.557   0.761
 1374SOL    HW2 4258   2.506   0.697   0.745
 1375SOL     OW 4259   3.788   3.764   2.537
 1375SOL    HW1 4260   3.831   3.689   2.577
 1375SOL    HW2 4261   3.712   3.728   2.492
 1376SOL     OW 4262   1.670   0.318   2.720
 1376SOL    HW1 4263   1.715   0.234   2.711
 1376SOL    HW2 4264   1.587   0.305   2.673
 1377SOL     OW 4265   1.113   1.189   1.252
 1377SOL    HW1 4266   1.081   1.279   1.258
 1377SOL    HW2 4267   1.182   1.183   1.319
 1378SOL     OW 4268   1.559   0.201   3.728
 1378SOL    HW1 4269   1.595   0.242   3.650
 1378SOL    HW2 4270   1.525   0.117   3.698
 1379SOL     OW 4271   1.075   3.119   1.833
 1379SOL    HW1 4272   1.126   3.086   1.759
 1379SOL    HW2 4273   0.988   3.081   1.822
 1380SOL     OW 4274   3.377   2.523   0.631
 1380SOL    HW1 4275   3.453   2.561   0.674
 1380SOL    HW2 4276   3.304   2.541   0.690
 1381SOL     OW 4277   0.412   1.607   2.562
 1381SOL    HW1 4278   0.482   1.666   2.587
 1381SOL    HW2 4279   0.455   1.525   2.541
 1382SOL     OW 4280   3.802   1.736   1.589
 1382SOL    HW1 4281   3.841   1.747   1.675
 1382SOL    HW2 4282   3.849   1.798   1.533
 1383SOL     OW 4283   0.422   1.262   3.046
 1383SOL    HW1 4284   0.387   1.190   3.099
 1383SOL    HW2 4285   0.349   1.323   3.038
 1384SOL     OW 4286   1.021   2.570   0.237
 1384SOL    HW1 4287   1.113   2.594   0.249
 1384SOL    HW2 4288   1.013   2.553   0.143
 1385SOL     OW 4289   0.933   0.123   1.614
 1385SOL    HW1 4290   0.989   0.053   1.648
 1385SOL    HW2 4291   0.986   0.165   1.546
 1386SOL     OW 4292   3.158   1.429   2.319
 1386SOL    HW1 4293   3.211   1.443   2.398
 1386SOL    HW2 4294   3.216   1.452   2.247
 1387SOL     OW 4295   3.818   1.559   1.263
 1387SOL    HW1 4296   3.875   1.626   1.301
 1387SOL    HW2 4297   3.764   1.529   1.336
 1388SOL     OW 4298   0.500   3.241   3.894
 1388SOL    HW1 4299   0.454   3.191   3.961
 1388SOL    HW2 4300   0.568   3.183   3.863
 1389SOL     OW 4301   1.626   3.114   0.874
 1389SOL    HW1 4302   1.719   3.138   0.872
 1389SOL    HW2 4303   1.619   3.053   0.948
 1390SOL     OW 4304   3.826   1.483   2.869
 1390SOL    HW1 4305   3.865   1.569   2.855
 1390SOL    HW2 4306   3.884   1.422   2.823
 1391SOL     OW 4307   3.396   1.294   1.906
 1391SOL    HW1 4308   3.451   1.369   1.885
 1391SOL    HW2 4309   3.322   1.332   1.954
 1392SOL     OW 4310   1.468   1.486   2.333
 1392SOL    HW1 4311   1.390   1.528   2.368
 1392SOL    HW2 4312   1.534   1.555   2.332
 1393SOL     OW 4313   0.672   1.485   0.541
 1393SOL    HW1 4314   0.733   1.490   0.614
 1393SOL    HW2 4315   0.721   1.439   0.472
 1394SOL     OW 4316   3.153   0.615   3.130
 1394SOL    HW1 4317   3.186   0.673   3.062
 1394SOL    HW2 4318   3.059   0.634   3.134
 1395SOL     OW 4319   1.407   1.287   0.982
 1395SOL    HW1 4320   1.426   1.371   0.939
 1395SOL    HW2 4321   1.430   1.301   1.074
 1396SOL     OW 4322   0.562   3.065   1.232
 1396SOL    HW1 4323   0.640   3.012   1.217
 1396SOL    HW2 4324   0.595   3.153   1.249
 1397SOL     OW 4325   1.175   3.818   3.607
 1397SOL    HW1 4326   1.242   3.750   3.607
 1397SOL    HW2 4327   1.145   3.822   3.517
 1398SOL     OW 4328   2.311   3.002   3.170
 1398SOL    HW1 4329   2.228   3.003   3.218
 1398SOL    HW2 4330   2.340   2.911   3.174
 1399SOL     OW 4331   1.335   0.645   1.935
 1399SOL    HW1 4332   1.338   0.667   1.842
 1399SOL    HW2 4333   1.242   0.636   1.955
 1400SOL     OW 4334   2.071   0.520   3.799
 1400SOL    HW1 4335   2.116   0.442   3.767
 1400SOL    HW2 4336   1.987   0.521   3.752
 1401SOL     OW 4337   2.065   3.386   3.462
 1401SOL    HW1 4338   1.969   3.386   3.454
 1401SOL    HW2 4339   2.093   3.309   3.412
 1402SOL     OW 4340   3.088   0.486   0.720
 1402SOL    HW1 4341   3.161   0.505   0.662
 1402SOL    HW2 4342   3.123   0.423   0.783
 1403SOL     OW 4343   2.457   2.655   1.579
 1403SOL    HW1 4344   2.531   2.602   1.609
 1403SOL    HW2 4345   2.413   2.600   1.514
 1404SOL     OW 4346   0.435   2.338   1.188
 1404SOL    HW1 4347   0.520   2.338   1.232
 1404SOL    HW2 4348   0.451   2.296   1.104
 1405SOL     OW 4349   0.790   2.767   1.594
 1405SOL    HW1 4350   0.817   2.827   1.664
 1405SOL    HW2 4351   0.708   2.804   1.562
 1406SOL     OW 4352   1.575   2.728   1.128
 1406SOL    HW1 4353   1.593   2.732   1.222
 1406SOL    HW2 4354   1.561   2.635   1.111
 1407SOL     OW 4355   1.066   2.772   0.700
 1407SOL    HW1 4356   1.025   2.789   0.615
 1407SOL    HW2 4357   1.160   2.769   0.680
 1408SOL     OW 4358   0.781   0.132   0.661
 1408SOL    HW1 4359   0.786   0.079   0.741
 1408SOL    HW2 4360   0.869   0.129   0.624
 1409SOL     OW 4361   2.221   1.281   0.278
 1409SOL    HW1 4362   2.140   1.327   0.298
 1409SOL    HW2 4363   2.203   1.236   0.195
 1410SOL     OW 4364   1.512   0.806   2.040
 1410SOL    HW1 4365   1.581   0.793   2.105
 1410SOL    HW2 4366   1.476   0.719   2.025
 1411SOL     OW 4367   1.083   0.915   2.049
 1411SOL    HW1 4368   1.014   0.976   2.074
 1411SOL    HW2 4369   1.046   0.829   2.065
 1412SOL     OW 4370   0.271   1.547   1.913
 1412SOL    HW1 4371   0.353   1.588   1.886
 1412SOL    HW2 4372   0.247   1.591   1.994
 1413SOL     OW 4373   3.778   1.618   3.621
 1413SOL    HW1 4374   3.710   1.682   3.638
 1413SOL    HW2 4375   3.844   1.634   3.688
 1414SOL     OW 4376   3.447   0.092   2.532
 1414SOL    HW1 4377   3.387   0.122   2.600
 1414SOL    HW2 4378   3.525   0.064   2.579
 1415SOL     OW 4379   3.485   3.869   2.990
 1415SOL    HW1 4380   3.553   3.911   3.042
 1415SOL    HW2 4381   3.424   3.834   3.054
 1416SOL     OW 4382   3.494   0.895   2.809
 1416SOL    HW1 4383   3.511   0.866   2.720
 1416SOL    HW2 4384   3.459   0.983   2.800
 1417SOL     OW 4385   2.384   1.328   1.483
 1417SOL    HW1 4386   2.306   1.275   1.470
 1417SOL    HW2 4387   2.430   1.287   1.556
 1418SOL     OW 4388   0.954   2.927   3.698
 1418SOL    HW1 4389   1.010   2.990   3.744
 1418SOL    HW2 4390   0.966   2.947   3.606
 1419SOL     OW 4391   3.855   1.913   0.569
 1419SOL    HW1 4392   3.918   1.841   0.577
 1419SOL    HW2 4393   3.803   1.908   0.650
 1420SOL     OW 4394   1.487   1.049   0.844
 1420SOL    HW1 4395   1.455   1.123   0.896
 1420SOL    HW2 4396   1.446   1.061   0.758
 1421SOL     OW 4397   1.013   2.123   1.144
 1421SOL    HW1 4398   0.937   2.065   1.134
 1421SOL    HW2 4399   0.991   2.178   1.220
 1422SOL     OW 4400   0.459   1.930   1.767
 1422SOL    HW1 4401   0.374   1.961   1.798
 1422SOL    HW2 4402   0.448   1.919   1.673
 1423SOL     OW 4403   0.058   0.230   0.161
 1423SOL    HW1 4404   0.069   0.172   0.236
 1423SOL    HW2 4405   0.026   0.312   0.198
 1424SOL     OW 4406   3.950   3.199   3.307
 1424SOL    HW1 4407   3.893   3.171   3.378
 1424SOL    HW2 4408   4.022   3.136   3.308
 1425SOL     OW 4409   3.679   0.247   3.314
 1425SOL    HW1 4410   3.759   0.241   3.367
 1425SOL    HW2 4411   3.612   0.275   3.376
 1426SOL     OW 4412   0.353   3.725   2.988
 1426SOL    HW1 4413   0.377   3.799   3.043
 1426SOL    HW2 4414   0.331   3.765   2.903
 1427SOL     OW 4415   2.142   3.139   2.089
 1427SOL    HW1 4416   2.199   3.216   2.093
 1427SOL    HW2 4417   2.115   3.124   2.179
 1428SOL     OW 4418   3.055   1.400   3.881
 1428SOL    HW1 4419   3.069   1.309   3.853
 1428SOL    HW2 4420   2.966   1.400   3.916
 1429SOL     OW 4421   1.839   1.964   2.405
 1429SOL    HW1 4422   1.922   1.968   2.358
 1429SOL    HW2 4423   1.839   2.043   2.460
 1430SOL     OW 4424   0.578   3.406   1.178
 1430SOL    HW1 4425   0.552   3.378   1.090
 1430SOL    HW2 4426   0.501   3.450   1.213
 1431SOL     OW 4427   0.233   1.101   1.052
 1431SOL    HW1 4428   0.236   1.021   1.000
 1431SOL    HW2 4429   0.172   1.158   1.004
 1432SOL     OW 4430   1.747   1.710   1.911
 1432SOL    HW1 4431   1.743   1.626   1.957
 1432SOL    HW2 4432   1.763   1.774   1.981
 1433SOL     OW 4433   2.617   3.519   1.795
 1433SOL    HW1 4434   2.676   3.590   1.821
 1433SOL    HW2 4435   2.656   3.484   1.715
 1434SOL     OW 4436   1.970   1.828   2.120
 1434SOL    HW1 4437   2.001   1.877   2.197
 1434SOL    HW2 4438   1.881   1.860   2.106
 1435SOL     OW 4439   2.146   1.212   1.423
 1435SOL    HW1 4440   2.155   1.117   1.430
 1435SOL    HW2 4441   2.099   1.226   1.341
 1436SOL     OW 4442   3.147   0.842   1.400
 1436SOL    HW1 4443   3.057   0.873   1.403
 1436SOL    HW2 4444   3.165   0.811   1.489
 1437SOL     OW 4445   2.972   1.850   1.231
 1437SOL    HW1 4446   2.918   1.820   1.158
 1437SOL    HW2 4447   2.931   1.812   1.309
 1438SOL     OW 4448   3.578   1.107   2.035
 1438SOL    HW1 4449   3.527   1.177   1.995
 1438SOL    HW2 4450   3.516   1.060   2.091
 1439SOL     OW 4451   2.910   1.528   3.195
 1439SOL    HW1 4452   2.898   1.599   3.257
 1439SOL    HW2 4453   2.868   1.558   3.114
 1440SOL     OW 4454   3.838   3.036   0.050
 1440SOL    HW1 4455   3.884   2.985  -0.017
 1440SOL    HW2 4456   3.837   3.125   0.015
 1441SOL     OW 4457   2.912   3.218   0.220
 1441SOL    HW1 4458   2.915   3.305   0.259
 1441SOL    HW2 4459   2.839   3.221   0.159
 1442SOL     OW 4460   2.747   0.463   3.190
 1442SOL    HW1 4461   2.798   0.527   3.240
 1442SOL    HW2 4462   2.797   0.452   3.109
 1443SOL     OW 4463   2.033  -0.015   3.825
 1443SOL    HW1 4464   2.027  -0.031   3.731
 1443SOL    HW2 4465   1.993   0.070   3.838
 1444SOL     OW 4466   1.993   1.415   0.372
 1444SOL    HW1 4467   1.900   1.425   0.389
 1444SOL    HW2 4468   2.014   1.484   0.309
 1445SOL     OW 4469   3.120   3.216   3.904
 1445SOL    HW1 4470   3.205   3.237   3.944
 1445SOL    HW2 4471   3.055   3.242   3.970
 1446SOL     OW 4472   0.508   2.590   0.574
 1446SOL    HW1 4473   0.445   2.534   0.528
 1446SOL    HW2 4474   0.569   2.529   0.616
 1447SOL     OW 4475   3.771   3.438   3.264
 1447SOL    HW1 4476   3.831   3.378   3.309
 1447SOL    HW2 4477   3.713   3.380   3.214
 1448SOL     OW 4478   0.555   1.386   3.602
 1448SOL    HW1 4479   0.473   1.390   3.651
 1448SOL    HW2 4480   0.592   1.301   3.624
 1449SOL     OW 4481   1.643   1.548   2.878
 1449SOL    HW1 4482   1.665   1.539   2.970
 1449SOL    HW2 4483   1.632   1.642   2.865
 1450SOL     OW 4484   0.598   2.903   3.461
 1450SOL    HW1 4485   0.622   2.994   3.444
 1450SOL    HW2 4486   0.640   2.854   3.390
 1451SOL     OW 4487   1.585   3.847   3.924
 1451SOL    HW1 4488   1.610   3.887   4.007
 1451SOL    HW2 4489   1.491   3.834   3.930
 1452SOL     OW 4490   1.258   3.139   2.542
 1452SOL    HW1 4491   1.266   3.102   2.630
 1452SOL    HW2 4492   1.192   3.085   2.500
 1453SOL     OW 4493   1.436   0.834   2.450
 1453SOL    HW1 4494   1.427   0.887   2.530
 1453SOL    HW2 4495   1.509   0.775   2.468
 1454SOL     OW 4496   0.045   1.311   2.713
 1454SOL    HW1 4497   0.051   1.306   2.618
 1454SOL    HW2 4498   0.094   1.235   2.744
 1455SOL     OW 4499   3.381   2.837   3.567
 1455SOL    HW1 4500   3.306   2.879   3.609
 1455SOL    HW2 4501   3.361   2.743   3.571
 1456SOL     OW 4502   3.542   3.608   0.553
 1456SOL    HW1 4503   3.566   3.665   0.626
 1456SOL    HW2 4504   3.580   3.523   0.575
 1457SOL     OW 4505   0.263   2.996   2.072
 1457SOL    HW1 4506   0.281   3.089   2.062
 1457SOL    HW2 4507   0.349   2.955   2.076
 1458SOL     OW 4508   2.446   2.304   0.755
 1458SOL    HW1 4509   2.468   2.286   0.846
 1458SOL    HW2 4510   2.361   2.261   0.742
 1459SOL     OW 4511   1.686   1.236   3.071
 1459SOL    HW1 4512   1.592   1.251   3.056
 1459SOL    HW2 4513   1.722   1.323   3.086
 1460SOL     OW 4514   2.357   1.202   0.689
 1460SOL    HW1 4515   2.411   1.201   0.610
 1460SOL    HW2 4516   2.348   1.110   0.714
 1461SOL     OW 4517   1.072   3.357   1.570
 1461SOL    HW1 4518   1.117   3.276   1.594
 1461SOL    HW2 4519   0.992   3.329   1.525
 1462SOL     OW 4520   3.959   2.470   0.346
 1462SOL    HW1 4521   3.951   2.563   0.329
 1462SOL    HW2 4522   3.913   2.456   0.429
 1463SOL     OW 4523   3.861   2.685   0.774
 1463SOL    HW1 4524   3.957   2.682   0.768
 1463SOL    HW2 4525   3.843   2.765   0.824
 1464SOL     OW 4526   0.813   1.284   0.401
 1464SOL    HW1 4527   0.904   1.258   0.411
 1464SOL    HW2 4528   0.787   1.246   0.317
 1465SOL     OW 4529   2.466   0.798   1.109
 1465SOL    HW1 4530   2.392   0.743   1.133
 1465SOL    HW2 4531   2.427   0.882   1.086
 1466SOL     OW 4532   3.370   3.174   1.635
 1466SOL    HW1 4533   3.462   3.153   1.647
 1466SOL    HW2 4534   3.370   3.263   1.600
 1467SOL     OW 4535   1.459   1.167   1.865
 1467SOL    HW1 4536   1.536   1.144   1.917
 1467SOL    HW2 4537   1.469   1.118   1.784
 1468SOL     OW 4538   1.770   1.434   1.928
 1468SOL    HW1 4539   1.741   1.440   1.837
 1468SOL    HW2 4540   1.827   1.358   1.930
 1469SOL     OW 4541   1.246   1.208   1.621
 1469SOL    HW1 4542   1.187   1.159   1.678
 1469SOL    HW2 4543   1.189   1.247   1.555
 1470SOL     OW 4544   1.527   2.719   3.018
 1470SOL    HW1 4545   1.536   2.624   3.003
 1470SOL    HW2 4546   1.435   2.730   3.040
 1471SOL     OW 4547   3.702   3.157   3.783
 1471SOL    HW1 4548   3.610   3.157   3.757
 1471SOL    HW2 4549   3.717   3.070   3.820
 1472SOL     OW 4550   3.638   2.550   2.196
 1472SOL    HW1 4551   3.548   2.519   2.205
 1472SOL    HW2 4552   3.674   2.546   2.285
 1473SOL     OW 4553   3.553   1.005   1.642
 1473SOL    HW1 4554   3.582   0.914   1.648
 1473SOL    HW2 4555   3.632   1.053   1.618
 1474SOL     OW 4556   1.868   0.545   1.957
 1474SOL    HW1 4557   1.905   0.490   2.026
 1474SOL    HW2 4558   1.790   0.584   1.997
 1475SOL     OW 4559   3.666   0.043   3.117
 1475SOL    HW1 4560   3.693   0.092   3.195
 1475SOL    HW2 4561   3.734   0.061   3.053
 1476SOL     OW 4562   0.398   3.573   3.456
 1476SOL    HW1 4563   0.384   3.616   3.540
 1476SOL    HW2 4564   0.335   3.502   3.455
 1477SOL     OW 4565   1.204   2.830   1.075
 1477SOL    HW1 4566   1.179   2.738   1.076
 1477SOL    HW2 4567   1.128   2.876   1.110
 1478SOL     OW 4568   1.991   1.270   0.643
 1478SOL    HW1 4569   2.002   1.271   0.548
 1478SOL    HW2 4570   2.078   1.289   0.678
 1479SOL     OW 4571   3.179   2.235   2.730
 1479SOL    HW1 4572   3.214   2.158   2.687
 1479SOL    HW2 4573   3.167   2.209   2.822
 1480SOL     OW 4574   3.425   0.801   1.405
 1480SOL    HW1 4575   3.473   0.875   1.367
 1480SOL    HW2 4576   3.340   0.838   1.429
 1481SOL     OW 4577   3.724   2.431   1.062
 1481SOL    HW1 4578   3.818   2.416   1.051
 1481SOL    HW2 4579   3.715   2.461   1.153
 1482SOL     OW 4580   1.516   1.769   1.746
 1482SOL    HW1 4581   1.495   1.824   1.822
 1482SOL    HW2 4582   1.603   1.735   1.766
 1483SOL     OW 4583   2.598   0.584   0.259
 1483SOL    HW1 4584   2.641   0.580   0.173
 1483SOL    HW2 4585   2.553   0.669   0.258
 1484SOL     OW 4586   1.276   3.477   0.964
 1484SOL    HW1 4587   1.347   3.415   0.979
 1484SOL    HW2 4588   1.321   3.558   0.939
 1485SOL     OW 4589   2.610   0.501   2.843
 1485SOL    HW1 4590   2.604   0.553   2.762
 1485SOL    HW2 4591   2.519   0.484   2.866
 1486SOL     OW 4592   0.507   0.621   0.348
 1486SOL    HW1 4593   0.581   0.562   0.336
 1486SOL    HW2 4594   0.503   0.670   0.266
 1487SOL     OW 4595   0.921   2.781   0.452
 1487SOL    HW1 4596   0.932   2.864   0.406
 1487SOL    HW2 4597   0.927   2.715   0.383
 1488SOL     OW 4598   2.714   1.771   0.640
 1488SOL    HW1 4599   2.654   1.696   0.638
 1488SOL    HW2 4600   2.793   1.740   0.597
 1489SOL     OW 4601   2.064   0.883   0.696
 1489SOL    HW1 4602   2.136   0.829   0.727
 1489SOL    HW2 4603   2.014   0.904   0.775
 1490SOL     OW 4604   0.086   3.839   0.148
 1490SOL    HW1 4605   0.126   3.800   0.225
 1490SOL    HW2 4606   0.017   3.896   0.183
 1491SOL     OW 4607   0.278   1.257   3.440
 1491SOL    HW1 4608   0.298   1.331   3.382
 1491SOL    HW2 4609   0.267   1.297   3.526
 1492SOL     OW 4610   1.062   1.881   3.727
 1492SOL    HW1 4611   1.136   1.942   3.728
 1492SOL    HW2 4612   1.061   1.844   3.815
 1493SOL     OW 4613   2.730   3.045   1.954
 1493SOL    HW1 4614   2.820   3.039   1.922
 1493SOL    HW2 4615   2.719   3.137   1.979
 1494SOL     OW 4616   1.536   1.445   3.437
 1494SOL    HW1 4617   1.586   1.378   3.484
 1494SOL    HW2 4618   1.481   1.396   3.377
 1495SOL     OW 4619   1.867   2.418   1.756
 1495SOL    HW1 4620   1.953   2.458   1.772
 1495SOL    HW2 4621   1.814   2.443   1.832
 1496SOL     OW 4622   1.293   2.936   3.653
 1496SOL    HW1 4623   1.347   3.013   3.671
 1496SOL    HW2 4624   1.210   2.956   3.697
 1497SOL     OW 4625   0.924   1.613   1.052
 1497SOL    HW1 4626   0.839   1.651   1.030
 1497SOL    HW2 4627   0.984   1.687   1.053
 1498SOL     OW 4628   3.972   0.640   0.439
 1498SOL    HW1 4629   3.928   0.668   0.520
 1498SOL    HW2 4630   3.936   0.554   0.420
 1499SOL     OW 4631   1.970   0.409   0.488
 1499SOL    HW1 4632   1.896   0.424   0.428
 1499SOL    HW2 4633   1.957   0.473   0.558
 1500SOL     OW 4634   3.211   1.586   2.625
 1500SOL    HW1 4635   3.117   1.599   2.614
 1500SOL    HW2 4636   3.247   1.675   2.620
 1501SOL     OW 4637   2.461   2.132   1.561
 1501SOL    HW1 4638   2.545   2.174   1.582
 1501SOL    HW2 4639   2.463   2.050   1.611
 1502SOL     OW 4640   1.198   1.323   3.758
 1502SOL    HW1 4641   1.271   1.354   3.813
 1502SOL    HW2 4642   1.202   1.378   3.680
 1503SOL     OW 4643   2.453   2.754   3.125
 1503SOL    HW1 4644   2.479   2.738   3.034
 1503SOL    HW2 4645   2.533   2.736   3.175
 1504SOL     OW 4646   3.230   3.904   0.395
 1504SOL    HW1 4647   3.234   3.968   0.466
 1504SOL    HW2 4648   3.146   3.922   0.352
 1505SOL     OW 4649   1.631   2.266   0.076
 1505SOL    HW1 4650   1.685   2.333   0.033
 1505SOL    HW2 4651   1.541   2.297   0.066
 1506SOL     OW 4652   2.598   2.867   1.608
 1506SOL    HW1 4653   2.690   2.845   1.620
 1506SOL    HW2 4654   2.552   2.784   1.620
 1507SOL     OW 4655   0.467   0.436   1.294
 1507SOL    HW1 4656   0.496   0.423   1.203
 1507SOL    HW2 4657   0.383   0.391   1.299
 1508SOL     OW 4658   3.439   3.089   3.723
 1508SOL    HW1 4659   3.377   3.015   3.719
 1508SOL    HW2 4660   3.392   3.161   3.682
 1509SOL     OW 4661   1.749   0.229   1.124
 1509SOL    HW1 4662   1.736   0.235   1.029
 1509SOL    HW2 4663   1.786   0.142   1.138
 1510SOL     OW 4664   2.819   0.429   0.411
 1510SOL    HW1 4665   2.785   0.465   0.492
 1510SOL    HW2 4666   2.743   0.391   0.368
 1511SOL     OW 4667   0.934   0.972   0.520
 1511SOL    HW1 4668   1.015   0.924   0.537
 1511SOL    HW2 4669   0.889   0.974   0.605
 1512SOL     OW 4670   1.167   2.020   2.915
 1512SOL    HW1 4671   1.204   1.937   2.944
 1512SOL    HW2 4672   1.115   2.050   2.989
 1513SOL     OW 4673   0.905   1.863   2.642
 1513SOL    HW1 4674   0.892   1.777   2.603
 1513SOL    HW2 4675   0.956   1.846   2.721
 1514SOL     OW 4676   3.213   2.293   3.014
 1514SOL    HW1 4677   3.134   2.300   3.067
 1514SOL    HW2 4678   3.248   2.382   3.010
 1515SOL     OW 4679   0.508   1.937   1.350
 1515SOL    HW1 4680   0.478   1.850   1.375
 1515SOL    HW2 4681   0.430   1.993   1.360
 1516SOL     OW 4682   3.231   3.356   0.435
 1516SOL    HW1 4683   3.260   3.433   0.385
 1516SOL    HW2 4684   3.272   3.282   0.391
 1517SOL     OW 4685   1.140   3.668   1.951
 1517SOL    HW1 4686   1.221   3.620   1.968
 1517SOL    HW2 4687   1.101   3.624   1.876
 1518SOL     OW 4688   0.875   2.031   2.353
 1518SOL    HW1 4689   0.950   1.973   2.367
 1518SOL    HW2 4690   0.889   2.102   2.417
 1519SOL     OW 4691   2.597   3.790   0.063
 1519SOL    HW1 4692   2.526   3.825   0.117
 1519SOL    HW2 4693   2.555   3.734  -0.001
 1520SOL     OW 4694   1.489   1.053   3.559
 1520SOL    HW1 4695   1.584   1.039   3.563
 1520SOL    HW2 4696   1.480   1.147   3.544
 1521SOL     OW 4697   3.387   0.539   1.348
 1521SOL    HW1 4698   3.432   0.532   1.264
 1521SOL    HW2 4699   3.389   0.632   1.369
 1522SOL     OW 4700   1.801   3.271   1.284
 1522SOL    HW1 4701   1.771   3.361   1.299
 1522SOL    HW2 4702   1.743   3.217   1.337
 1523SOL     OW 4703   3.523   1.663   0.427
 1523SOL    HW1 4704   3.521   1.576   0.468
 1523SOL    HW2 4705   3.468   1.654   0.349
 1524SOL     OW 4706   3.673   2.034   2.792
 1524SOL    HW1 4707   3.751   2.078   2.826
 1524SOL    HW2 4708   3.655   1.966   2.856
 1525SOL     OW 4709   2.328   0.634   2.343
 1525SOL    HW1 4710   2.377   0.664   2.420
 1525SOL    HW2 4711   2.393   0.589   2.289
 1526SOL     OW 4712   3.845   0.389   3.133
 1526SOL    HW1 4713   3.893   0.318   3.091
 1526SOL    HW2 4714   3.804   0.348   3.210
 1527SOL     OW 4715   1.714   1.405   0.714
 1527SOL    HW1 4716   1.755   1.345   0.652
 1527SOL    HW2 4717   1.692   1.482   0.663
 1528SOL     OW 4718   0.321   3.026   1.089
 1528SOL    HW1 4719   0.256   3.094   1.107
 1528SOL    HW2 4720   0.402   3.061   1.126
 1529SOL     OW 4721   0.544   0.925   3.048
 1529SOL    HW1 4722   0.618   0.985   3.038
 1529SOL    HW2 4723   0.563   0.853   2.987
 1530SOL     OW 4724   1.041   1.716   2.837
 1530SOL    HW1 4725   1.117   1.710   2.896
 1530SOL    HW2 4726   0.986   1.642   2.861
 1531SOL     OW 4727   1.958   0.929   3.897
 1531SOL    HW1 4728   1.989   0.883   3.975
 1531SOL    HW2 4729   2.037   0.958   3.852
 1532SOL     OW 4730   3.471   1.754   3.249
 1532SOL    HW1 4731   3.475   1.833   3.303
 1532SOL    HW2 4732   3.538   1.697   3.286
 1533SOL     OW 4733   1.837   0.426   2.213
 1533SOL    HW1 4734   1.843   0.348   2.158
 1533SOL    HW2 4735   1.750   0.423   2.251
 1534SOL     OW 4736   1.659   2.895   3.215
 1534SOL    HW1 4737   1.578   2.858   3.181
 1534SOL    HW2 4738   1.714   2.909   3.138
 1535SOL     OW 4739   3.577   1.031   0.126
 1535SOL    HW1 4740   3.529   1.105   0.090
 1535SOL    HW2 4741   3.628   1.067   0.198
 1536SOL     OW 4742   3.763   0.125   3.886
 1536SOL    HW1 4743   3.858   0.133   3.891
 1536SOL    HW2 4744   3.731   0.170   3.965
 1537SOL     OW 4745   0.265   2.806   1.606
 1537SOL    HW1 4746   0.181   2.764   1.588
 1537SOL    HW2 4747   0.268   2.880   1.546
 1538SOL     OW 4748   1.250   3.123   1.587
 1538SOL    HW1 4749   1.324   3.137   1.647
 1538SOL    HW2 4750   1.284   3.061   1.522
 1539SOL     OW 4751   2.384   3.200   1.965
 1539SOL    HW1 4752   2.440   3.200   2.043
 1539SOL    HW2 4753   2.409   3.122   1.917
 1540SOL     OW 4754   2.137   0.286   1.616
 1540SOL    HW1 4755   2.150   0.315   1.525
 1540SOL    HW2 4756   2.081   0.353   1.655
 1541SOL     OW 4757   3.867   3.667   0.355
 1541SOL    HW1 4758   3.944   3.610   0.361
 1541SOL    HW2 4759   3.792   3.609   0.365
 1542SOL     OW 4760   0.407   2.325   2.301
 1542SOL    HW1 4761   0.317   2.300   2.319
 1542SOL    HW2 4762   0.408   2.420   2.309
 1543SOL     OW 4763   2.594   2.602   2.426
 1543SOL    HW1 4764   2.631   2.518   2.400
 1543SOL    HW2 4765   2.634   2.665   2.367
 1544SOL     OW 4766   2.261   3.557   3.145
 1544SOL    HW1 4767   2.189   3.596   3.193
 1544SOL    HW2 4768   2.339   3.601   3.179
 1545SOL     OW 4769   2.386   3.605   2.574
 1545SOL    HW1 4770   2.423   3.549   2.506
 1545SOL    HW2 4771   2.347   3.544   2.637
 1546SOL     OW 4772   3.382   2.327   3.944
 1546SOL    HW1 4773   3.448   2.264   3.914
 1546SOL    HW2 4774   3.433   2.396   3.987
 1547SOL     OW 4775   1.889   1.045   2.788
 1547SOL    HW1 4776   1.865   1.003   2.871
 1547SOL    HW2 4777   1.829   1.119   2.780
 1548SOL     OW 4778   3.001   2.078   0.598
 1548SOL    HW1 4779   3.084   2.034   0.581
 1548SOL    HW2 4780   2.992   2.075   0.693
 1549SOL     OW 4781   0.635   2.623   0.180
 1549SOL    HW1 4782   0.656   2.611   0.087
 1549SOL    HW2 4783   0.710   2.671   0.216
 1550SOL     OW 4784   2.220   3.279   0.677
 1550SOL    HW1 4785   2.259   3.192   0.680
 1550SOL    HW2 4786   2.292   3.336   0.648
 1551SOL     OW 4787   3.019   1.047   2.681
 1551SOL    HW1 4788   2.928   1.057   2.709
 1551SOL    HW2 4789   3.022   1.088   2.595
 1552SOL     OW 4790   0.247   0.456   3.000
 1552SOL    HW1 4791   0.171   0.505   3.032
 1552SOL    HW2 4792   0.304   0.523   2.962
 1553SOL     OW 4793   0.348   3.844   1.056
 1553SOL    HW1 4794   0.420   3.782   1.045
 1553SOL    HW2 4795   0.391   3.930   1.062
 1554SOL     OW 4796   3.296   1.536   0.042
 1554SOL    HW1 4797   3.285   1.441   0.039
 1554SOL    HW2 4798   3.275   1.566  -0.046
 1555SOL     OW 4799   3.558   3.273   2.384
 1555SOL    HW1 4800   3.577   3.361   2.417
 1555SOL    HW2 4801   3.588   3.214   2.454
 1556SOL     OW 4802   1.632   3.418   2.058
 1556SOL    HW1 4803   1.680   3.484   2.008
 1556SOL    HW2 4804   1.698   3.352   2.080
 1557SOL     OW 4805   2.106   2.599   1.861
 1557SOL    HW1 4806   2.196   2.569   1.868
 1557SOL    HW2 4807   2.087   2.638   1.946
 1558SOL     OW 4808   3.017   3.315   3.222
 1558SOL    HW1 4809   3.106   3.325   3.256
 1558SOL    HW2 4810   3.029   3.277   3.135
 1559SOL     OW 4811   0.856   3.753   3.472
 1559SOL    HW1 4812   0.777   3.711   3.437
 1559SOL    HW2 4813   0.825   3.808   3.544
 1560SOL     OW 4814   1.433   3.154   1.764
 1560SOL    HW1 4815   1.408   3.244   1.783
 1560SOL    HW2 4816   1.405   3.104   1.841
 1561SOL     OW 4817   2.446   3.358   0.552
 1561SOL    HW1 4818   2.463   3.394   0.465
 1561SOL    HW2 4819   2.483   3.422   0.612
 1562SOL     OW 4820   3.909   1.644   2.527
 1562SOL    HW1 4821   3.924   1.604   2.441
 1562SOL    HW2 4822   3.854   1.720   2.509
 1563SOL     OW 4823   1.947   3.615   1.606
 1563SOL    HW1 4824   2.029   3.613   1.558
 1563SOL    HW2 4825   1.956   3.548   1.673
 1564SOL     OW 4826   0.567   1.683   1.105
 1564SOL    HW1 4827   0.488   1.628   1.110
 1564SOL    HW2 4828   0.592   1.698   1.196
 1565SOL     OW 4829   3.577   1.732   2.806
 1565SOL    HW1 4830   3.548   1.672   2.874
 1565SOL    HW2 4831   3.671   1.742   2.820
 1566SOL     OW 4832   2.929   2.416   2.682
 1566SOL    HW1 4833   2.995   2.348   2.694
 1566SOL    HW2 4834   2.938   2.442   2.591
 1567SOL     OW 4835   1.581   0.969   1.471
 1567SOL    HW1 4836   1.542   0.937   1.553
 1567SOL    HW2 4837   1.675   0.950   1.480
 1568SOL     OW 4838   1.487   3.664   0.952
 1568SOL    HW1 4839   1.504   3.591   0.892
 1568SOL    HW2 4840   1.549   3.732   0.924
 1569SOL     OW 4841   3.181   2.939   0.516
 1569SOL    HW1 4842   3.111   2.926   0.452
 1569SOL    HW2 4843   3.155   3.017   0.565
 1570SOL     OW 4844   3.875   3.339   0.066
 1570SOL    HW1 4845   3.795   3.350   0.117
 1570SOL    HW2 4846   3.888   3.422   0.021
 1571SOL     OW 4847   2.686   0.904   2.122
 1571SOL    HW1 4848   2.627   0.863   2.185
 1571SOL    HW2 4849   2.774   0.873   2.147
 1572SOL     OW 4850   3.640   2.802   0.471
 1572SOL    HW1 4851   3.655   2.819   0.378
 1572SOL    HW2 4852   3.673   2.713   0.485
 1573SOL     OW 4853   2.428   0.956   0.776
 1573SOL    HW1 4854   2.395   0.992   0.858
 1573SOL    HW2 4855   2.384   0.871   0.767
 1574SOL     OW 4856   2.411   1.644   3.134
 1574SOL    HW1 4857   2.324   1.670   3.103
 1574SOL    HW2 4858   2.465   1.722   3.124
 1575SOL     OW 4859   2.848   3.854   2.131
 1575SOL    HW1 4860   2.861   3.789   2.062
 1575SOL    HW2 4861   2.893   3.818   2.207
 1576SOL     OW 4862   1.354   3.442   0.463
 1576SOL    HW1 4863   1.431   3.392   0.486
 1576SOL    HW2 4864   1.388   3.519   0.416
 1577SOL     OW 4865   1.542   1.124   2.280
 1577SOL    HW1 4866   1.630   1.131   2.315
 1577SOL    HW2 4867   1.540   1.186   2.206
 1578SOL     OW 4868   0.526   3.182   3.381
 1578SOL    HW1 4869   0.441   3.179   3.425
 1578SOL    HW2 4870   0.510   3.143   3.295
 1579SOL     OW 4871   1.892   3.810   0.824
 1579SOL    HW1 4872   1.865   3.766   0.905
 1579SOL    HW2 4873   1.841   3.767   0.755
 1580SOL     OW 4874   2.327   0.415   2.950
 1580SOL    HW1 4875   2.255   0.369   2.907
 1580SOL    HW2 4876   2.385   0.346   2.982
 1581SOL     OW 4877  -0.028   2.372   2.128
 1581SOL    HW1 4878   0.049   2.344   2.176
 1581SOL    HW2 4879   0.000   2.449   2.078
 1582SOL     OW 4880   1.816   2.057   1.350
 1582SOL    HW1 4881   1.733   2.089   1.387
 1582SOL    HW2 4882   1.796   2.042   1.258
 1583SOL     OW 4883   2.349   1.482   0.120
 1583SOL    HW1 4884   2.349   1.411   0.185
 1583SOL    HW2 4885   2.419   1.459   0.059
 1584SOL     OW 4886   3.768   1.471   0.270
 1584SOL    HW1 4887   3.751   1.430   0.356
 1584SOL    HW2 4888   3.704   1.431   0.211
 1585SOL     OW 4889   2.415   0.996   2.687
 1585SOL    HW1 4890   2.444   1.087   2.689
 1585SOL    HW2 4891   2.329   0.998   2.647
 1586SOL     OW 4892   3.468   1.415   3.265
 1586SOL    HW1 4893   3.377   1.387   3.250
 1586SOL    HW2 4894   3.519   1.364   3.202
 1587SOL     OW 4895   3.565   1.938   2.073
 1587SOL    HW1 4896   3.619   2.017   2.068
 1587SOL    HW2 4897   3.501   1.948   2.003
 1588SOL     OW 4898   3.867   0.941   0.639
 1588SOL    HW1 4899   3.798   0.901   0.587
 1588SOL    HW2 4900   3.854   0.907   0.727
 1589SOL     OW 4901   0.643   0.731   1.360
 1589SOL    HW1 4902   0.699   0.691   1.427
 1589SOL    HW2 4903   0.643   0.824   1.381
 1590SOL     OW 4904   1.022   3.006   1.156
 1590SOL    HW1 4905   1.021   2.975   1.247
 1590SOL    HW2 4906   0.949   3.067   1.151
 1591SOL     OW 4907   3.348   0.700   3.732
 1591SOL    HW1 4908   3.401   0.758   3.677
 1591SOL    HW2 4909   3.311   0.636   3.671
 1592SOL     OW 4910   3.881   2.249   3.384
 1592SOL    HW1 4911   3.863   2.280   3.473
 1592SOL    HW2 4912   3.886   2.328   3.331
 1593SOL     OW 4913   3.265   2.876   2.962
 1593SOL    HW1 4914   3.197   2.820   2.926
 1593SOL    HW2 4915   3.222   2.960   2.978
 1594SOL     OW 4916   3.336   2.851   1.231
 1594SOL    HW1 4917   3.333   2.761   1.262
 1594SOL    HW2 4918   3.384   2.898   1.299
 1595SOL     OW 4919   0.216   2.377   0.224
 1595SOL    HW1 4920   0.144   2.418   0.271
 1595SOL    HW2 4921   0.179   2.354   0.139
 1596SOL     OW 4922   1.297   0.880   1.169
 1596SOL    HW1 4923   1.376   0.930   1.187
 1596SOL    HW2 4924   1.230   0.946   1.148
 1597SOL     OW 4925   3.472   3.587   1.789
 1597SOL    HW1 4926   3.455   3.554   1.700
 1597SOL    HW2 4927   3.479   3.681   1.779
 1598SOL     OW 4928   0.399   2.010   3.744
 1598SOL    HW1 4929   0.425   2.101   3.733
 1598SOL    HW2 4930   0.304   2.012   3.747
 1599SOL     OW 4931   0.448   1.861   2.821
 1599SOL    HW1 4932   0.404   1.778   2.842
 1599SOL    HW2 4933   0.502   1.840   2.745
 1600SOL     OW 4934   3.245   2.489   1.020
 1600SOL    HW1 4935   3.162   2.521   0.985
 1600SOL    HW2 4936   3.262   2.408   0.972
 1601SOL     OW 4937   2.794   0.178   2.423
 1601SOL    HW1 4938   2.797   0.221   2.508
 1601SOL    HW2 4939   2.885   0.151   2.407
 1602SOL     OW 4940   2.046   2.164   1.268
 1602SOL    HW1 4941   1.973   2.110   1.298
 1602SOL    HW2 4942   2.056   2.142   1.176
 1603SOL     OW 4943   0.122   3.390   2.817
 1603SOL    HW1 4944   0.173   3.433   2.886
 1603SOL    HW2 4945   0.066   3.328   2.864
 1604SOL     OW 4946   0.236   0.854   2.191
 1604SOL    HW1 4947   0.276   0.814   2.114
 1604SOL    HW2 4948   0.233   0.784   2.255
 1605SOL     OW 4949   0.457   3.099   3.102
 1605SOL    HW1 4950   0.364   3.091   3.082
 1605SOL    HW2 4951   0.501   3.055   3.030
 1606SOL     OW 4952   3.043   2.422   3.454
 1606SOL    HW1 4953   3.003   2.502   3.421
 1606SOL    HW2 4954   3.002   2.408   3.540
 1607SOL     OW 4955   3.787   2.319   3.629
 1607SOL    HW1 4956   3.784   2.413   3.646
 1607SOL    HW2 4957   3.870   2.290   3.667
 1608SOL     OW 4958   2.567   3.832   2.302
 1608SOL    HW1 4959   2.543   3.920   2.331
 1608SOL    HW2 4960   2.618   3.847   2.222
 1609SOL     OW 4961   2.457   1.430   1.177
 1609SOL    HW1 4962   2.512   1.352   1.181
 1609SOL    HW2 4963   2.417   1.436   1.264
 1610SOL     OW 4964   1.149   1.926   1.540
 1610SOL    HW1 4965   1.147   2.021   1.550
 1610SOL    HW2 4966   1.155   1.892   1.629
 1611SOL     OW 4967   1.023   3.382   1.169
 1611SOL    HW1 4968   1.103   3.432   1.180
 1611SOL    HW2 4969   1.006   3.383   1.075
 1612SOL     OW 4970   0.050   2.626   1.975
 1612SOL    HW1 4971  -0.028   2.668   2.012
 1612SOL    HW2 4972   0.112   2.698   1.962
 1613SOL     OW 4973   1.703   3.382   1.710
 1613SOL    HW1 4974   1.740   3.328   1.639
 1613SOL    HW2 4975   1.630   3.330   1.743
 1614SOL     OW 4976   0.877   2.407   0.432
 1614SOL    HW1 4977   0.858   2.388   0.340
 1614SOL    HW2 4978   0.946   2.472   0.429
 1615SOL     OW 4979   1.334   1.838   1.354
 1615SOL    HW1 4980   1.281   1.871   1.426
 1615SOL    HW2 4981   1.417   1.812   1.394
 1616SOL     OW 4982   0.590   1.791   2.552
 1616SOL    HW1 4983   0.681   1.815   2.531
 1616SOL    HW2 4984   0.538   1.837   2.486
 1617SOL     OW 4985   1.462   3.011   2.758
 1617SOL    HW1 4986   1.523   2.945   2.725
 1617SOL    HW2 4987   1.513   3.092   2.759
 1618SOL     OW 4988   3.051   0.046   2.436
 1618SOL    HW1 4989   3.130   0.032   2.384
 1618SOL    HW2 4990   3.083   0.078   2.521
 1619SOL     OW 4991   2.670   0.243   2.072
 1619SOL    HW1 4992   2.678   0.319   2.015
 1619SOL    HW2 4993   2.618   0.181   2.021
 1620SOL     OW 4994   1.814   3.890   2.782
 1620SOL    HW1 4995   1.900   3.920   2.752
 1620SOL    HW2 4996   1.776   3.846   2.706
 1621SOL     OW 4997   2.825   1.617   2.949
 1621SOL    HW1 4998   2.905   1.662   2.922
 1621SOL    HW2 4999   2.774   1.685   2.994
 1622SOL     OW 5000   3.587   2.377   0.791
 1622SOL    HW1 5001   3.498   2.341   0.785
 1622SOL    HW2 5002   3.596   2.404   0.882
 1623SOL     OW 5003   1.508   2.025   0.444
 1623SOL    HW1 5004   1.581   1.970   0.472
 1623SOL    HW2 5005   1.503   2.093   0.512
 1624SOL     OW 5006   2.856   2.518   1.234
 1624SOL    HW1 5007   2.891   2.440   1.190
 1624SOL    HW2 5008   2.767   2.493   1.258
 1625SOL     OW 5009   2.233   3.350   0.256
 1625SOL    HW1 5010   2.327   3.370   0.259
 1625SOL    HW2 5011   2.222   3.282   0.323
 1626SOL     OW 5012   0.731   1.805   0.920
 1626SOL    HW1 5013   0.659   1.764   0.969
 1626SOL    HW2 5014   0.695   1.817   0.832
 1627SOL     OW 5015   0.186   0.735   0.203
 1627SOL    HW1 5016   0.230   0.820   0.205
 1627SOL    HW2 5017   0.134   0.734   0.284
 1628SOL     OW 5018   0.980   2.512   3.934
 1628SOL    HW1 5019   0.910   2.542   3.877
 1628SOL    HW2 5020   1.018   2.437   3.887
 1629SOL     OW 5021   2.172   2.150   1.509
 1629SOL    HW1 5022   2.111   2.152   1.434
 1629SOL    HW2 5023   2.259   2.147   1.469
 1630SOL     OW 5024   2.668   1.270   1.153
 1630SOL    HW1 5025   2.669   1.260   1.249
 1630SOL    HW2 5026   2.735   1.210   1.122
 1631SOL     OW 5027   2.675   3.752   1.448
 1631SOL    HW1 5028   2.749   3.723   1.394
 1631SOL    HW2 5029   2.715   3.790   1.526
 1632SOL     OW 5030   0.519   2.310   3.101
 1632SOL    HW1 5031   0.490   2.249   3.034
 1632SOL    HW2 5032   0.571   2.257   3.162
 1633SOL     OW 5033   2.465   2.183   2.327
 1633SOL    HW1 5034   2.459   2.273   2.358
 1633SOL    HW2 5035   2.437   2.187   2.236
 1634SOL     OW 5036   2.241   0.588   2.714
 1634SOL    HW1 5037   2.191   0.507   2.724
 1634SOL    HW2 5038   2.218   0.640   2.791
 1635SOL     OW 5039   0.786   3.196   1.532
 1635SOL    HW1 5040   0.712   3.253   1.551
 1635SOL    HW2 5041   0.805   3.211   1.440
 1636SOL     OW 5042   3.418   0.226   3.096
 1636SOL    HW1 5043   3.345   0.182   3.139
 1636SOL    HW2 5044   3.490   0.221   3.159
 1637SOL     OW 5045   2.766   0.360   0.998
 1637SOL    HW1 5046   2.753   0.280   1.048
 1637SOL    HW2 5047   2.861   0.364   0.984
 1638SOL     OW 5048   0.164   0.517   0.012
 1638SOL    HW1 5049   0.098   0.464   0.057
 1638SOL    HW2 5050   0.150   0.606   0.046
 1639SOL     OW 5051   2.973  -0.030   3.483
 1639SOL    HW1 5052   2.944   0.053   3.519
 1639SOL    HW2 5053   3.065  -0.016   3.461
 1640SOL     OW 5054   0.566   1.901   0.308
 1640SOL    HW1 5055   0.601   1.986   0.281
 1640SOL    HW2 5056   0.472   1.906   0.290
 1641SOL     OW 5057   2.136   0.422   1.328
 1641SOL    HW1 5058   2.123   0.356   1.260
 1641SOL    HW2 5059   2.051   0.426   1.373
 1642SOL     OW 5060   3.540   1.302   3.720
 1642SOL    HW1 5061   3.627   1.339   3.735
 1642SOL    HW2 5062   3.549   1.210   3.744
 1643SOL     OW 5063   1.032   1.351   0.190
 1643SOL    HW1 5064   0.978   1.430   0.191
 1643SOL    HW2 5065   0.992   1.296   0.122
 1644SOL     OW 5066   3.342   1.891   2.361
 1644SOL    HW1 5067   3.373   1.947   2.432
 1644SOL    HW2 5068   3.402   1.816   2.363
 1645SOL     OW 5069   3.300   2.311   3.676
 1645SOL    HW1 5070   3.292   2.220   3.648
 1645SOL    HW2 5071   3.327   2.305   3.768
 1646SOL     OW 5072   2.238   0.151   1.837
 1646SOL    HW1 5073   2.156   0.153   1.887
 1646SOL    HW2 5074   2.223   0.212   1.764
 1647SOL     OW 5075   3.667   1.991   2.520
 1647SOL    HW1 5076   3.759   2.015   2.527
 1647SOL    HW2 5077   3.636   1.989   2.611
 1648SOL     OW 5078   1.771   3.500   0.360
 1648SOL    HW1 5079   1.717   3.558   0.306
 1648SOL    HW2 5080   1.759   3.413   0.320
 1649SOL     OW 5081   2.716   0.622   2.318
 1649SOL    HW1 5082   2.786   0.589   2.261
 1649SOL    HW2 5083   2.636   0.596   2.273
 1650SOL     OW 5084   3.902   3.248   2.903
 1650SOL    HW1 5085   3.830   3.232   2.842
 1650SOL    HW2 5086   3.860   3.264   2.987
 1651SOL     OW 5087   3.907   1.890   3.479
 1651SOL    HW1 5088   3.874   1.806   3.449
 1651SOL    HW2 5089   3.832   1.949   3.475
 1652SOL     OW 5090   3.061   0.974   3.406
 1652SOL    HW1 5091   2.978   1.007   3.372
 1652SOL    HW2 5092   3.123   0.987   3.334
 1653SOL     OW 5093   1.291   3.492   3.839
 1653SOL    HW1 5094   1.248   3.457   3.761
 1653SOL    HW2 5095   1.367   3.540   3.805
 1654SOL     OW 5096   1.854   2.034   0.083
 1654SOL    HW1 5097   1.792   2.107   0.076
 1654SOL    HW2 5098   1.821   1.982   0.156
 1655SOL     OW 5099   1.032   1.601   0.586
 1655SOL    HW1 5100   0.950   1.565   0.618
 1655SOL    HW2 5101   1.017   1.695   0.582
 1656SOL     OW 5102   1.504   2.473   0.275
 1656SOL    HW1 5103   1.437   2.529   0.315
 1656SOL    HW2 5104   1.468   2.385   0.282
 1657SOL     OW 5105   2.753   1.176   0.529
 1657SOL    HW1 5106   2.713   1.183   0.442
 1657SOL    HW2 5107   2.708   1.102   0.570
 1658SOL     OW 5108   2.433   1.619   0.512
 1658SOL    HW1 5109   2.471   1.531   0.516
 1658SOL    HW2 5110   2.484   1.665   0.445
 1659SOL     OW 5111   3.224   2.973   3.270
 1659SOL    HW1 5112   3.303   2.920   3.278
 1659SOL    HW2 5113   3.204   2.972   3.177
 1660SOL     OW 5114   0.321   1.969   2.181
 1660SOL    HW1 5115   0.263   2.007   2.114
 1660SOL    HW2 5116   0.361   1.894   2.138
 1661SOL     OW 5117   2.548   0.141   2.336
 1661SOL    HW1 5118   2.628   0.148   2.388
 1661SOL    HW2 5119   2.569   0.183   2.253
 1662SOL     OW 5120   2.284   0.035   3.929
 1662SOL    HW1 5121   2.191   0.015   3.919
 1662SOL    HW2 5122   2.309  -0.007   4.011
 1663SOL     OW 5123   2.828   1.396   3.436
 1663SOL    HW1 5124   2.736   1.423   3.435
 1663SOL    HW2 5125   2.866   1.438   3.359
 1664SOL     OW 5126   2.844   3.472  -0.003
 1664SOL    HW1 5127   2.919   3.527   0.018
 1664SOL    HW2 5128   2.792   3.469   0.078
 1665SOL     OW 5129   0.448   2.778   1.252
 1665SOL    HW1 5130   0.373   2.805   1.306
 1665SOL    HW2 5131   0.409   2.751   1.169
 1666SOL     OW 5132   2.304   1.809   1.546
 1666SOL    HW1 5133   2.306   1.898   1.581
 1666SOL    HW2 5134   2.224   1.771   1.581
 1667SOL     OW 5135   1.413   0.962   2.955
 1667SOL    HW1 5136   1.475   0.890   2.947
 1667SOL    HW2 5137   1.327   0.921   2.952
 1668SOL     OW 5138   0.329   2.590   2.274
 1668SOL    HW1 5139   0.372   2.639   2.204
 1668SOL    HW2 5140   0.246   2.635   2.289
 1669SOL     OW 5141   2.681   3.990   2.684
 1669SOL    HW1 5142   2.624   3.918   2.711
 1669SOL    HW2 5143   2.732   3.954   2.612
 1670SOL     OW 5144   1.503   1.788   0.741
 1670SOL    HW1 5145   1.511   1.724   0.812
 1670SOL    HW2 5146   1.450   1.743   0.675
 1671SOL     OW 5147   0.138   0.188   3.689
 1671SOL    HW1 5148   0.116   0.108   3.642
 1671SOL    HW2 5149   0.144   0.161   3.780
 1672SOL     OW 5150   1.698   3.307   3.858
 1672SOL    HW1 5151   1.781   3.275   3.892
 1672SOL    HW2 5152   1.709   3.307   3.763
 1673SOL     OW 5153   1.487   3.062   3.776
 1673SOL    HW1 5154   1.561   3.113   3.811
 1673SOL    HW2 5155   1.514   2.971   3.785
 1674SOL     OW 5156   0.296   0.780   1.228
 1674SOL    HW1 5157   0.379   0.768   1.181
 1674SOL    HW2 5158   0.321   0.781   1.320
 1675SOL     OW 5159   0.681   2.591   1.364
 1675SOL    HW1 5160   0.762   2.611   1.411
 1675SOL    HW2 5161   0.672   2.662   1.300
 1676SOL     OW 5162   0.841   2.193   1.445
 1676SOL    HW1 5163   0.924   2.184   1.491
 1676SOL    HW2 5164   0.775   2.193   1.514
 1677SOL     OW 5165   0.248   2.803   0.932
 1677SOL    HW1 5166   0.261   2.718   0.974
 1677SOL    HW2 5167   0.282   2.867   0.995
 1678SOL     OW 5168   2.641   2.451   3.586
 1678SOL    HW1 5169   2.676   2.365   3.565
 1678SOL    HW2 5170   2.706   2.491   3.643
 1679SOL     OW 5171   1.430   1.338   3.922
 1679SOL    HW1 5172   1.457   1.392   3.997
 1679SOL    HW2 5173   1.504   1.280   3.906
 1680SOL     OW 5174   0.876   1.441   0.759
 1680SOL    HW1 5175   0.872   1.346   0.762
 1680SOL    HW2 5176   0.879   1.468   0.851
 1681SOL     OW 5177   2.797   1.814   2.517
 1681SOL    HW1 5178   2.722   1.771   2.476
 1681SOL    HW2 5179   2.772   1.907   2.521
 1682SOL     OW 5180   3.619   2.343   1.973
 1682SOL    HW1 5181   3.594   2.403   2.043
 1682SOL    HW2 5182   3.670   2.275   2.015
 1683SOL     OW 5183   3.174   2.335   1.274
 1683SOL    HW1 5184   3.128   2.271   1.220
 1683SOL    HW2 5185   3.172   2.415   1.222
 1684SOL     OW 5186   3.844   2.985   1.895
 1684SOL    HW1 5187   3.801   2.903   1.870
 1684SOL    HW2 5188   3.936   2.970   1.873
 1685SOL     OW 5189   3.387   1.253   0.060
 1685SOL    HW1 5190   3.338   1.212  -0.011
 1685SOL    HW2 5191   3.339   1.230   0.139
 1686SOL     OW 5192   1.218   3.179   0.245
 1686SOL    HW1 5193   1.238   3.220   0.160
 1686SOL    HW2 5194   1.150   3.115   0.225
 1687SOL     OW 5195   0.888   1.156   3.960
 1687SOL    HW1 5196   0.890   1.081   4.020
 1687SOL    HW2 5197   0.911   1.119   3.875
 1688SOL     OW 5198   2.440   3.790   0.744
 1688SOL    HW1 5199   2.395   3.773   0.827
 1688SOL    HW2 5200   2.376   3.768   0.677
 1689SOL     OW 5201   2.805   0.248   0.685
 1689SOL    HW1 5202   2.810   0.340   0.709
 1689SOL    HW2 5203   2.716   0.237   0.650
 1690SOL     OW 5204   0.799   0.570   1.584
 1690SOL    HW1 5205   0.858   0.517   1.638
 1690SOL    HW2 5206   0.716   0.522   1.584
 1691SOL     OW 5207   0.301   3.675   3.705
 1691SOL    HW1 5208   0.377   3.639   3.750
 1691SOL    HW2 5209   0.229   3.617   3.730
 1692SOL     OW 5210   2.809   3.176   1.219
 1692SOL    HW1 5211   2.733   3.157   1.275
 1692SOL    HW2 5212   2.829   3.092   1.177
 1693SOL     OW 5213   3.334   1.822   2.720
 1693SOL    HW1 5214   3.264   1.806   2.783
 1693SOL    HW2 5215   3.414   1.798   2.766
 1694SOL     OW 5216   1.301   0.850   3.960
 1694SOL    HW1 5217   1.284   0.937   3.997
 1694SOL    HW2 5218   1.312   0.866   3.866
 1695SOL     OW 5219   0.192   1.394   3.001
 1695SOL    HW1 5220   0.120   1.378   3.063
 1695SOL    HW2 5221   0.162   1.353   2.919
 1696SOL     OW 5222   2.705   0.781   0.950
 1696SOL    HW1 5223   2.672   0.723   0.882
 1696SOL    HW2 5224   2.631   0.798   1.007
 1697SOL     OW 5225   3.183   2.071   1.706
 1697SOL    HW1 5226   3.179   2.136   1.636
 1697SOL    HW2 5227   3.101   2.021   1.697
 1698SOL     OW 5228   3.418   3.718   2.201
 1698SOL    HW1 5229   3.448   3.628   2.186
 1698SOL    HW2 5230   3.411   3.756   2.114
 1699SOL     OW 5231   0.749   1.102   3.669
 1699SOL    HW1 5232   0.656   1.079   3.665
 1699SOL    HW2 5233   0.792   1.020   3.693
 1700SOL     OW 5234   1.447   0.932   1.716
 1700SOL    HW1 5235   1.366   0.902   1.675
 1700SOL    HW2 5236   1.440   0.902   1.807
 1701SOL     OW 5237   2.161   1.179   0.039
 1701SOL    HW1 5238   2.219   1.108   0.013
 1701SOL    HW2 5239   2.096   1.183  -0.032
 1702SOL     OW 5240   2.234   0.396   2.496
 1702SOL    HW1 5241   2.286   0.446   2.432
 1702SOL    HW2 5242   2.289   0.321   2.517
 1703SOL     OW 5243   3.043   1.521   1.042
 1703SOL    HW1 5244   3.006   1.462   0.976
 1703SOL    HW2 5245   3.013   1.486   1.126
 1704SOL     OW 5246   2.658   2.894   0.060
 1704SOL    HW1 5247   2.751   2.899   0.042
 1704SOL    HW2 5248   2.632   2.808   0.025
 1705SOL     OW 5249   1.462   3.442   0.126
 1705SOL    HW1 5250   1.372   3.474   0.131
 1705SOL    HW2 5251   1.508   3.484   0.198
 1706SOL     OW 5252   3.284   3.667   3.603
 1706SOL    HW1 5253   3.220   3.620   3.548
 1706SOL    HW2 5254   3.322   3.732   3.544
 1707SOL     OW 5255   1.457   3.521   3.188
 1707SOL    HW1 5256   1.511   3.561   3.119
 1707SOL    HW2 5257   1.489   3.431   3.193
 1708SOL     OW 5258   1.802   0.098   2.485
 1708SOL    HW1 5259   1.845   0.013   2.490
 1708SOL    HW2 5260   1.874   0.161   2.485
 1709SOL     OW 5261   2.492   2.078   3.450
 1709SOL    HW1 5262   2.462   2.059   3.361
 1709SOL    HW2 5263   2.483   1.995   3.496
 1710SOL     OW 5264   3.062   0.343   1.263
 1710SOL    HW1 5265   3.144   0.342   1.312
 1710SOL    HW2 5266   3.029   0.432   1.273
 1711SOL     OW 5267   3.643   3.758   0.746
 1711SOL    HW1 5268   3.716   3.697   0.737
 1711SOL    HW2 5269   3.669   3.817   0.817
 1712SOL     OW 5270   2.785  -0.012   0.793
 1712SOL    HW1 5271   2.802   0.081   0.780
 1712SOL    HW2 5272   2.737  -0.039   0.715
 1713SOL     OW 5273   2.721   1.555   1.616
 1713SOL    HW1 5274   2.739   1.480   1.672
 1713SOL    HW2 5275   2.626   1.558   1.610
 1714SOL     OW 5276   2.073   3.295   0.063
 1714SOL    HW1 5277   2.126   3.317   0.141
 1714SOL    HW2 5278   1.986   3.329   0.083
 1715SOL     OW 5279   1.363   3.768   1.158
 1715SOL    HW1 5280   1.421   3.733   1.091
 1715SOL    HW2 5281   1.403   3.851   1.184
 1716SOL     OW 5282   3.315   0.953   0.686
 1716SOL    HW1 5283   3.291   0.921   0.773
 1716SOL    HW2 5284   3.292   0.882   0.627
 1717SOL     OW 5285   2.178   1.066   3.172
 1717SOL    HW1 5286   2.106   1.014   3.208
 1717SOL    HW2 5287   2.136   1.133   3.119
 1718SOL     OW 5288   3.073   0.373   2.466
 1718SOL    HW1 5289   3.140   0.365   2.398
 1718SOL    HW2 5290   3.007   0.308   2.442
 1719SOL     OW 5291   3.633   0.582   3.087
 1719SOL    HW1 5292   3.677   0.501   3.060
 1719SOL    HW2 5293   3.618   0.571   3.181
 1720SOL     OW 5294   0.473   1.766   2.075
 1720SOL    HW1 5295   0.502   1.727   2.157
 1720SOL    HW2 5296   0.547   1.818   2.046
 1721SOL     OW 5297   2.123   2.698   0.793
 1721SOL    HW1 5298   2.130   2.738   0.706
 1721SOL    HW2 5299   2.101   2.607   0.775
 1722SOL     OW 5300   2.779   2.487   0.131
 1722SOL    HW1 5301   2.731   2.434   0.067
 1722SOL    HW2 5302   2.716   2.505   0.200
 1723SOL     OW 5303   1.854   0.031   3.033
 1723SOL    HW1 5304   1.866   0.125   3.047
 1723SOL    HW2 5305   1.872   0.018   2.940
 1724SOL     OW 5306   3.204   0.605   0.228
 1724SOL    HW1 5307   3.217   0.541   0.158
 1724SOL    HW2 5308   3.109   0.612   0.237
 1725SOL     OW 5309   3.662   1.947   0.193
 1725SOL    HW1 5310   3.728   1.985   0.135
 1725SOL    HW2 5311   3.646   1.859   0.157
 1726SOL     OW 5312   0.549   1.000   1.444
 1726SOL    HW1 5313   0.472   1.029   1.395
 1726SOL    HW2 5314   0.514   0.958   1.522
 1727SOL     OW 5315   1.114   0.993   2.722
 1727SOL    HW1 5316   1.037   1.049   2.712
 1727SOL    HW2 5317   1.112   0.966   2.814
 1728SOL     OW 5318   1.618   0.648   2.591
 1728SOL    HW1 5319   1.707   0.635   2.623
 1728SOL    HW2 5320   1.591   0.562   2.559
 1729SOL     OW 5321   3.362   1.680   0.817
 1729SOL    HW1 5322   3.406   1.744   0.761
 1729SOL    HW2 5323   3.431   1.620   0.845
 1730SOL     OW 5324   1.212   2.311   0.470
 1730SOL    HW1 5325   1.195   2.229   0.516
 1730SOL    HW2 5326   1.189   2.379   0.533
 1731SOL     OW 5327   3.178   0.181   1.496
 1731SOL    HW1 5328   3.255   0.140   1.457
 1731SOL    HW2 5329   3.106   0.123   1.473
 1732SOL     OW 5330   0.590   1.276   0.021
 1732SOL    HW1 5331   0.676   1.251  -0.015
 1732SOL    HW2 5332   0.586   1.371   0.009
 1733SOL     OW 5333   3.530   2.291   2.831
 1733SOL    HW1 5334   3.605   2.232   2.830
 1733SOL    HW2 5335   3.483   2.270   2.911
 1734SOL     OW 5336   3.030   2.573   0.061
 1734SOL    HW1 5337   3.081   2.492   0.071
 1734SOL    HW2 5338   2.939   2.546   0.073
 1735SOL     OW 5339   1.812   3.405   3.487
 1735SOL    HW1 5340   1.792   3.338   3.553
 1735SOL    HW2 5341   1.759   3.380   3.411
 1736SOL     OW 5342   2.935   2.326   3.689
 1736SOL    HW1 5343   2.952   2.316   3.782
 1736SOL    HW2 5344   2.868   2.261   3.669
 1737SOL     OW 5345   0.208   2.047   1.710
 1737SOL    HW1 5346   0.264   2.125   1.711
 1737SOL    HW2 5347   0.187   2.034   1.617
 1738SOL     OW 5348   1.305   1.478   3.566
 1738SOL    HW1 5349   1.304   1.558   3.619
 1738SOL    HW2 5350   1.387   1.482   3.518
 1739SOL     OW 5351   2.547   0.778   1.676
 1739SOL    HW1 5352   2.507   0.720   1.741
 1739SOL    HW2 5353   2.640   0.781   1.700
 1740SOL     OW 5354   1.441   1.339   0.644
 1740SOL    HW1 5355   1.488   1.353   0.726
 1740SOL    HW2 5356   1.416   1.427   0.616
 1741SOL     OW 5357   3.799   2.144   2.099
 1741SOL    HW1 5358   3.859   2.075   2.070
 1741SOL    HW2 5359   3.848   2.225   2.087
 1742SOL     OW 5360   2.262   0.633   1.204
 1742SOL    HW1 5361   2.199   0.668   1.140
 1742SOL    HW2 5362   2.210   0.577   1.261
 1743SOL     OW 5363   2.062   3.626   2.258
 1743SOL    HW1 5364   1.970   3.622   2.231
 1743SOL    HW2 5365   2.104   3.555   2.210
 1744SOL     OW 5366   1.143   3.511   3.197
 1744SOL    HW1 5367   1.228   3.475   3.169
 1744SOL    HW2 5368   1.159   3.545   3.285
 1745SOL     OW 5369   3.299   3.372   0.715
 1745SOL    HW1 5370   3.340   3.287   0.727
 1745SOL    HW2 5371   3.287   3.381   0.621
 1746SOL     OW 5372   3.248   1.349   1.534
 1746SOL    HW1 5373   3.311   1.420   1.544
 1746SOL    HW2 5374   3.295   1.283   1.483
 1747SOL     OW 5375   2.192   1.479   2.280
 1747SOL    HW1 5376   2.187   1.386   2.301
 1747SOL    HW2 5377   2.106   1.501   2.244
 1748SOL     OW 5378   2.469   0.174   3.018
 1748SOL    HW1 5379   2.408   0.100   3.019
 1748SOL    HW2 5380   2.515   0.168   3.102
 1749SOL     OW 5381   3.954   3.914   3.538
 1749SOL    HW1 5382   3.928   3.888   3.450
 1749SOL    HW2 5383   3.900   3.860   3.596
 1750SOL     OW 5384   3.041   1.545   0.254
 1750SOL    HW1 5385   3.023   1.455   0.282
 1750SOL    HW2 5386   3.063   1.538   0.162
 1751SOL     OW 5387   3.384   3.913   2.013
 1751SOL    HW1 5388   3.376   3.862   1.932
 1751SOL    HW2 5389   3.366   4.003   1.987
 1752SOL     OW 5390   1.811   0.880   1.830
 1752SOL    HW1 5391   1.862   0.854   1.907
 1752SOL    HW2 5392   1.779   0.798   1.793
 1753SOL     OW 5393   3.250   0.952   2.422
 1753SOL    HW1 5394   3.331   0.950   2.371
 1753SOL    HW2 5395   3.258   0.877   2.482
 1754SOL     OW 5396   1.213   2.571   2.533
 1754SOL    HW1 5397   1.173   2.624   2.464
 1754SOL    HW2 5398   1.256   2.635   2.591
 1755SOL     OW 5399   2.341   2.169   2.897
 1755SOL    HW1 5400   2.264   2.118   2.872
 1755SOL    HW2 5401   2.308   2.258   2.910
 1756SOL     OW 5402   0.565   1.615   3.057
 1756SOL    HW1 5403   0.517   1.611   3.140
 1756SOL    HW2 5404   0.496   1.623   2.991
 1757SOL     OW 5405   3.886   1.210   3.808
 1757SOL    HW1 5406   3.916   1.168   3.889
 1757SOL    HW2 5407   3.830   1.144   3.767
 1758SOL     OW 5408   2.904   0.046   0.339
 1758SOL    HW1 5409   2.860   0.065   0.256
 1758SOL    HW2 5410   2.857   0.097   0.404
 1759SOL     OW 5411   0.990   1.903   0.636
 1759SOL    HW1 5412   0.911   1.956   0.622
 1759SOL    HW2 5413   1.005   1.907   0.730
 1760SOL     OW 5414   2.360   2.727   1.218
 1760SOL    HW1 5415   2.380   2.702   1.127
 1760SOL    HW2 5416   2.426   2.793   1.240
 1761SOL     OW 5417   2.969   1.275   1.507
 1761SOL    HW1 5418   3.031   1.339   1.541
 1761SOL    HW2 5419   3.007   1.190   1.529
 1762SOL     OW 5420   2.893   0.918   1.405
 1762SOL    HW1 5421   2.812   0.868   1.409
 1762SOL    HW2 5422   2.870   1.004   1.440
 1763SOL     OW 5423   0.744   2.384   2.899
 1763SOL    HW1 5424   0.795   2.303   2.889
 1763SOL    HW2 5425   0.681   2.382   2.827
 1764SOL     OW 5426   3.409   2.636   1.869
 1764SOL    HW1 5427   3.446   2.607   1.785
 1764SOL    HW2 5428   3.388   2.554   1.915
 1765SOL     OW 5429   0.166   1.005   3.629
 1765SOL    HW1 5430   0.162   1.073   3.562
 1765SOL    HW2 5431   0.156   1.052   3.712
 1766SOL     OW 5432   1.453   2.225   0.663
 1766SOL    HW1 5433   1.487   2.298   0.716
 1766SOL    HW2 5434   1.363   2.213   0.695
 1767SOL     OW 5435   2.608   1.091   3.681
 1767SOL    HW1 5436   2.611   1.004   3.643
 1767SOL    HW2 5437   2.531   1.132   3.641
 1768SOL     OW 5438   0.152   3.003   0.768
 1768SOL    HW1 5439   0.080   2.949   0.738
 1768SOL    HW2 5440   0.206   2.944   0.821
 1769SOL     OW 5441   3.540   1.833   1.632
 1769SOL    HW1 5442   3.538   1.761   1.569
 1769SOL    HW2 5443   3.633   1.847   1.650
 1770SOL     OW 5444   0.070   3.241   0.882
 1770SOL    HW1 5445   0.083   3.155   0.843
 1770SOL    HW2 5446   0.112   3.302   0.821
 1771SOL     OW 5447   0.484   2.380   0.117
 1771SOL    HW1 5448   0.403   2.386   0.168
 1771SOL    HW2 5449   0.541   2.446   0.156
 1772SOL     OW 5450   0.557   0.292   0.071
 1772SOL    HW1 5451   0.482   0.339   0.035
 1772SOL    HW2 5452   0.535   0.199   0.059
 1773SOL     OW 5453   0.163   1.494   0.903
 1773SOL    HW1 5454   0.170   1.529   0.992
 1773SOL    HW2 5455   0.222   1.549   0.852
 1774SOL     OW 5456   2.100   0.602   0.914
 1774SOL    HW1 5457   2.016   0.586   0.957
 1774SOL    HW2 5458   2.147   0.519   0.920
 1775SOL     OW 5459   2.806   0.096   1.097
 1775SOL    HW1 5460   2.882   0.104   1.039
 1775SOL    HW2 5461   2.764   0.014   1.070
 1776SOL     OW 5462   3.151   2.352   0.273
 1776SOL    HW1 5463   3.201   2.422   0.317
 1776SOL    HW2 5464   3.066   2.354   0.317
 1777SOL     OW 5465   0.185   2.443   3.125
 1777SOL    HW1 5466   0.199   2.508   3.056
 1777SOL    HW2 5467   0.187   2.359   3.080
 1778SOL     OW 5468   2.091   1.267   2.417
 1778SOL    HW1 5469   2.107   1.189   2.470
 1778SOL    HW2 5470   2.042   1.325   2.474
 1779SOL     OW 5471   0.498   1.998   0.762
 1779SOL    HW1 5472   0.570   1.944   0.731
 1779SOL    HW2 5473   0.429   1.985   0.697
 1780SOL     OW 5474   3.261   2.746   0.214
 1780SOL    HW1 5475   3.166   2.755   0.215
 1780SOL    HW2 5476   3.279   2.681   0.282
 1781SOL     OW 5477   2.883   2.512   0.446
 1781SOL    HW1 5478   2.853   2.572   0.377
 1781SOL    HW2 5479   2.809   2.453   0.460
 1782SOL     OW 5480   3.804   2.492   0.595
 1782SOL    HW1 5481   3.815   2.574   0.643
 1782SOL    HW2 5482   3.731   2.448   0.638
 1783SOL     OW 5483   1.714   1.342   0.384
 1783SOL    HW1 5484   1.620   1.341   0.403
 1783SOL    HW2 5485   1.720   1.304   0.296
 1784SOL     OW 5486   2.405   1.253   2.192
 1784SOL    HW1 5487   2.497   1.260   2.169
 1784SOL    HW2 5488   2.365   1.331   2.154
 1785SOL     OW 5489   2.582   1.699   0.274
 1785SOL    HW1 5490   2.624   1.617   0.300
 1785SOL    HW2 5491   2.654   1.759   0.254
 1786SOL     OW 5492   1.601   3.679   2.310
 1786SOL    HW1 5493   1.514   3.694   2.274
 1786SOL    HW2 5494   1.659   3.733   2.257
 1787SOL     OW 5495   3.667   3.482   2.958
 1787SOL    HW1 5496   3.659   3.537   2.881
 1787SOL    HW2 5497   3.577   3.474   2.992
 1788SOL     OW 5498   2.546   1.569   1.934
 1788SOL    HW1 5499   2.568   1.632   1.865
 1788SOL    HW2 5500   2.463   1.599   1.970
 1789SOL     OW 5501   2.759   3.065   3.573
 1789SOL    HW1 5502   2.730   3.103   3.490
 1789SOL    HW2 5503   2.681   3.065   3.628
 1790SOL     OW 5504   2.537   1.441   3.509
 1790SOL    HW1 5505   2.525   1.490   3.590
 1790SOL    HW2 5506   2.458   1.389   3.500
 1791SOL     OW 5507   2.489   2.920   1.366
 1791SOL    HW1 5508   2.525   2.883   1.446
 1791SOL    HW2 5509   2.397   2.938   1.387
 1792SOL     OW 5510   2.044   3.926   1.477
 1792SOL    HW1 5511   2.112   3.932   1.409
 1792SOL    HW2 5512   2.092   3.900   1.556
 1793SOL     OW 5513   2.334   0.996   2.192
 1793SOL    HW1 5514   2.343   1.091   2.200
 1793SOL    HW2 5515   2.415   0.962   2.229
 1794SOL     OW 5516   1.018   2.573   3.474
 1794SOL    HW1 5517   1.105   2.568   3.515
 1794SOL    HW2 5518   1.033   2.548   3.383
 1795SOL     OW 5519   2.874   1.329   2.493
 1795SOL    HW1 5520   2.796   1.288   2.454
 1795SOL    HW2 5521   2.943   1.263   2.484
 1796SOL     OW 5522   3.060   3.950   1.897
 1796SOL    HW1 5523   3.108   3.896   1.834
 1796SOL    HW2 5524   2.968   3.938   1.874
 1797SOL     OW 5525   3.058   3.574   3.477
 1797SOL    HW1 5526   3.062   3.486   3.441
 1797SOL    HW2 5527   3.051   3.631   3.401
 1798SOL     OW 5528   2.971   3.297   2.626
 1798SOL    HW1 5529   3.021   3.215   2.630
 1798SOL    HW2 5530   3.010   3.352   2.694
 1799SOL     OW 5531   3.311   3.435   1.985
 1799SOL    HW1 5532   3.263   3.372   1.931
 1799SOL    HW2 5533   3.370   3.479   1.923
 1800SOL     OW 5534   0.318   0.441   3.769
 1800SOL    HW1 5535   0.258   0.391   3.714
 1800SOL    HW2 5536   0.271   0.452   3.852
 1801SOL     OW 5537   3.325   3.959   2.306
 1801SOL    HW1 5538   3.373   3.878   2.288
 1801SOL    HW2 5539   3.375   4.000   2.377
 1802SOL     OW 5540   1.901   0.235   3.839
 1802SOL    HW1 5541   1.820   0.214   3.886
 1802SOL    HW2 5542   1.886   0.323   3.804
 1803SOL     OW 5543   0.129   2.797   2.223
 1803SOL    HW1 5544   0.035   2.779   2.223
 1803SOL    HW2 5545   0.138   2.882   2.179
 1804SOL     OW 5546   2.548   0.897   2.382
 1804SOL    HW1 5547   2.473   0.884   2.440
 1804SOL    HW2 5548   2.625   0.893   2.439
 1805SOL     OW 5549   3.930   1.237   2.454
 1805SOL    HW1 5550   3.975   1.217   2.372
 1805SOL    HW2 5551   3.850   1.185   2.451
 1806SOL     OW 5552   1.827   0.133   1.458
 1806SOL    HW1 5553   1.897   0.070   1.443
 1806SOL    HW2 5554   1.873   0.215   1.479
 1807SOL     OW 5555   3.072   0.662   2.367
 1807SOL    HW1 5556   3.152   0.693   2.410
 1807SOL    HW2 5557   3.025   0.613   2.434
 1808SOL     OW 5558   2.078   0.293   1.099
 1808SOL    HW1 5559   2.029   0.217   1.068
 1808SOL    HW2 5560   2.170   0.273   1.079
 1809SOL     OW 5561  -0.030   2.545   3.289
 1809SOL    HW1 5562   0.047   2.509   3.245
 1809SOL    HW2 5563   0.002   2.570   3.376
 1810SOL     OW 5564   3.078   0.759   1.752
 1810SOL    HW1 5565   3.033   0.771   1.835
 1810SOL    HW2 5566   3.163   0.720   1.776
 1811SOL     OW 5567   3.789   3.675   3.566
 1811SOL    HW1 5568   3.723   3.683   3.636
 1811SOL    HW2 5569   3.845   3.603   3.594
 1812SOL     OW 5570   0.778   1.167   0.803
 1812SOL    HW1 5571   0.716   1.223   0.756
 1812SOL    HW2 5572   0.738   1.080   0.799
 1813SOL     OW 5573   1.286   0.119   3.038
 1813SOL    HW1 5574   1.222   0.128   2.967
 1813SOL    HW2 5575   1.365   0.086   2.994
 1814SOL     OW 5576   0.794   0.352   1.390
 1814SOL    HW1 5577   0.731   0.346   1.462
 1814SOL    HW2 5578   0.859   0.416   1.420
 1815SOL     OW 5579   2.931   2.064   0.882
 1815SOL    HW1 5580   2.865   2.123   0.843
 1815SOL    HW2 5581   2.879   2.004   0.935
 1816SOL     OW 5582   2.696   3.537   2.843
 1816SOL    HW1 5583   2.718   3.576   2.927
 1816SOL    HW2 5584   2.692   3.611   2.782
 1817SOL     OW 5585   1.538   0.663   0.717
 1817SOL    HW1 5586   1.607   0.729   0.711
 1817SOL    HW2 5587   1.481   0.695   0.788
 1818SOL     OW 5588   3.695   2.814   1.760
 1818SOL    HW1 5589   3.606   2.800   1.727
 1818SOL    HW2 5590   3.739   2.731   1.746
 1819SOL     OW 5591   2.321   1.270   3.399
 1819SOL    HW1 5592   2.348   1.221   3.321
 1819SOL    HW2 5593   2.245   1.320   3.370
 1820SOL     OW 5594   2.738   0.086   0.074
 1820SOL    HW1 5595   2.818   0.089   0.022
 1820SOL    HW2 5596   2.692   0.007   0.043
 1821SOL     OW 5597   0.935   2.662   1.208
 1821SOL    HW1 5598   0.975   2.604   1.272
 1821SOL    HW2 5599   0.967   2.630   1.123
 1822SOL     OW 5600   2.754   1.663   2.109
 1822SOL    HW1 5601   2.838   1.623   2.088
 1822SOL    HW2 5602   2.701   1.649   2.031
 1823SOL     OW 5603   3.624   2.640   2.973
 1823SOL    HW1 5604   3.586   2.726   2.955
 1823SOL    HW2 5605   3.698   2.634   2.912
 1824SOL     OW 5606   3.302   2.293   3.327
 1824SOL    HW1 5607   3.231   2.242   3.367
 1824SOL    HW2 5608   3.352   2.327   3.401
 1825SOL     OW 5609   1.538   2.407   2.931
 1825SOL    HW1 5610   1.557   2.407   2.837
 1825SOL    HW2 5611   1.452   2.367   2.937
 1826SOL     OW 5612   1.796   1.878   0.534
 1826SOL    HW1 5613   1.889   1.861   0.515
 1826SOL    HW2 5614   1.792   1.877   0.630
 1827SOL     OW 5615   0.420   1.599   0.780
 1827SOL    HW1 5616   0.448   1.688   0.801
 1827SOL    HW2 5617   0.427   1.593   0.685
 1828SOL     OW 5618   0.324   1.131   0.005
 1828SOL    HW1 5619   0.414   1.146  -0.024
 1828SOL    HW2 5620   0.311   1.195   0.075
 1829SOL     OW 5621   3.951   0.894   1.691
 1829SOL    HW1 5622   3.973   0.801   1.694
 1829SOL    HW2 5623   3.867   0.897   1.645
 1830SOL     OW 5624   2.996   2.744   1.232
 1830SOL    HW1 5625   2.935   2.675   1.203
 1830SOL    HW2 5626   3.028   2.713   1.316
 1831SOL     OW 5627   1.613   3.638   3.001
 1831SOL    HW1 5628   1.574   3.724   2.984
 1831SOL    HW2 5629   1.689   3.634   2.944
 1832SOL     OW 5630   2.495   3.330   2.928
 1832SOL    HW1 5631   2.551   3.407   2.922
 1832SOL    HW2 5632   2.456   3.321   2.841
 1833SOL     OW 5633   3.412   2.404   2.284
 1833SOL    HW1 5634   3.449   2.316   2.298
 1833SOL    HW2 5635   3.334   2.389   2.230
 1834SOL     OW 5636   2.645   0.792   2.912
 1834SOL    HW1 5637   2.578   0.833   2.968
 1834SOL    HW2 5638   2.608   0.798   2.824
 1835SOL     OW 5639   3.211   1.891   1.107
 1835SOL    HW1 5640   3.267   1.842   1.167
 1835SOL    HW2 5641   3.122   1.877   1.139
 1836SOL     OW 5642   1.125   1.905   2.318
 1836SOL    HW1 5643   1.195   1.870   2.263
 1836SOL    HW2 5644   1.140   1.865   2.404
 1837SOL     OW 5645   0.741   3.463   3.821
 1837SOL    HW1 5646   0.824   3.510   3.833
 1837SOL    HW2 5647   0.756   3.378   3.862
 1838SOL     OW 5648   0.809   2.096   0.768
 1838SOL    HW1 5649   0.853   2.122   0.849
 1838SOL    HW2 5650   0.719   2.076   0.796
 1839SOL     OW 5651   2.244   0.514   2.086
 1839SOL    HW1 5652   2.290   0.598   2.073
 1839SOL    HW2 5653   2.175   0.534   2.150
 1840SOL     OW 5654   2.670   2.951   0.395
 1840SOL    HW1 5655   2.682   2.937   0.301
 1840SOL    HW2 5656   2.758   2.950   0.431
 1841SOL     OW 5657   0.101   0.618   0.841
 1841SOL    HW1 5658   0.147   0.538   0.868
 1841SOL    HW2 5659   0.033   0.588   0.780
 1842SOL     OW 5660   2.925   0.102   2.847
 1842SOL    HW1 5661   2.997   0.118   2.786
 1842SOL    HW2 5662   2.849   0.089   2.791
 1843SOL     OW 5663   1.131   1.516   3.297
 1843SOL    HW1 5664   1.069   1.529   3.369
 1843SOL    HW2 5665   1.126   1.597   3.246
 1844SOL     OW 5666   1.036   3.688   2.210
 1844SOL    HW1 5667   1.068   3.678   2.120
 1844SOL    HW2 5668   0.989   3.607   2.228
 1845SOL     OW 5669   3.628   2.124   0.620
 1845SOL    HW1 5670   3.696   2.182   0.585
 1845SOL    HW2 5671   3.610   2.062   0.549
 1846SOL     OW 5672   1.281   3.405   2.586
 1846SOL    HW1 5673   1.266   3.312   2.567
 1846SOL    HW2 5674   1.368   3.408   2.626
 1847SOL     OW 5675   1.750   1.164   1.053
 1847SOL    HW1 5676   1.705   1.187   0.972
 1847SOL    HW2 5677   1.725   1.233   1.115
 1848SOL     OW 5678   1.472   2.611   2.602
 1848SOL    HW1 5679   1.413   2.596   2.529
 1848SOL    HW2 5680   1.522   2.530   2.610
 1849SOL     OW 5681   0.151   1.054   2.791
 1849SOL    HW1 5682   0.117   1.072   2.878
 1849SOL    HW2 5683   0.149   0.958   2.783
 1850SOL     OW 5684   1.971   0.336   2.427
 1850SOL    HW1 5685   2.050   0.389   2.427
 1850SOL    HW2 5686   1.928   0.356   2.343
 1851SOL     OW 5687   0.020   1.767   1.324
 1851SOL    HW1 5688  -0.023   1.852   1.318
 1851SOL    HW2 5689   0.102   1.778   1.276
 1852SOL     OW 5690   2.288   1.100   1.826
 1852SOL    HW1 5691   2.245   1.099   1.911
 1852SOL    HW2 5692   2.229   1.050   1.769
 1853SOL     OW 5693   2.661   1.166   2.419
 1853SOL    HW1 5694   2.573   1.201   2.430
 1853SOL    HW2 5695   2.659   1.120   2.336
 1854SOL     OW 5696   2.814   2.285   3.014
 1854SOL    HW1 5697   2.839   2.242   2.933
 1854SOL    HW2 5698   2.751   2.352   2.987
 1855SOL     OW 5699   1.800   3.851   1.665
 1855SOL    HW1 5700   1.871   3.787   1.665
 1855SOL    HW2 5701   1.842   3.933   1.637
 1856SOL     OW 5702   0.660   0.648   3.801
 1856SOL    HW1 5703   0.631   0.642   3.892
 1856SOL    HW2 5704   0.580   0.651   3.750
 1857SOL     OW 5705   1.284   0.931   3.681
 1857SOL    HW1 5706   1.359   0.973   3.639
 1857SOL    HW2 5707   1.270   0.851   3.630
 1858SOL     OW 5708   2.132   3.755   0.048
 1858SOL    HW1 5709   2.049   3.771   0.092
 1858SOL    HW2 5710   2.121   3.793  -0.039
 1859SOL     OW 5711   3.087   3.227   2.154
 1859SOL    HW1 5712   3.118   3.312   2.122
 1859SOL    HW2 5713   3.167   3.180   2.177
 1860SOL     OW 5714   1.293   2.794   0.341
 1860SOL    HW1 5715   1.251   2.880   0.337
 1860SOL    HW2 5716   1.309   2.780   0.435
 1861SOL     OW 5717   2.077   2.104   3.104
 1861SOL    HW1 5718   2.109   2.159   3.175
 1861SOL    HW2 5719   2.021   2.039   3.147
 1862SOL     OW 5720   1.414   2.514   1.920
 1862SOL    HW1 5721   1.487   2.570   1.944
 1862SOL    HW2 5722   1.358   2.570   1.865
 1863SOL     OW 5723   2.732   2.742   2.657
 1863SOL    HW1 5724   2.717   2.712   2.567
 1863SOL    HW2 5725   2.757   2.834   2.648
 1864SOL     OW 5726   2.784   3.313   2.010
 1864SOL    HW1 5727   2.771   3.402   2.041
 1864SOL    HW2 5728   2.866   3.316   1.961
 1865SOL     OW 5729   1.913   0.973   0.922
 1865SOL    HW1 5730   1.950   0.936   1.002
 1865SOL    HW2 5731   1.863   1.049   0.953
 1866SOL     OW 5732   1.898   3.037   3.918
 1866SOL    HW1 5733   1.963   3.077   3.975
 1866SOL    HW2 5734   1.948   2.981   3.859
 1867SOL     OW 5735   0.014   3.007   3.676
 1867SOL    HW1 5736   0.013   3.004   3.580
 1867SOL    HW2 5737   0.067   3.084   3.697
 1868SOL     OW 5738   0.813   2.975   2.704
 1868SOL    HW1 5739   0.900   2.947   2.733
 1868SOL    HW2 5740   0.818   2.970   2.609
 1869SOL     OW 5741   3.517   0.342   3.778
 1869SOL    HW1 5742   3.495   0.382   3.694
 1869SOL    HW2 5743   3.538   0.251   3.756
 1870SOL     OW 5744   3.527   0.991   3.713
 1870SOL    HW1 5745   3.526   0.909   3.664
 1870SOL    HW2 5746   3.616   1.024   3.701
 1871SOL     OW 5747   2.436   1.190   0.414
 1871SOL    HW1 5748   2.364   1.231   0.367
 1871SOL    HW2 5749   2.420   1.096   0.406
 1872SOL     OW 5750   3.609   3.323   1.860
 1872SOL    HW1 5751   3.586   3.411   1.889
 1872SOL    HW2 5752   3.649   3.282   1.936
 1873SOL     OW 5753   1.694   0.040   0.550
 1873SOL    HW1 5754   1.738   0.097   0.613
 1873SOL    HW2 5755   1.758  -0.029   0.532
 1874SOL     OW 5756   1.420   0.476   3.384
 1874SOL    HW1 5757   1.486   0.538   3.353
 1874SOL    HW2 5758   1.352   0.532   3.423
 1875SOL     OW 5759   3.904   2.805   3.848
 1875SOL    HW1 5760   3.816   2.784   3.818
 1875SOL    HW2 5761   3.936   2.871   3.787
 1876SOL     OW 5762   3.707   2.080   3.482
 1876SOL    HW1 5763   3.740   2.157   3.435
 1876SOL    HW2 5764   3.621   2.065   3.443
 1877SOL     OW 5765   1.457   0.478   3.703
 1877SOL    HW1 5766   1.397   0.506   3.634
 1877SOL    HW2 5767   1.454   0.382   3.700
 1878SOL     OW 5768   3.415   1.168   2.724
 1878SOL    HW1 5769   3.420   1.240   2.661
 1878SOL    HW2 5770   3.337   1.187   2.776
 1879SOL     OW 5771   0.077   2.278   3.665
 1879SOL    HW1 5772   0.129   2.239   3.595
 1879SOL    HW2 5773   0.142   2.308   3.730
 1880SOL     OW 5774   1.262   1.577   1.895
 1880SOL    HW1 5775   1.258   1.490   1.936
 1880SOL    HW2 5776   1.310   1.562   1.814
 1881SOL     OW 5777   3.427   3.065   0.115
 1881SOL    HW1 5778   3.434   3.012   0.035
 1881SOL    HW2 5779   3.410   3.002   0.184
 1882SOL     OW 5780   2.818   0.520   0.672
 1882SOL    HW1 5781   2.910   0.496   0.675
 1882SOL    HW2 5782   2.817   0.615   0.683
 1883SOL     OW 5783   2.903   1.644   0.477
 1883SOL    HW1 5784   2.993   1.616   0.492
 1883SOL    HW2 5785   2.889   1.631   0.383
 1884SOL     OW 5786   3.000   2.974   2.354
 1884SOL    HW1 5787   2.975   2.912   2.286
 1884SOL    HW2 5788   2.923   2.981   2.410
 1885SOL     OW 5789   1.798   1.269   2.651
 1885SOL    HW1 5790   1.753   1.344   2.612
 1885SOL    HW2 5791   1.733   1.231   2.710
 1886SOL     OW 5792   1.546  -0.010   1.023
 1886SOL    HW1 5793   1.464   0.038   1.012
 1886SOL    HW2 5794   1.559  -0.014   1.117
 1887SOL     OW 5795   0.798   2.589   2.129
 1887SOL    HW1 5796   0.780   2.620   2.218
 1887SOL    HW2 5797   0.746   2.509   2.121
 1888SOL     OW 5798   3.174   2.108   3.551
 1888SOL    HW1 5799   3.160   2.066   3.636
 1888SOL    HW2 5800   3.126   2.190   3.557
 1889SOL     OW 5801   1.583   2.612   2.337
 1889SOL    HW1 5802   1.648   2.675   2.368
 1889SOL    HW2 5803   1.548   2.651   2.257
 1890SOL     OW 5804   3.465   0.805   1.054
 1890SOL    HW1 5805   3.508   0.873   1.001
 1890SOL    HW2 5806   3.372   0.823   1.045
 1891SOL     OW 5807   2.766   1.959   1.859
 1891SOL    HW1 5808   2.735   1.970   1.950
 1891SOL    HW2 5809   2.855   1.924   1.868
 1892SOL     OW 5810   0.499   2.829   2.438
 1892SOL    HW1 5811   0.593   2.811   2.425
 1892SOL    HW2 5812   0.455   2.756   2.396
 1893SOL     OW 5813   3.920   0.269   3.450
 1893SOL    HW1 5814   3.924   0.177   3.475
 1893SOL    HW2 5815   3.912   0.316   3.533
 1894SOL     OW 5816   2.058   3.434   2.028
 1894SOL    HW1 5817   2.151   3.416   2.015
 1894SOL    HW2 5818   2.027   3.460   1.941
 1895SOL     OW 5819   0.209   0.995   0.646
 1895SOL    HW1 5820   0.114   0.992   0.644
 1895SOL    HW2 5821   0.233   0.952   0.728
 1896SOL     OW 5822   3.836   1.307   1.703
 1896SOL    HW1 5823   3.843   1.317   1.798
 1896SOL    HW2 5824   3.819   1.214   1.689
 1897SOL     OW 5825   3.505   0.479   2.880
 1897SOL    HW1 5826   3.532   0.534   2.954
 1897SOL    HW2 5827   3.419   0.445   2.904
 1898SOL     OW 5828   0.133   3.218   2.587
 1898SOL    HW1 5829   0.221   3.181   2.579
 1898SOL    HW2 5830   0.140   3.282   2.657
 1899SOL     OW 5831   1.319   3.038   3.160
 1899SOL    HW1 5832   1.374   3.065   3.087
 1899SOL    HW2 5833   1.232   3.030   3.122
 1900SOL     OW 5834   0.875   1.537   2.995
 1900SOL    HW1 5835   0.785   1.568   2.998
 1900SOL    HW2 5836   0.875   1.459   3.050
 1901SOL     OW 5837   0.250   2.237   3.398
 1901SOL    HW1 5838   0.333   2.265   3.435
 1901SOL    HW2 5839   0.209   2.318   3.367
 1902SOL     OW 5840   3.918   1.559   2.273
 1902SOL    HW1 5841   3.991   1.517   2.226
 1902SOL    HW2 5842   3.840   1.512   2.243
 1903SOL     OW 5843   0.674   1.060   0.252
 1903SOL    HW1 5844   0.611   1.055   0.181
 1903SOL    HW2 5845   0.694   0.969   0.274
 1904SOL     OW 5846   2.331   2.433   0.500
 1904SOL    HW1 5847   2.391   2.375   0.547
 1904SOL    HW2 5848   2.244   2.409   0.532
 1905SOL     OW 5849   2.540   0.260   0.599
 1905SOL    HW1 5850   2.555   0.302   0.515
 1905SOL    HW2 5851   2.492   0.180   0.578
 1906SOL     OW 5852   3.704   1.055   2.561
 1906SOL    HW1 5853   3.621   1.008   2.559
 1906SOL    HW2 5854   3.691   1.123   2.628
 1907SOL     OW 5855   0.153   1.681   2.703
 1907SOL    HW1 5856   0.225   1.632   2.664
 1907SOL    HW2 5857   0.077   1.658   2.650
 1908SOL     OW 5858   0.061   1.605   3.282
 1908SOL    HW1 5859  -0.002   1.667   3.244
 1908SOL    HW2 5860   0.039   1.521   3.242
 1909SOL     OW 5861   0.624   2.375   2.114
 1909SOL    HW1 5862   0.564   2.343   2.181
 1909SOL    HW2 5863   0.611   2.316   2.040
 1910SOL     OW 5864   0.973   0.448   2.514
 1910SOL    HW1 5865   0.903   0.458   2.579
 1910SOL    HW2 5866   0.949   0.508   2.443
 1911SOL     OW 5867   2.107   1.592   1.730
 1911SOL    HW1 5868   2.085   1.675   1.774
 1911SOL    HW2 5869   2.078   1.605   1.640
 1912SOL     OW 5870   2.246   1.851   1.104
 1912SOL    HW1 5871   2.292   1.813   1.029
 1912SOL    HW2 5872   2.179   1.786   1.126
 1913SOL     OW 5873   1.427   1.610   1.207
 1913SOL    HW1 5874   1.401   1.525   1.242
 1913SOL    HW2 5875   1.373   1.673   1.255
 1914SOL     OW 5876   0.611   1.640   2.270
 1914SOL    HW1 5877   0.651   1.659   2.355
 1914SOL    HW2 5878   0.670   1.679   2.206
 1915SOL     OW 5879   0.843   2.690   0.816
 1915SOL    HW1 5880   0.784   2.643   0.757
 1915SOL    HW2 5881   0.910   2.727   0.758
 1916SOL     OW 5882   0.821   2.066   0.400
 1916SOL    HW1 5883   0.782   2.124   0.466
 1916SOL    HW2 5884   0.781   2.094   0.318
 1917SOL     OW 5885   2.872   1.346   0.888
 1917SOL    HW1 5886   2.917   1.262   0.892
 1917SOL    HW2 5887   2.820   1.341   0.808
 1918NA      NA 5888   0.020   0.228   2.398
 1919NA      NA 5889   1.339   1.042   2.341
   3.96100   3.96100   3.96100   0.00000   0.00000   0.00000   0.00000   0.00000   0.00000
