Generated with MDTraj, t= 34636.0
 5889
    1TYR      N    1   1.947   1.384   0.784
    1TYR     H1    2   1.871   1.432   0.836
    1TYR     H2    3   2.012   1.457   0.747
    1TYR     H3    4   1.903   1.343   0.699
    1TYR     CA    5   2.036   1.287   0.854
    1TYR     HA    6   1.959   1.221   0.890
    1TYR     CB    7   2.133   1.239   0.743
    1TYR    HB1    8   2.074   1.229   0.650
    1TYR    HB2    9   2.215   1.313   0.727
    1TYR     CG   10   2.191   1.108   0.780
    1TYR    CD1   11   2.297   1.102   0.867
    1TYR    HD1   12   2.326   1.195   0.912
    1TYR    CE1   13   2.364   0.984   0.892
    1TYR    HE1   14   2.450   0.983   0.957
    1TYR     CZ   15   2.298   0.862   0.848
    1TYR     OH   16   2.357   0.734   0.869
    1TYR     HH   17   2.436   0.751   0.919
    1TYR    CD2   18   2.134   0.992   0.726
    1TYR    HD2   19   2.044   1.003   0.667
    1TYR    CE2   20   2.186   0.867   0.767
    1TYR    HE2   21   2.140   0.776   0.733
    1TYR      C   22   2.113   1.337   0.977
    1TYR      O   23   2.102   1.274   1.079
    2TYR      N   24   2.191   1.450   0.974
    2TYR     HN   25   2.209   1.503   0.891
    2TYR     CA   26   2.255   1.505   1.095
    2TYR     HA   27   2.261   1.434   1.177
    2TYR     CB   28   2.398   1.557   1.043
    2TYR    HB1   29   2.389   1.612   0.947
    2TYR    HB2   30   2.453   1.617   1.119
    2TYR     CG   31   2.486   1.438   1.002
    2TYR    CD1   32   2.538   1.361   1.111
    2TYR    HD1   33   2.517   1.379   1.215
    2TYR    CE1   34   2.626   1.255   1.078
    2TYR    HE1   35   2.687   1.207   1.152
    2TYR     CZ   36   2.659   1.221   0.941
    2TYR     OH   37   2.747   1.123   0.904
    2TYR     HH   38   2.707   1.092   0.822
    2TYR    CD2   39   2.504   1.391   0.873
    2TYR    HD2   40   2.458   1.449   0.794
    2TYR    CE2   41   2.598   1.299   0.835
    2TYR    HE2   42   2.609   1.277   0.730
    2TYR      C   43   2.195   1.633   1.137
    2TYR      O   44   2.100   1.688   1.079
    3ASP      N   45   2.251   1.691   1.245
    3ASP     HN   46   2.318   1.647   1.304
    3ASP     CA   47   2.197   1.811   1.300
    3ASP     HA   48   2.190   1.878   1.215
    3ASP     CB   49   2.064   1.790   1.370
    3ASP    HB1   50   1.997   1.721   1.314
    3ASP    HB2   51   2.079   1.749   1.472
    3ASP     CG   52   1.980   1.922   1.373
    3ASP    OD1   53   2.034   2.033   1.405
    3ASP    OD2   54   1.854   1.909   1.362
    3ASP      C   55   2.286   1.868   1.404
    3ASP      O   56   2.295   1.809   1.512
    4PRO      N   57   2.356   1.983   1.391
    4PRO     CD   58   2.338   2.073   1.283
    4PRO    HD1   59   2.238   2.122   1.278
    4PRO    HD2   60   2.369   2.019   1.191
    4PRO     CA   61   2.442   2.040   1.495
    4PRO     HA   62   2.496   1.957   1.536
    4PRO     CB   63   2.523   2.147   1.429
    4PRO    HB1   64   2.566   2.213   1.507
    4PRO    HB2   65   2.603   2.093   1.374
    4PRO     CG   66   2.425   2.203   1.320
    4PRO    HG1   67   2.356   2.275   1.367
    4PRO    HG2   68   2.466   2.243   1.225
    4PRO      C   69   2.352   2.086   1.613
    4PRO      O   70   2.406   2.103   1.721
    5GLU      N   71   2.221   2.111   1.591
    5GLU     HN   72   2.172   2.075   1.512
    5GLU     CA   73   2.145   2.194   1.684
    5GLU     HA   74   2.206   2.236   1.762
    5GLU     CB   75   2.072   2.306   1.600
    5GLU    HB1   76   2.132   2.351   1.517
    5GLU    HB2   77   1.980   2.268   1.550
    5GLU     CG   78   2.030   2.426   1.684
    5GLU    HG1   79   1.945   2.393   1.748
    5GLU    HG2   80   2.117   2.445   1.750
    5GLU     CD   81   1.977   2.554   1.618
    5GLU    OE1   82   2.047   2.658   1.635
    5GLU    OE2   83   1.877   2.549   1.539
    5GLU      C   84   2.035   2.107   1.757
    5GLU      O   85   2.017   2.119   1.876
    6THR      N   86   1.980   2.006   1.690
    6THR     HN   87   1.988   1.995   1.591
    6THR     CA   88   1.921   1.893   1.760
    6THR     HA   89   1.860   1.927   1.843
    6THR     CB   90   1.828   1.804   1.683
    6THR     HB   91   1.886   1.738   1.615
    6THR    OG1   92   1.733   1.872   1.605
    6THR    HG1   93   1.770   1.876   1.517
    6THR    CG2   94   1.748   1.733   1.787
    6THR   HG21   95   1.809   1.656   1.839
    6THR   HG22   96   1.715   1.794   1.873
    6THR   HG23   97   1.657   1.698   1.734
    6THR      C   98   2.031   1.812   1.838
    6THR      O   99   2.008   1.742   1.934
    7GLY      N  100   2.161   1.821   1.797
    7GLY     HN  101   2.190   1.873   1.717
    7GLY     CA  102   2.259   1.732   1.853
    7GLY    HA1  103   2.357   1.772   1.833
    7GLY    HA2  104   2.249   1.717   1.960
    7GLY      C  105   2.254   1.593   1.786
    7GLY      O  106   2.295   1.500   1.853
    8THR      N  107   2.215   1.579   1.654
    8THR     HN  108   2.205   1.658   1.595
    8THR     CA  109   2.201   1.451   1.584
    8THR     HA  110   2.191   1.378   1.662
    8THR     CB  111   2.083   1.452   1.483
    8THR     HB  112   2.108   1.513   1.394
    8THR    OG1  113   1.961   1.492   1.546
    8THR    HG1  114   1.893   1.500   1.479
    8THR    CG2  115   2.058   1.307   1.439
    8THR   HG21  116   2.051   1.233   1.522
    8THR   HG22  117   1.962   1.296   1.384
    8THR   HG23  118   2.144   1.278   1.375
    8THR      C  119   2.337   1.412   1.513
    8THR      O  120   2.375   1.467   1.413
    9TRP      N  121   2.409   1.310   1.571
    9TRP     HN  122   2.382   1.273   1.660
    9TRP     CA  123   2.539   1.261   1.514
    9TRP     HA  124   2.549   1.284   1.409
    9TRP     CB  125   2.653   1.318   1.593
    9TRP    HB1  126   2.640   1.311   1.703
    9TRP    HB2  127   2.742   1.255   1.574
    9TRP     CG  128   2.680   1.463   1.558
    9TRP    CD1  129   2.640   1.574   1.619
    9TRP    HD1  130   2.586   1.574   1.712
    9TRP    NE1  131   2.683   1.691   1.543
    9TRP    HE1  132   2.681   1.783   1.577
    9TRP    CE2  133   2.746   1.639   1.430
    9TRP    CD2  134   2.750   1.502   1.442
    9TRP    CE3  135   2.807   1.427   1.343
    9TRP    HE3  136   2.814   1.320   1.348
    9TRP    CZ3  137   2.861   1.487   1.235
    9TRP    HZ3  138   2.900   1.420   1.159
    9TRP    CZ2  139   2.801   1.710   1.322
    9TRP    HZ2  140   2.792   1.812   1.286
    9TRP    CH2  141   2.861   1.623   1.220
    9TRP    HH2  142   2.875   1.670   1.124
    9TRP      C  143   2.532   1.106   1.531
    9TRP      O  144   2.489   1.043   1.635
   10TYR      N  145   2.564   1.036   1.416
   10TYR     HN  146   2.591   1.083   1.333
   10TYR     CA  147   2.573   0.887   1.416
   10TYR     HA  148   2.594   0.846   1.514
   10TYR     CB  149   2.455   0.821   1.341
   10TYR    HB1  150   2.437   0.881   1.250
   10TYR    HB2  151   2.473   0.715   1.313
   10TYR     CG  152   2.321   0.818   1.421
   10TYR    CD1  153   2.207   0.888   1.366
   10TYR    HD1  154   2.215   0.942   1.273
   10TYR    CE1  155   2.084   0.876   1.432
   10TYR    HE1  156   2.003   0.920   1.377
   10TYR     CZ  157   2.072   0.826   1.570
   10TYR     OH  158   1.957   0.836   1.649
   10TYR     HH  159   1.967   0.787   1.731
   10TYR    CD2  160   2.310   0.760   1.543
   10TYR    HD2  161   2.393   0.706   1.587
   10TYR    CE2  162   2.188   0.771   1.620
   10TYR    HE2  163   2.204   0.730   1.719
   10TYR      C  164   2.696   0.858   1.333
   10TYR    OT1  165   2.704   0.873   1.210
   10TYR    OT2  166   2.792   0.810   1.397
   11SOL     OW  167   1.060   3.180   1.804
   11SOL    HW1  168   0.966   3.200   1.801
   11SOL    HW2  169   1.090   3.219   1.886
   12SOL     OW  170   2.808   1.877   0.844
   12SOL    HW1  171   2.769   1.952   0.888
   12SOL    HW2  172   2.893   1.910   0.813
   13SOL     OW  173   2.395   3.575   1.378
   13SOL    HW1  174   2.363   3.511   1.441
   13SOL    HW2  175   2.455   3.525   1.322
   14SOL     OW  176   1.176   1.503   0.640
   14SOL    HW1  177   1.111   1.466   0.699
   14SOL    HW2  178   1.126   1.527   0.562
   15SOL     OW  179   3.417   1.316   0.015
   15SOL    HW1  180   3.397   1.391  -0.042
   15SOL    HW2  181   3.499   1.341   0.059
   16SOL     OW  182   2.563   3.332   2.772
   16SOL    HW1  183   2.590   3.242   2.752
   16SOL    HW2  184   2.618   3.357   2.846
   17SOL     OW  185   3.867   3.432   1.628
   17SOL    HW1  186   3.871   3.505   1.567
   17SOL    HW2  187   3.882   3.354   1.575
   18SOL     OW  188   2.052   3.497   0.995
   18SOL    HW1  189   1.994   3.549   0.939
   18SOL    HW2  190   2.136   3.499   0.950
   19SOL     OW  191   0.382   0.691   3.427
   19SOL    HW1  192   0.298   0.702   3.473
   19SOL    HW2  193   0.446   0.735   3.484
   20SOL     OW  194   0.985   2.997   2.056
   20SOL    HW1  195   1.008   2.978   1.965
   20SOL    HW2  196   1.058   2.961   2.107
   21SOL     OW  197   3.437   0.324   3.304
   21SOL    HW1  198   3.456   0.413   3.274
   21SOL    HW2  199   3.342   0.316   3.293
   22SOL     OW  200   1.404   2.921   3.019
   22SOL    HW1  201   1.417   2.876   3.103
   22SOL    HW2  202   1.431   2.857   2.953
   23SOL     OW  203   2.931   0.279   2.099
   23SOL    HW1  204   2.905   0.299   2.189
   23SOL    HW2  205   2.945   0.184   2.099
   24SOL     OW  206   2.565   3.891   2.966
   24SOL    HW1  207   2.490   3.919   3.019
   24SOL    HW2  208   2.525   3.860   2.885
   25SOL     OW  209   3.099   0.573   0.257
   25SOL    HW1  210   3.003   0.565   0.260
   25SOL    HW2  211   3.127   0.561   0.348
   26SOL     OW  212   2.991   3.513   2.669
   26SOL    HW1  213   3.036   3.562   2.738
   26SOL    HW2  214   3.005   3.564   2.589
   27SOL     OW  215   2.377   1.123   2.630
   27SOL    HW1  216   2.387   1.094   2.539
   27SOL    HW2  217   2.325   1.203   2.624
   28SOL     OW  218   1.563   3.717   2.052
   28SOL    HW1  219   1.497   3.760   1.997
   28SOL    HW2  220   1.646   3.753   2.022
   29SOL     OW  221   0.626   1.892   0.170
   29SOL    HW1  222   0.679   1.893   0.250
   29SOL    HW2  223   0.629   1.801   0.141
   30SOL     OW  224   2.516   0.583   3.608
   30SOL    HW1  225   2.545   0.667   3.643
   30SOL    HW2  226   2.446   0.605   3.547
   31SOL     OW  227   1.741   3.943   2.058
   31SOL    HW1  228   1.821   3.892   2.060
   31SOL    HW2  229   1.734   3.980   2.146
   32SOL     OW  230   0.343   2.380   3.595
   32SOL    HW1  231   0.339   2.420   3.509
   32SOL    HW2  232   0.397   2.440   3.647
   33SOL     OW  233   3.161   3.256   0.095
   33SOL    HW1  234   3.249   3.220   0.082
   33SOL    HW2  235   3.111   3.224   0.020
   34SOL     OW  236   0.758   0.401   3.346
   34SOL    HW1  237   0.666   0.390   3.370
   34SOL    HW2  238   0.806   0.353   3.413
   35SOL     OW  239   1.359   0.040   0.478
   35SOL    HW1  240   1.412  -0.038   0.494
   35SOL    HW2  241   1.315   0.057   0.561
   36SOL     OW  242   0.544   1.212   3.811
   36SOL    HW1  243   0.512   1.191   3.899
   36SOL    HW2  244   0.593   1.134   3.784
   37SOL     OW  245   0.117   0.902   0.390
   37SOL    HW1  246   0.119   0.909   0.486
   37SOL    HW2  247   0.023   0.901   0.369
   38SOL     OW  248   3.612   0.846   3.638
   38SOL    HW1  249   3.674   0.820   3.706
   38SOL    HW2  250   3.660   0.911   3.586
   39SOL     OW  251   2.770   1.179   1.981
   39SOL    HW1  252   2.790   1.125   1.904
   39SOL    HW2  253   2.691   1.227   1.955
   40SOL     OW  254   0.913   1.789   0.617
   40SOL    HW1  255   1.008   1.791   0.607
   40SOL    HW2  256   0.894   1.863   0.675
   41SOL     OW  257   1.873   1.528   1.109
   41SOL    HW1  258   1.853   1.517   1.202
   41SOL    HW2  259   1.930   1.605   1.105
   42SOL     OW  260   2.623   1.611   0.608
   42SOL    HW1  261   2.657   1.690   0.567
   42SOL    HW2  262   2.701   1.564   0.638
   43SOL     OW  263   3.801   0.867   0.375
   43SOL    HW1  264   3.762   0.905   0.454
   43SOL    HW2  265   3.727   0.859   0.314
   44SOL     OW  266   3.451   1.191   3.425
   44SOL    HW1  267   3.448   1.096   3.416
   44SOL    HW2  268   3.378   1.212   3.483
   45SOL     OW  269   0.188   1.328   2.505
   45SOL    HW1  270   0.098   1.307   2.482
   45SOL    HW2  271   0.209   1.404   2.450
   46SOL     OW  272   0.885   3.087   1.544
   46SOL    HW1  273   0.835   3.122   1.617
   46SOL    HW2  274   0.950   3.154   1.524
   47SOL     OW  275   3.101   3.909   3.128
   47SOL    HW1  276   3.172   3.854   3.097
   47SOL    HW2  277   3.037   3.848   3.166
   48SOL     OW  278   0.650   2.859   2.280
   48SOL    HW1  279   0.648   2.784   2.340
   48SOL    HW2  280   0.739   2.892   2.285
   49SOL     OW  281   0.642   1.041   1.867
   49SOL    HW1  282   0.548   1.061   1.863
   49SOL    HW2  283   0.661   1.032   1.960
   50SOL     OW  284   3.397   2.971   0.770
   50SOL    HW1  285   3.430   2.934   0.852
   50SOL    HW2  286   3.325   2.913   0.746
   51SOL     OW  287   1.324   0.733   1.053
   51SOL    HW1  288   1.280   0.817   1.039
   51SOL    HW2  289   1.405   0.739   1.002
   52SOL     OW  290   1.842   1.412   0.353
   52SOL    HW1  291   1.863   1.386   0.442
   52SOL    HW2  292   1.776   1.348   0.324
   53SOL     OW  293   2.047   0.762   1.888
   53SOL    HW1  294   2.064   0.833   1.949
   53SOL    HW2  295   2.120   0.701   1.899
   54SOL     OW  296   2.630   3.709   2.098
   54SOL    HW1  297   2.595   3.622   2.081
   54SOL    HW2  298   2.723   3.695   2.112
   55SOL     OW  299   0.228   2.925   2.554
   55SOL    HW1  300   0.299   2.988   2.558
   55SOL    HW2  301   0.270   2.842   2.530
   56SOL     OW  302   1.067   3.422   0.011
   56SOL    HW1  303   1.066   3.516   0.033
   56SOL    HW2  304   1.158   3.395   0.023
   57SOL     OW  305   1.548   3.036   0.857
   57SOL    HW1  306   1.474   3.063   0.911
   57SOL    HW2  307   1.511   2.977   0.792
   58SOL     OW  308   0.258   3.751   2.009
   58SOL    HW1  309   0.183   3.805   1.984
   58SOL    HW2  310   0.235   3.717   2.096
   59SOL     OW  311   1.078   3.756   1.350
   59SOL    HW1  312   1.160   3.792   1.386
   59SOL    HW2  313   1.075   3.789   1.260
   60SOL     OW  314   1.163   0.489   3.427
   60SOL    HW1  315   1.069   0.497   3.409
   60SOL    HW2  316   1.167   0.440   3.509
   61SOL     OW  317   0.830   0.264   0.417
   61SOL    HW1  318   0.914   0.221   0.402
   61SOL    HW2  319   0.818   0.321   0.341
   62SOL     OW  320   2.913   1.040   1.148
   62SOL    HW1  321   2.852   0.979   1.189
   62SOL    HW2  322   2.864   1.078   1.075
   63SOL     OW  323   3.103   1.596   0.792
   63SOL    HW1  324   3.179   1.549   0.826
   63SOL    HW2  325   3.133   1.636   0.711
   64SOL     OW  326   2.703   1.189   0.286
   64SOL    HW1  327   2.783   1.233   0.315
   64SOL    HW2  328   2.693   1.217   0.195
   65SOL     OW  329   2.198   2.976   2.155
   65SOL    HW1  330   2.251   2.953   2.231
   65SOL    HW2  331   2.224   3.065   2.133
   66SOL     OW  332   1.285   1.926   2.723
   66SOL    HW1  333   1.340   2.003   2.712
   66SOL    HW2  334   1.341   1.863   2.769
   67SOL     OW  335   1.733   2.270   2.265
   67SOL    HW1  336   1.822   2.256   2.295
   67SOL    HW2  337   1.738   2.255   2.170
   68SOL     OW  338   0.330   3.621   3.942
   68SOL    HW1  339   0.379   3.672   3.878
   68SOL    HW2  340   0.314   3.682   4.014
   69SOL     OW  341   0.473   1.291   1.243
   69SOL    HW1  342   0.533   1.303   1.317
   69SOL    HW2  343   0.403   1.354   1.258
   70SOL     OW  344   2.669   3.658   1.777
   70SOL    HW1  345   2.651   3.586   1.716
   70SOL    HW2  346   2.733   3.621   1.838
   71SOL     OW  347   2.460   0.460   3.234
   71SOL    HW1  348   2.376   0.441   3.276
   71SOL    HW2  349   2.484   0.546   3.268
   72SOL     OW  350   3.212   3.425   3.743
   72SOL    HW1  351   3.149   3.496   3.739
   72SOL    HW2  352   3.243   3.415   3.653
   73SOL     OW  353   1.753   3.451   0.322
   73SOL    HW1  354   1.731   3.460   0.230
   73SOL    HW2  355   1.722   3.364   0.346
   74SOL     OW  356   2.903   2.287   2.799
   74SOL    HW1  357   2.913   2.210   2.742
   74SOL    HW2  358   2.891   2.360   2.738
   75SOL     OW  359   2.226   0.739   3.557
   75SOL    HW1  360   2.200   0.657   3.599
   75SOL    HW2  361   2.153   0.761   3.500
   76SOL     OW  362   2.774   1.340   3.038
   76SOL    HW1  363   2.818   1.328   2.953
   76SOL    HW2  364   2.690   1.296   3.027
   77SOL     OW  365   0.026   3.146   0.530
   77SOL    HW1  366   0.113   3.111   0.510
   77SOL    HW2  367  -0.004   3.094   0.604
   78SOL     OW  368   3.558   2.862   0.959
   78SOL    HW1  369   3.564   2.835   1.051
   78SOL    HW2  370   3.648   2.861   0.927
   79SOL     OW  371   2.411   2.160   0.803
   79SOL    HW1  372   2.350   2.177   0.875
   79SOL    HW2  373   2.375   2.210   0.729
   80SOL     OW  374   3.418   1.747   2.881
   80SOL    HW1  375   3.449   1.664   2.918
   80SOL    HW2  376   3.496   1.802   2.879
   81SOL     OW  377   1.951   3.394   2.947
   81SOL    HW1  378   1.971   3.403   2.854
   81SOL    HW2  379   1.951   3.300   2.963
   82SOL     OW  380   2.084   3.924   2.494
   82SOL    HW1  381   2.097   3.950   2.586
   82SOL    HW2  382   2.072   4.007   2.448
   83SOL     OW  383   2.629   2.146   2.228
   83SOL    HW1  384   2.566   2.076   2.248
   83SOL    HW2  385   2.606   2.174   2.140
   84SOL     OW  386   2.117   2.638   3.008
   84SOL    HW1  387   2.104   2.603   3.096
   84SOL    HW2  388   2.207   2.613   2.985
   85SOL     OW  389   1.101   1.228   0.509
   85SOL    HW1  390   1.088   1.295   0.577
   85SOL    HW2  391   1.039   1.252   0.440
   86SOL     OW  392   1.297   2.660   1.295
   86SOL    HW1  393   1.373   2.642   1.350
   86SOL    HW2  394   1.235   2.703   1.355
   87SOL     OW  395   1.889   2.613   2.152
   87SOL    HW1  396   1.895   2.518   2.167
   87SOL    HW2  397   1.798   2.635   2.173
   88SOL     OW  398   2.241   1.218   0.056
   88SOL    HW1  399   2.325   1.177   0.074
   88SOL    HW2  400   2.178   1.165   0.105
   89SOL     OW  401   3.688   0.386   3.115
   89SOL    HW1  402   3.638   0.305   3.106
   89SOL    HW2  403   3.719   0.404   3.026
   90SOL     OW  404   0.155   0.131   1.999
   90SOL    HW1  405   0.115   0.211   1.964
   90SOL    HW2  406   0.098   0.061   1.970
   91SOL     OW  407   3.794   0.572   1.662
   91SOL    HW1  408   3.723   0.511   1.678
   91SOL    HW2  409   3.753   0.646   1.617
   92SOL     OW  410   2.973   0.181   1.187
   92SOL    HW1  411   2.889   0.141   1.207
   92SOL    HW2  412   2.953   0.274   1.173
   93SOL     OW  413   2.263   3.007   1.457
   93SOL    HW1  414   2.201   2.968   1.396
   93SOL    HW2  415   2.276   2.940   1.524
   94SOL     OW  416   2.499   1.021   1.959
   94SOL    HW1  417   2.510   1.030   1.865
   94SOL    HW2  418   2.491   1.110   1.992
   95SOL     OW  419   1.439   2.522   0.691
   95SOL    HW1  420   1.396   2.438   0.710
   95SOL    HW2  421   1.529   2.510   0.722
   96SOL     OW  422   0.431   0.122   0.718
   96SOL    HW1  423   0.495   0.051   0.725
   96SOL    HW2  424   0.407   0.124   0.625
   97SOL     OW  425   2.220   1.154   1.753
   97SOL    HW1  426   2.244   1.205   1.830
   97SOL    HW2  427   2.298   1.103   1.732
   98SOL     OW  428   1.155   2.095   3.062
   98SOL    HW1  429   1.132   2.139   3.144
   98SOL    HW2  430   1.081   2.037   3.044
   99SOL     OW  431   2.624   3.482   0.636
   99SOL    HW1  432   2.628   3.577   0.631
   99SOL    HW2  433   2.713   3.455   0.660
  100SOL     OW  434   0.112   1.251   0.477
  100SOL    HW1  435   0.038   1.249   0.416
  100SOL    HW2  436   0.181   1.299   0.430
  101SOL     OW  437   0.677   0.629   2.458
  101SOL    HW1  438   0.746   0.671   2.406
  101SOL    HW2  439   0.633   0.570   2.396
  102SOL     OW  440   0.788   3.918   3.528
  102SOL    HW1  441   0.815   3.892   3.616
  102SOL    HW2  442   0.707   3.868   3.512
  103SOL     OW  443   1.068   0.029   2.674
  103SOL    HW1  444   0.992  -0.013   2.715
  103SOL    HW2  445   1.064   0.120   2.704
  104SOL     OW  446   1.347   3.818   0.121
  104SOL    HW1  447   1.306   3.898   0.152
  104SOL    HW2  448   1.435   3.845   0.094
  105SOL     OW  449   1.499   0.931   2.855
  105SOL    HW1  450   1.539   0.854   2.814
  105SOL    HW2  451   1.427   0.895   2.907
  106SOL     OW  452   0.724   2.258   1.857
  106SOL    HW1  453   0.658   2.297   1.800
  106SOL    HW2  454   0.738   2.322   1.926
  107SOL     OW  455   3.805   0.778   3.828
  107SOL    HW1  456   3.898   0.753   3.829
  107SOL    HW2  457   3.774   0.757   3.916
  108SOL     OW  458   2.732   3.220   1.688
  108SOL    HW1  459   2.740   3.177   1.602
  108SOL    HW2  460   2.705   3.149   1.747
  109SOL     OW  461   2.264   3.220   0.723
  109SOL    HW1  462   2.329   3.162   0.762
  109SOL    HW2  463   2.310   3.302   0.710
  110SOL     OW  464   3.425   0.117   3.834
  110SOL    HW1  465   3.412   0.166   3.915
  110SOL    HW2  466   3.484   0.172   3.782
  111SOL     OW  467   0.330   0.628   3.122
  111SOL    HW1  468   0.303   0.637   3.213
  111SOL    HW2  469   0.351   0.535   3.112
  112SOL     OW  470   1.160   3.229   1.194
  112SOL    HW1  471   1.244   3.272   1.211
  112SOL    HW2  472   1.177   3.136   1.209
  113SOL     OW  473   3.112   3.605   1.703
  113SOL    HW1  474   3.054   3.546   1.654
  113SOL    HW2  475   3.101   3.580   1.794
  114SOL     OW  476   3.552   3.575   3.461
  114SOL    HW1  477   3.464   3.558   3.428
  114SOL    HW2  478   3.584   3.648   3.408
  115SOL     OW  479   3.351   2.615   3.664
  115SOL    HW1  480   3.327   2.599   3.573
  115SOL    HW2  481   3.338   2.709   3.677
  116SOL     OW  482   3.393   2.216   1.960
  116SOL    HW1  483   3.465   2.279   1.964
  116SOL    HW2  484   3.361   2.222   1.870
  117SOL     OW  485   1.522  -0.024   1.304
  117SOL    HW1  486   1.529   0.020   1.389
  117SOL    HW2  487   1.577   0.027   1.245
  118SOL     OW  488   0.330   3.256   1.597
  118SOL    HW1  489   0.304   3.320   1.663
  118SOL    HW2  490   0.416   3.286   1.567
  119SOL     OW  491   0.211   1.391   0.050
  119SOL    HW1  492   0.296   1.349   0.059
  119SOL    HW2  493   0.229   1.485   0.057
  120SOL     OW  494   3.794   3.774   0.094
  120SOL    HW1  495   3.883   3.738   0.096
  120SOL    HW2  496   3.783   3.813   0.181
  121SOL     OW  497   0.970   2.848   2.909
  121SOL    HW1  498   1.021   2.767   2.903
  121SOL    HW2  499   1.001   2.890   2.989
  122SOL     OW  500   0.282   0.274   0.881
  122SOL    HW1  501   0.340   0.249   0.809
  122SOL    HW2  502   0.286   0.200   0.942
  123SOL     OW  503   3.207   3.339   3.462
  123SOL    HW1  504   3.237   3.248   3.451
  123SOL    HW2  505   3.239   3.384   3.383
  124SOL     OW  506   3.343   2.879   3.663
  124SOL    HW1  507   3.324   2.973   3.668
  124SOL    HW2  508   3.379   2.867   3.575
  125SOL     OW  509   2.009   3.777   3.706
  125SOL    HW1  510   2.019   3.684   3.686
  125SOL    HW2  511   2.088   3.799   3.757
  126SOL     OW  512   3.516   3.030   2.126
  126SOL    HW1  513   3.435   3.028   2.076
  126SOL    HW2  514   3.513   3.112   2.174
  127SOL     OW  515   2.882   2.144   0.134
  127SOL    HW1  516   2.827   2.129   0.211
  127SOL    HW2  517   2.934   2.064   0.126
  128SOL     OW  518   0.632   3.471   0.239
  128SOL    HW1  519   0.648   3.552   0.191
  128SOL    HW2  520   0.555   3.433   0.197
  129SOL     OW  521   3.721   3.534   1.000
  129SOL    HW1  522   3.711   3.615   0.951
  129SOL    HW2  523   3.684   3.554   1.086
  130SOL     OW  524   3.254   3.940   1.877
  130SOL    HW1  525   3.216   3.938   1.789
  130SOL    HW2  526   3.306   3.860   1.882
  131SOL     OW  527   3.544   0.454   2.152
  131SOL    HW1  528   3.628   0.408   2.151
  131SOL    HW2  529   3.546   0.509   2.074
  132SOL     OW  530   1.706   0.587   0.012
  132SOL    HW1  531   1.746   0.550  -0.067
  132SOL    HW2  532   1.739   0.533   0.084
  133SOL     OW  533   1.140   0.329   1.301
  133SOL    HW1  534   1.128   0.421   1.279
  133SOL    HW2  535   1.174   0.330   1.391
  134SOL     OW  536   3.407   0.792   0.011
  134SOL    HW1  537   3.316   0.763   0.016
  134SOL    HW2  538   3.454   0.717  -0.024
  135SOL     OW  539   3.610   0.399   0.899
  135SOL    HW1  540   3.540   0.462   0.882
  135SOL    HW2  541   3.662   0.439   0.969
  136SOL     OW  542   2.695   3.904   1.005
  136SOL    HW1  543   2.741   3.960   0.944
  136SOL    HW2  544   2.756   3.891   1.077
  137SOL     OW  545   3.744   1.401   3.635
  137SOL    HW1  546   3.784   1.450   3.706
  137SOL    HW2  547   3.764   1.309   3.654
  138SOL     OW  548   3.843   3.785   3.016
  138SOL    HW1  549   3.790   3.710   2.988
  138SOL    HW2  550   3.911   3.793   2.949
  139SOL     OW  551   3.549   0.741   0.598
  139SOL    HW1  552   3.573   0.823   0.555
  139SOL    HW2  553   3.589   0.746   0.684
  140SOL     OW  554   3.329   1.545   3.855
  140SOL    HW1  555   3.351   1.626   3.901
  140SOL    HW2  556   3.363   1.557   3.766
  141SOL     OW  557   0.967   1.279   2.416
  141SOL    HW1  558   1.008   1.326   2.489
  141SOL    HW2  559   1.036   1.222   2.383
  142SOL     OW  560   0.107   2.502   2.305
  142SOL    HW1  561   0.054   2.546   2.239
  142SOL    HW2  562   0.127   2.416   2.267
  143SOL     OW  563   0.340   1.184   2.694
  143SOL    HW1  564   0.324   1.263   2.746
  143SOL    HW2  565   0.270   1.183   2.629
  144SOL     OW  566   1.092   0.830   1.714
  144SOL    HW1  567   1.006   0.795   1.689
  144SOL    HW2  568   1.125   0.768   1.779
  145SOL     OW  569   1.145   1.259   0.097
  145SOL    HW1  570   1.212   1.251   0.028
  145SOL    HW2  571   1.196   1.266   0.178
  146SOL     OW  572   3.290   0.394   3.694
  146SOL    HW1  573   3.350   0.354   3.631
  146SOL    HW2  574   3.347   0.430   3.762
  147SOL     OW  575   3.049   1.981   0.785
  147SOL    HW1  576   3.129   1.954   0.830
  147SOL    HW2  577   3.060   2.075   0.771
  148SOL     OW  578   3.466   1.494   1.503
  148SOL    HW1  579   3.415   1.573   1.487
  148SOL    HW2  580   3.521   1.517   1.578
  149SOL     OW  581   2.321   1.973   3.475
  149SOL    HW1  582   2.408   1.993   3.441
  149SOL    HW2  583   2.295   2.052   3.523
  150SOL     OW  584   1.416   0.347   0.390
  150SOL    HW1  585   1.453   0.420   0.341
  150SOL    HW2  586   1.469   0.272   0.363
  151SOL     OW  587   2.059   3.158   3.693
  151SOL    HW1  588   2.119   3.179   3.621
  151SOL    HW2  589   2.117   3.142   3.768
  152SOL     OW  590   2.792   2.083   3.067
  152SOL    HW1  591   2.723   2.016   3.065
  152SOL    HW2  592   2.778   2.135   2.988
  153SOL     OW  593   1.589   3.852   3.985
  153SOL    HW1  594   1.573   3.776   3.930
  153SOL    HW2  595   1.674   3.886   3.954
  154SOL     OW  596   2.570   0.539   1.017
  154SOL    HW1  597   2.600   0.629   1.008
  154SOL    HW2  598   2.560   0.508   0.927
  155SOL     OW  599   2.486   1.097   0.084
  155SOL    HW1  600   2.536   1.065   0.009
  155SOL    HW2  601   2.541   1.077   0.160
  156SOL     OW  602   3.430   3.261   3.224
  156SOL    HW1  603   3.407   3.273   3.132
  156SOL    HW2  604   3.519   3.296   3.231
  157SOL     OW  605   3.781   1.772   2.060
  157SOL    HW1  606   3.803   1.723   2.140
  157SOL    HW2  607   3.858   1.762   2.004
  158SOL     OW  608   1.925   0.643   1.310
  158SOL    HW1  609   1.932   0.609   1.399
  158SOL    HW2  610   1.837   0.680   1.306
  159SOL     OW  611   1.195   0.915   0.376
  159SOL    HW1  612   1.173   0.947   0.464
  159SOL    HW2  613   1.111   0.895   0.336
  160SOL     OW  614   2.377   1.933   2.636
  160SOL    HW1  615   2.435   1.937   2.713
  160SOL    HW2  616   2.339   1.846   2.638
  161SOL     OW  617   0.896   2.502   2.046
  161SOL    HW1  618   0.820   2.531   1.996
  161SOL    HW2  619   0.891   2.551   2.128
  162SOL     OW  620   3.275   3.009   2.009
  162SOL    HW1  621   3.213   2.961   2.064
  162SOL    HW2  622   3.226   3.084   1.976
  163SOL     OW  623   1.987   3.646   2.452
  163SOL    HW1  624   1.904   3.666   2.496
  163SOL    HW2  625   2.038   3.727   2.461
  164SOL     OW  626   0.196   0.654   1.781
  164SOL    HW1  627   0.174   0.603   1.703
  164SOL    HW2  628   0.272   0.706   1.755
  165SOL     OW  629   3.200   0.967   3.793
  165SOL    HW1  630   3.279   0.916   3.811
  165SOL    HW2  631   3.187   1.021   3.871
  166SOL     OW  632   0.980   2.911   0.997
  166SOL    HW1  633   1.015   2.991   0.957
  166SOL    HW2  634   1.007   2.917   1.089
  167SOL     OW  635   2.560   0.514   0.080
  167SOL    HW1  636   2.548   0.435   0.027
  167SOL    HW2  637   2.511   0.496   0.160
  168SOL     OW  638   0.905   2.260   1.516
  168SOL    HW1  639   0.928   2.173   1.548
  168SOL    HW2  640   0.814   2.252   1.487
  169SOL     OW  641   3.124   0.432   1.193
  169SOL    HW1  642   3.201   0.459   1.143
  169SOL    HW2  643   3.050   0.454   1.136
  170SOL     OW  644   1.601   2.702   1.382
  170SOL    HW1  645   1.633   2.731   1.296
  170SOL    HW2  646   1.677   2.665   1.425
  171SOL     OW  647   2.398   1.249   3.559
  171SOL    HW1  648   2.354   1.330   3.587
  171SOL    HW2  649   2.475   1.279   3.511
  172SOL     OW  650   2.693   3.817   0.072
  172SOL    HW1  651   2.604   3.806   0.039
  172SOL    HW2  652   2.736   3.873   0.007
  173SOL     OW  653   1.614   0.725   1.928
  173SOL    HW1  654   1.655   0.784   1.991
  173SOL    HW2  655   1.622   0.770   1.844
  174SOL     OW  656   3.619   2.904   3.268
  174SOL    HW1  657   3.664   2.835   3.220
  174SOL    HW2  658   3.688   2.945   3.321
  175SOL     OW  659   2.263   2.160   3.659
  175SOL    HW1  660   2.204   2.097   3.701
  175SOL    HW2  661   2.328   2.181   3.726
  176SOL     OW  662   0.219   3.373   0.226
  176SOL    HW1  663   0.205   3.288   0.268
  176SOL    HW2  664   0.294   3.358   0.168
  177SOL     OW  665   0.042   3.624   2.562
  177SOL    HW1  666   0.138   3.624   2.559
  177SOL    HW2  667   0.016   3.544   2.517
  178SOL     OW  668   3.657   3.202   1.195
  178SOL    HW1  669   3.702   3.201   1.111
  178SOL    HW2  670   3.703   3.269   1.246
  179SOL     OW  671   2.759   1.002   2.192
  179SOL    HW1  672   2.736   0.924   2.141
  179SOL    HW2  673   2.757   1.074   2.129
  180SOL     OW  674   3.241   1.725   0.594
  180SOL    HW1  675   3.328   1.687   0.582
  180SOL    HW2  676   3.257   1.815   0.621
  181SOL     OW  677   3.907   3.626   1.414
  181SOL    HW1  678   3.880   3.661   1.329
  181SOL    HW2  679   3.904   3.701   1.473
  182SOL     OW  680   3.728   2.056   2.085
  182SOL    HW1  681   3.757   1.965   2.083
  182SOL    HW2  682   3.808   2.108   2.074
  183SOL     OW  683   0.622   2.534   1.980
  183SOL    HW1  684   0.619   2.627   1.958
  183SOL    HW2  685   0.549   2.495   1.932
  184SOL     OW  686   2.412   1.429   3.091
  184SOL    HW1  687   2.338   1.489   3.101
  184SOL    HW2  688   2.375   1.343   3.110
  185SOL     OW  689   1.196   0.663   0.479
  185SOL    HW1  690   1.114   0.625   0.509
  185SOL    HW2  691   1.176   0.754   0.461
  186SOL     OW  692   2.479   1.781   0.794
  186SOL    HW1  693   2.523   1.736   0.722
  186SOL    HW2  694   2.544   1.780   0.866
  187SOL     OW  695   0.513   2.776   0.723
  187SOL    HW1  696   0.568   2.853   0.738
  187SOL    HW2  697   0.513   2.730   0.806
  188SOL     OW  698   1.634   0.275   0.173
  188SOL    HW1  699   1.572   0.336   0.132
  188SOL    HW2  700   1.695   0.331   0.220
  189SOL     OW  701   0.401   1.590   0.195
  189SOL    HW1  702   0.478   1.584   0.138
  189SOL    HW2  703   0.355   1.669   0.164
  190SOL     OW  704   2.352   3.253   2.245
  190SOL    HW1  705   2.292   3.308   2.296
  190SOL    HW2  706   2.427   3.240   2.302
  191SOL     OW  707   1.232   2.677   1.807
  191SOL    HW1  708   1.281   2.653   1.886
  191SOL    HW2  709   1.298   2.675   1.737
  192SOL     OW  710   0.716   0.539   1.902
  192SOL    HW1  711   0.649   0.477   1.931
  192SOL    HW2  712   0.799   0.501   1.933
  193SOL     OW  713   3.703   1.316   3.939
  193SOL    HW1  714   3.786   1.362   3.925
  193SOL    HW2  715   3.703   1.246   3.874
  194SOL     OW  716   0.932   2.557   0.642
  194SOL    HW1  717   0.946   2.652   0.641
  194SOL    HW2  718   1.018   2.520   0.625
  195SOL     OW  719   2.188   2.994   0.260
  195SOL    HW1  720   2.170   3.026   0.172
  195SOL    HW2  721   2.283   2.996   0.267
  196SOL     OW  722   0.679   2.397   3.872
  196SOL    HW1  723   0.624   2.326   3.837
  196SOL    HW2  724   0.647   2.475   3.828
  197SOL     OW  725   0.501   1.320   1.699
  197SOL    HW1  726   0.451   1.253   1.652
  197SOL    HW2  727   0.435   1.376   1.738
  198SOL     OW  728   1.796   0.974   0.498
  198SOL    HW1  729   1.797   0.910   0.428
  198SOL    HW2  730   1.733   0.939   0.561
  199SOL     OW  731   0.776   0.216   0.697
  199SOL    HW1  732   0.767   0.233   0.603
  199SOL    HW2  733   0.730   0.288   0.739
  200SOL     OW  734   3.042   3.177   3.104
  200SOL    HW1  735   3.128   3.216   3.090
  200SOL    HW2  736   3.043   3.148   3.195
  201SOL     OW  737   2.884   1.398   3.269
  201SOL    HW1  738   2.971   1.402   3.228
  201SOL    HW2  739   2.826   1.375   3.197
  202SOL     OW  740   1.748   1.066   1.898
  202SOL    HW1  741   1.678   1.127   1.872
  202SOL    HW2  742   1.817   1.080   1.834
  203SOL     OW  743   1.325   3.283   0.083
  203SOL    HW1  744   1.383   3.292   0.008
  203SOL    HW2  745   1.335   3.366   0.130
  204SOL     OW  746   2.960   0.207   1.809
  204SOL    HW1  747   2.910   0.143   1.758
  204SOL    HW2  748   3.041   0.220   1.759
  205SOL     OW  749   1.259   0.461   0.846
  205SOL    HW1  750   1.227   0.375   0.870
  205SOL    HW2  751   1.185   0.520   0.862
  206SOL     OW  752   0.339   1.926   0.697
  206SOL    HW1  753   0.381   1.863   0.637
  206SOL    HW2  754   0.311   1.997   0.640
  207SOL     OW  755   2.452   3.732   3.848
  207SOL    HW1  756   2.448   3.641   3.876
  207SOL    HW2  757   2.361   3.755   3.829
  208SOL     OW  758   1.908   0.067   1.380
  208SOL    HW1  759   1.901   0.162   1.392
  208SOL    HW2  760   1.855   0.049   1.302
  209SOL     OW  761   2.577   3.026   1.316
  209SOL    HW1  762   2.519   2.964   1.361
  209SOL    HW2  763   2.622   2.973   1.251
  210SOL     OW  764   0.373   2.644   1.058
  210SOL    HW1  765   0.294   2.667   1.106
  210SOL    HW2  766   0.440   2.705   1.090
  211SOL     OW  767   1.697   2.629   2.796
  211SOL    HW1  768   1.721   2.721   2.783
  211SOL    HW2  769   1.619   2.617   2.742
  212SOL     OW  770   1.506   3.585   0.461
  212SOL    HW1  771   1.512   3.680   0.476
  212SOL    HW2  772   1.596   3.555   0.460
  213SOL     OW  773   0.352   2.250   1.457
  213SOL    HW1  774   0.391   2.241   1.543
  213SOL    HW2  775   0.335   2.160   1.429
  214SOL     OW  776   3.844   0.139   3.704
  214SOL    HW1  777   3.872   0.099   3.622
  214SOL    HW2  778   3.807   0.067   3.755
  215SOL     OW  779   3.023   2.694   2.180
  215SOL    HW1  780   3.037   2.635   2.107
  215SOL    HW2  781   3.105   2.692   2.229
  216SOL     OW  782   3.706   1.774   0.379
  216SOL    HW1  783   3.680   1.796   0.289
  216SOL    HW2  784   3.733   1.857   0.417
  217SOL     OW  785   0.269   2.827   1.368
  217SOL    HW1  786   0.365   2.824   1.372
  217SOL    HW2  787   0.243   2.866   1.451
  218SOL     OW  788   1.285   3.220   0.736
  218SOL    HW1  789   1.359   3.203   0.678
  218SOL    HW2  790   1.288   3.314   0.752
  219SOL     OW  791   0.538   0.605   2.768
  219SOL    HW1  792   0.610   0.591   2.707
  219SOL    HW2  793   0.515   0.697   2.758
  220SOL     OW  794   0.271   1.181   2.985
  220SOL    HW1  795   0.307   1.106   3.032
  220SOL    HW2  796   0.193   1.147   2.942
  221SOL     OW  797   0.284   0.474   0.276
  221SOL    HW1  798   0.334   0.478   0.195
  221SOL    HW2  799   0.199   0.510   0.254
  222SOL     OW  800   3.593   2.920   0.603
  222SOL    HW1  801   3.641   2.864   0.663
  222SOL    HW2  802   3.510   2.938   0.648
  223SOL     OW  803   0.133   2.394   0.341
  223SOL    HW1  804   0.060   2.347   0.299
  223SOL    HW2  805   0.113   2.391   0.434
  224SOL     OW  806   0.276   1.795   0.088
  224SOL    HW1  807   0.226   1.836   0.017
  224SOL    HW2  808   0.323   1.868   0.129
  225SOL     OW  809   0.769   1.818   1.699
  225SOL    HW1  810   0.804   1.904   1.724
  225SOL    HW2  811   0.847   1.763   1.689
  226SOL     OW  812   2.660   2.994   3.591
  226SOL    HW1  813   2.656   3.015   3.497
  226SOL    HW2  814   2.748   2.959   3.604
  227SOL     OW  815   2.823   0.589   0.243
  227SOL    HW1  816   2.746   0.599   0.188
  227SOL    HW2  817   2.826   0.495   0.263
  228SOL     OW  818   3.922   2.803   2.488
  228SOL    HW1  819   3.894   2.786   2.577
  228SOL    HW2  820   4.017   2.787   2.489
  229SOL     OW  821   0.569   3.480   3.671
  229SOL    HW1  822   0.572   3.497   3.576
  229SOL    HW2  823   0.491   3.425   3.682
  230SOL     OW  824   0.110   1.263   3.604
  230SOL    HW1  825   0.107   1.167   3.599
  230SOL    HW2  826   0.196   1.286   3.569
  231SOL     OW  827   0.954   2.520   1.553
  231SOL    HW1  828   1.049   2.511   1.565
  231SOL    HW2  829   0.921   2.430   1.561
  232SOL     OW  830   3.207   2.584   2.008
  232SOL    HW1  831   3.247   2.577   1.921
  232SOL    HW2  832   3.281   2.585   2.069
  233SOL     OW  833   1.288   3.500   1.254
  233SOL    HW1  834   1.315   3.588   1.225
  233SOL    HW2  835   1.345   3.441   1.206
  234SOL     OW  836   1.178   1.445   3.044
  234SOL    HW1  837   1.163   1.490   3.127
  234SOL    HW2  838   1.267   1.409   3.051
  235SOL     OW  839   1.305   1.766   3.471
  235SOL    HW1  840   1.368   1.830   3.439
  235SOL    HW2  841   1.359   1.696   3.510
  236SOL     OW  842   2.591   0.766   2.342
  236SOL    HW1  843   2.673   0.808   2.317
  236SOL    HW2  844   2.575   0.701   2.273
  237SOL     OW  845   1.027   3.775   1.641
  237SOL    HW1  846   0.931   3.774   1.648
  237SOL    HW2  847   1.045   3.742   1.552
  238SOL     OW  848   3.223   0.751   2.439
  238SOL    HW1  849   3.226   0.736   2.534
  238SOL    HW2  850   3.303   0.711   2.406
  239SOL     OW  851   2.863   0.581   1.484
  239SOL    HW1  852   2.855   0.676   1.475
  239SOL    HW2  853   2.789   0.546   1.434
  240SOL     OW  854   1.608   3.464   1.488
  240SOL    HW1  855   1.674   3.415   1.537
  240SOL    HW2  856   1.614   3.553   1.522
  241SOL     OW  857   3.673   1.816   0.937
  241SOL    HW1  858   3.640   1.748   0.878
  241SOL    HW2  859   3.684   1.772   1.021
  242SOL     OW  860   2.057   2.482   3.247
  242SOL    HW1  861   2.104   2.517   3.323
  242SOL    HW2  862   2.095   2.396   3.232
  243SOL     OW  863   2.617   1.581   2.020
  243SOL    HW1  864   2.536   1.567   2.070
  243SOL    HW2  865   2.657   1.658   2.060
  244SOL     OW  866   3.537   0.559   3.887
  244SOL    HW1  867   3.615   0.564   3.832
  244SOL    HW2  868   3.532   0.467   3.913
  245SOL     OW  869   3.656   1.889   1.830
  245SOL    HW1  870   3.690   1.831   1.762
  245SOL    HW2  871   3.699   1.861   1.911
  246SOL     OW  872   3.410   2.409   2.346
  246SOL    HW1  873   3.349   2.403   2.273
  246SOL    HW2  874   3.378   2.345   2.410
  247SOL     OW  875   1.448   1.371   3.027
  247SOL    HW1  876   1.441   1.348   3.120
  247SOL    HW2  877   1.480   1.461   3.026
  248SOL     OW  878   2.128   0.648   3.845
  248SOL    HW1  879   2.137   0.724   3.787
  248SOL    HW2  880   2.072   0.679   3.916
  249SOL     OW  881   1.808   1.043   0.947
  249SOL    HW1  882   1.880   0.984   0.965
  249SOL    HW2  883   1.810   1.106   1.019
  250SOL     OW  884   2.163   0.199   0.337
  250SOL    HW1  885   2.219   0.211   0.414
  250SOL    HW2  886   2.124   0.112   0.348
  251SOL     OW  887   1.702   0.611   3.647
  251SOL    HW1  888   1.700   0.630   3.554
  251SOL    HW2  889   1.719   0.695   3.689
  252SOL     OW  890   0.284   2.815   3.732
  252SOL    HW1  891   0.341   2.821   3.809
  252SOL    HW2  892   0.296   2.899   3.687
  253SOL     OW  893   1.316   1.270   0.328
  253SOL    HW1  894   1.383   1.330   0.361
  253SOL    HW2  895   1.253   1.262   0.401
  254SOL     OW  896   1.001   1.743   3.618
  254SOL    HW1  897   0.989   1.686   3.694
  254SOL    HW2  898   1.079   1.709   3.574
  255SOL     OW  899   0.782   2.754   1.789
  255SOL    HW1  900   0.797   2.664   1.759
  255SOL    HW2  901   0.865   2.799   1.772
  256SOL     OW  902   1.390   1.329   3.284
  256SOL    HW1  903   1.352   1.241   3.290
  256SOL    HW2  904   1.325   1.386   3.327
  257SOL     OW  905   0.281   3.879   0.160
  257SOL    HW1  906   0.357   3.928   0.131
  257SOL    HW2  907   0.299   3.859   0.252
  258SOL     OW  908   3.194   1.873   2.804
  258SOL    HW1  909   3.211   1.957   2.846
  258SOL    HW2  910   3.267   1.818   2.830
  259SOL     OW  911   0.154   2.498   2.949
  259SOL    HW1  912   0.129   2.562   2.883
  259SOL    HW2  913   0.159   2.415   2.902
  260SOL     OW  914   2.178   0.146  -0.001
  260SOL    HW1  915   2.153   0.116   0.087
  260SOL    HW2  916   2.120   0.220  -0.019
  261SOL     OW  917   2.334   2.863   2.862
  261SOL    HW1  918   2.240   2.873   2.849
  261SOL    HW2  919   2.362   2.946   2.899
  262SOL     OW  920   1.992   3.494   2.117
  262SOL    HW1  921   2.016   3.482   2.209
  262SOL    HW2  922   1.981   3.406   2.082
  263SOL     OW  923   3.561   0.862   0.266
  263SOL    HW1  924   3.521   0.832   0.348
  263SOL    HW2  925   3.503   0.828   0.198
  264SOL     OW  926   1.038   3.504   3.335
  264SOL    HW1  927   1.014   3.507   3.428
  264SOL    HW2  928   1.133   3.489   3.336
  265SOL     OW  929   0.727   3.543   3.097
  265SOL    HW1  930   0.819   3.530   3.074
  265SOL    HW2  931   0.680   3.476   3.047
  266SOL     OW  932   3.265   0.250   0.997
  266SOL    HW1  933   3.289   0.164   0.962
  266SOL    HW2  934   3.249   0.234   1.090
  267SOL     OW  935   1.686   2.002   1.156
  267SOL    HW1  936   1.749   1.963   1.217
  267SOL    HW2  937   1.670   2.089   1.192
  268SOL     OW  938   2.030   3.670   1.506
  268SOL    HW1  939   1.970   3.624   1.447
  268SOL    HW2  940   2.087   3.602   1.541
  269SOL     OW  941   3.764   0.520   3.728
  269SOL    HW1  942   3.787   0.602   3.771
  269SOL    HW2  943   3.818   0.518   3.649
  270SOL     OW  944   1.816   1.925   0.280
  270SOL    HW1  945   1.827   1.833   0.258
  270SOL    HW2  946   1.852   1.972   0.205
  271SOL     OW  947   2.725   0.068   1.301
  271SOL    HW1  948   2.733   0.106   1.388
  271SOL    HW2  949   2.631   0.064   1.285
  272SOL     OW  950   2.048   1.444   3.444
  272SOL    HW1  951   2.106   1.476   3.513
  272SOL    HW2  952   1.964   1.431   3.488
  273SOL     OW  953   1.671   3.478   1.135
  273SOL    HW1  954   1.599   3.477   1.072
  273SOL    HW2  955   1.716   3.394   1.122
  274SOL     OW  956   2.158   0.300   1.631
  274SOL    HW1  957   2.156   0.204   1.622
  274SOL    HW2  958   2.152   0.316   1.725
  275SOL     OW  959   2.222   3.478   1.586
  275SOL    HW1  960   2.200   3.474   1.679
  275SOL    HW2  961   2.180   3.401   1.548
  276SOL     OW  962   1.517   0.026   1.600
  276SOL    HW1  963   1.581   0.073   1.654
  276SOL    HW2  964   1.462   0.094   1.562
  277SOL     OW  965   1.541   1.876   2.546
  277SOL    HW1  966   1.540   1.865   2.641
  277SOL    HW2  967   1.565   1.790   2.512
  278SOL     OW  968   1.136   0.379   3.677
  278SOL    HW1  969   1.180   0.463   3.689
  278SOL    HW2  970   1.163   0.327   3.752
  279SOL     OW  971   1.072   1.799   2.192
  279SOL    HW1  972   1.010   1.805   2.265
  279SOL    HW2  973   1.135   1.869   2.208
  280SOL     OW  974   1.136   2.072   1.275
  280SOL    HW1  975   1.143   2.167   1.284
  280SOL    HW2  976   1.068   2.047   1.338
  281SOL     OW  977   2.716   2.658   1.925
  281SOL    HW1  978   2.643   2.645   1.865
  281SOL    HW2  979   2.720   2.577   1.976
  282SOL     OW  980   0.836   3.861   0.445
  282SOL    HW1  981   0.799   3.892   0.528
  282SOL    HW2  982   0.760   3.851   0.387
  283SOL     OW  983   1.581   1.702   0.185
  283SOL    HW1  984   1.661   1.695   0.237
  283SOL    HW2  985   1.570   1.615   0.146
  284SOL     OW  986   0.616   1.237   0.320
  284SOL    HW1  987   0.533   1.226   0.274
  284SOL    HW2  988   0.667   1.297   0.265
  285SOL     OW  989   3.488   2.020   1.321
  285SOL    HW1  990   3.413   2.018   1.262
  285SOL    HW2  991   3.532   1.936   1.307
  286SOL     OW  992   0.558   1.573   2.569
  286SOL    HW1  993   0.553   1.484   2.603
  286SOL    HW2  994   0.633   1.572   2.510
  287SOL     OW  995   3.810   3.386   1.326
  287SOL    HW1  996   3.852   3.467   1.354
  287SOL    HW2  997   3.879   3.320   1.328
  288SOL     OW  998   2.945   3.072   2.760
  288SOL    HW1  999   2.884   3.109   2.825
  288SOL    HW2 1000   2.975   2.990   2.800
  289SOL     OW 1001   0.624   0.634   3.639
  289SOL    HW1 1002   0.639   0.557   3.584
  289SOL    HW2 1003   0.616   0.706   3.577
  290SOL     OW 1004   3.246   1.943   1.221
  290SOL    HW1 1005   3.237   1.949   1.126
  290SOL    HW2 1006   3.306   1.870   1.236
  291SOL     OW 1007   2.302   2.003   0.344
  291SOL    HW1 1008   2.237   2.068   0.370
  291SOL    HW2 1009   2.371   2.009   0.411
  292SOL     OW 1010   3.968   2.475   1.964
  292SOL    HW1 1011   4.026   2.551   1.960
  292SOL    HW2 1012   3.885   2.510   1.995
  293SOL     OW 1013   3.143   1.109   3.361
  293SOL    HW1 1014   3.086   1.150   3.426
  293SOL    HW2 1015   3.223   1.087   3.409
  294SOL     OW 1016   0.981   1.722   0.070
  294SOL    HW1 1017   0.969   1.672  -0.011
  294SOL    HW2 1018   1.009   1.809   0.040
  295SOL     OW 1019   0.180   1.780   3.049
  295SOL    HW1 1020   0.128   1.701   3.064
  295SOL    HW2 1021   0.240   1.756   2.979
  296SOL     OW 1022   3.330   0.721   0.390
  296SOL    HW1 1023   3.306   0.745   0.480
  296SOL    HW2 1024   3.262   0.660   0.362
  297SOL     OW 1025   1.728   2.665   0.420
  297SOL    HW1 1026   1.675   2.712   0.355
  297SOL    HW2 1027   1.667   2.649   0.493
  298SOL     OW 1028   3.782   2.495   1.198
  298SOL    HW1 1029   3.750   2.405   1.194
  298SOL    HW2 1030   3.729   2.536   1.266
  299SOL     OW 1031   0.538   3.962   3.237
  299SOL    HW1 1032   0.514   3.912   3.159
  299SOL    HW2 1033   0.627   3.934   3.257
  300SOL     OW 1034   3.958   3.826   1.942
  300SOL    HW1 1035   3.922   3.853   2.027
  300SOL    HW2 1036   3.883   3.792   1.894
  301SOL     OW 1037   0.705   0.437   1.189
  301SOL    HW1 1038   0.794   0.470   1.189
  301SOL    HW2 1039   0.655   0.502   1.139
  302SOL     OW 1040   1.105   1.354   1.987
  302SOL    HW1 1041   1.068   1.268   1.965
  302SOL    HW2 1042   1.197   1.336   2.006
  303SOL     OW 1043   0.102   1.192   1.310
  303SOL    HW1 1044   0.153   1.159   1.236
  303SOL    HW2 1045   0.151   1.163   1.387
  304SOL     OW 1046   3.473   0.831   1.239
  304SOL    HW1 1047   3.505   0.913   1.275
  304SOL    HW2 1048   3.545   0.797   1.187
  305SOL     OW 1049   1.495   1.915   0.534
  305SOL    HW1 1050   1.399   1.921   0.540
  305SOL    HW2 1051   1.527   1.966   0.608
  306SOL     OW 1052   1.792   3.194   3.358
  306SOL    HW1 1053   1.828   3.150   3.435
  306SOL    HW2 1054   1.867   3.202   3.299
  307SOL     OW 1055   0.683   0.951   2.563
  307SOL    HW1 1056   0.679   1.038   2.525
  307SOL    HW2 1057   0.637   0.958   2.647
  308SOL     OW 1058   3.127   3.041   3.369
  308SOL    HW1 1059   3.222   3.041   3.382
  308SOL    HW2 1060   3.102   2.949   3.369
  309SOL     OW 1061   1.592   0.864   0.918
  309SOL    HW1 1062   1.663   0.928   0.922
  309SOL    HW2 1063   1.567   0.862   0.826
  310SOL     OW 1064   0.996   0.531   1.520
  310SOL    HW1 1065   0.956   0.611   1.554
  310SOL    HW2 1066   1.088   0.555   1.504
  311SOL     OW 1067   1.566   0.107   3.034
  311SOL    HW1 1068   1.599   0.018   3.028
  311SOL    HW2 1069   1.592   0.137   3.122
  312SOL     OW 1070   3.276   3.658   1.509
  312SOL    HW1 1071   3.256   3.582   1.454
  312SOL    HW2 1072   3.225   3.644   1.589
  313SOL     OW 1073   2.594   1.293   3.341
  313SOL    HW1 1074   2.667   1.353   3.325
  313SOL    HW2 1075   2.567   1.264   3.254
  314SOL     OW 1076   2.689   3.462   1.206
  314SOL    HW1 1077   2.715   3.536   1.260
  314SOL    HW2 1078   2.756   3.457   1.138
  315SOL     OW 1079   0.900   2.622   1.219
  315SOL    HW1 1080   0.965   2.567   1.262
  315SOL    HW2 1081   0.862   2.675   1.289
  316SOL     OW 1082   1.816   1.239   0.579
  316SOL    HW1 1083   1.721   1.245   0.576
  316SOL    HW2 1084   1.836   1.149   0.552
  317SOL     OW 1085   3.919   3.527   3.830
  317SOL    HW1 1086   3.956   3.611   3.804
  317SOL    HW2 1087   3.825   3.536   3.815
  318SOL     OW 1088   0.827   3.883   2.810
  318SOL    HW1 1089   0.874   3.800   2.818
  318SOL    HW2 1090   0.767   3.884   2.885
  319SOL     OW 1091   2.271   2.483   2.210
  319SOL    HW1 1092   2.228   2.496   2.126
  319SOL    HW2 1093   2.221   2.537   2.272
  320SOL     OW 1094   0.294   2.519   1.480
  320SOL    HW1 1095   0.280   2.428   1.505
  320SOL    HW2 1096   0.303   2.566   1.562
  321SOL     OW 1097   3.046   2.106   2.400
  321SOL    HW1 1098   3.005   2.020   2.393
  321SOL    HW2 1099   3.046   2.140   2.311
  322SOL     OW 1100   3.127   2.312   1.773
  322SOL    HW1 1101   3.127   2.216   1.772
  322SOL    HW2 1102   3.036   2.336   1.757
  323SOL     OW 1103   2.412   0.223   2.777
  323SOL    HW1 1104   2.320   0.221   2.751
  323SOL    HW2 1105   2.429   0.136   2.813
  324SOL     OW 1106   2.072   2.264   3.926
  324SOL    HW1 1107   1.977   2.277   3.924
  324SOL    HW2 1108   2.087   2.187   3.871
  325SOL     OW 1109   2.890   2.705   3.275
  325SOL    HW1 1110   2.913   2.756   3.353
  325SOL    HW2 1111   2.943   2.625   3.282
  326SOL     OW 1112   2.584   0.330   2.312
  326SOL    HW1 1113   2.522   0.294   2.248
  326SOL    HW2 1114   2.541   0.319   2.396
  327SOL     OW 1115   0.728   3.075   2.071
  327SOL    HW1 1116   0.697   2.985   2.081
  327SOL    HW2 1117   0.821   3.071   2.096
  328SOL     OW 1118   0.850   2.858   0.648
  328SOL    HW1 1119   0.786   2.915   0.689
  328SOL    HW2 1120   0.929   2.912   0.640
  329SOL     OW 1121   1.076   0.185   0.628
  329SOL    HW1 1122   1.118   0.101   0.647
  329SOL    HW2 1123   0.988   0.176   0.666
  330SOL     OW 1124   0.934   3.636   2.857
  330SOL    HW1 1125   1.014   3.610   2.812
  330SOL    HW2 1126   0.953   3.620   2.950
  331SOL     OW 1127   1.103   3.490   1.010
  331SOL    HW1 1128   1.065   3.504   1.097
  331SOL    HW2 1129   1.157   3.411   1.020
  332SOL     OW 1130   0.547   2.916   1.391
  332SOL    HW1 1131   0.509   3.004   1.394
  332SOL    HW2 1132   0.587   2.905   1.478
  333SOL     OW 1133   3.143   3.865   3.711
  333SOL    HW1 1134   3.202   3.898   3.644
  333SOL    HW2 1135   3.087   3.940   3.732
  334SOL     OW 1136   2.803   0.279   1.532
  334SOL    HW1 1137   2.770   0.292   1.443
  334SOL    HW2 1138   2.742   0.328   1.587
  335SOL     OW 1139   1.990   1.539   2.794
  335SOL    HW1 1140   1.927   1.593   2.746
  335SOL    HW2 1141   1.979   1.452   2.756
  336SOL     OW 1142   0.224   0.480   2.739
  336SOL    HW1 1143   0.215   0.392   2.775
  336SOL    HW2 1144   0.151   0.529   2.777
  337SOL     OW 1145   1.404   1.360   3.608
  337SOL    HW1 1146   1.426   1.267   3.620
  337SOL    HW2 1147   1.316   1.369   3.644
  338SOL     OW 1148   3.494   1.382   2.059
  338SOL    HW1 1149   3.449   1.420   1.983
  338SOL    HW2 1150   3.487   1.288   2.046
  339SOL     OW 1151   2.390   1.687   2.438
  339SOL    HW1 1152   2.481   1.690   2.469
  339SOL    HW2 1153   2.338   1.701   2.516
  340SOL     OW 1154   3.453   1.307   1.286
  340SOL    HW1 1155   3.466   1.359   1.365
  340SOL    HW2 1156   3.415   1.369   1.223
  341SOL     OW 1157   0.699   2.152   0.111
  341SOL    HW1 1158   0.662   2.069   0.141
  341SOL    HW2 1159   0.738   2.131   0.026
  342SOL     OW 1160   3.483   0.614   3.376
  342SOL    HW1 1161   3.575   0.637   3.382
  342SOL    HW2 1162   3.449   0.630   3.464
  343SOL     OW 1163   0.459   3.889   2.250
  343SOL    HW1 1164   0.505   3.814   2.287
  343SOL    HW2 1165   0.488   3.893   2.159
  344SOL     OW 1166   1.981   3.077   2.950
  344SOL    HW1 1167   1.997   3.077   2.856
  344SOL    HW2 1168   1.899   3.030   2.961
  345SOL     OW 1169   2.581   3.411   0.343
  345SOL    HW1 1170   2.575   3.501   0.310
  345SOL    HW2 1171   2.602   3.421   0.436
  346SOL     OW 1172   2.619   2.824   3.320
  346SOL    HW1 1173   2.552   2.757   3.333
  346SOL    HW2 1174   2.684   2.782   3.263
  347SOL     OW 1175   2.125   0.767   2.778
  347SOL    HW1 1176   2.150   0.735   2.865
  347SOL    HW2 1177   2.030   0.752   2.774
  348SOL     OW 1178   3.094   0.273   3.845
  348SOL    HW1 1179   3.161   0.287   3.778
  348SOL    HW2 1180   3.014   0.310   3.808
  349SOL     OW 1181   3.983   0.422   1.282
  349SOL    HW1 1182   4.011   0.331   1.276
  349SOL    HW2 1183   3.889   0.417   1.296
  350SOL     OW 1184   1.735   1.807   0.500
  350SOL    HW1 1185   1.643   1.833   0.508
  350SOL    HW2 1186   1.763   1.844   0.416
  351SOL     OW 1187   3.375   2.848   3.956
  351SOL    HW1 1188   3.391   2.942   3.957
  351SOL    HW2 1189   3.353   2.828   3.865
  352SOL     OW 1190   1.062   0.790   0.859
  352SOL    HW1 1191   1.045   0.823   0.770
  352SOL    HW2 1192   1.132   0.846   0.892
  353SOL     OW 1193   3.854   1.213   1.759
  353SOL    HW1 1194   3.812   1.228   1.843
  353SOL    HW2 1195   3.915   1.141   1.776
  354SOL     OW 1196   0.365   0.080   1.298
  354SOL    HW1 1197   0.448   0.096   1.344
  354SOL    HW2 1198   0.377  -0.006   1.258
  355SOL     OW 1199   3.099   0.098   0.358
  355SOL    HW1 1200   3.100   0.156   0.282
  355SOL    HW2 1201   3.029   0.133   0.414
  356SOL     OW 1202   2.623   2.464   1.521
  356SOL    HW1 1203   2.684   2.428   1.456
  356SOL    HW2 1204   2.583   2.539   1.477
  357SOL     OW 1205   0.582   3.617   1.855
  357SOL    HW1 1206   0.665   3.570   1.850
  357SOL    HW2 1207   0.586   3.665   1.938
  358SOL     OW 1208   2.736   0.690   3.901
  358SOL    HW1 1209   2.660   0.638   3.927
  358SOL    HW2 1210   2.801   0.626   3.875
  359SOL     OW 1211   3.215   1.845   2.539
  359SOL    HW1 1212   3.238   1.932   2.508
  359SOL    HW2 1213   3.207   1.854   2.634
  360SOL     OW 1214   0.854   0.259   3.540
  360SOL    HW1 1215   0.932   0.244   3.593
  360SOL    HW2 1216   0.796   0.186   3.561
  361SOL     OW 1217   1.100   1.108   3.274
  361SOL    HW1 1218   1.182   1.064   3.298
  361SOL    HW2 1219   1.083   1.079   3.184
  362SOL     OW 1220   0.765   0.888   2.894
  362SOL    HW1 1221   0.691   0.931   2.850
  362SOL    HW2 1222   0.726   0.850   2.973
  363SOL     OW 1223   1.761   3.743   2.616
  363SOL    HW1 1224   1.751   3.825   2.567
  363SOL    HW2 1225   1.677   3.731   2.660
  364SOL     OW 1226   3.519   2.915   3.021
  364SOL    HW1 1227   3.555   2.937   3.106
  364SOL    HW2 1228   3.424   2.928   3.030
  365SOL     OW 1229   0.610   2.170   3.502
  365SOL    HW1 1230   0.612   2.149   3.409
  365SOL    HW2 1231   0.702   2.172   3.528
  366SOL     OW 1232   1.951   3.013   2.261
  366SOL    HW1 1233   2.013   3.026   2.189
  366SOL    HW2 1234   1.995   2.952   2.320
  367SOL     OW 1235   2.418   3.956   0.649
  367SOL    HW1 1236   2.388   3.963   0.740
  367SOL    HW2 1237   2.512   3.937   0.656
  368SOL     OW 1238   3.109   1.517   2.658
  368SOL    HW1 1239   3.071   1.571   2.727
  368SOL    HW2 1240   3.203   1.526   2.670
  369SOL     OW 1241   0.088   0.193   0.579
  369SOL    HW1 1242   0.047   0.162   0.497
  369SOL    HW2 1243   0.180   0.205   0.555
  370SOL     OW 1244   3.424   0.635   0.881
  370SOL    HW1 1245   3.344   0.656   0.832
  370SOL    HW2 1246   3.396   0.629   0.972
  371SOL     OW 1247   2.662   2.487   0.981
  371SOL    HW1 1248   2.701   2.404   1.008
  371SOL    HW2 1249   2.575   2.486   1.020
  372SOL     OW 1250   1.926   2.500   2.650
  372SOL    HW1 1251   1.863   2.540   2.710
  372SOL    HW2 1252   2.009   2.503   2.697
  373SOL     OW 1253   2.948   2.873   3.530
  373SOL    HW1 1254   2.970   2.819   3.606
  373SOL    HW2 1255   2.998   2.954   3.542
  374SOL     OW 1256   2.699   1.018   0.654
  374SOL    HW1 1257   2.606   1.036   0.643
  374SOL    HW2 1258   2.727   0.982   0.569
  375SOL     OW 1259   0.754   3.433   1.374
  375SOL    HW1 1260   0.742   3.503   1.438
  375SOL    HW2 1261   0.678   3.376   1.387
  376SOL     OW 1262   0.082   2.487   1.701
  376SOL    HW1 1263   0.044   2.467   1.786
  376SOL    HW2 1264   0.042   2.423   1.641
  377SOL     OW 1265   2.889   2.458   2.575
  377SOL    HW1 1266   2.923   2.536   2.530
  377SOL    HW2 1267   2.860   2.401   2.504
  378SOL     OW 1268   3.507   3.323   0.621
  378SOL    HW1 1269   3.438   3.319   0.687
  378SOL    HW2 1270   3.569   3.255   0.647
  379SOL     OW 1271   3.589   3.339   2.617
  379SOL    HW1 1272   3.506   3.309   2.580
  379SOL    HW2 1273   3.634   3.259   2.643
  380SOL     OW 1274   1.009   0.983   3.538
  380SOL    HW1 1275   0.915   0.999   3.535
  380SOL    HW2 1276   1.046   1.043   3.472
  381SOL     OW 1277   3.847   3.147   0.316
  381SOL    HW1 1278   3.879   3.135   0.405
  381SOL    HW2 1279   3.810   3.235   0.315
  382SOL     OW 1280   3.671   1.129   2.401
  382SOL    HW1 1281   3.611   1.179   2.456
  382SOL    HW2 1282   3.617   1.057   2.368
  383SOL     OW 1283   0.422   2.153   2.647
  383SOL    HW1 1284   0.492   2.107   2.602
  383SOL    HW2 1285   0.382   2.208   2.580
  384SOL     OW 1286   3.457   1.705   2.575
  384SOL    HW1 1287   3.488   1.706   2.485
  384SOL    HW2 1288   3.374   1.752   2.573
  385SOL     OW 1289   0.361   0.042   3.788
  385SOL    HW1 1290   0.306   0.039   3.710
  385SOL    HW2 1291   0.416  -0.036   3.781
  386SOL     OW 1292   2.862   3.159   3.393
  386SOL    HW1 1293   2.844   3.205   3.475
  386SOL    HW2 1294   2.957   3.142   3.395
  387SOL     OW 1295   2.397   2.470   0.310
  387SOL    HW1 1296   2.356   2.481   0.396
  387SOL    HW2 1297   2.323   2.461   0.249
  388SOL     OW 1298   3.412   3.177   0.156
  388SOL    HW1 1299   3.466   3.238   0.105
  388SOL    HW2 1300   3.474   3.137   0.217
  389SOL     OW 1301   1.719   1.507   3.859
  389SOL    HW1 1302   1.676   1.441   3.805
  389SOL    HW2 1303   1.691   1.487   3.949
  390SOL     OW 1304   2.137   1.517   0.076
  390SOL    HW1 1305   2.065   1.455   0.076
  390SOL    HW2 1306   2.213   1.467   0.107
  391SOL     OW 1307   3.927   2.266   0.042
  391SOL    HW1 1308   3.984   2.286  -0.033
  391SOL    HW2 1309   3.970   2.192   0.085
  392SOL     OW 1310   1.002   0.718   2.765
  392SOL    HW1 1311   0.996   0.780   2.692
  392SOL    HW2 1312   0.919   0.726   2.811
  393SOL     OW 1313   1.583   1.869   3.924
  393SOL    HW1 1314   1.592   1.824   4.008
  393SOL    HW2 1315   1.664   1.847   3.876
  394SOL     OW 1316   2.573   2.312   3.250
  394SOL    HW1 1317   2.631   2.249   3.292
  394SOL    HW2 1318   2.627   2.390   3.239
  395SOL     OW 1319   3.514   2.857   2.354
  395SOL    HW1 1320   3.540   2.894   2.270
  395SOL    HW2 1321   3.553   2.769   2.355
  396SOL     OW 1322   2.259   2.219   2.276
  396SOL    HW1 1323   2.269   2.308   2.242
  396SOL    HW2 1324   2.273   2.162   2.200
  397SOL     OW 1325   3.089   2.276   0.364
  397SOL    HW1 1326   3.159   2.236   0.312
  397SOL    HW2 1327   3.045   2.202   0.405
  398SOL     OW 1328   0.412   3.846   3.038
  398SOL    HW1 1329   0.441   3.892   2.959
  398SOL    HW2 1330   0.318   3.862   3.042
  399SOL     OW 1331   0.306   3.364   2.793
  399SOL    HW1 1332   0.219   3.385   2.759
  399SOL    HW2 1333   0.302   3.271   2.815
  400SOL     OW 1334   1.480   2.975   1.290
  400SOL    HW1 1335   1.456   2.883   1.306
  400SOL    HW2 1336   1.505   3.009   1.375
  401SOL     OW 1337   3.187   1.975   1.868
  401SOL    HW1 1338   3.111   1.940   1.821
  401SOL    HW2 1339   3.252   1.992   1.800
  402SOL     OW 1340   3.646   2.613   0.866
  402SOL    HW1 1341   3.633   2.578   0.954
  402SOL    HW2 1342   3.573   2.674   0.854
  403SOL     OW 1343   2.882   3.303   2.302
  403SOL    HW1 1344   2.879   3.239   2.374
  403SOL    HW2 1345   2.929   3.258   2.232
  404SOL     OW 1346   3.866   3.863   1.527
  404SOL    HW1 1347   3.832   3.898   1.609
  404SOL    HW2 1348   3.792   3.818   1.487
  405SOL     OW 1349   2.205   0.669   3.030
  405SOL    HW1 1350   2.276   0.679   3.095
  405SOL    HW2 1351   2.227   0.589   2.983
  406SOL     OW 1352   3.682   2.175   3.161
  406SOL    HW1 1353   3.610   2.124   3.124
  406SOL    HW2 1354   3.643   2.259   3.183
  407SOL     OW 1355   2.576   1.062   3.791
  407SOL    HW1 1356   2.494   1.038   3.749
  407SOL    HW2 1357   2.633   1.089   3.718
  408SOL     OW 1358   3.323   3.160   3.775
  408SOL    HW1 1359   3.402   3.210   3.754
  408SOL    HW2 1360   3.252   3.210   3.735
  409SOL     OW 1361   1.052   2.437   0.983
  409SOL    HW1 1362   1.002   2.390   1.050
  409SOL    HW2 1363   1.141   2.402   0.991
  410SOL     OW 1364   0.348   2.690   1.679
  410SOL    HW1 1365   0.276   2.746   1.652
  410SOL    HW2 1366   0.414   2.751   1.713
  411SOL     OW 1367   1.595   3.173   1.670
  411SOL    HW1 1368   1.645   3.097   1.698
  411SOL    HW2 1369   1.564   3.213   1.751
  412SOL     OW 1370   1.763   0.880   2.099
  412SOL    HW1 1371   1.853   0.889   2.130
  412SOL    HW2 1372   1.753   0.951   2.036
  413SOL     OW 1373   0.782   0.944   0.869
  413SOL    HW1 1374   0.876   0.927   0.875
  413SOL    HW2 1375   0.744   0.861   0.838
  414SOL     OW 1376   2.734   0.284   0.781
  414SOL    HW1 1377   2.766   0.373   0.770
  414SOL    HW2 1378   2.639   0.292   0.782
  415SOL     OW 1379   0.669   2.009   1.371
  415SOL    HW1 1380   0.634   2.087   1.415
  415SOL    HW2 1381   0.601   1.943   1.383
  416SOL     OW 1382   3.847   0.603   0.375
  416SOL    HW1 1383   3.776   0.576   0.434
  416SOL    HW2 1384   3.845   0.698   0.378
  417SOL     OW 1385   0.057   0.917   3.301
  417SOL    HW1 1386   0.044   0.999   3.253
  417SOL    HW2 1387  -0.025   0.904   3.349
  418SOL     OW 1388   2.396   3.489   0.006
  418SOL    HW1 1389   2.305   3.502  -0.019
  418SOL    HW2 1390   2.392   3.438   0.087
  419SOL     OW 1391   0.220   1.825   1.611
  419SOL    HW1 1392   0.245   1.785   1.695
  419SOL    HW2 1393   0.148   1.883   1.633
  420SOL     OW 1394   3.180   2.837   0.670
  420SOL    HW1 1395   3.154   2.873   0.586
  420SOL    HW2 1396   3.160   2.743   0.664
  421SOL     OW 1397   1.425   1.847   1.898
  421SOL    HW1 1398   1.459   1.926   1.855
  421SOL    HW2 1399   1.350   1.878   1.949
  422SOL     OW 1400   2.354   3.307   3.611
  422SOL    HW1 1401   2.412   3.362   3.559
  422SOL    HW2 1402   2.406   3.281   3.687
  423SOL     OW 1403   1.680   0.347   2.859
  423SOL    HW1 1404   1.649   0.269   2.813
  423SOL    HW2 1405   1.609   0.369   2.920
  424SOL     OW 1406   2.243   1.454   3.638
  424SOL    HW1 1407   2.254   1.546   3.613
  424SOL    HW2 1408   2.198   1.458   3.722
  425SOL     OW 1409   2.066   2.113   2.601
  425SOL    HW1 1410   2.152   2.154   2.587
  425SOL    HW2 1411   2.065   2.040   2.539
  426SOL     OW 1412   1.252   0.723   3.329
  426SOL    HW1 1413   1.211   0.640   3.354
  426SOL    HW2 1414   1.341   0.699   3.301
  427SOL     OW 1415   2.069   1.899   2.443
  427SOL    HW1 1416   2.142   1.910   2.382
  427SOL    HW2 1417   2.056   1.805   2.449
  428SOL     OW 1418   2.279   3.464   2.764
  428SOL    HW1 1419   2.371   3.467   2.736
  428SOL    HW2 1420   2.269   3.540   2.821
  429SOL     OW 1421   2.526   0.722   3.276
  429SOL    HW1 1422   2.554   0.797   3.224
  429SOL    HW2 1423   2.585   0.722   3.351
  430SOL     OW 1424   3.501   2.784   1.940
  430SOL    HW1 1425   3.456   2.857   1.897
  430SOL    HW2 1426   3.449   2.766   2.019
  431SOL     OW 1427   0.790   2.370   0.439
  431SOL    HW1 1428   0.766   2.428   0.367
  431SOL    HW2 1429   0.819   2.429   0.509
  432SOL     OW 1430   2.331   0.832   0.111
  432SOL    HW1 1431   2.387   0.792   0.178
  432SOL    HW2 1432   2.389   0.844   0.036
  433SOL     OW 1433   1.016   2.004   2.825
  433SOL    HW1 1434   1.002   2.096   2.803
  433SOL    HW2 1435   1.076   1.972   2.758
  434SOL     OW 1436   1.606   2.989   3.291
  434SOL    HW1 1437   1.615   2.984   3.195
  434SOL    HW2 1438   1.677   3.047   3.319
  435SOL     OW 1439   2.540   1.149   3.078
  435SOL    HW1 1440   2.539   1.149   2.982
  435SOL    HW2 1441   2.580   1.066   3.102
  436SOL     OW 1442   0.691   3.667   1.527
  436SOL    HW1 1443   0.624   3.697   1.466
  436SOL    HW2 1444   0.726   3.748   1.566
  437SOL     OW 1445   3.562   1.625   3.232
  437SOL    HW1 1446   3.486   1.663   3.276
  437SOL    HW2 1447   3.585   1.549   3.286
  438SOL     OW 1448   3.981   3.082   1.785
  438SOL    HW1 1449   3.937   3.020   1.726
  438SOL    HW2 1450   3.911   3.139   1.817
  439SOL     OW 1451   1.229   1.088   2.075
  439SOL    HW1 1452   1.239   0.995   2.054
  439SOL    HW2 1453   1.318   1.119   2.089
  440SOL     OW 1454   3.862   2.714   2.227
  440SOL    HW1 1455   3.841   2.697   2.318
  440SOL    HW2 1456   3.849   2.808   2.216
  441SOL     OW 1457   2.142   0.260   0.722
  441SOL    HW1 1458   2.194   0.290   0.797
  441SOL    HW2 1459   2.079   0.331   0.707
  442SOL     OW 1460   1.143   2.196   3.328
  442SOL    HW1 1461   1.134   2.144   3.408
  442SOL    HW2 1462   1.237   2.208   3.319
  443SOL     OW 1463   1.522   0.816   0.062
  443SOL    HW1 1464   1.449   0.795   0.120
  443SOL    HW2 1465   1.570   0.735   0.054
  444SOL     OW 1466   0.770   1.594   2.367
  444SOL    HW1 1467   0.846   1.630   2.412
  444SOL    HW2 1468   0.806   1.555   2.287
  445SOL     OW 1469   1.719   3.586   0.067
  445SOL    HW1 1470   1.689   3.619  -0.018
  445SOL    HW2 1471   1.770   3.658   0.104
  446SOL     OW 1472   3.372   0.919   3.530
  446SOL    HW1 1473   3.318   0.841   3.538
  446SOL    HW2 1474   3.457   0.893   3.565
  447SOL     OW 1475   1.879   0.448   0.547
  447SOL    HW1 1476   1.797   0.498   0.550
  447SOL    HW2 1477   1.851   0.356   0.556
  448SOL     OW 1478   3.214   0.183   3.168
  448SOL    HW1 1479   3.176   0.095   3.177
  448SOL    HW2 1480   3.141   0.242   3.188
  449SOL     OW 1481   0.403   1.170   2.021
  449SOL    HW1 1482   0.487   1.149   2.061
  449SOL    HW2 1483   0.366   1.238   2.077
  450SOL     OW 1484   0.719   0.162   1.122
  450SOL    HW1 1485   0.712   0.258   1.119
  450SOL    HW2 1486   0.763   0.144   1.205
  451SOL     OW 1487   1.876   2.785   3.910
  451SOL    HW1 1488   1.860   2.759   3.819
  451SOL    HW2 1489   1.903   2.877   3.904
  452SOL     OW 1490   2.287   2.769   1.666
  452SOL    HW1 1491   2.208   2.717   1.652
  452SOL    HW2 1492   2.284   2.794   1.758
  453SOL     OW 1493   3.766   1.476   2.387
  453SOL    HW1 1494   3.781   1.494   2.480
  453SOL    HW2 1495   3.816   1.397   2.369
  454SOL     OW 1496   0.473   0.360   1.809
  454SOL    HW1 1497   0.425   0.392   1.732
  454SOL    HW2 1498   0.559   0.334   1.774
  455SOL     OW 1499   1.330   3.170   2.940
  455SOL    HW1 1500   1.306   3.128   2.857
  455SOL    HW2 1501   1.373   3.101   2.990
  456SOL     OW 1502   0.164   2.057   3.017
  456SOL    HW1 1503   0.075   2.075   3.048
  456SOL    HW2 1504   0.170   1.962   3.016
  457SOL     OW 1505   2.372   2.530   2.924
  457SOL    HW1 1506   2.465   2.541   2.901
  457SOL    HW2 1507   2.328   2.519   2.839
  458SOL     OW 1508   3.311   3.100   1.368
  458SOL    HW1 1509   3.405   3.087   1.356
  458SOL    HW2 1510   3.279   3.128   1.283
  459SOL     OW 1511   1.643   2.704   2.251
  459SOL    HW1 1512   1.561   2.753   2.258
  459SOL    HW2 1513   1.688   2.720   2.334
  460SOL     OW 1514   3.139   0.683   0.024
  460SOL    HW1 1515   3.067   0.654  -0.033
  460SOL    HW2 1516   3.126   0.635   0.106
  461SOL     OW 1517   2.798   2.001   1.564
  461SOL    HW1 1518   2.853   1.964   1.634
  461SOL    HW2 1519   2.729   2.048   1.611
  462SOL     OW 1520   1.224   3.032   1.553
  462SOL    HW1 1521   1.145   3.085   1.548
  462SOL    HW2 1522   1.295   3.095   1.561
  463SOL     OW 1523   3.211   2.637   2.668
  463SOL    HW1 1524   3.179   2.625   2.579
  463SOL    HW2 1525   3.247   2.552   2.692
  464SOL     OW 1526   0.555   1.943   0.945
  464SOL    HW1 1527   0.639   1.962   0.904
  464SOL    HW2 1528   0.512   1.882   0.884
  465SOL     OW 1529   2.388   0.107   2.520
  465SOL    HW1 1530   2.407   0.066   2.436
  465SOL    HW2 1531   2.332   0.182   2.499
  466SOL     OW 1532   3.051   1.006   2.175
  466SOL    HW1 1533   2.960   1.024   2.198
  466SOL    HW2 1534   3.062   1.044   2.088
  467SOL     OW 1535   0.835   1.677   2.818
  467SOL    HW1 1536   0.885   1.747   2.775
  467SOL    HW2 1537   0.898   1.605   2.826
  468SOL     OW 1538   3.267   1.174   2.722
  468SOL    HW1 1539   3.315   1.252   2.749
  468SOL    HW2 1540   3.230   1.196   2.637
  469SOL     OW 1541   0.136   0.265   3.714
  469SOL    HW1 1542   0.040   0.265   3.708
  469SOL    HW2 1543   0.161   0.174   3.700
  470SOL     OW 1544   1.456   0.475   0.080
  470SOL    HW1 1545   1.515   0.534   0.034
  470SOL    HW2 1546   1.370   0.491   0.042
  471SOL     OW 1547   1.658   0.597   0.511
  471SOL    HW1 1548   1.629   0.665   0.450
  471SOL    HW2 1549   1.588   0.594   0.577
  472SOL     OW 1550   0.534   2.196   3.774
  472SOL    HW1 1551   0.530   2.194   3.678
  472SOL    HW2 1552   0.546   2.104   3.799
  473SOL     OW 1553  -0.001   2.727   3.866
  473SOL    HW1 1554   0.034   2.691   3.785
  473SOL    HW2 1555   0.074   2.731   3.925
  474SOL     OW 1556   3.204   3.478   1.316
  474SOL    HW1 1557   3.129   3.523   1.278
  474SOL    HW2 1558   3.275   3.492   1.254
  475SOL     OW 1559   0.133   1.564   1.311
  475SOL    HW1 1560   0.143   1.534   1.401
  475SOL    HW2 1561   0.193   1.509   1.260
  476SOL     OW 1562   0.820   3.088   1.242
  476SOL    HW1 1563   0.864   3.139   1.310
  476SOL    HW2 1564   0.848   2.998   1.257
  477SOL     OW 1565   0.654   1.817   2.534
  477SOL    HW1 1566   0.587   1.882   2.516
  477SOL    HW2 1567   0.609   1.732   2.525
  478SOL     OW 1568   2.117   2.705   3.630
  478SOL    HW1 1569   2.103   2.644   3.703
  478SOL    HW2 1570   2.032   2.708   3.585
  479SOL     OW 1571   0.495   2.377   2.893
  479SOL    HW1 1572   0.430   2.314   2.861
  479SOL    HW2 1573   0.573   2.324   2.909
  480SOL     OW 1574   3.053   3.669   2.439
  480SOL    HW1 1575   3.079   3.607   2.371
  480SOL    HW2 1576   2.973   3.710   2.405
  481SOL     OW 1577   3.422   2.184   3.387
  481SOL    HW1 1578   3.467   2.100   3.394
  481SOL    HW2 1579   3.342   2.164   3.339
  482SOL     OW 1580   2.820   3.301   0.240
  482SOL    HW1 1581   2.858   3.385   0.215
  482SOL    HW2 1582   2.745   3.325   0.295
  483SOL     OW 1583   0.415   0.460   3.981
  483SOL    HW1 1584   0.457   0.416   3.907
  483SOL    HW2 1585   0.337   0.500   3.944
  484SOL     OW 1586   3.280   1.251   3.172
  484SOL    HW1 1587   3.243   1.177   3.220
  484SOL    HW2 1588   3.344   1.289   3.232
  485SOL     OW 1589   0.324   2.006   1.063
  485SOL    HW1 1590   0.406   1.984   1.021
  485SOL    HW2 1591   0.346   2.013   1.156
  486SOL     OW 1592   2.371   0.284   0.888
  486SOL    HW1 1593   2.421   0.203   0.890
  486SOL    HW2 1594   2.294   0.266   0.943
  487SOL     OW 1595   2.402   2.890   2.334
  487SOL    HW1 1596   2.460   2.846   2.272
  487SOL    HW2 1597   2.461   2.930   2.398
  488SOL     OW 1598   3.058   2.076   2.112
  488SOL    HW1 1599   2.969   2.041   2.102
  488SOL    HW2 1600   3.109   2.031   2.045
  489SOL     OW 1601   0.231   3.118   2.867
  489SOL    HW1 1602   0.240   3.023   2.874
  489SOL    HW2 1603   0.157   3.140   2.924
  490SOL     OW 1604   2.317   2.525   2.653
  490SOL    HW1 1605   2.282   2.575   2.579
  490SOL    HW2 1606   2.338   2.439   2.617
  491SOL     OW 1607   1.141   1.936   0.804
  491SOL    HW1 1608   1.219   1.883   0.787
  491SOL    HW2 1609   1.082   1.878   0.853
  492SOL     OW 1610   0.757   3.192   1.825
  492SOL    HW1 1611   0.673   3.227   1.795
  492SOL    HW2 1612   0.740   3.161   1.914
  493SOL     OW 1613   2.148   2.205   2.895
  493SOL    HW1 1614   2.125   2.163   2.812
  493SOL    HW2 1615   2.244   2.207   2.895
  494SOL     OW 1616   3.269   3.749   1.152
  494SOL    HW1 1617   3.263   3.841   1.178
  494SOL    HW2 1618   3.188   3.709   1.182
  495SOL     OW 1619   0.885   1.441   2.161
  495SOL    HW1 1620   0.916   1.406   2.078
  495SOL    HW2 1621   0.924   1.384   2.227
  496SOL     OW 1622   3.837   2.440   0.847
  496SOL    HW1 1623   3.905   2.498   0.880
  496SOL    HW2 1624   3.761   2.497   0.834
  497SOL     OW 1625   3.372   1.091   0.587
  497SOL    HW1 1626   3.289   1.066   0.628
  497SOL    HW2 1627   3.348   1.157   0.522
  498SOL     OW 1628   2.628   2.721   0.085
  498SOL    HW1 1629   2.611   2.635   0.047
  498SOL    HW2 1630   2.724   2.729   0.084
  499SOL     OW 1631   3.829   1.057   2.608
  499SOL    HW1 1632   3.847   0.971   2.570
  499SOL    HW2 1633   3.815   1.114   2.532
  500SOL     OW 1634   2.565   0.186   3.246
  500SOL    HW1 1635   2.653   0.200   3.210
  500SOL    HW2 1636   2.527   0.273   3.250
  501SOL     OW 1637   2.001   2.220   1.222
  501SOL    HW1 1638   1.925   2.271   1.249
  501SOL    HW2 1639   2.019   2.162   1.297
  502SOL     OW 1640   3.808   2.893   0.109
  502SOL    HW1 1641   3.873   2.824   0.123
  502SOL    HW2 1642   3.738   2.872   0.170
  503SOL     OW 1643   1.551   2.038   0.796
  503SOL    HW1 1644   1.506   2.069   0.874
  503SOL    HW2 1645   1.644   2.042   0.819
  504SOL     OW 1646   1.711   1.539   0.877
  504SOL    HW1 1647   1.651   1.465   0.886
  504SOL    HW2 1648   1.735   1.562   0.967
  505SOL     OW 1649   0.730   1.921   0.451
  505SOL    HW1 1650   0.779   2.001   0.433
  505SOL    HW2 1651   0.783   1.874   0.515
  506SOL     OW 1652   3.331   2.911   1.755
  506SOL    HW1 1653   3.265   2.923   1.823
  506SOL    HW2 1654   3.335   2.995   1.709
  507SOL     OW 1655   0.663   3.746   2.401
  507SOL    HW1 1656   0.668   3.825   2.456
  507SOL    HW2 1657   0.649   3.675   2.463
  508SOL     OW 1658   0.990   0.093   0.269
  508SOL    HW1 1659   0.925   0.076   0.201
  508SOL    HW2 1660   0.968   0.033   0.340
  509SOL     OW 1661   2.286   2.102   2.012
  509SOL    HW1 1662   2.350   2.118   1.943
  509SOL    HW2 1663   2.201   2.109   1.967
  510SOL     OW 1664   2.195   0.244   1.089
  510SOL    HW1 1665   2.223   0.177   1.152
  510SOL    HW2 1666   2.110   0.274   1.121
  511SOL     OW 1667   2.589   0.688   0.414
  511SOL    HW1 1668   2.648   0.751   0.373
  511SOL    HW2 1669   2.647   0.627   0.460
  512SOL     OW 1670   2.638   3.061   0.047
  512SOL    HW1 1671   2.575   3.079   0.116
  512SOL    HW2 1672   2.678   2.978   0.072
  513SOL     OW 1673   1.242   3.666   0.854
  513SOL    HW1 1674   1.171   3.622   0.902
  513SOL    HW2 1675   1.284   3.722   0.919
  514SOL     OW 1676   1.647   2.533   3.777
  514SOL    HW1 1677   1.612   2.540   3.865
  514SOL    HW2 1678   1.581   2.484   3.728
  515SOL     OW 1679   1.377   0.659   0.688
  515SOL    HW1 1680   1.333   0.652   0.603
  515SOL    HW2 1681   1.340   0.587   0.740
  516SOL     OW 1682   0.472   3.750   1.414
  516SOL    HW1 1683   0.390   3.702   1.420
  516SOL    HW2 1684   0.463   3.822   1.477
  517SOL     OW 1685   3.515   2.483   1.425
  517SOL    HW1 1686   3.542   2.527   1.506
  517SOL    HW2 1687   3.518   2.390   1.446
  518SOL     OW 1688   0.634   2.964   1.637
  518SOL    HW1 1689   0.703   2.904   1.663
  518SOL    HW2 1690   0.587   2.984   1.718
  519SOL     OW 1691   1.637   0.649   2.421
  519SOL    HW1 1692   1.586   0.569   2.407
  519SOL    HW2 1693   1.722   0.617   2.452
  520SOL     OW 1694   2.063   3.903   0.406
  520SOL    HW1 1695   2.042   3.893   0.498
  520SOL    HW2 1696   1.979   3.892   0.361
  521SOL     OW 1697   1.898   2.219   3.490
  521SOL    HW1 1698   1.894   2.293   3.429
  521SOL    HW2 1699   1.987   2.185   3.481
  522SOL     OW 1700   1.437   3.980   2.401
  522SOL    HW1 1701   1.444   3.896   2.447
  522SOL    HW2 1702   1.381   3.960   2.325
  523SOL     OW 1703   0.253   2.678   0.454
  523SOL    HW1 1704   0.336   2.638   0.430
  523SOL    HW2 1705   0.276   2.767   0.480
  524SOL     OW 1706   2.069   3.362   0.233
  524SOL    HW1 1707   2.144   3.303   0.229
  524SOL    HW2 1708   2.032   3.347   0.320
  525SOL     OW 1709   0.606   0.186   2.224
  525SOL    HW1 1710   0.569   0.204   2.138
  525SOL    HW2 1711   0.563   0.106   2.253
  526SOL     OW 1712   3.560   2.158   1.540
  526SOL    HW1 1713   3.484   2.216   1.546
  526SOL    HW2 1714   3.542   2.103   1.463
  527SOL     OW 1715   2.950   1.001   3.185
  527SOL    HW1 1716   3.019   1.050   3.229
  527SOL    HW2 1717   2.904   1.067   3.133
  528SOL     OW 1718   1.949   1.288   2.749
  528SOL    HW1 1719   1.873   1.241   2.712
  528SOL    HW2 1720   1.996   1.221   2.799
  529SOL     OW 1721   2.029   2.808   1.877
  529SOL    HW1 1722   1.946   2.792   1.921
  529SOL    HW2 1723   2.023   2.757   1.796
  530SOL     OW 1724   3.254   2.563   0.053
  530SOL    HW1 1725   3.309   2.626   0.005
  530SOL    HW2 1726   3.166   2.575   0.017
  531SOL     OW 1727   3.316   0.580   2.950
  531SOL    HW1 1728   3.407   0.595   2.976
  531SOL    HW2 1729   3.264   0.624   3.018
  532SOL     OW 1730   3.684   0.392   1.323
  532SOL    HW1 1731   3.602   0.421   1.361
  532SOL    HW2 1732   3.681   0.296   1.326
  533SOL     OW 1733   3.293   0.249   0.517
  533SOL    HW1 1734   3.256   0.199   0.444
  533SOL    HW2 1735   3.380   0.275   0.487
  534SOL     OW 1736   2.510   3.563   2.618
  534SOL    HW1 1737   2.582   3.605   2.572
  534SOL    HW2 1738   2.542   3.475   2.639
  535SOL     OW 1739   0.017   2.260   1.211
  535SOL    HW1 1740   0.104   2.299   1.205
  535SOL    HW2 1741  -0.039   2.318   1.159
  536SOL     OW 1742   0.783   3.839   3.092
  536SOL    HW1 1743   0.843   3.905   3.126
  536SOL    HW2 1744   0.816   3.756   3.124
  537SOL     OW 1745   3.923   1.554   0.184
  537SOL    HW1 1746   3.964   1.598   0.259
  537SOL    HW2 1747   3.957   1.465   0.187
  538SOL     OW 1748   3.766   0.280   0.206
  538SOL    HW1 1749   3.852   0.243   0.189
  538SOL    HW2 1750   3.772   0.370   0.172
  539SOL     OW 1751   2.590   2.026   3.444
  539SOL    HW1 1752   2.612   2.117   3.459
  539SOL    HW2 1753   2.634   1.978   3.514
  540SOL     OW 1754   1.152   2.012   3.576
  540SOL    HW1 1755   1.132   1.919   3.582
  540SOL    HW2 1756   1.237   2.021   3.619
  541SOL     OW 1757   2.684   3.779   3.731
  541SOL    HW1 1758   2.722   3.704   3.775
  541SOL    HW2 1759   2.590   3.774   3.751
  542SOL     OW 1760   3.412   2.300   3.969
  542SOL    HW1 1761   3.439   2.363   3.902
  542SOL    HW2 1762   3.490   2.248   3.986
  543SOL     OW 1763   2.589   1.886   2.834
  543SOL    HW1 1764   2.584   1.865   2.928
  543SOL    HW2 1765   2.611   1.803   2.792
  544SOL     OW 1766   3.210   0.665   2.682
  544SOL    HW1 1767   3.266   0.628   2.750
  544SOL    HW2 1768   3.140   0.601   2.670
  545SOL     OW 1769   2.748   2.585   2.192
  545SOL    HW1 1770   2.820   2.645   2.211
  545SOL    HW2 1771   2.778   2.500   2.226
  546SOL     OW 1772   1.379   3.372   3.620
  546SOL    HW1 1773   1.329   3.427   3.559
  546SOL    HW2 1774   1.320   3.299   3.640
  547SOL     OW 1775   3.927   1.032   0.096
  547SOL    HW1 1776   3.835   1.037   0.071
  547SOL    HW2 1777   3.932   0.959   0.158
  548SOL     OW 1778   0.076   0.933   2.348
  548SOL    HW1 1779   0.118   0.897   2.270
  548SOL    HW2 1780   0.068   0.859   2.407
  549SOL     OW 1781   1.635   1.622   2.468
  549SOL    HW1 1782   1.667   1.558   2.404
  549SOL    HW2 1783   1.543   1.600   2.481
  550SOL     OW 1784   1.233   2.394   1.531
  550SOL    HW1 1785   1.308   2.359   1.484
  550SOL    HW2 1786   1.272   2.440   1.606
  551SOL     OW 1787   1.775   0.044   3.828
  551SOL    HW1 1788   1.727   0.125   3.812
  551SOL    HW2 1789   1.832   0.035   3.751
  552SOL     OW 1790   2.743   0.028   0.281
  552SOL    HW1 1791   2.673   0.093   0.278
  552SOL    HW2 1792   2.729  -0.026   0.203
  553SOL     OW 1793   0.692   1.189   2.468
  553SOL    HW1 1794   0.788   1.190   2.465
  553SOL    HW2 1795   0.669   1.266   2.519
  554SOL     OW 1796   0.032   2.165   2.448
  554SOL    HW1 1797   0.067   2.116   2.522
  554SOL    HW2 1798  -0.028   2.228   2.487
  555SOL     OW 1799   3.428   1.985   2.406
  555SOL    HW1 1800   3.450   2.030   2.325
  555SOL    HW2 1801   3.506   1.996   2.461
  556SOL     OW 1802   0.861   2.740   3.400
  556SOL    HW1 1803   0.811   2.795   3.461
  556SOL    HW2 1804   0.951   2.743   3.434
  557SOL     OW 1805   0.098   1.808   3.565
  557SOL    HW1 1806   0.110   1.759   3.484
  557SOL    HW2 1807   0.155   1.885   3.554
  558SOL     OW 1808   1.987   1.121   3.513
  558SOL    HW1 1809   2.024   1.114   3.601
  558SOL    HW2 1810   2.024   1.201   3.477
  559SOL     OW 1811   1.887   1.621   3.222
  559SOL    HW1 1812   1.880   1.562   3.147
  559SOL    HW2 1813   1.947   1.577   3.282
  560SOL     OW 1814   1.547   1.328   1.374
  560SOL    HW1 1815   1.525   1.258   1.312
  560SOL    HW2 1816   1.476   1.392   1.364
  561SOL     OW 1817   3.214   2.800   1.493
  561SOL    HW1 1818   3.232   2.801   1.587
  561SOL    HW2 1819   3.222   2.892   1.466
  562SOL     OW 1820   3.164   0.379   2.653
  562SOL    HW1 1821   3.174   0.342   2.740
  562SOL    HW2 1822   3.210   0.317   2.596
  563SOL     OW 1823   3.563   0.627   2.702
  563SOL    HW1 1824   3.558   0.703   2.644
  563SOL    HW2 1825   3.575   0.665   2.789
  564SOL     OW 1826   2.465   3.532   1.922
  564SOL    HW1 1827   2.393   3.470   1.933
  564SOL    HW2 1828   2.507   3.506   1.840
  565SOL     OW 1829   3.707   3.878   3.785
  565SOL    HW1 1830   3.662   3.795   3.765
  565SOL    HW2 1831   3.722   3.875   3.879
  566SOL     OW 1832   3.548   0.293   2.560
  566SOL    HW1 1833   3.532   0.277   2.653
  566SOL    HW2 1834   3.626   0.349   2.559
  567SOL     OW 1835   1.345   0.052   3.427
  567SOL    HW1 1836   1.334  -0.013   3.497
  567SOL    HW2 1837   1.439   0.068   3.423
  568SOL     OW 1838   3.171   0.309   1.988
  568SOL    HW1 1839   3.094   0.310   2.045
  568SOL    HW2 1840   3.135   0.304   1.900
  569SOL     OW 1841   1.279   1.252   1.619
  569SOL    HW1 1842   1.339   1.297   1.560
  569SOL    HW2 1843   1.315   1.164   1.628
  570SOL     OW 1844   3.571   3.874   0.769
  570SOL    HW1 1845   3.574   3.966   0.742
  570SOL    HW2 1846   3.506   3.834   0.710
  571SOL     OW 1847   1.882   0.919   2.970
  571SOL    HW1 1848   1.887   0.826   2.948
  571SOL    HW2 1849   1.834   0.958   2.896
  572SOL     OW 1850   1.257   0.228   1.065
  572SOL    HW1 1851   1.188   0.265   1.120
  572SOL    HW2 1852   1.338   0.248   1.111
  573SOL     OW 1853   1.580   1.736   1.173
  573SOL    HW1 1854   1.647   1.802   1.159
  573SOL    HW2 1855   1.506   1.784   1.212
  574SOL     OW 1856   1.159   1.697   1.369
  574SOL    HW1 1857   1.074   1.737   1.387
  574SOL    HW2 1858   1.217   1.733   1.436
  575SOL     OW 1859   0.573   2.834   1.028
  575SOL    HW1 1860   0.625   2.776   0.972
  575SOL    HW2 1861   0.638   2.886   1.076
  576SOL     OW 1862   0.397   1.236   3.577
  576SOL    HW1 1863   0.463   1.292   3.536
  576SOL    HW2 1864   0.431   1.219   3.665
  577SOL     OW 1865   1.131   2.809   0.561
  577SOL    HW1 1866   1.184   2.809   0.641
  577SOL    HW2 1867   1.111   2.902   0.546
  578SOL     OW 1868   2.968   2.921   2.047
  578SOL    HW1 1869   2.972   2.853   2.114
  578SOL    HW2 1870   2.930   2.877   1.971
  579SOL     OW 1871   1.324   1.462   1.404
  579SOL    HW1 1872   1.271   1.540   1.414
  579SOL    HW2 1873   1.293   1.422   1.322
  580SOL     OW 1874   0.944   3.488   2.261
  580SOL    HW1 1875   0.853   3.494   2.232
  580SOL    HW2 1876   0.988   3.439   2.191
  581SOL     OW 1877   0.170   3.397   2.212
  581SOL    HW1 1878   0.200   3.487   2.226
  581SOL    HW2 1879   0.222   3.365   2.139
  582SOL     OW 1880   2.982   2.973   1.164
  582SOL    HW1 1881   2.972   3.035   1.235
  582SOL    HW2 1882   2.920   3.002   1.097
  583SOL     OW 1883   1.109   0.824   3.119
  583SOL    HW1 1884   1.147   0.814   3.206
  583SOL    HW2 1885   1.144   0.907   3.087
  584SOL     OW 1886   2.220   3.393   3.128
  584SOL    HW1 1887   2.183   3.435   3.051
  584SOL    HW2 1888   2.209   3.299   3.112
  585SOL     OW 1889   2.538   0.874   3.014
  585SOL    HW1 1890   2.544   0.783   2.984
  585SOL    HW2 1891   2.461   0.909   2.968
  586SOL     OW 1892   1.791   1.038   2.460
  586SOL    HW1 1893   1.789   1.015   2.553
  586SOL    HW2 1894   1.701   1.062   2.439
  587SOL     OW 1895   0.970   1.085   2.769
  587SOL    HW1 1896   1.000   1.033   2.695
  587SOL    HW2 1897   0.900   1.033   2.809
  588SOL     OW 1898   3.459   0.191   1.223
  588SOL    HW1 1899   3.525   0.158   1.163
  588SOL    HW2 1900   3.404   0.115   1.242
  589SOL     OW 1901   2.952   3.116   3.785
  589SOL    HW1 1902   2.911   3.156   3.861
  589SOL    HW2 1903   2.917   3.164   3.710
  590SOL     OW 1904   0.159   1.725   0.346
  590SOL    HW1 1905   0.220   1.733   0.419
  590SOL    HW2 1906   0.197   1.777   0.276
  591SOL     OW 1907   2.454   0.906   0.563
  591SOL    HW1 1908   2.497   0.847   0.500
  591SOL    HW2 1909   2.421   0.848   0.632
  592SOL     OW 1910   1.629   1.225   3.847
  592SOL    HW1 1911   1.723   1.210   3.859
  592SOL    HW2 1912   1.589   1.139   3.862
  593SOL     OW 1913   3.018   2.260   3.533
  593SOL    HW1 1914   3.057   2.180   3.568
  593SOL    HW2 1915   3.047   2.328   3.593
  594SOL     OW 1916   1.740   0.298   0.905
  594SOL    HW1 1917   1.759   0.287   0.812
  594SOL    HW2 1918   1.772   0.385   0.926
  595SOL     OW 1919   2.383   3.078   1.941
  595SOL    HW1 1920   2.385   2.984   1.923
  595SOL    HW2 1921   2.423   3.086   2.028
  596SOL     OW 1922   1.419   3.017   0.081
  596SOL    HW1 1923   1.471   3.077   0.027
  596SOL    HW2 1924   1.359   3.074   0.129
  597SOL     OW 1925   3.188   0.368   1.709
  597SOL    HW1 1926   3.226   0.455   1.694
  597SOL    HW2 1927   3.142   0.348   1.627
  598SOL     OW 1928   0.326   3.253   3.299
  598SOL    HW1 1929   0.378   3.209   3.232
  598SOL    HW2 1930   0.388   3.268   3.371
  599SOL     OW 1931   3.079   1.705   1.467
  599SOL    HW1 1932   3.015   1.691   1.536
  599SOL    HW2 1933   3.102   1.617   1.436
  600SOL     OW 1934   1.624   2.088   1.703
  600SOL    HW1 1935   1.679   2.154   1.661
  600SOL    HW2 1936   1.657   2.005   1.670
  601SOL     OW 1937   3.024   3.127   0.307
  601SOL    HW1 1938   2.973   3.208   0.300
  601SOL    HW2 1939   3.094   3.137   0.242
  602SOL     OW 1940   2.466   1.414   2.799
  602SOL    HW1 1941   2.386   1.378   2.761
  602SOL    HW2 1942   2.457   1.399   2.893
  603SOL     OW 1943   1.158   1.524   2.245
  603SOL    HW1 1944   1.155   1.618   2.226
  603SOL    HW2 1945   1.084   1.488   2.195
  604SOL     OW 1946   1.146   1.237   1.114
  604SOL    HW1 1947   1.077   1.202   1.170
  604SOL    HW2 1948   1.153   1.330   1.139
  605SOL     OW 1949   2.382   0.409   1.456
  605SOL    HW1 1950   2.313   0.457   1.410
  605SOL    HW2 1951   2.339   0.330   1.488
  606SOL     OW 1952   0.914   2.124   0.443
  606SOL    HW1 1953   1.001   2.157   0.421
  606SOL    HW2 1954   0.856   2.199   0.429
  607SOL     OW 1955   1.381   3.757   1.163
  607SOL    HW1 1956   1.445   3.726   1.099
  607SOL    HW2 1957   1.432   3.803   1.229
  608SOL     OW 1958   1.881   1.431   3.033
  608SOL    HW1 1959   1.918   1.468   2.953
  608SOL    HW2 1960   1.949   1.372   3.066
  609SOL     OW 1961   2.858   3.249   0.855
  609SOL    HW1 1962   2.932   3.210   0.810
  609SOL    HW2 1963   2.819   3.177   0.904
  610SOL     OW 1964   2.848   1.870   1.789
  610SOL    HW1 1965   2.871   1.777   1.789
  610SOL    HW2 1966   2.829   1.890   1.881
  611SOL     OW 1967   0.768   1.642   0.226
  611SOL    HW1 1968   0.835   1.648   0.158
  611SOL    HW2 1969   0.816   1.626   0.307
  612SOL     OW 1970   0.415   2.615   2.750
  612SOL    HW1 1971   0.419   2.528   2.789
  612SOL    HW2 1972   0.507   2.642   2.744
  613SOL     OW 1973   0.684   0.974   3.730
  613SOL    HW1 1974   0.589   0.966   3.721
  613SOL    HW2 1975   0.699   0.973   3.825
  614SOL     OW 1976   3.916   3.898   2.459
  614SOL    HW1 1977   3.878   3.915   2.545
  614SOL    HW2 1978   4.004   3.937   2.464
  615SOL     OW 1979   3.876   0.107   3.164
  615SOL    HW1 1980   3.891   0.199   3.140
  615SOL    HW2 1981   3.789   0.088   3.131
  616SOL     OW 1982   0.411   2.200   1.711
  616SOL    HW1 1983   0.386   2.279   1.758
  616SOL    HW2 1984   0.406   2.131   1.776
  617SOL     OW 1985   2.970   1.328   2.099
  617SOL    HW1 1986   2.925   1.261   2.048
  617SOL    HW2 1987   2.907   1.353   2.167
  618SOL     OW 1988   2.677   1.194   2.802
  618SOL    HW1 1989   2.671   1.108   2.759
  618SOL    HW2 1990   2.633   1.254   2.742
  619SOL     OW 1991   3.500   2.138   2.210
  619SOL    HW1 1992   3.582   2.093   2.186
  619SOL    HW2 1993   3.460   2.160   2.126
  620SOL     OW 1994   2.757   2.260   3.495
  620SOL    HW1 1995   2.730   2.321   3.564
  620SOL    HW2 1996   2.847   2.237   3.518
  621SOL     OW 1997   1.144   1.077   2.989
  621SOL    HW1 1998   1.088   1.086   2.912
  621SOL    HW2 1999   1.218   1.136   2.972
  622SOL     OW 2000   2.690   2.072   0.329
  622SOL    HW1 2001   2.626   2.053   0.398
  622SOL    HW2 2002   2.653   2.148   0.283
  623SOL     OW 2003   1.952   0.067   3.627
  623SOL    HW1 2004   1.973  -0.026   3.622
  623SOL    HW2 2005   2.037   0.109   3.644
  624SOL     OW 2006   3.014   0.936   0.119
  624SOL    HW1 2007   3.072   0.996   0.072
  624SOL    HW2 2008   3.056   0.851   0.110
  625SOL     OW 2009   0.881   0.397   0.157
  625SOL    HW1 2010   0.836   0.478   0.132
  625SOL    HW2 2011   0.853   0.333   0.092
  626SOL     OW 2012   0.449   0.674   0.384
  626SOL    HW1 2013   0.386   0.743   0.368
  626SOL    HW2 2014   0.397   0.594   0.386
  627SOL     OW 2015   3.536   3.809   2.679
  627SOL    HW1 2016   3.593   3.743   2.640
  627SOL    HW2 2017   3.459   3.810   2.622
  628SOL     OW 2018   1.365   2.070   1.746
  628SOL    HW1 2019   1.454   2.098   1.722
  628SOL    HW2 2020   1.312   2.091   1.670
  629SOL     OW 2021   0.296   0.790   0.079
  629SOL    HW1 2022   0.236   0.728   0.119
  629SOL    HW2 2023   0.334   0.838   0.154
  630SOL     OW 2024   1.459   2.340   1.422
  630SOL    HW1 2025   1.555   2.340   1.424
  630SOL    HW2 2026   1.437   2.322   1.331
  631SOL     OW 2027   3.174   0.770   1.746
  631SOL    HW1 2028   3.187   0.733   1.834
  631SOL    HW2 2029   3.098   0.723   1.712
  632SOL     OW 2030   3.353   2.625   0.492
  632SOL    HW1 2031   3.314   2.680   0.425
  632SOL    HW2 2032   3.279   2.600   0.548
  633SOL     OW 2033   0.927   2.659   3.882
  633SOL    HW1 2034   0.930   2.723   3.953
  633SOL    HW2 2035   1.005   2.677   3.830
  634SOL     OW 2036   2.434   0.265   3.942
  634SOL    HW1 2037   2.356   0.214   3.920
  634SOL    HW2 2038   2.419   0.350   3.901
  635SOL     OW 2039   0.515   3.883   1.957
  635SOL    HW1 2040   0.429   3.842   1.953
  635SOL    HW2 2041   0.500   3.974   1.935
  636SOL     OW 2042   0.649   2.433   1.627
  636SOL    HW1 2043   0.634   2.363   1.564
  636SOL    HW2 2044   0.735   2.468   1.605
  637SOL     OW 2045   0.784   2.412   1.107
  637SOL    HW1 2046   0.817   2.491   1.151
  637SOL    HW2 2047   0.693   2.432   1.086
  638SOL     OW 2048   1.294   0.716   2.224
  638SOL    HW1 2049   1.287   0.648   2.291
  638SOL    HW2 2050   1.376   0.760   2.244
  639SOL     OW 2051   0.817   0.400   2.575
  639SOL    HW1 2052   0.763   0.476   2.551
  639SOL    HW2 2053   0.755   0.338   2.614
  640SOL     OW 2054   1.066   2.353   1.314
  640SOL    HW1 2055   1.146   2.394   1.347
  640SOL    HW2 2056   1.009   2.348   1.391
  641SOL     OW 2057   0.193   2.288   0.614
  641SOL    HW1 2058   0.275   2.279   0.566
  641SOL    HW2 2059   0.216   2.268   0.705
  642SOL     OW 2060   0.127   0.509   1.050
  642SOL    HW1 2061   0.124   0.431   0.995
  642SOL    HW2 2062   0.098   0.478   1.136
  643SOL     OW 2063   3.182   3.642   0.451
  643SOL    HW1 2064   3.091   3.655   0.476
  643SOL    HW2 2065   3.185   3.553   0.416
  644SOL     OW 2066   1.772   2.524   3.338
  644SOL    HW1 2067   1.835   2.515   3.267
  644SOL    HW2 2068   1.788   2.610   3.375
  645SOL     OW 2069   1.082   2.865   1.232
  645SOL    HW1 2070   1.073   2.851   1.326
  645SOL    HW2 2071   1.089   2.777   1.194
  646SOL     OW 2072   0.380   2.487   0.348
  646SOL    HW1 2073   0.440   2.442   0.289
  646SOL    HW2 2074   0.293   2.472   0.311
  647SOL     OW 2075   3.879   0.046   0.778
  647SOL    HW1 2076   3.795   0.087   0.756
  647SOL    HW2 2077   3.944   0.114   0.760
  648SOL     OW 2078   1.089   3.176   2.446
  648SOL    HW1 2079   1.040   3.105   2.488
  648SOL    HW2 2080   1.057   3.255   2.488
  649SOL     OW 2081   1.240   2.870   2.152
  649SOL    HW1 2082   1.320   2.859   2.203
  649SOL    HW2 2083   1.219   2.781   2.122
  650SOL     OW 2084   1.182   2.201   0.364
  650SOL    HW1 2085   1.145   2.255   0.294
  650SOL    HW2 2086   1.266   2.243   0.384
  651SOL     OW 2087   3.353   3.663   1.909
  651SOL    HW1 2088   3.370   3.572   1.888
  651SOL    HW2 2089   3.262   3.664   1.940
  652SOL     OW 2090   0.346   3.690   2.571
  652SOL    HW1 2091   0.390   3.608   2.595
  652SOL    HW2 2092   0.395   3.758   2.616
  653SOL     OW 2093   1.335   2.472   1.092
  653SOL    HW1 2094   1.422   2.498   1.062
  653SOL    HW2 2095   1.317   2.531   1.165
  654SOL     OW 2096   1.688   1.109   1.512
  654SOL    HW1 2097   1.669   1.198   1.481
  654SOL    HW2 2098   1.761   1.080   1.458
  655SOL     OW 2099   3.918   2.667   1.033
  655SOL    HW1 2100   3.856   2.611   1.080
  655SOL    HW2 2101   4.001   2.653   1.078
  656SOL     OW 2102   3.414   3.404   1.858
  656SOL    HW1 2103   3.480   3.440   1.798
  656SOL    HW2 2104   3.456   3.327   1.896
  657SOL     OW 2105   0.368   0.926   3.137
  657SOL    HW1 2106   0.324   0.882   3.210
  657SOL    HW2 2107   0.329   0.888   3.059
  658SOL     OW 2108   3.925   1.507   0.816
  658SOL    HW1 2109   3.892   1.557   0.741
  658SOL    HW2 2110   3.928   1.416   0.785
  659SOL     OW 2111   2.133   1.928   3.249
  659SOL    HW1 2112   2.212   1.938   3.302
  659SOL    HW2 2113   2.127   1.835   3.232
  660SOL     OW 2114   3.008   0.876   0.408
  660SOL    HW1 2115   3.044   0.873   0.319
  660SOL    HW2 2116   2.982   0.967   0.420
  661SOL     OW 2117   0.565   1.219   1.002
  661SOL    HW1 2118   0.532   1.300   0.963
  661SOL    HW2 2119   0.579   1.241   1.095
  662SOL     OW 2120   0.256   3.015   0.458
  662SOL    HW1 2121   0.343   2.977   0.447
  662SOL    HW2 2122   0.228   3.038   0.369
  663SOL     OW 2123   1.772   3.078   2.463
  663SOL    HW1 2124   1.719   3.145   2.420
  663SOL    HW2 2125   1.841   3.056   2.400
  664SOL     OW 2126   0.399   2.515   3.104
  664SOL    HW1 2127   0.441   2.441   3.060
  664SOL    HW2 2128   0.322   2.533   3.051
  665SOL     OW 2129   0.642   3.000   3.225
  665SOL    HW1 2130   0.616   3.058   3.153
  665SOL    HW2 2131   0.693   3.056   3.284
  666SOL     OW 2132   2.736   1.869   0.574
  666SOL    HW1 2133   2.769   1.847   0.661
  666SOL    HW2 2134   2.813   1.861   0.517
  667SOL     OW 2135   2.224   0.121   3.514
  667SOL    HW1 2136   2.275   0.068   3.453
  667SOL    HW2 2137   2.286   0.142   3.584
  668SOL     OW 2138   2.495   2.547   1.774
  668SOL    HW1 2139   2.435   2.613   1.738
  668SOL    HW2 2140   2.536   2.508   1.697
  669SOL     OW 2141   3.689   3.591   2.642
  669SOL    HW1 2142   3.643   3.511   2.618
  669SOL    HW2 2143   3.746   3.609   2.567
  670SOL     OW 2144   2.086   3.633   0.206
  670SOL    HW1 2145   2.037   3.656   0.285
  670SOL    HW2 2146   2.071   3.539   0.195
  671SOL     OW 2147   3.626   2.611   2.404
  671SOL    HW1 2148   3.631   2.643   2.494
  671SOL    HW2 2149   3.574   2.531   2.409
  672SOL     OW 2150   1.282   2.736   2.655
  672SOL    HW1 2151   1.357   2.680   2.635
  672SOL    HW2 2152   1.252   2.707   2.741
  673SOL     OW 2153   2.726   2.606   2.751
  673SOL    HW1 2154   2.677   2.557   2.686
  673SOL    HW2 2155   2.815   2.612   2.715
  674SOL     OW 2156   2.094   3.222   1.522
  674SOL    HW1 2157   2.002   3.203   1.503
  674SOL    HW2 2158   2.140   3.141   1.502
  675SOL     OW 2159   3.748   1.701   1.687
  675SOL    HW1 2160   3.732   1.607   1.694
  675SOL    HW2 2161   3.778   1.714   1.597
  676SOL     OW 2162   0.916   2.152   1.042
  676SOL    HW1 2163   0.977   2.154   1.116
  676SOL    HW2 2164   0.851   2.219   1.063
  677SOL     OW 2165   2.246   1.383   2.620
  677SOL    HW1 2166   2.230   1.434   2.541
  677SOL    HW2 2167   2.161   1.346   2.643
  678SOL     OW 2168   3.707   2.320   0.372
  678SOL    HW1 2169   3.680   2.229   0.353
  678SOL    HW2 2170   3.733   2.319   0.464
  679SOL     OW 2171   2.662   2.461   3.942
  679SOL    HW1 2172   2.580   2.466   3.892
  679SOL    HW2 2173   2.727   2.433   3.878
  680SOL     OW 2174   2.495   1.122   2.307
  680SOL    HW1 2175   2.581   1.095   2.276
  680SOL    HW2 2176   2.505   1.215   2.327
  681SOL     OW 2177   3.276   3.801   0.290
  681SOL    HW1 2178   3.249   3.737   0.357
  681SOL    HW2 2179   3.210   3.870   0.296
  682SOL     OW 2180   0.955   0.283   1.625
  682SOL    HW1 2181   0.964   0.361   1.569
  682SOL    HW2 2182   1.028   0.289   1.687
  683SOL     OW 2183   1.562   2.538   0.066
  683SOL    HW1 2184   1.467   2.548   0.068
  683SOL    HW2 2185   1.586   2.518   0.157
  684SOL     OW 2186   0.503   1.801   1.502
  684SOL    HW1 2187   0.564   1.774   1.571
  684SOL    HW2 2188   0.416   1.783   1.539
  685SOL     OW 2189   1.822   0.377   3.701
  685SOL    HW1 2190   1.808   0.312   3.632
  685SOL    HW2 2191   1.770   0.453   3.674
  686SOL     OW 2192   3.829   0.212   1.909
  686SOL    HW1 2193   3.784   0.155   1.847
  686SOL    HW2 2194   3.856   0.288   1.858
  687SOL     OW 2195   1.402   0.440   2.906
  687SOL    HW1 2196   1.408   0.500   2.831
  687SOL    HW2 2197   1.332   0.379   2.881
  688SOL     OW 2198   3.628   0.126   2.373
  688SOL    HW1 2199   3.583   0.179   2.439
  688SOL    HW2 2200   3.718   0.160   2.372
  689SOL     OW 2201   2.086   3.054   0.919
  689SOL    HW1 2202   1.992   3.069   0.922
  689SOL    HW2 2203   2.121   3.125   0.865
  690SOL     OW 2204   3.558   2.718   1.183
  690SOL    HW1 2205   3.593   2.694   1.269
  690SOL    HW2 2206   3.464   2.724   1.196
  691SOL     OW 2207   1.868   1.972   2.127
  691SOL    HW1 2208   1.839   1.889   2.164
  691SOL    HW2 2209   1.963   1.970   2.138
  692SOL     OW 2210   3.616   2.245   0.638
  692SOL    HW1 2211   3.617   2.154   0.668
  692SOL    HW2 2212   3.701   2.280   0.666
  693SOL     OW 2213   1.488   1.936   3.297
  693SOL    HW1 2214   1.446   1.907   3.216
  693SOL    HW2 2215   1.580   1.911   3.287
  694SOL     OW 2216   0.422   1.069   2.388
  694SOL    HW1 2217   0.372   1.135   2.340
  694SOL    HW2 2218   0.442   1.109   2.472
  695SOL     OW 2219   0.435   3.438   1.158
  695SOL    HW1 2220   0.343   3.416   1.175
  695SOL    HW2 2221   0.482   3.409   1.236
  696SOL     OW 2222   1.090   3.540   3.653
  696SOL    HW1 2223   1.004   3.512   3.686
  696SOL    HW2 2224   1.137   3.568   3.731
  697SOL     OW 2225   2.474   3.916   2.308
  697SOL    HW1 2226   2.494   3.823   2.302
  697SOL    HW2 2227   2.474   3.946   2.217
  698SOL     OW 2228   3.961   0.737   2.834
  698SOL    HW1 2229   3.963   0.728   2.738
  698SOL    HW2 2230   3.945   0.648   2.866
  699SOL     OW 2231   3.827   2.376   3.660
  699SOL    HW1 2232   3.899   2.389   3.722
  699SOL    HW2 2233   3.855   2.303   3.606
  700SOL     OW 2234   0.509   1.270   2.922
  700SOL    HW1 2235   0.430   1.218   2.911
  700SOL    HW2 2236   0.554   1.229   2.996
  701SOL     OW 2237   1.214   0.214   3.269
  701SOL    HW1 2238   1.242   0.304   3.254
  701SOL    HW2 2239   1.276   0.180   3.334
  702SOL     OW 2240   2.532   2.830   2.578
  702SOL    HW1 2241   2.471   2.796   2.643
  702SOL    HW2 2242   2.533   2.925   2.593
  703SOL     OW 2243   0.557   2.380   0.161
  703SOL    HW1 2244   0.572   2.286   0.153
  703SOL    HW2 2245   0.612   2.419   0.093
  704SOL     OW 2246   1.104   1.929   3.886
  704SOL    HW1 2247   1.103   2.023   3.868
  704SOL    HW2 2248   1.040   1.892   3.825
  705SOL     OW 2249   1.617   1.346   1.866
  705SOL    HW1 2250   1.701   1.363   1.823
  705SOL    HW2 2251   1.554   1.395   1.813
  706SOL     OW 2252   1.263   0.678   0.061
  706SOL    HW1 2253   1.188   0.641   0.106
  706SOL    HW2 2254   1.225   0.739  -0.003
  707SOL     OW 2255   0.879   2.172   3.552
  707SOL    HW1 2256   0.925   2.252   3.528
  707SOL    HW2 2257   0.893   2.164   3.647
  708SOL     OW 2258   3.218   1.337   2.203
  708SOL    HW1 2259   3.275   1.388   2.145
  708SOL    HW2 2260   3.131   1.374   2.188
  709SOL     OW 2261   2.622   2.317   0.223
  709SOL    HW1 2262   2.660   2.381   0.163
  709SOL    HW2 2263   2.556   2.366   0.271
  710SOL     OW 2264   0.409   3.042   3.588
  710SOL    HW1 2265   0.468   3.115   3.571
  710SOL    HW2 2266   0.321   3.080   3.576
  711SOL     OW 2267   3.452   2.648   2.971
  711SOL    HW1 2268   3.422   2.628   2.882
  711SOL    HW2 2269   3.462   2.743   2.973
  712SOL     OW 2270   3.170   2.412   3.723
  712SOL    HW1 2271   3.220   2.373   3.795
  712SOL    HW2 2272   3.209   2.497   3.709
  713SOL     OW 2273   3.389   1.455   1.829
  713SOL    HW1 2274   3.382   1.546   1.800
  713SOL    HW2 2275   3.330   1.406   1.771
  714SOL     OW 2276   1.729   1.842   3.240
  714SOL    HW1 2277   1.766   1.771   3.188
  714SOL    HW2 2278   1.777   1.920   3.211
  715SOL     OW 2279   0.848   2.375   3.235
  715SOL    HW1 2280   0.752   2.377   3.242
  715SOL    HW2 2281   0.868   2.286   3.205
  716SOL     OW 2282   1.782   3.786   3.522
  716SOL    HW1 2283   1.867   3.774   3.566
  716SOL    HW2 2284   1.792   3.742   3.438
  717SOL     OW 2285   1.755   3.869   0.548
  717SOL    HW1 2286   1.821   3.818   0.595
  717SOL    HW2 2287   1.764   3.842   0.457
  718SOL     OW 2288   1.967   0.196   1.799
  718SOL    HW1 2289   1.984   0.188   1.705
  718SOL    HW2 2290   1.968   0.290   1.816
  719SOL     OW 2291   0.871   2.104   3.210
  719SOL    HW1 2292   0.822   2.052   3.147
  719SOL    HW2 2293   0.919   2.041   3.262
  720SOL     OW 2294   3.351   2.507   1.737
  720SOL    HW1 2295   3.272   2.455   1.749
  720SOL    HW2 2296   3.419   2.458   1.781
  721SOL     OW 2297   3.612   3.576   0.518
  721SOL    HW1 2298   3.589   3.504   0.576
  721SOL    HW2 2299   3.543   3.641   0.530
  722SOL     OW 2300   0.928   0.083   3.218
  722SOL    HW1 2301   1.018   0.115   3.210
  722SOL    HW2 2302   0.903   0.101   3.308
  723SOL     OW 2303   2.675   3.039   1.875
  723SOL    HW1 2304   2.615   2.979   1.830
  723SOL    HW2 2305   2.731   2.981   1.927
  724SOL     OW 2306   1.222   1.130   2.357
  724SOL    HW1 2307   1.259   1.143   2.270
  724SOL    HW2 2308   1.188   1.041   2.357
  725SOL     OW 2309   0.256  -0.012   2.422
  725SOL    HW1 2310   0.230   0.067   2.374
  725SOL    HW2 2311   0.330  -0.047   2.372
  726SOL     OW 2312   0.827   0.054   0.903
  726SOL    HW1 2313   0.853   0.106   0.826
  726SOL    HW2 2314   0.791   0.118   0.964
  727SOL     OW 2315   0.882   1.948   3.438
  727SOL    HW1 2316   0.888   2.031   3.485
  727SOL    HW2 2317   0.942   1.890   3.484
  728SOL     OW 2318   0.760   0.606   0.814
  728SOL    HW1 2319   0.851   0.606   0.784
  728SOL    HW2 2320   0.709   0.637   0.739
  729SOL     OW 2321   2.193   3.718   1.270
  729SOL    HW1 2322   2.121   3.725   1.333
  729SOL    HW2 2323   2.250   3.650   1.306
  730SOL     OW 2324   2.949   2.698   3.748
  730SOL    HW1 2325   2.955   2.643   3.826
  730SOL    HW2 2326   2.872   2.666   3.701
  731SOL     OW 2327   0.855   1.551   0.467
  731SOL    HW1 2328   0.841   1.485   0.536
  731SOL    HW2 2329   0.912   1.616   0.508
  732SOL     OW 2330   0.623   1.830   3.375
  732SOL    HW1 2331   0.615   1.891   3.302
  732SOL    HW2 2332   0.692   1.867   3.431
  733SOL     OW 2333   0.249   3.626   3.515
  733SOL    HW1 2334   0.219   3.615   3.424
  733SOL    HW2 2335   0.176   3.669   3.559
  734SOL     OW 2336   1.112   2.498   3.716
  734SOL    HW1 2337   1.035   2.467   3.669
  734SOL    HW2 2338   1.104   2.459   3.803
  735SOL     OW 2339   1.332   0.977   3.642
  735SOL    HW1 2340   1.281   0.919   3.584
  735SOL    HW2 2341   1.407   1.004   3.589
  736SOL     OW 2342   3.064   0.995   2.460
  736SOL    HW1 2343   3.101   0.910   2.484
  736SOL    HW2 2344   3.093   1.009   2.370
  737SOL     OW 2345   2.528   3.167   3.748
  737SOL    HW1 2346   2.571   3.101   3.693
  737SOL    HW2 2347   2.567   3.155   3.834
  738SOL     OW 2348   2.074   3.402   2.392
  738SOL    HW1 2349   2.170   3.405   2.397
  738SOL    HW2 2350   2.045   3.490   2.417
  739SOL     OW 2351   0.919   0.600   3.338
  739SOL    HW1 2352   0.865   0.527   3.366
  739SOL    HW2 2353   0.908   0.603   3.243
  740SOL     OW 2354   2.858   3.081   2.484
  740SOL    HW1 2355   2.820   2.995   2.464
  740SOL    HW2 2356   2.853   3.087   2.580
  741SOL     OW 2357   1.207   0.923   1.289
  741SOL    HW1 2358   1.120   0.890   1.309
  741SOL    HW2 2359   1.191   1.005   1.243
  742SOL     OW 2360   0.035   0.719   2.505
  742SOL    HW1 2361   0.119   0.676   2.494
  742SOL    HW2 2362  -0.029   0.656   2.471
  743SOL     OW 2363   2.880   0.417   1.058
  743SOL    HW1 2364   2.836   0.500   1.073
  743SOL    HW2 2365   2.829   0.374   0.989
  744SOL     OW 2366   1.820   0.806   3.840
  744SOL    HW1 2367   1.764   0.751   3.895
  744SOL    HW2 2368   1.844   0.879   3.896
  745SOL     OW 2369   3.002   1.670   2.886
  745SOL    HW1 2370   3.050   1.727   2.946
  745SOL    HW2 2371   2.983   1.592   2.938
  746SOL     OW 2372   3.663   2.662   3.772
  746SOL    HW1 2373   3.754   2.640   3.794
  746SOL    HW2 2374   3.622   2.678   3.857
  747SOL     OW 2375   0.971   2.582   2.571
  747SOL    HW1 2376   0.885   2.540   2.575
  747SOL    HW2 2377   0.982   2.621   2.658
  748SOL     OW 2378   2.666   2.112   0.916
  748SOL    HW1 2379   2.590   2.155   0.876
  748SOL    HW2 2380   2.724   2.184   0.940
  749SOL     OW 2381   3.408   3.141   1.114
  749SOL    HW1 2382   3.500   3.155   1.135
  749SOL    HW2 2383   3.385   3.213   1.055
  750SOL     OW 2384   1.572   0.413   1.663
  750SOL    HW1 2385   1.626   0.480   1.704
  750SOL    HW2 2386   1.557   0.348   1.732
  751SOL     OW 2387   2.646   2.860   2.884
  751SOL    HW1 2388   2.620   2.792   2.821
  751SOL    HW2 2389   2.732   2.831   2.915
  752SOL     OW 2390   1.492   2.015   1.399
  752SOL    HW1 2391   1.473   2.016   1.306
  752SOL    HW2 2392   1.518   2.105   1.420
  753SOL     OW 2393   1.280   0.408   1.555
  753SOL    HW1 2394   1.215   0.396   1.625
  753SOL    HW2 2395   1.364   0.399   1.600
  754SOL     OW 2396   3.332   0.779   1.438
  754SOL    HW1 2397   3.269   0.850   1.442
  754SOL    HW2 2398   3.388   0.800   1.363
  755SOL     OW 2399   2.394   2.954   0.012
  755SOL    HW1 2400   2.489   2.946  -0.002
  755SOL    HW2 2401   2.364   2.864   0.024
  756SOL     OW 2402   1.463   0.689   3.123
  756SOL    HW1 2403   1.437   0.619   3.062
  756SOL    HW2 2404   1.558   0.688   3.122
  757SOL     OW 2405   0.258   0.942   3.522
  757SOL    HW1 2406   0.215   0.962   3.438
  757SOL    HW2 2407   0.301   1.024   3.547
  758SOL     OW 2408   3.277   3.258   2.972
  758SOL    HW1 2409   3.219   3.284   2.901
  758SOL    HW2 2410   3.281   3.162   2.965
  759SOL     OW 2411   0.356   3.756   1.145
  759SOL    HW1 2412   0.372   3.687   1.210
  759SOL    HW2 2413   0.438   3.805   1.142
  760SOL     OW 2414   1.042   3.216   3.311
  760SOL    HW1 2415   1.049   3.292   3.367
  760SOL    HW2 2416   1.082   3.242   3.228
  761SOL     OW 2417   3.247   2.146   2.918
  761SOL    HW1 2418   3.255   2.182   2.830
  761SOL    HW2 2419   3.195   2.211   2.966
  762SOL     OW 2420   2.718   0.276   3.829
  762SOL    HW1 2421   2.768   0.194   3.822
  762SOL    HW2 2422   2.648   0.256   3.890
  763SOL     OW 2423   1.853   2.228   0.389
  763SOL    HW1 2424   1.783   2.284   0.354
  763SOL    HW2 2425   1.842   2.145   0.343
  764SOL     OW 2426   2.066   1.097   0.221
  764SOL    HW1 2427   2.045   1.176   0.272
  764SOL    HW2 2428   2.114   1.041   0.282
  765SOL     OW 2429   1.692   3.452   2.116
  765SOL    HW1 2430   1.785   3.474   2.122
  765SOL    HW2 2431   1.649   3.536   2.099
  766SOL     OW 2432   0.050   3.549   0.755
  766SOL    HW1 2433   0.069   3.643   0.763
  766SOL    HW2 2434   0.035   3.520   0.845
  767SOL     OW 2435   3.679   0.810   0.829
  767SOL    HW1 2436   3.608   0.759   0.868
  767SOL    HW2 2437   3.759   0.777   0.872
  768SOL     OW 2438   1.225   0.198   2.505
  768SOL    HW1 2439   1.181   0.125   2.547
  768SOL    HW2 2440   1.304   0.160   2.467
  769SOL     OW 2441   0.259   3.968   2.693
  769SOL    HW1 2442   0.261   3.967   2.597
  769SOL    HW2 2443   0.345   3.936   2.719
  770SOL     OW 2444   1.344   1.762   0.768
  770SOL    HW1 2445   1.425   1.811   0.757
  770SOL    HW2 2446   1.357   1.683   0.716
  771SOL     OW 2447   1.613   0.201   3.297
  771SOL    HW1 2448   1.575   0.289   3.305
  771SOL    HW2 2449   1.700   0.208   3.335
  772SOL     OW 2450   3.221   0.597   1.987
  772SOL    HW1 2451   3.159   0.607   2.059
  772SOL    HW2 2452   3.216   0.504   1.965
  773SOL     OW 2453   1.019   3.664   0.495
  773SOL    HW1 2454   0.948   3.727   0.508
  773SOL    HW2 2455   1.095   3.718   0.473
  774SOL     OW 2456   2.694   3.514   3.837
  774SOL    HW1 2457   2.697   3.483   3.747
  774SOL    HW2 2458   2.605   3.498   3.866
  775SOL     OW 2459   3.854   2.932   1.615
  775SOL    HW1 2460   3.902   2.852   1.594
  775SOL    HW2 2461   3.843   2.976   1.531
  776SOL     OW 2462   3.059   2.833   2.778
  776SOL    HW1 2463   2.992   2.828   2.846
  776SOL    HW2 2464   3.108   2.751   2.786
  777SOL     OW 2465   2.090   2.020   3.838
  777SOL    HW1 2466   2.145   1.941   3.839
  777SOL    HW2 2467   2.050   2.022   3.924
  778SOL     OW 2468   2.460   2.992   0.368
  778SOL    HW1 2469   2.550   3.019   0.349
  778SOL    HW2 2470   2.465   2.896   0.374
  779SOL     OW 2471   3.628   1.413   3.390
  779SOL    HW1 2472   3.575   1.334   3.397
  779SOL    HW2 2473   3.647   1.437   3.481
  780SOL     OW 2474   0.379   3.758   0.681
  780SOL    HW1 2475   0.413   3.673   0.707
  780SOL    HW2 2476   0.432   3.821   0.731
  781SOL     OW 2477   3.550   0.340   2.815
  781SOL    HW1 2478   3.530   0.434   2.807
  781SOL    HW2 2479   3.471   0.302   2.853
  782SOL     OW 2480   0.287   2.370   1.146
  782SOL    HW1 2481   0.288   2.461   1.115
  782SOL    HW2 2482   0.364   2.362   1.202
  783SOL     OW 2483   1.312   2.466   3.478
  783SOL    HW1 2484   1.288   2.421   3.559
  783SOL    HW2 2485   1.367   2.403   3.431
  784SOL     OW 2486   1.407   2.228   3.325
  784SOL    HW1 2487   1.457   2.146   3.330
  784SOL    HW2 2488   1.462   2.287   3.274
  785SOL     OW 2489   0.471   0.323   3.711
  785SOL    HW1 2490   0.411   0.328   3.637
  785SOL    HW2 2491   0.450   0.241   3.754
  786SOL     OW 2492   0.573   3.200   1.325
  786SOL    HW1 2493   0.655   3.154   1.341
  786SOL    HW2 2494   0.540   3.162   1.243
  787SOL     OW 2495   0.903   3.439   0.822
  787SOL    HW1 2496   0.841   3.390   0.875
  787SOL    HW2 2497   0.971   3.467   0.884
  788SOL     OW 2498   0.782   3.560   2.600
  788SOL    HW1 2499   0.849   3.518   2.544
  788SOL    HW2 2500   0.832   3.599   2.671
  789SOL     OW 2501   1.958   1.579   3.709
  789SOL    HW1 2502   1.920   1.639   3.645
  789SOL    HW2 2503   1.882   1.535   3.748
  790SOL     OW 2504   3.761   2.617   2.976
  790SOL    HW1 2505   3.678   2.610   3.024
  790SOL    HW2 2506   3.828   2.593   3.040
  791SOL     OW 2507   3.927   2.609   0.402
  791SOL    HW1 2508   3.907   2.645   0.489
  791SOL    HW2 2509   4.022   2.604   0.399
  792SOL     OW 2510   1.494   0.899   0.644
  792SOL    HW1 2511   1.465   0.807   0.646
  792SOL    HW2 2512   1.502   0.920   0.551
  793SOL     OW 2513   3.443   3.253   2.308
  793SOL    HW1 2514   3.382   3.258   2.382
  793SOL    HW2 2515   3.520   3.301   2.337
  794SOL     OW 2516   3.849   1.417   1.283
  794SOL    HW1 2517   3.936   1.457   1.280
  794SOL    HW2 2518   3.866   1.327   1.311
  795SOL     OW 2519   0.279   1.723   3.324
  795SOL    HW1 2520   0.270   1.768   3.240
  795SOL    HW2 2521   0.368   1.744   3.353
  796SOL     OW 2522   1.749   2.451   1.230
  796SOL    HW1 2523   1.687   2.475   1.162
  796SOL    HW2 2524   1.699   2.395   1.290
  797SOL     OW 2525   3.208   3.930   2.774
  797SOL    HW1 2526   3.211   3.882   2.691
  797SOL    HW2 2527   3.221   4.022   2.748
  798SOL     OW 2528   2.869   0.075   3.298
  798SOL    HW1 2529   2.815  -0.004   3.291
  798SOL    HW2 2530   2.905   0.086   3.210
  799SOL     OW 2531   2.848   0.044   3.772
  799SOL    HW1 2532   2.804  -0.038   3.749
  799SOL    HW2 2533   2.878   0.081   3.689
  800SOL     OW 2534   0.057   1.855   1.284
  800SOL    HW1 2535   0.051   1.903   1.201
  800SOL    HW2 2536   0.085   1.767   1.259
  801SOL     OW 2537   2.176   0.536   0.850
  801SOL    HW1 2538   2.206   0.584   0.773
  801SOL    HW2 2539   2.180   0.600   0.921
  802SOL     OW 2540   1.175   2.577   2.361
  802SOL    HW1 2541   1.122   2.607   2.435
  802SOL    HW2 2542   1.264   2.572   2.396
  803SOL     OW 2543   3.495   1.540   2.307
  803SOL    HW1 2544   3.480   1.513   2.216
  803SOL    HW2 2545   3.587   1.519   2.323
  804SOL     OW 2546   1.834   0.171   0.647
  804SOL    HW1 2547   1.788   0.108   0.592
  804SOL    HW2 2548   1.917   0.129   0.669
  805SOL     OW 2549   3.606   3.590   3.729
  805SOL    HW1 2550   3.542   3.650   3.766
  805SOL    HW2 2551   3.579   3.580   3.638
  806SOL     OW 2552   3.199   2.575   0.718
  806SOL    HW1 2553   3.138   2.501   0.727
  806SOL    HW2 2554   3.229   2.592   0.807
  807SOL     OW 2555   2.297   3.765   0.511
  807SOL    HW1 2556   2.230   3.817   0.468
  807SOL    HW2 2557   2.345   3.827   0.566
  808SOL     OW 2558   1.770   0.830   0.262
  808SOL    HW1 2559   1.842   0.772   0.237
  808SOL    HW2 2560   1.734   0.860   0.178
  809SOL     OW 2561   0.868   0.851   0.380
  809SOL    HW1 2562   0.783   0.883   0.409
  809SOL    HW2 2563   0.854   0.758   0.362
  810SOL     OW 2564   0.790   2.742   0.882
  810SOL    HW1 2565   0.823   2.762   0.795
  810SOL    HW2 2566   0.861   2.768   0.941
  811SOL     OW 2567   3.106   2.326   3.034
  811SOL    HW1 2568   3.039   2.330   2.966
  811SOL    HW2 2569   3.061   2.356   3.113
  812SOL     OW 2570   0.385   1.648   3.673
  812SOL    HW1 2571   0.379   1.743   3.664
  812SOL    HW2 2572   0.333   1.614   3.600
  813SOL     OW 2573   3.018   1.282   1.677
  813SOL    HW1 2574   2.983   1.201   1.638
  813SOL    HW2 2575   3.078   1.316   1.611
  814SOL     OW 2576   3.242   1.043   0.851
  814SOL    HW1 2577   3.152   1.021   0.828
  814SOL    HW2 2578   3.247   1.028   0.945
  815SOL     OW 2579   3.655   1.594   1.193
  815SOL    HW1 2580   3.679   1.598   1.285
  815SOL    HW2 2581   3.738   1.584   1.147
  816SOL     OW 2582   3.714   2.328   2.315
  816SOL    HW1 2583   3.642   2.281   2.273
  816SOL    HW2 2584   3.746   2.388   2.249
  817SOL     OW 2585   1.458   2.117   2.186
  817SOL    HW1 2586   1.428   2.151   2.102
  817SOL    HW2 2587   1.553   2.108   2.176
  818SOL     OW 2588   3.358   0.263   2.165
  818SOL    HW1 2589   3.310   0.280   2.084
  818SOL    HW2 2590   3.420   0.336   2.172
  819SOL     OW 2591   1.340   0.559   3.733
  819SOL    HW1 2592   1.435   0.569   3.729
  819SOL    HW2 2593   1.306   0.647   3.717
  820SOL     OW 2594   3.889   2.004   3.171
  820SOL    HW1 2595   3.829   1.933   3.148
  820SOL    HW2 2596   3.832   2.080   3.184
  821SOL     OW 2597   2.774   3.034   3.159
  821SOL    HW1 2598   2.824   3.101   3.206
  821SOL    HW2 2599   2.734   2.981   3.228
  822SOL     OW 2600   3.479   1.544   3.619
  822SOL    HW1 2601   3.517   1.630   3.634
  822SOL    HW2 2602   3.552   1.483   3.629
  823SOL     OW 2603   3.574   0.721   2.969
  823SOL    HW1 2604   3.620   0.801   2.945
  823SOL    HW2 2605   3.597   0.707   3.061
  824SOL     OW 2606   1.701   2.939   1.790
  824SOL    HW1 2607   1.689   2.955   1.884
  824SOL    HW2 2608   1.704   2.844   1.783
  825SOL     OW 2609   1.805   1.922   3.746
  825SOL    HW1 2610   1.751   1.882   3.678
  825SOL    HW2 2611   1.891   1.935   3.705
  826SOL     OW 2612   2.311   3.493   0.901
  826SOL    HW1 2613   2.373   3.551   0.856
  826SOL    HW2 2614   2.366   3.438   0.957
  827SOL     OW 2615   0.268   0.297   2.272
  827SOL    HW1 2616   0.244   0.380   2.231
  827SOL    HW2 2617   0.295   0.242   2.199
  828SOL     OW 2618   3.112   1.721   3.386
  828SOL    HW1 2619   3.019   1.730   3.406
  828SOL    HW2 2620   3.120   1.745   3.294
  829SOL     OW 2621   3.285   2.300   1.227
  829SOL    HW1 2622   3.268   2.223   1.281
  829SOL    HW2 2623   3.301   2.370   1.290
  830SOL     OW 2624   1.226   1.303   2.582
  830SOL    HW1 2625   1.237   1.259   2.498
  830SOL    HW2 2626   1.261   1.241   2.646
  831SOL     OW 2627   1.069   3.263   1.462
  831SOL    HW1 2628   1.132   3.333   1.477
  831SOL    HW2 2629   1.086   3.233   1.373
  832SOL     OW 2630   1.362   2.940   0.374
  832SOL    HW1 2631   1.305   2.863   0.369
  832SOL    HW2 2632   1.302   3.014   0.382
  833SOL     OW 2633   1.843   2.591   3.023
  833SOL    HW1 2634   1.924   2.638   3.004
  833SOL    HW2 2635   1.790   2.601   2.944
  834SOL     OW 2636   1.313   0.000   0.928
  834SOL    HW1 2637   1.273   0.082   0.957
  834SOL    HW2 2638   1.353  -0.036   1.007
  835SOL     OW 2639   1.761   3.503   0.583
  835SOL    HW1 2640   1.755   3.414   0.618
  835SOL    HW2 2641   1.776   3.491   0.489
  836SOL     OW 2642   0.980   3.522   1.241
  836SOL    HW1 2643   0.998   3.609   1.278
  836SOL    HW2 2644   0.929   3.477   1.309
  837SOL     OW 2645   1.571   3.317   1.900
  837SOL    HW1 2646   1.659   3.282   1.913
  837SOL    HW2 2647   1.559   3.380   1.971
  838SOL     OW 2648   2.960   0.908   0.773
  838SOL    HW1 2649   2.937   0.830   0.722
  838SOL    HW2 2650   2.937   0.981   0.715
  839SOL     OW 2651   0.723   0.020   2.549
  839SOL    HW1 2652   0.743   0.113   2.541
  839SOL    HW2 2653   0.734   0.000   2.642
  840SOL     OW 2654   1.041   3.829   0.041
  840SOL    HW1 2655   1.034   3.752   0.097
  840SOL    HW2 2656   1.099   3.802  -0.031
  841SOL     OW 2657   1.002   1.794   3.238
  841SOL    HW1 2658   0.959   1.821   3.158
  841SOL    HW2 2659   0.952   1.837   3.308
  842SOL     OW 2660   2.853   2.347   2.305
  842SOL    HW1 2661   2.915   2.352   2.232
  842SOL    HW2 2662   2.797   2.271   2.284
  843SOL     OW 2663   1.885   0.478   2.165
  843SOL    HW1 2664   1.866   0.471   2.258
  843SOL    HW2 2665   1.906   0.571   2.151
  844SOL     OW 2666   0.117   1.939   2.066
  844SOL    HW1 2667   0.074   1.886   1.999
  844SOL    HW2 2668   0.130   1.879   2.140
  845SOL     OW 2669   0.685   2.524   3.552
  845SOL    HW1 2670   0.736   2.585   3.499
  845SOL    HW2 2671   0.725   2.438   3.537
  846SOL     OW 2672   2.006   0.924   1.056
  846SOL    HW1 2673   2.019   0.835   1.089
  846SOL    HW2 2674   2.095   0.960   1.048
  847SOL     OW 2675   2.838   0.403   2.605
  847SOL    HW1 2676   2.914   0.428   2.656
  847SOL    HW2 2677   2.791   0.485   2.589
  848SOL     OW 2678   0.671   3.177   0.998
  848SOL    HW1 2679   0.677   3.271   1.015
  848SOL    HW2 2680   0.729   3.137   1.062
  849SOL     OW 2681   2.326   3.447   2.444
  849SOL    HW1 2682   2.398   3.464   2.383
  849SOL    HW2 2683   2.335   3.514   2.511
  850SOL     OW 2684   1.968   0.658   3.172
  850SOL    HW1 2685   2.045   0.666   3.115
  850SOL    HW2 2686   1.999   0.683   3.259
  851SOL     OW 2687   3.859   3.242   3.586
  851SOL    HW1 2688   3.905   3.324   3.604
  851SOL    HW2 2689   3.918   3.174   3.618
  852SOL     OW 2690   0.463   3.172   0.657
  852SOL    HW1 2691   0.433   3.114   0.588
  852SOL    HW2 2692   0.411   3.148   0.734
  853SOL     OW 2693   2.976   2.680   2.458
  853SOL    HW1 2694   2.906   2.740   2.482
  853SOL    HW2 2695   3.025   2.726   2.389
  854SOL     OW 2696   0.411   0.922   3.794
  854SOL    HW1 2697   0.431   0.862   3.867
  854SOL    HW2 2698   0.315   0.924   3.791
  855SOL     OW 2699   3.763   1.282   2.041
  855SOL    HW1 2700   3.728   1.371   2.049
  855SOL    HW2 2701   3.732   1.237   2.120
  856SOL     OW 2702   2.009   0.709   0.169
  856SOL    HW1 2703   2.055   0.641   0.218
  856SOL    HW2 2704   2.072   0.781   0.163
  857SOL     OW 2705   1.298   3.476   1.975
  857SOL    HW1 2706   1.374   3.463   1.918
  857SOL    HW2 2707   1.235   3.524   1.921
  858SOL     OW 2708   0.190   2.083   3.917
  858SOL    HW1 2709   0.195   2.075   3.822
  858SOL    HW2 2710   0.218   2.173   3.935
  859SOL     OW 2711   1.843   2.936   0.360
  859SOL    HW1 2712   1.927   2.892   0.343
  859SOL    HW2 2713   1.809   2.957   0.274
  860SOL     OW 2714   1.432   3.240   1.471
  860SOL    HW1 2715   1.487   3.198   1.537
  860SOL    HW2 2716   1.484   3.313   1.438
  861SOL     OW 2717   0.566   0.203   0.457
  861SOL    HW1 2718   0.567   0.115   0.421
  861SOL    HW2 2719   0.656   0.235   0.444
  862SOL     OW 2720   2.200   3.279   1.896
  862SOL    HW1 2721   2.277   3.241   1.938
  862SOL    HW2 2722   2.149   3.203   1.868
  863SOL     OW 2723   1.561   2.775   0.256
  863SOL    HW1 2724   1.567   2.819   0.171
  863SOL    HW2 2725   1.487   2.818   0.300
  864SOL     OW 2726   3.459   3.400   0.967
  864SOL    HW1 2727   3.551   3.419   0.952
  864SOL    HW2 2728   3.431   3.355   0.887
  865SOL     OW 2729   2.407   2.625   3.328
  865SOL    HW1 2730   2.353   2.553   3.361
  865SOL    HW2 2731   2.356   2.663   3.257
  866SOL     OW 2732   2.911   1.353   0.831
  866SOL    HW1 2733   2.881   1.440   0.855
  866SOL    HW2 2734   2.843   1.294   0.863
  867SOL     OW 2735   3.445   0.464   0.343
  867SOL    HW1 2736   3.430   0.556   0.363
  867SOL    HW2 2737   3.527   0.442   0.388
  868SOL     OW 2738   0.883   2.046   1.799
  868SOL    HW1 2739   0.821   2.117   1.783
  868SOL    HW2 2740   0.916   2.061   1.887
  869SOL     OW 2741   0.937   1.269   0.313
  869SOL    HW1 2742   1.002   1.257   0.244
  869SOL    HW2 2743   0.876   1.334   0.278
  870SOL     OW 2744   0.728   0.242   3.950
  870SOL    HW1 2745   0.691   0.305   3.888
  870SOL    HW2 2746   0.768   0.174   3.896
  871SOL     OW 2747   3.777   1.140   3.666
  871SOL    HW1 2748   3.688   1.147   3.632
  871SOL    HW2 2749   3.827   1.100   3.595
  872SOL     OW 2750   1.728   0.522   1.477
  872SOL    HW1 2751   1.688   0.609   1.474
  872SOL    HW2 2752   1.658   0.466   1.511
  873SOL     OW 2753   3.480   0.316   0.082
  873SOL    HW1 2754   3.411   0.352   0.139
  873SOL    HW2 2755   3.533   0.262   0.140
  874SOL     OW 2756   0.134   3.885   1.037
  874SOL    HW1 2757   0.138   3.868   0.943
  874SOL    HW2 2758   0.210   3.840   1.073
  875SOL     OW 2759   1.852   3.317  -0.008
  875SOL    HW1 2760   1.929   3.326   0.049
  875SOL    HW2 2761   1.805   3.399   0.002
  876SOL     OW 2762   0.333   1.529   1.082
  876SOL    HW1 2763   0.277   1.600   1.053
  876SOL    HW2 2764   0.397   1.570   1.140
  877SOL     OW 2765   1.809   2.093   0.893
  877SOL    HW1 2766   1.882   2.031   0.884
  877SOL    HW2 2767   1.783   2.085   0.985
  878SOL     OW 2768   0.965   2.871   0.101
  878SOL    HW1 2769   1.000   2.955   0.071
  878SOL    HW2 2770   0.977   2.873   0.196
  879SOL     OW 2771   2.793   2.421   3.047
  879SOL    HW1 2772   2.800   2.347   2.987
  879SOL    HW2 2773   2.779   2.497   2.990
  880SOL     OW 2774   1.985   2.702   0.518
  880SOL    HW1 2775   2.002   2.624   0.572
  880SOL    HW2 2776   1.896   2.688   0.484
  881SOL     OW 2777   1.336   3.069   2.441
  881SOL    HW1 2778   1.391   3.147   2.448
  881SOL    HW2 2779   1.248   3.102   2.426
  882SOL     OW 2780   1.579   1.650   0.656
  882SOL    HW1 2781   1.627   1.699   0.589
  882SOL    HW2 2782   1.646   1.623   0.719
  883SOL     OW 2783   1.556   3.719   0.945
  883SOL    HW1 2784   1.591   3.801   0.910
  883SOL    HW2 2785   1.632   3.662   0.953
  884SOL     OW 2786   2.413   2.708   3.598
  884SOL    HW1 2787   2.324   2.742   3.591
  884SOL    HW2 2788   2.433   2.674   3.511
  885SOL     OW 2789   0.845   1.892   3.029
  885SOL    HW1 2790   0.752   1.876   3.013
  885SOL    HW2 2791   0.883   1.900   2.942
  886SOL     OW 2792   2.248   1.283   1.997
  886SOL    HW1 2793   2.174   1.289   2.056
  886SOL    HW2 2794   2.253   1.369   1.956
  887SOL     OW 2795   1.774   1.525   1.344
  887SOL    HW1 2796   1.730   1.600   1.383
  887SOL    HW2 2797   1.704   1.474   1.303
  888SOL     OW 2798   1.981   2.339   2.126
  888SOL    HW1 2799   1.994   2.276   2.055
  888SOL    HW2 2800   1.977   2.286   2.205
  889SOL     OW 2801   1.706   0.814   1.420
  889SOL    HW1 2802   1.714   0.908   1.433
  889SOL    HW2 2803   1.613   0.799   1.404
  890SOL     OW 2804   1.012   1.358   0.757
  890SOL    HW1 2805   1.044   1.338   0.845
  890SOL    HW2 2806   0.922   1.324   0.756
  891SOL     OW 2807   1.357   3.896   3.732
  891SOL    HW1 2808   1.314   3.979   3.753
  891SOL    HW2 2809   1.449   3.919   3.717
  892SOL     OW 2810   1.435   0.282   1.355
  892SOL    HW1 2811   1.383   0.333   1.418
  892SOL    HW2 2812   1.489   0.347   1.310
  893SOL     OW 2813   0.941   1.131   2.085
  893SOL    HW1 2814   0.920   1.043   2.055
  893SOL    HW2 2815   1.035   1.130   2.101
  894SOL     OW 2816   0.886   0.150   1.415
  894SOL    HW1 2817   0.931   0.199   1.346
  894SOL    HW2 2818   0.902   0.201   1.495
  895SOL     OW 2819   3.287   2.575   1.318
  895SOL    HW1 2820   3.271   2.631   1.394
  895SOL    HW2 2821   3.376   2.542   1.331
  896SOL     OW 2822   0.926   0.545   2.165
  896SOL    HW1 2823   1.007   0.524   2.212
  896SOL    HW2 2824   0.897   0.461   2.130
  897SOL     OW 2825   2.750   3.709   2.416
  897SOL    HW1 2826   2.794   3.737   2.336
  897SOL    HW2 2827   2.748   3.787   2.471
  898SOL     OW 2828   3.649   1.170   0.324
  898SOL    HW1 2829   3.638   1.129   0.410
  898SOL    HW2 2830   3.610   1.256   0.333
  899SOL     OW 2831   2.466   0.124   1.235
  899SOL    HW1 2832   2.405   0.195   1.213
  899SOL    HW2 2833   2.413   0.062   1.285
  900SOL     OW 2834   1.537   1.118   3.565
  900SOL    HW1 2835   1.594   1.155   3.632
  900SOL    HW2 2836   1.573   1.150   3.482
  901SOL     OW 2837   0.271   2.572   2.072
  901SOL    HW1 2838   0.338   2.640   2.065
  901SOL    HW2 2839   0.255   2.564   2.166
  902SOL     OW 2840   2.060   1.573   2.454
  902SOL    HW1 2841   1.986   1.537   2.407
  902SOL    HW2 2842   2.037   1.564   2.547
  903SOL     OW 2843   2.489   2.021   0.562
  903SOL    HW1 2844   2.543   2.081   0.614
  903SOL    HW2 2845   2.533   1.936   0.570
  904SOL     OW 2846   0.748   1.198   0.807
  904SOL    HW1 2847   0.664   1.204   0.853
  904SOL    HW2 2848   0.768   1.104   0.806
  905SOL     OW 2849   0.369   0.612   3.729
  905SOL    HW1 2850   0.458   0.628   3.700
  905SOL    HW2 2851   0.339   0.539   3.675
  906SOL     OW 2852   1.150   1.565   3.276
  906SOL    HW1 2853   1.125   1.523   3.359
  906SOL    HW2 2854   1.100   1.647   3.276
  907SOL     OW 2855   2.250   0.571   1.962
  907SOL    HW1 2856   2.271   0.629   2.036
  907SOL    HW2 2857   2.333   0.528   1.942
  908SOL     OW 2858   2.934   1.033   1.578
  908SOL    HW1 2859   2.888   0.980   1.513
  908SOL    HW2 2860   3.015   0.985   1.596
  909SOL     OW 2861   1.781   3.206   0.464
  909SOL    HW1 2862   1.794   3.117   0.430
  909SOL    HW2 2863   1.869   3.236   0.487
  910SOL     OW 2864   0.372   0.356   3.070
  910SOL    HW1 2865   0.351   0.309   2.990
  910SOL    HW2 2866   0.466   0.372   3.065
  911SOL     OW 2867   3.564   1.342   0.557
  911SOL    HW1 2868   3.534   1.319   0.645
  911SOL    HW2 2869   3.483   1.352   0.506
  912SOL     OW 2870   1.062   2.193   0.798
  912SOL    HW1 2871   1.055   2.099   0.813
  912SOL    HW2 2872   0.988   2.231   0.844
  913SOL     OW 2873   1.393   1.777   2.182
  913SOL    HW1 2874   1.389   1.867   2.214
  913SOL    HW2 2875   1.453   1.781   2.107
  914SOL     OW 2876   0.570   2.375   3.255
  914SOL    HW1 2877   0.530   2.456   3.223
  914SOL    HW2 2878   0.545   2.370   3.347
  915SOL     OW 2879   0.983   1.810   1.010
  915SOL    HW1 2880   0.931   1.737   0.979
  915SOL    HW2 2881   0.942   1.837   1.092
  916SOL     OW 2882   2.308   3.915   1.990
  916SOL    HW1 2883   2.334   3.987   1.932
  916SOL    HW2 2884   2.219   3.937   2.017
  917SOL     OW 2885   2.609   1.428   2.358
  917SOL    HW1 2886   2.613   1.522   2.340
  917SOL    HW2 2887   2.576   1.422   2.447
  918SOL     OW 2888   0.513   2.807   3.404
  918SOL    HW1 2889   0.476   2.877   3.457
  918SOL    HW2 2890   0.569   2.851   3.340
  919SOL     OW 2891   2.247   3.183   3.911
  919SOL    HW1 2892   2.273   3.233   3.989
  919SOL    HW2 2893   2.306   3.108   3.910
  920SOL     OW 2894   0.328   2.115   2.327
  920SOL    HW1 2895   0.241   2.140   2.359
  920SOL    HW2 2896   0.326   2.134   2.234
  921SOL     OW 2897   0.079   2.718   2.739
  921SOL    HW1 2898   0.172   2.739   2.742
  921SOL    HW2 2899   0.035   2.794   2.777
  922SOL     OW 2900   3.925   0.469   0.766
  922SOL    HW1 2901   4.019   0.477   0.750
  922SOL    HW2 2902   3.894   0.410   0.697
  923SOL     OW 2903   2.013   3.794   0.635
  923SOL    HW1 2904   1.996   3.785   0.729
  923SOL    HW2 2905   2.075   3.723   0.616
  924SOL     OW 2906   0.681   1.000   0.032
  924SOL    HW1 2907   0.769   1.036   0.043
  924SOL    HW2 2908   0.692   0.906   0.044
  925SOL     OW 2909   2.625   1.697   2.547
  925SOL    HW1 2910   2.668   1.691   2.632
  925SOL    HW2 2911   2.695   1.690   2.483
  926SOL     OW 2912   1.158   2.083   2.243
  926SOL    HW1 2913   1.107   2.140   2.300
  926SOL    HW2 2914   1.243   2.126   2.235
  927SOL     OW 2915   1.955   1.108   1.710
  927SOL    HW1 2916   1.951   1.021   1.669
  927SOL    HW2 2917   2.048   1.127   1.718
  928SOL     OW 2918   3.468   2.765   2.639
  928SOL    HW1 2919   3.381   2.737   2.664
  928SOL    HW2 2920   3.455   2.812   2.557
  929SOL     OW 2921   3.631   1.007   0.562
  929SOL    HW1 2922   3.539   1.032   0.573
  929SOL    HW2 2923   3.674   1.037   0.642
  930SOL     OW 2924   1.888   0.518   0.949
  930SOL    HW1 2925   1.932   0.448   0.997
  930SOL    HW2 2926   1.959   0.577   0.923
  931SOL     OW 2927   2.919   2.004   3.279
  931SOL    HW1 2928   2.835   1.973   3.314
  931SOL    HW2 2929   2.895   2.047   3.196
  932SOL     OW 2930   2.085   0.451   0.256
  932SOL    HW1 2931   2.081   0.440   0.161
  932SOL    HW2 2932   2.075   0.363   0.291
  933SOL     OW 2933   0.842   3.272   0.356
  933SOL    HW1 2934   0.764   3.325   0.335
  933SOL    HW2 2935   0.874   3.308   0.438
  934SOL     OW 2936   2.421   2.183   2.998
  934SOL    HW1 2937   2.467   2.218   3.074
  934SOL    HW2 2938   2.473   2.211   2.923
  935SOL     OW 2939   1.622   3.227   2.259
  935SOL    HW1 2940   1.550   3.268   2.307
  935SOL    HW2 2941   1.647   3.293   2.194
  936SOL     OW 2942   1.026   0.942   0.581
  936SOL    HW1 2943   0.975   0.895   0.516
  936SOL    HW2 2944   1.004   1.034   0.569
  937SOL     OW 2945   0.762   2.942   3.907
  937SOL    HW1 2946   0.734   3.018   3.958
  937SOL    HW2 2947   0.835   2.905   3.957
  938SOL     OW 2948   2.812   2.357   1.383
  938SOL    HW1 2949   2.884   2.412   1.353
  938SOL    HW2 2950   2.847   2.268   1.379
  939SOL     OW 2951   3.543   1.934   3.369
  939SOL    HW1 2952   3.621   1.879   3.375
  939SOL    HW2 2953   3.470   1.872   3.371
  940SOL     OW 2954   3.193   2.210   0.751
  940SOL    HW1 2955   3.261   2.241   0.811
  940SOL    HW2 2956   3.161   2.289   0.708
  941SOL     OW 2957   1.779   2.953   2.074
  941SOL    HW1 2958   1.841   2.966   2.146
  941SOL    HW2 2959   1.725   2.879   2.101
  942SOL     OW 2960   3.372   3.547   2.992
  942SOL    HW1 2961   3.307   3.608   2.956
  942SOL    HW2 2962   3.327   3.463   2.994
  943SOL     OW 2963   3.270   0.161   1.488
  943SOL    HW1 2964   3.366   0.159   1.477
  943SOL    HW2 2965   3.254   0.241   1.538
  944SOL     OW 2966   1.821   3.144   0.850
  944SOL    HW1 2967   1.731   3.113   0.852
  944SOL    HW2 2968   1.860   3.100   0.774
  945SOL     OW 2969   2.005   3.406   2.681
  945SOL    HW1 2970   1.988   3.354   2.602
  945SOL    HW2 2971   2.100   3.415   2.685
  946SOL     OW 2972   0.350   1.375   0.378
  946SOL    HW1 2973   0.383   1.425   0.452
  946SOL    HW2 2974   0.341   1.439   0.308
  947SOL     OW 2975   3.439   3.823   1.676
  947SOL    HW1 2976   3.394   3.809   1.593
  947SOL    HW2 2977   3.417   3.747   1.729
  948SOL     OW 2978   2.461   3.287   3.298
  948SOL    HW1 2979   2.472   3.215   3.360
  948SOL    HW2 2980   2.438   3.244   3.215
  949SOL     OW 2981   1.977   2.201   2.351
  949SOL    HW1 2982   1.974   2.169   2.441
  949SOL    HW2 2983   2.067   2.183   2.322
  950SOL     OW 2984   2.279   1.698   2.694
  950SOL    HW1 2985   2.312   1.618   2.735
  950SOL    HW2 2986   2.192   1.711   2.733
  951SOL     OW 2987   2.916   2.297   3.857
  951SOL    HW1 2988   3.009   2.293   3.837
  951SOL    HW2 2989   2.907   2.247   3.938
  952SOL     OW 2990   3.542   0.193   0.400
  952SOL    HW1 2991   3.621   0.218   0.352
  952SOL    HW2 2992   3.545   0.098   0.404
  953SOL     OW 2993   0.550   0.483   2.276
  953SOL    HW1 2994   0.544   0.504   2.182
  953SOL    HW2 2995   0.572   0.390   2.277
  954SOL     OW 2996   1.227   0.248   2.867
  954SOL    HW1 2997   1.236   0.184   2.937
  954SOL    HW2 2998   1.133   0.268   2.865
  955SOL     OW 2999   1.005   2.308   2.842
  955SOL    HW1 3000   1.100   2.300   2.853
  955SOL    HW2 3001   0.980   2.382   2.898
  956SOL     OW 3002   0.666   1.142   2.144
  956SOL    HW1 3003   0.757   1.122   2.121
  956SOL    HW2 3004   0.670   1.176   2.233
  957SOL     OW 3005   3.471   1.144   1.612
  957SOL    HW1 3006   3.407   1.101   1.668
  957SOL    HW2 3007   3.551   1.147   1.665
  958SOL     OW 3008   1.135   3.959   1.800
  958SOL    HW1 3009   1.070   3.943   1.868
  958SOL    HW2 3010   1.102   3.911   1.724
  959SOL     OW 3011   3.171   0.297   0.174
  959SOL    HW1 3012   3.150   0.390   0.188
  959SOL    HW2 3013   3.146   0.281   0.083
  960SOL     OW 3014   3.839   3.758   1.175
  960SOL    HW1 3015   3.824   3.734   1.084
  960SOL    HW2 3016   3.905   3.827   1.172
  961SOL     OW 3017   2.089   1.120   2.900
  961SOL    HW1 3018   2.175   1.079   2.910
  961SOL    HW2 3019   2.031   1.067   2.955
  962SOL     OW 3020   2.714   0.012   0.685
  962SOL    HW1 3021   2.777  -0.043   0.638
  962SOL    HW2 3022   2.767   0.055   0.752
  963SOL     OW 3023   3.855   1.819   2.483
  963SOL    HW1 3024   3.923   1.859   2.536
  963SOL    HW2 3025   3.783   1.883   2.482
  964SOL     OW 3026   3.039   0.825   1.314
  964SOL    HW1 3027   2.950   0.819   1.350
  964SOL    HW2 3028   3.026   0.859   1.225
  965SOL     OW 3029   0.417   1.644   2.787
  965SOL    HW1 3030   0.342   1.586   2.781
  965SOL    HW2 3031   0.481   1.607   2.725
  966SOL     OW 3032   0.317   0.806   2.885
  966SOL    HW1 3033   0.343   0.729   2.935
  966SOL    HW2 3034   0.239   0.778   2.836
  967SOL     OW 3035   1.419   0.650   0.336
  967SOL    HW1 3036   1.396   0.645   0.243
  967SOL    HW2 3037   1.338   0.677   0.379
  968SOL     OW 3038   2.213   2.459   0.119
  968SOL    HW1 3039   2.131   2.504   0.100
  968SOL    HW2 3040   2.206   2.375   0.073
  969SOL     OW 3041   3.415   2.794   3.399
  969SOL    HW1 3042   3.458   2.873   3.366
  969SOL    HW2 3043   3.482   2.726   3.394
  970SOL     OW 3044   2.744   0.413   3.164
  970SOL    HW1 3045   2.657   0.452   3.164
  970SOL    HW2 3046   2.801   0.483   3.133
  971SOL     OW 3047   3.877   2.372   1.519
  971SOL    HW1 3048   3.946   2.330   1.468
  971SOL    HW2 3049   3.796   2.348   1.474
  972SOL     OW 3050   2.130   0.256   2.870
  972SOL    HW1 3051   2.106   0.262   2.963
  972SOL    HW2 3052   2.091   0.174   2.840
  973SOL     OW 3053   3.291   1.227   3.664
  973SOL    HW1 3054   3.340   1.286   3.720
  973SOL    HW2 3055   3.305   1.140   3.702
  974SOL     OW 3056   2.209   3.851   3.882
  974SOL    HW1 3057   2.199   3.946   3.887
  974SOL    HW2 3058   2.273   3.831   3.951
  975SOL     OW 3059   2.987   3.704   0.864
  975SOL    HW1 3060   2.983   3.784   0.811
  975SOL    HW2 3061   3.078   3.675   0.856
  976SOL     OW 3062   1.428   3.297   1.130
  976SOL    HW1 3063   1.470   3.320   1.047
  976SOL    HW2 3064   1.428   3.201   1.131
  977SOL     OW 3065   3.674   2.196   1.799
  977SOL    HW1 3066   3.626   2.181   1.717
  977SOL    HW2 3067   3.699   2.109   1.829
  978SOL     OW 3068   2.920   0.897   3.714
  978SOL    HW1 3069   3.011   0.920   3.733
  978SOL    HW2 3070   2.876   0.982   3.702
  979SOL     OW 3071   2.899   0.211   0.522
  979SOL    HW1 3072   2.971   0.221   0.583
  979SOL    HW2 3073   2.823   0.191   0.577
  980SOL     OW 3074   3.761   2.056   3.774
  980SOL    HW1 3075   3.769   2.092   3.685
  980SOL    HW2 3076   3.846   2.015   3.791
  981SOL     OW 3077   0.408   1.929   3.607
  981SOL    HW1 3078   0.454   1.977   3.537
  981SOL    HW2 3079   0.461   1.945   3.685
  982SOL     OW 3080   2.861   0.721   3.282
  982SOL    HW1 3081   2.895   0.807   3.259
  982SOL    HW2 3082   2.820   0.689   3.201
  983SOL     OW 3083   1.528   1.223   0.675
  983SOL    HW1 3084   1.516   1.139   0.629
  983SOL    HW2 3085   1.496   1.288   0.612
  984SOL     OW 3086   1.045   3.368   2.040
  984SOL    HW1 3087   1.089   3.436   1.989
  984SOL    HW2 3088   1.115   3.312   2.072
  985SOL     OW 3089   2.831   3.331   2.916
  985SOL    HW1 3090   2.829   3.424   2.940
  985SOL    HW2 3091   2.903   3.295   2.967
  986SOL     OW 3092   3.621   2.638   0.476
  986SOL    HW1 3093   3.664   2.667   0.556
  986SOL    HW2 3094   3.528   2.649   0.493
  987SOL     OW 3095   3.738   0.668   1.158
  987SOL    HW1 3096   3.747   0.600   1.225
  987SOL    HW2 3097   3.825   0.675   1.119
  988SOL     OW 3098   1.921   0.324   1.179
  988SOL    HW1 3099   1.844   0.268   1.166
  988SOL    HW2 3100   1.887   0.399   1.228
  989SOL     OW 3101   1.091   3.541   1.784
  989SOL    HW1 3102   1.094   3.636   1.773
  989SOL    HW2 3103   1.139   3.507   1.709
  990SOL     OW 3104   0.546   3.502   3.329
  990SOL    HW1 3105   0.597   3.536   3.256
  990SOL    HW2 3106   0.455   3.523   3.306
  991SOL     OW 3107   1.731   3.463   2.698
  991SOL    HW1 3108   1.741   3.544   2.648
  991SOL    HW2 3109   1.818   3.422   2.694
  992SOL     OW 3110   2.508   0.719   1.914
  992SOL    HW1 3111   2.546   0.701   1.828
  992SOL    HW2 3112   2.495   0.814   1.914
  993SOL     OW 3113   3.276   3.851   2.526
  993SOL    HW1 3114   3.210   3.786   2.503
  993SOL    HW2 3115   3.268   3.918   2.458
  994SOL     OW 3116   1.721   1.191   0.257
  994SOL    HW1 3117   1.644   1.135   0.255
  994SOL    HW2 3118   1.789   1.139   0.212
  995SOL     OW 3119   0.103   0.159   1.221
  995SOL    HW1 3120   0.087   0.097   1.150
  995SOL    HW2 3121   0.198   0.154   1.236
  996SOL     OW 3122   0.283   1.236   3.333
  996SOL    HW1 3123   0.361   1.220   3.280
  996SOL    HW2 3124   0.308   1.208   3.421
  997SOL     OW 3125   0.629   3.287   2.957
  997SOL    HW1 3126   0.633   3.272   2.863
  997SOL    HW2 3127   0.597   3.205   2.994
  998SOL     OW 3128   0.444   3.485   0.688
  998SOL    HW1 3129   0.460   3.499   0.781
  998SOL    HW2 3130   0.431   3.390   0.680
  999SOL     OW 3131   0.110   2.113   0.389
  999SOL    HW1 3132   0.112   2.185   0.451
  999SOL    HW2 3133   0.195   2.116   0.345
 1000SOL     OW 3134   1.515   1.163   2.093
 1000SOL    HW1 3135   1.532   1.256   2.075
 1000SOL    HW2 3136   1.596   1.119   2.065
 1001SOL     OW 3137   1.777   0.515   0.276
 1001SOL    HW1 3138   1.855   0.570   0.269
 1001SOL    HW2 3139   1.754   0.519   0.369
 1002SOL     OW 3140   0.653   2.805   2.710
 1002SOL    HW1 3141   0.647   2.775   2.800
 1002SOL    HW2 3142   0.714   2.879   2.713
 1003SOL     OW 3143   2.685   3.806   3.196
 1003SOL    HW1 3144   2.612   3.839   3.144
 1003SOL    HW2 3145   2.645   3.743   3.256
 1004SOL     OW 3146   3.891   3.744   0.371
 1004SOL    HW1 3147   3.983   3.718   0.359
 1004SOL    HW2 3148   3.872   3.722   0.462
 1005SOL     OW 3149   1.033   2.879   1.788
 1005SOL    HW1 3150   1.086   2.955   1.764
 1005SOL    HW2 3151   1.096   2.809   1.801
 1006SOL     OW 3152   1.875   3.261   1.079
 1006SOL    HW1 3153   1.859   3.233   0.989
 1006SOL    HW2 3154   1.945   3.325   1.072
 1007SOL     OW 3155   3.634   0.176   0.732
 1007SOL    HW1 3156   3.597   0.239   0.793
 1007SOL    HW2 3157   3.659   0.228   0.655
 1008SOL     OW 3158   0.153   2.636   1.235
 1008SOL    HW1 3159   0.139   2.554   1.283
 1008SOL    HW2 3160   0.167   2.701   1.303
 1009SOL     OW 3161   2.447   3.016   3.428
 1009SOL    HW1 3162   2.489   2.950   3.373
 1009SOL    HW2 3163   2.442   2.975   3.514
 1010SOL     OW 3164   3.147   1.205   1.244
 1010SOL    HW1 3165   3.061   1.187   1.206
 1010SOL    HW2 3166   3.205   1.140   1.205
 1011SOL     OW 3167   3.694   3.956   1.752
 1011SOL    HW1 3168   3.620   3.996   1.798
 1011SOL    HW2 3169   3.681   3.861   1.765
 1012SOL     OW 3170   0.250   1.460   3.066
 1012SOL    HW1 3171   0.242   1.368   3.043
 1012SOL    HW2 3172   0.336   1.468   3.107
 1013SOL     OW 3173   2.836  -0.033   2.533
 1013SOL    HW1 3174   2.797  -0.023   2.620
 1013SOL    HW2 3175   2.842   0.057   2.499
 1014SOL     OW 3176   0.655   1.423   1.407
 1014SOL    HW1 3177   0.672   1.443   1.499
 1014SOL    HW2 3178   0.740   1.431   1.364
 1015SOL     OW 3179   2.138   0.980   2.000
 1015SOL    HW1 3180   2.143   1.046   2.070
 1015SOL    HW2 3181   2.148   1.029   1.919
 1016SOL     OW 3182   0.721   2.186   2.791
 1016SOL    HW1 3183   0.797   2.184   2.849
 1016SOL    HW2 3184   0.686   2.097   2.794
 1017SOL     OW 3185   2.446   0.377   1.876
 1017SOL    HW1 3186   2.535   0.385   1.909
 1017SOL    HW2 3187   2.456   0.353   1.784
 1018SOL     OW 3188   0.233   1.788   0.923
 1018SOL    HW1 3189   0.254   1.810   0.832
 1018SOL    HW2 3190   0.272   1.858   0.974
 1019SOL     OW 3191   1.490   2.670   3.333
 1019SOL    HW1 3192   1.455   2.637   3.416
 1019SOL    HW2 3193   1.578   2.633   3.328
 1020SOL     OW 3194   0.547   3.229   3.471
 1020SOL    HW1 3195   0.632   3.194   3.443
 1020SOL    HW2 3196   0.550   3.322   3.447
 1021SOL     OW 3197   2.848   2.407   0.345
 1021SOL    HW1 3198   2.787   2.352   0.294
 1021SOL    HW2 3199   2.931   2.359   0.341
 1022SOL     OW 3200  -0.010   2.018   0.114
 1022SOL    HW1 3201   0.002   2.010   0.209
 1022SOL    HW2 3202   0.076   2.001   0.078
 1023SOL     OW 3203   1.511   0.876   2.305
 1023SOL    HW1 3204   1.588   0.911   2.260
 1023SOL    HW2 3205   1.546   0.817   2.372
 1024SOL     OW 3206   1.024   3.635   3.109
 1024SOL    HW1 3207   1.027   3.575   3.184
 1024SOL    HW2 3208   1.067   3.715   3.141
 1025SOL     OW 3209   3.334   2.411   2.704
 1025SOL    HW1 3210   3.324   2.359   2.624
 1025SOL    HW2 3211   3.422   2.390   2.736
 1026SOL     OW 3212   3.541   3.871   2.927
 1026SOL    HW1 3213   3.498   3.853   2.844
 1026SOL    HW2 3214   3.565   3.785   2.961
 1027SOL     OW 3215   3.974   0.456   2.898
 1027SOL    HW1 3216   3.908   0.393   2.868
 1027SOL    HW2 3217   3.974   0.447   2.993
 1028SOL     OW 3218   1.096   3.060   3.509
 1028SOL    HW1 3219   1.106   3.108   3.427
 1028SOL    HW2 3220   1.080   2.970   3.482
 1029SOL     OW 3221   2.655   1.602   0.163
 1029SOL    HW1 3222   2.656   1.688   0.121
 1029SOL    HW2 3223   2.721   1.609   0.233
 1030SOL     OW 3224   1.955   3.774   2.043
 1030SOL    HW1 3225   1.947   3.695   2.096
 1030SOL    HW2 3226   1.953   3.743   1.953
 1031SOL     OW 3227   0.352   1.389   2.191
 1031SOL    HW1 3228   0.317   1.477   2.175
 1031SOL    HW2 3229   0.447   1.401   2.194
 1032SOL     OW 3230   2.767   0.947   1.787
 1032SOL    HW1 3231   2.847   0.958   1.736
 1032SOL    HW2 3232   2.792   0.891   1.860
 1033SOL     OW 3233   2.756   3.047   0.967
 1033SOL    HW1 3234   2.699   3.004   1.031
 1033SOL    HW2 3235   2.774   2.980   0.902
 1034SOL     OW 3236   2.606   0.448   1.628
 1034SOL    HW1 3237   2.622   0.542   1.638
 1034SOL    HW2 3238   2.551   0.442   1.550
 1035SOL     OW 3239   3.142   0.316   0.734
 1035SOL    HW1 3240   3.225   0.307   0.688
 1035SOL    HW2 3241   3.166   0.318   0.827
 1036SOL     OW 3242   3.684   2.885   3.611
 1036SOL    HW1 3243   3.646   2.953   3.667
 1036SOL    HW2 3244   3.639   2.804   3.638
 1037SOL     OW 3245   2.605   3.684   0.302
 1037SOL    HW1 3246   2.673   3.659   0.240
 1037SOL    HW2 3247   2.633   3.770   0.334
 1038SOL     OW 3248   2.618   0.777   0.949
 1038SOL    HW1 3249   2.662   0.828   1.018
 1038SOL    HW2 3250   2.642   0.821   0.868
 1039SOL     OW 3251   2.117   0.693   1.138
 1039SOL    HW1 3252   2.188   0.631   1.153
 1039SOL    HW2 3253   2.053   0.673   1.206
 1040SOL     OW 3254   0.153   0.001   3.074
 1040SOL    HW1 3255   0.107  -0.051   3.008
 1040SOL    HW2 3256   0.084   0.051   3.117
 1041SOL     OW 3257   2.877   2.427   1.654
 1041SOL    HW1 3258   2.904   2.508   1.611
 1041SOL    HW2 3259   2.790   2.409   1.618
 1042SOL     OW 3260   0.356   1.968   0.291
 1042SOL    HW1 3261   0.406   2.036   0.336
 1042SOL    HW2 3262   0.375   1.888   0.338
 1043SOL     OW 3263   3.563   0.136   3.446
 1043SOL    HW1 3264   3.541   0.193   3.372
 1043SOL    HW2 3265   3.557   0.193   3.523
 1044SOL     OW 3266   0.691   3.676   0.071
 1044SOL    HW1 3267   0.726   3.760   0.102
 1044SOL    HW2 3268   0.746   3.653  -0.004
 1045SOL     OW 3269   0.137   0.909   0.697
 1045SOL    HW1 3270   0.050   0.874   0.716
 1045SOL    HW2 3271   0.191   0.880   0.770
 1046SOL     OW 3272   0.191   3.502   3.040
 1046SOL    HW1 3273   0.246   3.467   2.970
 1046SOL    HW2 3274   0.103   3.500   3.004
 1047SOL     OW 3275   3.636   0.118   3.076
 1047SOL    HW1 3276   3.614   0.046   3.017
 1047SOL    HW2 3277   3.555   0.137   3.123
 1048SOL     OW 3278   1.470   3.162   0.548
 1048SOL    HW1 3279   1.471   3.072   0.516
 1048SOL    HW2 3280   1.555   3.197   0.522
 1049SOL     OW 3281   2.887   1.139   2.573
 1049SOL    HW1 3282   2.809   1.083   2.572
 1049SOL    HW2 3283   2.957   1.083   2.540
 1050SOL     OW 3284   3.110   1.798   3.130
 1050SOL    HW1 3285   3.123   1.887   3.098
 1050SOL    HW2 3286   3.015   1.793   3.147
 1051SOL     OW 3287   0.592   0.723   0.589
 1051SOL    HW1 3288   0.621   0.814   0.583
 1051SOL    HW2 3289   0.525   0.714   0.522
 1052SOL     OW 3290   3.927   2.500   2.586
 1052SOL    HW1 3291   3.996   2.490   2.520
 1052SOL    HW2 3292   3.956   2.572   2.641
 1053SOL     OW 3293   3.417   1.709   1.743
 1053SOL    HW1 3294   3.453   1.790   1.708
 1053SOL    HW2 3295   3.389   1.732   1.832
 1054SOL     OW 3296   2.885   1.836   2.066
 1054SOL    HW1 3297   2.864   1.839   2.160
 1054SOL    HW2 3298   2.913   1.746   2.051
 1055SOL     OW 3299   0.279   0.176   1.574
 1055SOL    HW1 3300   0.272   0.115   1.647
 1055SOL    HW2 3301   0.290   0.120   1.497
 1056SOL     OW 3302   1.734   3.047   3.016
 1056SOL    HW1 3303   1.733   3.143   3.021
 1056SOL    HW2 3304   1.679   3.025   2.941
 1057SOL     OW 3305   1.968   2.955   3.496
 1057SOL    HW1 3306   2.052   2.971   3.452
 1057SOL    HW2 3307   1.983   2.981   3.587
 1058SOL     OW 3308   1.022   3.915   2.055
 1058SOL    HW1 3309   1.114   3.894   2.065
 1058SOL    HW2 3310   0.984   3.901   2.142
 1059SOL     OW 3311   0.217   1.293   1.039
 1059SOL    HW1 3312   0.207   1.290   0.944
 1059SOL    HW2 3313   0.266   1.374   1.055
 1060SOL     OW 3314   1.841   2.699   3.673
 1060SOL    HW1 3315   1.788   2.635   3.721
 1060SOL    HW2 3316   1.784   2.729   3.602
 1061SOL     OW 3317   1.716   2.196   1.374
 1061SOL    HW1 3318   1.776   2.122   1.372
 1061SOL    HW2 3319   1.734   2.239   1.458
 1062SOL     OW 3320   1.839   3.406   1.626
 1062SOL    HW1 3321   1.780   3.340   1.661
 1062SOL    HW2 3322   1.927   3.372   1.641
 1063SOL     OW 3323   0.155   3.298   0.858
 1063SOL    HW1 3324   0.214   3.228   0.829
 1063SOL    HW2 3325   0.212   3.374   0.867
 1064SOL     OW 3326   0.557   1.132   3.177
 1064SOL    HW1 3327   0.630   1.107   3.233
 1064SOL    HW2 3328   0.506   1.053   3.166
 1065SOL     OW 3329   3.612   3.827   3.333
 1065SOL    HW1 3330   3.690   3.855   3.284
 1065SOL    HW2 3331   3.584   3.905   3.380
 1066SOL     OW 3332   0.704   3.218   2.700
 1066SOL    HW1 3333   0.705   3.245   2.608
 1066SOL    HW2 3334   0.746   3.132   2.700
 1067SOL     OW 3335   2.895   0.206   3.010
 1067SOL    HW1 3336   2.826   0.240   3.067
 1067SOL    HW2 3337   2.949   0.282   2.991
 1068SOL     OW 3338   2.403   2.597   1.073
 1068SOL    HW1 3339   2.350   2.538   1.020
 1068SOL    HW2 3340   2.405   2.679   1.024
 1069SOL     OW 3341   0.934   1.076   0.035
 1069SOL    HW1 3342   0.991   1.152   0.049
 1069SOL    HW2 3343   0.994   1.006   0.008
 1070SOL     OW 3344   0.574   1.527   3.848
 1070SOL    HW1 3345   0.521   1.565   3.778
 1070SOL    HW2 3346   0.544   1.436   3.854
 1071SOL     OW 3347   2.323   0.780   2.117
 1071SOL    HW1 3348   2.408   0.775   2.072
 1071SOL    HW2 3349   2.289   0.866   2.093
 1072SOL     OW 3350   0.186   3.013   3.331
 1072SOL    HW1 3351   0.092   3.005   3.346
 1072SOL    HW2 3352   0.199   3.105   3.306
 1073SOL     OW 3353   2.832   1.928   2.351
 1073SOL    HW1 3354   2.822   1.852   2.408
 1073SOL    HW2 3355   2.746   1.941   2.312
 1074SOL     OW 3356   0.593   1.932   3.823
 1074SOL    HW1 3357   0.667   1.872   3.807
 1074SOL    HW2 3358   0.582   1.932   3.918
 1075SOL     OW 3359   2.540   1.295   1.963
 1075SOL    HW1 3360   2.449   1.304   1.989
 1075SOL    HW2 3361   2.573   1.384   1.956
 1076SOL     OW 3362   1.668   0.652   1.071
 1076SOL    HW1 3363   1.639   0.728   1.021
 1076SOL    HW2 3364   1.757   0.635   1.041
 1077SOL     OW 3365   1.608   2.369   0.272
 1077SOL    HW1 3366   1.529   2.387   0.322
 1077SOL    HW2 3367   1.589   2.288   0.225
 1078SOL     OW 3368   2.131   3.539   1.869
 1078SOL    HW1 3369   2.077   3.571   1.942
 1078SOL    HW2 3370   2.147   3.447   1.889
 1079SOL     OW 3371   0.945   0.256   2.855
 1079SOL    HW1 3372   0.877   0.264   2.922
 1079SOL    HW2 3373   0.901   0.275   2.773
 1080SOL     OW 3374   1.988   3.770   0.947
 1080SOL    HW1 3375   2.080   3.770   0.971
 1080SOL    HW2 3376   1.943   3.803   1.024
 1081SOL     OW 3377   2.398   1.583   2.189
 1081SOL    HW1 3378   2.396   1.495   2.226
 1081SOL    HW2 3379   2.379   1.641   2.263
 1082SOL     OW 3380   3.331   3.190   2.563
 1082SOL    HW1 3381   3.308   3.097   2.563
 1082SOL    HW2 3382   3.291   3.224   2.643
 1083SOL     OW 3383   1.969   2.012   0.608
 1083SOL    HW1 3384   2.031   1.941   0.627
 1083SOL    HW2 3385   1.936   1.993   0.521
 1084SOL     OW 3386   0.286   1.592   2.403
 1084SOL    HW1 3387   0.289   1.687   2.387
 1084SOL    HW2 3388   0.365   1.574   2.454
 1085SOL     OW 3389   3.068   3.575   1.958
 1085SOL    HW1 3390   3.099   3.503   2.013
 1085SOL    HW2 3391   3.047   3.645   2.019
 1086SOL     OW 3392   2.784   0.494   3.685
 1086SOL    HW1 3393   2.768   0.414   3.736
 1086SOL    HW2 3394   2.696   0.532   3.674
 1087SOL     OW 3395   2.423   2.135   0.126
 1087SOL    HW1 3396   2.469   2.212   0.159
 1087SOL    HW2 3397   2.382   2.097   0.203
 1088SOL     OW 3398   3.561   3.284   3.650
 1088SOL    HW1 3399   3.643   3.237   3.670
 1088SOL    HW2 3400   3.579   3.375   3.676
 1089SOL     OW 3401   2.824   3.648   2.984
 1089SOL    HW1 3402   2.869   3.697   2.915
 1089SOL    HW2 3403   2.737   3.686   2.987
 1090SOL     OW 3404   2.256   1.896   2.237
 1090SOL    HW1 3405   2.319   1.833   2.270
 1090SOL    HW2 3406   2.211   1.851   2.165
 1091SOL     OW 3407   1.855   1.965   2.883
 1091SOL    HW1 3408   1.902   1.989   2.804
 1091SOL    HW2 3409   1.921   1.966   2.952
 1092SOL     OW 3410   1.810   1.693   2.672
 1092SOL    HW1 3411   1.763   1.655   2.598
 1092SOL    HW2 3412   1.741   1.721   2.732
 1093SOL     OW 3413   1.080   1.502   2.766
 1093SOL    HW1 3414   1.139   1.459   2.705
 1093SOL    HW2 3415   1.105   1.468   2.852
 1094SOL     OW 3416   2.953   0.171   3.541
 1094SOL    HW1 3417   3.016   0.243   3.533
 1094SOL    HW2 3418   2.931   0.149   3.450
 1095SOL     OW 3419   2.011   1.195   2.425
 1095SOL    HW1 3420   1.947   1.125   2.439
 1095SOL    HW2 3421   2.092   1.149   2.404
 1096SOL     OW 3422   0.740   2.732   3.162
 1096SOL    HW1 3423   0.723   2.826   3.162
 1096SOL    HW2 3424   0.791   2.717   3.242
 1097SOL     OW 3425   1.717   2.491   0.733
 1097SOL    HW1 3426   1.781   2.450   0.675
 1097SOL    HW2 3427   1.755   2.576   0.755
 1098SOL     OW 3428   0.045   2.066   2.696
 1098SOL    HW1 3429   0.115   2.011   2.732
 1098SOL    HW2 3430  -0.025   2.059   2.760
 1099SOL     OW 3431   2.905   0.094   0.912
 1099SOL    HW1 3432   2.943   0.166   0.961
 1099SOL    HW2 3433   2.966   0.079   0.840
 1100SOL     OW 3434   1.885   2.705   0.811
 1100SOL    HW1 3435   1.911   2.786   0.767
 1100SOL    HW2 3436   1.902   2.722   0.904
 1101SOL     OW 3437   1.907   2.991   1.233
 1101SOL    HW1 3438   1.869   3.055   1.174
 1101SOL    HW2 3439   1.982   3.035   1.272
 1102SOL     OW 3440   3.813   0.244   2.853
 1102SOL    HW1 3441   3.813   0.175   2.786
 1102SOL    HW2 3442   3.721   0.256   2.875
 1103SOL     OW 3443   2.885   2.010   3.805
 1103SOL    HW1 3444   2.905   2.103   3.792
 1103SOL    HW2 3445   2.790   2.004   3.794
 1104SOL     OW 3446   0.202   0.544   2.195
 1104SOL    HW1 3447   0.242   0.572   2.277
 1104SOL    HW2 3448   0.119   0.590   2.192
 1105SOL     OW 3449   0.590   3.749   3.442
 1105SOL    HW1 3450   0.588   3.654   3.435
 1105SOL    HW2 3451   0.507   3.778   3.406
 1106SOL     OW 3452   3.699   1.552   2.912
 1106SOL    HW1 3453   3.711   1.573   2.819
 1106SOL    HW2 3454   3.784   1.516   2.939
 1107SOL     OW 3455   2.828   1.619   0.798
 1107SOL    HW1 3456   2.805   1.695   0.852
 1107SOL    HW2 3457   2.923   1.612   0.804
 1108SOL     OW 3458   3.179   2.783   3.246
 1108SOL    HW1 3459   3.186   2.723   3.172
 1108SOL    HW2 3460   3.268   2.787   3.281
 1109SOL     OW 3461   3.655   1.047   0.045
 1109SOL    HW1 3462   3.626   1.023   0.133
 1109SOL    HW2 3463   3.646   1.142   0.042
 1110SOL     OW 3464   0.151   3.592   0.358
 1110SOL    HW1 3465   0.179   3.525   0.296
 1110SOL    HW2 3466   0.072   3.555   0.398
 1111SOL     OW 3467   3.426   2.638   2.155
 1111SOL    HW1 3468   3.425   2.610   2.246
 1111SOL    HW2 3469   3.517   2.627   2.127
 1112SOL     OW 3470   2.852   2.663   0.500
 1112SOL    HW1 3471   2.849   2.595   0.433
 1112SOL    HW2 3472   2.844   2.615   0.583
 1113SOL     OW 3473   2.923   3.401   1.597
 1113SOL    HW1 3474   2.908   3.326   1.654
 1113SOL    HW2 3475   2.841   3.412   1.549
 1114SOL     OW 3476   1.203   2.599   2.087
 1114SOL    HW1 3477   1.171   2.585   2.176
 1114SOL    HW2 3478   1.149   2.541   2.033
 1115SOL     OW 3479   3.430   1.801   2.099
 1115SOL    HW1 3480   3.372   1.874   2.120
 1115SOL    HW2 3481   3.496   1.838   2.041
 1116SOL     OW 3482   1.439   2.672   1.627
 1116SOL    HW1 3483   1.495   2.709   1.695
 1116SOL    HW2 3484   1.492   2.679   1.547
 1117SOL     OW 3485   3.827   0.156   1.435
 1117SOL    HW1 3486   3.856   0.076   1.479
 1117SOL    HW2 3487   3.896   0.175   1.371
 1118SOL     OW 3488   1.703   0.674   3.381
 1118SOL    HW1 3489   1.728   0.763   3.403
 1118SOL    HW2 3490   1.705   0.671   3.285
 1119SOL     OW 3491   1.721   2.336   1.619
 1119SOL    HW1 3492   1.702   2.362   1.709
 1119SOL    HW2 3493   1.778   2.405   1.585
 1120SOL     OW 3494   0.626   1.335   2.684
 1120SOL    HW1 3495   0.571   1.321   2.761
 1120SOL    HW2 3496   0.715   1.344   2.720
 1121SOL     OW 3497   1.113   2.757   1.489
 1121SOL    HW1 3498   1.150   2.821   1.550
 1121SOL    HW2 3499   1.026   2.739   1.523
 1122SOL     OW 3500   0.901   2.237   3.850
 1122SOL    HW1 3501   0.820   2.289   3.861
 1122SOL    HW2 3502   0.963   2.278   3.910
 1123SOL     OW 3503   2.923   3.441   0.637
 1123SOL    HW1 3504   2.882   3.381   0.699
 1123SOL    HW2 3505   3.014   3.448   0.666
 1124SOL     OW 3506   0.367   1.108   0.526
 1124SOL    HW1 3507   0.272   1.110   0.537
 1124SOL    HW2 3508   0.389   1.196   0.495
 1125SOL     OW 3509   1.277   3.853   2.811
 1125SOL    HW1 3510   1.241   3.928   2.764
 1125SOL    HW2 3511   1.284   3.881   2.902
 1126SOL     OW 3512   3.141   2.969   2.544
 1126SOL    HW1 3513   3.110   2.908   2.611
 1126SOL    HW2 3514   3.074   3.038   2.542
 1127SOL     OW 3515   2.319   3.953   1.618
 1127SOL    HW1 3516   2.355   3.916   1.537
 1127SOL    HW2 3517   2.280   3.878   1.663
 1128SOL     OW 3518   1.822   3.218   1.948
 1128SOL    HW1 3519   1.797   3.148   2.009
 1128SOL    HW2 3520   1.896   3.182   1.899
 1129SOL     OW 3521   3.874   2.662   3.391
 1129SOL    HW1 3522   3.897   2.608   3.315
 1129SOL    HW2 3523   3.924   2.624   3.463
 1130SOL     OW 3524   3.075   2.351   2.120
 1130SOL    HW1 3525   3.155   2.392   2.088
 1130SOL    HW2 3526   3.083   2.259   2.095
 1131SOL     OW 3527   2.909   1.869   3.573
 1131SOL    HW1 3528   2.897   1.908   3.659
 1131SOL    HW2 3529   2.986   1.913   3.538
 1132SOL     OW 3530   3.296   0.216   2.889
 1132SOL    HW1 3531   3.320   0.124   2.904
 1132SOL    HW2 3532   3.271   0.249   2.975
 1133SOL     OW 3533   1.182   3.604   2.737
 1133SOL    HW1 3534   1.219   3.664   2.801
 1133SOL    HW2 3535   1.230   3.622   2.656
 1134SOL     OW 3536   1.964   3.896   0.041
 1134SOL    HW1 3537   2.045   3.857   0.007
 1134SOL    HW2 3538   1.916   3.924  -0.037
 1135SOL     OW 3539   3.649   3.289   2.954
 1135SOL    HW1 3540   3.609   3.293   2.867
 1135SOL    HW2 3541   3.712   3.217   2.949
 1136SOL     OW 3542   2.364   3.277   0.211
 1136SOL    HW1 3543   2.433   3.315   0.265
 1136SOL    HW2 3544   2.334   3.200   0.260
 1137SOL     OW 3545   1.302   3.434   3.318
 1137SOL    HW1 3546   1.384   3.469   3.354
 1137SOL    HW2 3547   1.329   3.368   3.254
 1138SOL     OW 3548   3.645   3.043   3.853
 1138SOL    HW1 3549   3.619   3.117   3.908
 1138SOL    HW2 3550   3.703   2.991   3.908
 1139SOL     OW 3551   3.144   3.462   2.198
 1139SOL    HW1 3552   3.121   3.387   2.253
 1139SOL    HW2 3553   3.238   3.473   2.210
 1140SOL     OW 3554   0.811   0.053   1.909
 1140SOL    HW1 3555   0.874   0.002   1.960
 1140SOL    HW2 3556   0.727   0.009   1.923
 1141SOL     OW 3557   2.560   2.237   2.495
 1141SOL    HW1 3558   2.633   2.183   2.525
 1141SOL    HW2 3559   2.573   2.246   2.401
 1142SOL     OW 3560   0.902   0.834   2.091
 1142SOL    HW1 3561   0.821   0.825   2.042
 1142SOL    HW2 3562   0.919   0.746   2.126
 1143SOL     OW 3563   0.146   2.626   3.579
 1143SOL    HW1 3564   0.180   2.697   3.634
 1143SOL    HW2 3565   0.214   2.614   3.512
 1144SOL     OW 3566   0.413   0.836   2.183
 1144SOL    HW1 3567   0.458   0.759   2.216
 1144SOL    HW2 3568   0.411   0.897   2.257
 1145SOL     OW 3569   2.207   0.888   2.545
 1145SOL    HW1 3570   2.302   0.876   2.550
 1145SOL    HW2 3571   2.172   0.833   2.615
 1146SOL     OW 3572   3.797   1.755   3.542
 1146SOL    HW1 3573   3.888   1.776   3.565
 1146SOL    HW2 3574   3.760   1.719   3.622
 1147SOL     OW 3575   2.362   0.474   0.339
 1147SOL    HW1 3576   2.420   0.438   0.405
 1147SOL    HW2 3577   2.294   0.408   0.328
 1148SOL     OW 3578   3.887   2.082   1.434
 1148SOL    HW1 3579   3.903   1.994   1.400
 1148SOL    HW2 3580   3.892   2.139   1.356
 1149SOL     OW 3581   3.791   1.602   3.837
 1149SOL    HW1 3582   3.748   1.537   3.892
 1149SOL    HW2 3583   3.843   1.654   3.899
 1150SOL     OW 3584   1.916   1.049  -0.002
 1150SOL    HW1 3585   1.960   1.072   0.079
 1150SOL    HW2 3586   1.984   1.007  -0.055
 1151SOL     OW 3587   2.772   0.553   0.760
 1151SOL    HW1 3588   2.814   0.621   0.709
 1151SOL    HW2 3589   2.678   0.571   0.752
 1152SOL     OW 3590   0.302   2.279   0.876
 1152SOL    HW1 3591   0.302   2.260   0.970
 1152SOL    HW2 3592   0.386   2.323   0.860
 1153SOL     OW 3593   1.183   3.910   0.702
 1153SOL    HW1 3594   1.127   3.833   0.715
 1153SOL    HW2 3595   1.249   3.904   0.771
 1154SOL     OW 3596   1.678   2.807   1.116
 1154SOL    HW1 3597   1.768   2.812   1.084
 1154SOL    HW2 3598   1.663   2.892   1.158
 1155SOL     OW 3599   2.896   2.829   3.009
 1155SOL    HW1 3600   2.861   2.915   3.033
 1155SOL    HW2 3601   2.888   2.777   3.089
 1156SOL     OW 3602   2.451   0.095   3.645
 1156SOL    HW1 3603   2.526   0.057   3.599
 1156SOL    HW2 3604   2.484   0.178   3.680
 1157SOL     OW 3605   0.604   2.663   2.948
 1157SOL    HW1 3606   0.643   2.686   3.032
 1157SOL    HW2 3607   0.546   2.589   2.968
 1158SOL     OW 3608   0.880   2.605   2.289
 1158SOL    HW1 3609   0.949   2.561   2.338
 1158SOL    HW2 3610   0.831   2.653   2.355
 1159SOL     OW 3611   0.801   1.478   1.642
 1159SOL    HW1 3612   0.768   1.425   1.715
 1159SOL    HW2 3613   0.888   1.443   1.625
 1160SOL     OW 3614   2.630   2.160   2.811
 1160SOL    HW1 3615   2.690   2.187   2.742
 1160SOL    HW2 3616   2.605   2.070   2.789
 1161SOL     OW 3617   1.954   2.623   1.277
 1161SOL    HW1 3618   1.886   2.559   1.254
 1161SOL    HW2 3619   1.969   2.608   1.370
 1162SOL     OW 3620   1.520   0.451   3.301
 1162SOL    HW1 3621   1.568   0.462   3.383
 1162SOL    HW2 3622   1.454   0.521   3.303
 1163SOL     OW 3623   3.554   2.707   1.650
 1163SOL    HW1 3624   3.597   2.751   1.724
 1163SOL    HW2 3625   3.469   2.678   1.685
 1164SOL     OW 3626   3.383   1.116   1.089
 1164SOL    HW1 3627   3.452   1.071   1.040
 1164SOL    HW2 3628   3.428   1.187   1.134
 1165SOL     OW 3629   0.050   0.186   0.116
 1165SOL    HW1 3630   0.067   0.104   0.070
 1165SOL    HW2 3631   0.131   0.205   0.163
 1166SOL     OW 3632   0.237   3.652   2.273
 1166SOL    HW1 3633   0.325   3.618   2.256
 1166SOL    HW2 3634   0.240   3.682   2.364
 1167SOL     OW 3635   0.167   2.915   2.249
 1167SOL    HW1 3636   0.204   2.851   2.310
 1167SOL    HW2 3637   0.074   2.893   2.245
 1168SOL     OW 3638   1.613   0.861   1.693
 1168SOL    HW1 3639   1.655   0.947   1.700
 1168SOL    HW2 3640   1.648   0.823   1.613
 1169SOL     OW 3641   0.646   0.803   2.015
 1169SOL    HW1 3642   0.658   0.718   1.974
 1169SOL    HW2 3643   0.559   0.798   2.055
 1170SOL     OW 3644   0.493   2.999   1.859
 1170SOL    HW1 3645   0.550   3.051   1.917
 1170SOL    HW2 3646   0.413   2.986   1.910
 1171SOL     OW 3647   2.351   0.625   0.568
 1171SOL    HW1 3648   2.263   0.624   0.530
 1171SOL    HW2 3649   2.410   0.626   0.492
 1172SOL     OW 3650   2.828   0.324   0.279
 1172SOL    HW1 3651   2.756   0.264   0.259
 1172SOL    HW2 3652   2.861   0.294   0.363
 1173SOL     OW 3653   3.761   3.434   0.342
 1173SOL    HW1 3654   3.695   3.465   0.405
 1173SOL    HW2 3655   3.842   3.430   0.393
 1174SOL     OW 3656   1.876   2.038   3.178
 1174SOL    HW1 3657   1.951   2.055   3.237
 1174SOL    HW2 3658   1.858   2.124   3.139
 1175SOL     OW 3659   1.318   0.984   1.641
 1175SOL    HW1 3660   1.241   0.928   1.646
 1175SOL    HW2 3661   1.390   0.930   1.673
 1176SOL     OW 3662   1.406   2.802   0.695
 1176SOL    HW1 3663   1.430   2.711   0.681
 1176SOL    HW2 3664   1.354   2.801   0.776
 1177SOL     OW 3665   1.709   0.002   0.875
 1177SOL    HW1 3666   1.764   0.078   0.893
 1177SOL    HW2 3667   1.649   0.032   0.807
 1178SOL     OW 3668   3.858   2.876   0.880
 1178SOL    HW1 3669   3.896   2.934   0.946
 1178SOL    HW2 3670   3.865   2.789   0.918
 1179SOL     OW 3671   2.866   2.943   0.581
 1179SOL    HW1 3672   2.878   2.850   0.562
 1179SOL    HW2 3673   2.805   2.973   0.513
 1180SOL     OW 3674   0.341   2.040   1.907
 1180SOL    HW1 3675   0.251   2.037   1.941
 1180SOL    HW2 3676   0.356   1.952   1.872
 1181SOL     OW 3677   2.571   2.785   2.149
 1181SOL    HW1 3678   2.627   2.712   2.173
 1181SOL    HW2 3679   2.559   2.777   2.054
 1182SOL     OW 3680   3.207   1.105   0.056
 1182SOL    HW1 3681   3.301   1.125   0.055
 1182SOL    HW2 3682   3.164   1.189   0.044
 1183SOL     OW 3683   2.887   1.876   2.654
 1183SOL    HW1 3684   2.980   1.896   2.667
 1183SOL    HW2 3685   2.870   1.801   2.711
 1184SOL     OW 3686   3.704   3.147   0.736
 1184SOL    HW1 3687   3.676   3.075   0.678
 1184SOL    HW2 3688   3.745   3.103   0.811
 1185SOL     OW 3689   3.488   2.237   1.076
 1185SOL    HW1 3690   3.442   2.240   0.992
 1185SOL    HW2 3691   3.422   2.262   1.141
 1186SOL     OW 3692   0.848   1.506   3.497
 1186SOL    HW1 3693   0.905   1.445   3.450
 1186SOL    HW2 3694   0.812   1.563   3.429
 1187SOL     OW 3695   3.844   3.275   0.976
 1187SOL    HW1 3696   3.799   3.354   0.947
 1187SOL    HW2 3697   3.935   3.288   0.949
 1188SOL     OW 3698   0.498   2.862   0.453
 1188SOL    HW1 3699   0.544   2.801   0.510
 1188SOL    HW2 3700   0.546   2.860   0.370
 1189SOL     OW 3701   2.960   1.309   3.523
 1189SOL    HW1 3702   2.922   1.329   3.437
 1189SOL    HW2 3703   2.988   1.394   3.557
 1190SOL     OW 3704   1.749   0.912   3.458
 1190SOL    HW1 3705   1.804   0.961   3.519
 1190SOL    HW2 3706   1.675   0.971   3.440
 1191SOL     OW 3707   1.686   1.249   3.019
 1191SOL    HW1 3708   1.607   1.301   3.006
 1191SOL    HW2 3709   1.756   1.313   3.032
 1192SOL     OW 3710   2.211   2.699   1.414
 1192SOL    HW1 3711   2.128   2.711   1.460
 1192SOL    HW2 3712   2.191   2.639   1.342
 1193SOL     OW 3713   3.904   3.336   1.901
 1193SOL    HW1 3714   3.885   3.374   1.815
 1193SOL    HW2 3715   3.851   3.387   1.962
 1194SOL     OW 3716   0.437   0.940   0.276
 1194SOL    HW1 3717   0.533   0.933   0.280
 1194SOL    HW2 3718   0.413   0.984   0.357
 1195SOL     OW 3719   3.734   2.989   1.365
 1195SOL    HW1 3720   3.682   2.915   1.333
 1195SOL    HW2 3721   3.690   3.066   1.329
 1196SOL     OW 3722   2.214   1.774   3.882
 1196SOL    HW1 3723   2.204   1.693   3.932
 1196SOL    HW2 3724   2.302   1.804   3.903
 1197SOL     OW 3725   1.067   1.788   2.649
 1197SOL    HW1 3726   1.092   1.699   2.674
 1197SOL    HW2 3727   1.136   1.843   2.685
 1198SOL     OW 3728   1.696   0.041   2.316
 1198SOL    HW1 3729   1.605   0.041   2.346
 1198SOL    HW2 3730   1.740   0.102   2.375
 1199SOL     OW 3731   2.189   1.628   3.304
 1199SOL    HW1 3732   2.163   1.537   3.319
 1199SOL    HW2 3733   2.203   1.664   3.391
 1200SOL     OW 3734   3.183   2.643   3.008
 1200SOL    HW1 3735   3.119   2.575   2.990
 1200SOL    HW2 3736   3.268   2.604   2.987
 1201SOL     OW 3737   3.972   3.051   3.922
 1201SOL    HW1 3738   3.958   3.145   3.933
 1201SOL    HW2 3739   3.918   3.011   3.990
 1202SOL     OW 3740   1.762   3.874   3.045
 1202SOL    HW1 3741   1.702   3.801   3.029
 1202SOL    HW2 3742   1.825   3.839   3.108
 1203SOL     OW 3743   1.495   3.805   0.620
 1203SOL    HW1 3744   1.489   3.767   0.708
 1203SOL    HW2 3745   1.589   3.815   0.604
 1204SOL     OW 3746   3.033   2.434   1.195
 1204SOL    HW1 3747   3.128   2.430   1.207
 1204SOL    HW2 3748   3.020   2.506   1.133
 1205SOL     OW 3749   0.077   3.809   2.808
 1205SOL    HW1 3750   0.156   3.857   2.784
 1205SOL    HW2 3751   0.065   3.746   2.738
 1206SOL     OW 3752   3.671   1.449   1.723
 1206SOL    HW1 3753   3.595   1.416   1.770
 1206SOL    HW2 3754   3.738   1.381   1.734
 1207SOL     OW 3755   3.113   0.514   0.526
 1207SOL    HW1 3756   3.137   0.422   0.520
 1207SOL    HW2 3757   3.155   0.545   0.606
 1208SOL     OW 3758   3.421   3.532   2.210
 1208SOL    HW1 3759   3.495   3.477   2.234
 1208SOL    HW2 3760   3.426   3.538   2.114
 1209SOL     OW 3761   1.094   0.844   2.339
 1209SOL    HW1 3762   1.173   0.803   2.304
 1209SOL    HW2 3763   1.026   0.823   2.274
 1210SOL     OW 3764   3.877   3.895   2.182
 1210SOL    HW1 3765   3.940   3.876   2.252
 1210SOL    HW2 3766   3.833   3.975   2.210
 1211SOL     OW 3767   2.124   2.221   0.456
 1211SOL    HW1 3768   2.077   2.247   0.377
 1211SOL    HW2 3769   2.055   2.197   0.518
 1212SOL     OW 3770   3.011   2.822   0.912
 1212SOL    HW1 3771   3.053   2.790   0.992
 1212SOL    HW2 3772   3.072   2.799   0.842
 1213SOL     OW 3773   1.154   1.500   1.176
 1213SOL    HW1 3774   1.217   1.550   1.124
 1213SOL    HW2 3775   1.133   1.558   1.250
 1214SOL     OW 3776   0.977   2.423   3.494
 1214SOL    HW1 3777   0.941   2.456   3.412
 1214SOL    HW2 3778   1.072   2.435   3.485
 1215SOL     OW 3779   1.621   0.468   2.040
 1215SOL    HW1 3780   1.605   0.547   1.989
 1215SOL    HW2 3781   1.712   0.476   2.070
 1216SOL     OW 3782   1.987   3.926   1.608
 1216SOL    HW1 3783   2.005   3.838   1.576
 1216SOL    HW2 3784   1.976   3.979   1.529
 1217SOL     OW 3785   3.611   0.089   1.038
 1217SOL    HW1 3786   3.627   0.179   1.010
 1217SOL    HW2 3787   3.617   0.038   0.958
 1218SOL     OW 3788   3.321   2.141   0.259
 1218SOL    HW1 3789   3.382   2.104   0.322
 1218SOL    HW2 3790   3.377   2.169   0.186
 1219SOL     OW 3791   3.739   2.704   2.716
 1219SOL    HW1 3792   3.647   2.720   2.696
 1219SOL    HW2 3793   3.740   2.676   2.808
 1220SOL     OW 3794   0.122   3.814   0.755
 1220SOL    HW1 3795   0.205   3.799   0.710
 1220SOL    HW2 3796   0.076   3.878   0.701
 1221SOL     OW 3797   3.602   3.483   1.682
 1221SOL    HW1 3798   3.694   3.476   1.657
 1221SOL    HW2 3799   3.560   3.526   1.607
 1222SOL     OW 3800   3.936   1.572   3.064
 1222SOL    HW1 3801   3.902   1.602   3.148
 1222SOL    HW2 3802   3.993   1.499   3.085
 1223SOL     OW 3803   2.339   2.841   0.939
 1223SOL    HW1 3804   2.376   2.898   0.872
 1223SOL    HW2 3805   2.262   2.802   0.897
 1224SOL     OW 3806   0.830   2.356   0.814
 1224SOL    HW1 3807   0.858   2.369   0.904
 1224SOL    HW2 3808   0.876   2.424   0.764
 1225SOL     OW 3809   2.522   0.171   0.232
 1225SOL    HW1 3810   2.446   0.127   0.270
 1225SOL    HW2 3811   2.486   0.223   0.160
 1226SOL     OW 3812   2.350   0.492   3.808
 1226SOL    HW1 3813   2.410   0.538   3.749
 1226SOL    HW2 3814   2.279   0.554   3.824
 1227SOL     OW 3815   0.502   3.586   0.927
 1227SOL    HW1 3816   0.499   3.678   0.954
 1227SOL    HW2 3817   0.480   3.538   1.007
 1228SOL     OW 3818   0.635   3.562   0.511
 1228SOL    HW1 3819   0.629   3.536   0.419
 1228SOL    HW2 3820   0.549   3.542   0.547
 1229SOL     OW 3821   3.127   3.292   2.755
 1229SOL    HW1 3822   3.067   3.355   2.714
 1229SOL    HW2 3823   3.074   3.213   2.767
 1230SOL     OW 3824   1.372   2.124   2.487
 1230SOL    HW1 3825   1.455   2.082   2.509
 1230SOL    HW2 3826   1.312   2.052   2.468
 1231SOL     OW 3827   2.898   1.381   2.430
 1231SOL    HW1 3828   2.881   1.289   2.451
 1231SOL    HW2 3829   2.985   1.398   2.467
 1232SOL     OW 3830   0.370   1.177   1.516
 1232SOL    HW1 3831   0.334   1.097   1.554
 1232SOL    HW2 3832   0.430   1.147   1.448
 1233SOL     OW 3833   0.259   2.676   2.454
 1233SOL    HW1 3834   0.213   2.616   2.395
 1233SOL    HW2 3835   0.284   2.622   2.529
 1234SOL     OW 3836   3.821   0.378   2.131
 1234SOL    HW1 3837   3.836   0.299   2.080
 1234SOL    HW2 3838   3.862   0.448   2.079
 1235SOL     OW 3839   2.565   3.445   3.489
 1235SOL    HW1 3840   2.518   3.392   3.425
 1235SOL    HW2 3841   2.635   3.487   3.438
 1236SOL     OW 3842   2.192   3.006   3.327
 1236SOL    HW1 3843   2.212   2.945   3.255
 1236SOL    HW2 3844   2.276   3.026   3.366
 1237SOL     OW 3845   1.322   0.442   1.983
 1237SOL    HW1 3846   1.410   0.445   2.019
 1237SOL    HW2 3847   1.305   0.532   1.955
 1238SOL     OW 3848   0.131   0.702   3.826
 1238SOL    HW1 3849   0.168   0.763   3.889
 1238SOL    HW2 3850   0.205   0.650   3.796
 1239SOL     OW 3851   2.290   2.828   3.143
 1239SOL    HW1 3852   2.350   2.845   3.070
 1239SOL    HW2 3853   2.222   2.773   3.105
 1240SOL     OW 3854   2.310  -0.004   3.079
 1240SOL    HW1 3855   2.311   0.091   3.093
 1240SOL    HW2 3856   2.306  -0.041   3.167
 1241SOL     OW 3857   0.549   0.966   1.450
 1241SOL    HW1 3858   0.499   0.885   1.454
 1241SOL    HW2 3859   0.639   0.940   1.471
 1242SOL     OW 3860   3.043   3.092   0.735
 1242SOL    HW1 3861   3.102   3.017   0.746
 1242SOL    HW2 3862   2.969   3.057   0.685
 1243SOL     OW 3863   1.510   3.803   2.663
 1243SOL    HW1 3864   1.471   3.813   2.750
 1243SOL    HW2 3865   1.437   3.776   2.607
 1244SOL     OW 3866   0.115   1.210   0.748
 1244SOL    HW1 3867   0.103   1.242   0.659
 1244SOL    HW2 3868   0.142   1.119   0.737
 1245SOL     OW 3869   0.563   2.457   0.953
 1245SOL    HW1 3870   0.485   2.510   0.968
 1245SOL    HW2 3871   0.619   2.510   0.896
 1246SOL     OW 3872   2.743   2.995   0.354
 1246SOL    HW1 3873   2.810   3.062   0.359
 1246SOL    HW2 3874   2.785   2.921   0.311
 1247SOL     OW 3875   3.933   1.672   2.265
 1247SOL    HW1 3876   3.906   1.583   2.287
 1247SOL    HW2 3877   3.909   1.724   2.342
 1248SOL     OW 3878   1.361   2.024   3.796
 1248SOL    HW1 3879   1.443   1.979   3.815
 1248SOL    HW2 3880   1.299   1.989   3.860
 1249SOL     OW 3881   0.919   3.016   0.368
 1249SOL    HW1 3882   0.996   3.029   0.424
 1249SOL    HW2 3883   0.885   3.105   0.353
 1250SOL     OW 3884   1.682   2.416   1.885
 1250SOL    HW1 3885   1.626   2.447   1.957
 1250SOL    HW2 3886   1.694   2.323   1.902
 1251SOL     OW 3887   1.032   2.335   2.386
 1251SOL    HW1 3888   1.084   2.313   2.463
 1251SOL    HW2 3889   1.066   2.421   2.359
 1252SOL     OW 3890   1.475   1.675   2.993
 1252SOL    HW1 3891   1.464   1.675   2.898
 1252SOL    HW2 3892   1.405   1.731   3.026
 1253SOL     OW 3893   1.933   2.976   2.692
 1253SOL    HW1 3894   1.890   3.001   2.610
 1253SOL    HW2 3895   2.000   2.913   2.666
 1254SOL     OW 3896   0.722   0.240   1.751
 1254SOL    HW1 3897   0.767   0.198   1.824
 1254SOL    HW2 3898   0.792   0.259   1.688
 1255SOL     OW 3899   3.310   1.388   0.937
 1255SOL    HW1 3900   3.370   1.327   0.894
 1255SOL    HW2 3901   3.228   1.340   0.943
 1256SOL     OW 3902   2.939   0.452   3.401
 1256SOL    HW1 3903   2.859   0.407   3.372
 1256SOL    HW2 3904   2.907   0.534   3.440
 1257SOL     OW 3905   1.182   3.174   3.722
 1257SOL    HW1 3906   1.150   3.126   3.646
 1257SOL    HW2 3907   1.107   3.225   3.752
 1258SOL     OW 3908   2.725   0.796   3.531
 1258SOL    HW1 3909   2.793   0.753   3.479
 1258SOL    HW2 3910   2.766   0.810   3.616
 1259SOL     OW 3911   3.983   3.748   3.672
 1259SOL    HW1 3912   4.000   3.836   3.706
 1259SOL    HW2 3913   3.894   3.753   3.636
 1260SOL     OW 3914   3.242   0.674   3.612
 1260SOL    HW1 3915   3.166   0.729   3.633
 1260SOL    HW2 3916   3.212   0.584   3.628
 1261SOL     OW 3917   1.088   3.170   0.926
 1261SOL    HW1 3918   1.167   3.197   0.879
 1261SOL    HW2 3919   1.104   3.197   1.016
 1262SOL     OW 3920   1.309   2.467   3.925
 1262SOL    HW1 3921   1.306   2.557   3.893
 1262SOL    HW2 3922   1.361   2.420   3.860
 1263SOL     OW 3923   2.629   1.924   3.712
 1263SOL    HW1 3924   2.559   1.949   3.773
 1263SOL    HW2 3925   2.617   1.830   3.699
 1264SOL     OW 3926   2.678   1.884   0.108
 1264SOL    HW1 3927   2.652   1.917   0.194
 1264SOL    HW2 3928   2.773   1.899   0.104
 1265SOL     OW 3929   1.515   2.142   2.768
 1265SOL    HW1 3930   1.554   2.055   2.777
 1265SOL    HW2 3931   1.586   2.195   2.730
 1266SOL     OW 3932   0.563   1.474   2.055
 1266SOL    HW1 3933   0.652   1.464   2.090
 1266SOL    HW2 3934   0.573   1.531   1.979
 1267SOL     OW 3935   3.925   0.722   2.169
 1267SOL    HW1 3936   3.913   0.661   2.096
 1267SOL    HW2 3937   3.954   0.804   2.127
 1268SOL     OW 3938   3.555   1.810   3.667
 1268SOL    HW1 3939   3.499   1.887   3.659
 1268SOL    HW2 3940   3.632   1.831   3.613
 1269SOL     OW 3941   2.983   3.939   1.966
 1269SOL    HW1 3942   2.977   4.013   1.906
 1269SOL    HW2 3943   3.077   3.920   1.970
 1270SOL     OW 3944   1.846   0.700   2.820
 1270SOL    HW1 3945   1.783   0.716   2.750
 1270SOL    HW2 3946   1.863   0.606   2.816
 1271SOL     OW 3947   3.957   1.978   1.678
 1271SOL    HW1 3948   3.918   2.019   1.601
 1271SOL    HW2 3949   3.986   2.051   1.732
 1272SOL     OW 3950   1.741   0.284   2.408
 1272SOL    HW1 3951   1.795   0.362   2.423
 1272SOL    HW2 3952   1.654   0.318   2.390
 1273SOL     OW 3953   3.105   3.609   0.070
 1273SOL    HW1 3954   3.148   3.525   0.058
 1273SOL    HW2 3955   3.170   3.664   0.112
 1274SOL     OW 3956   1.122   2.548   0.433
 1274SOL    HW1 3957   1.134   2.635   0.471
 1274SOL    HW2 3958   1.048   2.557   0.374
 1275SOL     OW 3959   1.323   0.967   3.341
 1275SOL    HW1 3960   1.291   0.877   3.342
 1275SOL    HW2 3961   1.409   0.962   3.300
 1276SOL     OW 3962   0.906   1.433   1.275
 1276SOL    HW1 3963   0.951   1.465   1.197
 1276SOL    HW2 3964   0.976   1.410   1.336
 1277SOL     OW 3965   0.818   0.702   1.703
 1277SOL    HW1 3966   0.788   0.663   1.785
 1277SOL    HW2 3967   0.794   0.795   1.710
 1278SOL     OW 3968   3.059   1.320   0.589
 1278SOL    HW1 3969   3.153   1.332   0.600
 1278SOL    HW2 3970   3.020   1.362   0.666
 1279SOL     OW 3971   1.706   2.153   1.975
 1279SOL    HW1 3972   1.783   2.096   1.980
 1279SOL    HW2 3973   1.649   2.112   1.910
 1280SOL     OW 3974   2.301   2.276   2.545
 1280SOL    HW1 3975   2.282   2.249   2.455
 1280SOL    HW2 3976   2.395   2.258   2.555
 1281SOL     OW 3977   2.783   0.665   2.564
 1281SOL    HW1 3978   2.848   0.727   2.596
 1281SOL    HW2 3979   2.724   0.717   2.509
 1282SOL     OW 3980   2.411   3.933   0.919
 1282SOL    HW1 3981   2.503   3.914   0.936
 1282SOL    HW2 3982   2.367   3.917   1.002
 1283SOL     OW 3983   2.092   2.527   3.809
 1283SOL    HW1 3984   2.135   2.445   3.785
 1283SOL    HW2 3985   2.029   2.502   3.877
 1284SOL     OW 3986   3.242   3.770   3.367
 1284SOL    HW1 3987   3.169   3.826   3.339
 1284SOL    HW2 3988   3.294   3.827   3.424
 1285SOL     OW 3989   0.988   3.398   0.545
 1285SOL    HW1 3990   1.012   3.484   0.510
 1285SOL    HW2 3991   0.962   3.416   0.635
 1286SOL     OW 3992   2.340   0.513   2.504
 1286SOL    HW1 3993   2.317   0.472   2.421
 1286SOL    HW2 3994   2.412   0.459   2.538
 1287SOL     OW 3995   0.512   0.968   2.782
 1287SOL    HW1 3996   0.439   0.912   2.811
 1287SOL    HW2 3997   0.469   1.043   2.741
 1288SOL     OW 3998   3.112   1.669   0.117
 1288SOL    HW1 3999   3.194   1.677   0.069
 1288SOL    HW2 4000   3.086   1.578   0.104
 1289SOL     OW 4001   2.730   3.424   2.510
 1289SOL    HW1 4002   2.766   3.472   2.436
 1289SOL    HW2 4003   2.774   3.461   2.587
 1290SOL     OW 4004   2.662   2.801   1.085
 1290SOL    HW1 4005   2.738   2.758   1.046
 1290SOL    HW2 4006   2.605   2.730   1.112
 1291SOL     OW 4007   2.919   2.076   1.345
 1291SOL    HW1 4008   3.002   2.031   1.360
 1291SOL    HW2 4009   2.865   2.054   1.421
 1292SOL     OW 4010   3.615   3.576   0.108
 1292SOL    HW1 4011   3.670   3.646   0.072
 1292SOL    HW2 4012   3.669   3.537   0.177
 1293SOL     OW 4013   1.559   1.148   2.389
 1293SOL    HW1 4014   1.486   1.087   2.398
 1293SOL    HW2 4015   1.545   1.189   2.304
 1294SOL     OW 4016   0.298   1.443   1.805
 1294SOL    HW1 4017   0.206   1.418   1.799
 1294SOL    HW2 4018   0.317   1.442   1.899
 1295SOL     OW 4019   0.131   3.108   0.213
 1295SOL    HW1 4020   0.043   3.123   0.247
 1295SOL    HW2 4021   0.118   3.064   0.130
 1296SOL     OW 4022   0.092   0.995   1.792
 1296SOL    HW1 4023   0.163   0.979   1.730
 1296SOL    HW2 4024   0.100   0.925   1.857
 1297SOL     OW 4025  -0.013   3.385   2.455
 1297SOL    HW1 4026   0.047   3.382   2.380
 1297SOL    HW2 4027  -0.022   3.293   2.482
 1298SOL     OW 4028   0.483   1.803   0.504
 1298SOL    HW1 4029   0.490   1.723   0.453
 1298SOL    HW2 4030   0.570   1.843   0.498
 1299SOL     OW 4031   2.997   2.411   0.733
 1299SOL    HW1 4032   2.948   2.331   0.752
 1299SOL    HW2 4033   2.932   2.473   0.701
 1300SOL     OW 4034   1.846   1.660   0.230
 1300SOL    HW1 4035   1.912   1.661   0.160
 1300SOL    HW2 4036   1.859   1.576   0.274
 1301SOL     OW 4037   1.901   0.511   2.456
 1301SOL    HW1 4038   1.982   0.538   2.414
 1301SOL    HW2 4039   1.925   0.501   2.549
 1302SOL     OW 4040   1.430   1.426   0.527
 1302SOL    HW1 4041   1.498   1.485   0.560
 1302SOL    HW2 4042   1.349   1.459   0.565
 1303SOL     OW 4043   1.086   0.542   0.226
 1303SOL    HW1 4044   1.023   0.477   0.195
 1303SOL    HW2 4045   1.121   0.505   0.307
 1304SOL     OW 4046   0.288   0.611   2.487
 1304SOL    HW1 4047   0.345   0.688   2.490
 1304SOL    HW2 4048   0.296   0.572   2.574
 1305SOL     OW 4049   1.004   0.145   3.841
 1305SOL    HW1 4050   1.045   0.190   3.914
 1305SOL    HW2 4051   1.061   0.070   3.823
 1306SOL     OW 4052   1.128   1.555   3.815
 1306SOL    HW1 4053   1.126   1.470   3.770
 1306SOL    HW2 4054   1.215   1.559   3.854
 1307SOL     OW 4055   0.421   0.698   1.432
 1307SOL    HW1 4056   0.474   0.632   1.476
 1307SOL    HW2 4057   0.391   0.656   1.352
 1308SOL     OW 4058   1.374   2.425   0.417
 1308SOL    HW1 4059   1.419   2.475   0.485
 1308SOL    HW2 4060   1.285   2.462   0.416
 1309SOL     OW 4061   0.516   3.547   2.711
 1309SOL    HW1 4062   0.608   3.545   2.684
 1309SOL    HW2 4063   0.502   3.462   2.753
 1310SOL     OW 4064   1.340   0.435   2.644
 1310SOL    HW1 4065   1.327   0.347   2.609
 1310SOL    HW2 4066   1.252   0.467   2.664
 1311SOL     OW 4067   3.803   3.534   2.060
 1311SOL    HW1 4068   3.761   3.500   2.139
 1311SOL    HW2 4069   3.859   3.606   2.091
 1312SOL     OW 4070   1.563   3.257   3.928
 1312SOL    HW1 4071   1.657   3.237   3.923
 1312SOL    HW2 4072   1.560   3.352   3.942
 1313SOL     OW 4073   3.173   3.312   0.604
 1313SOL    HW1 4074   3.198   3.370   0.531
 1313SOL    HW2 4075   3.097   3.264   0.572
 1314SOL     OW 4076  -0.002   0.566   1.945
 1314SOL    HW1 4077  -0.058   0.541   1.872
 1314SOL    HW2 4078   0.082   0.589   1.905
 1315SOL     OW 4079   0.117   2.346   3.754
 1315SOL    HW1 4080   0.173   2.361   3.678
 1315SOL    HW2 4081   0.174   2.365   3.829
 1316SOL     OW 4082   1.564   3.355   0.850
 1316SOL    HW1 4083   1.515   3.374   0.771
 1316SOL    HW2 4084   1.647   3.318   0.819
 1317SOL     OW 4085   2.263   1.710   3.593
 1317SOL    HW1 4086   2.254   1.733   3.686
 1317SOL    HW2 4087   2.269   1.795   3.548
 1318SOL     OW 4088   1.145   1.261   3.734
 1318SOL    HW1 4089   1.105   1.193   3.680
 1318SOL    HW2 4090   1.188   1.212   3.804
 1319SOL     OW 4091   3.024   3.622   1.181
 1319SOL    HW1 4092   2.978   3.571   1.115
 1319SOL    HW2 4093   2.979   3.707   1.181
 1320SOL     OW 4094   3.929   3.091   2.546
 1320SOL    HW1 4095   3.935   3.002   2.510
 1320SOL    HW2 4096   4.003   3.097   2.606
 1321SOL     OW 4097   0.660   2.655   2.480
 1321SOL    HW1 4098   0.663   2.560   2.493
 1321SOL    HW2 4099   0.650   2.691   2.568
 1322SOL     OW 4100   2.943   3.719   3.261
 1322SOL    HW1 4101   2.930   3.670   3.342
 1322SOL    HW2 4102   2.857   3.755   3.240
 1323SOL     OW 4103   3.845   1.641   3.297
 1323SOL    HW1 4104   3.757   1.609   3.276
 1323SOL    HW2 4105   3.834   1.685   3.382
 1324SOL     OW 4106   3.152   0.670   0.789
 1324SOL    HW1 4107   3.156   0.717   0.872
 1324SOL    HW2 4108   3.060   0.646   0.779
 1325SOL     OW 4109   0.744   2.370   2.577
 1325SOL    HW1 4110   0.745   2.329   2.663
 1325SOL    HW2 4111   0.741   2.297   2.515
 1326SOL     OW 4112   2.836   2.268   1.055
 1326SOL    HW1 4113   2.914   2.312   1.088
 1326SOL    HW2 4114   2.789   2.239   1.134
 1327SOL     OW 4115   0.571   2.047   2.448
 1327SOL    HW1 4116   0.514   2.087   2.381
 1327SOL    HW2 4117   0.658   2.082   2.429
 1328SOL     OW 4118   3.381   0.426   1.324
 1328SOL    HW1 4119   3.293   0.423   1.287
 1328SOL    HW2 4120   3.426   0.351   1.286
 1329SOL     OW 4121   0.749   1.402   0.144
 1329SOL    HW1 4122   0.732   1.383   0.052
 1329SOL    HW2 4123   0.741   1.497   0.151
 1330SOL     OW 4124   3.745   2.286   2.579
 1330SOL    HW1 4125   3.712   2.309   2.493
 1330SOL    HW2 4126   3.788   2.366   2.611
 1331SOL     OW 4127   0.359   3.792   0.402
 1331SOL    HW1 4128   0.358   3.788   0.498
 1331SOL    HW2 4129   0.312   3.713   0.374
 1332SOL     OW 4130   1.409   2.234   1.167
 1332SOL    HW1 4131   1.361   2.311   1.137
 1332SOL    HW2 4132   1.387   2.166   1.103
 1333SOL     OW 4133   3.084   3.917   1.638
 1333SOL    HW1 4134   3.128   3.987   1.589
 1333SOL    HW2 4135   3.110   3.836   1.593
 1334SOL     OW 4136   0.641   0.143   2.878
 1334SOL    HW1 4137   0.615   0.208   2.812
 1334SOL    HW2 4138   0.660   0.195   2.956
 1335SOL     OW 4139   0.338   2.243   2.081
 1335SOL    HW1 4140   0.363   2.174   2.019
 1335SOL    HW2 4141   0.297   2.311   2.027
 1336SOL     OW 4142   0.080   1.073   2.838
 1336SOL    HW1 4143   0.058   0.979   2.842
 1336SOL    HW2 4144   0.014   1.110   2.780
 1337SOL     OW 4145   0.496   0.438   3.367
 1337SOL    HW1 4146   0.456   0.518   3.400
 1337SOL    HW2 4147   0.446   0.418   3.287
 1338SOL     OW 4148   2.230   3.673   2.930
 1338SOL    HW1 4149   2.261   3.750   2.977
 1338SOL    HW2 4150   2.142   3.696   2.900
 1339SOL     OW 4151   2.371   3.776   0.189
 1339SOL    HW1 4152   2.287   3.743   0.220
 1339SOL    HW2 4153   2.435   3.716   0.228
 1340SOL     OW 4154   1.707   3.321   3.103
 1340SOL    HW1 4155   1.710   3.413   3.077
 1340SOL    HW2 4156   1.727   3.322   3.197
 1341SOL     OW 4157   1.408   3.522   0.205
 1341SOL    HW1 4158   1.427   3.540   0.297
 1341SOL    HW2 4159   1.381   3.607   0.169
 1342SOL     OW 4160   1.894   0.297   1.505
 1342SOL    HW1 4161   1.840   0.375   1.492
 1342SOL    HW2 4162   1.975   0.329   1.545
 1343SOL     OW 4163   1.615   1.300   0.919
 1343SOL    HW1 4164   1.545   1.272   0.978
 1343SOL    HW2 4165   1.592   1.262   0.834
 1344SOL     OW 4166   0.138   1.526   2.802
 1344SOL    HW1 4167   0.077   1.598   2.816
 1344SOL    HW2 4168   0.140   1.479   2.886
 1345SOL     OW 4169   0.270   1.956   2.775
 1345SOL    HW1 4170   0.335   1.894   2.742
 1345SOL    HW2 4171   0.309   2.042   2.760
 1346SOL     OW 4172   3.488   1.234   0.786
 1346SOL    HW1 4173   3.449   1.158   0.742
 1346SOL    HW2 4174   3.533   1.198   0.862
 1347SOL     OW 4175   0.543   2.391   2.228
 1347SOL    HW1 4176   0.584   2.449   2.164
 1347SOL    HW2 4177   0.478   2.342   2.178
 1348SOL     OW 4178   1.110   0.742   3.634
 1348SOL    HW1 4179   1.129   0.696   3.553
 1348SOL    HW2 4180   1.059   0.819   3.607
 1349SOL     OW 4181   3.181   2.160   0.002
 1349SOL    HW1 4182   3.266   2.202   0.006
 1349SOL    HW2 4183   3.171   2.115   0.086
 1350SOL     OW 4184   2.188   0.047   1.270
 1350SOL    HW1 4185   2.136   0.070   1.347
 1350SOL    HW2 4186   2.227  -0.038   1.292
 1351SOL     OW 4187   2.747   1.671   2.773
 1351SOL    HW1 4188   2.826   1.685   2.825
 1351SOL    HW2 4189   2.705   1.595   2.813
 1352SOL     OW 4190   0.954   0.551   0.548
 1352SOL    HW1 4191   0.890   0.539   0.478
 1352SOL    HW2 4192   1.008   0.472   0.544
 1353SOL     OW 4193   2.920   0.993   2.827
 1353SOL    HW1 4194   2.986   1.015   2.893
 1353SOL    HW2 4195   2.889   1.078   2.796
 1354SOL     OW 4196   3.487   1.073   3.791
 1354SOL    HW1 4197   3.488   0.990   3.744
 1354SOL    HW2 4198   3.516   1.051   3.880
 1355SOL     OW 4199   3.680   2.158   0.044
 1355SOL    HW1 4200   3.685   2.103  -0.034
 1355SOL    HW2 4201   3.770   2.183   0.062
 1356SOL     OW 4202   0.559   0.094   1.488
 1356SOL    HW1 4203   0.608   0.027   1.535
 1356SOL    HW2 4204   0.608   0.175   1.505
 1357SOL     OW 4205   1.377   3.474   0.693
 1357SOL    HW1 4206   1.386   3.510   0.605
 1357SOL    HW2 4207   1.330   3.541   0.742
 1358SOL     OW 4208   2.015   3.174   3.207
 1358SOL    HW1 4209   2.015   3.130   3.122
 1358SOL    HW2 4210   2.075   3.122   3.260
 1359SOL     OW 4211   2.963   3.327   3.603
 1359SOL    HW1 4212   3.032   3.335   3.536
 1359SOL    HW2 4213   3.006   3.353   3.684
 1360SOL     OW 4214   2.095   1.953   0.952
 1360SOL    HW1 4215   2.156   1.932   0.881
 1360SOL    HW2 4216   2.101   1.879   1.012
 1361SOL     OW 4217   1.240   0.061   1.412
 1361SOL    HW1 4218   1.163   0.119   1.406
 1361SOL    HW2 4219   1.304   0.100   1.353
 1362SOL     OW 4220   1.057   0.828   3.899
 1362SOL    HW1 4221   1.097   0.790   3.820
 1362SOL    HW2 4222   0.983   0.771   3.917
 1363SOL     OW 4223   0.943   2.547   3.032
 1363SOL    HW1 4224   0.863   2.594   3.009
 1363SOL    HW2 4225   0.929   2.519   3.122
 1364SOL     OW 4226   1.725   0.719   3.113
 1364SOL    HW1 4227   1.812   0.682   3.130
 1364SOL    HW2 4228   1.733   0.760   3.027
 1365SOL     OW 4229   1.653   1.179   3.304
 1365SOL    HW1 4230   1.690   1.172   3.216
 1365SOL    HW2 4231   1.689   1.262   3.338
 1366SOL     OW 4232   0.605   3.857   1.131
 1366SOL    HW1 4233   0.638   3.946   1.126
 1366SOL    HW2 4234   0.683   3.802   1.124
 1367SOL     OW 4235   0.962   3.624   0.205
 1367SOL    HW1 4236   1.004   3.642   0.289
 1367SOL    HW2 4237   0.876   3.589   0.229
 1368SOL     OW 4238   1.357   1.630   2.434
 1368SOL    HW1 4239   1.287   1.574   2.402
 1368SOL    HW2 4240   1.392   1.672   2.356
 1369SOL     OW 4241   1.315   3.005   2.706
 1369SOL    HW1 4242   1.319   2.909   2.703
 1369SOL    HW2 4243   1.296   3.031   2.616
 1370SOL     OW 4244   2.151   3.372   3.401
 1370SOL    HW1 4245   2.182   3.338   3.316
 1370SOL    HW2 4246   2.220   3.347   3.463
 1371SOL     OW 4247   1.412   3.863   1.838
 1371SOL    HW1 4248   1.461   3.877   1.757
 1371SOL    HW2 4249   1.320   3.869   1.812
 1372SOL     OW 4250   1.154   2.450   3.234
 1372SOL    HW1 4251   1.219   2.427   3.301
 1372SOL    HW2 4252   1.103   2.370   3.222
 1373SOL     OW 4253   1.437   0.755   1.403
 1373SOL    HW1 4254   1.369   0.823   1.402
 1373SOL    HW2 4255   1.394   0.678   1.367
 1374SOL     OW 4256   3.632   1.067   0.943
 1374SOL    HW1 4257   3.678   0.989   0.914
 1374SOL    HW2 4258   3.701   1.127   0.972
 1375SOL     OW 4259   1.957   2.573   0.116
 1375SOL    HW1 4260   1.916   2.639   0.061
 1375SOL    HW2 4261   1.985   2.621   0.194
 1376SOL     OW 4262   2.971   1.466   3.981
 1376SOL    HW1 4263   2.933   1.385   3.947
 1376SOL    HW2 4264   3.005   1.511   3.903
 1377SOL     OW 4265   2.098   2.750   2.745
 1377SOL    HW1 4266   2.080   2.704   2.828
 1377SOL    HW2 4267   2.182   2.715   2.717
 1378SOL     OW 4268   3.874   0.425   3.977
 1378SOL    HW1 4269   3.853   0.399   3.887
 1378SOL    HW2 4270   3.936   0.359   4.007
 1379SOL     OW 4271   0.298   1.991   1.405
 1379SOL    HW1 4272   0.293   1.935   1.482
 1379SOL    HW2 4273   0.214   1.977   1.360
 1380SOL     OW 4274   0.643   1.616   0.704
 1380SOL    HW1 4275   0.719   1.672   0.691
 1380SOL    HW2 4276   0.673   1.529   0.677
 1381SOL     OW 4277   3.308   3.944   0.911
 1381SOL    HW1 4278   3.400   3.937   0.886
 1381SOL    HW2 4279   3.288   3.861   0.953
 1382SOL     OW 4280   1.325   2.073   0.960
 1382SOL    HW1 4281   1.334   1.999   1.020
 1382SOL    HW2 4282   1.235   2.066   0.927
 1383SOL     OW 4283   0.069   2.120   0.950
 1383SOL    HW1 4284   0.157   2.087   0.933
 1383SOL    HW2 4285   0.075   2.159   1.038
 1384SOL     OW 4286   0.948   1.140   1.264
 1384SOL    HW1 4287   0.900   1.082   1.205
 1384SOL    HW2 4288   0.882   1.199   1.299
 1385SOL     OW 4289   0.889   3.889   2.339
 1385SOL    HW1 4290   0.831   3.817   2.363
 1385SOL    HW2 4291   0.862   3.962   2.394
 1386SOL     OW 4292   1.222   0.999   0.964
 1386SOL    HW1 4293   1.288   1.010   0.895
 1386SOL    HW2 4294   1.223   1.083   1.011
 1387SOL     OW 4295   0.651   2.309   1.370
 1387SOL    HW1 4296   0.670   2.389   1.322
 1387SOL    HW2 4297   0.557   2.294   1.357
 1388SOL     OW 4298   3.063   0.792   1.024
 1388SOL    HW1 4299   2.992   0.736   1.054
 1388SOL    HW2 4300   3.019   0.864   0.979
 1389SOL     OW 4301   3.285   1.893   0.907
 1389SOL    HW1 4302   3.317   1.804   0.921
 1389SOL    HW2 4303   3.362   1.941   0.878
 1390SOL     OW 4304   2.953   2.647   1.437
 1390SOL    HW1 4305   2.987   2.619   1.352
 1390SOL    HW2 4306   2.992   2.733   1.452
 1391SOL     OW 4307   2.175   2.202   0.980
 1391SOL    HW1 4308   2.134   2.116   0.972
 1391SOL    HW2 4309   2.153   2.231   1.069
 1392SOL     OW 4310   3.427   3.801   3.833
 1392SOL    HW1 4311   3.370   3.769   3.902
 1392SOL    HW2 4312   3.456   3.887   3.864
 1393SOL     OW 4313   2.962   1.884   0.066
 1393SOL    HW1 4314   2.964   1.903  -0.028
 1393SOL    HW2 4315   3.007   1.801   0.075
 1394SOL     OW 4316   0.297   2.833   2.880
 1394SOL    HW1 4317   0.348   2.760   2.845
 1394SOL    HW2 4318   0.333   2.847   2.967
 1395SOL     OW 4319   2.443   0.770   2.554
 1395SOL    HW1 4320   2.405   0.682   2.558
 1395SOL    HW2 4321   2.490   0.772   2.471
 1396SOL     OW 4322   3.480   2.059   3.029
 1396SOL    HW1 4323   3.397   2.101   3.005
 1396SOL    HW2 4324   3.453   1.980   3.077
 1397SOL     OW 4325   2.797   3.849   1.630
 1397SOL    HW1 4326   2.778   3.801   1.711
 1397SOL    HW2 4327   2.889   3.872   1.637
 1398SOL     OW 4328   3.830   2.133   3.503
 1398SOL    HW1 4329   3.918   2.136   3.466
 1398SOL    HW2 4330   3.772   2.123   3.428
 1399SOL     OW 4331   3.799   3.946   2.707
 1399SOL    HW1 4332   3.706   3.938   2.726
 1399SOL    HW2 4333   3.842   3.912   2.785
 1400SOL     OW 4334   0.439   2.236   0.488
 1400SOL    HW1 4335   0.490   2.220   0.568
 1400SOL    HW2 4336   0.462   2.325   0.463
 1401SOL     OW 4337   0.825   0.279   2.125
 1401SOL    HW1 4338   0.752   0.248   2.179
 1401SOL    HW2 4339   0.857   0.201   2.081
 1402SOL     OW 4340   2.267   1.350   2.319
 1402SOL    HW1 4341   2.227   1.264   2.333
 1402SOL    HW2 4342   2.208   1.394   2.257
 1403SOL     OW 4343   2.237   1.039   0.431
 1403SOL    HW1 4344   2.285   1.120   0.448
 1403SOL    HW2 4345   2.296   0.970   0.458
 1404SOL     OW 4346   2.892   3.769   2.179
 1404SOL    HW1 4347   2.986   3.790   2.178
 1404SOL    HW2 4348   2.854   3.829   2.115
 1405SOL     OW 4349   3.205   1.238   2.449
 1405SOL    HW1 4350   3.126   1.189   2.470
 1405SOL    HW2 4351   3.195   1.261   2.357
 1406SOL     OW 4352   1.955   0.426   2.746
 1406SOL    HW1 4353   1.877   0.399   2.794
 1406SOL    HW2 4354   2.021   0.359   2.767
 1407SOL     OW 4355   0.016   3.313  -0.005
 1407SOL    HW1 4356   0.065   3.336   0.074
 1407SOL    HW2 4357   0.006   3.396  -0.052
 1408SOL     OW 4358   2.026   3.333   0.530
 1408SOL    HW1 4359   2.071   3.260   0.572
 1408SOL    HW2 4360   2.069   3.411   0.564
 1409SOL     OW 4361   2.792   0.015   2.834
 1409SOL    HW1 4362   2.835   0.071   2.899
 1409SOL    HW2 4363   2.708  -0.007   2.873
 1410SOL     OW 4364   3.690   1.826   3.053
 1410SOL    HW1 4365   3.733   1.754   3.006
 1410SOL    HW2 4366   3.625   1.783   3.109
 1411SOL     OW 4367   0.441   2.043   3.012
 1411SOL    HW1 4368   0.471   2.028   2.922
 1411SOL    HW2 4369   0.347   2.060   3.003
 1412SOL     OW 4370   2.475   3.018   0.777
 1412SOL    HW1 4371   2.557   3.059   0.804
 1412SOL    HW2 4372   2.501   2.947   0.718
 1413SOL     OW 4373   0.937   0.568   1.191
 1413SOL    HW1 4374   1.009   0.571   1.128
 1413SOL    HW2 4375   0.970   0.615   1.267
 1414SOL     OW 4376   3.661   0.963   2.795
 1414SOL    HW1 4377   3.721   1.015   2.740
 1414SOL    HW2 4378   3.596   0.929   2.734
 1415SOL     OW 4379   1.834   3.108   1.492
 1415SOL    HW1 4380   1.743   3.090   1.516
 1415SOL    HW2 4381   1.870   3.022   1.469
 1416SOL     OW 4382   1.438   3.492   3.017
 1416SOL    HW1 4383   1.348   3.465   3.036
 1416SOL    HW2 4384   1.491   3.414   3.034
 1417SOL     OW 4385   2.343   3.157   2.859
 1417SOL    HW1 4386   2.320   3.249   2.843
 1417SOL    HW2 4387   2.428   3.161   2.902
 1418SOL     OW 4388   2.477   2.363   2.058
 1418SOL    HW1 4389   2.422   2.417   2.115
 1418SOL    HW2 4390   2.432   2.364   1.974
 1419SOL     OW 4391   2.220   1.048   2.298
 1419SOL    HW1 4392   2.314   1.060   2.286
 1419SOL    HW2 4393   2.213   0.980   2.365
 1420SOL     OW 4394   3.744   0.846   1.509
 1420SOL    HW1 4395   3.669   0.846   1.449
 1420SOL    HW2 4396   3.791   0.926   1.489
 1421SOL     OW 4397   3.678   2.023   2.613
 1421SOL    HW1 4398   3.707   2.004   2.702
 1421SOL    HW2 4399   3.708   2.112   2.596
 1422SOL     OW 4400   3.251   2.984   3.040
 1422SOL    HW1 4401   3.189   2.933   2.987
 1422SOL    HW2 4402   3.222   2.970   3.130
 1423SOL     OW 4403   3.758   1.641   2.665
 1423SOL    HW1 4404   3.666   1.645   2.638
 1423SOL    HW2 4405   3.805   1.685   2.594
 1424SOL     OW 4406   0.185   0.019   3.593
 1424SOL    HW1 4407   0.259   0.040   3.536
 1424SOL    HW2 4408   0.108   0.024   3.535
 1425SOL     OW 4409   0.766   1.728   3.799
 1425SOL    HW1 4410   0.782   1.746   3.707
 1425SOL    HW2 4411   0.709   1.651   3.798
 1426SOL     OW 4412   0.742   1.032   3.477
 1426SOL    HW1 4413   0.703   1.119   3.464
 1426SOL    HW2 4414   0.732   1.015   3.570
 1427SOL     OW 4415   2.024   0.846   3.371
 1427SOL    HW1 4416   1.935   0.834   3.405
 1427SOL    HW2 4417   2.048   0.934   3.399
 1428SOL     OW 4418   0.492   3.349   1.829
 1428SOL    HW1 4419   0.537   3.433   1.842
 1428SOL    HW2 4420   0.403   3.364   1.861
 1429SOL     OW 4421   2.456   3.841   1.394
 1429SOL    HW1 4422   2.536   3.828   1.445
 1429SOL    HW2 4423   2.428   3.753   1.370
 1430SOL     OW 4424   0.468   0.796   2.497
 1430SOL    HW1 4425   0.563   0.791   2.495
 1430SOL    HW2 4426   0.449   0.890   2.507
 1431SOL     OW 4427   1.820   1.017   1.269
 1431SOL    HW1 4428   1.880   0.983   1.203
 1431SOL    HW2 4429   1.804   1.108   1.242
 1432SOL     OW 4430   3.043   2.474   3.299
 1432SOL    HW1 4431   3.135   2.467   3.327
 1432SOL    HW2 4432   3.004   2.390   3.322
 1433SOL     OW 4433   1.161   2.238   2.612
 1433SOL    HW1 4434   1.225   2.261   2.679
 1433SOL    HW2 4435   1.210   2.184   2.549
 1434SOL     OW 4436   0.813   2.149   2.405
 1434SOL    HW1 4437   0.863   2.069   2.393
 1434SOL    HW2 4438   0.864   2.216   2.359
 1435SOL     OW 4439   3.390   2.455   3.335
 1435SOL    HW1 4440   3.461   2.497   3.384
 1435SOL    HW2 4441   3.410   2.361   3.340
 1436SOL     OW 4442   2.000   0.463   1.834
 1436SOL    HW1 4443   1.991   0.557   1.818
 1436SOL    HW2 4444   2.061   0.457   1.908
 1437SOL     OW 4445   2.101   1.790   0.466
 1437SOL    HW1 4446   2.171   1.839   0.509
 1437SOL    HW2 4447   2.147   1.717   0.424
 1438SOL     OW 4448   0.800   3.102   3.433
 1438SOL    HW1 4449   0.827   3.066   3.518
 1438SOL    HW2 4450   0.882   3.122   3.388
 1439SOL     OW 4451   1.789   1.368   2.422
 1439SOL    HW1 4452   1.735   1.293   2.447
 1439SOL    HW2 4453   1.873   1.329   2.399
 1440SOL     OW 4454   3.087   2.723   1.173
 1440SOL    HW1 4455   3.177   2.721   1.206
 1440SOL    HW2 4456   3.054   2.810   1.197
 1441SOL     OW 4457   1.073   3.120   0.057
 1441SOL    HW1 4458   1.167   3.114   0.043
 1441SOL    HW2 4459   1.062   3.200   0.108
 1442SOL     OW 4460   1.777   2.789   3.424
 1442SOL    HW1 4461   1.717   2.841   3.371
 1442SOL    HW2 4462   1.840   2.853   3.458
 1443SOL     OW 4463   0.595   2.083   3.216
 1443SOL    HW1 4464   0.525   2.049   3.159
 1443SOL    HW2 4465   0.581   2.178   3.214
 1444SOL     OW 4466   1.098   1.742   1.883
 1444SOL    HW1 4467   1.082   1.651   1.909
 1444SOL    HW2 4468   1.088   1.792   1.964
 1445SOL     OW 4469   2.337   3.679   1.735
 1445SOL    HW1 4470   2.276   3.627   1.787
 1445SOL    HW2 4471   2.358   3.622   1.660
 1446SOL     OW 4472   1.306   2.896   3.343
 1446SOL    HW1 4473   1.399   2.890   3.323
 1446SOL    HW2 4474   1.285   2.813   3.386
 1447SOL     OW 4475   2.108   0.594   0.479
 1447SOL    HW1 4476   2.144   0.540   0.409
 1447SOL    HW2 4477   2.023   0.555   0.499
 1448SOL     OW 4478   1.305   0.043   3.037
 1448SOL    HW1 4479   1.291   0.068   3.128
 1448SOL    HW2 4480   1.394   0.072   3.018
 1449SOL     OW 4481   3.502   1.979   0.405
 1449SOL    HW1 4482   3.543   1.894   0.419
 1449SOL    HW2 4483   3.444   1.991   0.480
 1450SOL     OW 4484   1.109   1.454   1.701
 1450SOL    HW1 4485   1.155   1.386   1.652
 1450SOL    HW2 4486   1.099   1.418   1.789
 1451SOL     OW 4487   2.724   3.502   3.269
 1451SOL    HW1 4488   2.754   3.456   3.190
 1451SOL    HW2 4489   2.795   3.490   3.332
 1452SOL     OW 4490   2.718   2.562   0.706
 1452SOL    HW1 4491   2.666   2.639   0.686
 1452SOL    HW2 4492   2.697   2.541   0.797
 1453SOL     OW 4493   0.787   3.425   1.083
 1453SOL    HW1 4494   0.846   3.477   1.138
 1453SOL    HW2 4495   0.713   3.404   1.140
 1454SOL     OW 4496   1.595   1.636   3.366
 1454SOL    HW1 4497   1.522   1.619   3.307
 1454SOL    HW2 4498   1.656   1.690   3.315
 1455SOL     OW 4499   0.416   3.051   2.259
 1455SOL    HW1 4500   0.322   3.036   2.275
 1455SOL    HW2 4501   0.459   3.009   2.334
 1456SOL     OW 4502   3.287   0.638   1.138
 1456SOL    HW1 4503   3.222   0.700   1.105
 1456SOL    HW2 4504   3.292   0.657   1.232
 1457SOL     OW 4505   3.849   0.692   3.116
 1457SOL    HW1 4506   3.851   0.759   3.048
 1457SOL    HW2 4507   3.941   0.679   3.140
 1458SOL     OW 4508   3.503   2.039   0.850
 1458SOL    HW1 4509   3.540   2.116   0.893
 1458SOL    HW2 4510   3.566   1.969   0.870
 1459SOL     OW 4511   1.277   3.773   2.519
 1459SOL    HW1 4512   1.211   3.824   2.566
 1459SOL    HW2 4513   1.233   3.746   2.438
 1460SOL     OW 4514   1.101   3.714   2.326
 1460SOL    HW1 4515   1.060   3.629   2.315
 1460SOL    HW2 4516   1.029   3.777   2.321
 1461SOL     OW 4517   2.969   1.585   3.602
 1461SOL    HW1 4518   3.057   1.619   3.588
 1461SOL    HW2 4519   2.916   1.662   3.622
 1462SOL     OW 4520   0.233   1.663   2.137
 1462SOL    HW1 4521   0.299   1.714   2.184
 1462SOL    HW2 4522   0.184   1.618   2.207
 1463SOL     OW 4523   0.371   0.638   1.184
 1463SOL    HW1 4524   0.300   0.590   1.142
 1463SOL    HW2 4525   0.445   0.630   1.123
 1464SOL     OW 4526   2.537   1.925   3.118
 1464SOL    HW1 4527   2.476   1.980   3.069
 1464SOL    HW2 4528   2.517   1.943   3.210
 1465SOL     OW 4529   3.198   2.118   3.259
 1465SOL    HW1 4530   3.127   2.174   3.228
 1465SOL    HW2 4531   3.154   2.036   3.283
 1466SOL     OW 4532   0.634   3.134   0.083
 1466SOL    HW1 4533   0.677   3.145   0.168
 1466SOL    HW2 4534   0.618   3.224   0.053
 1467SOL     OW 4535   1.844   2.049   0.032
 1467SOL    HW1 4536   1.801   2.134   0.037
 1467SOL    HW2 4537   1.814   2.012  -0.051
 1468SOL     OW 4538   3.729   3.697   1.838
 1468SOL    HW1 4539   3.728   3.646   1.919
 1468SOL    HW2 4540   3.684   3.643   1.774
 1469SOL     OW 4541   2.605   0.671   2.825
 1469SOL    HW1 4542   2.522   0.626   2.836
 1469SOL    HW2 4543   2.627   0.661   2.732
 1470SOL     OW 4544   1.237   1.986   0.520
 1470SOL    HW1 4545   1.244   2.060   0.459
 1470SOL    HW2 4546   1.172   2.015   0.584
 1471SOL     OW 4547   2.215   2.471   3.479
 1471SOL    HW1 4548   2.183   2.533   3.545
 1471SOL    HW2 4549   2.244   2.395   3.530
 1472SOL     OW 4550   2.011   3.083   1.810
 1472SOL    HW1 4551   1.994   3.059   1.719
 1472SOL    HW2 4552   2.050   3.005   1.849
 1473SOL     OW 4553   3.708   3.701   2.343
 1473SOL    HW1 4554   3.773   3.770   2.329
 1473SOL    HW2 4555   3.631   3.747   2.376
 1474SOL     OW 4556   0.655   1.000   0.488
 1474SOL    HW1 4557   0.687   1.064   0.424
 1474SOL    HW2 4558   0.576   1.041   0.525
 1475SOL     OW 4559   2.674   0.466   1.313
 1475SOL    HW1 4560   2.578   0.458   1.316
 1475SOL    HW2 4561   2.693   0.493   1.223
 1476SOL     OW 4562   1.877   1.503   2.026
 1476SOL    HW1 4563   1.889   1.467   1.939
 1476SOL    HW2 4564   1.917   1.590   2.022
 1477SOL     OW 4565   3.575   1.051   1.368
 1477SOL    HW1 4566   3.616   1.124   1.321
 1477SOL    HW2 4567   3.539   1.089   1.448
 1478SOL     OW 4568   2.360   0.952   3.667
 1478SOL    HW1 4569   2.360   1.016   3.597
 1478SOL    HW2 4570   2.359   0.867   3.623
 1479SOL     OW 4571   2.500   2.675   1.361
 1479SOL    HW1 4572   2.411   2.710   1.374
 1479SOL    HW2 4573   2.488   2.601   1.302
 1480SOL     OW 4574   1.737   2.275   2.670
 1480SOL    HW1 4575   1.800   2.345   2.686
 1480SOL    HW2 4576   1.783   2.214   2.612
 1481SOL     OW 4577   2.925   1.321   0.347
 1481SOL    HW1 4578   2.947   1.331   0.440
 1481SOL    HW2 4579   2.970   1.393   0.303
 1482SOL     OW 4580   3.078   3.591   3.042
 1482SOL    HW1 4581   2.990   3.628   3.049
 1482SOL    HW2 4582   3.102   3.567   3.132
 1483SOL     OW 4583   2.384   0.241   0.520
 1483SOL    HW1 4584   2.416   0.152   0.539
 1483SOL    HW2 4585   2.312   0.254   0.581
 1484SOL     OW 4586   3.619   2.614   3.469
 1484SOL    HW1 4587   3.698   2.631   3.419
 1484SOL    HW2 4588   3.647   2.621   3.561
 1485SOL     OW 4589   2.039   1.328   2.165
 1485SOL    HW1 4590   1.964   1.380   2.137
 1485SOL    HW2 4591   2.004   1.274   2.237
 1486SOL     OW 4592   2.256   2.450   0.547
 1486SOL    HW1 4593   2.215   2.370   0.513
 1486SOL    HW2 4594   2.190   2.487   0.606
 1487SOL     OW 4595   3.011   3.176   1.379
 1487SOL    HW1 4596   2.916   3.173   1.372
 1487SOL    HW2 4597   3.032   3.269   1.377
 1488SOL     OW 4598   3.916   3.495   2.878
 1488SOL    HW1 4599   3.823   3.480   2.898
 1488SOL    HW2 4600   3.916   3.544   2.796
 1489SOL     OW 4601   3.254   2.782   2.352
 1489SOL    HW1 4602   3.344   2.815   2.348
 1489SOL    HW2 4603   3.205   2.851   2.397
 1490SOL     OW 4604   0.217   1.417   1.523
 1490SOL    HW1 4605   0.252   1.333   1.493
 1490SOL    HW2 4606   0.291   1.458   1.570
 1491SOL     OW 4607   2.612   1.658   3.072
 1491SOL    HW1 4608   2.555   1.588   3.104
 1491SOL    HW2 4609   2.566   1.739   3.094
 1492SOL     OW 4610   1.834   3.905   0.268
 1492SOL    HW1 4611   1.874   3.910   0.182
 1492SOL    HW2 4612   1.761   3.968   0.264
 1493SOL     OW 4613   1.316   2.322   0.769
 1493SOL    HW1 4614   1.221   2.310   0.774
 1493SOL    HW2 4615   1.353   2.244   0.811
 1494SOL     OW 4616   2.591   3.103   2.974
 1494SOL    HW1 4617   2.655   3.088   3.044
 1494SOL    HW2 4618   2.596   3.024   2.920
 1495SOL     OW 4619   3.293   2.670   0.957
 1495SOL    HW1 4620   3.265   2.633   1.041
 1495SOL    HW2 4621   3.313   2.762   0.978
 1496SOL     OW 4622   3.305   3.529   3.285
 1496SOL    HW1 4623   3.275   3.610   3.325
 1496SOL    HW2 4624   3.334   3.555   3.197
 1497SOL     OW 4625   1.889   0.221   3.073
 1497SOL    HW1 4626   1.809   0.250   3.029
 1497SOL    HW2 4627   1.876   0.128   3.089
 1498SOL     OW 4628   0.425   0.864   1.815
 1498SOL    HW1 4629   0.380   0.889   1.895
 1498SOL    HW2 4630   0.518   0.868   1.838
 1499SOL     OW 4631   1.462   0.440   2.403
 1499SOL    HW1 4632   1.420   0.442   2.489
 1499SOL    HW2 4633   1.399   0.395   2.346
 1500SOL     OW 4634   2.190   1.599   0.729
 1500SOL    HW1 4635   2.195   1.693   0.748
 1500SOL    HW2 4636   2.235   1.589   0.645
 1501SOL     OW 4637   3.722   0.771   2.430
 1501SOL    HW1 4638   3.770   0.805   2.355
 1501SOL    HW2 4639   3.660   0.708   2.393
 1502SOL     OW 4640   0.486   2.596   3.717
 1502SOL    HW1 4641   0.424   2.659   3.680
 1502SOL    HW2 4642   0.546   2.576   3.644
 1503SOL     OW 4643   1.611   1.889   2.841
 1503SOL    HW1 4644   1.586   1.837   2.918
 1503SOL    HW2 4645   1.692   1.933   2.867
 1504SOL     OW 4646   0.101   3.472   3.333
 1504SOL    HW1 4647   0.109   3.460   3.239
 1504SOL    HW2 4648   0.166   3.413   3.371
 1505SOL     OW 4649   1.848   2.320   3.072
 1505SOL    HW1 4650   1.838   2.411   3.100
 1505SOL    HW2 4651   1.917   2.323   3.005
 1506SOL     OW 4652   2.975   0.762   2.722
 1506SOL    HW1 4653   3.070   0.768   2.715
 1506SOL    HW2 4654   2.949   0.841   2.770
 1507SOL     OW 4655   2.914   2.131   0.558
 1507SOL    HW1 4656   2.842   2.189   0.585
 1507SOL    HW2 4657   2.878   2.082   0.484
 1508SOL     OW 4658   2.459   0.212   2.092
 1508SOL    HW1 4659   2.434   0.281   2.032
 1508SOL    HW2 4660   2.534   0.169   2.050
 1509SOL     OW 4661   2.513   2.707   0.342
 1509SOL    HW1 4662   2.561   2.739   0.266
 1509SOL    HW2 4663   2.472   2.625   0.312
 1510SOL     OW 4664   3.315   1.002   1.765
 1510SOL    HW1 4665   3.338   1.003   1.857
 1510SOL    HW2 4666   3.276   0.916   1.750
 1511SOL     OW 4667   3.071   0.416   3.146
 1511SOL    HW1 4668   3.111   0.500   3.126
 1511SOL    HW2 4669   3.041   0.425   3.236
 1512SOL     OW 4670   2.713   0.931   0.320
 1512SOL    HW1 4671   2.743   0.915   0.231
 1512SOL    HW2 4672   2.697   1.026   0.323
 1513SOL     OW 4673   2.318   0.969   2.855
 1513SOL    HW1 4674   2.287   0.885   2.822
 1513SOL    HW2 4675   2.321   1.026   2.778
 1514SOL     OW 4676   3.166   1.078   2.965
 1514SOL    HW1 4677   3.203   1.117   2.886
 1514SOL    HW2 4678   3.183   1.142   3.034
 1515SOL     OW 4679   0.340   0.432   1.590
 1515SOL    HW1 4680   0.334   0.340   1.562
 1515SOL    HW2 4681   0.263   0.473   1.551
 1516SOL     OW 4682   1.229   3.216   2.199
 1516SOL    HW1 4683   1.223   3.122   2.181
 1516SOL    HW2 4684   1.159   3.233   2.262
 1517SOL     OW 4685   3.188   0.041   1.259
 1517SOL    HW1 4686   3.198   0.068   1.351
 1517SOL    HW2 4687   3.119   0.097   1.225
 1518SOL     OW 4688   2.251   2.699   2.448
 1518SOL    HW1 4689   2.327   2.749   2.420
 1518SOL    HW2 4690   2.177   2.738   2.400
 1519SOL     OW 4691   3.382   3.107   3.429
 1519SOL    HW1 4692   3.453   3.137   3.486
 1519SOL    HW2 4693   3.401   3.148   3.344
 1520SOL     OW 4694   2.027   0.170   2.302
 1520SOL    HW1 4695   1.957   0.230   2.276
 1520SOL    HW2 4696   2.044   0.118   2.223
 1521SOL     OW 4697   3.784   2.034   2.882
 1521SOL    HW1 4698   3.739   2.103   2.930
 1521SOL    HW2 4699   3.782   1.958   2.940
 1522SOL     OW 4700   2.101   2.731   0.284
 1522SOL    HW1 4701   2.145   2.815   0.284
 1522SOL    HW2 4702   2.091   2.709   0.377
 1523SOL     OW 4703   3.535   2.415   3.748
 1523SOL    HW1 4704   3.610   2.393   3.692
 1523SOL    HW2 4705   3.495   2.492   3.708
 1524SOL     OW 4706   0.753   1.827   1.148
 1524SOL    HW1 4707   0.669   1.825   1.104
 1524SOL    HW2 4708   0.745   1.898   1.212
 1525SOL     OW 4709   3.516   1.616   0.612
 1525SOL    HW1 4710   3.579   1.680   0.577
 1525SOL    HW2 4711   3.546   1.532   0.577
 1526SOL     OW 4712   1.948   3.479   3.232
 1526SOL    HW1 4713   2.030   3.447   3.268
 1526SOL    HW2 4714   1.948   3.449   3.141
 1527SOL     OW 4715   1.612   0.723   2.703
 1527SOL    HW1 4716   1.608   0.709   2.608
 1527SOL    HW2 4717   1.560   0.652   2.740
 1528SOL     OW 4718   3.948   0.401   3.191
 1528SOL    HW1 4719   3.971   0.390   3.284
 1528SOL    HW2 4720   3.854   0.419   3.192
 1529SOL     OW 4721   2.107   2.202   3.183
 1529SOL    HW1 4722   2.135   2.227   3.095
 1529SOL    HW2 4723   2.128   2.109   3.190
 1530SOL     OW 4724   2.708   0.429   1.921
 1530SOL    HW1 4725   2.718   0.493   1.850
 1530SOL    HW2 4726   2.798   0.409   1.947
 1531SOL     OW 4727   0.934   3.336   2.966
 1531SOL    HW1 4728   0.869   3.401   2.938
 1531SOL    HW2 4729   0.882   3.268   3.009
 1532SOL     OW 4730   1.467   2.298   3.757
 1532SOL    HW1 4731   1.437   2.207   3.762
 1532SOL    HW2 4732   1.560   2.292   3.737
 1533SOL     OW 4733   0.140   3.907   1.731
 1533SOL    HW1 4734   0.069   3.879   1.789
 1533SOL    HW2 4735   0.195   3.829   1.723
 1534SOL     OW 4736   2.082   2.766   2.267
 1534SOL    HW1 4737   2.131   2.814   2.201
 1534SOL    HW2 4738   2.019   2.714   2.217
 1535SOL     OW 4739   3.384   1.784   0.108
 1535SOL    HW1 4740   3.359   1.875   0.119
 1535SOL    HW2 4741   3.480   1.784   0.118
 1536SOL     OW 4742   3.161   1.972   1.475
 1536SOL    HW1 4743   3.140   1.887   1.513
 1536SOL    HW2 4744   3.198   1.951   1.389
 1537SOL     OW 4745   0.081   0.309   1.772
 1537SOL    HW1 4746   0.148   0.264   1.721
 1537SOL    HW2 4747   0.062   0.389   1.723
 1538SOL     OW 4748   0.568   2.576   1.322
 1538SOL    HW1 4749   0.535   2.540   1.405
 1538SOL    HW2 4750   0.571   2.670   1.336
 1539SOL     OW 4751   3.284   1.043   0.324
 1539SOL    HW1 4752   3.236   1.035   0.241
 1539SOL    HW2 4753   3.341   0.965   0.326
 1540SOL     OW 4754   1.356   1.165   2.818
 1540SOL    HW1 4755   1.417   1.215   2.871
 1540SOL    HW2 4756   1.402   1.083   2.800
 1541SOL     OW 4757   1.224   3.682   3.851
 1541SOL    HW1 4758   1.259   3.717   3.933
 1541SOL    HW2 4759   1.283   3.717   3.783
 1542SOL     OW 4760   0.907   2.952   2.313
 1542SOL    HW1 4761   0.921   2.957   2.219
 1542SOL    HW2 4762   0.991   2.922   2.348
 1543SOL     OW 4763   3.429   2.022   1.729
 1543SOL    HW1 4764   3.511   1.981   1.759
 1543SOL    HW2 4765   3.457   2.092   1.670
 1544SOL     OW 4766   2.185   3.554   0.637
 1544SOL    HW1 4767   2.241   3.602   0.577
 1544SOL    HW2 4768   2.235   3.549   0.718
 1545SOL     OW 4769   2.440   3.570   3.266
 1545SOL    HW1 4770   2.352   3.534   3.258
 1545SOL    HW2 4771   2.498   3.498   3.243
 1546SOL     OW 4772   3.463   0.949   2.359
 1546SOL    HW1 4773   3.429   0.878   2.305
 1546SOL    HW2 4774   3.471   0.912   2.447
 1547SOL     OW 4775   1.257   0.260   2.182
 1547SOL    HW1 4776   1.281   0.176   2.143
 1547SOL    HW2 4777   1.278   0.325   2.115
 1548SOL     OW 4778   0.933   0.809   1.384
 1548SOL    HW1 4779   0.865   0.809   1.317
 1548SOL    HW2 4780   0.932   0.897   1.421
 1549SOL     OW 4781   1.429   2.509   2.590
 1549SOL    HW1 4782   1.401   2.432   2.639
 1549SOL    HW2 4783   1.480   2.474   2.517
 1550SOL     OW 4784   2.279   1.175   3.301
 1550SOL    HW1 4785   2.345   1.117   3.263
 1550SOL    HW2 4786   2.308   1.189   3.391
 1551SOL     OW 4787   0.238   0.275   3.311
 1551SOL    HW1 4788   0.264   0.187   3.339
 1551SOL    HW2 4789   0.237   0.270   3.216
 1552SOL     OW 4790   0.405   3.107   0.916
 1552SOL    HW1 4791   0.487   3.136   0.955
 1552SOL    HW2 4792   0.405   3.012   0.931
 1553SOL     OW 4793   3.707   2.629   2.016
 1553SOL    HW1 4794   3.670   2.710   1.980
 1553SOL    HW2 4795   3.757   2.658   2.093
 1554SOL     OW 4796   2.806   3.514   1.925
 1554SOL    HW1 4797   2.798   3.458   2.001
 1554SOL    HW2 4798   2.900   3.531   1.917
 1555SOL     OW 4799   0.522   3.783   3.776
 1555SOL    HW1 4800   0.527   3.720   3.705
 1555SOL    HW2 4801   0.613   3.808   3.793
 1556SOL     OW 4802   1.832   3.568   1.331
 1556SOL    HW1 4803   1.766   3.583   1.398
 1556SOL    HW2 4804   1.785   3.523   1.261
 1557SOL     OW 4805   2.231   2.965   1.174
 1557SOL    HW1 4806   2.191   2.986   1.090
 1557SOL    HW2 4807   2.311   2.918   1.152
 1558SOL     OW 4808   1.159   1.628   0.390
 1558SOL    HW1 4809   1.244   1.651   0.352
 1558SOL    HW2 4810   1.096   1.681   0.342
 1559SOL     OW 4811   3.732   3.128   2.727
 1559SOL    HW1 4812   3.807   3.122   2.668
 1559SOL    HW2 4813   3.686   3.045   2.716
 1560SOL     OW 4814   1.715   0.162   1.144
 1560SOL    HW1 4815   1.758   0.085   1.107
 1560SOL    HW2 4816   1.696   0.217   1.069
 1561SOL     OW 4817   1.400   1.568   1.850
 1561SOL    HW1 4818   1.320   1.585   1.799
 1561SOL    HW2 4819   1.452   1.647   1.840
 1562SOL     OW 4820   2.311   3.208   1.222
 1562SOL    HW1 4821   2.237   3.254   1.262
 1562SOL    HW2 4822   2.294   3.116   1.240
 1563SOL     OW 4823   1.530   1.445   0.065
 1563SOL    HW1 4824   1.438   1.460   0.089
 1563SOL    HW2 4825   1.546   1.354   0.090
 1564SOL     OW 4826   0.594   3.870   0.268
 1564SOL    HW1 4827   0.541   3.931   0.217
 1564SOL    HW2 4828   0.531   3.820   0.320
 1565SOL     OW 4829   0.608   1.887   2.852
 1565SOL    HW1 4830   0.576   1.803   2.885
 1565SOL    HW2 4831   0.634   1.869   2.762
 1566SOL     OW 4832   1.669   3.442   3.583
 1566SOL    HW1 4833   1.688   3.392   3.503
 1566SOL    HW2 4834   1.582   3.412   3.609
 1567SOL     OW 4835   0.680   3.030   0.767
 1567SOL    HW1 4836   0.620   3.063   0.701
 1567SOL    HW2 4837   0.665   3.086   0.843
 1568SOL     OW 4838   2.684   2.766   1.515
 1568SOL    HW1 4839   2.628   2.739   1.442
 1568SOL    HW2 4840   2.765   2.718   1.503
 1569SOL     OW 4841   2.852   0.656   1.162
 1569SOL    HW1 4842   2.786   0.720   1.188
 1569SOL    HW2 4843   2.897   0.633   1.243
 1570SOL     OW 4844   1.163   2.644   2.890
 1570SOL    HW1 4845   1.245   2.650   2.938
 1570SOL    HW2 4846   1.103   2.600   2.950
 1571SOL     OW 4847   0.514   3.823   2.746
 1571SOL    HW1 4848   0.512   3.729   2.766
 1571SOL    HW2 4849   0.600   3.852   2.778
 1572SOL     OW 4850   1.357   1.818   1.504
 1572SOL    HW1 4851   1.376   1.894   1.449
 1572SOL    HW2 4852   1.407   1.833   1.584
 1573SOL     OW 4853   2.940   1.603   1.718
 1573SOL    HW1 4854   2.918   1.564   1.803
 1573SOL    HW2 4855   2.912   1.538   1.653
 1574SOL     OW 4856   2.969   3.793   2.784
 1574SOL    HW1 4857   2.920   3.874   2.796
 1574SOL    HW2 4858   3.060   3.818   2.800
 1575SOL     OW 4859   0.566   0.318   2.699
 1575SOL    HW1 4860   0.535   0.401   2.736
 1575SOL    HW2 4861   0.497   0.291   2.639
 1576SOL     OW 4862   3.749   0.677   0.112
 1576SOL    HW1 4863   3.749   0.608   0.178
 1576SOL    HW2 4864   3.674   0.732   0.135
 1577SOL     OW 4865   2.323   0.496   1.141
 1577SOL    HW1 4866   2.409   0.515   1.104
 1577SOL    HW2 4867   2.293   0.418   1.094
 1578SOL     OW 4868   2.942   2.559   0.031
 1578SOL    HW1 4869   2.925   2.464   0.028
 1578SOL    HW2 4870   2.962   2.577   0.122
 1579SOL     OW 4871   1.263   0.753   2.886
 1579SOL    HW1 4872   1.242   0.724   2.975
 1579SOL    HW2 4873   1.178   0.773   2.847
 1580SOL     OW 4874   0.038   2.704   1.530
 1580SOL    HW1 4875   0.034   2.637   1.598
 1580SOL    HW2 4876   0.096   2.667   1.463
 1581SOL     OW 4877   0.189   0.238   2.814
 1581SOL    HW1 4878   0.229   0.159   2.777
 1581SOL    HW2 4879   0.100   0.210   2.838
 1582SOL     OW 4880   3.008   3.629   3.772
 1582SOL    HW1 4881   3.043   3.716   3.752
 1582SOL    HW2 4882   3.010   3.624   3.867
 1583SOL     OW 4883   0.598   3.280   2.227
 1583SOL    HW1 4884   0.525   3.219   2.237
 1583SOL    HW2 4885   0.643   3.250   2.148
 1584SOL     OW 4886   2.497   3.075   2.632
 1584SOL    HW1 4887   2.502   3.139   2.561
 1584SOL    HW2 4888   2.419   3.100   2.681
 1585SOL     OW 4889   3.860   2.934   3.386
 1585SOL    HW1 4890   3.815   2.955   3.468
 1585SOL    HW2 4891   3.848   2.840   3.375
 1586SOL     OW 4892   0.451   2.801   2.110
 1586SOL    HW1 4893   0.521   2.786   2.173
 1586SOL    HW2 4894   0.405   2.879   2.143
 1587SOL     OW 4895   0.079   0.511   1.567
 1587SOL    HW1 4896  -0.005   0.551   1.591
 1587SOL    HW2 4897   0.061   0.464   1.486
 1588SOL     OW 4898   0.220   0.454   3.515
 1588SOL    HW1 4899   0.176   0.402   3.583
 1588SOL    HW2 4900   0.219   0.398   3.438
 1589SOL     OW 4901   3.372   1.690   3.403
 1589SOL    HW1 4902   3.278   1.702   3.415
 1589SOL    HW2 4903   3.400   1.642   3.481
 1590SOL     OW 4904   0.404   3.085   3.068
 1590SOL    HW1 4905   0.340   3.089   2.997
 1590SOL    HW2 4906   0.415   2.991   3.085
 1591SOL     OW 4907   2.492   0.487   0.770
 1591SOL    HW1 4908   2.442   0.524   0.696
 1591SOL    HW2 4909   2.436   0.417   0.803
 1592SOL     OW 4910   1.454   3.326   2.463
 1592SOL    HW1 4911   1.440   3.328   2.557
 1592SOL    HW2 4912   1.388   3.386   2.427
 1593SOL     OW 4913   1.802   2.326   3.949
 1593SOL    HW1 4914   1.746   2.320   3.871
 1593SOL    HW2 4915   1.810   2.420   3.966
 1594SOL     OW 4916   0.342   3.642   3.221
 1594SOL    HW1 4917   0.304   3.596   3.146
 1594SOL    HW2 4918   0.370   3.727   3.185
 1595SOL     OW 4919   1.610   0.035   3.538
 1595SOL    HW1 4920   1.647   0.111   3.493
 1595SOL    HW2 4921   1.680  -0.031   3.536
 1596SOL     OW 4922   3.588   3.335   0.017
 1596SOL    HW1 4923   3.680   3.351  -0.003
 1596SOL    HW2 4924   3.559   3.415   0.062
 1597SOL     OW 4925   2.171   0.920   3.873
 1597SOL    HW1 4926   2.229   0.971   3.816
 1597SOL    HW2 4927   2.227   0.892   3.946
 1598SOL     OW 4928   3.906   3.708   3.355
 1598SOL    HW1 4929   3.972   3.646   3.322
 1598SOL    HW2 4930   3.833   3.701   3.293
 1599SOL     OW 4931   3.198   3.142   1.601
 1599SOL    HW1 4932   3.261   3.124   1.532
 1599SOL    HW2 4933   3.120   3.171   1.555
 1600SOL     OW 4934   3.417   1.657   0.876
 1600SOL    HW1 4935   3.400   1.579   0.929
 1600SOL    HW2 4936   3.454   1.623   0.795
 1601SOL     OW 4937   3.203   1.624   2.112
 1601SOL    HW1 4938   3.279   1.682   2.110
 1601SOL    HW2 4939   3.190   1.605   2.205
 1602SOL     OW 4940   1.389   1.406   2.097
 1602SOL    HW1 4941   1.333   1.454   2.158
 1602SOL    HW2 4942   1.412   1.470   2.030
 1603SOL     OW 4943   3.191   3.231   1.863
 1603SOL    HW1 4944   3.179   3.199   1.773
 1603SOL    HW2 4945   3.263   3.295   1.856
 1604SOL     OW 4946   2.961   0.549   1.736
 1604SOL    HW1 4947   3.014   0.470   1.744
 1604SOL    HW2 4948   2.925   0.545   1.648
 1605SOL     OW 4949   0.111   2.580   0.703
 1605SOL    HW1 4950   0.171   2.524   0.753
 1605SOL    HW2 4951   0.164   2.611   0.629
 1606SOL     OW 4952   2.776   1.124   3.596
 1606SOL    HW1 4953   2.828   1.198   3.564
 1606SOL    HW2 4954   2.740   1.083   3.518
 1607SOL     OW 4955   0.236   3.048   1.972
 1607SOL    HW1 4956   0.159   3.041   1.915
 1607SOL    HW2 4957   0.209   3.009   2.055
 1608SOL     OW 4958   3.631   3.759   1.443
 1608SOL    HW1 4959   3.574   3.792   1.512
 1608SOL    HW2 4960   3.585   3.780   1.362
 1609SOL     OW 4961   0.709   1.373   0.585
 1609SOL    HW1 4962   0.730   1.281   0.602
 1609SOL    HW2 4963   0.672   1.373   0.496
 1610SOL     OW 4964   2.580   3.432   1.647
 1610SOL    HW1 4965   2.524   3.392   1.581
 1610SOL    HW2 4966   2.639   3.361   1.674
 1611SOL     OW 4967   0.809   1.006   1.642
 1611SOL    HW1 4968   0.732   1.060   1.659
 1611SOL    HW2 4969   0.883   1.058   1.673
 1612SOL     OW 4970   0.885   3.268   3.829
 1612SOL    HW1 4971   0.953   3.294   3.890
 1612SOL    HW2 4972   0.880   3.173   3.837
 1613SOL     OW 4973   0.508   1.630   1.307
 1613SOL    HW1 4974   0.556   1.561   1.352
 1613SOL    HW2 4975   0.507   1.703   1.368
 1614SOL     OW 4976   0.771   3.676   0.700
 1614SOL    HW1 4977   0.714   3.655   0.626
 1614SOL    HW2 4978   0.817   3.594   0.718
 1615SOL     OW 4979   1.542   2.311   3.089
 1615SOL    HW1 4980   1.627   2.306   3.046
 1615SOL    HW2 4981   1.481   2.273   3.026
 1616SOL     OW 4982   3.332   3.236   0.796
 1616SOL    HW1 4983   3.270   3.243   0.723
 1616SOL    HW2 4984   3.363   3.145   0.791
 1617SOL     OW 4985   1.148   0.447   2.325
 1617SOL    HW1 4986   1.165   0.364   2.281
 1617SOL    HW2 4987   1.131   0.423   2.416
 1618SOL     OW 4988   3.929   0.722   0.901
 1618SOL    HW1 4989   4.020   0.699   0.923
 1618SOL    HW2 4990   3.900   0.651   0.844
 1619SOL     OW 4991   0.570   0.714   0.085
 1619SOL    HW1 4992   0.518   0.642   0.120
 1619SOL    HW2 4993   0.506   0.781   0.061
 1620SOL     OW 4994   2.184   3.762   3.405
 1620SOL    HW1 4995   2.214   3.678   3.440
 1620SOL    HW2 4996   2.258   3.822   3.418
 1621SOL     OW 4997   2.832   0.783   2.038
 1621SOL    HW1 4998   2.927   0.782   2.041
 1621SOL    HW2 4999   2.805   0.717   2.101
 1622SOL     OW 5000   0.193   2.270   2.822
 1622SOL    HW1 5001   0.206   2.219   2.902
 1622SOL    HW2 5002   0.141   2.214   2.765
 1623SOL     OW 5003   0.442   2.397   2.488
 1623SOL    HW1 5004   0.453   2.393   2.393
 1623SOL    HW2 5005   0.530   2.383   2.523
 1624SOL     OW 5006   1.197   0.293   1.794
 1624SOL    HW1 5007   1.177   0.205   1.825
 1624SOL    HW2 5008   1.236   0.337   1.870
 1625SOL     OW 5009   3.541   1.087   3.081
 1625SOL    HW1 5010   3.572   1.101   2.992
 1625SOL    HW2 5011   3.524   1.175   3.115
 1626SOL     OW 5012   3.474   0.006   2.176
 1626SOL    HW1 5013   3.533   0.044   2.241
 1626SOL    HW2 5014   3.419   0.079   2.147
 1627SOL     OW 5015   0.861   1.342   2.821
 1627SOL    HW1 5016   0.881   1.257   2.861
 1627SOL    HW2 5017   0.943   1.370   2.782
 1628SOL     OW 5018   0.334   0.321   2.568
 1628SOL    HW1 5019   0.321   0.341   2.476
 1628SOL    HW2 5020   0.286   0.389   2.614
 1629SOL     OW 5021   3.492   0.584   2.396
 1629SOL    HW1 5022   3.496   0.523   2.469
 1629SOL    HW2 5023   3.497   0.529   2.318
 1630SOL     OW 5024   3.854   1.123   3.188
 1630SOL    HW1 5025   3.883   1.208   3.220
 1630SOL    HW2 5026   3.855   1.131   3.093
 1631SOL     OW 5027   0.301   3.456   3.715
 1631SOL    HW1 5028   0.292   3.522   3.647
 1631SOL    HW2 5029   0.298   3.505   3.797
 1632SOL     OW 5030   1.935   1.611   0.596
 1632SOL    HW1 5031   1.865   1.676   0.592
 1632SOL    HW2 5032   2.010   1.653   0.554
 1633SOL     OW 5033   3.328   0.948   3.161
 1633SOL    HW1 5034   3.417   0.974   3.137
 1633SOL    HW2 5035   3.272   0.991   3.096
 1634SOL     OW 5036   3.094   1.635   2.401
 1634SOL    HW1 5037   3.093   1.591   2.486
 1634SOL    HW2 5038   3.139   1.718   2.418
 1635SOL     OW 5039   1.650   3.630   2.916
 1635SOL    HW1 5040   1.567   3.591   2.945
 1635SOL    HW2 5041   1.681   3.572   2.847
 1636SOL     OW 5042   2.629   0.952   2.679
 1636SOL    HW1 5043   2.678   0.915   2.753
 1636SOL    HW2 5044   2.557   0.891   2.665
 1637SOL     OW 5045   2.528   2.746   0.637
 1637SOL    HW1 5046   2.546   2.751   0.543
 1637SOL    HW2 5047   2.447   2.696   0.644
 1638SOL     OW 5048   0.294   2.393  -0.005
 1638SOL    HW1 5049   0.382   2.372   0.029
 1638SOL    HW2 5050   0.297   2.487  -0.020
 1639SOL     OW 5051   1.133   0.348   0.420
 1639SOL    HW1 5052   1.219   0.344   0.378
 1639SOL    HW2 5053   1.135   0.277   0.484
 1640SOL     OW 5054   3.955   2.192   1.855
 1640SOL    HW1 5055   3.981   2.247   1.929
 1640SOL    HW2 5056   3.864   2.217   1.838
 1641SOL     OW 5057   2.947   1.326   2.791
 1641SOL    HW1 5058   3.007   1.390   2.753
 1641SOL    HW2 5059   2.901   1.288   2.716
 1642SOL     OW 5060   1.921   2.952   0.657
 1642SOL    HW1 5061   2.003   3.000   0.643
 1642SOL    HW2 5062   1.909   2.901   0.577
 1643SOL     OW 5063   2.226   3.553   3.704
 1643SOL    HW1 5064   2.140   3.526   3.734
 1643SOL    HW2 5065   2.266   3.472   3.671
 1644SOL     OW 5066   3.367   2.208   3.644
 1644SOL    HW1 5067   3.409   2.281   3.690
 1644SOL    HW2 5068   3.417   2.198   3.563
 1645SOL     OW 5069   1.085   0.495   2.627
 1645SOL    HW1 5070   1.002   0.450   2.614
 1645SOL    HW2 5071   1.061   0.580   2.665
 1646SOL     OW 5072   2.844   0.285   2.356
 1646SOL    HW1 5073   2.750   0.276   2.343
 1646SOL    HW2 5074   2.853   0.328   2.441
 1647SOL     OW 5075   2.206   0.380   3.416
 1647SOL    HW1 5076   2.132   0.395   3.358
 1647SOL    HW2 5077   2.202   0.287   3.437
 1648SOL     OW 5078   3.065   0.358   1.463
 1648SOL    HW1 5079   2.970   0.363   1.474
 1648SOL    HW2 5080   3.077   0.353   1.368
 1649SOL     OW 5081   0.795   2.769   0.382
 1649SOL    HW1 5082   0.807   2.792   0.474
 1649SOL    HW2 5083   0.833   2.842   0.333
 1650SOL     OW 5084   3.672   2.271   1.287
 1650SOL    HW1 5085   3.620   2.228   1.219
 1650SOL    HW2 5086   3.684   2.204   1.354
 1651SOL     OW 5087   2.517   1.936   2.363
 1651SOL    HW1 5088   2.532   1.897   2.449
 1651SOL    HW2 5089   2.428   1.970   2.367
 1652SOL     OW 5090   2.055   0.048   2.021
 1652SOL    HW1 5091   2.004   0.093   1.954
 1652SOL    HW2 5092   2.010  -0.036   2.034
 1653SOL     OW 5093   2.115   0.675   2.319
 1653SOL    HW1 5094   2.186   0.705   2.263
 1653SOL    HW2 5095   2.132   0.717   2.404
 1654SOL     OW 5096   0.473   3.531   2.314
 1654SOL    HW1 5097   0.526   3.484   2.249
 1654SOL    HW2 5098   0.500   3.496   2.398
 1655SOL     OW 5099   2.381   1.584   0.529
 1655SOL    HW1 5100   2.369   1.575   0.435
 1655SOL    HW2 5101   2.475   1.598   0.540
 1656SOL     OW 5102   0.739   0.603   0.354
 1656SOL    HW1 5103   0.752   0.631   0.264
 1656SOL    HW2 5104   0.644   0.594   0.363
 1657SOL     OW 5105   1.758   2.609   2.485
 1657SOL    HW1 5106   1.832   2.572   2.533
 1657SOL    HW2 5107   1.694   2.538   2.481
 1658SOL     OW 5108   3.638   3.623   2.909
 1658SOL    HW1 5109   3.554   3.598   2.948
 1658SOL    HW2 5110   3.626   3.612   2.815
 1659SOL     OW 5111   2.900   0.695   0.576
 1659SOL    HW1 5112   2.924   0.749   0.501
 1659SOL    HW2 5113   2.920   0.605   0.549
 1660SOL     OW 5114   3.820   2.538   0.088
 1660SOL    HW1 5115   3.874   2.590   0.029
 1660SOL    HW2 5116   3.816   2.452   0.047
 1661SOL     OW 5117   1.651   1.385   3.481
 1661SOL    HW1 5118   1.644   1.467   3.432
 1661SOL    HW2 5119   1.564   1.370   3.518
 1662SOL     OW 5120   0.750   3.164   2.429
 1662SOL    HW1 5121   0.684   3.200   2.370
 1662SOL    HW2 5122   0.807   3.112   2.371
 1663SOL     OW 5123   3.452   0.171   1.814
 1663SOL    HW1 5124   3.427   0.092   1.861
 1663SOL    HW2 5125   3.369   0.212   1.790
 1664SOL     OW 5126   3.169   3.804   2.175
 1664SOL    HW1 5127   3.159   3.890   2.216
 1664SOL    HW2 5128   3.264   3.789   2.174
 1665SOL     OW 5129   3.452   2.347   0.814
 1665SOL    HW1 5130   3.424   2.436   0.791
 1665SOL    HW2 5131   3.512   2.323   0.743
 1666SOL     OW 5132   3.011   2.898   3.922
 1666SOL    HW1 5133   2.983   2.974   3.869
 1666SOL    HW2 5134   3.010   2.825   3.860
 1667SOL     OW 5135   2.683   0.583   2.154
 1667SOL    HW1 5136   2.720   0.510   2.205
 1667SOL    HW2 5137   2.638   0.541   2.080
 1668SOL     OW 5138   2.002   0.397   3.261
 1668SOL    HW1 5139   1.956   0.477   3.235
 1668SOL    HW2 5140   1.970   0.331   3.200
 1669SOL     OW 5141   2.911   2.794   0.204
 1669SOL    HW1 5142   2.943   2.797   0.114
 1669SOL    HW2 5143   2.984   2.756   0.254
 1670SOL     OW 5144   2.867   3.627   0.187
 1670SOL    HW1 5145   2.827   3.690   0.127
 1670SOL    HW2 5146   2.960   3.629   0.164
 1671SOL     OW 5147   3.293   0.220   2.455
 1671SOL    HW1 5148   3.381   0.240   2.487
 1671SOL    HW2 5149   3.299   0.229   2.360
 1672SOL     OW 5150   0.958   0.895   2.588
 1672SOL    HW1 5151   0.864   0.914   2.588
 1672SOL    HW2 5152   0.982   0.896   2.496
 1673SOL     OW 5153   2.437   3.274   1.489
 1673SOL    HW1 5154   2.394   3.200   1.533
 1673SOL    HW2 5155   2.457   3.241   1.402
 1674SOL     OW 5156   1.524   0.212   2.088
 1674SOL    HW1 5157   1.604   0.169   2.056
 1674SOL    HW2 5158   1.542   0.306   2.080
 1675SOL     OW 5159   3.648   1.486   0.207
 1675SOL    HW1 5160   3.718   1.535   0.249
 1675SOL    HW2 5161   3.690   1.407   0.173
 1676SOL     OW 5162   3.093   2.582   0.276
 1676SOL    HW1 5163   3.122   2.493   0.297
 1676SOL    HW2 5164   3.174   2.628   0.252
 1677SOL     OW 5165   3.554   0.117   1.514
 1677SOL    HW1 5166   3.635   0.125   1.465
 1677SOL    HW2 5167   3.580   0.124   1.606
 1678SOL     OW 5168   3.865   1.940   0.506
 1678SOL    HW1 5169   3.936   1.982   0.459
 1678SOL    HW2 5170   3.874   1.970   0.597
 1679SOL     OW 5171   3.813   2.035   0.774
 1679SOL    HW1 5172   3.784   1.970   0.838
 1679SOL    HW2 5173   3.873   2.091   0.822
 1680SOL     OW 5174   3.352   1.992   0.616
 1680SOL    HW1 5175   3.411   2.036   0.678
 1680SOL    HW2 5176   3.268   2.036   0.628
 1681SOL     OW 5177   2.563   3.650   0.891
 1681SOL    HW1 5178   2.554   3.744   0.873
 1681SOL    HW2 5179   2.645   3.643   0.940
 1682SOL     OW 5180   0.789   1.953   0.800
 1682SOL    HW1 5181   0.832   1.919   0.879
 1682SOL    HW2 5182   0.827   2.040   0.788
 1683SOL     OW 5183   1.049   1.126   1.750
 1683SOL    HW1 5184   1.130   1.148   1.705
 1683SOL    HW2 5185   1.052   1.031   1.761
 1684SOL     OW 5186   2.901   1.696   0.321
 1684SOL    HW1 5187   2.944   1.747   0.390
 1684SOL    HW2 5188   2.958   1.707   0.244
 1685SOL     OW 5189   3.580   2.433   1.911
 1685SOL    HW1 5190   3.651   2.390   1.863
 1685SOL    HW2 5191   3.620   2.509   1.951
 1686SOL     OW 5192   3.755   0.679   3.371
 1686SOL    HW1 5193   3.805   0.671   3.290
 1686SOL    HW2 5194   3.818   0.655   3.439
 1687SOL     OW 5195   1.347   2.562   3.051
 1687SOL    HW1 5196   1.271   2.550   3.106
 1687SOL    HW2 5197   1.422   2.544   3.108
 1688SOL     OW 5198   1.682   0.110   1.788
 1688SOL    HW1 5199   1.766   0.154   1.775
 1688SOL    HW2 5200   1.692   0.063   1.870
 1689SOL     OW 5201   3.671   1.860   0.098
 1689SOL    HW1 5202   3.644   1.908   0.020
 1689SOL    HW2 5203   3.744   1.910   0.134
 1690SOL     OW 5204   2.384   3.880   2.729
 1690SOL    HW1 5205   2.363   3.790   2.702
 1690SOL    HW2 5206   2.393   3.928   2.647
 1691SOL     OW 5207   3.566   0.428   1.756
 1691SOL    HW1 5208   3.503   0.471   1.698
 1691SOL    HW2 5209   3.538   0.337   1.760
 1692SOL     OW 5210   0.410   0.108   3.457
 1692SOL    HW1 5211   0.475   0.178   3.457
 1692SOL    HW2 5212   0.438   0.050   3.385
 1693SOL     OW 5213   1.516   2.370   2.373
 1693SOL    HW1 5214   1.461   2.293   2.368
 1693SOL    HW2 5215   1.598   2.345   2.330
 1694SOL     OW 5216   1.045   3.375   2.676
 1694SOL    HW1 5217   1.031   3.313   2.748
 1694SOL    HW2 5218   1.088   3.450   2.718
 1695SOL     OW 5219   2.120   1.307   3.102
 1695SOL    HW1 5220   2.162   1.265   3.176
 1695SOL    HW2 5221   2.116   1.240   3.034
 1696SOL     OW 5222   3.005   1.851   0.500
 1696SOL    HW1 5223   3.008   1.911   0.575
 1696SOL    HW2 5224   3.085   1.800   0.508
 1697SOL     OW 5225   0.331   3.641   1.761
 1697SOL    HW1 5226   0.308   3.647   1.854
 1697SOL    HW2 5227   0.427   3.644   1.760
 1698SOL     OW 5228   2.872   3.596   3.515
 1698SOL    HW1 5229   2.864   3.665   3.581
 1698SOL    HW2 5230   2.913   3.523   3.562
 1699SOL     OW 5231   2.899   3.739   0.427
 1699SOL    HW1 5232   2.885   3.682   0.351
 1699SOL    HW2 5233   2.858   3.822   0.403
 1700SOL     OW 5234   0.975   0.564   3.067
 1700SOL    HW1 5235   1.019   0.646   3.089
 1700SOL    HW2 5236   1.024   0.530   2.992
 1701SOL     OW 5237   3.835   1.237   1.045
 1701SOL    HW1 5238   3.844   1.323   1.087
 1701SOL    HW2 5239   3.924   1.205   1.036
 1702SOL     OW 5240   2.509   3.294   1.034
 1702SOL    HW1 5241   2.452   3.240   1.088
 1702SOL    HW2 5242   2.573   3.330   1.096
 1703SOL     OW 5243   1.943   2.263   0.704
 1703SOL    HW1 5244   1.918   2.198   0.639
 1703SOL    HW2 5245   1.918   2.224   0.788
 1704SOL     OW 5246   1.366   3.035   1.063
 1704SOL    HW1 5247   1.414   3.004   1.140
 1704SOL    HW2 5248   1.288   2.980   1.060
 1705SOL     OW 5249   0.094   2.041   3.400
 1705SOL    HW1 5250   0.161   2.104   3.373
 1705SOL    HW2 5251   0.060   2.006   3.318
 1706SOL     OW 5252   2.665   3.358   2.119
 1706SOL    HW1 5253   2.680   3.324   2.031
 1706SOL    HW2 5254   2.724   3.308   2.175
 1707SOL     OW 5255   1.705   2.666   1.771
 1707SOL    HW1 5256   1.698   2.583   1.820
 1707SOL    HW2 5257   1.749   2.641   1.689
 1708SOL     OW 5258   1.020   1.711   1.626
 1708SOL    HW1 5259   1.011   1.617   1.640
 1708SOL    HW2 5260   1.065   1.743   1.704
 1709SOL     OW 5261   1.209   3.488   1.532
 1709SOL    HW1 5262   1.301   3.464   1.518
 1709SOL    HW2 5263   1.180   3.521   1.447
 1710SOL     OW 5264   3.210   1.378   1.481
 1710SOL    HW1 5265   3.303   1.399   1.489
 1710SOL    HW2 5266   3.208   1.296   1.431
 1711SOL     OW 5267   1.959   3.456   3.739
 1711SOL    HW1 5268   1.929   3.390   3.802
 1711SOL    HW2 5269   1.908   3.438   3.660
 1712SOL     OW 5270   2.947   3.855   1.120
 1712SOL    HW1 5271   3.012   3.905   1.169
 1712SOL    HW2 5272   2.956   3.886   1.030
 1713SOL     OW 5273   3.367   3.932   3.533
 1713SOL    HW1 5274   3.424   4.006   3.513
 1713SOL    HW2 5275   3.400   3.898   3.616
 1714SOL     OW 5276   0.072   3.028   3.663
 1714SOL    HW1 5277   0.067   3.000   3.755
 1714SOL    HW2 5278   0.025   2.960   3.615
 1715SOL     OW 5279   0.518   2.999   2.515
 1715SOL    HW1 5280   0.534   2.946   2.593
 1715SOL    HW2 5281   0.570   3.078   2.529
 1716SOL     OW 5282   0.558   1.584   3.010
 1716SOL    HW1 5283   0.607   1.537   2.943
 1716SOL    HW2 5284   0.481   1.619   2.965
 1717SOL     OW 5285   2.063   3.412   1.284
 1717SOL    HW1 5286   1.989   3.449   1.332
 1717SOL    HW2 5287   2.062   3.460   1.200
 1718SOL     OW 5288   1.075   2.369   0.065
 1718SOL    HW1 5289   1.074   2.426   0.142
 1718SOL    HW2 5290   1.152   2.396   0.016
 1719SOL     OW 5291   2.241   1.891   0.713
 1719SOL    HW1 5292   2.326   1.861   0.745
 1719SOL    HW2 5293   2.259   1.976   0.673
 1720SOL     OW 5294   2.397   3.950   3.351
 1720SOL    HW1 5295   2.442   3.880   3.399
 1720SOL    HW2 5296   2.468   4.007   3.321
 1721SOL     OW 5297   2.742   3.706   1.386
 1721SOL    HW1 5298   2.779   3.716   1.473
 1721SOL    HW2 5299   2.753   3.791   1.345
 1722SOL     OW 5300   3.228   1.526   1.207
 1722SOL    HW1 5301   3.171   1.463   1.251
 1722SOL    HW2 5302   3.205   1.519   1.114
 1723SOL     OW 5303   3.689   3.337   3.386
 1723SOL    HW1 5304   3.635   3.406   3.424
 1723SOL    HW2 5305   3.750   3.314   3.456
 1724SOL     OW 5306   2.746   2.839   2.426
 1724SOL    HW1 5307   2.672   2.830   2.486
 1724SOL    HW2 5308   2.714   2.802   2.343
 1725SOL     OW 5309   1.188   3.362   3.067
 1725SOL    HW1 5310   1.107   3.379   3.019
 1725SOL    HW2 5311   1.242   3.312   3.007
 1726SOL     OW 5312   0.837   3.511   1.890
 1726SOL    HW1 5313   0.899   3.562   1.838
 1726SOL    HW2 5314   0.892   3.452   1.942
 1727SOL     OW 5315   3.504   2.587   0.180
 1727SOL    HW1 5316   3.452   2.641   0.239
 1727SOL    HW2 5317   3.440   2.534   0.133
 1728SOL     OW 5318   3.947   3.445   0.525
 1728SOL    HW1 5319   3.978   3.356   0.540
 1728SOL    HW2 5320   3.947   3.486   0.611
 1729SOL     OW 5321   3.413   0.781   2.157
 1729SOL    HW1 5322   3.378   0.692   2.166
 1729SOL    HW2 5323   3.467   0.777   2.079
 1730SOL     OW 5324   1.077   2.893   2.570
 1730SOL    HW1 5325   1.154   2.848   2.604
 1730SOL    HW2 5326   1.013   2.824   2.556
 1731SOL     OW 5327   1.104   2.775   3.546
 1731SOL    HW1 5328   1.123   2.684   3.568
 1731SOL    HW2 5329   1.152   2.827   3.611
 1732SOL     OW 5330   1.895   1.376   1.777
 1732SOL    HW1 5331   1.933   1.296   1.741
 1732SOL    HW2 5332   1.930   1.446   1.722
 1733SOL     OW 5333   1.511   2.950   2.269
 1733SOL    HW1 5334   1.458   2.986   2.340
 1733SOL    HW2 5335   1.570   3.021   2.245
 1734SOL     OW 5336   3.606   0.260   3.674
 1734SOL    HW1 5337   3.643   0.348   3.680
 1734SOL    HW2 5338   3.682   0.202   3.671
 1735SOL     OW 5339   0.973   1.336   3.327
 1735SOL    HW1 5340   1.018   1.252   3.316
 1735SOL    HW2 5341   0.948   1.361   3.238
 1736SOL     OW 5342   0.087   3.265   1.465
 1736SOL    HW1 5343   0.169   3.239   1.508
 1736SOL    HW2 5344   0.108   3.268   1.372
 1737SOL     OW 5345   2.327   0.514   2.830
 1737SOL    HW1 5346   2.351   0.422   2.840
 1737SOL    HW2 5347   2.336   0.532   2.737
 1738SOL     OW 5348   2.574   3.222   2.408
 1738SOL    HW1 5349   2.600   3.305   2.449
 1738SOL    HW2 5350   2.657   3.181   2.383
 1739SOL     OW 5351   1.948   3.686   2.855
 1739SOL    HW1 5352   1.886   3.718   2.790
 1739SOL    HW2 5353   1.916   3.598   2.876
 1740SOL     OW 5354   3.919   3.974   3.434
 1740SOL    HW1 5355   3.910   3.881   3.416
 1740SOL    HW2 5356   3.920   4.016   3.348
 1741SOL     OW 5357   3.367   0.917   2.699
 1741SOL    HW1 5358   3.349   1.009   2.717
 1741SOL    HW2 5359   3.292   0.871   2.739
 1742SOL     OW 5360  -0.004   2.180   2.169
 1742SOL    HW1 5361  -0.026   2.176   2.262
 1742SOL    HW2 5362   0.059   2.108   2.156
 1743SOL     OW 5363   0.242   3.641   1.486
 1743SOL    HW1 5364   0.148   3.628   1.473
 1743SOL    HW2 5365   0.255   3.633   1.580
 1744SOL     OW 5366   0.432   0.185   2.017
 1744SOL    HW1 5367   0.468   0.257   1.965
 1744SOL    HW2 5368   0.338   0.190   2.003
 1745SOL     OW 5369   2.122   3.058   0.528
 1745SOL    HW1 5370   2.210   3.070   0.562
 1745SOL    HW2 5371   2.135   3.028   0.438
 1746SOL     OW 5372   1.296   0.736   1.955
 1746SOL    HW1 5373   1.296   0.721   2.050
 1746SOL    HW2 5374   1.388   0.738   1.931
 1747SOL     OW 5375   0.382   1.557   0.627
 1747SOL    HW1 5376   0.324   1.573   0.702
 1747SOL    HW2 5377   0.464   1.600   0.650
 1748SOL     OW 5378   2.756   3.217   1.366
 1748SOL    HW1 5379   2.700   3.141   1.351
 1748SOL    HW2 5380   2.712   3.289   1.320
 1749SOL     OW 5381   0.133   3.248   1.192
 1749SOL    HW1 5382   0.096   3.316   1.136
 1749SOL    HW2 5383   0.138   3.171   1.136
 1750SOL     OW 5384   0.583   1.632   1.791
 1750SOL    HW1 5385   0.653   1.697   1.782
 1750SOL    HW2 5386   0.618   1.553   1.750
 1751SOL     OW 5387   2.758   0.959   0.049
 1751SOL    HW1 5388   2.763   0.885  -0.012
 1751SOL    HW2 5389   2.848   0.971   0.079
 1752SOL     OW 5390   2.663   0.023   3.502
 1752SOL    HW1 5391   2.684   0.076   3.425
 1752SOL    HW2 5392   2.677  -0.067   3.473
 1753SOL     OW 5393   2.985   0.630   3.757
 1753SOL    HW1 5394   2.948   0.718   3.762
 1753SOL    HW2 5395   2.918   0.578   3.713
 1754SOL     OW 5396   3.572   2.377   2.860
 1754SOL    HW1 5397   3.539   2.312   2.923
 1754SOL    HW2 5398   3.614   2.444   2.914
 1755SOL     OW 5399   3.137   2.064   3.674
 1755SOL    HW1 5400   3.228   2.092   3.664
 1755SOL    HW2 5401   3.134   2.027   3.762
 1756SOL     OW 5402   1.989   3.760   3.210
 1756SOL    HW1 5403   2.049   3.780   3.282
 1756SOL    HW2 5404   1.990   3.665   3.203
 1757SOL     OW 5405   0.147   1.077   3.866
 1757SOL    HW1 5406   0.076   1.061   3.929
 1757SOL    HW2 5407   0.113   1.146   3.809
 1758SOL     OW 5408   2.146   1.203   3.760
 1758SOL    HW1 5409   2.160   1.200   3.855
 1758SOL    HW2 5410   2.221   1.253   3.727
 1759SOL     OW 5411   3.072   0.035   0.693
 1759SOL    HW1 5412   3.164   0.043   0.719
 1759SOL    HW2 5413   3.075   0.022   0.598
 1760SOL     OW 5414   3.928   1.233   2.343
 1760SOL    HW1 5415   4.010   1.211   2.298
 1760SOL    HW2 5416   3.865   1.168   2.311
 1761SOL     OW 5417   2.799   2.116   2.570
 1761SOL    HW1 5418   2.853   2.105   2.491
 1761SOL    HW2 5419   2.810   2.035   2.619
 1762SOL     OW 5420   3.795   2.967   2.127
 1762SOL    HW1 5421   3.701   2.966   2.143
 1762SOL    HW2 5422   3.809   3.043   2.070
 1763SOL     OW 5423   3.286   2.259   1.515
 1763SOL    HW1 5424   3.219   2.326   1.528
 1763SOL    HW2 5425   3.237   2.178   1.506
 1764SOL     OW 5426   3.240   3.404   0.327
 1764SOL    HW1 5427   3.318   3.351   0.342
 1764SOL    HW2 5428   3.203   3.370   0.245
 1765SOL     OW 5429   3.117   2.907   0.419
 1765SOL    HW1 5430   3.052   2.845   0.386
 1765SOL    HW2 5431   3.074   2.992   0.414
 1766SOL     OW 5432   3.369   1.036   2.041
 1766SOL    HW1 5433   3.374   0.947   2.075
 1766SOL    HW2 5434   3.343   1.089   2.117
 1767SOL     OW 5435   3.565   3.870   0.394
 1767SOL    HW1 5436   3.482   3.871   0.347
 1767SOL    HW2 5437   3.609   3.791   0.364
 1768SOL     OW 5438   2.037   2.509   0.699
 1768SOL    HW1 5439   1.989   2.429   0.718
 1768SOL    HW2 5440   1.990   2.578   0.746
 1769SOL     OW 5441   1.055   3.055   0.682
 1769SOL    HW1 5442   1.132   3.111   0.675
 1769SOL    HW2 5443   1.026   3.066   0.772
 1770SOL     OW 5444   3.392   1.568   0.291
 1770SOL    HW1 5445   3.354   1.645   0.249
 1770SOL    HW2 5446   3.475   1.554   0.245
 1771SOL     OW 5447   0.839   3.755   1.030
 1771SOL    HW1 5448   0.838   3.833   0.975
 1771SOL    HW2 5449   0.837   3.682   0.969
 1772SOL     OW 5450   3.715   2.708   1.422
 1772SOL    HW1 5451   3.676   2.725   1.507
 1772SOL    HW2 5452   3.810   2.714   1.437
 1773SOL     OW 5453   2.523   3.495   2.276
 1773SOL    HW1 5454   2.592   3.556   2.300
 1773SOL    HW2 5455   2.565   3.432   2.217
 1774SOL     OW 5456   0.230   3.323   1.904
 1774SOL    HW1 5457   0.227   3.228   1.894
 1774SOL    HW2 5458   0.139   3.351   1.896
 1775SOL     OW 5459   1.199   2.722   0.892
 1775SOL    HW1 5460   1.119   2.763   0.925
 1775SOL    HW2 5461   1.189   2.629   0.912
 1776SOL     OW 5462   2.561   0.380   2.621
 1776SOL    HW1 5463   2.653   0.368   2.644
 1776SOL    HW2 5464   2.516   0.307   2.663
 1777SOL     OW 5465   2.859   1.677   3.206
 1777SOL    HW1 5466   2.848   1.588   3.238
 1777SOL    HW2 5467   2.791   1.686   3.138
 1778SOL     OW 5468   3.256   3.591   0.883
 1778SOL    HW1 5469   3.309   3.520   0.846
 1778SOL    HW2 5470   3.293   3.605   0.970
 1779SOL     OW 5471   1.589   2.965   2.773
 1779SOL    HW1 5472   1.501   2.974   2.736
 1779SOL    HW2 5473   1.647   3.004   2.707
 1780SOL     OW 5474   0.628   2.235   0.666
 1780SOL    HW1 5475   0.691   2.230   0.594
 1780SOL    HW2 5476   0.677   2.277   0.737
 1781SOL     OW 5477   2.717   2.653   3.623
 1781SOL    HW1 5478   2.703   2.718   3.554
 1781SOL    HW2 5479   2.633   2.649   3.669
 1782SOL     OW 5480   0.349   2.545   3.362
 1782SOL    HW1 5481   0.399   2.627   3.367
 1782SOL    HW2 5482   0.345   2.525   3.268
 1783SOL     OW 5483   2.894   2.838   1.790
 1783SOL    HW1 5484   2.920   2.789   1.713
 1783SOL    HW2 5485   2.822   2.787   1.828
 1784SOL     OW 5486   0.354   1.037   1.041
 1784SOL    HW1 5487   0.437   1.083   1.046
 1784SOL    HW2 5488   0.288   1.106   1.034
 1785SOL     OW 5489   0.905   1.869   2.422
 1785SOL    HW1 5490   0.952   1.865   2.505
 1785SOL    HW2 5491   0.812   1.866   2.447
 1786SOL     OW 5492   3.289   2.203   2.514
 1786SOL    HW1 5493   3.197   2.184   2.496
 1786SOL    HW2 5494   3.336   2.124   2.487
 1787SOL     OW 5495   2.261   0.290   2.326
 1787SOL    HW1 5496   2.173   0.253   2.323
 1787SOL    HW2 5497   2.302   0.265   2.243
 1788SOL     OW 5498   0.851   0.471   3.789
 1788SOL    HW1 5499   0.821   0.545   3.735
 1788SOL    HW2 5500   0.923   0.432   3.739
 1789SOL     OW 5501   0.184   0.902   2.062
 1789SOL    HW1 5502   0.199   0.992   2.035
 1789SOL    HW2 5503   0.268   0.874   2.098
 1790SOL     OW 5504   0.380   2.448   1.846
 1790SOL    HW1 5505   0.347   2.492   1.768
 1790SOL    HW2 5506   0.350   2.502   1.919
 1791SOL     OW 5507   3.079   1.110   1.909
 1791SOL    HW1 5508   3.149   1.091   1.847
 1791SOL    HW2 5509   3.027   1.178   1.866
 1792SOL     OW 5510   0.190   3.535   1.055
 1792SOL    HW1 5511   0.188   3.580   1.139
 1792SOL    HW2 5512   0.221   3.601   0.993
 1793SOL     OW 5513   3.850   1.608   0.581
 1793SOL    HW1 5514   3.804   1.566   0.508
 1793SOL    HW2 5515   3.892   1.684   0.542
 1794SOL     OW 5516   3.762   0.976   3.417
 1794SOL    HW1 5517   3.719   0.906   3.368
 1794SOL    HW2 5518   3.759   1.051   3.358
 1795SOL     OW 5519   2.409   1.569   0.246
 1795SOL    HW1 5520   2.375   1.646   0.202
 1795SOL    HW2 5521   2.499   1.561   0.215
 1796SOL     OW 5522   0.257   0.807   0.943
 1796SOL    HW1 5523   0.325   0.740   0.951
 1796SOL    HW2 5524   0.302   0.889   0.964
 1797SOL     OW 5525   2.874   3.334   3.925
 1797SOL    HW1 5526   2.812   3.401   3.898
 1797SOL    HW2 5527   2.854   3.319   4.017
 1798SOL     OW 5528   2.867   1.208   3.892
 1798SOL    HW1 5529   2.802   1.149   3.930
 1798SOL    HW2 5530   2.865   1.190   3.798
 1799SOL     OW 5531   2.546  -0.007   1.787
 1799SOL    HW1 5532   2.617   0.021   1.730
 1799SOL    HW2 5533   2.466   0.012   1.737
 1800SOL     OW 5534   1.286   1.567   0.108
 1800SOL    HW1 5535   1.340   1.646   0.112
 1800SOL    HW2 5536   1.198   1.597   0.129
 1801SOL     OW 5537   1.777   3.807   1.162
 1801SOL    HW1 5538   1.689   3.779   1.187
 1801SOL    HW2 5539   1.836   3.744   1.203
 1802SOL     OW 5540   2.674   2.311   0.574
 1802SOL    HW1 5541   2.652   2.394   0.617
 1802SOL    HW2 5542   2.711   2.337   0.490
 1803SOL     OW 5543   1.266   1.066   3.898
 1803SOL    HW1 5544   1.252   0.991   3.956
 1803SOL    HW2 5545   1.296   1.027   3.816
 1804SOL     OW 5546   2.854   3.489   0.983
 1804SOL    HW1 5547   2.883   3.553   0.917
 1804SOL    HW2 5548   2.852   3.406   0.936
 1805SOL     OW 5549   1.475   1.078   1.190
 1805SOL    HW1 5550   1.564   1.044   1.204
 1805SOL    HW2 5551   1.424   1.001   1.166
 1806SOL     OW 5552   2.410   1.257   0.386
 1806SOL    HW1 5553   2.442   1.199   0.316
 1806SOL    HW2 5554   2.454   1.340   0.371
 1807SOL     OW 5555  -0.007   1.365   3.836
 1807SOL    HW1 5556   0.048   1.428   3.882
 1807SOL    HW2 5557   0.038   1.350   3.753
 1808SOL     OW 5558   3.956   3.171   2.972
 1808SOL    HW1 5559   3.944   3.155   3.066
 1808SOL    HW2 5560   3.920   3.259   2.959
 1809SOL     OW 5561   0.084   0.610   0.151
 1809SOL    HW1 5562   0.033   0.597   0.231
 1809SOL    HW2 5563   0.025   0.582   0.081
 1810SOL     OW 5564   1.189   3.186   0.469
 1810SOL    HW1 5565   1.273   3.203   0.511
 1810SOL    HW2 5566   1.133   3.260   0.495
 1811SOL     OW 5567   1.478   1.581   3.741
 1811SOL    HW1 5568   1.542   1.550   3.806
 1811SOL    HW2 5569   1.452   1.502   3.694
 1812SOL     OW 5570   3.369   0.530   1.582
 1812SOL    HW1 5571   3.380   0.493   1.494
 1812SOL    HW2 5572   3.360   0.624   1.568
 1813SOL     OW 5573   1.889   3.705   1.787
 1813SOL    HW1 5574   1.866   3.774   1.725
 1813SOL    HW2 5575   1.889   3.625   1.735
 1814SOL     OW 5576   1.624   3.745   1.504
 1814SOL    HW1 5577   1.536   3.770   1.475
 1814SOL    HW2 5578   1.663   3.827   1.535
 1815SOL     OW 5579   0.328   1.771   1.856
 1815SOL    HW1 5580   0.276   1.718   1.915
 1815SOL    HW2 5581   0.410   1.723   1.847
 1816SOL     OW 5582   1.332   0.195   3.906
 1816SOL    HW1 5583   1.329   0.133   3.979
 1816SOL    HW2 5584   1.393   0.263   3.935
 1817SOL     OW 5585   0.357   2.823   3.143
 1817SOL    HW1 5586   0.406   2.756   3.191
 1817SOL    HW2 5587   0.288   2.850   3.203
 1818SOL     OW 5588   0.249   3.206   3.847
 1818SOL    HW1 5589   0.161   3.186   3.880
 1818SOL    HW2 5590   0.236   3.283   3.792
 1819SOL     OW 5591   3.885   0.272   2.378
 1819SOL    HW1 5592   3.840   0.311   2.303
 1819SOL    HW2 5593   3.978   0.278   2.356
 1820SOL     OW 5594   1.995   3.961   2.817
 1820SOL    HW1 5595   1.938   3.964   2.894
 1820SOL    HW2 5596   2.025   3.870   2.813
 1821SOL     OW 5597   0.319   0.270   0.457
 1821SOL    HW1 5598   0.414   0.262   0.449
 1821SOL    HW2 5599   0.297   0.346   0.402
 1822SOL     OW 5600   0.767   1.295   1.858
 1822SOL    HW1 5601   0.805   1.207   1.858
 1822SOL    HW2 5602   0.674   1.280   1.839
 1823SOL     OW 5603   0.003   1.350   3.290
 1823SOL    HW1 5604   0.096   1.339   3.313
 1823SOL    HW2 5605  -0.026   1.426   3.340
 1824SOL     OW 5606   2.440   2.255   3.853
 1824SOL    HW1 5607   2.435   2.223   3.943
 1824SOL    HW2 5608   2.413   2.347   3.859
 1825SOL     OW 5609   3.074   0.091   2.286
 1825SOL    HW1 5610   3.131   0.164   2.265
 1825SOL    HW2 5611   2.993   0.132   2.318
 1826SOL     OW 5612   0.390   1.153   0.069
 1826SOL    HW1 5613   0.419   1.071   0.109
 1826SOL    HW2 5614   0.309   1.131   0.024
 1827SOL     OW 5615   0.445   3.316   0.052
 1827SOL    HW1 5616   0.447   3.391  -0.008
 1827SOL    HW2 5617   0.416   3.243  -0.002
 1828SOL     OW 5618   0.788  -0.030   1.609
 1828SOL    HW1 5619   0.820   0.038   1.549
 1828SOL    HW2 5620   0.789   0.012   1.695
 1829SOL     OW 5621   1.360   2.227   1.961
 1829SOL    HW1 5622   1.348   2.162   1.891
 1829SOL    HW2 5623   1.353   2.311   1.917
 1830SOL     OW 5624   2.784   0.683   3.023
 1830SOL    HW1 5625   2.736   0.658   2.944
 1830SOL    HW2 5626   2.835   0.761   2.997
 1831SOL     OW 5627   1.652   1.779   3.582
 1831SOL    HW1 5628   1.591   1.755   3.652
 1831SOL    HW2 5629   1.635   1.714   3.513
 1832SOL     OW 5630   1.355   1.621   1.026
 1832SOL    HW1 5631   1.440   1.655   1.054
 1832SOL    HW2 5632   1.350   1.642   0.933
 1833SOL     OW 5633   0.683   0.343   3.056
 1833SOL    HW1 5634   0.697   0.313   3.146
 1833SOL    HW2 5635   0.743   0.418   3.047
 1834SOL     OW 5636   3.567   2.488   3.142
 1834SOL    HW1 5637   3.517   2.552   3.091
 1834SOL    HW2 5638   3.519   2.480   3.224
 1835SOL     OW 5639   3.958   1.776   1.858
 1835SOL    HW1 5640   3.963   1.844   1.791
 1835SOL    HW2 5641   3.902   1.708   1.820
 1836SOL     OW 5642   3.435   1.748   1.206
 1836SOL    HW1 5643   3.364   1.684   1.200
 1836SOL    HW2 5644   3.514   1.699   1.181
 1837SOL     OW 5645   1.384   1.668   2.737
 1837SOL    HW1 5646   1.352   1.577   2.732
 1837SOL    HW2 5647   1.381   1.699   2.646
 1838SOL     OW 5648   0.396   1.815   2.287
 1838SOL    HW1 5649   0.478   1.793   2.243
 1838SOL    HW2 5650   0.407   1.906   2.314
 1839SOL     OW 5651   1.286   0.091   0.226
 1839SOL    HW1 5652   1.197   0.117   0.247
 1839SOL    HW2 5653   1.335   0.102   0.307
 1840SOL     OW 5654   3.783   3.772   0.900
 1840SOL    HW1 5655   3.852   3.838   0.898
 1840SOL    HW2 5656   3.707   3.813   0.858
 1841SOL     OW 5657   3.672   3.430   2.329
 1841SOL    HW1 5658   3.692   3.522   2.347
 1841SOL    HW2 5659   3.753   3.384   2.348
 1842SOL     OW 5660   3.311   1.319   0.425
 1842SOL    HW1 5661   3.245   1.275   0.371
 1842SOL    HW2 5662   3.324   1.404   0.383
 1843SOL     OW 5663   2.283   2.426   0.887
 1843SOL    HW1 5664   2.228   2.352   0.914
 1843SOL    HW2 5665   2.265   2.435   0.794
 1844SOL     OW 5666   3.891   3.170   3.253
 1844SOL    HW1 5667   3.854   3.253   3.285
 1844SOL    HW2 5668   3.873   3.107   3.323
 1845SOL     OW 5669   3.265   0.680   3.201
 1845SOL    HW1 5670   3.320   0.642   3.269
 1845SOL    HW2 5671   3.290   0.772   3.197
 1846SOL     OW 5672   3.369   1.497   2.722
 1846SOL    HW1 5673   3.428   1.573   2.716
 1846SOL    HW2 5674   3.389   1.445   2.644
 1847SOL     OW 5675   1.290   1.834   3.117
 1847SOL    HW1 5676   1.264   1.926   3.131
 1847SOL    HW2 5677   1.228   1.784   3.170
 1848SOL     OW 5678   1.298   2.908   3.762
 1848SOL    HW1 5679   1.321   2.906   3.855
 1848SOL    HW2 5680   1.275   2.999   3.745
 1849SOL     OW 5681   1.276   0.548   1.235
 1849SOL    HW1 5682   1.247   0.617   1.176
 1849SOL    HW2 5683   1.355   0.513   1.194
 1850SOL     OW 5684   3.377   3.719   0.629
 1850SOL    HW1 5685   3.341   3.678   0.551
 1850SOL    HW2 5686   3.309   3.706   0.696
 1851SOL     OW 5687   1.946   2.788   1.051
 1851SOL    HW1 5688   1.960   2.877   1.082
 1851SOL    HW2 5689   1.949   2.734   1.130
 1852SOL     OW 5690   1.788   1.248   1.135
 1852SOL    HW1 5691   1.722   1.272   1.071
 1852SOL    HW2 5692   1.849   1.322   1.136
 1853SOL     OW 5693   3.940   1.723   0.992
 1853SOL    HW1 5694   4.015   1.767   0.952
 1853SOL    HW2 5695   3.923   1.648   0.935
 1854SOL     OW 5696   2.142   2.585   2.010
 1854SOL    HW1 5697   2.138   2.654   1.943
 1854SOL    HW2 5698   2.052   2.556   2.020
 1855SOL     OW 5699   0.931   2.570   0.188
 1855SOL    HW1 5700   0.889   2.640   0.238
 1855SOL    HW2 5701   0.897   2.580   0.099
 1856SOL     OW 5702   3.447   1.371   2.515
 1856SOL    HW1 5703   3.445   1.431   2.441
 1856SOL    HW2 5704   3.363   1.325   2.512
 1857SOL     OW 5705   1.494   0.465   1.091
 1857SOL    HW1 5706   1.580   0.504   1.083
 1857SOL    HW2 5707   1.459   0.464   1.002
 1858SOL     OW 5708   3.923   1.231   0.267
 1858SOL    HW1 5709   3.955   1.178   0.193
 1858SOL    HW2 5710   3.830   1.210   0.272
 1859SOL     OW 5711   1.847   0.244   3.425
 1859SOL    HW1 5712   1.893   0.177   3.477
 1859SOL    HW2 5713   1.915   0.308   3.403
 1860SOL     OW 5714   0.951   1.966   1.499
 1860SOL    HW1 5715   0.975   1.909   1.571
 1860SOL    HW2 5716   0.871   1.928   1.463
 1861SOL     OW 5717   2.195   2.750   3.950
 1861SOL    HW1 5718   2.144   2.719   3.876
 1861SOL    HW2 5719   2.141   2.730   4.027
 1862SOL     OW 5720   2.508   3.742   3.466
 1862SOL    HW1 5721   2.512   3.668   3.407
 1862SOL    HW2 5722   2.507   3.703   3.554
 1863SOL     OW 5723   3.076   0.711   2.181
 1863SOL    HW1 5724   3.075   0.677   2.271
 1863SOL    HW2 5725   3.102   0.803   2.191
 1864SOL     OW 5726   0.282   0.920   1.594
 1864SOL    HW1 5727   0.276   0.851   1.528
 1864SOL    HW2 5728   0.351   0.890   1.653
 1865SOL     OW 5729   0.527   0.557   0.988
 1865SOL    HW1 5730   0.505   0.465   0.975
 1865SOL    HW2 5731   0.602   0.571   0.930
 1866SOL     OW 5732   3.873   2.325   0.606
 1866SOL    HW1 5733   3.968   2.313   0.604
 1866SOL    HW2 5734   3.854   2.358   0.694
 1867SOL     OW 5735   2.942   3.198   2.036
 1867SOL    HW1 5736   3.022   3.196   1.983
 1867SOL    HW2 5737   2.904   3.111   2.024
 1868SOL     OW 5738   1.282   3.492   2.293
 1868SOL    HW1 5739   1.241   3.579   2.299
 1868SOL    HW2 5740   1.292   3.477   2.199
 1869SOL     OW 5741   0.608   3.887   0.788
 1869SOL    HW1 5742   0.651   3.804   0.770
 1869SOL    HW2 5743   0.676   3.942   0.826
 1870SOL     OW 5744   0.837   0.660   0.050
 1870SOL    HW1 5745   0.850   0.575   0.007
 1870SOL    HW2 5746   0.743   0.674   0.047
 1871SOL     OW 5747   3.561   3.050   0.356
 1871SOL    HW1 5748   3.571   3.015   0.445
 1871SOL    HW2 5749   3.646   3.092   0.338
 1872SOL     OW 5750   1.345   1.821   0.202
 1872SOL    HW1 5751   1.315   1.900   0.247
 1872SOL    HW2 5752   1.441   1.823   0.211
 1873SOL     OW 5753   2.692   0.702   1.706
 1873SOL    HW1 5754   2.690   0.793   1.735
 1873SOL    HW2 5755   2.785   0.682   1.697
 1874SOL     OW 5756   0.621   1.334   3.477
 1874SOL    HW1 5757   0.649   1.371   3.394
 1874SOL    HW2 5758   0.686   1.365   3.540
 1875SOL     OW 5759   2.970   1.584   1.995
 1875SOL    HW1 5760   2.968   1.493   2.025
 1875SOL    HW2 5761   3.057   1.615   2.019
 1876SOL     OW 5762   1.737   2.223   3.712
 1876SOL    HW1 5763   1.813   2.240   3.657
 1876SOL    HW2 5764   1.729   2.127   3.714
 1877SOL     OW 5765   2.387   2.526   3.850
 1877SOL    HW1 5766   2.321   2.550   3.916
 1877SOL    HW2 5767   2.389   2.601   3.791
 1878SOL     OW 5768   1.583   2.545   1.004
 1878SOL    HW1 5769   1.609   2.522   0.915
 1878SOL    HW2 5770   1.627   2.629   1.020
 1879SOL     OW 5771   3.111   1.473   3.117
 1879SOL    HW1 5772   3.162   1.553   3.109
 1879SOL    HW2 5773   3.177   1.403   3.117
 1880SOL     OW 5774   1.477   0.960   0.374
 1880SOL    HW1 5775   1.422   1.034   0.399
 1880SOL    HW2 5776   1.429   0.918   0.302
 1881SOL     OW 5777   1.306   3.928   2.163
 1881SOL    HW1 5778   1.318   3.834   2.151
 1881SOL    HW2 5779   1.389   3.967   2.135
 1882SOL     OW 5780   3.929   2.492   3.176
 1882SOL    HW1 5781   4.015   2.487   3.134
 1882SOL    HW2 5782   3.894   2.404   3.171
 1883SOL     OW 5783   1.895   3.060   3.904
 1883SOL    HW1 5784   1.945   3.079   3.825
 1883SOL    HW2 5785   1.860   3.145   3.931
 1884SOL     OW 5786   0.666   1.512   3.254
 1884SOL    HW1 5787   0.633   1.592   3.295
 1884SOL    HW2 5788   0.634   1.516   3.164
 1885SOL     OW 5789   3.602   0.844   1.774
 1885SOL    HW1 5790   3.663   0.853   1.701
 1885SOL    HW2 5791   3.526   0.897   1.750
 1886SOL     OW 5792   0.706   2.867   3.644
 1886SOL    HW1 5793   0.621   2.904   3.670
 1886SOL    HW2 5794   0.748   2.845   3.727
 1887SOL     OW 5795   1.087   2.978   3.136
 1887SOL    HW1 5796   1.138   2.957   3.215
 1887SOL    HW2 5797   1.135   3.050   3.095
 1888SOL     OW 5798   2.843   1.625   2.338
 1888SOL    HW1 5799   2.817   1.534   2.351
 1888SOL    HW2 5800   2.938   1.622   2.330
 1889SOL     OW 5801   0.812   3.805   3.817
 1889SOL    HW1 5802   0.890   3.829   3.867
 1889SOL    HW2 5803   0.823   3.712   3.798
 1890SOL     OW 5804   3.266   2.906   1.084
 1890SOL    HW1 5805   3.342   2.963   1.092
 1890SOL    HW2 5806   3.191   2.964   1.093
 1891SOL     OW 5807   2.443   1.895   3.924
 1891SOL    HW1 5808   2.425   1.979   3.966
 1891SOL    HW2 5809   2.525   1.865   3.965
 1892SOL     OW 5810   1.642   3.657   3.755
 1892SOL    HW1 5811   1.654   3.733   3.698
 1892SOL    HW2 5812   1.650   3.581   3.697
 1893SOL     OW 5813   0.854   2.984   2.703
 1893SOL    HW1 5814   0.897   2.953   2.782
 1893SOL    HW2 5815   0.921   2.976   2.635
 1894SOL     OW 5816   0.717   0.983   1.166
 1894SOL    HW1 5817   0.719   0.911   1.103
 1894SOL    HW2 5818   0.626   1.013   1.166
 1895SOL     OW 5819   0.417   2.948  -0.007
 1895SOL    HW1 5820   0.506   2.978   0.009
 1895SOL    HW2 5821   0.362   3.020   0.022
 1896SOL     OW 5822   1.939   1.823   3.502
 1896SOL    HW1 5823   1.947   1.823   3.406
 1896SOL    HW2 5824   1.847   1.845   3.518
 1897SOL     OW 5825   2.049   0.395   3.938
 1897SOL    HW1 5826   2.085   0.473   3.895
 1897SOL    HW2 5827   1.968   0.377   3.891
 1898SOL     OW 5828   2.561   2.866   1.727
 1898SOL    HW1 5829   2.626   2.837   1.663
 1898SOL    HW2 5830   2.477   2.838   1.692
 1899SOL     OW 5831   1.456   3.235   3.216
 1899SOL    HW1 5832   1.535   3.188   3.242
 1899SOL    HW2 5833   1.387   3.169   3.217
 1900SOL     OW 5834   2.287   2.790   1.940
 1900SOL    HW1 5835   2.347   2.759   2.008
 1900SOL    HW2 5836   2.230   2.852   1.984
 1901SOL     OW 5837   1.311   1.893   1.184
 1901SOL    HW1 5838   1.255   1.819   1.209
 1901SOL    HW2 5839   1.257   1.970   1.197
 1902SOL     OW 5840   3.320   2.798   0.268
 1902SOL    HW1 5841   3.343   2.861   0.201
 1902SOL    HW2 5842   3.252   2.841   0.320
 1903SOL     OW 5843   1.491   2.534   2.060
 1903SOL    HW1 5844   1.515   2.567   2.146
 1903SOL    HW2 5845   1.396   2.548   2.054
 1904SOL     OW 5846   0.796   3.535   3.784
 1904SOL    HW1 5847   0.840   3.456   3.815
 1904SOL    HW2 5848   0.716   3.503   3.742
 1905SOL     OW 5849   0.113   3.914   3.893
 1905SOL    HW1 5850   0.144   3.873   3.974
 1905SOL    HW2 5851   0.185   3.970   3.865
 1906SOL     OW 5852   1.265   2.239   2.871
 1906SOL    HW1 5853   1.356   2.211   2.855
 1906SOL    HW2 5854   1.230   2.174   2.932
 1907SOL     OW 5855   0.447   0.578   2.039
 1907SOL    HW1 5856   0.357   0.576   2.072
 1907SOL    HW2 5857   0.439   0.551   1.947
 1908SOL     OW 5858   0.247   2.981   1.620
 1908SOL    HW1 5859   0.169   3.016   1.663
 1908SOL    HW2 5860   0.313   3.049   1.632
 1909SOL     OW 5861   1.742   1.086   2.816
 1909SOL    HW1 5862   1.743   1.138   2.896
 1909SOL    HW2 5863   1.655   1.045   2.816
 1910SOL     OW 5864   0.467   0.095   0.080
 1910SOL    HW1 5865   0.552   0.122   0.045
 1910SOL    HW2 5866   0.405   0.116   0.010
 1911SOL     OW 5867   3.847   1.654   1.412
 1911SOL    HW1 5868   3.916   1.692   1.359
 1911SOL    HW2 5869   3.845   1.561   1.387
 1912SOL     OW 5870   3.850   2.736   0.642
 1912SOL    HW1 5871   3.852   2.796   0.716
 1912SOL    HW2 5872   3.909   2.665   0.666
 1913SOL     OW 5873   0.002   0.607   3.535
 1913SOL    HW1 5874   0.026   0.689   3.579
 1913SOL    HW2 5875   0.086   0.564   3.519
 1914SOL     OW 5876   0.222   2.723   0.076
 1914SOL    HW1 5877   0.284   2.793   0.056
 1914SOL    HW2 5878   0.242   2.698   0.166
 1915SOL     OW 5879   3.640   0.479   0.551
 1915SOL    HW1 5880   3.621   0.573   0.562
 1915SOL    HW2 5881   3.559   0.435   0.578
 1916SOL     OW 5882   3.570   0.620   1.943
 1916SOL    HW1 5883   3.563   0.544   1.885
 1916SOL    HW2 5884   3.592   0.693   1.885
 1917SOL     OW 5885   1.932   2.859   1.483
 1917SOL    HW1 5886   1.957   2.778   1.528
 1917SOL    HW2 5887   1.942   2.839   1.390
 1918NA      NA 5888   3.720   2.552   0.295
 1919NA      NA 5889   2.505   3.759   1.889
   3.96100   3.96100   3.96100   0.00000   0.00000   0.00000   0.00000   0.00000   0.00000
