Generated with MDTraj, t= 2583.0
 5889
    1TYR      N    1   3.975   2.820   3.740
    1TYR     H1    2   3.960   2.800   3.840
    1TYR     H2    3   4.072   2.852   3.716
    1TYR     H3    4   3.911   2.898   3.714
    1TYR     CA    5   3.950   2.711   3.653
    1TYR     HA    6   3.988   2.752   3.561
    1TYR     CB    7   4.042   2.590   3.698
    1TYR    HB1    8   4.137   2.628   3.741
    1TYR    HB2    9   3.991   2.523   3.771
    1TYR     CG   10   4.087   2.508   3.583
    1TYR    CD1   11   4.175   2.557   3.484
    1TYR    HD1   12   4.215   2.656   3.503
    1TYR    CE1   13   4.213   2.471   3.383
    1TYR    HE1   14   4.285   2.506   3.310
    1TYR     CZ   15   4.164   2.343   3.372
    1TYR     OH   16   4.197   2.272   3.258
    1TYR     HH   17   4.164   2.184   3.276
    1TYR    CD2   18   4.030   2.375   3.567
    1TYR    HD2   19   3.964   2.336   3.643
    1TYR    CE2   20   4.067   2.295   3.461
    1TYR    HE2   21   4.015   2.203   3.437
    1TYR      C   22   3.806   2.672   3.635
    1TYR      O   23   3.734   2.740   3.560
    2TYR      N   24   3.759   2.568   3.699
    2TYR     HN   25   3.816   2.501   3.747
    2TYR     CA   26   3.615   2.541   3.695
    2TYR     HA   27   3.579   2.544   3.593
    2TYR     CB   28   3.576   2.401   3.754
    2TYR    HB1   29   3.590   2.407   3.864
    2TYR    HB2   30   3.467   2.384   3.745
    2TYR     CG   31   3.650   2.287   3.682
    2TYR    CD1   32   3.660   2.283   3.538
    2TYR    HD1   33   3.625   2.362   3.474
    2TYR    CE1   34   3.732   2.169   3.476
    2TYR    HE1   35   3.745   2.163   3.369
    2TYR     CZ   36   3.772   2.064   3.561
    2TYR     OH   37   3.829   1.943   3.514
    2TYR     HH   38   3.818   1.932   3.420
    2TYR    CD2   39   3.701   2.182   3.759
    2TYR    HD2   40   3.690   2.193   3.866
    2TYR    CE2   41   3.773   2.079   3.698
    2TYR    HE2   42   3.801   1.997   3.762
    2TYR      C   43   3.526   2.643   3.770
    2TYR      O   44   3.551   2.683   3.885
    3ASP      N   45   3.419   2.683   3.704
    3ASP     HN   46   3.419   2.645   3.612
    3ASP     CA   47   3.328   2.790   3.741
    3ASP     HA   48   3.333   2.811   3.846
    3ASP     CB   49   3.370   2.911   3.664
    3ASP    HB1   50   3.481   2.923   3.658
    3ASP    HB2   51   3.353   2.889   3.556
    3ASP     CG   52   3.301   3.040   3.700
    3ASP    OD1   53   3.197   3.036   3.768
    3ASP    OD2   54   3.350   3.149   3.663
    3ASP      C   55   3.188   2.748   3.695
    3ASP      O   56   3.153   2.784   3.585
    4PRO      N   57   3.109   2.671   3.780
    4PRO     CD   58   3.152   2.613   3.909
    4PRO    HD1   59   3.208   2.691   3.964
    4PRO    HD2   60   3.212   2.520   3.893
    4PRO     CA   61   2.965   2.638   3.756
    4PRO     HA   62   2.966   2.602   3.654
    4PRO     CB   63   2.920   2.539   3.867
    4PRO    HB1   64   2.818   2.557   3.908
    4PRO    HB2   65   2.920   2.433   3.832
    4PRO     CG   66   3.026   2.566   3.978
    4PRO    HG1   67   2.992   2.653   4.038
    4PRO    HG2   68   3.033   2.485   4.054
    4PRO      C   69   2.879   2.764   3.761
    4PRO      O   70   2.770   2.758   3.711
    5GLU      N   71   2.925   2.870   3.825
    5GLU     HN   72   3.022   2.871   3.849
    5GLU     CA   73   2.846   2.997   3.836
    5GLU     HA   74   2.745   2.972   3.864
    5GLU     CB   75   2.912   3.079   3.952
    5GLU    HB1   76   2.892   3.022   4.046
    5GLU    HB2   77   3.019   3.101   3.933
    5GLU     CG   78   2.835   3.214   3.971
    5GLU    HG1   79   2.847   3.282   3.884
    5GLU    HG2   80   2.729   3.180   3.966
    5GLU     CD   81   2.868   3.285   4.100
    5GLU    OE1   82   2.958   3.370   4.099
    5GLU    OE2   83   2.797   3.265   4.198
    5GLU      C   84   2.839   3.069   3.702
    5GLU      O   85   2.737   3.120   3.657
    6THR      N   86   2.948   3.059   3.621
    6THR     HN   87   3.030   3.020   3.662
    6THR     CA   88   2.960   3.098   3.484
    6THR     HA   89   2.890   3.177   3.462
    6THR     CB   90   3.097   3.160   3.441
    6THR     HB   91   3.169   3.075   3.439
    6THR    OG1   92   3.132   3.248   3.550
    6THR    HG1   93   3.219   3.222   3.580
    6THR    CG2   94   3.110   3.229   3.310
    6THR   HG21   95   3.130   3.156   3.228
    6THR   HG22   96   3.025   3.293   3.279
    6THR   HG23   97   3.199   3.294   3.319
    6THR      C   98   2.910   2.986   3.390
    6THR      O   99   2.866   3.009   3.271
    7GLY      N  100   2.921   2.857   3.433
    7GLY     HN  101   2.967   2.837   3.518
    7GLY     CA  102   2.882   2.743   3.353
    7GLY    HA1  103   2.854   2.661   3.418
    7GLY    HA2  104   2.799   2.769   3.288
    7GLY      C  105   2.999   2.683   3.274
    7GLY      O  106   2.987   2.627   3.171
    8THR      N  107   3.122   2.703   3.337
    8THR     HN  108   3.128   2.740   3.429
    8THR     CA  109   3.247   2.666   3.268
    8THR     HA  110   3.220   2.632   3.169
    8THR     CB  111   3.340   2.787   3.257
    8THR     HB  112   3.388   2.804   3.356
    8THR    OG1  113   3.277   2.911   3.221
    8THR    HG1  114   3.269   2.899   3.126
    8THR    CG2  115   3.447   2.747   3.144
    8THR   HG21  116   3.393   2.745   3.047
    8THR   HG22  117   3.532   2.819   3.137
    8THR   HG23  118   3.487   2.645   3.162
    8THR      C  119   3.323   2.552   3.326
    8THR      O  120   3.371   2.559   3.440
    9TRP      N  121   3.334   2.437   3.259
    9TRP     HN  122   3.291   2.441   3.169
    9TRP     CA  123   3.388   2.305   3.298
    9TRP     HA  124   3.444   2.316   3.390
    9TRP     CB  125   3.289   2.186   3.323
    9TRP    HB1  126   3.228   2.171   3.231
    9TRP    HB2  127   3.347   2.093   3.340
    9TRP     CG  128   3.203   2.199   3.443
    9TRP    CD1  129   3.071   2.234   3.437
    9TRP    HD1  130   3.020   2.261   3.346
    9TRP    NE1  131   3.016   2.237   3.563
    9TRP    HE1  132   2.926   2.253   3.596
    9TRP    CE2  133   3.115   2.199   3.649
    9TRP    CD2  134   3.226   2.159   3.574
    9TRP    CE3  135   3.339   2.104   3.635
    9TRP    HE3  136   3.421   2.081   3.569
    9TRP    CZ3  137   3.328   2.077   3.773
    9TRP    HZ3  138   3.418   2.032   3.813
    9TRP    CZ2  139   3.110   2.181   3.787
    9TRP    HZ2  140   3.023   2.200   3.849
    9TRP    CH2  141   3.214   2.115   3.850
    9TRP    HH2  142   3.204   2.092   3.955
    9TRP      C  143   3.470   2.265   3.180
    9TRP      O  144   3.451   2.312   3.065
   10TYR      N  145   3.574   2.186   3.197
   10TYR     HN  146   3.611   2.172   3.288
   10TYR     CA  147   3.671   2.133   3.098
   10TYR     HA  148   3.631   2.138   2.998
   10TYR     CB  149   3.808   2.220   3.101
   10TYR    HB1  150   3.861   2.187   3.193
   10TYR    HB2  151   3.874   2.205   3.013
   10TYR     CG  152   3.799   2.376   3.113
   10TYR    CD1  153   3.816   2.437   3.236
   10TYR    HD1  154   3.838   2.367   3.316
   10TYR    CE1  155   3.815   2.570   3.261
   10TYR    HE1  156   3.821   2.619   3.357
   10TYR     CZ  157   3.788   2.653   3.147
   10TYR     OH  158   3.798   2.786   3.150
   10TYR     HH  159   3.780   2.823   3.063
   10TYR    CD2  160   3.767   2.457   3.003
   10TYR    HD2  161   3.727   2.403   2.918
   10TYR    CE2  162   3.768   2.594   3.019
   10TYR    HE2  163   3.745   2.658   2.935
   10TYR      C  164   3.708   1.989   3.135
   10TYR    OT1  165   3.775   1.961   3.238
   10TYR    OT2  166   3.669   1.890   3.063
   11SOL     OW  167   3.196   3.777   0.263
   11SOL    HW1  168   3.249   3.730   0.199
   11SOL    HW2  169   3.109   3.737   0.258
   12SOL     OW  170   3.057   0.894   0.931
   12SOL    HW1  171   2.979   0.899   0.875
   12SOL    HW2  172   3.125   0.941   0.883
   13SOL     OW  173   2.891   1.755   0.985
   13SOL    HW1  174   2.879   1.840   1.026
   13SOL    HW2  175   2.812   1.706   1.006
   14SOL     OW  176   0.179   3.839   3.497
   14SOL    HW1  177   0.271   3.815   3.488
   14SOL    HW2  178   0.136   3.797   3.422
   15SOL     OW  179   2.377   1.786   0.403
   15SOL    HW1  180   2.418   1.869   0.426
   15SOL    HW2  181   2.299   1.811   0.353
   16SOL     OW  182   0.924   1.335   3.691
   16SOL    HW1  183   0.973   1.260   3.657
   16SOL    HW2  184   0.847   1.342   3.635
   17SOL     OW  185   0.262   2.365   0.625
   17SOL    HW1  186   0.305   2.448   0.605
   17SOL    HW2  187   0.303   2.302   0.566
   18SOL     OW  188   2.352   0.872   1.384
   18SOL    HW1  189   2.348   0.895   1.477
   18SOL    HW2  190   2.260   0.870   1.356
   19SOL     OW  191   1.123   1.307   2.240
   19SOL    HW1  192   1.195   1.244   2.239
   19SOL    HW2  193   1.162   1.386   2.279
   20SOL     OW  194   1.998   2.033   0.876
   20SOL    HW1  195   1.973   2.122   0.903
   20SOL    HW2  196   2.083   2.044   0.834
   21SOL     OW  197   2.748   2.771   0.823
   21SOL    HW1  198   2.717   2.780   0.733
   21SOL    HW2  199   2.736   2.858   0.861
   22SOL     OW  200   2.121   2.032   2.989
   22SOL    HW1  201   2.083   1.944   2.983
   22SOL    HW2  202   2.114   2.067   2.900
   23SOL     OW  203   1.673   3.477   3.231
   23SOL    HW1  204   1.639   3.538   3.166
   23SOL    HW2  205   1.595   3.449   3.281
   24SOL     OW  206   0.685   1.848   2.044
   24SOL    HW1  207   0.648   1.761   2.057
   24SOL    HW2  208   0.609   1.907   2.051
   25SOL     OW  209   1.656   2.121   3.135
   25SOL    HW1  210   1.607   2.075   3.067
   25SOL    HW2  211   1.706   2.053   3.179
   26SOL     OW  212   0.004   2.527   1.136
   26SOL    HW1  213  -0.028   2.437   1.133
   26SOL    HW2  214   0.098   2.520   1.115
   27SOL     OW  215   2.068   0.810   1.362
   27SOL    HW1  216   2.000   0.847   1.418
   27SOL    HW2  217   2.039   0.721   1.344
   28SOL     OW  218   2.845   2.898   2.497
   28SOL    HW1  219   2.808   2.901   2.409
   28SOL    HW2  220   2.903   2.975   2.500
   29SOL     OW  221   1.149   0.857   1.874
   29SOL    HW1  222   1.192   0.877   1.791
   29SOL    HW2  223   1.113   0.941   1.903
   30SOL     OW  224   3.547   0.491   0.690
   30SOL    HW1  225   3.548   0.395   0.689
   30SOL    HW2  226   3.639   0.515   0.684
   31SOL     OW  227   0.156   0.636   3.238
   31SOL    HW1  228   0.121   0.549   3.218
   31SOL    HW2  229   0.157   0.640   3.334
   32SOL     OW  230   2.753   0.579   2.184
   32SOL    HW1  231   2.787   0.662   2.219
   32SOL    HW2  232   2.811   0.512   2.221
   33SOL     OW  233   3.787   0.822   1.628
   33SOL    HW1  234   3.862   0.879   1.646
   33SOL    HW2  235   3.721   0.881   1.591
   34SOL     OW  236   3.094   1.972   2.270
   34SOL    HW1  237   3.035   2.048   2.273
   34SOL    HW2  238   3.150   1.981   2.347
   35SOL     OW  239   1.247   1.762   0.178
   35SOL    HW1  240   1.163   1.746   0.136
   35SOL    HW2  241   1.311   1.754   0.107
   36SOL     OW  242   1.033   3.401   2.843
   36SOL    HW1  243   0.942   3.379   2.862
   36SOL    HW2  244   1.028   3.472   2.778
   37SOL     OW  245   3.563   0.003   0.382
   37SOL    HW1  246   3.539   0.039   0.296
   37SOL    HW2  247   3.482  -0.034   0.416
   38SOL     OW  248   0.893   1.810   0.531
   38SOL    HW1  249   0.838   1.882   0.563
   38SOL    HW2  250   0.830   1.744   0.502
   39SOL     OW  251   2.771   1.376   2.108
   39SOL    HW1  252   2.731   1.430   2.040
   39SOL    HW2  253   2.697   1.336   2.154
   40SOL     OW  254   3.630   3.573   1.024
   40SOL    HW1  255   3.688   3.535   1.090
   40SOL    HW2  256   3.633   3.511   0.951
   41SOL     OW  257   3.488   3.258   1.425
   41SOL    HW1  258   3.558   3.209   1.468
   41SOL    HW2  259   3.434   3.292   1.496
   42SOL     OW  260   0.349   0.069   2.470
   42SOL    HW1  261   0.257   0.083   2.491
   42SOL    HW2  262   0.363  -0.024   2.489
   43SOL     OW  263   1.208   2.835   1.777
   43SOL    HW1  264   1.217   2.789   1.693
   43SOL    HW2  265   1.298   2.839   1.811
   44SOL     OW  266   1.137   0.285   2.901
   44SOL    HW1  267   1.220   0.332   2.898
   44SOL    HW2  268   1.116   0.268   2.809
   45SOL     OW  269   3.174   1.440   3.129
   45SOL    HW1  270   3.266   1.414   3.127
   45SOL    HW2  271   3.138   1.395   3.206
   46SOL     OW  272   3.179   1.446   0.576
   46SOL    HW1  273   3.128   1.380   0.528
   46SOL    HW2  274   3.257   1.400   0.605
   47SOL     OW  275   3.151   2.458   2.404
   47SOL    HW1  276   3.172   2.391   2.469
   47SOL    HW2  277   3.134   2.537   2.456
   48SOL     OW  278   3.361   1.040   1.158
   48SOL    HW1  279   3.272   1.067   1.181
   48SOL    HW2  280   3.388   0.985   1.230
   49SOL     OW  281   3.921   0.790   1.010
   49SOL    HW1  282   3.840   0.825   0.975
   49SOL    HW2  283   3.989   0.846   0.974
   50SOL     OW  284   2.072   1.272   0.897
   50SOL    HW1  285   2.134   1.343   0.914
   50SOL    HW2  286   2.127   1.198   0.873
   51SOL     OW  287   3.473   3.307   3.524
   51SOL    HW1  288   3.482   3.259   3.441
   51SOL    HW2  289   3.418   3.251   3.578
   52SOL     OW  290   3.825   0.523   2.527
   52SOL    HW1  291   3.790   0.503   2.440
   52SOL    HW2  292   3.828   0.438   2.572
   53SOL     OW  293   2.764   0.903   2.656
   53SOL    HW1  294   2.803   0.953   2.584
   53SOL    HW2  295   2.679   0.876   2.622
   54SOL     OW  296   2.020   2.860   1.503
   54SOL    HW1  297   2.012   2.767   1.484
   54SOL    HW2  298   1.956   2.902   1.446
   55SOL     OW  299   2.402   2.045   2.966
   55SOL    HW1  300   2.308   2.060   2.961
   55SOL    HW2  301   2.412   1.951   2.974
   56SOL     OW  302   1.218   1.849   2.857
   56SOL    HW1  303   1.265   1.769   2.880
   56SOL    HW2  304   1.184   1.883   2.940
   57SOL     OW  305   3.534   3.705   0.725
   57SOL    HW1  306   3.451   3.681   0.684
   57SOL    HW2  307   3.572   3.621   0.752
   58SOL     OW  308   3.923   0.277   0.232
   58SOL    HW1  309   3.954   0.191   0.204
   58SOL    HW2  310   4.000   0.334   0.224
   59SOL     OW  311   1.867   0.820   2.125
   59SOL    HW1  312   1.930   0.759   2.163
   59SOL    HW2  313   1.799   0.763   2.088
   60SOL     OW  314   1.141   3.192   3.679
   60SOL    HW1  315   1.197   3.114   3.674
   60SOL    HW2  316   1.052   3.157   3.679
   61SOL     OW  317   3.565   2.090   1.167
   61SOL    HW1  318   3.532   2.129   1.248
   61SOL    HW2  319   3.502   2.021   1.146
   62SOL     OW  320   3.052   0.321   1.094
   62SOL    HW1  321   2.976   0.368   1.129
   62SOL    HW2  322   3.126   0.356   1.143
   63SOL     OW  323   2.539   0.417   2.473
   63SOL    HW1  324   2.576   0.342   2.426
   63SOL    HW2  325   2.578   0.412   2.560
   64SOL     OW  326   1.498   0.845   0.411
   64SOL    HW1  327   1.420   0.789   0.411
   64SOL    HW2  328   1.571   0.785   0.425
   65SOL     OW  329   2.675   0.596   3.720
   65SOL    HW1  330   2.690   0.503   3.739
   65SOL    HW2  331   2.600   0.619   3.775
   66SOL     OW  332   1.630   0.825   1.334
   66SOL    HW1  333   1.697   0.855   1.396
   66SOL    HW2  334   1.549   0.867   1.363
   67SOL     OW  335   1.303   1.123   3.375
   67SOL    HW1  336   1.239   1.070   3.327
   67SOL    HW2  337   1.304   1.085   3.463
   68SOL     OW  338   3.162   1.897   3.027
   68SOL    HW1  339   3.131   1.984   3.001
   68SOL    HW2  340   3.182   1.906   3.121
   69SOL     OW  341   0.138   2.484   3.075
   69SOL    HW1  342   0.044   2.473   3.093
   69SOL    HW2  343   0.181   2.423   3.134
   70SOL     OW  344   2.470   3.463   2.396
   70SOL    HW1  345   2.417   3.526   2.348
   70SOL    HW2  346   2.473   3.497   2.485
   71SOL     OW  347   1.422   1.525   0.285
   71SOL    HW1  348   1.477   1.550   0.211
   71SOL    HW2  349   1.333   1.551   0.260
   72SOL     OW  350   2.623   3.030   1.752
   72SOL    HW1  351   2.564   3.088   1.800
   72SOL    HW2  352   2.660   3.086   1.683
   73SOL     OW  353   0.112   0.331   1.487
   73SOL    HW1  354   0.199   0.356   1.456
   73SOL    HW2  355   0.077   0.409   1.530
   74SOL     OW  356   0.305   3.760   1.794
   74SOL    HW1  357   0.355   3.789   1.870
   74SOL    HW2  358   0.366   3.766   1.721
   75SOL     OW  359   3.950   1.953   2.645
   75SOL    HW1  360   3.945   1.889   2.715
   75SOL    HW2  361   3.930   1.904   2.565
   76SOL     OW  362   1.905   2.362   1.556
   76SOL    HW1  363   1.860   2.397   1.479
   76SOL    HW2  364   1.836   2.320   1.607
   77SOL     OW  365   3.858   1.458   1.801
   77SOL    HW1  366   3.798   1.515   1.848
   77SOL    HW2  367   3.854   1.488   1.710
   78SOL     OW  368   0.307   3.332   2.612
   78SOL    HW1  369   0.362   3.350   2.535
   78SOL    HW2  370   0.268   3.247   2.593
   79SOL     OW  371   0.035   3.320   3.844
   79SOL    HW1  372   0.071   3.393   3.895
   79SOL    HW2  373  -0.057   3.344   3.830
   80SOL     OW  374   0.456   2.382   1.602
   80SOL    HW1  375   0.508   2.354   1.677
   80SOL    HW2  376   0.459   2.308   1.541
   81SOL     OW  377   1.823   1.094   2.042
   81SOL    HW1  378   1.828   1.003   2.071
   81SOL    HW2  379   1.743   1.128   2.082
   82SOL     OW  380   1.027   2.448   2.494
   82SOL    HW1  381   1.097   2.415   2.551
   82SOL    HW2  382   0.992   2.370   2.451
   83SOL     OW  383   3.361   0.460   0.083
   83SOL    HW1  384   3.293   0.395   0.101
   83SOL    HW2  385   3.415   0.461   0.163
   84SOL     OW  386   1.583   0.981   2.594
   84SOL    HW1  387   1.566   0.921   2.523
   84SOL    HW2  388   1.635   0.931   2.657
   85SOL     OW  389   0.422   0.917   2.392
   85SOL    HW1  390   0.345   0.872   2.357
   85SOL    HW2  391   0.421   1.002   2.349
   86SOL     OW  392   3.745   2.893   2.127
   86SOL    HW1  393   3.761   2.987   2.136
   86SOL    HW2  394   3.651   2.884   2.144
   87SOL     OW  395   1.749   3.617   1.108
   87SOL    HW1  396   1.725   3.705   1.139
   87SOL    HW2  397   1.772   3.630   1.016
   88SOL     OW  398   2.349   1.336   0.968
   88SOL    HW1  399   2.386   1.265   1.021
   88SOL    HW2  400   2.424   1.392   0.948
   89SOL     OW  401   1.932   3.527   3.212
   89SOL    HW1  402   1.937   3.597   3.147
   89SOL    HW2  403   1.842   3.527   3.242
   90SOL     OW  404   2.255   2.899   2.491
   90SOL    HW1  405   2.246   2.804   2.487
   90SOL    HW2  406   2.165   2.932   2.494
   91SOL     OW  407   2.404   2.382   3.059
   91SOL    HW1  408   2.472   2.333   3.105
   91SOL    HW2  409   2.326   2.327   3.067
   92SOL     OW  410   3.186   1.740   2.119
   92SOL    HW1  411   3.116   1.675   2.125
   92SOL    HW2  412   3.143   1.823   2.135
   93SOL     OW  413   0.982   2.890   1.579
   93SOL    HW1  414   1.005   2.828   1.510
   93SOL    HW2  415   1.050   2.879   1.645
   94SOL     OW  416   3.375   3.833   2.952
   94SOL    HW1  417   3.308   3.869   3.009
   94SOL    HW2  418   3.449   3.815   3.011
   95SOL     OW  419   1.365   1.964   0.686
   95SOL    HW1  420   1.300   1.929   0.746
   95SOL    HW2  421   1.387   1.890   0.629
   96SOL     OW  422   2.353   3.099   0.375
   96SOL    HW1  423   2.412   3.167   0.341
   96SOL    HW2  424   2.391   3.073   0.458
   97SOL     OW  425   0.444   1.079   3.057
   97SOL    HW1  426   0.411   1.130   3.131
   97SOL    HW2  427   0.409   0.991   3.070
   98SOL     OW  428   3.584   3.445   0.782
   98SOL    HW1  429   3.513   3.381   0.775
   98SOL    HW2  430   3.662   3.398   0.753
   99SOL     OW  431   1.563   0.096   2.160
   99SOL    HW1  432   1.589   0.106   2.068
   99SOL    HW2  433   1.646   0.084   2.207
  100SOL     OW  434   0.749   1.615   2.587
  100SOL    HW1  435   0.703   1.656   2.513
  100SOL    HW2  436   0.796   1.541   2.547
  101SOL     OW  437   3.185   3.487   2.597
  101SOL    HW1  438   3.211   3.569   2.554
  101SOL    HW2  439   3.145   3.515   2.679
  102SOL     OW  440   2.918   1.021   0.279
  102SOL    HW1  441   2.980   0.975   0.223
  102SOL    HW2  442   2.889   1.095   0.227
  103SOL     OW  443   3.441   1.246   3.215
  103SOL    HW1  444   3.521   1.223   3.262
  103SOL    HW2  445   3.375   1.257   3.284
  104SOL     OW  446   1.643   3.311   3.724
  104SOL    HW1  447   1.559   3.348   3.751
  104SOL    HW2  448   1.670   3.363   3.649
  105SOL     OW  449   2.054   0.716   0.382
  105SOL    HW1  450   1.996   0.791   0.392
  105SOL    HW2  451   2.129   0.736   0.439
  106SOL     OW  452   3.811   0.029   0.493
  106SOL    HW1  453   3.724   0.028   0.453
  106SOL    HW2  454   3.799  -0.013   0.578
  107SOL     OW  455   0.665   2.387   2.368
  107SOL    HW1  456   0.615   2.322   2.417
  107SOL    HW2  457   0.735   2.414   2.428
  108SOL     OW  458   0.813   1.352   0.614
  108SOL    HW1  459   0.908   1.341   0.609
  108SOL    HW2  460   0.798   1.439   0.578
  109SOL     OW  461   2.451   2.346   2.232
  109SOL    HW1  462   2.356   2.359   2.243
  109SOL    HW2  463   2.487   2.435   2.237
  110SOL     OW  464   3.178   1.731   1.542
  110SOL    HW1  465   3.165   1.637   1.528
  110SOL    HW2  466   3.209   1.738   1.632
  111SOL     OW  467   0.135   3.097   2.006
  111SOL    HW1  468   0.107   3.144   2.084
  111SOL    HW2  469   0.203   3.037   2.037
  112SOL     OW  470   1.149   3.254   1.041
  112SOL    HW1  471   1.145   3.346   1.068
  112SOL    HW2  472   1.075   3.213   1.086
  113SOL     OW  473   0.371   0.231   1.107
  113SOL    HW1  474   0.335   0.295   1.046
  113SOL    HW2  475   0.303   0.163   1.114
  114SOL     OW  476   0.989   1.740   3.970
  114SOL    HW1  477   1.021   1.656   3.938
  114SOL    HW2  478   0.989   1.796   3.893
  115SOL     OW  479   3.412   3.954   1.589
  115SOL    HW1  480   3.438   3.871   1.629
  115SOL    HW2  481   3.388   3.931   1.499
  116SOL     OW  482   2.875   3.296   1.567
  116SOL    HW1  483   2.947   3.234   1.553
  116SOL    HW2  484   2.803   3.263   1.514
  117SOL     OW  485   1.823   1.248   2.338
  117SOL    HW1  486   1.877   1.172   2.316
  117SOL    HW2  487   1.883   1.307   2.384
  118SOL     OW  488   0.187   2.543   2.135
  118SOL    HW1  489   0.188   2.479   2.064
  118SOL    HW2  490   0.198   2.491   2.214
  119SOL     OW  491   3.914   2.133   0.616
  119SOL    HW1  492   3.862   2.078   0.674
  119SOL    HW2  493   3.990   2.080   0.593
  120SOL     OW  494   3.559   1.460   0.376
  120SOL    HW1  495   3.501   1.386   0.390
  120SOL    HW2  496   3.503   1.537   0.381
  121SOL     OW  497   2.049   1.735   1.199
  121SOL    HW1  498   2.095   1.706   1.121
  121SOL    HW2  499   1.981   1.669   1.212
  122SOL     OW  500   0.846   2.074   2.171
  122SOL    HW1  501   0.924   2.047   2.122
  122SOL    HW2  502   0.786   2.000   2.163
  123SOL     OW  503   1.542   2.603   1.096
  123SOL    HW1  504   1.484   2.677   1.114
  123SOL    HW2  505   1.504   2.530   1.145
  124SOL     OW  506   1.671   1.106   1.143
  124SOL    HW1  507   1.588   1.059   1.143
  124SOL    HW2  508   1.690   1.122   1.051
  125SOL     OW  509   2.170   2.879   3.760
  125SOL    HW1  510   2.102   2.831   3.713
  125SOL    HW2  511   2.122   2.931   3.825
  126SOL     OW  512   2.628   1.038   3.758
  126SOL    HW1  513   2.592   1.009   3.674
  126SOL    HW2  514   2.723   1.029   3.748
  127SOL     OW  515   2.031   3.043   2.541
  127SOL    HW1  516   2.074   3.114   2.493
  127SOL    HW2  517   1.979   3.088   2.608
  128SOL     OW  518   3.354   1.268   0.357
  128SOL    HW1  519   3.358   1.292   0.265
  128SOL    HW2  520   3.266   1.292   0.385
  129SOL     OW  521   1.002   2.748   0.613
  129SOL    HW1  522   0.923   2.763   0.560
  129SOL    HW2  523   1.013   2.828   0.664
  130SOL     OW  524   0.346   2.785   1.231
  130SOL    HW1  525   0.292   2.855   1.193
  130SOL    HW2  526   0.310   2.704   1.194
  131SOL     OW  527   2.203   0.519   1.647
  131SOL    HW1  528   2.197   0.488   1.738
  131SOL    HW2  529   2.209   0.439   1.595
  132SOL     OW  530   0.632   0.493   2.960
  132SOL    HW1  531   0.591   0.533   2.883
  132SOL    HW2  532   0.712   0.452   2.926
  133SOL     OW  533   2.719   0.847   0.592
  133SOL    HW1  534   2.746   0.811   0.508
  133SOL    HW2  535   2.647   0.907   0.570
  134SOL     OW  536   1.524   3.464   2.359
  134SOL    HW1  537   1.549   3.474   2.267
  134SOL    HW2  538   1.448   3.521   2.370
  135SOL     OW  539   0.172   2.368   2.797
  135SOL    HW1  540   0.167   2.276   2.824
  135SOL    HW2  541   0.209   2.413   2.872
  136SOL     OW  542   0.746   3.820   1.278
  136SOL    HW1  543   0.721   3.913   1.275
  136SOL    HW2  544   0.763   3.797   1.186
  137SOL     OW  545  -0.003   1.806   1.214
  137SOL    HW1  546  -0.005   1.784   1.121
  137SOL    HW2  547   0.080   1.853   1.226
  138SOL     OW  548  -0.001   0.288   1.218
  138SOL    HW1  549   0.041   0.352   1.161
  138SOL    HW2  550   0.022   0.316   1.307
  139SOL     OW  551   0.113   3.814   3.186
  139SOL    HW1  552   0.060   3.804   3.107
  139SOL    HW2  553   0.179   3.745   3.179
  140SOL     OW  554   2.962   1.192   2.198
  140SOL    HW1  555   2.886   1.221   2.148
  140SOL    HW2  556   2.991   1.270   2.246
  141SOL     OW  557   2.603   3.827   0.401
  141SOL    HW1  558   2.597   3.762   0.471
  141SOL    HW2  559   2.558   3.904   0.436
  142SOL     OW  560   3.160   2.947   1.113
  142SOL    HW1  561   3.087   2.925   1.172
  142SOL    HW2  562   3.232   2.970   1.171
  143SOL     OW  563   3.682   0.122   2.947
  143SOL    HW1  564   3.710   0.043   2.995
  143SOL    HW2  565   3.644   0.088   2.866
  144SOL     OW  566   0.660   1.157   2.084
  144SOL    HW1  567   0.729   1.141   2.148
  144SOL    HW2  568   0.706   1.180   2.004
  145SOL     OW  569   2.281   3.796   1.331
  145SOL    HW1  570   2.334   3.783   1.252
  145SOL    HW2  571   2.202   3.744   1.316
  146SOL     OW  572   1.971   2.304   0.831
  146SOL    HW1  573   1.890   2.355   0.831
  146SOL    HW2  574   2.034   2.360   0.877
  147SOL     OW  575   1.927   2.667   3.900
  147SOL    HW1  576   1.894   2.724   3.971
  147SOL    HW2  577   1.889   2.705   3.821
  148SOL     OW  578   2.235   2.973   0.160
  148SOL    HW1  579   2.149   3.003   0.130
  148SOL    HW2  580   2.263   3.039   0.223
  149SOL     OW  581   2.519   0.878   2.554
  149SOL    HW1  582   2.437   0.828   2.560
  149SOL    HW2  583   2.491   0.969   2.554
  150SOL     OW  584   2.668   0.402   1.293
  150SOL    HW1  585   2.633   0.365   1.213
  150SOL    HW2  586   2.748   0.447   1.266
  151SOL     OW  587   2.169   3.586   2.676
  151SOL    HW1  588   2.209   3.662   2.717
  151SOL    HW2  589   2.123   3.541   2.747
  152SOL     OW  590   2.369   3.547   1.942
  152SOL    HW1  591   2.280   3.540   1.975
  152SOL    HW2  592   2.422   3.566   2.020
  153SOL     OW  593   0.681   3.251   2.396
  153SOL    HW1  594   0.771   3.283   2.403
  153SOL    HW2  595   0.676   3.179   2.459
  154SOL     OW  596   2.608   3.169   1.498
  154SOL    HW1  597   2.561   3.212   1.426
  154SOL    HW2  598   2.561   3.087   1.511
  155SOL     OW  599   0.459   1.807   0.823
  155SOL    HW1  600   0.515   1.743   0.867
  155SOL    HW2  601   0.446   1.771   0.735
  156SOL     OW  602   2.508   1.974   3.825
  156SOL    HW1  603   2.498   1.879   3.834
  156SOL    HW2  604   2.602   1.987   3.817
  157SOL     OW  605   2.648   1.510   1.882
  157SOL    HW1  606   2.563   1.487   1.844
  157SOL    HW2  607   2.694   1.555   1.812
  158SOL     OW  608   3.014   1.539   2.104
  158SOL    HW1  609   3.028   1.490   2.023
  158SOL    HW2  610   2.939   1.496   2.145
  159SOL     OW  611   2.133   2.167   1.767
  159SOL    HW1  612   2.209   2.219   1.741
  159SOL    HW2  613   2.167   2.077   1.773
  160SOL     OW  614   1.005   0.933   0.968
  160SOL    HW1  615   0.956   0.898   0.893
  160SOL    HW2  616   0.983   1.026   0.970
  161SOL     OW  617   2.838   0.638   1.625
  161SOL    HW1  618   2.787   0.647   1.544
  161SOL    HW2  619   2.775   0.604   1.688
  162SOL     OW  620   3.913   3.683   1.246
  162SOL    HW1  621   3.971   3.725   1.309
  162SOL    HW2  622   3.962   3.682   1.164
  163SOL     OW  623   1.054   2.925   0.337
  163SOL    HW1  624   1.146   2.932   0.311
  163SOL    HW2  625   1.016   3.010   0.314
  164SOL     OW  626   1.625   2.244   0.481
  164SOL    HW1  627   1.581   2.175   0.433
  164SOL    HW2  628   1.710   2.208   0.504
  165SOL     OW  629   0.483   1.211   0.494
  165SOL    HW1  630   0.460   1.118   0.488
  165SOL    HW2  631   0.502   1.225   0.587
  166SOL     OW  632   1.049   1.575   1.560
  166SOL    HW1  633   1.070   1.667   1.572
  166SOL    HW2  634   0.970   1.575   1.506
  167SOL     OW  635   2.260   2.000   1.311
  167SOL    HW1  636   2.266   1.928   1.373
  167SOL    HW2  637   2.167   2.018   1.303
  168SOL     OW  638   2.057   1.672   0.550
  168SOL    HW1  639   2.129   1.689   0.610
  168SOL    HW2  640   2.034   1.580   0.564
  169SOL     OW  641   2.459   3.537   1.381
  169SOL    HW1  642   2.526   3.544   1.449
  169SOL    HW2  643   2.392   3.600   1.407
  170SOL     OW  644   1.175   1.576   1.196
  170SOL    HW1  645   1.118   1.500   1.205
  170SOL    HW2  646   1.256   1.551   1.242
  171SOL     OW  647  -0.002   2.208   0.027
  171SOL    HW1  648   0.093   2.198   0.017
  171SOL    HW2  649  -0.030   2.126   0.067
  172SOL     OW  650   0.841   3.111   2.975
  172SOL    HW1  651   0.910   3.100   2.909
  172SOL    HW2  652   0.875   3.068   3.053
  173SOL     OW  653   0.277   2.990   0.309
  173SOL    HW1  654   0.252   3.080   0.328
  173SOL    HW2  655   0.197   2.939   0.326
  174SOL     OW  656   3.123   2.449   3.015
  174SOL    HW1  657   3.090   2.524   3.064
  174SOL    HW2  658   3.082   2.456   2.929
  175SOL     OW  659   3.403   1.504   1.614
  175SOL    HW1  660   3.417   1.578   1.672
  175SOL    HW2  661   3.474   1.507   1.551
  176SOL     OW  662   0.719   2.619   3.524
  176SOL    HW1  663   0.781   2.592   3.591
  176SOL    HW2  664   0.764   2.603   3.441
  177SOL     OW  665   1.354   3.342   3.713
  177SOL    HW1  666   1.279   3.282   3.708
  177SOL    HW2  667   1.324   3.422   3.670
  178SOL     OW  668   0.211   3.292   0.332
  178SOL    HW1  669   0.139   3.240   0.297
  178SOL    HW2  670   0.173   3.379   0.348
  179SOL     OW  671   0.505   1.360   2.171
  179SOL    HW1  672   0.553   1.283   2.140
  179SOL    HW2  673   0.416   1.346   2.139
  180SOL     OW  674   2.220   1.904   1.682
  180SOL    HW1  675   2.162   1.842   1.726
  180SOL    HW2  676   2.207   1.886   1.589
  181SOL     OW  677   2.510  -0.015   3.192
  181SOL    HW1  678   2.459   0.039   3.132
  181SOL    HW2  679   2.588   0.036   3.212
  182SOL     OW  680   2.107   2.327   3.623
  182SOL    HW1  681   2.110   2.418   3.591
  182SOL    HW2  682   2.091   2.335   3.717
  183SOL     OW  683   0.763   0.453   1.631
  183SOL    HW1  684   0.779   0.435   1.724
  183SOL    HW2  685   0.824   0.395   1.585
  184SOL     OW  686   3.751   0.363   3.017
  184SOL    HW1  687   3.752   0.288   2.956
  184SOL    HW2  688   3.658   0.379   3.034
  185SOL     OW  689   2.523   1.290   3.735
  185SOL    HW1  690   2.562   1.208   3.766
  185SOL    HW2  691   2.442   1.298   3.784
  186SOL     OW  692   0.819   3.076   2.572
  186SOL    HW1  693   0.771   2.994   2.584
  186SOL    HW2  694   0.908   3.049   2.551
  187SOL     OW  695   1.740   1.956   0.952
  187SOL    HW1  696   1.760   1.946   1.046
  187SOL    HW2  697   1.826   1.957   0.910
  188SOL     OW  698   1.248   3.586   0.774
  188SOL    HW1  699   1.189   3.512   0.757
  188SOL    HW2  700   1.191   3.652   0.814
  189SOL     OW  701   2.792   0.027   1.124
  189SOL    HW1  702   2.871   0.004   1.173
  189SOL    HW2  703   2.819   0.098   1.066
  190SOL     OW  704   3.910   3.498   3.460
  190SOL    HW1  705   3.944   3.418   3.499
  190SOL    HW2  706   3.815   3.493   3.472
  191SOL     OW  707   0.451   2.716   3.852
  191SOL    HW1  708   0.463   2.637   3.800
  191SOL    HW2  709   0.519   2.776   3.820
  192SOL     OW  710   3.331   3.798   1.278
  192SOL    HW1  711   3.379   3.715   1.276
  192SOL    HW2  712   3.364   3.846   1.202
  193SOL     OW  713   1.088   2.454   1.051
  193SOL    HW1  714   1.071   2.479   0.960
  193SOL    HW2  715   1.070   2.360   1.054
  194SOL     OW  716   3.711   1.166   3.297
  194SOL    HW1  717   3.743   1.179   3.207
  194SOL    HW2  718   3.714   1.072   3.310
  195SOL     OW  719   3.404   0.512   1.709
  195SOL    HW1  720   3.382   0.601   1.681
  195SOL    HW2  721   3.459   0.477   1.639
  196SOL     OW  722   1.203   0.425   3.786
  196SOL    HW1  723   1.267   0.402   3.719
  196SOL    HW2  724   1.125   0.375   3.763
  197SOL     OW  725   1.990   2.660   1.304
  197SOL    HW1  726   2.023   2.738   1.258
  197SOL    HW2  727   1.932   2.618   1.241
  198SOL     OW  728   1.690   2.852   1.703
  198SOL    HW1  729   1.713   2.779   1.645
  198SOL    HW2  730   1.761   2.915   1.692
  199SOL     OW  731   3.568   0.591   3.817
  199SOL    HW1  732   3.521   0.609   3.899
  199SOL    HW2  733   3.504   0.545   3.763
  200SOL     OW  734   2.449   2.525   3.682
  200SOL    HW1  735   2.481   2.436   3.665
  200SOL    HW2  736   2.400   2.518   3.763
  201SOL     OW  737   1.298   3.897   0.113
  201SOL    HW1  738   1.353   3.951   0.171
  201SOL    HW2  739   1.317   3.807   0.139
  202SOL     OW  740   2.938   1.699   2.767
  202SOL    HW1  741   2.951   1.790   2.797
  202SOL    HW2  742   3.018   1.654   2.796
  203SOL     OW  743   2.403   0.849   3.708
  203SOL    HW1  744   2.423   0.878   3.620
  203SOL    HW2  745   2.475   0.882   3.762
  204SOL     OW  746   2.111   2.533   2.134
  204SOL    HW1  747   2.085   2.472   2.065
  204SOL    HW2  748   2.147   2.608   2.088
  205SOL     OW  749   2.068   1.726   1.853
  205SOL    HW1  750   2.049   1.788   1.924
  205SOL    HW2  751   1.991   1.669   1.850
  206SOL     OW  752   3.746   0.725   3.226
  206SOL    HW1  753   3.827   0.731   3.175
  206SOL    HW2  754   3.677   0.756   3.168
  207SOL     OW  755   0.085   3.470   1.806
  207SOL    HW1  756   0.179   3.460   1.791
  207SOL    HW2  757   0.051   3.380   1.806
  208SOL     OW  758   2.938   0.463   0.195
  208SOL    HW1  759   2.979   0.521   0.259
  208SOL    HW2  760   2.980   0.378   0.210
  209SOL     OW  761   3.170   1.152   1.821
  209SOL    HW1  762   3.086   1.196   1.835
  209SOL    HW2  763   3.149   1.078   1.764
  210SOL     OW  764   0.868   3.726   0.278
  210SOL    HW1  765   0.928   3.743   0.350
  210SOL    HW2  766   0.819   3.648   0.306
  211SOL     OW  767   1.319   3.879   3.800
  211SOL    HW1  768   1.297   3.900   3.891
  211SOL    HW2  769   1.235   3.870   3.757
  212SOL     OW  770   1.746   1.139   0.833
  212SOL    HW1  771   1.710   1.115   0.748
  212SOL    HW2  772   1.840   1.120   0.825
  213SOL     OW  773   2.531   1.069   3.122
  213SOL    HW1  774   2.466   1.114   3.068
  213SOL    HW2  775   2.580   1.015   3.060
  214SOL     OW  776   0.824   3.537   1.130
  214SOL    HW1  777   0.902   3.593   1.133
  214SOL    HW2  778   0.822   3.494   1.215
  215SOL     OW  779   0.390   1.991   2.673
  215SOL    HW1  780   0.461   1.987   2.736
  215SOL    HW2  781   0.314   2.018   2.724
  216SOL     OW  782   2.034   2.943   1.762
  216SOL    HW1  783   2.033   2.917   1.670
  216SOL    HW2  784   1.971   3.015   1.768
  217SOL     OW  785   2.383   1.193   3.317
  217SOL    HW1  786   2.428   1.278   3.323
  217SOL    HW2  787   2.417   1.154   3.237
  218SOL     OW  788   3.247   1.657   2.968
  218SOL    HW1  789   3.189   1.727   2.999
  218SOL    HW2  790   3.228   1.583   3.027
  219SOL     OW  791   1.817   1.810   2.781
  219SOL    HW1  792   1.782   1.774   2.863
  219SOL    HW2  793   1.898   1.762   2.766
  220SOL     OW  794   1.061   2.817   2.673
  220SOL    HW1  795   1.040   2.870   2.750
  220SOL    HW2  796   0.984   2.762   2.660
  221SOL     OW  797   1.883   2.783   0.719
  221SOL    HW1  798   1.795   2.796   0.754
  221SOL    HW2  799   1.880   2.821   0.632
  222SOL     OW  800   1.631   0.647   3.861
  222SOL    HW1  801   1.607   0.738   3.844
  222SOL    HW2  802   1.707   0.631   3.806
  223SOL     OW  803   3.648   3.791   3.685
  223SOL    HW1  804   3.637   3.870   3.633
  223SOL    HW2  805   3.569   3.787   3.740
  224SOL     OW  806   2.727   1.215   0.200
  224SOL    HW1  807   2.639   1.210   0.164
  224SOL    HW2  808   2.759   1.302   0.176
  225SOL     OW  809   1.399   3.624   3.960
  225SOL    HW1  810   1.492   3.643   3.963
  225SOL    HW2  811   1.367   3.668   3.881
  226SOL     OW  812   0.785   2.793   2.485
  226SOL    HW1  813   0.732   2.827   2.413
  226SOL    HW2  814   0.724   2.742   2.538
  227SOL     OW  815   0.663   3.899   0.704
  227SOL    HW1  816   0.616   3.963   0.758
  227SOL    HW2  817   0.641   3.924   0.614
  228SOL     OW  818   0.421   0.477   0.811
  228SOL    HW1  819   0.421   0.523   0.727
  228SOL    HW2  820   0.441   0.386   0.789
  229SOL     OW  821   1.552   0.836   3.496
  229SOL    HW1  822   1.496   0.759   3.501
  229SOL    HW2  823   1.640   0.804   3.515
  230SOL     OW  824   3.630   3.289   1.147
  230SOL    HW1  825   3.582   3.282   1.229
  230SOL    HW2  826   3.597   3.217   1.093
  231SOL     OW  827   2.414   2.186   1.491
  231SOL    HW1  828   2.485   2.149   1.543
  231SOL    HW2  829   2.379   2.112   1.442
  232SOL     OW  830   3.017   1.397   2.391
  232SOL    HW1  831   3.065   1.349   2.458
  232SOL    HW2  832   2.958   1.454   2.441
  233SOL     OW  833   0.847   1.625   3.084
  233SOL    HW1  834   0.858   1.642   2.990
  233SOL    HW2  835   0.761   1.584   3.091
  234SOL     OW  836   2.869   0.789   2.303
  234SOL    HW1  837   2.831   0.855   2.361
  234SOL    HW2  838   2.954   0.824   2.279
  235SOL     OW  839   0.140   3.400   3.232
  235SOL    HW1  840   0.231   3.389   3.259
  235SOL    HW2  841   0.090   3.403   3.314
  236SOL     OW  842   0.766   3.893   1.015
  236SOL    HW1  843   0.706   3.967   1.021
  236SOL    HW2  844   0.713   3.821   0.981
  237SOL     OW  845   3.708   0.483   2.278
  237SOL    HW1  846   3.712   0.388   2.268
  237SOL    HW2  847   3.720   0.517   2.190
  238SOL     OW  848   2.262   0.480   2.186
  238SOL    HW1  849   2.341   0.529   2.209
  238SOL    HW2  850   2.286   0.388   2.197
  239SOL     OW  851   3.758   2.536   2.315
  239SOL    HW1  852   3.799   2.610   2.270
  239SOL    HW2  853   3.697   2.575   2.376
  240SOL     OW  854   0.270   3.032   2.571
  240SOL    HW1  855   0.236   3.001   2.487
  240SOL    HW2  856   0.193   3.038   2.627
  241SOL     OW  857   0.927   1.710   3.480
  241SOL    HW1  858   0.876   1.653   3.538
  241SOL    HW2  859   0.977   1.650   3.425
  242SOL     OW  860   0.260   1.601   1.467
  242SOL    HW1  861   0.175   1.640   1.449
  242SOL    HW2  862   0.247   1.549   1.546
  243SOL     OW  863   2.351   1.726   1.949
  243SOL    HW1  864   2.382   1.796   2.006
  243SOL    HW2  865   2.259   1.746   1.934
  244SOL     OW  866   0.401   3.754   2.471
  244SOL    HW1  867   0.434   3.674   2.431
  244SOL    HW2  868   0.308   3.738   2.485
  245SOL     OW  869   0.677   1.015   3.181
  245SOL    HW1  870   0.697   1.089   3.123
  245SOL    HW2  871   0.592   0.983   3.150
  246SOL     OW  872   0.579   3.626   1.412
  246SOL    HW1  873   0.617   3.540   1.428
  246SOL    HW2  874   0.636   3.665   1.345
  247SOL     OW  875   2.773   2.015   3.264
  247SOL    HW1  876   2.809   2.093   3.306
  247SOL    HW2  877   2.804   1.942   3.317
  248SOL     OW  878   0.288   3.155   0.569
  248SOL    HW1  879   0.374   3.179   0.534
  248SOL    HW2  880   0.230   3.226   0.540
  249SOL     OW  881   2.664   0.336   2.697
  249SOL    HW1  882   2.636   0.253   2.660
  249SOL    HW2  883   2.675   0.318   2.791
  250SOL     OW  884   0.547   1.494   2.727
  250SOL    HW1  885   0.458   1.504   2.694
  250SOL    HW2  886   0.591   1.576   2.704
  251SOL     OW  887   0.017   2.706   2.255
  251SOL    HW1  888   0.032   2.662   2.338
  251SOL    HW2  889   0.074   2.661   2.193
  252SOL     OW  890   0.352   1.335   0.299
  252SOL    HW1  891   0.317   1.265   0.243
  252SOL    HW2  892   0.422   1.292   0.349
  253SOL     OW  893   3.134   0.262   3.950
  253SOL    HW1  894   3.081   0.184   3.968
  253SOL    HW2  895   3.084   0.310   3.884
  254SOL     OW  896   3.771   3.640   0.238
  254SOL    HW1  897   3.818   3.714   0.279
  254SOL    HW2  898   3.813   3.629   0.153
  255SOL     OW  899   0.559   1.619   3.854
  255SOL    HW1  900   0.614   1.697   3.862
  255SOL    HW2  901   0.489   1.632   3.918
  256SOL     OW  902   2.686   3.048   0.308
  256SOL    HW1  903   2.722   3.135   0.290
  256SOL    HW2  904   2.623   3.033   0.238
  257SOL     OW  905   1.358   1.577   2.910
  257SOL    HW1  906   1.450   1.571   2.881
  257SOL    HW2  907   1.362   1.626   2.992
  258SOL     OW  908   1.115   0.600   0.121
  258SOL    HW1  909   1.043   0.553   0.078
  258SOL    HW2  910   1.192   0.581   0.067
  259SOL     OW  911   3.836   1.297   3.909
  259SOL    HW1  912   3.865   1.313   3.819
  259SOL    HW2  913   3.763   1.357   3.921
  260SOL     OW  914   2.902   1.062   2.456
  260SOL    HW1  915   2.985   1.078   2.501
  260SOL    HW2  916   2.907   1.115   2.376
  261SOL     OW  917   1.713   1.224   1.822
  261SOL    HW1  918   1.774   1.182   1.882
  261SOL    HW2  919   1.768   1.281   1.768
  262SOL     OW  920   0.273   1.602   3.133
  262SOL    HW1  921   0.236   1.574   3.050
  262SOL    HW2  922   0.238   1.540   3.197
  263SOL     OW  923   0.569   0.452   1.967
  263SOL    HW1  924   0.595   0.540   1.944
  263SOL    HW2  925   0.541   0.458   2.059
  264SOL     OW  926   2.547   0.208   0.239
  264SOL    HW1  927   2.594   0.245   0.314
  264SOL    HW2  928   2.463   0.253   0.238
  265SOL     OW  929   2.677   2.504   0.500
  265SOL    HW1  930   2.740   2.573   0.522
  265SOL    HW2  931   2.645   2.528   0.413
  266SOL     OW  932   1.811   3.123   1.697
  266SOL    HW1  933   1.778   3.200   1.744
  266SOL    HW2  934   1.867   3.160   1.628
  267SOL     OW  935   2.112   3.144   0.516
  267SOL    HW1  936   2.188   3.132   0.459
  267SOL    HW2  937   2.068   3.059   0.516
  268SOL     OW  938   3.107   0.654   1.068
  268SOL    HW1  939   3.177   0.661   1.133
  268SOL    HW2  940   3.093   0.744   1.038
  269SOL     OW  941   1.151   0.585   1.752
  269SOL    HW1  942   1.244   0.608   1.757
  269SOL    HW2  943   1.127   0.599   1.661
  270SOL     OW  944   0.542   0.603   3.176
  270SOL    HW1  945   0.619   0.602   3.232
  270SOL    HW2  946   0.573   0.571   3.092
  271SOL     OW  947   1.756   3.103   1.253
  271SOL    HW1  948   1.759   3.197   1.269
  271SOL    HW2  949   1.683   3.072   1.307
  272SOL     OW  950   2.976   3.586   1.763
  272SOL    HW1  951   3.061   3.629   1.772
  272SOL    HW2  952   2.997   3.497   1.733
  273SOL     OW  953   2.938   1.908   0.101
  273SOL    HW1  954   2.869   1.865   0.152
  273SOL    HW2  955   2.990   1.835   0.066
  274SOL     OW  956   1.217   0.428   2.052
  274SOL    HW1  957   1.157   0.356   2.070
  274SOL    HW2  958   1.296   0.387   2.018
  275SOL     OW  959   0.010   3.641   0.898
  275SOL    HW1  960   0.032   3.548   0.903
  275SOL    HW2  961   0.043   3.668   0.812
  276SOL     OW  962   0.485   3.640   0.012
  276SOL    HW1  963   0.575   3.671   0.005
  276SOL    HW2  964   0.476   3.611   0.103
  277SOL     OW  965   2.841   3.014   1.304
  277SOL    HW1  966   2.781   2.976   1.367
  277SOL    HW2  967   2.878   2.939   1.257
  278SOL     OW  968   2.962   0.529   0.577
  278SOL    HW1  969   2.980   0.562   0.665
  278SOL    HW2  970   2.866   0.523   0.573
  279SOL     OW  971   1.814   1.588   1.857
  279SOL    HW1  972   1.790   1.610   1.767
  279SOL    HW2  973   1.791   1.666   1.908
  280SOL     OW  974   0.551   0.066   2.728
  280SOL    HW1  975   0.456   0.071   2.741
  280SOL    HW2  976   0.566  -0.020   2.689
  281SOL     OW  977   2.788   3.514   2.217
  281SOL    HW1  978   2.728   3.501   2.144
  281SOL    HW2  979   2.768   3.443   2.278
  282SOL     OW  980   3.494   0.679   2.018
  282SOL    HW1  981   3.565   0.740   2.001
  282SOL    HW2  982   3.454   0.664   1.931
  283SOL     OW  983   2.425   2.991   3.796
  283SOL    HW1  984   2.333   2.967   3.787
  283SOL    HW2  985   2.471   2.928   3.741
  284SOL     OW  986   1.032   1.208   1.042
  284SOL    HW1  987   0.951   1.255   1.063
  284SOL    HW2  988   1.057   1.166   1.124
  285SOL     OW  989   0.654   0.080   2.412
  285SOL    HW1  990   0.581   0.067   2.351
  285SOL    HW2  991   0.613   0.084   2.499
  286SOL     OW  992   0.292   1.438   1.704
  286SOL    HW1  993   0.319   1.379   1.634
  286SOL    HW2  994   0.370   1.450   1.758
  287SOL     OW  995   1.875   0.543   3.683
  287SOL    HW1  996   1.863   0.453   3.714
  287SOL    HW2  997   1.970   0.555   3.682
  288SOL     OW  998   2.329   2.611   2.492
  288SOL    HW1  999   2.262   2.542   2.491
  288SOL    HW2 1000   2.374   2.602   2.409
  289SOL     OW 1001   0.300   3.051   2.248
  289SOL    HW1 1002   0.297   3.146   2.259
  289SOL    HW2 1003   0.215   3.021   2.280
  290SOL     OW 1004   3.519   2.399   1.155
  290SOL    HW1 1005   3.581   2.451   1.206
  290SOL    HW2 1006   3.500   2.323   1.210
  291SOL     OW 1007   0.589   0.577   2.695
  291SOL    HW1 1008   0.529   0.636   2.649
  291SOL    HW2 1009   0.553   0.490   2.680
  292SOL     OW 1010   0.117   3.377   0.946
  292SOL    HW1 1011   0.047   3.318   0.973
  292SOL    HW2 1012   0.170   3.388   1.025
  293SOL     OW 1013   2.885   0.181   0.890
  293SOL    HW1 1014   2.945   0.238   0.939
  293SOL    HW2 1015   2.880   0.221   0.803
  294SOL     OW 1016   1.526   2.063   0.296
  294SOL    HW1 1017   1.433   2.063   0.273
  294SOL    HW2 1018   1.570   2.064   0.211
  295SOL     OW 1019   3.541   1.314   2.040
  295SOL    HW1 1020   3.601   1.387   2.058
  295SOL    HW2 1021   3.459   1.340   2.082
  296SOL     OW 1022   2.739   3.578   3.686
  296SOL    HW1 1023   2.796   3.518   3.735
  296SOL    HW2 1024   2.716   3.530   3.607
  297SOL     OW 1025   1.489   1.773   1.711
  297SOL    HW1 1026   1.456   1.761   1.800
  297SOL    HW2 1027   1.433   1.716   1.657
  298SOL     OW 1028   2.201   3.387   3.134
  298SOL    HW1 1029   2.163   3.301   3.150
  298SOL    HW2 1030   2.146   3.447   3.184
  299SOL     OW 1031   1.028   0.838   2.447
  299SOL    HW1 1032   1.050   0.788   2.525
  299SOL    HW2 1033   0.940   0.809   2.424
  300SOL     OW 1034   2.730   3.949   0.184
  300SOL    HW1 1035   2.728   3.917   0.274
  300SOL    HW2 1036   2.640   3.978   0.167
  301SOL     OW 1037   1.831   1.407   0.081
  301SOL    HW1 1038   1.791   1.478   0.132
  301SOL    HW2 1039   1.914   1.444   0.051
  302SOL     OW 1040   2.807   2.497   1.238
  302SOL    HW1 1041   2.829   2.451   1.158
  302SOL    HW2 1042   2.869   2.464   1.303
  303SOL     OW 1043   2.963   1.454   1.216
  303SOL    HW1 1044   2.913   1.487   1.291
  303SOL    HW2 1045   3.049   1.435   1.251
  304SOL     OW 1046   3.570   3.030   1.785
  304SOL    HW1 1047   3.647   3.057   1.835
  304SOL    HW2 1048   3.518   3.110   1.776
  305SOL     OW 1049   1.588   1.668   0.920
  305SOL    HW1 1050   1.571   1.754   0.959
  305SOL    HW2 1051   1.681   1.652   0.937
  306SOL     OW 1052   1.834   3.791   0.420
  306SOL    HW1 1053   1.773   3.864   0.411
  306SOL    HW2 1054   1.787   3.716   0.384
  307SOL     OW 1055   3.036   1.368   3.339
  307SOL    HW1 1056   3.068   1.394   3.425
  307SOL    HW2 1057   3.026   1.273   3.345
  308SOL     OW 1058   3.692   0.853   0.845
  308SOL    HW1 1059   3.711   0.924   0.784
  308SOL    HW2 1060   3.597   0.838   0.835
  309SOL     OW 1061   3.780   2.111   2.200
  309SOL    HW1 1062   3.853   2.146   2.251
  309SOL    HW2 1063   3.741   2.188   2.159
  310SOL     OW 1064   2.103   0.439   1.161
  310SOL    HW1 1065   2.108   0.355   1.115
  310SOL    HW2 1066   2.109   0.415   1.254
  311SOL     OW 1067   2.947   1.989   2.742
  311SOL    HW1 1068   2.937   2.020   2.832
  311SOL    HW2 1069   2.956   2.068   2.689
  312SOL     OW 1070   2.424   1.532   2.367
  312SOL    HW1 1071   2.426   1.512   2.274
  312SOL    HW2 1072   2.446   1.626   2.371
  313SOL     OW 1073   0.946   2.480   1.559
  313SOL    HW1 1074   0.962   2.545   1.490
  313SOL    HW2 1075   0.994   2.513   1.634
  314SOL     OW 1076   0.460   3.306   3.625
  314SOL    HW1 1077   0.451   3.258   3.543
  314SOL    HW2 1078   0.386   3.366   3.626
  315SOL     OW 1079   1.766   3.386   1.249
  315SOL    HW1 1080   1.748   3.478   1.228
  315SOL    HW2 1081   1.837   3.362   1.189
  316SOL     OW 1082   1.044   1.811   0.789
  316SOL    HW1 1083   1.034   1.831   0.696
  316SOL    HW2 1084   0.970   1.854   0.831
  317SOL     OW 1085   1.982   0.983   0.823
  317SOL    HW1 1086   2.066   0.981   0.778
  317SOL    HW2 1087   1.973   0.896   0.861
  318SOL     OW 1088   2.711   1.163   0.778
  318SOL    HW1 1089   2.668   1.196   0.699
  318SOL    HW2 1090   2.754   1.240   0.816
  319SOL     OW 1091   0.575   3.642   0.900
  319SOL    HW1 1092   0.613   3.645   0.812
  319SOL    HW2 1093   0.589   3.551   0.928
  320SOL     OW 1094   3.780   0.809   2.621
  320SOL    HW1 1095   3.768   0.716   2.641
  320SOL    HW2 1096   3.695   0.849   2.638
  321SOL     OW 1097   3.134   1.463   3.807
  321SOL    HW1 1098   3.047   1.484   3.840
  321SOL    HW2 1099   3.119   1.417   3.725
  322SOL     OW 1100   2.271   1.348   3.877
  322SOL    HW1 1101   2.214   1.399   3.820
  322SOL    HW2 1102   2.212   1.287   3.922
  323SOL     OW 1103   0.899   0.850   3.955
  323SOL    HW1 1104   0.827   0.867   3.894
  323SOL    HW2 1105   0.929   0.936   3.983
  324SOL     OW 1106   0.938   0.560   2.293
  324SOL    HW1 1107   1.022   0.516   2.311
  324SOL    HW2 1108   0.954   0.610   2.213
  325SOL     OW 1109   1.950   1.080   0.517
  325SOL    HW1 1110   2.038   1.087   0.554
  325SOL    HW2 1111   1.901   1.032   0.583
  326SOL     OW 1112   1.158   1.750   0.474
  326SOL    HW1 1113   1.065   1.771   0.483
  326SOL    HW2 1114   1.173   1.750   0.379
  327SOL     OW 1115   2.544   2.836   0.585
  327SOL    HW1 1116   2.491   2.790   0.649
  327SOL    HW2 1117   2.519   2.928   0.594
  328SOL     OW 1118   3.180   0.432   1.855
  328SOL    HW1 1119   3.250   0.496   1.842
  328SOL    HW2 1120   3.163   0.397   1.768
  329SOL     OW 1121   1.695   0.427   2.879
  329SOL    HW1 1122   1.628   0.464   2.822
  329SOL    HW2 1123   1.700   0.488   2.953
  330SOL     OW 1124   1.404   3.771   3.213
  330SOL    HW1 1125   1.476   3.780   3.276
  330SOL    HW2 1126   1.426   3.693   3.163
  331SOL     OW 1127   3.260   0.130   2.017
  331SOL    HW1 1128   3.329   0.073   1.984
  331SOL    HW2 1129   3.255   0.201   1.953
  332SOL     OW 1130   0.169   0.152   2.116
  332SOL    HW1 1131   0.202   0.216   2.053
  332SOL    HW2 1132   0.093   0.113   2.074
  333SOL     OW 1133   2.246   0.600   3.071
  333SOL    HW1 1134   2.195   0.562   3.143
  333SOL    HW2 1135   2.251   0.693   3.092
  334SOL     OW 1136   2.537   1.086   1.343
  334SOL    HW1 1137   2.473   1.014   1.336
  334SOL    HW2 1138   2.581   1.070   1.427
  335SOL     OW 1139   2.355   1.388   1.451
  335SOL    HW1 1140   2.261   1.388   1.432
  335SOL    HW2 1141   2.388   1.308   1.411
  336SOL     OW 1142   1.734   1.521   3.243
  336SOL    HW1 1143   1.679   1.513   3.321
  336SOL    HW2 1144   1.810   1.466   3.262
  337SOL     OW 1145   1.465   3.377   1.239
  337SOL    HW1 1146   1.444   3.427   1.160
  337SOL    HW2 1147   1.560   3.377   1.244
  338SOL     OW 1148   3.949   1.486   1.228
  338SOL    HW1 1149   3.960   1.526   1.142
  338SOL    HW2 1150   3.858   1.505   1.252
  339SOL     OW 1151   2.621   2.098   1.684
  339SOL    HW1 1152   2.648   2.127   1.772
  339SOL    HW2 1153   2.575   2.016   1.699
  340SOL     OW 1154   2.878   1.810   3.463
  340SOL    HW1 1155   2.807   1.795   3.525
  340SOL    HW2 1156   2.958   1.806   3.516
  341SOL     OW 1157   1.057   1.482   3.387
  341SOL    HW1 1158   1.012   1.397   3.388
  341SOL    HW2 1159   1.122   1.473   3.317
  342SOL     OW 1160   1.448   1.679   0.590
  342SOL    HW1 1161   1.492   1.637   0.515
  342SOL    HW2 1162   1.361   1.701   0.558
  343SOL     OW 1163   3.744   0.462   0.009
  343SOL    HW1 1164   3.710   0.524  -0.055
  343SOL    HW2 1165   3.801   0.514   0.065
  344SOL     OW 1166   1.885   2.580   1.056
  344SOL    HW1 1167   1.962   2.532   1.025
  344SOL    HW2 1168   1.855   2.630   0.980
  345SOL     OW 1169   1.500   3.413   3.437
  345SOL    HW1 1170   1.477   3.321   3.447
  345SOL    HW2 1171   1.453   3.458   3.506
  346SOL     OW 1172   0.979   2.161   3.748
  346SOL    HW1 1173   0.931   2.193   3.672
  346SOL    HW2 1174   0.913   2.116   3.801
  347SOL     OW 1175   0.058   3.267   2.247
  347SOL    HW1 1176   0.049   3.360   2.228
  347SOL    HW2 1177  -0.011   3.249   2.311
  348SOL     OW 1178   3.601   0.112   3.703
  348SOL    HW1 1179   3.643   0.140   3.784
  348SOL    HW2 1180   3.508   0.128   3.717
  349SOL     OW 1181   2.931   0.572   3.022
  349SOL    HW1 1182   2.977   0.614   3.095
  349SOL    HW2 1183   2.914   0.643   2.960
  350SOL     OW 1184   3.495   3.863   1.055
  350SOL    HW1 1185   3.572   3.820   1.094
  350SOL    HW2 1186   3.522   3.886   0.967
  351SOL     OW 1187  -0.028   0.128   0.791
  351SOL    HW1 1188   0.061   0.156   0.769
  351SOL    HW2 1189  -0.024   0.033   0.793
  352SOL     OW 1190   3.291   0.072   0.940
  352SOL    HW1 1191   3.204   0.032   0.938
  352SOL    HW2 1192   3.320   0.071   0.849
  353SOL     OW 1193   0.812   2.325   3.548
  353SOL    HW1 1194   0.732   2.286   3.584
  353SOL    HW2 1195   0.794   2.335   3.454
  354SOL     OW 1196   3.086   1.046   1.546
  354SOL    HW1 1197   2.995   1.038   1.573
  354SOL    HW2 1198   3.083   1.051   1.451
  355SOL     OW 1199   1.845   0.909   3.211
  355SOL    HW1 1200   1.774   0.969   3.233
  355SOL    HW2 1201   1.879   0.881   3.296
  356SOL     OW 1202   0.762   2.324   2.824
  356SOL    HW1 1203   0.812   2.248   2.796
  356SOL    HW2 1204   0.678   2.287   2.853
  357SOL     OW 1205   2.304   2.972   1.524
  357SOL    HW1 1206   2.320   3.018   1.442
  357SOL    HW2 1207   2.209   2.963   1.529
  358SOL     OW 1208   3.823   1.126   0.985
  358SOL    HW1 1209   3.751   1.106   0.925
  358SOL    HW2 1210   3.780   1.168   1.060
  359SOL     OW 1211   3.953   0.840   1.988
  359SOL    HW1 1212   3.890   0.878   2.050
  359SOL    HW2 1213   4.002   0.916   1.955
  360SOL     OW 1214   0.854   0.663   0.236
  360SOL    HW1 1215   0.795   0.729   0.199
  360SOL    HW2 1216   0.937   0.676   0.189
  361SOL     OW 1217   2.508   2.769   2.829
  361SOL    HW1 1218   2.453   2.834   2.874
  361SOL    HW2 1219   2.568   2.737   2.896
  362SOL     OW 1220   2.444   3.561   2.698
  362SOL    HW1 1221   2.446   3.503   2.774
  362SOL    HW2 1222   2.351   3.576   2.681
  363SOL     OW 1223   1.666   1.343   1.326
  363SOL    HW1 1224   1.660   1.251   1.299
  363SOL    HW2 1225   1.616   1.347   1.408
  364SOL     OW 1226   0.836   1.591   1.385
  364SOL    HW1 1227   0.761   1.536   1.365
  364SOL    HW2 1228   0.864   1.626   1.300
  365SOL     OW 1229   0.289   0.038   0.708
  365SOL    HW1 1230   0.371   0.024   0.754
  365SOL    HW2 1231   0.313   0.076   0.624
  366SOL     OW 1232   1.956   0.928   2.588
  366SOL    HW1 1233   1.905   0.868   2.641
  366SOL    HW2 1234   1.895   0.959   2.521
  367SOL     OW 1235   0.651   1.681   0.961
  367SOL    HW1 1236   0.707   1.604   0.950
  367SOL    HW2 1237   0.664   1.707   1.052
  368SOL     OW 1238   3.080   3.612   3.201
  368SOL    HW1 1239   3.009   3.634   3.261
  368SOL    HW2 1240   3.063   3.520   3.178
  369SOL     OW 1241   2.093   3.244   1.259
  369SOL    HW1 1242   2.175   3.287   1.234
  369SOL    HW2 1243   2.096   3.159   1.215
  370SOL     OW 1244   2.519   0.581   2.077
  370SOL    HW1 1245   2.478   0.600   2.161
  370SOL    HW2 1246   2.613   0.593   2.093
  371SOL     OW 1247   3.285   0.932   2.921
  371SOL    HW1 1248   3.198   0.972   2.921
  371SOL    HW2 1249   3.305   0.917   2.829
  372SOL     OW 1250   1.487   2.476   0.495
  372SOL    HW1 1251   1.470   2.460   0.402
  372SOL    HW2 1252   1.550   2.408   0.521
  373SOL     OW 1253   1.377   2.348   0.267
  373SOL    HW1 1254   1.290   2.323   0.300
  373SOL    HW2 1255   1.433   2.273   0.289
  374SOL     OW 1256   2.494   3.692   3.370
  374SOL    HW1 1257   2.527   3.782   3.372
  374SOL    HW2 1258   2.535   3.654   3.292
  375SOL     OW 1259   0.062   1.233   0.499
  375SOL    HW1 1260   0.080   1.283   0.579
  375SOL    HW2 1261   0.128   1.164   0.498
  376SOL     OW 1262   0.401   3.448   0.561
  376SOL    HW1 1263   0.447   3.531   0.572
  376SOL    HW2 1264   0.308   3.471   0.564
  377SOL     OW 1265   3.818   0.659   3.764
  377SOL    HW1 1266   3.834   0.718   3.838
  377SOL    HW2 1267   3.725   0.639   3.769
  378SOL     OW 1268   1.432   3.517   0.958
  378SOL    HW1 1269   1.347   3.510   0.914
  378SOL    HW2 1270   1.428   3.601   1.004
  379SOL     OW 1271   3.923   0.796   2.357
  379SOL    HW1 1272   3.872   0.792   2.438
  379SOL    HW2 1273   3.999   0.741   2.374
  380SOL     OW 1274   0.982   2.004   3.028
  380SOL    HW1 1275   0.976   1.934   3.093
  380SOL    HW2 1276   0.896   2.046   3.029
  381SOL     OW 1277   2.135   0.772   3.600
  381SOL    HW1 1278   2.204   0.839   3.595
  381SOL    HW2 1279   2.183   0.690   3.611
  382SOL     OW 1280   2.962   3.082   2.143
  382SOL    HW1 1281   2.989   3.038   2.224
  382SOL    HW2 1282   3.032   3.063   2.081
  383SOL     OW 1283   0.900   3.963   1.500
  383SOL    HW1 1284   0.930   3.898   1.564
  383SOL    HW2 1285   0.889   3.913   1.419
  384SOL     OW 1286   3.115   0.177   2.384
  384SOL    HW1 1287   3.042   0.238   2.372
  384SOL    HW2 1288   3.162   0.210   2.461
  385SOL     OW 1289   3.837   3.036   3.672
  385SOL    HW1 1290   3.770   3.033   3.603
  385SOL    HW2 1291   3.847   3.129   3.691
  386SOL     OW 1292   1.555   2.332   2.406
  386SOL    HW1 1293   1.625   2.371   2.457
  386SOL    HW2 1294   1.571   2.238   2.411
  387SOL     OW 1295   3.334   2.238   2.255
  387SOL    HW1 1296   3.389   2.205   2.327
  387SOL    HW2 1297   3.329   2.332   2.270
  388SOL     OW 1298   3.210   0.680   1.322
  388SOL    HW1 1299   3.276   0.732   1.369
  388SOL    HW2 1300   3.144   0.660   1.388
  389SOL     OW 1301   3.397   3.156   2.486
  389SOL    HW1 1302   3.369   3.108   2.408
  389SOL    HW2 1303   3.402   3.247   2.458
  390SOL     OW 1304   0.658   2.262   2.111
  390SOL    HW1 1305   0.732   2.205   2.133
  390SOL    HW2 1306   0.646   2.316   2.189
  391SOL     OW 1307   3.748   3.410   3.198
  391SOL    HW1 1308   3.791   3.429   3.281
  391SOL    HW2 1309   3.666   3.460   3.201
  392SOL     OW 1310   1.364   3.083   3.303
  392SOL    HW1 1311   1.370   3.079   3.399
  392SOL    HW2 1312   1.412   3.006   3.273
  393SOL     OW 1313   3.034   3.367   0.573
  393SOL    HW1 1314   3.127   3.348   0.572
  393SOL    HW2 1315   3.029   3.462   0.558
  394SOL     OW 1316   3.351   1.704   3.479
  394SOL    HW1 1317   3.428   1.741   3.437
  394SOL    HW2 1318   3.282   1.710   3.414
  395SOL     OW 1319   0.994   0.088   1.783
  395SOL    HW1 1320   0.938   0.166   1.792
  395SOL    HW2 1321   0.971   0.034   1.858
  396SOL     OW 1322   3.737   1.235   3.027
  396SOL    HW1 1323   3.682   1.183   2.969
  396SOL    HW2 1324   3.826   1.223   2.995
  397SOL     OW 1325   3.131   3.013   1.949
  397SOL    HW1 1326   3.064   3.001   1.881
  397SOL    HW2 1327   3.208   3.045   1.901
  398SOL     OW 1328   0.368   2.058   0.767
  398SOL    HW1 1329   0.300   2.034   0.705
  398SOL    HW2 1330   0.410   1.975   0.792
  399SOL     OW 1331  -0.005   0.602   0.151
  399SOL    HW1 1332   0.071   0.547   0.171
  399SOL    HW2 1333   0.031   0.676   0.104
  400SOL     OW 1334   2.465   1.740   3.543
  400SOL    HW1 1335   2.386   1.701   3.581
  400SOL    HW2 1336   2.531   1.734   3.612
  401SOL     OW 1337   3.012   0.182   1.466
  401SOL    HW1 1338   3.075   0.169   1.395
  401SOL    HW2 1339   3.066   0.190   1.545
  402SOL     OW 1340   1.874   1.292   1.095
  402SOL    HW1 1341   1.900   1.265   1.007
  402SOL    HW2 1342   1.801   1.235   1.118
  403SOL     OW 1343   1.950   1.382   3.379
  403SOL    HW1 1344   1.940   1.304   3.433
  403SOL    HW2 1345   2.015   1.357   3.313
  404SOL     OW 1346   0.556   2.957   3.704
  404SOL    HW1 1347   0.488   2.992   3.762
  404SOL    HW2 1348   0.622   3.026   3.701
  405SOL     OW 1349   1.015   2.144   2.774
  405SOL    HW1 1350   1.030   2.122   2.866
  405SOL    HW2 1351   1.064   2.077   2.726
  406SOL     OW 1352   2.970   2.917   3.027
  406SOL    HW1 1353   3.066   2.921   3.029
  406SOL    HW2 1354   2.944   2.933   3.118
  407SOL     OW 1355   0.422   0.835   2.658
  407SOL    HW1 1356   0.430   0.891   2.581
  407SOL    HW2 1357   0.447   0.890   2.731
  408SOL     OW 1358   3.660   2.798   0.944
  408SOL    HW1 1359   3.576   2.758   0.968
  408SOL    HW2 1360   3.698   2.737   0.881
  409SOL     OW 1361   0.638   2.652   2.226
  409SOL    HW1 1362   0.551   2.685   2.247
  409SOL    HW2 1363   0.658   2.590   2.295
  410SOL     OW 1364   3.524   2.917   0.424
  410SOL    HW1 1365   3.463   2.948   0.357
  410SOL    HW2 1366   3.475   2.926   0.506
  411SOL     OW 1367   1.637   0.575   1.250
  411SOL    HW1 1368   1.627   0.670   1.251
  411SOL    HW2 1369   1.593   0.545   1.330
  412SOL     OW 1370   2.413   1.363   2.995
  412SOL    HW1 1371   2.502   1.395   3.003
  412SOL    HW2 1372   2.372   1.422   2.931
  413SOL     OW 1373   0.123   3.054   3.899
  413SOL    HW1 1374   0.207   3.076   3.939
  413SOL    HW2 1375   0.081   3.138   3.882
  414SOL     OW 1376   1.596   2.176   3.975
  414SOL    HW1 1377   1.677   2.210   3.936
  414SOL    HW2 1378   1.553   2.128   3.904
  415SOL     OW 1379   3.158   2.462   0.634
  415SOL    HW1 1380   3.225   2.528   0.651
  415SOL    HW2 1381   3.077   2.500   0.669
  416SOL     OW 1382   2.498   0.969   3.491
  416SOL    HW1 1383   2.460   1.042   3.441
  416SOL    HW2 1384   2.547   0.919   3.426
  417SOL     OW 1385   3.066   3.901   0.864
  417SOL    HW1 1386   2.981   3.869   0.894
  417SOL    HW2 1387   3.116   3.822   0.845
  418SOL     OW 1388   0.549   0.504   2.224
  418SOL    HW1 1389   0.573   0.582   2.273
  418SOL    HW2 1390   0.529   0.439   2.291
  419SOL     OW 1391   1.296   1.114   2.073
  419SOL    HW1 1392   1.233   1.051   2.109
  419SOL    HW2 1393   1.381   1.072   2.086
  420SOL     OW 1394   1.038   1.133   2.592
  420SOL    HW1 1395   0.983   1.071   2.640
  420SOL    HW2 1396   1.008   1.126   2.501
  421SOL     OW 1397   0.225   1.072   0.265
  421SOL    HW1 1398   0.224   1.044   0.356
  421SOL    HW2 1399   0.150   1.131   0.257
  422SOL     OW 1400   0.928  -0.020   0.729
  422SOL    HW1 1401   0.934   0.066   0.771
  422SOL    HW2 1402   0.834  -0.037   0.724
  423SOL     OW 1403   1.496   3.586   0.614
  423SOL    HW1 1404   1.534   3.654   0.670
  423SOL    HW2 1405   1.424   3.550   0.666
  424SOL     OW 1406   2.065   2.885   3.212
  424SOL    HW1 1407   2.144   2.835   3.194
  424SOL    HW2 1408   2.097   2.974   3.228
  425SOL     OW 1409   3.553   1.752   3.276
  425SOL    HW1 1410   3.542   1.686   3.208
  425SOL    HW2 1411   3.600   1.823   3.233
  426SOL     OW 1412   2.047   3.951   0.337
  426SOL    HW1 1413   2.075   3.940   0.246
  426SOL    HW2 1414   1.980   3.885   0.351
  427SOL     OW 1415   2.483   2.013   3.493
  427SOL    HW1 1416   2.503   1.920   3.507
  427SOL    HW2 1417   2.390   2.015   3.471
  428SOL     OW 1418   3.498   2.201   1.416
  428SOL    HW1 1419   3.425   2.262   1.424
  428SOL    HW2 1420   3.565   2.237   1.474
  429SOL     OW 1421   3.343   0.905   2.630
  429SOL    HW1 1422   3.300   0.969   2.573
  429SOL    HW2 1423   3.306   0.821   2.603
  430SOL     OW 1424   0.662   0.576   0.532
  430SOL    HW1 1425   0.747   0.534   0.516
  430SOL    HW2 1426   0.675   0.667   0.505
  431SOL     OW 1427   2.860   1.592   1.696
  431SOL    HW1 1428   2.943   1.546   1.713
  431SOL    HW2 1429   2.837   1.567   1.607
  432SOL     OW 1430   1.339   3.843   2.822
  432SOL    HW1 1431   1.290   3.773   2.865
  432SOL    HW2 1432   1.431   3.817   2.834
  433SOL     OW 1433   3.715   3.508   2.936
  433SOL    HW1 1434   3.678   3.422   2.914
  433SOL    HW2 1435   3.748   3.497   3.025
  434SOL     OW 1436  -0.016   0.098   1.554
  434SOL    HW1 1437   0.017   0.182   1.522
  434SOL    HW2 1438   0.021   0.033   1.494
  435SOL     OW 1439   0.515   1.616   0.326
  435SOL    HW1 1440   0.487   1.528   0.301
  435SOL    HW2 1441   0.467   1.674   0.266
  436SOL     OW 1442   2.176   1.756   1.440
  436SOL    HW1 1443   2.104   1.715   1.488
  436SOL    HW2 1444   2.141   1.769   1.351
  437SOL     OW 1445   0.853   2.367   1.939
  437SOL    HW1 1446   0.834   2.456   1.909
  437SOL    HW2 1447   0.789   2.350   2.007
  438SOL     OW 1448   3.281   3.716   2.422
  438SOL    HW1 1449   3.320   3.777   2.486
  438SOL    HW2 1450   3.299   3.756   2.337
  439SOL     OW 1451   3.806   0.936   3.423
  439SOL    HW1 1452   3.890   0.971   3.452
  439SOL    HW2 1453   3.829   0.865   3.362
  440SOL     OW 1454   3.267   2.352   1.500
  440SOL    HW1 1455   3.208   2.277   1.493
  440SOL    HW2 1456   3.260   2.379   1.591
  441SOL     OW 1457   0.802   2.585   0.231
  441SOL    HW1 1458   0.757   2.658   0.189
  441SOL    HW2 1459   0.737   2.515   0.236
  442SOL     OW 1460   3.355   2.691   0.252
  442SOL    HW1 1461   3.430   2.746   0.230
  442SOL    HW2 1462   3.282   2.752   0.262
  443SOL     OW 1463   1.071   2.068   2.024
  443SOL    HW1 1464   1.122   1.993   1.994
  443SOL    HW2 1465   1.059   2.121   1.945
  444SOL     OW 1466   0.846   3.794   3.289
  444SOL    HW1 1467   0.870   3.701   3.297
  444SOL    HW2 1468   0.879   3.819   3.203
  445SOL     OW 1469   2.480   0.820   1.863
  445SOL    HW1 1470   2.431   0.887   1.911
  445SOL    HW2 1471   2.553   0.797   1.921
  446SOL     OW 1472   3.019   1.234   0.408
  446SOL    HW1 1473   3.052   1.272   0.327
  446SOL    HW2 1474   2.996   1.144   0.385
  447SOL     OW 1475   0.943   2.356   3.091
  447SOL    HW1 1476   0.893   2.291   3.042
  447SOL    HW2 1477   0.990   2.406   3.024
  448SOL     OW 1478   0.333   0.760   2.172
  448SOL    HW1 1479   0.272   0.819   2.128
  448SOL    HW2 1480   0.393   0.731   2.103
  449SOL     OW 1481   1.821   2.316   2.495
  449SOL    HW1 1482   1.867   2.388   2.452
  449SOL    HW2 1483   1.814   2.343   2.586
  450SOL     OW 1484   2.609   3.645   0.627
  450SOL    HW1 1485   2.674   3.574   0.630
  450SOL    HW2 1486   2.622   3.692   0.710
  451SOL     OW 1487   0.190   0.717   2.550
  451SOL    HW1 1488   0.281   0.708   2.579
  451SOL    HW2 1489   0.150   0.632   2.569
  452SOL     OW 1490   1.991   3.746   1.509
  452SOL    HW1 1491   2.037   3.684   1.566
  452SOL    HW2 1492   1.989   3.703   1.424
  453SOL     OW 1493   1.324   2.302   2.098
  453SOL    HW1 1494   1.300   2.360   2.170
  453SOL    HW2 1495   1.255   2.236   2.097
  454SOL     OW 1496   2.202   0.401   3.963
  454SOL    HW1 1497   2.144   0.328   3.941
  454SOL    HW2 1498   2.151   0.480   3.944
  455SOL     OW 1499   3.710   0.173   0.050
  455SOL    HW1 1500   3.721   0.252  -0.003
  455SOL    HW2 1501   3.733   0.200   0.139
  456SOL     OW 1502   3.520   1.521   3.136
  456SOL    HW1 1503   3.520   1.484   3.047
  456SOL    HW2 1504   3.484   1.452   3.191
  457SOL     OW 1505   1.824   2.212   3.832
  457SOL    HW1 1506   1.899   2.266   3.857
  457SOL    HW2 1507   1.858   2.155   3.763
  458SOL     OW 1508   2.981   3.526   2.772
  458SOL    HW1 1509   2.904   3.553   2.722
  458SOL    HW2 1510   2.990   3.592   2.841
  459SOL     OW 1511   2.101   0.891   1.109
  459SOL    HW1 1512   2.088   0.806   1.067
  459SOL    HW2 1513   2.081   0.875   1.201
  460SOL     OW 1514   3.061   3.872   1.777
  460SOL    HW1 1515   3.055   3.785   1.738
  460SOL    HW2 1516   3.056   3.856   1.872
  461SOL     OW 1517   3.438   3.957   0.706
  461SOL    HW1 1518   3.387   3.969   0.626
  461SOL    HW2 1519   3.461   3.864   0.707
  462SOL     OW 1520   2.357   2.742   0.763
  462SOL    HW1 1521   2.400   2.700   0.837
  462SOL    HW2 1522   2.264   2.743   0.786
  463SOL     OW 1523   2.802   2.818   1.867
  463SOL    HW1 1524   2.710   2.822   1.844
  463SOL    HW2 1525   2.830   2.732   1.836
  464SOL     OW 1526   0.411   1.075   2.156
  464SOL    HW1 1527   0.373   1.012   2.095
  464SOL    HW2 1528   0.489   1.107   2.110
  465SOL     OW 1529   3.706   0.113   2.020
  465SOL    HW1 1530   3.774   0.117   1.953
  465SOL    HW2 1531   3.639   0.175   1.990
  466SOL     OW 1532   0.935   2.548   0.800
  466SOL    HW1 1533   0.847   2.514   0.813
  466SOL    HW2 1534   0.925   2.620   0.738
  467SOL     OW 1535   1.926   3.431   0.278
  467SOL    HW1 1536   1.860   3.499   0.293
  467SOL    HW2 1537   1.993   3.473   0.225
  468SOL     OW 1538   1.694   3.754   1.802
  468SOL    HW1 1539   1.616   3.703   1.824
  468SOL    HW2 1540   1.748   3.752   1.881
  469SOL     OW 1541   0.124   3.417   0.644
  469SOL    HW1 1542   0.039   3.439   0.682
  469SOL    HW2 1543   0.182   3.405   0.720
  470SOL     OW 1544   0.413   3.913   3.726
  470SOL    HW1 1545   0.450   3.986   3.775
  470SOL    HW2 1546   0.487   3.854   3.710
  471SOL     OW 1547   1.569   0.763   2.984
  471SOL    HW1 1548   1.491   0.708   2.983
  471SOL    HW2 1549   1.537   0.849   3.011
  472SOL     OW 1550   3.521   0.447   1.488
  472SOL    HW1 1551   3.462   0.415   1.419
  472SOL    HW2 1552   3.603   0.401   1.473
  473SOL     OW 1553   1.456   1.794   3.090
  473SOL    HW1 1554   1.526   1.736   3.061
  473SOL    HW2 1555   1.470   1.875   3.041
  474SOL     OW 1556   2.177   3.370   3.920
  474SOL    HW1 1557   2.177   3.316   3.999
  474SOL    HW2 1558   2.095   3.348   3.875
  475SOL     OW 1559   2.219   3.857   0.718
  475SOL    HW1 1560   2.286   3.888   0.657
  475SOL    HW2 1561   2.194   3.934   0.768
  476SOL     OW 1562   1.540   0.117   3.687
  476SOL    HW1 1563   1.501   0.068   3.759
  476SOL    HW2 1564   1.487   0.196   3.679
  477SOL     OW 1565   1.707   3.199   0.722
  477SOL    HW1 1566   1.755   3.138   0.667
  477SOL    HW2 1567   1.766   3.274   0.733
  478SOL     OW 1568   2.684   3.561   1.170
  478SOL    HW1 1569   2.773   3.595   1.169
  478SOL    HW2 1570   2.666   3.543   1.262
  479SOL     OW 1571   3.365   3.885   2.608
  479SOL    HW1 1572   3.426   3.941   2.559
  479SOL    HW2 1573   3.390   3.898   2.699
  480SOL     OW 1574   1.644   3.825   2.866
  480SOL    HW1 1575   1.647   3.787   2.778
  480SOL    HW2 1576   1.671   3.916   2.854
  481SOL     OW 1577   1.570   0.838   2.372
  481SOL    HW1 1578   1.621   0.757   2.380
  481SOL    HW2 1579   1.518   0.825   2.292
  482SOL     OW 1580   1.960   1.297   1.638
  482SOL    HW1 1581   2.018   1.296   1.715
  482SOL    HW2 1582   2.016   1.329   1.567
  483SOL     OW 1583   0.534   1.564   3.030
  483SOL    HW1 1584   0.447   1.592   3.059
  483SOL    HW2 1585   0.522   1.540   2.938
  484SOL     OW 1586   3.717   0.306   3.494
  484SOL    HW1 1587   3.633   0.263   3.477
  484SOL    HW2 1588   3.756   0.254   3.565
  485SOL     OW 1589   1.231   3.094   1.560
  485SOL    HW1 1590   1.151   3.117   1.513
  485SOL    HW2 1591   1.200   3.056   1.643
  486SOL     OW 1592   0.995   1.865   3.716
  486SOL    HW1 1593   0.992   1.822   3.631
  486SOL    HW2 1594   1.038   1.949   3.698
  487SOL     OW 1595   2.155   0.403   3.605
  487SOL    HW1 1596   2.201   0.357   3.675
  487SOL    HW2 1597   2.207   0.482   3.590
  488SOL     OW 1598   0.494   2.032   2.249
  488SOL    HW1 1599   0.538   2.090   2.187
  488SOL    HW2 1600   0.401   2.054   2.241
  489SOL     OW 1601   3.110  -0.027   2.179
  489SOL    HW1 1602   3.111   0.020   2.263
  489SOL    HW2 1603   3.172   0.021   2.125
  490SOL     OW 1604   1.118   0.801   3.635
  490SOL    HW1 1605   1.138   0.778   3.725
  490SOL    HW2 1606   1.129   0.720   3.586
  491SOL     OW 1607   1.461   0.096   1.091
  491SOL    HW1 1608   1.544   0.053   1.112
  491SOL    HW2 1609   1.482   0.189   1.084
  492SOL     OW 1610   1.763   2.470   0.196
  492SOL    HW1 1611   1.750   2.454   0.289
  492SOL    HW2 1612   1.768   2.565   0.188
  493SOL     OW 1613   0.990   3.531   3.638
  493SOL    HW1 1614   0.943   3.499   3.716
  493SOL    HW2 1615   0.975   3.625   3.639
  494SOL     OW 1616   2.134   1.828   2.312
  494SOL    HW1 1617   2.101   1.868   2.392
  494SOL    HW2 1618   2.222   1.799   2.333
  495SOL     OW 1619   3.944   2.838   1.047
  495SOL    HW1 1620   3.969   2.815   1.136
  495SOL    HW2 1621   3.902   2.759   1.012
  496SOL     OW 1622   1.531   1.650   2.600
  496SOL    HW1 1623   1.466   1.588   2.565
  496SOL    HW2 1624   1.588   1.596   2.654
  497SOL     OW 1625   1.325   0.927   1.412
  497SOL    HW1 1626   1.345   0.912   1.505
  497SOL    HW2 1627   1.297   0.842   1.380
  498SOL     OW 1628   2.765   3.340   2.550
  498SOL    HW1 1629   2.752   3.291   2.469
  498SOL    HW2 1630   2.753   3.275   2.619
  499SOL     OW 1631   1.347   1.377   3.464
  499SOL    HW1 1632   1.367   1.398   3.373
  499SOL    HW2 1633   1.292   1.299   3.459
  500SOL     OW 1634   3.253   0.636   2.808
  500SOL    HW1 1635   3.286   0.706   2.864
  500SOL    HW2 1636   3.171   0.609   2.849
  501SOL     OW 1637   0.126   1.229   2.869
  501SOL    HW1 1638   0.074   1.187   2.801
  501SOL    HW2 1639   0.202   1.172   2.880
  502SOL     OW 1640   0.129   3.198   1.754
  502SOL    HW1 1641   0.158   3.164   1.839
  502SOL    HW2 1642   0.185   3.153   1.690
  503SOL     OW 1643   2.025   0.246   0.444
  503SOL    HW1 1644   2.099   0.276   0.497
  503SOL    HW2 1645   2.035   0.151   0.439
  504SOL     OW 1646   0.052   2.019   1.570
  504SOL    HW1 1647   0.091   2.101   1.540
  504SOL    HW2 1648  -0.020   2.002   1.509
  505SOL     OW 1649   0.800   3.173   3.603
  505SOL    HW1 1650   0.875   3.130   3.563
  505SOL    HW2 1651   0.732   3.171   3.535
  506SOL     OW 1652   1.917   0.146   1.753
  506SOL    HW1 1653   1.868   0.075   1.712
  506SOL    HW2 1654   1.896   0.223   1.701
  507SOL     OW 1655   0.041   0.232   3.859
  507SOL    HW1 1656   0.049   0.217   3.764
  507SOL    HW2 1657  -0.017   0.307   3.867
  508SOL     OW 1658   0.071   2.206   1.007
  508SOL    HW1 1659   0.033   2.226   0.921
  508SOL    HW2 1660   0.158   2.246   1.005
  509SOL     OW 1661   0.839   3.628   2.871
  509SOL    HW1 1662   0.825   3.545   2.916
  509SOL    HW2 1663   0.921   3.662   2.908
  510SOL     OW 1664   3.170   1.209   2.533
  510SOL    HW1 1665   3.212   1.294   2.548
  510SOL    HW2 1666   3.237   1.156   2.489
  511SOL     OW 1667   0.829   3.142   0.340
  511SOL    HW1 1668   0.783   3.186   0.269
  511SOL    HW2 1669   0.773   3.067   0.362
  512SOL     OW 1670   2.991   1.293   3.627
  512SOL    HW1 1671   2.983   1.211   3.676
  512SOL    HW2 1672   2.905   1.334   3.635
  513SOL     OW 1673   1.078   0.478   1.210
  513SOL    HW1 1674   1.099   0.386   1.225
  513SOL    HW2 1675   1.070   0.486   1.115
  514SOL     OW 1676   0.025   2.726   0.031
  514SOL    HW1 1677  -0.042   2.661   0.050
  514SOL    HW2 1678   0.053   2.758   0.117
  515SOL     OW 1679   0.313   3.588   3.665
  515SOL    HW1 1680   0.370   3.592   3.742
  515SOL    HW2 1681   0.226   3.610   3.699
  516SOL     OW 1682   3.630   0.899   1.295
  516SOL    HW1 1683   3.694   0.969   1.307
  516SOL    HW2 1684   3.663   0.850   1.219
  517SOL     OW 1685   3.082   3.302   2.410
  517SOL    HW1 1686   3.121   3.361   2.474
  517SOL    HW2 1687   3.085   3.351   2.328
  518SOL     OW 1688   0.569   3.734   1.647
  518SOL    HW1 1689   0.568   3.700   1.558
  518SOL    HW2 1690   0.586   3.828   1.636
  519SOL     OW 1691   2.787   1.914   2.515
  519SOL    HW1 1692   2.840   1.912   2.594
  519SOL    HW2 1693   2.720   1.980   2.532
  520SOL     OW 1694   2.492   1.845   1.675
  520SOL    HW1 1695   2.475   1.751   1.672
  520SOL    HW2 1696   2.417   1.882   1.724
  521SOL     OW 1697   1.669   2.725   0.078
  521SOL    HW1 1698   1.639   2.765   0.160
  521SOL    HW2 1699   1.606   2.655   0.061
  522SOL     OW 1700   1.660   2.391   0.825
  522SOL    HW1 1701   1.606   2.334   0.770
  522SOL    HW2 1702   1.624   2.479   0.810
  523SOL     OW 1703   1.011   2.381   0.181
  523SOL    HW1 1704   1.005   2.357   0.088
  523SOL    HW2 1705   0.951   2.455   0.190
  524SOL     OW 1706   1.328   3.250   2.486
  524SOL    HW1 1707   1.397   3.315   2.473
  524SOL    HW2 1708   1.375   3.168   2.503
  525SOL     OW 1709   0.519   1.034   1.443
  525SOL    HW1 1710   0.525   0.939   1.442
  525SOL    HW2 1711   0.553   1.059   1.530
  526SOL     OW 1712   0.592   1.982   0.166
  526SOL    HW1 1713   0.524   1.916   0.152
  526SOL    HW2 1714   0.656   1.939   0.223
  527SOL     OW 1715   3.395   1.649   0.811
  527SOL    HW1 1716   3.364   1.648   0.902
  527SOL    HW2 1717   3.424   1.560   0.794
  528SOL     OW 1718   2.159   2.846   0.493
  528SOL    HW1 1719   2.170   2.788   0.568
  528SOL    HW2 1720   2.248   2.867   0.465
  529SOL     OW 1721   2.816   3.501   0.716
  529SOL    HW1 1722   2.895   3.488   0.770
  529SOL    HW2 1723   2.786   3.413   0.697
  530SOL     OW 1724   0.468   2.578   0.340
  530SOL    HW1 1725   0.474   2.663   0.296
  530SOL    HW2 1726   0.432   2.520   0.273
  531SOL     OW 1727   1.686   2.624   3.188
  531SOL    HW1 1728   1.649   2.673   3.115
  531SOL    HW2 1729   1.780   2.620   3.169
  532SOL     OW 1730   1.402   3.164   0.276
  532SOL    HW1 1731   1.392   3.071   0.253
  532SOL    HW2 1732   1.435   3.205   0.195
  533SOL     OW 1733   2.640   3.867   0.821
  533SOL    HW1 1734   2.600   3.884   0.906
  533SOL    HW2 1735   2.734   3.860   0.839
  534SOL     OW 1736   2.651   3.323   1.073
  534SOL    HW1 1737   2.645   3.416   1.096
  534SOL    HW2 1738   2.719   3.289   1.132
  535SOL     OW 1739   1.928   3.717   0.024
  535SOL    HW1 1740   1.963   3.697  -0.063
  535SOL    HW2 1741   1.997   3.689   0.084
  536SOL     OW 1742   2.899   1.785   1.932
  536SOL    HW1 1743   2.922   1.699   1.967
  536SOL    HW2 1744   2.876   1.769   1.841
  537SOL     OW 1745   2.782   2.217   1.468
  537SOL    HW1 1746   2.706   2.183   1.515
  537SOL    HW2 1747   2.760   2.205   1.375
  538SOL     OW 1748   0.756   2.527   2.618
  538SOL    HW1 1749   0.784   2.448   2.665
  538SOL    HW2 1750   0.678   2.556   2.664
  539SOL     OW 1751   3.142   1.874   3.584
  539SOL    HW1 1752   3.199   1.861   3.659
  539SOL    HW2 1753   3.104   1.961   3.597
  540SOL     OW 1754   1.869   1.533   1.221
  540SOL    HW1 1755   1.800   1.524   1.287
  540SOL    HW2 1756   1.860   1.455   1.166
  541SOL     OW 1757   3.007   2.531   0.357
  541SOL    HW1 1758   2.985   2.600   0.420
  541SOL    HW2 1759   3.072   2.477   0.401
  542SOL     OW 1760   3.366   1.222   2.947
  542SOL    HW1 1761   3.322   1.139   2.930
  542SOL    HW2 1762   3.391   1.217   3.039
  543SOL     OW 1763   0.656   2.936   2.844
  543SOL    HW1 1764   0.683   2.876   2.914
  543SOL    HW2 1765   0.693   3.021   2.871
  544SOL     OW 1766   1.245   2.613   2.740
  544SOL    HW1 1767   1.332   2.654   2.743
  544SOL    HW2 1768   1.187   2.682   2.709
  545SOL     OW 1769   1.900   0.658   1.121
  545SOL    HW1 1770   1.942   0.572   1.130
  545SOL    HW2 1771   1.814   0.647   1.161
  546SOL     OW 1772   2.420   2.087   1.065
  546SOL    HW1 1773   2.451   2.015   1.009
  546SOL    HW2 1774   2.371   2.043   1.134
  547SOL     OW 1775   0.659   3.552   1.847
  547SOL    HW1 1776   0.686   3.640   1.821
  547SOL    HW2 1777   0.580   3.534   1.795
  548SOL     OW 1778   1.366   1.091   0.344
  548SOL    HW1 1779   1.388   1.002   0.369
  548SOL    HW2 1780   1.276   1.103   0.376
  549SOL     OW 1781   0.488   1.773   1.503
  549SOL    HW1 1782   0.409   1.720   1.496
  549SOL    HW2 1783   0.468   1.838   1.571
  550SOL     OW 1784   3.035   3.721   2.039
  550SOL    HW1 1785   2.940   3.707   2.039
  550SOL    HW2 1786   3.050   3.781   2.112
  551SOL     OW 1787   1.087   2.892   2.330
  551SOL    HW1 1788   1.049   2.805   2.346
  551SOL    HW2 1789   1.074   2.906   2.236
  552SOL     OW 1790   1.960   2.097   3.632
  552SOL    HW1 1791   1.959   2.054   3.546
  552SOL    HW2 1792   2.007   2.179   3.617
  553SOL     OW 1793   1.985   0.626   1.828
  553SOL    HW1 1794   1.967   0.596   1.917
  553SOL    HW2 1795   2.080   0.636   1.825
  554SOL     OW 1796   0.779   0.283   1.900
  554SOL    HW1 1797   0.805   0.239   1.981
  554SOL    HW2 1798   0.696   0.325   1.922
  555SOL     OW 1799   1.250   1.735   3.814
  555SOL    HW1 1800   1.181   1.801   3.804
  555SOL    HW2 1801   1.225   1.665   3.754
  556SOL     OW 1802   0.964   2.224   2.347
  556SOL    HW1 1803   0.918   2.165   2.287
  556SOL    HW2 1804   1.057   2.208   2.330
  557SOL     OW 1805   2.363   3.910   2.143
  557SOL    HW1 1806   2.421   3.868   2.080
  557SOL    HW2 1807   2.415   3.918   2.222
  558SOL     OW 1808   1.129   1.851   1.503
  558SOL    HW1 1809   1.143   1.945   1.501
  558SOL    HW2 1810   1.169   1.819   1.422
  559SOL     OW 1811   1.700   3.291   1.873
  559SOL    HW1 1812   1.727   3.335   1.953
  559SOL    HW2 1813   1.610   3.320   1.859
  560SOL     OW 1814   3.883   1.882   2.064
  560SOL    HW1 1815   3.950   1.813   2.066
  560SOL    HW2 1816   3.897   1.930   2.145
  561SOL     OW 1817   3.582   1.739   1.028
  561SOL    HW1 1818   3.496   1.710   1.058
  561SOL    HW2 1819   3.564   1.804   0.960
  562SOL     OW 1820   1.672   1.439   2.774
  562SOL    HW1 1821   1.764   1.419   2.791
  562SOL    HW2 1822   1.628   1.354   2.775
  563SOL     OW 1823   0.306   0.146   0.462
  563SOL    HW1 1824   0.267   0.136   0.375
  563SOL    HW2 1825   0.400   0.154   0.446
  564SOL     OW 1826   3.262   1.819   0.619
  564SOL    HW1 1827   3.197   1.873   0.663
  564SOL    HW2 1828   3.315   1.782   0.690
  565SOL     OW 1829   2.479   3.792   1.127
  565SOL    HW1 1830   2.508   3.868   1.178
  565SOL    HW2 1831   2.531   3.720   1.161
  566SOL     OW 1832   2.431   1.281   2.696
  566SOL    HW1 1833   2.371   1.211   2.670
  566SOL    HW2 1834   2.514   1.259   2.654
  567SOL     OW 1835   3.747   2.351   2.110
  567SOL    HW1 1836   3.691   2.396   2.047
  567SOL    HW2 1837   3.763   2.416   2.179
  568SOL     OW 1838   1.841   1.096   0.099
  568SOL    HW1 1839   1.866   1.172   0.151
  568SOL    HW2 1840   1.919   1.073   0.049
  569SOL     OW 1841   1.587   1.193   2.149
  569SOL    HW1 1842   1.633   1.272   2.122
  569SOL    HW2 1843   1.602   1.187   2.243
  570SOL     OW 1844   3.543   0.449   0.302
  570SOL    HW1 1845   3.613   0.456   0.236
  570SOL    HW2 1846   3.584   0.406   0.376
  571SOL     OW 1847   2.702   0.319   3.747
  571SOL    HW1 1848   2.755   0.261   3.801
  571SOL    HW2 1849   2.627   0.265   3.720
  572SOL     OW 1850   3.526   0.847   3.042
  572SOL    HW1 1851   3.495   0.876   3.128
  572SOL    HW2 1852   3.455   0.869   2.982
  573SOL     OW 1853   1.660   2.857   2.357
  573SOL    HW1 1854   1.733   2.847   2.297
  573SOL    HW2 1855   1.584   2.825   2.308
  574SOL     OW 1856   3.540   0.209   2.689
  574SOL    HW1 1857   3.532   0.176   2.600
  574SOL    HW2 1858   3.509   0.300   2.684
  575SOL     OW 1859   1.177   1.932   2.419
  575SOL    HW1 1860   1.189   2.023   2.389
  575SOL    HW2 1861   1.236   1.881   2.364
  576SOL     OW 1862   0.505   3.742   2.169
  576SOL    HW1 1863   0.472   3.832   2.172
  576SOL    HW2 1864   0.426   3.688   2.167
  577SOL     OW 1865   0.817   0.547   3.883
  577SOL    HW1 1866   0.853   0.635   3.887
  577SOL    HW2 1867   0.755   0.550   3.810
  578SOL     OW 1868   3.287   3.168   2.177
  578SOL    HW1 1869   3.244   3.091   2.215
  578SOL    HW2 1870   3.216   3.217   2.136
  579SOL     OW 1871   0.333   1.709   0.603
  579SOL    HW1 1872   0.252   1.756   0.622
  579SOL    HW2 1873   0.310   1.649   0.533
  580SOL     OW 1874   2.201   2.198   3.193
  580SOL    HW1 1875   2.150   2.181   3.114
  580SOL    HW2 1876   2.144   2.255   3.246
  581SOL     OW 1877   0.064   3.276   3.554
  581SOL    HW1 1878   0.110   3.196   3.529
  581SOL    HW2 1879   0.107   3.305   3.635
  582SOL     OW 1880   2.674   1.223   2.641
  582SOL    HW1 1881   2.728   1.294   2.675
  582SOL    HW2 1882   2.735   1.168   2.592
  583SOL     OW 1883   3.854   1.438   3.685
  583SOL    HW1 1884   3.876   1.420   3.593
  583SOL    HW2 1885   3.795   1.514   3.680
  584SOL     OW 1886   0.323   1.265   1.463
  584SOL    HW1 1887   0.256   1.259   1.395
  584SOL    HW2 1888   0.385   1.196   1.443
  585SOL     OW 1889   1.395   3.149   1.131
  585SOL    HW1 1890   1.308   3.178   1.102
  585SOL    HW2 1891   1.420   3.213   1.197
  586SOL     OW 1892   2.629   0.593   2.931
  586SOL    HW1 1893   2.598   0.504   2.912
  586SOL    HW2 1894   2.722   0.583   2.951
  587SOL     OW 1895   0.493   1.040   3.678
  587SOL    HW1 1896   0.398   1.039   3.666
  587SOL    HW2 1897   0.528   1.013   3.593
  588SOL     OW 1898   0.388   3.362   2.293
  588SOL    HW1 1899   0.399   3.295   2.226
  588SOL    HW2 1900   0.474   3.401   2.303
  589SOL     OW 1901   0.767   2.456   3.299
  589SOL    HW1 1902   0.697   2.466   3.235
  589SOL    HW2 1903   0.843   2.429   3.247
  590SOL     OW 1904   2.246   1.437   0.686
  590SOL    HW1 1905   2.301   1.359   0.679
  590SOL    HW2 1906   2.307   1.511   0.677
  591SOL     OW 1907   2.623   2.712   0.270
  591SOL    HW1 1908   2.545   2.716   0.215
  591SOL    HW2 1909   2.594   2.745   0.355
  592SOL     OW 1910   1.730   0.352   2.423
  592SOL    HW1 1911   1.699   0.267   2.455
  592SOL    HW2 1912   1.825   0.344   2.423
  593SOL     OW 1913   3.388   1.855   0.242
  593SOL    HW1 1914   3.339   1.795   0.298
  593SOL    HW2 1915   3.375   1.941   0.282
  594SOL     OW 1916   0.646   2.911   1.232
  594SOL    HW1 1917   0.661   2.875   1.145
  594SOL    HW2 1918   0.657   2.836   1.291
  595SOL     OW 1919   3.487   3.277   1.928
  595SOL    HW1 1920   3.463   3.353   1.875
  595SOL    HW2 1921   3.416   3.268   1.992
  596SOL     OW 1922   3.719   3.108   1.514
  596SOL    HW1 1923   3.726   3.014   1.530
  596SOL    HW2 1924   3.804   3.133   1.479
  597SOL     OW 1925   0.678   3.074   0.073
  597SOL    HW1 1926   0.650   3.115  -0.009
  597SOL    HW2 1927   0.771   3.055   0.059
  598SOL     OW 1928   0.149   0.289   3.415
  598SOL    HW1 1929   0.229   0.339   3.427
  598SOL    HW2 1930   0.110   0.324   3.335
  599SOL     OW 1931   2.290   0.297   0.254
  599SOL    HW1 1932   2.232   0.221   0.263
  599SOL    HW2 1933   2.247   0.353   0.190
  600SOL     OW 1934   1.663   0.195   1.579
  600SOL    HW1 1935   1.577   0.207   1.538
  600SOL    HW2 1936   1.684   0.103   1.565
  601SOL     OW 1937   2.698   2.297   2.706
  601SOL    HW1 1938   2.719   2.290   2.799
  601SOL    HW2 1939   2.644   2.375   2.699
  602SOL     OW 1940   3.127   3.733   1.496
  602SOL    HW1 1941   3.181   3.776   1.429
  602SOL    HW2 1942   3.045   3.783   1.495
  603SOL     OW 1943   1.914   1.675   0.072
  603SOL    HW1 1944   1.960   1.760   0.077
  603SOL    HW2 1945   1.880   1.671  -0.017
  604SOL     OW 1946   2.222   1.192   3.626
  604SOL    HW1 1947   2.163   1.263   3.653
  604SOL    HW2 1948   2.302   1.208   3.676
  605SOL     OW 1949   0.087   0.554   3.605
  605SOL    HW1 1950   0.032   0.580   3.679
  605SOL    HW2 1951   0.029   0.504   3.548
  606SOL     OW 1952   3.259   1.686   2.436
  606SOL    HW1 1953   3.282   1.764   2.486
  606SOL    HW2 1954   3.195   1.717   2.371
  607SOL     OW 1955   1.537   0.401   3.778
  607SOL    HW1 1956   1.535   0.496   3.777
  607SOL    HW2 1957   1.501   0.376   3.863
  608SOL     OW 1958   0.995   0.977   3.384
  608SOL    HW1 1959   0.974   0.924   3.307
  608SOL    HW2 1960   1.006   0.914   3.455
  609SOL     OW 1961   3.637   2.022   0.182
  609SOL    HW1 1962   3.587   2.099   0.157
  609SOL    HW2 1963   3.572   1.952   0.186
  610SOL     OW 1964   3.207   1.101  -0.010
  610SOL    HW1 1965   3.294   1.084   0.025
  610SOL    HW2 1966   3.149   1.043   0.039
  611SOL     OW 1967   0.638   0.687   1.900
  611SOL    HW1 1968   0.729   0.668   1.878
  611SOL    HW2 1969   0.641   0.773   1.943
  612SOL     OW 1970   3.825   3.290   0.662
  612SOL    HW1 1971   3.864   3.204   0.650
  612SOL    HW2 1972   3.862   3.342   0.590
  613SOL     OW 1973   3.279   3.179   2.724
  613SOL    HW1 1974   3.190   3.159   2.693
  613SOL    HW2 1975   3.331   3.186   2.644
  614SOL     OW 1976   1.581   0.744   2.099
  614SOL    HW1 1977   1.605   0.656   2.129
  614SOL    HW2 1978   1.492   0.734   2.066
  615SOL     OW 1979   1.275   2.860   2.524
  615SOL    HW1 1980   1.264   2.855   2.429
  615SOL    HW2 1981   1.187   2.856   2.559
  616SOL     OW 1982   0.637   2.763   0.993
  616SOL    HW1 1983   0.554   2.727   0.961
  616SOL    HW2 1984   0.688   2.780   0.913
  617SOL     OW 1985   1.378   0.877   1.690
  617SOL    HW1 1986   1.456   0.933   1.691
  617SOL    HW2 1987   1.412   0.788   1.679
  618SOL     OW 1988   1.209   0.235   3.244
  618SOL    HW1 1989   1.131   0.281   3.212
  618SOL    HW2 1990   1.221   0.162   3.184
  619SOL     OW 1991   1.352   1.357   0.966
  619SOL    HW1 1992   1.336   1.283   0.907
  619SOL    HW2 1993   1.329   1.323   1.053
  620SOL     OW 1994   3.927   0.130   1.865
  620SOL    HW1 1995   3.923   0.142   1.771
  620SOL    HW2 1996   3.949   0.037   1.877
  621SOL     OW 1997   0.536   2.193   3.647
  621SOL    HW1 1998   0.568   2.170   3.735
  621SOL    HW2 1999   0.483   2.118   3.621
  622SOL     OW 2000   3.125   2.705   2.006
  622SOL    HW1 2001   3.125   2.799   2.024
  622SOL    HW2 2002   3.129   2.699   1.910
  623SOL     OW 2003   0.611   2.263   1.105
  623SOL    HW1 2004   0.654   2.341   1.139
  623SOL    HW2 2005   0.683   2.202   1.088
  624SOL     OW 2006   0.513   2.898   2.572
  624SOL    HW1 2007   0.441   2.961   2.575
  624SOL    HW2 2008   0.567   2.919   2.649
  625SOL     OW 2009   3.757   0.367   0.449
  625SOL    HW1 2010   3.816   0.338   0.379
  625SOL    HW2 2011   3.757   0.296   0.512
  626SOL     OW 2012   2.329   1.103   2.904
  626SOL    HW1 2013   2.397   1.140   2.847
  626SOL    HW2 2014   2.280   1.179   2.935
  627SOL     OW 2015   2.551   3.838   1.952
  627SOL    HW1 2016   2.581   3.906   1.891
  627SOL    HW2 2017   2.627   3.780   1.961
  628SOL     OW 2018   1.451   3.031   2.219
  628SOL    HW1 2019   1.474   2.965   2.154
  628SOL    HW2 2020   1.357   3.021   2.232
  629SOL     OW 2021   1.670   3.749   2.149
  629SOL    HW1 2022   1.738   3.682   2.151
  629SOL    HW2 2023   1.701   3.817   2.209
  630SOL     OW 2024   1.745   0.016   3.540
  630SOL    HW1 2025   1.668   0.056   3.581
  630SOL    HW2 2026   1.815   0.080   3.551
  631SOL     OW 2027   3.079   0.091   3.061
  631SOL    HW1 2028   3.144   0.157   3.037
  631SOL    HW2 2029   3.132   0.019   3.098
  632SOL     OW 2030   1.933   3.933   2.810
  632SOL    HW1 2031   1.867   4.002   2.808
  632SOL    HW2 2032   1.948   3.912   2.717
  633SOL     OW 2033   0.584   1.601   2.151
  633SOL    HW1 2034   0.551   1.512   2.166
  633SOL    HW2 2035   0.664   1.606   2.204
  634SOL     OW 2036   2.574   3.939   2.337
  634SOL    HW1 2037   2.578   4.024   2.294
  634SOL    HW2 2038   2.653   3.893   2.308
  635SOL     OW 2039   2.463   1.476   3.368
  635SOL    HW1 2040   2.544   1.425   3.374
  635SOL    HW2 2041   2.492   1.567   3.362
  636SOL     OW 2042   1.871   3.346   2.281
  636SOL    HW1 2043   1.952   3.304   2.252
  636SOL    HW2 2044   1.802   3.285   2.254
  637SOL     OW 2045   1.306   0.469   3.335
  637SOL    HW1 2046   1.359   0.485   3.256
  637SOL    HW2 2047   1.256   0.391   3.315
  638SOL     OW 2048   1.633   2.129   2.047
  638SOL    HW1 2049   1.646   2.109   1.954
  638SOL    HW2 2050   1.565   2.197   2.047
  639SOL     OW 2051   3.106   2.448   1.306
  639SOL    HW1 2052   3.127   2.395   1.229
  639SOL    HW2 2053   3.152   2.405   1.378
  640SOL     OW 2054   3.592   3.523  -0.003
  640SOL    HW1 2055   3.640   3.600   0.027
  640SOL    HW2 2056   3.559   3.482   0.077
  641SOL     OW 2057   2.860   2.844   0.259
  641SOL    HW1 2058   2.775   2.810   0.229
  641SOL    HW2 2059   2.844   2.937   0.276
  642SOL     OW 2060   2.768   3.049   0.867
  642SOL    HW1 2061   2.850   3.087   0.898
  642SOL    HW2 2062   2.783   3.032   0.774
  643SOL     OW 2063   1.637   1.672   0.175
  643SOL    HW1 2064   1.634   1.731   0.251
  643SOL    HW2 2065   1.729   1.674   0.147
  644SOL     OW 2066   3.875   3.702   3.950
  644SOL    HW1 2067   3.933   3.680   3.878
  644SOL    HW2 2068   3.834   3.785   3.924
  645SOL     OW 2069   3.604   1.683   1.584
  645SOL    HW1 2070   3.627   1.722   1.669
  645SOL    HW2 2071   3.583   1.757   1.528
  646SOL     OW 2072   0.274   3.604   2.211
  646SOL    HW1 2073   0.310   3.517   2.230
  646SOL    HW2 2074   0.180   3.589   2.205
  647SOL     OW 2075   0.348   2.331   2.487
  647SOL    HW1 2076   0.429   2.382   2.474
  647SOL    HW2 2077   0.371   2.267   2.554
  648SOL     OW 2078   1.733   2.766   1.246
  648SOL    HW1 2079   1.730   2.810   1.161
  648SOL    HW2 2080   1.679   2.688   1.235
  649SOL     OW 2081   1.634   0.069   0.390
  649SOL    HW1 2082   1.601  -0.007   0.343
  649SOL    HW2 2083   1.596   0.063   0.477
  650SOL     OW 2084   0.890   0.788   1.170
  650SOL    HW1 2085   0.876   0.837   1.251
  650SOL    HW2 2086   0.915   0.855   1.106
  651SOL     OW 2087   3.275   1.448   2.546
  651SOL    HW1 2088   3.260   1.518   2.482
  651SOL    HW2 2089   3.369   1.451   2.564
  652SOL     OW 2090   2.560   2.635   1.312
  652SOL    HW1 2091   2.516   2.580   1.377
  652SOL    HW2 2092   2.634   2.582   1.282
  653SOL     OW 2093   3.318   0.366   1.259
  653SOL    HW1 2094   3.361   0.292   1.218
  653SOL    HW2 2095   3.341   0.441   1.204
  654SOL     OW 2096   1.989   0.340   2.311
  654SOL    HW1 2097   2.062   0.370   2.365
  654SOL    HW2 2098   2.022   0.262   2.266
  655SOL     OW 2099   0.828   1.852   1.162
  655SOL    HW1 2100   0.882   1.928   1.183
  655SOL    HW2 2101   0.740   1.876   1.193
  656SOL     OW 2102   3.761   2.572   0.618
  656SOL    HW1 2103   3.696   2.526   0.565
  656SOL    HW2 2104   3.833   2.589   0.558
  657SOL     OW 2105   3.128   3.781   2.743
  657SOL    HW1 2106   3.223   3.788   2.743
  657SOL    HW2 2107   3.099   3.837   2.816
  658SOL     OW 2108   2.946   3.534   3.885
  658SOL    HW1 2109   2.969   3.469   3.952
  658SOL    HW2 2110   2.888   3.595   3.930
  659SOL     OW 2111   1.551   3.609   3.045
  659SOL    HW1 2112   1.503   3.570   2.972
  659SOL    HW2 2113   1.608   3.674   3.003
  660SOL     OW 2114   2.236   0.242   2.435
  660SOL    HW1 2115   2.258   0.334   2.452
  660SOL    HW2 2116   2.297   0.215   2.366
  661SOL     OW 2117   1.001   2.854   1.996
  661SOL    HW1 2118   1.072   2.854   1.932
  661SOL    HW2 2119   0.922   2.869   1.943
  662SOL     OW 2120   3.653   2.446   0.229
  662SOL    HW1 2121   3.604   2.504   0.287
  662SOL    HW2 2122   3.696   2.384   0.287
  663SOL     OW 2123   0.624   0.024   1.575
  663SOL    HW1 2124   0.601   0.117   1.580
  663SOL    HW2 2125   0.710   0.023   1.534
  664SOL     OW 2126   1.502   3.982   0.622
  664SOL    HW1 2127   1.414   3.965   0.588
  664SOL    HW2 2128   1.503   3.936   0.706
  665SOL     OW 2129   2.502   2.479   2.809
  665SOL    HW1 2130   2.488   2.568   2.775
  665SOL    HW2 2131   2.459   2.479   2.895
  666SOL     OW 2132   3.066   2.046   1.741
  666SOL    HW1 2133   3.089   1.953   1.745
  666SOL    HW2 2134   3.070   2.076   1.831
  667SOL     OW 2135   2.899   0.264   0.579
  667SOL    HW1 2136   2.969   0.202   0.562
  667SOL    HW2 2137   2.931   0.347   0.543
  668SOL     OW 2138   1.246   2.117   3.047
  668SOL    HW1 2139   1.257   2.157   3.133
  668SOL    HW2 2140   1.154   2.091   3.044
  669SOL     OW 2141   1.683   3.661   3.688
  669SOL    HW1 2142   1.711   3.582   3.642
  669SOL    HW2 2143   1.736   3.731   3.650
  670SOL     OW 2144   2.212   3.125   1.028
  670SOL    HW1 2145   2.305   3.128   1.005
  670SOL    HW2 2146   2.169   3.174   0.958
  671SOL     OW 2147   0.421   1.173   0.013
  671SOL    HW1 2148   0.483   1.246   0.006
  671SOL    HW2 2149   0.457   1.117   0.082
  672SOL     OW 2150   0.211   1.694   1.739
  672SOL    HW1 2151   0.244   1.604   1.744
  672SOL    HW2 2152   0.159   1.705   1.819
  673SOL     OW 2153   2.183   3.669   2.141
  673SOL    HW1 2154   2.198   3.746   2.195
  673SOL    HW2 2155   2.088   3.661   2.136
  674SOL     OW 2156   0.428   3.960   0.921
  674SOL    HW1 2157   0.375   3.883   0.899
  674SOL    HW2 2158   0.366   4.021   0.961
  675SOL     OW 2159   3.990   0.354   3.169
  675SOL    HW1 2160   3.920   0.350   3.103
  675SOL    HW2 2161   3.949   0.397   3.244
  676SOL     OW 2162   0.689   0.244   0.712
  676SOL    HW1 2163   0.709   0.277   0.625
  676SOL    HW2 2164   0.774   0.243   0.758
  677SOL     OW 2165   2.242   0.025   1.844
  677SOL    HW1 2166   2.255  -0.024   1.925
  677SOL    HW2 2167   2.147   0.026   1.832
  678SOL     OW 2168   0.735   0.429   0.173
  678SOL    HW1 2169   0.766   0.513   0.206
  678SOL    HW2 2170   0.755   0.430   0.080
  679SOL     OW 2171   2.288   2.892   3.479
  679SOL    HW1 2172   2.232   2.904   3.555
  679SOL    HW2 2173   2.367   2.849   3.513
  680SOL     OW 2174   1.296   2.879   0.190
  680SOL    HW1 2175   1.286   2.897   0.097
  680SOL    HW2 2176   1.317   2.786   0.195
  681SOL     OW 2177   0.432   2.082   3.043
  681SOL    HW1 2178   0.351   2.032   3.053
  681SOL    HW2 2179   0.434   2.139   3.120
  682SOL     OW 2180   1.491   1.723   2.009
  682SOL    HW1 2181   1.574   1.766   1.988
  682SOL    HW2 2182   1.460   1.770   2.086
  683SOL     OW 2183   0.122   1.225   1.280
  683SOL    HW1 2184   0.101   1.318   1.292
  683SOL    HW2 2185   0.168   1.222   1.196
  684SOL     OW 2186   3.831   3.733   2.136
  684SOL    HW1 2187   3.876   3.650   2.148
  684SOL    HW2 2188   3.863   3.767   2.053
  685SOL     OW 2189   2.540   3.666   3.947
  685SOL    HW1 2190   2.498   3.599   3.893
  685SOL    HW2 2191   2.575   3.730   3.885
  686SOL     OW 2192   1.032   3.254   1.751
  686SOL    HW1 2193   1.111   3.304   1.772
  686SOL    HW2 2194   0.962   3.299   1.796
  687SOL     OW 2195   1.050   3.076   2.787
  687SOL    HW1 2196   1.041   3.140   2.717
  687SOL    HW2 2197   1.134   3.096   2.828
  688SOL     OW 2198   2.689   0.369   0.079
  688SOL    HW1 2199   2.655   0.299   0.135
  688SOL    HW2 2200   2.767   0.401   0.124
  689SOL     OW 2201   1.094   3.105   2.493
  689SOL    HW1 2202   1.171   3.160   2.480
  689SOL    HW2 2203   1.101   3.037   2.426
  690SOL     OW 2204   0.188   0.967   0.512
  690SOL    HW1 2205   0.093   0.979   0.521
  690SOL    HW2 2206   0.196   0.887   0.460
  691SOL     OW 2207   2.674   0.484   0.823
  691SOL    HW1 2208   2.686   0.496   0.729
  691SOL    HW2 2209   2.752   0.523   0.862
  692SOL     OW 2210   0.924   3.255   0.581
  692SOL    HW1 2211   0.957   3.203   0.654
  692SOL    HW2 2212   0.943   3.203   0.503
  693SOL     OW 2213   1.304   1.430   3.221
  693SOL    HW1 2214   1.307   1.495   3.150
  693SOL    HW2 2215   1.282   1.348   3.177
  694SOL     OW 2216   1.072   0.575   0.949
  694SOL    HW1 2217   1.095   0.533   0.866
  694SOL    HW2 2218   0.996   0.630   0.928
  695SOL     OW 2219   0.940   0.640   0.493
  695SOL    HW1 2220   1.026   0.599   0.502
  695SOL    HW2 2221   0.929   0.653   0.399
  696SOL     OW 2222   3.776   0.131   1.153
  696SOL    HW1 2223   3.764   0.169   1.066
  696SOL    HW2 2224   3.845   0.184   1.193
  697SOL     OW 2225   1.784   2.582   0.458
  697SOL    HW1 2226   1.723   2.616   0.523
  697SOL    HW2 2227   1.837   2.657   0.433
  698SOL     OW 2228   0.591   2.657   1.568
  698SOL    HW1 2229   0.678   2.690   1.592
  698SOL    HW2 2230   0.594   2.565   1.591
  699SOL     OW 2231   1.332   0.282   0.425
  699SOL    HW1 2232   1.411   0.334   0.442
  699SOL    HW2 2233   1.297   0.264   0.512
  700SOL     OW 2234   2.988   2.618   1.622
  700SOL    HW1 2235   3.015   2.535   1.583
  700SOL    HW2 2236   2.919   2.595   1.684
  701SOL     OW 2237   3.093   1.094   1.258
  701SOL    HW1 2238   3.078   1.188   1.261
  701SOL    HW2 2239   3.025   1.061   1.199
  702SOL     OW 2240   0.251   2.579   1.022
  702SOL    HW1 2241   0.283   2.508   0.967
  702SOL    HW2 2242   0.270   2.659   0.972
  703SOL     OW 2243   2.198   1.078   0.676
  703SOL    HW1 2244   2.229   1.060   0.587
  703SOL    HW2 2245   2.274   1.059   0.732
  704SOL     OW 2246   2.548   0.119   1.157
  704SOL    HW1 2247   2.537   0.192   1.095
  704SOL    HW2 2248   2.625   0.072   1.125
  705SOL     OW 2249   1.712   0.838   0.943
  705SOL    HW1 2250   1.711   0.929   0.974
  705SOL    HW2 2251   1.784   0.797   0.991
  706SOL     OW 2252   0.009   1.703   1.453
  706SOL    HW1 2253   0.004   1.793   1.485
  706SOL    HW2 2254  -0.009   1.710   1.360
  707SOL     OW 2255   1.943   0.341   2.918
  707SOL    HW1 2256   1.936   0.299   3.004
  707SOL    HW2 2257   1.854   0.372   2.900
  708SOL     OW 2258   2.347   3.723   3.093
  708SOL    HW1 2259   2.345   3.647   3.151
  708SOL    HW2 2260   2.397   3.789   3.141
  709SOL     OW 2261   1.867   1.225   3.792
  709SOL    HW1 2262   1.843   1.166   3.863
  709SOL    HW2 2263   1.797   1.214   3.727
  710SOL     OW 2264   0.933   1.792   2.169
  710SOL    HW1 2265   0.859   1.804   2.110
  710SOL    HW2 2266   1.010   1.806   2.114
  711SOL     OW 2267   0.172   0.503   1.153
  711SOL    HW1 2268   0.159   0.465   1.066
  711SOL    HW2 2269   0.254   0.551   1.147
  712SOL     OW 2270   2.634   1.585   3.068
  712SOL    HW1 2271   2.722   1.568   3.102
  712SOL    HW2 2272   2.592   1.639   3.134
  713SOL     OW 2273   1.744   0.694   0.532
  713SOL    HW1 2274   1.788   0.758   0.476
  713SOL    HW2 2275   1.783   0.610   0.509
  714SOL     OW 2276   0.948   3.004   3.906
  714SOL    HW1 2277   0.992   3.014   3.821
  714SOL    HW2 2278   1.015   3.028   3.970
  715SOL     OW 2279   3.114   3.252   1.242
  715SOL    HW1 2280   3.109   3.207   1.326
  715SOL    HW2 2281   3.171   3.328   1.258
  716SOL     OW 2282   0.357   2.261   1.001
  716SOL    HW1 2283   0.369   2.224   0.913
  716SOL    HW2 2284   0.428   2.222   1.053
  717SOL     OW 2285   0.754   3.688   0.033
  717SOL    HW1 2286   0.823   3.630   0.001
  717SOL    HW2 2287   0.787   3.719   0.118
  718SOL     OW 2288   1.527   3.020   2.541
  718SOL    HW1 2289   1.449   2.965   2.536
  718SOL    HW2 2290   1.586   2.983   2.476
  719SOL     OW 2291   3.240   3.660   3.448
  719SOL    HW1 2292   3.197   3.645   3.363
  719SOL    HW2 2293   3.182   3.619   3.512
  720SOL     OW 2294   3.700   3.032   1.054
  720SOL    HW1 2295   3.668   2.956   1.007
  720SOL    HW2 2296   3.795   3.020   1.059
  721SOL     OW 2297   1.602   1.714   1.298
  721SOL    HW1 2298   1.599   1.676   1.386
  721SOL    HW2 2299   1.695   1.728   1.280
  722SOL     OW 2300   1.819   3.454   1.626
  722SOL    HW1 2301   1.750   3.388   1.630
  722SOL    HW2 2302   1.808   3.496   1.541
  723SOL     OW 2303   1.253   2.172   2.357
  723SOL    HW1 2304   1.287   2.231   2.424
  723SOL    HW2 2305   1.294   2.202   2.276
  724SOL     OW 2306   1.412   0.592   3.543
  724SOL    HW1 2307   1.409   0.514   3.598
  724SOL    HW2 2308   1.358   0.571   3.467
  725SOL     OW 2309   2.774   3.674   1.922
  725SOL    HW1 2310   2.834   3.626   1.865
  725SOL    HW2 2311   2.714   3.607   1.955
  726SOL     OW 2312   3.836   1.001   2.858
  726SOL    HW1 2313   3.857   0.956   2.940
  726SOL    HW2 2314   3.806   0.931   2.800
  727SOL     OW 2315   3.683   0.804   2.204
  727SOL    HW1 2316   3.755   0.771   2.258
  727SOL    HW2 2317   3.713   0.891   2.175
  728SOL     OW 2318   2.141   0.316   1.445
  728SOL    HW1 2319   2.222   0.272   1.420
  728SOL    HW2 2320   2.080   0.244   1.463
  729SOL     OW 2321   0.983   3.339   2.394
  729SOL    HW1 2322   1.001   3.392   2.472
  729SOL    HW2 2323   1.020   3.253   2.415
  730SOL     OW 2324   0.115   1.638   3.810
  730SOL    HW1 2325   0.033   1.600   3.841
  730SOL    HW2 2326   0.098   1.664   3.719
  731SOL     OW 2327   1.829   1.934   3.225
  731SOL    HW1 2328   1.924   1.930   3.215
  731SOL    HW2 2329   1.800   1.843   3.217
  732SOL     OW 2330   1.921   0.257   2.633
  732SOL    HW1 2331   1.996   0.201   2.613
  732SOL    HW2 2332   1.916   0.258   2.728
  733SOL     OW 2333   0.755   1.566   0.462
  733SOL    HW1 2334   0.819   1.556   0.392
  733SOL    HW2 2335   0.675   1.594   0.417
  734SOL     OW 2336   2.071   0.486   3.268
  734SOL    HW1 2337   2.046   0.399   3.236
  734SOL    HW2 2338   1.992   0.519   3.311
  735SOL     OW 2339   1.561   1.466   1.565
  735SOL    HW1 2340   1.582   1.429   1.651
  735SOL    HW2 2341   1.475   1.507   1.577
  736SOL     OW 2342   1.102   3.852   3.644
  736SOL    HW1 2343   1.100   3.948   3.641
  736SOL    HW2 2344   1.109   3.826   3.553
  737SOL     OW 2345   1.479   2.296   3.244
  737SOL    HW1 2346   1.437   2.350   3.177
  737SOL    HW2 2347   1.524   2.227   3.195
  738SOL     OW 2348   0.788   1.499   1.722
  738SOL    HW1 2349   0.727   1.504   1.648
  738SOL    HW2 2350   0.875   1.497   1.682
  739SOL     OW 2351   3.236   1.452   1.296
  739SOL    HW1 2352   3.254   1.410   1.380
  739SOL    HW2 2353   3.322   1.477   1.263
  740SOL     OW 2354   3.554   1.882   0.565
  740SOL    HW1 2355   3.565   1.974   0.589
  740SOL    HW2 2356   3.461   1.874   0.545
  741SOL     OW 2357   2.883   0.698   3.569
  741SOL    HW1 2358   2.840   0.692   3.483
  741SOL    HW2 2359   2.815   0.673   3.631
  742SOL     OW 2360   3.078   3.541   3.649
  742SOL    HW1 2361   3.115   3.454   3.659
  742SOL    HW2 2362   3.039   3.561   3.734
  743SOL     OW 2363   0.909   0.637   1.822
  743SOL    HW1 2364   0.917   0.670   1.912
  743SOL    HW2 2365   0.998   0.611   1.799
  744SOL     OW 2366   1.729   2.790   3.727
  744SOL    HW1 2367   1.664   2.745   3.780
  744SOL    HW2 2368   1.679   2.828   3.655
  745SOL     OW 2369   1.864   1.620   0.926
  745SOL    HW1 2370   1.949   1.664   0.930
  745SOL    HW2 2371   1.883   1.529   0.948
  746SOL     OW 2372   2.002   3.380   0.578
  746SOL    HW1 2373   1.978   3.408   0.490
  746SOL    HW2 2374   2.042   3.294   0.566
  747SOL     OW 2375   3.145   0.714   3.480
  747SOL    HW1 2376   3.124   0.644   3.418
  747SOL    HW2 2377   3.061   0.734   3.522
  748SOL     OW 2378   0.312   1.302   3.569
  748SOL    HW1 2379   0.361   1.381   3.590
  748SOL    HW2 2380   0.299   1.258   3.653
  749SOL     OW 2381   3.677   1.577   2.188
  749SOL    HW1 2382   3.724   1.633   2.127
  749SOL    HW2 2383   3.613   1.635   2.229
  750SOL     OW 2384   3.957   1.600   0.933
  750SOL    HW1 2385   3.869   1.565   0.923
  750SOL    HW2 2386   3.967   1.663   0.862
  751SOL     OW 2387   3.327   3.392   1.613
  751SOL    HW1 2388   3.326   3.431   1.700
  751SOL    HW2 2389   3.262   3.442   1.563
  752SOL     OW 2390   1.157   1.323   1.508
  752SOL    HW1 2391   1.141   1.415   1.485
  752SOL    HW2 2392   1.252   1.318   1.521
  753SOL     OW 2393   1.302   0.957   3.904
  753SOL    HW1 2394   1.328   1.036   3.952
  753SOL    HW2 2395   1.377   0.939   3.848
  754SOL     OW 2396   2.783   1.212   3.062
  754SOL    HW1 2397   2.742   1.243   3.143
  754SOL    HW2 2398   2.716   1.161   3.018
  755SOL     OW 2399   3.859   3.866   2.644
  755SOL    HW1 2400   3.819   3.848   2.559
  755SOL    HW2 2401   3.791   3.846   2.708
  756SOL     OW 2402   0.063   1.304   2.457
  756SOL    HW1 2403   0.067   1.391   2.497
  756SOL    HW2 2404   0.060   1.244   2.532
  757SOL     OW 2405   1.389   1.762   2.310
  757SOL    HW1 2406   1.439   1.843   2.302
  757SOL    HW2 2407   1.454   1.693   2.299
  758SOL     OW 2408   0.591   2.159   2.534
  758SOL    HW1 2409   0.545   2.120   2.609
  758SOL    HW2 2410   0.661   2.098   2.514
  759SOL     OW 2411   1.092   2.639   2.098
  759SOL    HW1 2412   1.061   2.719   2.055
  759SOL    HW2 2413   1.056   2.643   2.186
  760SOL     OW 2414   1.401   3.715   2.499
  760SOL    HW1 2415   1.385   3.703   2.406
  760SOL    HW2 2416   1.325   3.764   2.530
  761SOL     OW 2417   0.120   3.138   2.774
  761SOL    HW1 2418   0.035   3.178   2.758
  761SOL    HW2 2419   0.143   3.165   2.863
  762SOL     OW 2420   2.440   1.629   0.182
  762SOL    HW1 2421   2.419   1.673   0.265
  762SOL    HW2 2422   2.417   1.537   0.198
  763SOL     OW 2423   3.575   1.789   2.614
  763SOL    HW1 2424   3.517   1.840   2.669
  763SOL    HW2 2425   3.594   1.845   2.539
  764SOL     OW 2426   1.858   2.566   2.407
  764SOL    HW1 2427   1.833   2.552   2.316
  764SOL    HW2 2428   1.878   2.659   2.412
  765SOL     OW 2429   2.350   3.713   0.161
  765SOL    HW1 2430   2.411   3.689   0.092
  765SOL    HW2 2431   2.404   3.756   0.227
  766SOL     OW 2432   3.498   3.074   0.876
  766SOL    HW1 2433   3.453   3.139   0.930
  766SOL    HW2 2434   3.583   3.062   0.919
  767SOL     OW 2435   1.968   2.358   3.271
  767SOL    HW1 2436   1.939   2.353   3.362
  767SOL    HW2 2437   1.960   2.451   3.249
  768SOL     OW 2438   3.448   3.134   3.281
  768SOL    HW1 2439   3.427   3.182   3.201
  768SOL    HW2 2440   3.412   3.046   3.266
  769SOL     OW 2441   3.220   1.005   3.535
  769SOL    HW1 2442   3.228   0.910   3.528
  769SOL    HW2 2443   3.299   1.032   3.581
  770SOL     OW 2444   1.457   0.371   2.296
  770SOL    HW1 2445   1.524   0.309   2.325
  770SOL    HW2 2446   1.503   0.430   2.236
  771SOL     OW 2447   1.939   3.507   1.878
  771SOL    HW1 2448   2.012   3.449   1.860
  771SOL    HW2 2449   1.881   3.498   1.802
  772SOL     OW 2450   3.453   0.128   1.233
  772SOL    HW1 2451   3.547   0.120   1.243
  772SOL    HW2 2452   3.428   0.057   1.174
  773SOL     OW 2453   1.409   1.959   1.218
  773SOL    HW1 2454   1.319   1.927   1.214
  773SOL    HW2 2455   1.463   1.881   1.210
  774SOL     OW 2456   1.513   1.272   3.722
  774SOL    HW1 2457   1.560   1.355   3.722
  774SOL    HW2 2458   1.438   1.287   3.779
  775SOL     OW 2459   3.341   3.209   1.033
  775SOL    HW1 2460   3.297   3.288   1.064
  775SOL    HW2 2461   3.354   3.156   1.112
  776SOL     OW 2462   2.814   0.113   3.124
  776SOL    HW1 2463   2.885   0.075   3.072
  776SOL    HW2 2464   2.823   0.071   3.210
  777SOL     OW 2465   0.117   1.194   0.926
  777SOL    HW1 2466   0.023   1.178   0.921
  777SOL    HW2 2467   0.149   1.131   0.991
  778SOL     OW 2468   0.092   3.759   0.637
  778SOL    HW1 2469   0.155   3.830   0.652
  778SOL    HW2 2470   0.069   3.767   0.545
  779SOL     OW 2471   2.696   1.621   0.055
  779SOL    HW1 2472   2.738   1.670   0.125
  779SOL    HW2 2473   2.602   1.629   0.074
  780SOL     OW 2474   0.334   1.771   2.515
  780SOL    HW1 2475   0.426   1.772   2.487
  780SOL    HW2 2476   0.326   1.847   2.572
  781SOL     OW 2477   1.605   1.916   2.673
  781SOL    HW1 2478   1.693   1.896   2.705
  781SOL    HW2 2479   1.566   1.830   2.656
  782SOL     OW 2480   0.707   1.262   2.772
  782SOL    HW1 2481   0.638   1.328   2.780
  782SOL    HW2 2482   0.718   1.250   2.678
  783SOL     OW 2483   2.481   0.653   2.320
  783SOL    HW1 2484   2.484   0.594   2.395
  783SOL    HW2 2485   2.492   0.741   2.357
  784SOL     OW 2486   2.999   0.039   0.038
  784SOL    HW1 2487   2.906   0.038   0.063
  784SOL    HW2 2488   3.043  -0.003   0.112
  785SOL     OW 2489   2.932   1.828   1.425
  785SOL    HW1 2490   3.026   1.824   1.442
  785SOL    HW2 2491   2.894   1.862   1.506
  786SOL     OW 2492   1.901   1.302   2.782
  786SOL    HW1 2493   1.835   1.234   2.794
  786SOL    HW2 2494   1.913   1.309   2.688
  787SOL     OW 2495   0.357   0.355   1.363
  787SOL    HW1 2496   0.372   0.340   1.269
  787SOL    HW2 2497   0.412   0.289   1.406
  788SOL     OW 2498   0.890   1.117   2.245
  788SOL    HW1 2499   0.945   1.045   2.214
  788SOL    HW2 2500   0.947   1.194   2.243
  789SOL     OW 2501   3.182   3.230   0.162
  789SOL    HW1 2502   3.118   3.299   0.174
  789SOL    HW2 2503   3.213   3.240   0.072
  790SOL     OW 2504   2.517   2.608   2.284
  790SOL    HW1 2505   2.521   2.671   2.213
  790SOL    HW2 2506   2.601   2.616   2.329
  791SOL     OW 2507   2.912   3.607   3.420
  791SOL    HW1 2508   2.933   3.619   3.513
  791SOL    HW2 2509   2.854   3.531   3.418
  792SOL     OW 2510   1.145   3.006   1.286
  792SOL    HW1 2511   1.210   3.013   1.216
  792SOL    HW2 2512   1.197   2.998   1.366
  793SOL     OW 2513   1.896   1.053   1.377
  793SOL    HW1 2514   1.928   1.126   1.430
  793SOL    HW2 2515   1.930   1.071   1.289
  794SOL     OW 2516   3.419   1.139   3.715
  794SOL    HW1 2517   3.503   1.181   3.736
  794SOL    HW2 2518   3.373   1.135   3.798
  795SOL     OW 2519   2.295   0.479   2.522
  795SOL    HW1 2520   2.390   0.479   2.525
  795SOL    HW2 2521   2.269   0.566   2.553
  796SOL     OW 2522   0.907   2.059   1.631
  796SOL    HW1 2523   0.944   2.021   1.711
  796SOL    HW2 2524   0.864   1.985   1.587
  797SOL     OW 2525   3.473   1.007   1.821
  797SOL    HW1 2526   3.506   1.093   1.792
  797SOL    HW2 2527   3.393   1.027   1.868
  798SOL     OW 2528   1.998   0.284   1.979
  798SOL    HW1 2529   1.946   0.240   1.912
  798SOL    HW2 2530   2.037   0.214   2.030
  799SOL     OW 2531   2.232   0.292   0.617
  799SOL    HW1 2532   2.154   0.275   0.670
  799SOL    HW2 2533   2.283   0.355   0.669
  800SOL     OW 2534   3.460   2.270   0.140
  800SOL    HW1 2535   3.375   2.314   0.142
  800SOL    HW2 2536   3.523   2.340   0.159
  801SOL     OW 2537   3.924   3.251   1.128
  801SOL    HW1 2538   3.832   3.233   1.112
  801SOL    HW2 2539   3.927   3.282   1.219
  802SOL     OW 2540   2.525   1.736   3.266
  802SOL    HW1 2541   2.463   1.781   3.210
  802SOL    HW2 2542   2.507   1.769   3.354
  803SOL     OW 2543   3.835   2.589   0.871
  803SOL    HW1 2544   3.840   2.569   0.778
  803SOL    HW2 2545   3.900   2.531   0.911
  804SOL     OW 2546   2.044   0.676   2.376
  804SOL    HW1 2547   2.014   0.603   2.430
  804SOL    HW2 2548   2.131   0.650   2.347
  805SOL     OW 2549   2.006   3.755   3.375
  805SOL    HW1 2550   2.086   3.719   3.413
  805SOL    HW2 2551   2.036   3.828   3.320
  806SOL     OW 2552   0.858   0.376   1.354
  806SOL    HW1 2553   0.875   0.283   1.367
  806SOL    HW2 2554   0.945   0.417   1.361
  807SOL     OW 2555   0.826   2.090   0.995
  807SOL    HW1 2556   0.800   2.035   0.921
  807SOL    HW2 2557   0.922   2.087   0.995
  808SOL     OW 2558   1.099   2.574   3.224
  808SOL    HW1 2559   1.072   2.563   3.315
  808SOL    HW2 2560   1.048   2.648   3.192
  809SOL     OW 2561   0.401   2.660   2.497
  809SOL    HW1 2562   0.415   2.754   2.496
  809SOL    HW2 2563   0.461   2.627   2.564
  810SOL     OW 2564   3.179   2.420   1.751
  810SOL    HW1 2565   3.107   2.393   1.807
  810SOL    HW2 2566   3.207   2.504   1.786
  811SOL     OW 2567   1.175   2.425   0.741
  811SOL    HW1 2568   1.180   2.422   0.645
  811SOL    HW2 2569   1.090   2.467   0.759
  812SOL     OW 2570   0.825   3.351   1.914
  812SOL    HW1 2571   0.788   3.306   1.990
  812SOL    HW2 2572   0.762   3.419   1.893
  813SOL     OW 2573   2.427   2.452   1.490
  813SOL    HW1 2574   2.432   2.356   1.489
  813SOL    HW2 2575   2.335   2.471   1.471
  814SOL     OW 2576   1.331   2.634   3.507
  814SOL    HW1 2577   1.356   2.633   3.599
  814SOL    HW2 2578   1.385   2.566   3.467
  815SOL     OW 2579   1.621   2.478   3.887
  815SOL    HW1 2580   1.711   2.471   3.855
  815SOL    HW2 2581   1.627   2.461   3.981
  816SOL     OW 2582   0.722   3.522   0.410
  816SOL    HW1 2583   0.667   3.499   0.484
  816SOL    HW2 2584   0.801   3.469   0.422
  817SOL     OW 2585   1.158   3.463   1.201
  817SOL    HW1 2586   1.188   3.474   1.291
  817SOL    HW2 2587   1.105   3.540   1.183
  818SOL     OW 2588   2.101   2.226   2.302
  818SOL    HW1 2589   2.012   2.193   2.289
  818SOL    HW2 2590   2.088   2.318   2.327
  819SOL     OW 2591   2.247   0.913   3.066
  819SOL    HW1 2592   2.160   0.895   3.030
  819SOL    HW2 2593   2.287   0.974   3.004
  820SOL     OW 2594   0.554   1.767   3.434
  820SOL    HW1 2595   0.628   1.784   3.376
  820SOL    HW2 2596   0.559   1.673   3.452
  821SOL     OW 2597   2.209   3.118   1.896
  821SOL    HW1 2598   2.213   3.037   1.845
  821SOL    HW2 2599   2.120   3.123   1.929
  822SOL     OW 2600   1.639   3.398   2.610
  822SOL    HW1 2601   1.680   3.312   2.615
  822SOL    HW2 2602   1.626   3.413   2.516
  823SOL     OW 2603   2.311   1.375   0.277
  823SOL    HW1 2604   2.237   1.433   0.257
  823SOL    HW2 2605   2.283   1.327   0.355
  824SOL     OW 2606   1.168   2.851   3.409
  824SOL    HW1 2607   1.248   2.801   3.424
  824SOL    HW2 2608   1.171   2.873   3.316
  825SOL     OW 2609   2.393   3.105   1.312
  825SOL    HW1 2610   2.384   3.198   1.292
  825SOL    HW2 2611   2.423   3.066   1.231
  826SOL     OW 2612   3.786   0.490   2.025
  826SOL    HW1 2613   3.781   0.415   1.965
  826SOL    HW2 2614   3.739   0.560   1.979
  827SOL     OW 2615   2.687   3.200   2.798
  827SOL    HW1 2616   2.617   3.139   2.775
  827SOL    HW2 2617   2.643   3.284   2.812
  828SOL     OW 2618   1.349   3.311   1.651
  828SOL    HW1 2619   1.437   3.305   1.615
  828SOL    HW2 2620   1.309   3.226   1.631
  829SOL     OW 2621   0.031   1.896   0.933
  829SOL    HW1 2622   0.075   1.976   0.961
  829SOL    HW2 2623  -0.060   1.923   0.918
  830SOL     OW 2624   3.052   3.459   2.200
  830SOL    HW1 2625   3.080   3.543   2.164
  830SOL    HW2 2626   2.964   3.476   2.234
  831SOL     OW 2627   0.727   1.044   0.730
  831SOL    HW1 2628   0.729   1.132   0.694
  831SOL    HW2 2629   0.707   1.056   0.823
  832SOL     OW 2630   3.374   0.165   2.273
  832SOL    HW1 2631   3.388   0.198   2.184
  832SOL    HW2 2632   3.280   0.151   2.279
  833SOL     OW 2633   3.265   2.451   0.202
  833SOL    HW1 2634   3.293   2.539   0.227
  833SOL    HW2 2635   3.183   2.437   0.249
  834SOL     OW 2636   0.990   0.074   1.099
  834SOL    HW1 2637   0.958  -0.009   1.064
  834SOL    HW2 2638   0.917   0.134   1.087
  835SOL     OW 2639   1.975   2.391   0.488
  835SOL    HW1 2640   1.934   2.339   0.557
  835SOL    HW2 2641   1.908   2.456   0.465
  836SOL     OW 2642   0.561   1.491   1.517
  836SOL    HW1 2643   0.486   1.478   1.458
  836SOL    HW2 2644   0.553   1.583   1.544
  837SOL     OW 2645   3.243   3.294   3.862
  837SOL    HW1 2646   3.209   3.215   3.820
  837SOL    HW2 2647   3.277   3.347   3.790
  838SOL     OW 2648   1.181   0.216   1.283
  838SOL    HW1 2649   1.189   0.164   1.363
  838SOL    HW2 2650   1.127   0.162   1.225
  839SOL     OW 2651   3.714   1.651   3.508
  839SOL    HW1 2652   3.661   1.700   3.445
  839SOL    HW2 2653   3.802   1.690   3.501
  840SOL     OW 2654   2.828   2.032   1.088
  840SOL    HW1 2655   2.778   2.027   1.006
  840SOL    HW2 2656   2.769   2.074   1.150
  841SOL     OW 2657   2.408   3.380   2.911
  841SOL    HW1 2658   2.382   3.438   2.983
  841SOL    HW2 2659   2.352   3.303   2.921
  842SOL     OW 2660   3.667   0.186   1.602
  842SOL    HW1 2661   3.743   0.128   1.607
  842SOL    HW2 2662   3.604   0.140   1.547
  843SOL     OW 2663   2.496   0.837   1.077
  843SOL    HW1 2664   2.463   0.924   1.099
  843SOL    HW2 2665   2.586   0.851   1.049
  844SOL     OW 2666   1.354   0.423   2.750
  844SOL    HW1 2667   1.339   0.511   2.716
  844SOL    HW2 2668   1.358   0.368   2.672
  845SOL     OW 2669   0.500   1.513   1.868
  845SOL    HW1 2670   0.553   1.514   1.948
  845SOL    HW2 2671   0.563   1.525   1.797
  846SOL     OW 2672   1.041   0.298   0.175
  846SOL    HW1 2673   0.979   0.248   0.122
  846SOL    HW2 2674   1.063   0.240   0.248
  847SOL     OW 2675   0.049   2.764   1.331
  847SOL    HW1 2676   0.127   2.732   1.378
  847SOL    HW2 2677   0.012   2.687   1.289
  848SOL     OW 2678   0.201   3.052   3.445
  848SOL    HW1 2679   0.123   3.007   3.413
  848SOL    HW2 2680   0.249   3.076   3.366
  849SOL     OW 2681   0.117   0.062   0.120
  849SOL    HW1 2682   0.087   0.115   0.046
  849SOL    HW2 2683   0.142  -0.021   0.081
  850SOL     OW 2684   2.370   3.852   3.718
  850SOL    HW1 2685   2.465   3.862   3.723
  850SOL    HW2 2686   2.350   3.856   3.625
  851SOL     OW 2687   1.541   1.365   0.719
  851SOL    HW1 2688   1.509   1.332   0.635
  851SOL    HW2 2689   1.625   1.320   0.732
  852SOL     OW 2690   0.669   0.813   2.294
  852SOL    HW1 2691   0.577   0.834   2.308
  852SOL    HW2 2692   0.712   0.839   2.376
  853SOL     OW 2693   2.250   3.685   0.946
  853SOL    HW1 2694   2.269   3.730   0.863
  853SOL    HW2 2695   2.328   3.700   1.000
  854SOL     OW 2696   1.757   0.006   2.337
  854SOL    HW1 2697   1.741   0.011   2.431
  854SOL    HW2 2698   1.853   0.008   2.329
  855SOL     OW 2699   0.861   0.331   2.923
  855SOL    HW1 2700   0.828   0.248   2.956
  855SOL    HW2 2701   0.957   0.320   2.922
  856SOL     OW 2702   1.249   3.223   2.957
  856SOL    HW1 2703   1.222   3.241   3.047
  856SOL    HW2 2704   1.212   3.295   2.906
  857SOL     OW 2705   3.027   1.037   2.926
  857SOL    HW1 2706   2.994   1.102   2.863
  857SOL    HW2 2707   2.982   1.059   3.007
  858SOL     OW 2708   3.595   0.926   2.766
  858SOL    HW1 2709   3.503   0.909   2.743
  858SOL    HW2 2710   3.594   0.934   2.861
  859SOL     OW 2711   2.847   0.352   3.294
  859SOL    HW1 2712   2.874   0.325   3.206
  859SOL    HW2 2713   2.760   0.314   3.305
  860SOL     OW 2714   2.382   0.199   1.640
  860SOL    HW1 2715   2.335   0.121   1.670
  860SOL    HW2 2716   2.375   0.197   1.545
  861SOL     OW 2717   2.456   3.242   0.875
  861SOL    HW1 2718   2.535   3.259   0.927
  861SOL    HW2 2719   2.464   3.300   0.800
  862SOL     OW 2720   1.107   0.428   0.708
  862SOL    HW1 2721   1.085   0.441   0.615
  862SOL    HW2 2722   1.195   0.389   0.706
  863SOL     OW 2723   0.131   3.561   0.360
  863SOL    HW1 2724   0.131   3.656   0.365
  863SOL    HW2 2725   0.039   3.536   0.370
  864SOL     OW 2726   3.117   0.084   1.213
  864SOL    HW1 2727   3.212   0.101   1.213
  864SOL    HW2 2728   3.081   0.156   1.161
  865SOL     OW 2729   1.464   1.003   3.694
  865SOL    HW1 2730   1.511   0.977   3.615
  865SOL    HW2 2731   1.486   1.095   3.706
  866SOL     OW 2732   0.782   0.270   3.434
  866SOL    HW1 2733   0.721   0.310   3.496
  866SOL    HW2 2734   0.732   0.199   3.393
  867SOL     OW 2735   0.757   1.445   0.868
  867SOL    HW1 2736   0.692   1.462   0.800
  867SOL    HW2 2737   0.819   1.385   0.827
  868SOL     OW 2738   3.134   2.839   0.295
  868SOL    HW1 2739   3.161   2.929   0.315
  868SOL    HW2 2740   3.039   2.844   0.284
  869SOL     OW 2741   2.826   1.191   1.140
  869SOL    HW1 2742   2.850   1.254   1.072
  869SOL    HW2 2743   2.817   1.244   1.220
  870SOL     OW 2744   1.658   1.470   2.070
  870SOL    HW1 2745   1.582   1.508   2.027
  870SOL    HW2 2746   1.733   1.503   2.021
  871SOL     OW 2747   3.486   3.329   2.873
  871SOL    HW1 2748   3.485   3.403   2.812
  871SOL    HW2 2749   3.447   3.257   2.823
  872SOL     OW 2750   2.474   0.849   0.366
  872SOL    HW1 2751   2.565   0.830   0.341
  872SOL    HW2 2752   2.427   0.854   0.282
  873SOL     OW 2753   2.207   1.954   0.684
  873SOL    HW1 2754   2.282   1.979   0.630
  873SOL    HW2 2755   2.131   1.988   0.637
  874SOL     OW 2756   2.636   3.838   1.469
  874SOL    HW1 2757   2.617   3.750   1.501
  874SOL    HW2 2758   2.587   3.896   1.526
  875SOL     OW 2759   2.305   2.654   1.955
  875SOL    HW1 2760   2.332   2.696   2.037
  875SOL    HW2 2761   2.321   2.720   1.888
  876SOL     OW 2762   0.247   2.544   1.466
  876SOL    HW1 2763   0.267   2.467   1.519
  876SOL    HW2 2764   0.329   2.565   1.422
  877SOL     OW 2765   3.679   1.018   2.023
  877SOL    HW1 2766   3.618   1.081   2.063
  877SOL    HW2 2767   3.631   0.985   1.947
  878SOL     OW 2768   2.795   1.219   1.417
  878SOL    HW1 2769   2.800   1.146   1.478
  878SOL    HW2 2770   2.756   1.290   1.468
  879SOL     OW 2771   0.705   1.904   3.641
  879SOL    HW1 2772   0.620   1.893   3.597
  879SOL    HW2 2773   0.758   1.832   3.609
  880SOL     OW 2774   2.292   1.517   2.788
  880SOL    HW1 2775   2.314   1.609   2.775
  880SOL    HW2 2776   2.363   1.470   2.745
  881SOL     OW 2777   2.029   1.811   3.749
  881SOL    HW1 2778   1.947   1.762   3.764
  881SOL    HW2 2779   2.008   1.901   3.775
  882SOL     OW 2780   0.684   0.043   3.314
  882SOL    HW1 2781   0.618  -0.001   3.260
  882SOL    HW2 2782   0.759  -0.016   3.313
  883SOL     OW 2783   2.452   1.809   2.399
  883SOL    HW1 2784   2.390   1.878   2.375
  883SOL    HW2 2785   2.535   1.836   2.360
  884SOL     OW 2786   1.102   0.944   2.208
  884SOL    HW1 2787   1.081   0.915   2.297
  884SOL    HW2 2788   1.146   0.869   2.168
  885SOL     OW 2789   3.537   2.850   1.329
  885SOL    HW1 2790   3.582   2.796   1.264
  885SOL    HW2 2791   3.582   2.831   1.411
  886SOL     OW 2792   0.918   1.161   1.561
  886SOL    HW1 2793   1.005   1.198   1.575
  886SOL    HW2 2794   0.901   1.108   1.639
  887SOL     OW 2795   3.506   1.277   1.761
  887SOL    HW1 2796   3.432   1.330   1.732
  887SOL    HW2 2797   3.518   1.301   1.852
  888SOL     OW 2798   2.110   1.907   0.405
  888SOL    HW1 2799   2.100   1.825   0.453
  888SOL    HW2 2800   2.050   1.900   0.331
  889SOL     OW 2801   3.324   3.491   0.298
  889SOL    HW1 2802   3.298   3.443   0.219
  889SOL    HW2 2803   3.380   3.562   0.266
  890SOL     OW 2804   0.414   0.926   1.894
  890SOL    HW1 2805   0.403   0.832   1.878
  890SOL    HW2 2806   0.334   0.966   1.860
  891SOL     OW 2807   1.470   3.847   3.534
  891SOL    HW1 2808   1.469   3.938   3.564
  891SOL    HW2 2809   1.545   3.842   3.475
  892SOL     OW 2810   3.015   0.394   2.830
  892SOL    HW1 2811   2.946   0.332   2.809
  892SOL    HW2 2812   2.979   0.447   2.902
  893SOL     OW 2813   1.816   1.898   1.247
  893SOL    HW1 2814   1.785   1.973   1.297
  893SOL    HW2 2815   1.908   1.888   1.272
  894SOL     OW 2816   3.357   2.655   0.704
  894SOL    HW1 2817   3.356   2.750   0.714
  894SOL    HW2 2818   3.381   2.622   0.790
  895SOL     OW 2819   3.761   2.910   0.266
  895SOL    HW1 2820   3.701   2.917   0.340
  895SOL    HW2 2821   3.704   2.892   0.191
  896SOL     OW 2822   2.104   2.589   0.185
  896SOL    HW1 2823   2.164   2.517   0.202
  896SOL    HW2 2824   2.067   2.570   0.099
  897SOL     OW 2825   3.729   0.728   1.871
  897SOL    HW1 2826   3.799   0.778   1.911
  897SOL    HW2 2827   3.702   0.780   1.795
  898SOL     OW 2828   0.262   1.482   2.650
  898SOL    HW1 2829   0.316   1.425   2.596
  898SOL    HW2 2830   0.246   1.559   2.595
  899SOL     OW 2831   2.125   3.691   3.747
  899SOL    HW1 2832   2.153   3.635   3.675
  899SOL    HW2 2833   2.186   3.765   3.745
  900SOL     OW 2834   2.270   0.780   0.552
  900SOL    HW1 2835   2.305   0.743   0.633
  900SOL    HW2 2836   2.347   0.802   0.499
  901SOL     OW 2837   1.240   2.594   1.284
  901SOL    HW1 2838   1.309   2.533   1.258
  901SOL    HW2 2839   1.166   2.573   1.228
  902SOL     OW 2840   2.120   3.559   0.123
  902SOL    HW1 2841   2.126   3.508   0.043
  902SOL    HW2 2842   2.205   3.604   0.129
  903SOL     OW 2843   2.560   1.120   2.002
  903SOL    HW1 2844   2.615   1.120   2.080
  903SOL    HW2 2845   2.472   1.142   2.034
  904SOL     OW 2846   0.984   3.245   0.111
  904SOL    HW1 2847   0.949   3.285   0.190
  904SOL    HW2 2848   1.066   3.291   0.094
  905SOL     OW 2849   0.129   2.949   3.152
  905SOL    HW1 2850   0.144   2.908   3.067
  905SOL    HW2 2851   0.033   2.954   3.160
  906SOL     OW 2852   1.542   3.018   1.471
  906SOL    HW1 2853   1.592   2.941   1.443
  906SOL    HW2 2854   1.477   2.982   1.531
  907SOL     OW 2855   0.372   2.854   3.202
  907SOL    HW1 2856   0.281   2.880   3.218
  907SOL    HW2 2857   0.409   2.927   3.153
  908SOL     OW 2858   1.819   3.168   2.976
  908SOL    HW1 2859   1.724   3.177   2.981
  908SOL    HW2 2860   1.836   3.077   3.002
  909SOL     OW 2861   3.145   0.263   0.359
  909SOL    HW1 2862   3.192   0.186   0.325
  909SOL    HW2 2863   3.207   0.304   0.420
  910SOL     OW 2864   2.147   1.326   2.915
  910SOL    HW1 2865   2.064   1.311   2.870
  910SOL    HW2 2866   2.189   1.396   2.866
  911SOL     OW 2867   3.264   1.387   1.914
  911SOL    HW1 2868   3.285   1.434   1.995
  911SOL    HW2 2869   3.268   1.295   1.938
  912SOL     OW 2870   2.195   1.534   3.395
  912SOL    HW1 2871   2.285   1.517   3.425
  912SOL    HW2 2872   2.173   1.458   3.341
  913SOL     OW 2873   1.292   0.702   2.043
  913SOL    HW1 2874   1.242   0.620   2.034
  913SOL    HW2 2875   1.264   0.755   1.968
  914SOL     OW 2876   2.642   0.164   0.646
  914SOL    HW1 2877   2.725   0.193   0.609
  914SOL    HW2 2878   2.666   0.103   0.716
  915SOL     OW 2879   1.728   1.826   1.979
  915SOL    HW1 2880   1.719   1.841   2.073
  915SOL    HW2 2881   1.753   1.912   1.944
  916SOL     OW 2882   3.095   2.304   1.099
  916SOL    HW1 2883   3.133   2.298   1.011
  916SOL    HW2 2884   3.082   2.213   1.125
  917SOL     OW 2885   0.423   3.576   1.191
  917SOL    HW1 2886   0.444   3.577   1.285
  917SOL    HW2 2887   0.505   3.600   1.148
  918SOL     OW 2888   2.067   0.887   1.905
  918SOL    HW1 2889   2.098   0.867   1.994
  918SOL    HW2 2890   2.023   0.807   1.877
  919SOL     OW 2891   3.866   2.630   2.638
  919SOL    HW1 2892   3.943   2.595   2.592
  919SOL    HW2 2893   3.812   2.553   2.655
  920SOL     OW 2894   0.904   1.656   2.811
  920SOL    HW1 2895   0.840   1.610   2.756
  920SOL    HW2 2896   0.927   1.734   2.761
  921SOL     OW 2897   2.677   3.426   1.983
  921SOL    HW1 2898   2.739   3.385   1.923
  921SOL    HW2 2899   2.602   3.366   1.984
  922SOL     OW 2900   1.266   2.329   2.618
  922SOL    HW1 2901   1.322   2.389   2.668
  922SOL    HW2 2902   1.296   2.242   2.644
  923SOL     OW 2903   2.863   0.636   0.916
  923SOL    HW1 2904   2.942   0.637   0.971
  923SOL    HW2 2905   2.820   0.720   0.934
  924SOL     OW 2906   3.248   2.691   1.427
  924SOL    HW1 2907   3.177   2.639   1.391
  924SOL    HW2 2908   3.320   2.681   1.365
  925SOL     OW 2909   0.525   2.285   3.297
  925SOL    HW1 2910   0.435   2.297   3.268
  925SOL    HW2 2911   0.517   2.265   3.391
  926SOL     OW 2912   0.082   1.686   1.992
  926SOL    HW1 2913   0.165   1.680   2.039
  926SOL    HW2 2914   0.053   1.595   1.983
  927SOL     OW 2915   1.048   1.378   1.781
  927SOL    HW1 2916   1.104   1.448   1.815
  927SOL    HW2 2917   1.060   1.382   1.686
  928SOL     OW 2918   2.554   3.050   1.063
  928SOL    HW1 2919   2.579   3.142   1.070
  928SOL    HW2 2920   2.590   3.022   0.979
  929SOL     OW 2921   1.547   3.504   2.094
  929SOL    HW1 2922   1.481   3.521   2.027
  929SOL    HW2 2923   1.589   3.589   2.109
  930SOL     OW 2924   3.516   0.588   3.334
  930SOL    HW1 2925   3.557   0.557   3.254
  930SOL    HW2 2926   3.551   0.677   3.347
  931SOL     OW 2927   1.471   0.499   3.092
  931SOL    HW1 2928   1.489   0.406   3.076
  931SOL    HW2 2929   1.411   0.524   3.022
  932SOL     OW 2930   3.589   2.372   2.576
  932SOL    HW1 2931   3.502   2.383   2.614
  932SOL    HW2 2932   3.604   2.452   2.526
  933SOL     OW 2933   3.173   0.368   2.608
  933SOL    HW1 2934   3.117   0.391   2.683
  933SOL    HW2 2935   3.255   0.414   2.624
  934SOL     OW 2936   1.927   1.905   2.503
  934SOL    HW1 2937   1.849   1.916   2.450
  934SOL    HW2 2938   1.895   1.877   2.589
  935SOL     OW 2939   2.161   3.261   0.209
  935SOL    HW1 2940   2.117   3.332   0.255
  935SOL    HW2 2941   2.254   3.281   0.217
  936SOL     OW 2942   0.697   2.073   3.091
  936SOL    HW1 2943   0.609   2.037   3.081
  936SOL    HW2 2944   0.695   2.121   3.174
  937SOL     OW 2945   2.793   1.984   3.822
  937SOL    HW1 2946   2.839   1.966   3.903
  937SOL    HW2 2947   2.814   2.076   3.802
  938SOL     OW 2948   3.086   2.155   2.928
  938SOL    HW1 2949   3.061   2.233   2.878
  938SOL    HW2 2950   3.180   2.149   2.917
  939SOL     OW 2951   3.867   0.730   0.697
  939SOL    HW1 2952   3.807   0.767   0.762
  939SOL    HW2 2953   3.900   0.650   0.737
  940SOL     OW 2954   0.564   3.232   2.079
  940SOL    HW1 2955   0.572   3.143   2.112
  940SOL    HW2 2956   0.547   3.222   1.985
  941SOL     OW 2957   1.276   3.979   3.088
  941SOL    HW1 2958   1.324   3.971   3.005
  941SOL    HW2 2959   1.291   3.895   3.132
  942SOL     OW 2960   3.232   3.475   0.748
  942SOL    HW1 2961   3.236   3.557   0.698
  942SOL    HW2 2962   3.287   3.414   0.698
  943SOL     OW 2963   2.535   3.291   3.224
  943SOL    HW1 2964   2.471   3.225   3.196
  943SOL    HW2 2965   2.618   3.261   3.188
  944SOL     OW 2966   0.302   1.921   1.655
  944SOL    HW1 2967   0.256   1.843   1.686
  944SOL    HW2 2968   0.234   1.977   1.619
  945SOL     OW 2969   2.682   0.705   3.198
  945SOL    HW1 2970   2.616   0.670   3.258
  945SOL    HW2 2971   2.645   0.694   3.111
  946SOL     OW 2972   1.306   2.749   2.223
  946SOL    HW1 2973   1.235   2.708   2.175
  946SOL    HW2 2974   1.370   2.679   2.235
  947SOL     OW 2975   1.733   2.225   1.022
  947SOL    HW1 2976   1.729   2.143   0.972
  947SOL    HW2 2977   1.690   2.289   0.965
  948SOL     OW 2978   1.121   1.518   2.745
  948SOL    HW1 2979   1.202   1.539   2.791
  948SOL    HW2 2980   1.055   1.574   2.787
  949SOL     OW 2981   1.507   2.676   2.991
  949SOL    HW1 2982   1.496   2.581   3.000
  949SOL    HW2 2983   1.473   2.695   2.903
  950SOL     OW 2984   3.215   3.843   3.188
  950SOL    HW1 2985   3.197   3.881   3.274
  950SOL    HW2 2986   3.194   3.750   3.197
  951SOL     OW 2987   1.702   3.887   1.136
  951SOL    HW1 2988   1.744   3.881   1.051
  951SOL    HW2 2989   1.731   3.971   1.172
  952SOL     OW 2990   3.345   0.170   3.749
  952SOL    HW1 2991   3.318   0.210   3.831
  952SOL    HW2 2992   3.291   0.213   3.682
  953SOL     OW 2993   3.281   0.384   0.566
  953SOL    HW1 2994   3.225   0.415   0.637
  953SOL    HW2 2995   3.358   0.441   0.569
  954SOL     OW 2996   0.615   3.140   0.634
  954SOL    HW1 2997   0.629   3.150   0.728
  954SOL    HW2 2998   0.703   3.128   0.598
  955SOL     OW 2999   0.943   1.558   0.228
  955SOL    HW1 3000   0.965   1.469   0.254
  955SOL    HW2 3001   0.931   1.553   0.133
  956SOL     OW 3002   3.076   0.627   0.343
  956SOL    HW1 3003   3.171   0.617   0.336
  956SOL    HW2 3004   3.058   0.625   0.437
  957SOL     OW 3005   2.406   0.697   1.641
  957SOL    HW1 3006   2.336   0.633   1.657
  957SOL    HW2 3007   2.423   0.734   1.728
  958SOL     OW 3008   3.496   3.674   0.217
  958SOL    HW1 3009   3.587   3.667   0.248
  958SOL    HW2 3010   3.480   3.769   0.212
  959SOL     OW 3011   3.330   1.673   3.755
  959SOL    HW1 3012   3.261   1.607   3.765
  959SOL    HW2 3013   3.357   1.665   3.663
  960SOL     OW 3014   1.838   2.291   3.010
  960SOL    HW1 3015   1.910   2.320   3.067
  960SOL    HW2 3016   1.770   2.261   3.071
  961SOL     OW 3017   0.118   3.869   1.428
  961SOL    HW1 3018   0.121   3.799   1.494
  961SOL    HW2 3019   0.209   3.893   1.413
  962SOL     OW 3020   1.742   0.310   0.763
  962SOL    HW1 3021   1.672   0.351   0.712
  962SOL    HW2 3022   1.722   0.333   0.854
  963SOL     OW 3023   1.136   1.817   1.910
  963SOL    HW1 3024   1.180   1.732   1.905
  963SOL    HW2 3025   1.057   1.806   1.857
  964SOL     OW 3026   2.357   2.749   0.180
  964SOL    HW1 3027   2.324   2.837   0.201
  964SOL    HW2 3028   2.283   2.691   0.199
  965SOL     OW 3029   2.322   1.992   0.056
  965SOL    HW1 3030   2.382   2.008  -0.016
  965SOL    HW2 3031   2.291   1.902   0.043
  966SOL     OW 3032   3.064   2.668   2.561
  966SOL    HW1 3033   3.024   2.638   2.643
  966SOL    HW2 3034   2.994   2.713   2.515
  967SOL     OW 3035   0.166   1.044   1.967
  967SOL    HW1 3036   0.195   1.080   2.051
  967SOL    HW2 3037   0.153   1.120   1.911
  968SOL     OW 3038   0.166   1.454   3.358
  968SOL    HW1 3039   0.224   1.424   3.429
  968SOL    HW2 3040   0.078   1.431   3.388
  969SOL     OW 3041   2.361   2.870   1.762
  969SOL    HW1 3042   2.411   2.805   1.714
  969SOL    HW2 3043   2.307   2.912   1.695
  970SOL     OW 3044   1.434   0.603   1.664
  970SOL    HW1 3045   1.522   0.599   1.627
  970SOL    HW2 3046   1.382   0.543   1.609
  971SOL     OW 3047   0.166   2.290   1.930
  971SOL    HW1 3048   0.092   2.251   1.884
  971SOL    HW2 3049   0.207   2.217   1.977
  972SOL     OW 3050   0.161   2.049   1.218
  972SOL    HW1 3051   0.130   2.094   1.139
  972SOL    HW2 3052   0.256   2.059   1.215
  973SOL     OW 3053   3.063   2.870   1.521
  973SOL    HW1 3054   3.143   2.839   1.479
  973SOL    HW2 3055   3.030   2.794   1.569
  974SOL     OW 3056   1.325   0.283   0.714
  974SOL    HW1 3057   1.350   0.329   0.794
  974SOL    HW2 3058   1.364   0.196   0.722
  975SOL     OW 3059   3.058   2.208   1.500
  975SOL    HW1 3060   3.077   2.207   1.594
  975SOL    HW2 3061   2.963   2.219   1.495
  976SOL     OW 3062   2.286   2.406   3.889
  976SOL    HW1 3063   2.333   2.386   3.971
  976SOL    HW2 3064   2.317   2.339   3.828
  977SOL     OW 3065   2.333   0.433   3.388
  977SOL    HW1 3066   2.252   0.469   3.352
  977SOL    HW2 3067   2.304   0.366   3.450
  978SOL     OW 3068   0.731   1.568   3.653
  978SOL    HW1 3069   0.711   1.531   3.739
  978SOL    HW2 3070   0.662   1.534   3.596
  979SOL     OW 3071   3.878   1.517   0.534
  979SOL    HW1 3072   3.917   1.459   0.600
  979SOL    HW2 3073   3.852   1.595   0.582
  980SOL     OW 3074   0.757   1.309   1.388
  980SOL    HW1 3075   0.699   1.348   1.454
  980SOL    HW2 3076   0.816   1.253   1.439
  981SOL     OW 3077   3.770   1.229   1.609
  981SOL    HW1 3078   3.773   1.321   1.584
  981SOL    HW2 3079   3.736   1.229   1.699
  982SOL     OW 3080   2.762   3.894   2.768
  982SOL    HW1 3081   2.720   3.844   2.839
  982SOL    HW2 3082   2.814   3.829   2.720
  983SOL     OW 3083   1.694   1.863   0.372
  983SOL    HW1 3084   1.717   1.877   0.463
  983SOL    HW2 3085   1.619   1.922   0.357
  984SOL     OW 3086   2.224   2.341   0.510
  984SOL    HW1 3087   2.257   2.390   0.434
  984SOL    HW2 3088   2.133   2.368   0.518
  985SOL     OW 3089   0.969   2.613   3.720
  985SOL    HW1 3090   1.022   2.553   3.773
  985SOL    HW2 3091   0.906   2.650   3.782
  986SOL     OW 3092   3.690   3.856   1.248
  986SOL    HW1 3093   3.728   3.942   1.229
  986SOL    HW2 3094   3.761   3.794   1.230
  987SOL     OW 3095   3.348   1.653   1.135
  987SOL    HW1 3096   3.337   1.734   1.185
  987SOL    HW2 3097   3.261   1.635   1.099
  988SOL     OW 3098   1.515   1.313   0.438
  988SOL    HW1 3099   1.460   1.245   0.399
  988SOL    HW2 3100   1.499   1.391   0.385
  989SOL     OW 3101   0.348   1.804   0.170
  989SOL    HW1 3102   0.274   1.863   0.155
  989SOL    HW2 3103   0.325   1.725   0.121
  990SOL     OW 3104   2.701   2.851   1.471
  990SOL    HW1 3105   2.642   2.861   1.545
  990SOL    HW2 3106   2.664   2.777   1.421
  991SOL     OW 3107   1.536   1.459   2.303
  991SOL    HW1 3108   1.591   1.465   2.225
  991SOL    HW2 3109   1.553   1.371   2.337
  992SOL     OW 3110   1.002   2.140   0.323
  992SOL    HW1 3111   0.931   2.166   0.264
  992SOL    HW2 3112   1.069   2.207   0.311
  993SOL     OW 3113   1.952   3.802   0.691
  993SOL    HW1 3114   2.048   3.803   0.693
  993SOL    HW2 3115   1.930   3.815   0.599
  994SOL     OW 3116   2.406   0.519   0.713
  994SOL    HW1 3117   2.484   0.467   0.732
  994SOL    HW2 3118   2.384   0.560   0.796
  995SOL     OW 3119   0.755   0.535   3.343
  995SOL    HW1 3120   0.761   0.451   3.388
  995SOL    HW2 3121   0.831   0.536   3.284
  996SOL     OW 3122   3.550   2.637   2.474
  996SOL    HW1 3123   3.480   2.686   2.430
  996SOL    HW2 3124   3.561   2.681   2.558
  997SOL     OW 3125   0.053   3.069   1.406
  997SOL    HW1 3126   0.130   3.047   1.459
  997SOL    HW2 3127   0.058   3.010   1.331
  998SOL     OW 3128   3.341   2.793   2.321
  998SOL    HW1 3129   3.289   2.714   2.304
  998SOL    HW2 3130   3.365   2.826   2.235
  999SOL     OW 3131   2.537   0.229   3.357
  999SOL    HW1 3132   2.527   0.284   3.434
  999SOL    HW2 3133   2.468   0.163   3.366
 1000SOL     OW 3134   2.838   1.563   2.542
 1000SOL    HW1 3135   2.752   1.587   2.508
 1000SOL    HW2 3136   2.848   1.614   2.622
 1001SOL     OW 3137   3.448   2.942   2.037
 1001SOL    HW1 3138   3.483   2.963   1.951
 1001SOL    HW2 3139   3.408   3.023   2.068
 1002SOL     OW 3140   0.294   0.030   3.272
 1002SOL    HW1 3141   0.229  -0.036   3.246
 1002SOL    HW2 3142   0.243   0.096   3.319
 1003SOL     OW 3143   1.306   3.245   2.065
 1003SOL    HW1 3144   1.245   3.192   2.116
 1003SOL    HW2 3145   1.392   3.226   2.104
 1004SOL     OW 3146   0.595   0.022   0.433
 1004SOL    HW1 3147   0.657   0.095   0.430
 1004SOL    HW2 3148   0.553   0.023   0.347
 1005SOL     OW 3149   2.967   1.598   0.688
 1005SOL    HW1 3150   3.026   1.543   0.637
 1005SOL    HW2 3151   3.026   1.654   0.740
 1006SOL     OW 3152   2.873   1.412   0.844
 1006SOL    HW1 3153   2.874   1.488   0.785
 1006SOL    HW2 3154   2.877   1.449   0.932
 1007SOL     OW 3155   0.273   3.814   3.953
 1007SOL    HW1 3156   0.278   3.878   3.882
 1007SOL    HW2 3157   0.339   3.749   3.931
 1008SOL     OW 3158   2.006   2.578   3.503
 1008SOL    HW1 3159   1.924   2.532   3.485
 1008SOL    HW2 3160   1.980   2.669   3.515
 1009SOL     OW 3161   3.113   1.612   1.029
 1009SOL    HW1 3162   3.038   1.665   1.001
 1009SOL    HW2 3163   3.075   1.547   1.088
 1010SOL     OW 3164   3.823   3.432   1.349
 1010SOL    HW1 3165   3.747   3.382   1.320
 1010SOL    HW2 3166   3.833   3.501   1.283
 1011SOL     OW 3167   0.875   0.720   2.851
 1011SOL    HW1 3168   0.796   0.679   2.816
 1011SOL    HW2 3169   0.918   0.651   2.901
 1012SOL     OW 3170   1.606   1.097   0.582
 1012SOL    HW1 3171   1.561   1.164   0.531
 1012SOL    HW2 3172   1.583   1.015   0.539
 1013SOL     OW 3173   0.408   1.962   3.587
 1013SOL    HW1 3174   0.430   1.920   3.503
 1013SOL    HW2 3175   0.313   1.973   3.583
 1014SOL     OW 3176   0.116   1.326   1.865
 1014SOL    HW1 3177   0.026   1.350   1.846
 1014SOL    HW2 3178   0.164   1.347   1.785
 1015SOL     OW 3179   0.626   1.108   0.966
 1015SOL    HW1 3180   0.583   1.193   0.968
 1015SOL    HW2 3181   0.650   1.091   1.057
 1016SOL     OW 3182   0.180   2.244   1.502
 1016SOL    HW1 3183   0.169   2.272   1.411
 1016SOL    HW2 3184   0.153   2.320   1.554
 1017SOL     OW 3185   0.009   3.889   2.322
 1017SOL    HW1 3186  -0.047   3.842   2.261
 1017SOL    HW2 3187   0.054   3.954   2.268
 1018SOL     OW 3188   3.438   3.408   2.388
 1018SOL    HW1 3189   3.453   3.392   2.295
 1018SOL    HW2 3190   3.442   3.503   2.398
 1019SOL     OW 3191   3.409   0.528   1.069
 1019SOL    HW1 3192   3.420   0.445   1.022
 1019SOL    HW2 3193   3.494   0.571   1.060
 1020SOL     OW 3194   1.491   1.895   3.506
 1020SOL    HW1 3195   1.444   1.837   3.446
 1020SOL    HW2 3196   1.422   1.948   3.547
 1021SOL     OW 3197   1.600   1.048   1.661
 1021SOL    HW1 3198   1.632   1.121   1.713
 1021SOL    HW2 3199   1.666   0.979   1.673
 1022SOL     OW 3200   1.649   2.188   3.538
 1022SOL    HW1 3201   1.582   2.198   3.470
 1022SOL    HW2 3202   1.725   2.154   3.491
 1023SOL     OW 3203   0.805   0.992   3.715
 1023SOL    HW1 3204   0.893   1.011   3.684
 1023SOL    HW2 3205   0.772   1.075   3.748
 1024SOL     OW 3206   1.567   2.864   0.323
 1024SOL    HW1 3207   1.478   2.885   0.351
 1024SOL    HW2 3208   1.590   2.785   0.373
 1025SOL     OW 3209   1.317   1.604   1.574
 1025SOL    HW1 3210   1.307   1.575   1.483
 1025SOL    HW2 3211   1.227   1.614   1.606
 1026SOL     OW 3212   3.108   0.543   2.301
 1026SOL    HW1 3213   3.198   0.534   2.268
 1026SOL    HW2 3214   3.105   0.630   2.340
 1027SOL     OW 3215   2.677   1.079   2.248
 1027SOL    HW1 3216   2.649   1.151   2.305
 1027SOL    HW2 3217   2.721   1.018   2.306
 1028SOL     OW 3218   0.798   0.295   1.075
 1028SOL    HW1 3219   0.824   0.333   1.159
 1028SOL    HW2 3220   0.766   0.369   1.024
 1029SOL     OW 3221   3.486   3.541   3.242
 1029SOL    HW1 3222   3.437   3.529   3.324
 1029SOL    HW2 3223   3.436   3.492   3.177
 1030SOL     OW 3224   2.002   1.291   0.321
 1030SOL    HW1 3225   1.983   1.218   0.379
 1030SOL    HW2 3226   1.934   1.355   0.340
 1031SOL     OW 3227   2.237   0.631   1.888
 1031SOL    HW1 3228   2.217   0.600   1.976
 1031SOL    HW2 3229   2.326   0.666   1.895
 1032SOL     OW 3230   2.827   1.928   1.660
 1032SOL    HW1 3231   2.772   2.005   1.646
 1032SOL    HW2 3232   2.908   1.964   1.697
 1033SOL     OW 3233   1.933   2.829   2.252
 1033SOL    HW1 3234   2.013   2.876   2.278
 1033SOL    HW2 3235   1.956   2.788   2.169
 1034SOL     OW 3236   1.950   3.011   3.922
 1034SOL    HW1 3237   1.876   2.994   3.980
 1034SOL    HW2 3238   1.941   3.103   3.897
 1035SOL     OW 3239   0.199   2.865   2.811
 1035SOL    HW1 3240   0.121   2.828   2.772
 1035SOL    HW2 3241   0.202   2.955   2.780
 1036SOL     OW 3242   1.583   0.137   1.882
 1036SOL    HW1 3243   1.532   0.218   1.883
 1036SOL    HW2 3244   1.658   0.156   1.827
 1037SOL     OW 3245   2.724   3.181   2.293
 1037SOL    HW1 3246   2.774   3.171   2.212
 1037SOL    HW2 3247   2.685   3.095   2.309
 1038SOL     OW 3248   3.806   1.981   1.362
 1038SOL    HW1 3249   3.858   1.948   1.288
 1038SOL    HW2 3250   3.724   1.931   1.357
 1039SOL     OW 3251   1.671   2.078   2.471
 1039SOL    HW1 3252   1.666   2.039   2.558
 1039SOL    HW2 3253   1.729   2.153   2.481
 1040SOL     OW 3254   1.064   2.428   2.870
 1040SOL    HW1 3255   1.123   2.491   2.829
 1040SOL    HW2 3256   1.031   2.375   2.798
 1041SOL     OW 3257   2.298   2.581   3.407
 1041SOL    HW1 3258   2.212   2.577   3.449
 1041SOL    HW2 3259   2.358   2.545   3.471
 1042SOL     OW 3260   2.555   1.702   1.132
 1042SOL    HW1 3261   2.484   1.733   1.077
 1042SOL    HW2 3262   2.517   1.694   1.219
 1043SOL     OW 3263   0.934   2.669   1.371
 1043SOL    HW1 3264   0.867   2.613   1.333
 1043SOL    HW2 3265   0.990   2.694   1.298
 1044SOL     OW 3266   2.344   2.072   2.349
 1044SOL    HW1 3267   2.411   2.138   2.365
 1044SOL    HW2 3268   2.261   2.119   2.358
 1045SOL     OW 3269   2.372   0.593   3.665
 1045SOL    HW1 3270   2.422   0.550   3.734
 1045SOL    HW2 3271   2.388   0.687   3.678
 1046SOL     OW 3272   3.763   1.748   0.118
 1046SOL    HW1 3273   3.671   1.732   0.140
 1046SOL    HW2 3274   3.774   1.842   0.133
 1047SOL     OW 3275   2.074   1.325   1.387
 1047SOL    HW1 3276   2.116   1.259   1.332
 1047SOL    HW2 3277   2.013   1.369   1.329
 1048SOL     OW 3278   0.157   2.676   0.705
 1048SOL    HW1 3279   0.243   2.710   0.731
 1048SOL    HW2 3280   0.094   2.741   0.735
 1049SOL     OW 3281   2.012   0.084   1.412
 1049SOL    HW1 3282   2.089   0.057   1.363
 1049SOL    HW2 3283   1.978   0.003   1.450
 1050SOL     OW 3284   3.908   2.175   1.771
 1050SOL    HW1 3285   3.939   2.100   1.720
 1050SOL    HW2 3286   3.865   2.231   1.708
 1051SOL     OW 3287   1.417   3.746   1.108
 1051SOL    HW1 3288   1.489   3.804   1.131
 1051SOL    HW2 3289   1.348   3.767   1.171
 1052SOL     OW 3290   3.291   3.488   1.858
 1052SOL    HW1 3291   3.321   3.567   1.902
 1052SOL    HW2 3292   3.221   3.454   1.914
 1053SOL     OW 3293   3.113   3.143   1.480
 1053SOL    HW1 3294   3.185   3.126   1.541
 1053SOL    HW2 3295   3.083   3.056   1.454
 1054SOL     OW 3296   1.556   0.379   1.063
 1054SOL    HW1 3297   1.564   0.441   1.136
 1054SOL    HW2 3298   1.481   0.411   1.013
 1055SOL     OW 3299   0.901   2.988   1.146
 1055SOL    HW1 3300   0.823   2.978   1.201
 1055SOL    HW2 3301   0.973   2.992   1.208
 1056SOL     OW 3302   0.390   1.127   0.741
 1056SOL    HW1 3303   0.424   1.050   0.788
 1056SOL    HW2 3304   0.315   1.155   0.793
 1057SOL     OW 3305   0.538   2.944   2.137
 1057SOL    HW1 3306   0.513   2.860   2.099
 1057SOL    HW2 3307   0.455   2.983   2.166
 1058SOL     OW 3308   0.432   3.203   3.385
 1058SOL    HW1 3309   0.512   3.152   3.368
 1058SOL    HW2 3310   0.423   3.258   3.308
 1059SOL     OW 3311   2.435   1.713   3.877
 1059SOL    HW1 3312   2.360   1.709   3.819
 1059SOL    HW2 3313   2.419   1.645   3.943
 1060SOL     OW 3314   0.331   2.497   0.104
 1060SOL    HW1 3315   0.261   2.465   0.047
 1060SOL    HW2 3316   0.338   2.591   0.084
 1061SOL     OW 3317   0.886   0.982   2.763
 1061SOL    HW1 3318   0.888   0.886   2.764
 1061SOL    HW2 3319   0.797   1.004   2.789
 1062SOL     OW 3320   0.317   2.665   2.930
 1062SOL    HW1 3321   0.264   2.614   2.991
 1062SOL    HW2 3322   0.273   2.750   2.924
 1063SOL     OW 3323   1.141   3.808   2.637
 1063SOL    HW1 3324   1.083   3.884   2.632
 1063SOL    HW2 3325   1.206   3.831   2.703
 1064SOL     OW 3326   1.802   0.140   1.234
 1064SOL    HW1 3327   1.866   0.134   1.304
 1064SOL    HW2 3328   1.832   0.212   1.179
 1065SOL     OW 3329   2.308   0.100   1.337
 1065SOL    HW1 3330   2.296   0.012   1.371
 1065SOL    HW2 3331   2.374   0.091   1.268
 1066SOL     OW 3332   0.174   0.369   0.620
 1066SOL    HW1 3333   0.234   0.444   0.615
 1066SOL    HW2 3334   0.220   0.298   0.577
 1067SOL     OW 3335   2.228   0.724   2.652
 1067SOL    HW1 3336   2.156   0.677   2.695
 1067SOL    HW2 3337   2.206   0.817   2.663
 1068SOL     OW 3338   3.005   2.527   2.196
 1068SOL    HW1 3339   3.070   2.508   2.263
 1068SOL    HW2 3340   3.047   2.592   2.139
 1069SOL     OW 3341   3.001   2.023   1.998
 1069SOL    HW1 3342   3.047   1.996   2.077
 1069SOL    HW2 3343   2.951   1.946   1.972
 1070SOL     OW 3344   1.274   1.210   3.040
 1070SOL    HW1 3345   1.224   1.222   2.958
 1070SOL    HW2 3346   1.346   1.152   3.016
 1071SOL     OW 3347   2.409   0.197  -0.016
 1071SOL    HW1 3348   2.367   0.162   0.063
 1071SOL    HW2 3349   2.502   0.201   0.007
 1072SOL     OW 3350   2.632   0.169   1.460
 1072SOL    HW1 3351   2.646   0.232   1.390
 1072SOL    HW2 3352   2.618   0.085   1.415
 1073SOL     OW 3353   0.448   2.871   1.503
 1073SOL    HW1 3354   0.402   2.856   1.421
 1073SOL    HW2 3355   0.504   2.794   1.513
 1074SOL     OW 3356   0.808   1.217   3.045
 1074SOL    HW1 3357   0.794   1.209   2.950
 1074SOL    HW2 3358   0.842   1.306   3.057
 1075SOL     OW 3359   2.670   1.847   2.279
 1075SOL    HW1 3360   2.700   1.895   2.202
 1075SOL    HW2 3361   2.736   1.865   2.346
 1076SOL     OW 3362   2.280   1.954   3.241
 1076SOL    HW1 3363   2.279   2.049   3.245
 1076SOL    HW2 3364   2.292   1.934   3.148
 1077SOL     OW 3365   1.557   2.571   2.216
 1077SOL    HW1 3366   1.514   2.505   2.270
 1077SOL    HW2 3367   1.629   2.525   2.173
 1078SOL     OW 3368   1.956   1.413   0.651
 1078SOL    HW1 3369   1.914   1.352   0.712
 1078SOL    HW2 3370   2.049   1.407   0.672
 1079SOL     OW 3371   1.356   2.340   3.928
 1079SOL    HW1 3372   1.330   2.302   4.012
 1079SOL    HW2 3373   1.451   2.326   3.924
 1080SOL     OW 3374   3.504   1.479   3.511
 1080SOL    HW1 3375   3.434   1.544   3.525
 1080SOL    HW2 3376   3.585   1.528   3.523
 1081SOL     OW 3377   0.899   2.144   0.572
 1081SOL    HW1 3378   0.952   2.219   0.601
 1081SOL    HW2 3379   0.929   2.125   0.484
 1082SOL     OW 3380   2.935   3.692   1.237
 1082SOL    HW1 3381   2.909   3.758   1.301
 1082SOL    HW2 3382   3.018   3.724   1.201
 1083SOL     OW 3383   0.220   0.431   0.153
 1083SOL    HW1 3384   0.255   0.467   0.071
 1083SOL    HW2 3385   0.297   0.402   0.201
 1084SOL     OW 3386   1.767   3.123   2.649
 1084SOL    HW1 3387   1.692   3.075   2.614
 1084SOL    HW2 3388   1.736   3.157   2.734
 1085SOL     OW 3389   3.839   1.828   2.415
 1085SOL    HW1 3390   3.775   1.877   2.363
 1085SOL    HW2 3391   3.913   1.814   2.356
 1086SOL     OW 3392   2.507   3.026   2.706
 1086SOL    HW1 3393   2.484   3.053   2.618
 1086SOL    HW2 3394   2.523   2.931   2.699
 1087SOL     OW 3395   3.088   1.448   2.825
 1087SOL    HW1 3396   3.146   1.477   2.896
 1087SOL    HW2 3397   3.130   1.479   2.745
 1088SOL     OW 3398   0.422   0.057   2.200
 1088SOL    HW1 3399   0.404   0.036   2.291
 1088SOL    HW2 3400   0.345   0.106   2.171
 1089SOL     OW 3401   2.871   1.419   3.926
 1089SOL    HW1 3402   2.813   1.494   3.914
 1089SOL    HW2 3403   2.835   1.351   3.868
 1090SOL     OW 3404   1.770   2.466   3.496
 1090SOL    HW1 3405   1.723   2.383   3.501
 1090SOL    HW2 3406   1.702   2.533   3.487
 1091SOL     OW 3407   0.632   1.031   2.879
 1091SOL    HW1 3408   0.657   1.120   2.855
 1091SOL    HW2 3409   0.555   1.042   2.934
 1092SOL     OW 3410   2.633   0.283   2.967
 1092SOL    HW1 3411   2.551   0.274   3.014
 1092SOL    HW2 3412   2.699   0.243   3.024
 1093SOL     OW 3413   1.246   3.757   3.427
 1093SOL    HW1 3414   1.284   3.773   3.340
 1093SOL    HW2 3415   1.308   3.795   3.488
 1094SOL     OW 3416   1.336   0.268   3.541
 1094SOL    HW1 3417   1.272   0.198   3.530
 1094SOL    HW2 3418   1.356   0.296   3.452
 1095SOL     OW 3419   2.755   2.487   0.230
 1095SOL    HW1 3420   2.706   2.568   0.217
 1095SOL    HW2 3421   2.844   2.515   0.253
 1096SOL     OW 3422   2.390   0.389   3.094
 1096SOL    HW1 3423   2.364   0.476   3.062
 1096SOL    HW2 3424   2.422   0.405   3.183
 1097SOL     OW 3425   2.737   2.749   3.013
 1097SOL    HW1 3426   2.695   2.788   3.090
 1097SOL    HW2 3427   2.813   2.805   2.997
 1098SOL     OW 3428   0.619   3.182   1.247
 1098SOL    HW1 3429   0.649   3.092   1.234
 1098SOL    HW2 3430   0.527   3.181   1.220
 1099SOL     OW 3431   2.543   2.759   3.274
 1099SOL    HW1 3432   2.496   2.760   3.357
 1099SOL    HW2 3433   2.523   2.674   3.235
 1100SOL     OW 3434   2.856   0.874   3.301
 1100SOL    HW1 3435   2.782   0.934   3.301
 1100SOL    HW2 3436   2.829   0.804   3.241
 1101SOL     OW 3437   1.643   2.730   0.866
 1101SOL    HW1 3438   1.597   2.808   0.897
 1101SOL    HW2 3439   1.640   2.669   0.939
 1102SOL     OW 3440   2.553   2.870   3.569
 1102SOL    HW1 3441   2.600   2.917   3.501
 1102SOL    HW2 3442   2.617   2.809   3.606
 1103SOL     OW 3443   3.886   2.919   3.371
 1103SOL    HW1 3444   3.856   2.875   3.292
 1103SOL    HW2 3445   3.808   2.961   3.407
 1104SOL     OW 3446   1.666   2.829   2.066
 1104SOL    HW1 3447   1.625   2.743   2.051
 1104SOL    HW2 3448   1.747   2.826   2.015
 1105SOL     OW 3449   0.080   1.808   0.403
 1105SOL    HW1 3450   0.100   1.721   0.367
 1105SOL    HW2 3451   0.053   1.791   0.493
 1106SOL     OW 3452   3.803   2.801   1.540
 1106SOL    HW1 3453   3.859   2.742   1.591
 1106SOL    HW2 3454   3.864   2.854   1.489
 1107SOL     OW 3455   1.242   3.454   2.653
 1107SOL    HW1 3456   1.263   3.374   2.605
 1107SOL    HW2 3457   1.184   3.502   2.594
 1108SOL     OW 3458   0.202   2.035   0.533
 1108SOL    HW1 3459   0.226   2.105   0.471
 1108SOL    HW2 3460   0.178   1.961   0.478
 1109SOL     OW 3461   0.111   0.087   2.571
 1109SOL    HW1 3462   0.042   0.021   2.568
 1109SOL    HW2 3463   0.084   0.152   2.507
 1110SOL     OW 3464   0.649   1.885   2.830
 1110SOL    HW1 3465   0.741   1.903   2.811
 1110SOL    HW2 3466   0.645   1.875   2.925
 1111SOL     OW 3467   2.587   0.468   1.530
 1111SOL    HW1 3468   2.603   0.434   1.443
 1111SOL    HW2 3469   2.509   0.523   1.521
 1112SOL     OW 3470   2.783   2.833   2.229
 1112SOL    HW1 3471   2.818   2.896   2.166
 1112SOL    HW2 3472   2.739   2.768   2.174
 1113SOL     OW 3473   0.710   2.101   3.901
 1113SOL    HW1 3474   0.716   2.027   3.841
 1113SOL    HW2 3475   0.690   2.062   3.986
 1114SOL     OW 3476   0.555   2.689   2.761
 1114SOL    HW1 3477   0.469   2.669   2.799
 1114SOL    HW2 3478   0.577   2.775   2.796
 1115SOL     OW 3479   1.685   2.990   3.534
 1115SOL    HW1 3480   1.763   3.039   3.559
 1115SOL    HW2 3481   1.680   2.998   3.439
 1116SOL     OW 3482   3.664   3.698   2.754
 1116SOL    HW1 3483   3.579   3.662   2.730
 1116SOL    HW2 3484   3.691   3.648   2.831
 1117SOL     OW 3485   1.285   0.683   2.699
 1117SOL    HW1 3486   1.286   0.774   2.669
 1117SOL    HW2 3487   1.198   0.651   2.677
 1118SOL     OW 3488   1.066   0.244   2.649
 1118SOL    HW1 3489   1.100   0.224   2.562
 1118SOL    HW2 3490   1.001   0.176   2.665
 1119SOL     OW 3491   1.941   2.839   3.588
 1119SOL    HW1 3492   1.875   2.865   3.652
 1119SOL    HW2 3493   1.945   2.912   3.527
 1120SOL     OW 3494   1.194   1.995   3.399
 1120SOL    HW1 3495   1.258   1.926   3.379
 1120SOL    HW2 3496   1.245   2.076   3.397
 1121SOL     OW 3497   3.871   2.905   2.668
 1121SOL    HW1 3498   3.791   2.933   2.622
 1121SOL    HW2 3499   3.878   2.812   2.649
 1122SOL     OW 3500   1.932   1.591   3.554
 1122SOL    HW1 3501   1.945   1.532   3.480
 1122SOL    HW2 3502   1.869   1.655   3.522
 1123SOL     OW 3503   0.377   0.576   0.548
 1123SOL    HW1 3504   0.469   0.595   0.532
 1123SOL    HW2 3505   0.331   0.622   0.477
 1124SOL     OW 3506   1.192   3.570   1.492
 1124SOL    HW1 3507   1.259   3.538   1.552
 1124SOL    HW2 3508   1.136   3.625   1.546
 1125SOL     OW 3509   3.168   1.066   0.593
 1125SOL    HW1 3510   3.079   1.086   0.564
 1125SOL    HW2 3511   3.187   0.981   0.554
 1126SOL     OW 3512   1.679   3.530   0.412
 1126SOL    HW1 3513   1.675   3.537   0.508
 1126SOL    HW2 3514   1.668   3.437   0.394
 1127SOL     OW 3515   3.352   2.562   2.776
 1127SOL    HW1 3516   3.304   2.540   2.696
 1127SOL    HW2 3517   3.338   2.486   2.833
 1128SOL     OW 3518   2.847   3.285   1.832
 1128SOL    HW1 3519   2.895   3.212   1.871
 1128SOL    HW2 3520   2.852   3.269   1.738
 1129SOL     OW 3521   3.522   0.628   2.496
 1129SOL    HW1 3522   3.473   0.705   2.468
 1129SOL    HW2 3523   3.580   0.607   2.422
 1130SOL     OW 3524   1.570   3.306   1.511
 1130SOL    HW1 3525   1.622   3.234   1.475
 1130SOL    HW2 3526   1.521   3.340   1.436
 1131SOL     OW 3527   2.668   0.231   2.287
 1131SOL    HW1 3528   2.702   0.211   2.200
 1131SOL    HW2 3529   2.740   0.278   2.330
 1132SOL     OW 3530   1.205   0.261   1.740
 1132SOL    HW1 3531   1.157   0.267   1.822
 1132SOL    HW2 3532   1.179   0.177   1.702
 1133SOL     OW 3533   2.680   1.717   3.733
 1133SOL    HW1 3534   2.629   1.677   3.803
 1133SOL    HW2 3535   2.711   1.800   3.771
 1134SOL     OW 3536   2.855   3.274   1.250
 1134SOL    HW1 3537   2.949   3.284   1.238
 1134SOL    HW2 3538   2.845   3.187   1.289
 1135SOL     OW 3539   0.131   3.640   1.578
 1135SOL    HW1 3540   0.169   3.598   1.655
 1135SOL    HW2 3541   0.040   3.611   1.577
 1136SOL     OW 3542   2.463   3.355   0.578
 1136SOL    HW1 3543   2.470   3.446   0.548
 1136SOL    HW2 3544   2.547   3.316   0.554
 1137SOL     OW 3545   0.763   2.847   0.469
 1137SOL    HW1 3546   0.672   2.871   0.452
 1137SOL    HW2 3547   0.787   2.792   0.395
 1138SOL     OW 3548   1.876   3.597   2.141
 1138SOL    HW1 3549   1.897   3.553   2.058
 1138SOL    HW2 3550   1.889   3.529   2.207
 1139SOL     OW 3551   3.476   0.244   3.370
 1139SOL    HW1 3552   3.419   0.260   3.445
 1139SOL    HW2 3553   3.487   0.330   3.329
 1140SOL     OW 3554   2.888   2.283   2.470
 1140SOL    HW1 3555   2.842   2.356   2.427
 1140SOL    HW2 3556   2.819   2.234   2.514
 1141SOL     OW 3557   3.342   0.494   2.206
 1141SOL    HW1 3558   3.390   0.517   2.126
 1141SOL    HW2 3559   3.410   0.470   2.268
 1142SOL     OW 3560   0.570   0.088   3.916
 1142SOL    HW1 3561   0.645   0.051   3.962
 1142SOL    HW2 3562   0.605   0.163   3.868
 1143SOL     OW 3563   1.442   1.171   0.078
 1143SOL    HW1 3564   1.535   1.188   0.065
 1143SOL    HW2 3565   1.437   1.133   0.165
 1144SOL     OW 3566   0.282   0.758   0.355
 1144SOL    HW1 3567   0.213   0.762   0.289
 1144SOL    HW2 3568   0.363   0.750   0.304
 1145SOL     OW 3569   2.289   2.352   0.192
 1145SOL    HW1 3570   2.354   2.286   0.218
 1145SOL    HW2 3571   2.205   2.310   0.209
 1146SOL     OW 3572   0.494   0.029   3.087
 1146SOL    HW1 3573   0.434   0.041   3.160
 1146SOL    HW2 3574   0.445  -0.024   3.024
 1147SOL     OW 3575   3.848   1.538   3.172
 1147SOL    HW1 3576   3.780   1.562   3.110
 1147SOL    HW2 3577   3.809   1.470   3.227
 1148SOL     OW 3578   1.903   0.929   0.318
 1148SOL    HW1 3579   1.875   0.978   0.240
 1148SOL    HW2 3580   1.903   0.995   0.388
 1149SOL     OW 3581   1.151   3.500   3.409
 1149SOL    HW1 3582   1.091   3.496   3.484
 1149SOL    HW2 3583   1.194   3.585   3.417
 1150SOL     OW 3584   0.142   2.006   3.325
 1150SOL    HW1 3585   0.193   1.927   3.342
 1150SOL    HW2 3586   0.059   1.974   3.290
 1151SOL     OW 3587   3.558   3.276   0.186
 1151SOL    HW1 3588   3.546   3.233   0.271
 1151SOL    HW2 3589   3.532   3.210   0.122
 1152SOL     OW 3590   0.773   3.674   2.420
 1152SOL    HW1 3591   0.744   3.745   2.362
 1152SOL    HW2 3592   0.736   3.595   2.380
 1153SOL     OW 3593   0.040   1.772   0.687
 1153SOL    HW1 3594  -0.052   1.759   0.663
 1153SOL    HW2 3595   0.036   1.814   0.773
 1154SOL     OW 3596   2.155   0.873   1.655
 1154SOL    HW1 3597   2.226   0.809   1.652
 1154SOL    HW2 3598   2.124   0.871   1.746
 1155SOL     OW 3599   2.062   0.628   0.003
 1155SOL    HW1 3600   2.054   0.714  -0.039
 1155SOL    HW2 3601   1.986   0.622   0.061
 1156SOL     OW 3602   1.152   2.795   0.932
 1156SOL    HW1 3603   1.057   2.787   0.933
 1156SOL    HW2 3604   1.172   2.836   0.847
 1157SOL     OW 3605   3.115   0.852   2.233
 1157SOL    HW1 3606   3.207   0.842   2.210
 1157SOL    HW2 3607   3.103   0.946   2.248
 1158SOL     OW 3608   3.119   2.980   2.350
 1158SOL    HW1 3609   3.171   2.900   2.351
 1158SOL    HW2 3610   3.144   3.026   2.431
 1159SOL     OW 3611   0.658   1.362   0.026
 1159SOL    HW1 3612   0.614   1.446   0.017
 1159SOL    HW2 3613   0.664   1.348   0.121
 1160SOL     OW 3614   3.643   2.333   0.921
 1160SOL    HW1 3615   3.653   2.417   0.876
 1160SOL    HW2 3616   3.601   2.356   1.004
 1161SOL     OW 3617   0.495   0.910   0.867
 1161SOL    HW1 3618   0.535   0.959   0.938
 1161SOL    HW2 3619   0.454   0.834   0.909
 1162SOL     OW 3620   3.219   1.824   1.802
 1162SOL    HW1 3621   3.238   1.778   1.884
 1162SOL    HW2 3622   3.282   1.896   1.800
 1163SOL     OW 3623   2.068   1.621   0.282
 1163SOL    HW1 3624   2.013   1.638   0.204
 1163SOL    HW2 3625   2.008   1.634   0.356
 1164SOL     OW 3626   2.208   1.412   2.471
 1164SOL    HW1 3627   2.233   1.325   2.439
 1164SOL    HW2 3628   2.281   1.469   2.444
 1165SOL     OW 3629   0.757   2.873   1.880
 1165SOL    HW1 3630   0.688   2.932   1.911
 1165SOL    HW2 3631   0.793   2.917   1.803
 1166SOL     OW 3632   2.058   1.413   3.716
 1166SOL    HW1 3633   2.000   1.468   3.664
 1166SOL    HW2 3634   2.003   1.341   3.747
 1167SOL     OW 3635   1.152   2.451   3.542
 1167SOL    HW1 3636   1.187   2.537   3.520
 1167SOL    HW2 3637   1.080   2.469   3.602
 1168SOL     OW 3638   1.776   3.902   1.603
 1168SOL    HW1 3639   1.807   3.840   1.538
 1168SOL    HW2 3640   1.757   3.849   1.680
 1169SOL     OW 3641   2.742   3.605   2.644
 1169SOL    HW1 3642   2.731   3.520   2.602
 1169SOL    HW2 3643   2.674   3.660   2.606
 1170SOL     OW 3644   2.700   1.969   0.490
 1170SOL    HW1 3645   2.741   2.055   0.482
 1170SOL    HW2 3646   2.768   1.907   0.466
 1171SOL     OW 3647   1.287   0.959   2.632
 1171SOL    HW1 3648   1.340   1.011   2.572
 1171SOL    HW2 3649   1.198   0.969   2.600
 1172SOL     OW 3650   0.780   0.259   2.222
 1172SOL    HW1 3651   0.729   0.192   2.268
 1172SOL    HW2 3652   0.801   0.324   2.289
 1173SOL     OW 3653   3.597   2.997   2.553
 1173SOL    HW1 3654   3.524   3.054   2.527
 1173SOL    HW2 3655   3.557   2.931   2.609
 1174SOL     OW 3656   0.355   0.508   3.893
 1174SOL    HW1 3657   0.332   0.432   3.840
 1174SOL    HW2 3658   0.361   0.580   3.831
 1175SOL     OW 3659   2.669   0.495   0.553
 1175SOL    HW1 3660   2.640   0.407   0.528
 1175SOL    HW2 3661   2.603   0.553   0.516
 1176SOL     OW 3662   2.996   3.118   0.391
 1176SOL    HW1 3663   3.034   3.200   0.424
 1176SOL    HW2 3664   2.990   3.132   0.296
 1177SOL     OW 3665   2.034   2.276   0.239
 1177SOL    HW1 3666   2.042   2.279   0.334
 1177SOL    HW2 3667   1.961   2.335   0.219
 1178SOL     OW 3668   2.469   2.161   0.242
 1178SOL    HW1 3669   2.562   2.141   0.251
 1178SOL    HW2 3670   2.446   2.130   0.155
 1179SOL     OW 3671   3.386   2.279   0.548
 1179SOL    HW1 3672   3.301   2.295   0.589
 1179SOL    HW2 3673   3.412   2.364   0.513
 1180SOL     OW 3674   1.379   1.438   1.326
 1180SOL    HW1 3675   1.408   1.359   1.370
 1180SOL    HW2 3676   1.459   1.482   1.300
 1181SOL     OW 3677   0.148   0.995   2.646
 1181SOL    HW1 3678   0.068   0.966   2.689
 1181SOL    HW2 3679   0.180   0.917   2.600
 1182SOL     OW 3680   2.052   3.498   0.971
 1182SOL    HW1 3681   2.104   3.427   0.935
 1182SOL    HW2 3682   2.106   3.576   0.958
 1183SOL     OW 3683   2.424   3.747   1.640
 1183SOL    HW1 3684   2.340   3.794   1.644
 1183SOL    HW2 3685   2.454   3.743   1.731
 1184SOL     OW 3686   0.151   3.428   1.418
 1184SOL    HW1 3687   0.057   3.427   1.398
 1184SOL    HW2 3688   0.166   3.516   1.453
 1185SOL     OW 3689   2.780   2.241   3.718
 1185SOL    HW1 3690   2.774   2.273   3.808
 1185SOL    HW2 3691   2.689   2.228   3.690
 1186SOL     OW 3692   3.403   0.936   3.277
 1186SOL    HW1 3693   3.321   0.968   3.314
 1186SOL    HW2 3694   3.468   0.950   3.346
 1187SOL     OW 3695   1.087   2.395   3.854
 1187SOL    HW1 3696   1.060   2.306   3.834
 1187SOL    HW2 3697   1.166   2.385   3.906
 1188SOL     OW 3698   1.704   1.650   2.376
 1188SOL    HW1 3699   1.667   1.687   2.456
 1188SOL    HW2 3700   1.649   1.574   2.357
 1189SOL     OW 3701   1.421   3.054   3.588
 1189SOL    HW1 3702   1.423   3.089   3.677
 1189SOL    HW2 3703   1.513   3.047   3.563
 1190SOL     OW 3704   1.471   3.507   2.804
 1190SOL    HW1 3705   1.551   3.482   2.756
 1190SOL    HW2 3706   1.402   3.505   2.738
 1191SOL     OW 3707   1.470   1.388   1.815
 1191SOL    HW1 3708   1.402   1.324   1.795
 1191SOL    HW2 3709   1.541   1.337   1.854
 1192SOL     OW 3710   1.692   0.492   2.177
 1192SOL    HW1 3711   1.772   0.465   2.133
 1192SOL    HW2 3712   1.696   0.449   2.263
 1193SOL     OW 3713   1.399   2.526   1.779
 1193SOL    HW1 3714   1.306   2.526   1.803
 1193SOL    HW2 3715   1.446   2.533   1.862
 1194SOL     OW 3716   1.268   0.069   0.903
 1194SOL    HW1 3717   1.210   0.085   0.978
 1194SOL    HW2 3718   1.354   0.053   0.942
 1195SOL     OW 3719   2.287   3.554   3.575
 1195SOL    HW1 3720   2.355   3.592   3.519
 1195SOL    HW2 3721   2.334   3.527   3.654
 1196SOL     OW 3722   2.360   0.487   1.094
 1196SOL    HW1 3723   2.370   0.548   1.167
 1196SOL    HW2 3724   2.269   0.458   1.099
 1197SOL     OW 3725   0.449   0.512   1.126
 1197SOL    HW1 3726   0.471   0.479   1.039
 1197SOL    HW2 3727   0.534   0.538   1.164
 1198SOL     OW 3728   2.071   3.160   3.135
 1198SOL    HW1 3729   2.113   3.132   3.054
 1198SOL    HW2 3730   1.979   3.171   3.111
 1199SOL     OW 3731   0.286   1.497   1.225
 1199SOL    HW1 3732   0.264   1.519   1.315
 1199SOL    HW2 3733   0.206   1.515   1.175
 1200SOL     OW 3734   3.417   3.620   3.766
 1200SOL    HW1 3735   3.482   3.574   3.820
 1200SOL    HW2 3736   3.419   3.573   3.683
 1201SOL     OW 3737   0.683   3.059   3.353
 1201SOL    HW1 3738   0.767   3.075   3.310
 1201SOL    HW2 3739   0.670   2.964   3.348
 1202SOL     OW 3740   2.129   1.216   0.094
 1202SOL    HW1 3741   2.093   1.284   0.151
 1202SOL    HW2 3742   2.198   1.176   0.147
 1203SOL     OW 3743   3.323   0.994   0.842
 1203SOL    HW1 3744   3.332   1.007   0.936
 1203SOL    HW2 3745   3.329   0.899   0.830
 1204SOL     OW 3746   1.720   0.129   2.858
 1204SOL    HW1 3747   1.709   0.160   2.768
 1204SOL    HW2 3748   1.686   0.200   2.912
 1205SOL     OW 3749   1.133   2.872   3.702
 1205SOL    HW1 3750   1.155   2.871   3.608
 1205SOL    HW2 3751   1.098   2.785   3.719
 1206SOL     OW 3752   0.672   3.576   3.633
 1206SOL    HW1 3753   0.756   3.531   3.642
 1206SOL    HW2 3754   0.607   3.505   3.630
 1207SOL     OW 3755   3.550   1.507   2.591
 1207SOL    HW1 3756   3.638   1.479   2.569
 1207SOL    HW2 3757   3.560   1.598   2.621
 1208SOL     OW 3758   2.727   2.689   2.644
 1208SOL    HW1 3759   2.781   2.765   2.623
 1208SOL    HW2 3760   2.639   2.724   2.656
 1209SOL     OW 3761   1.641   1.153   2.827
 1209SOL    HW1 3762   1.616   1.093   2.898
 1209SOL    HW2 3763   1.616   1.107   2.747
 1210SOL     OW 3764   2.747   3.390   3.433
 1210SOL    HW1 3765   2.688   3.375   3.359
 1210SOL    HW2 3766   2.727   3.318   3.493
 1211SOL     OW 3767   2.139   2.482   0.934
 1211SOL    HW1 3768   2.228   2.466   0.902
 1211SOL    HW2 3769   2.125   2.576   0.920
 1212SOL     OW 3770   1.978   0.224   3.506
 1212SOL    HW1 3771   2.047   0.284   3.533
 1212SOL    HW2 3772   1.902   0.249   3.557
 1213SOL     OW 3773   1.752   0.854   2.773
 1213SOL    HW1 3774   1.691   0.818   2.837
 1213SOL    HW2 3775   1.829   0.879   2.825
 1214SOL     OW 3776  -0.013   2.621   1.724
 1214SOL    HW1 3777  -0.025   2.643   1.816
 1214SOL    HW2 3778   0.066   2.566   1.723
 1215SOL     OW 3779   1.528   3.154   2.944
 1215SOL    HW1 3780   1.455   3.213   2.923
 1215SOL    HW2 3781   1.490   3.090   3.005
 1216SOL     OW 3782   3.010   3.139   0.989
 1216SOL    HW1 3783   3.079   3.089   1.032
 1216SOL    HW2 3784   2.962   3.179   1.061
 1217SOL     OW 3785   1.155   2.130   1.007
 1217SOL    HW1 3786   1.230   2.150   0.951
 1217SOL    HW2 3787   1.177   2.168   1.092
 1218SOL     OW 3788   3.596   3.752   1.507
 1218SOL    HW1 3789   3.582   3.811   1.433
 1218SOL    HW2 3790   3.559   3.668   1.478
 1219SOL     OW 3791   0.978   2.649   2.342
 1219SOL    HW1 3792   0.888   2.680   2.351
 1219SOL    HW2 3793   0.990   2.588   2.415
 1220SOL     OW 3794   0.153   0.454   2.699
 1220SOL    HW1 3795   0.196   0.424   2.779
 1220SOL    HW2 3796   0.069   0.409   2.698
 1221SOL     OW 3797   1.229   1.359   0.025
 1221SOL    HW1 3798   1.295   1.428   0.020
 1221SOL    HW2 3799   1.279   1.280   0.045
 1222SOL     OW 3800   0.956   0.335   3.184
 1222SOL    HW1 3801   0.906   0.360   3.107
 1222SOL    HW2 3802   0.893   0.285   3.237
 1223SOL     OW 3803   1.157   2.283   3.262
 1223SOL    HW1 3804   1.072   2.306   3.225
 1223SOL    HW2 3805   1.156   2.322   3.350
 1224SOL     OW 3806   0.506   2.904   0.478
 1224SOL    HW1 3807   0.504   2.974   0.543
 1224SOL    HW2 3808   0.433   2.924   0.419
 1225SOL     OW 3809   2.474   3.200   1.931
 1225SOL    HW1 3810   2.456   3.222   2.022
 1225SOL    HW2 3811   2.394   3.156   1.901
 1226SOL     OW 3812   2.157   2.681   2.797
 1226SOL    HW1 3813   2.253   2.676   2.797
 1226SOL    HW2 3814   2.129   2.594   2.826
 1227SOL     OW 3815   0.938   3.530   3.225
 1227SOL    HW1 3816   0.941   3.441   3.189
 1227SOL    HW2 3817   1.000   3.528   3.298
 1228SOL     OW 3818   0.981   1.479   3.903
 1228SOL    HW1 3819   1.067   1.437   3.899
 1228SOL    HW2 3820   0.929   1.434   3.836
 1229SOL     OW 3821   1.274   3.439   1.872
 1229SOL    HW1 3822   1.278   3.371   1.939
 1229SOL    HW2 3823   1.291   3.392   1.790
 1230SOL     OW 3824   3.509   3.566   1.328
 1230SOL    HW1 3825   3.506   3.494   1.391
 1230SOL    HW2 3826   3.519   3.523   1.243
 1231SOL     OW 3827   1.641   3.031   0.114
 1231SOL    HW1 3828   1.589   2.972   0.169
 1231SOL    HW2 3829   1.676   3.096   0.174
 1232SOL     OW 3830   1.514   3.808   0.830
 1232SOL    HW1 3831   1.457   3.772   0.898
 1232SOL    HW2 3832   1.601   3.772   0.849
 1233SOL     OW 3833   3.824   2.261   1.194
 1233SOL    HW1 3834   3.875   2.240   1.116
 1233SOL    HW2 3835   3.746   2.206   1.187
 1234SOL     OW 3836   2.523   3.253   3.766
 1234SOL    HW1 3837   2.471   3.173   3.762
 1234SOL    HW2 3838   2.613   3.224   3.749
 1235SOL     OW 3839   1.058   0.178   3.537
 1235SOL    HW1 3840   0.988   0.181   3.472
 1235SOL    HW2 3841   1.027   0.235   3.607
 1236SOL     OW 3842   3.449   0.741   1.427
 1236SOL    HW1 3843   3.502   0.795   1.369
 1236SOL    HW2 3844   3.488   0.654   1.420
 1237SOL     OW 3845   1.244   3.793   1.294
 1237SOL    HW1 3846   1.222   3.713   1.341
 1237SOL    HW2 3847   1.232   3.863   1.358
 1238SOL     OW 3848   0.294   2.192   0.330
 1238SOL    HW1 3849   0.333   2.157   0.250
 1238SOL    HW2 3850   0.334   2.278   0.341
 1239SOL     OW 3851   0.528   0.829   3.878
 1239SOL    HW1 3852   0.570   0.781   3.807
 1239SOL    HW2 3853   0.497   0.911   3.838
 1240SOL     OW 3854   1.240   1.559   3.622
 1240SOL    HW1 3855   1.296   1.495   3.578
 1240SOL    HW2 3856   1.152   1.541   3.588
 1241SOL     OW 3857   0.856   3.466   0.775
 1241SOL    HW1 3858   0.930   3.417   0.811
 1241SOL    HW2 3859   0.872   3.468   0.681
 1242SOL     OW 3860   0.944   1.234   3.349
 1242SOL    HW1 3861   0.881   1.210   3.281
 1242SOL    HW2 3862   1.000   1.157   3.357
 1243SOL     OW 3863   3.295   3.065   0.315
 1243SOL    HW1 3864   3.253   3.122   0.251
 1243SOL    HW2 3865   3.286   3.111   0.398
 1244SOL     OW 3866   1.220   3.978   1.505
 1244SOL    HW1 3867   1.302   3.955   1.549
 1244SOL    HW2 3868   1.153   3.929   1.553
 1245SOL     OW 3869   0.156   0.907   0.810
 1245SOL    HW1 3870   0.179   0.866   0.726
 1245SOL    HW2 3871   0.143   0.999   0.788
 1246SOL     OW 3872   0.517   3.337   2.974
 1246SOL    HW1 3873   0.513   3.428   2.946
 1246SOL    HW2 3874   0.426   3.306   2.966
 1247SOL     OW 3875   1.298   1.078   0.956
 1247SOL    HW1 3876   1.378   1.032   0.979
 1247SOL    HW2 3877   1.238   1.062   1.029
 1248SOL     OW 3878   1.711   1.748   3.443
 1248SOL    HW1 3879   1.652   1.812   3.483
 1248SOL    HW2 3880   1.712   1.771   3.350
 1249SOL     OW 3881   0.065   0.236   2.338
 1249SOL    HW1 3882   0.133   0.209   2.277
 1249SOL    HW2 3883   0.052   0.329   2.321
 1250SOL     OW 3884   3.712   1.487   0.983
 1250SOL    HW1 3885   3.657   1.424   1.029
 1250SOL    HW2 3886   3.678   1.572   1.011
 1251SOL     OW 3887   1.280   3.388   0.060
 1251SOL    HW1 3888   1.300   3.353  -0.027
 1251SOL    HW2 3889   1.308   3.479   0.056
 1252SOL     OW 3890   0.167   3.524   0.018
 1252SOL    HW1 3891   0.191   3.616   0.009
 1252SOL    HW2 3892   0.224   3.491   0.088
 1253SOL     OW 3893   2.848   2.373   0.850
 1253SOL    HW1 3894   2.892   2.458   0.843
 1253SOL    HW2 3895   2.760   2.394   0.881
 1254SOL     OW 3896   0.229   1.528   0.418
 1254SOL    HW1 3897   0.287   1.459   0.385
 1254SOL    HW2 3898   0.148   1.483   0.440
 1255SOL     OW 3899   0.136   1.113   2.248
 1255SOL    HW1 3900   0.115   1.031   2.291
 1255SOL    HW2 3901   0.144   1.176   2.320
 1256SOL     OW 3902   3.083   0.864   0.082
 1256SOL    HW1 3903   3.009   0.806   0.065
 1256SOL    HW2 3904   3.152   0.833   0.023
 1257SOL     OW 3905   0.579   2.218   0.652
 1257SOL    HW1 3906   0.642   2.207   0.723
 1257SOL    HW2 3907   0.498   2.179   0.685
 1258SOL     OW 3908   3.429   0.300   0.910
 1258SOL    HW1 3909   3.395   0.213   0.929
 1258SOL    HW2 3910   3.521   0.285   0.887
 1259SOL     OW 3911   0.472   2.484   1.938
 1259SOL    HW1 3912   0.563   2.514   1.937
 1259SOL    HW2 3913   0.475   2.401   1.987
 1260SOL     OW 3914   0.869   1.828   1.827
 1260SOL    HW1 3915   0.796   1.817   1.888
 1260SOL    HW2 3916   0.831   1.807   1.741
 1261SOL     OW 3917   3.101   3.353   2.983
 1261SOL    HW1 3918   3.070   3.293   2.914
 1261SOL    HW2 3919   3.090   3.440   2.946
 1262SOL     OW 3920   2.920   2.789   1.177
 1262SOL    HW1 3921   2.909   2.744   1.094
 1262SOL    HW2 3922   2.897   2.724   1.243
 1263SOL     OW 3923   1.101   0.925   0.438
 1263SOL    HW1 3924   1.130   0.932   0.347
 1263SOL    HW2 3925   1.132   0.839   0.467
 1264SOL     OW 3926   0.641   2.817   0.197
 1264SOL    HW1 3927   0.551   2.785   0.192
 1264SOL    HW2 3928   0.638   2.906   0.162
 1265SOL     OW 3929   2.715   1.012   1.822
 1265SOL    HW1 3930   2.663   1.069   1.880
 1265SOL    HW2 3931   2.739   0.938   1.878
 1266SOL     OW 3932   3.576   3.289   0.497
 1266SOL    HW1 3933   3.617   3.363   0.451
 1266SOL    HW2 3934   3.649   3.247   0.544
 1267SOL     OW 3935   0.313   1.541   0.027
 1267SOL    HW1 3936   0.250   1.526  -0.043
 1267SOL    HW2 3937   0.269   1.508   0.106
 1268SOL     OW 3938   2.833   0.981   1.557
 1268SOL    HW1 3939   2.783   0.954   1.634
 1268SOL    HW2 3940   2.886   0.905   1.534
 1269SOL     OW 3941   1.981   0.858   2.964
 1269SOL    HW1 3942   1.941   0.773   2.984
 1269SOL    HW2 3943   1.959   0.912   3.040
 1270SOL     OW 3944   1.868   0.606   0.181
 1270SOL    HW1 3945   1.870   0.524   0.230
 1270SOL    HW2 3946   1.924   0.665   0.231
 1271SOL     OW 3947   0.129   0.866   0.112
 1271SOL    HW1 3948   0.049   0.918   0.120
 1271SOL    HW2 3949   0.198   0.922   0.149
 1272SOL     OW 3950   3.541   0.823   0.392
 1272SOL    HW1 3951   3.603   0.782   0.453
 1272SOL    HW2 3952   3.571   0.913   0.385
 1273SOL     OW 3953   1.973   1.969   0.093
 1273SOL    HW1 3954   1.897   2.006   0.137
 1273SOL    HW2 3955   2.011   2.043   0.045
 1274SOL     OW 3956   1.141   1.224   2.824
 1274SOL    HW1 3957   1.119   1.187   2.739
 1274SOL    HW2 3958   1.114   1.316   2.818
 1275SOL     OW 3959   3.942   1.577   2.506
 1275SOL    HW1 3960   3.889   1.651   2.474
 1275SOL    HW2 3961   3.947   1.590   2.601
 1276SOL     OW 3962   0.257   1.328   2.109
 1276SOL    HW1 3963   0.194   1.350   2.040
 1276SOL    HW2 3964   0.214   1.262   2.161
 1277SOL     OW 3965   1.800   1.858   0.635
 1277SOL    HW1 3966   1.740   1.850   0.710
 1277SOL    HW2 3967   1.883   1.823   0.667
 1278SOL     OW 3968   3.521   2.096   2.610
 1278SOL    HW1 3969   3.540   2.188   2.593
 1278SOL    HW2 3970   3.517   2.090   2.705
 1279SOL     OW 3971   1.217   0.493   2.351
 1279SOL    HW1 3972   1.252   0.506   2.263
 1279SOL    HW2 3973   1.284   0.442   2.396
 1280SOL     OW 3974   3.161   0.152   1.696
 1280SOL    HW1 3975   3.117   0.069   1.714
 1280SOL    HW2 3976   3.248   0.126   1.665
 1281SOL     OW 3977   3.786   3.849   0.811
 1281SOL    HW1 3978   3.715   3.789   0.787
 1281SOL    HW2 3979   3.818   3.814   0.895
 1282SOL     OW 3980   0.359   0.822   3.125
 1282SOL    HW1 3981   0.436   0.772   3.150
 1282SOL    HW2 3982   0.291   0.757   3.111
 1283SOL     OW 3983   1.418   0.159   0.199
 1283SOL    HW1 3984   1.507   0.127   0.220
 1283SOL    HW2 3985   1.389   0.202   0.279
 1284SOL     OW 3986   0.627   3.209   3.823
 1284SOL    HW1 3987   0.700   3.212   3.761
 1284SOL    HW2 3988   0.552   3.243   3.774
 1285SOL     OW 3989   0.319   0.660   1.807
 1285SOL    HW1 3990   0.275   0.586   1.849
 1285SOL    HW2 3991   0.345   0.625   1.721
 1286SOL     OW 3992   2.451   1.490   2.087
 1286SOL    HW1 3993   2.525   1.482   2.027
 1286SOL    HW2 3994   2.402   1.566   2.055
 1287SOL     OW 3995   2.931   0.788   2.851
 1287SOL    HW1 3996   2.974   0.869   2.878
 1287SOL    HW2 3997   2.895   0.808   2.765
 1288SOL     OW 3998   0.663   3.373   0.949
 1288SOL    HW1 3999   0.727   3.404   0.885
 1288SOL    HW2 4000   0.698   3.401   1.034
 1289SOL     OW 4001   1.569   0.785   0.732
 1289SOL    HW1 4002   1.628   0.819   0.800
 1289SOL    HW2 4003   1.628   0.752   0.664
 1290SOL     OW 4004   0.783   1.810   1.567
 1290SOL    HW1 4005   0.800   1.730   1.518
 1290SOL    HW2 4006   0.735   1.866   1.505
 1291SOL     OW 4007   3.599   2.893   0.064
 1291SOL    HW1 4008   3.575   2.831  -0.005
 1291SOL    HW2 4009   3.566   2.978   0.034
 1292SOL     OW 4010   1.604   1.079   3.345
 1292SOL    HW1 4011   1.517   1.121   3.344
 1292SOL    HW2 4012   1.591   0.998   3.394
 1293SOL     OW 4013   0.824   3.069   1.693
 1293SOL    HW1 4014   0.869   3.003   1.639
 1293SOL    HW2 4015   0.893   3.132   1.715
 1294SOL     OW 4016   2.347   1.103   2.471
 1294SOL    HW1 4017   2.280   1.084   2.537
 1294SOL    HW2 4018   2.315   1.059   2.392
 1295SOL     OW 4019   2.458   3.312   0.164
 1295SOL    HW1 4020   2.515   3.378   0.126
 1295SOL    HW2 4021   2.477   3.232   0.115
 1296SOL     OW 4022   1.776   3.677   0.835
 1296SOL    HW1 4023   1.801   3.585   0.829
 1296SOL    HW2 4024   1.844   3.724   0.787
 1297SOL     OW 4025   1.702   3.996   3.149
 1297SOL    HW1 4026   1.665   3.925   3.202
 1297SOL    HW2 4027   1.745   3.951   3.076
 1298SOL     OW 4028   0.406   3.526   2.778
 1298SOL    HW1 4029   0.418   3.581   2.701
 1298SOL    HW2 4030   0.360   3.448   2.745
 1299SOL     OW 4031   3.899   2.232   2.645
 1299SOL    HW1 4032   3.982   2.252   2.689
 1299SOL    HW2 4033   3.877   2.143   2.673
 1300SOL     OW 4034   3.269   1.972   2.543
 1300SOL    HW1 4035   3.358   2.006   2.559
 1300SOL    HW2 4036   3.230   1.965   2.630
 1301SOL     OW 4037   2.216   0.325   2.737
 1301SOL    HW1 4038   2.230   0.375   2.656
 1301SOL    HW2 4039   2.188   0.391   2.801
 1302SOL     OW 4040   0.981   1.873   3.256
 1302SOL    HW1 4041   0.931   1.834   3.328
 1302SOL    HW2 4042   1.043   1.932   3.299
 1303SOL     OW 4043   1.952   3.119   3.517
 1303SOL    HW1 4044   2.028   3.177   3.522
 1303SOL    HW2 4045   1.902   3.151   3.442
 1304SOL     OW 4046   0.342   0.550   1.550
 1304SOL    HW1 4047   0.401   0.621   1.525
 1304SOL    HW2 4048   0.358   0.482   1.485
 1305SOL     OW 4049   2.326   2.253   0.728
 1305SOL    HW1 4050   2.346   2.163   0.701
 1305SOL    HW2 4051   2.287   2.293   0.651
 1306SOL     OW 4052   2.089   1.632   3.039
 1306SOL    HW1 4053   2.067   1.539   3.049
 1306SOL    HW2 4054   2.062   1.673   3.121
 1307SOL     OW 4055   3.552   0.867   3.507
 1307SOL    HW1 4056   3.638   0.906   3.491
 1307SOL    HW2 4057   3.548   0.855   3.602
 1308SOL     OW 4058   0.818   1.008   0.350
 1308SOL    HW1 4059   0.741   0.972   0.394
 1308SOL    HW2 4060   0.892   0.963   0.391
 1309SOL     OW 4061   2.151   3.282   2.518
 1309SOL    HW1 4062   2.232   3.328   2.498
 1309SOL    HW2 4063   2.084   3.351   2.517
 1310SOL     OW 4064   2.850   3.731   0.933
 1310SOL    HW1 4065   2.833   3.637   0.926
 1310SOL    HW2 4066   2.846   3.750   1.026
 1311SOL     OW 4067   0.662   3.824   3.756
 1311SOL    HW1 4068   0.711   3.810   3.836
 1311SOL    HW2 4069   0.660   3.739   3.713
 1312SOL     OW 4070   1.147   1.194   0.486
 1312SOL    HW1 4071   1.161   1.214   0.579
 1312SOL    HW2 4072   1.111   1.105   0.486
 1313SOL     OW 4073   1.352   2.241   3.523
 1313SOL    HW1 4074   1.299   2.313   3.558
 1313SOL    HW2 4075   1.400   2.280   3.450
 1314SOL     OW 4076   0.203   3.702   1.124
 1314SOL    HW1 4077   0.284   3.659   1.153
 1314SOL    HW2 4078   0.206   3.696   1.029
 1315SOL     OW 4079   0.561   2.510   3.717
 1315SOL    HW1 4080   0.546   2.421   3.686
 1315SOL    HW2 4081   0.564   2.564   3.638
 1316SOL     OW 4082   2.474   0.680   3.387
 1316SOL    HW1 4083   2.432   0.601   3.420
 1316SOL    HW2 4084   2.402   0.737   3.361
 1317SOL     OW 4085   3.197   0.468   0.821
 1317SOL    HW1 4086   3.263   0.404   0.846
 1317SOL    HW2 4087   3.157   0.495   0.904
 1318SOL     OW 4088   2.120   1.742   0.943
 1318SOL    HW1 4089   2.200   1.712   0.901
 1318SOL    HW2 4090   2.090   1.814   0.888
 1319SOL     OW 4091   1.130   1.476   0.535
 1319SOL    HW1 4092   1.203   1.417   0.512
 1319SOL    HW2 4093   1.167   1.564   0.525
 1320SOL     OW 4094   0.450   2.041   1.173
 1320SOL    HW1 4095   0.533   2.007   1.207
 1320SOL    HW2 4096   0.444   2.006   1.084
 1321SOL     OW 4097   1.494   2.851   1.879
 1321SOL    HW1 4098   1.524   2.859   1.969
 1321SOL    HW2 4099   1.572   2.868   1.826
 1322SOL     OW 4100   1.177   3.275   3.207
 1322SOL    HW1 4101   1.193   3.357   3.253
 1322SOL    HW2 4102   1.236   3.211   3.248
 1323SOL     OW 4103   2.464   2.607   1.705
 1323SOL    HW1 4104   2.448   2.592   1.798
 1323SOL    HW2 4105   2.448   2.522   1.664
 1324SOL     OW 4106   0.582   0.083   1.240
 1324SOL    HW1 4107   0.502   0.050   1.281
 1324SOL    HW2 4108   0.553   0.153   1.182
 1325SOL     OW 4109   3.478   1.399   0.657
 1325SOL    HW1 4110   3.567   1.411   0.625
 1325SOL    HW2 4111   3.457   1.307   0.639
 1326SOL     OW 4112   3.533   1.168   0.943
 1326SOL    HW1 4113   3.483   1.125   1.012
 1326SOL    HW2 4114   3.480   1.155   0.864
 1327SOL     OW 4115   2.291   2.760   1.257
 1327SOL    HW1 4116   2.267   2.769   1.349
 1327SOL    HW2 4117   2.383   2.733   1.259
 1328SOL     OW 4118   0.702   2.625   1.965
 1328SOL    HW1 4119   0.734   2.709   1.933
 1328SOL    HW2 4120   0.674   2.642   2.055
 1329SOL     OW 4121   3.877   0.413   0.773
 1329SOL    HW1 4122   3.836   0.326   0.779
 1329SOL    HW2 4123   3.925   0.412   0.691
 1330SOL     OW 4124   1.427   0.376   1.865
 1330SOL    HW1 4125   1.474   0.452   1.830
 1330SOL    HW2 4126   1.367   0.351   1.796
 1331SOL     OW 4127   2.758   2.415   2.210
 1331SOL    HW1 4128   2.850   2.440   2.199
 1331SOL    HW2 4129   2.758   2.320   2.199
 1332SOL     OW 4130   2.625   2.114   1.243
 1332SOL    HW1 4131   2.553   2.130   1.182
 1332SOL    HW2 4132   2.585   2.064   1.315
 1333SOL     OW 4133   2.437   3.098   0.623
 1333SOL    HW1 4134   2.430   3.109   0.718
 1333SOL    HW2 4135   2.445   3.187   0.589
 1334SOL     OW 4136   2.478   0.498   3.915
 1334SOL    HW1 4137   2.396   0.451   3.932
 1334SOL    HW2 4138   2.543   0.451   3.967
 1335SOL     OW 4139   2.785   3.797   2.252
 1335SOL    HW1 4140   2.808   3.708   2.224
 1335SOL    HW2 4141   2.851   3.819   2.318
 1336SOL     OW 4142   0.485   0.386   0.310
 1336SOL    HW1 4143   0.534   0.424   0.237
 1336SOL    HW2 4144   0.518   0.433   0.387
 1337SOL     OW 4145   0.046   0.986   1.655
 1337SOL    HW1 4146   0.104   0.976   1.579
 1337SOL    HW2 4147   0.064   1.073   1.688
 1338SOL     OW 4148   2.201   0.922   0.193
 1338SOL    HW1 4149   2.121   0.873   0.214
 1338SOL    HW2 4150   2.183   0.961   0.107
 1339SOL     OW 4151   3.093   0.671   1.554
 1339SOL    HW1 4152   3.005   0.639   1.576
 1339SOL    HW2 4153   3.124   0.712   1.634
 1340SOL     OW 4154   3.474   3.510   2.667
 1340SOL    HW1 4155   3.393   3.482   2.626
 1340SOL    HW2 4156   3.542   3.488   2.603
 1341SOL     OW 4157   0.228   1.872   3.067
 1341SOL    HW1 4158   0.144   1.863   3.022
 1341SOL    HW2 4159   0.240   1.788   3.113
 1342SOL     OW 4160   0.118   1.383   0.711
 1342SOL    HW1 4161   0.121   1.364   0.805
 1342SOL    HW2 4162   0.175   1.459   0.700
 1343SOL     OW 4163   1.384   3.221   0.692
 1343SOL    HW1 4164   1.383   3.138   0.740
 1343SOL    HW2 4165   1.468   3.261   0.714
 1344SOL     OW 4166   0.062   2.805   0.281
 1344SOL    HW1 4167   0.041   2.745   0.352
 1344SOL    HW2 4168  -0.023   2.840   0.253
 1345SOL     OW 4169   2.057   3.418   3.499
 1345SOL    HW1 4170   2.130   3.478   3.515
 1345SOL    HW2 4171   2.017   3.450   3.418
 1346SOL     OW 4172   2.138   0.030   2.538
 1346SOL    HW1 4173   2.165   0.105   2.486
 1346SOL    HW2 4174   2.200   0.027   2.610
 1347SOL     OW 4175   3.610   3.720   2.340
 1347SOL    HW1 4176   3.667   3.730   2.264
 1347SOL    HW2 4177   3.542   3.787   2.328
 1348SOL     OW 4178   1.933   1.385   2.541
 1348SOL    HW1 4179   2.024   1.379   2.511
 1348SOL    HW2 4180   1.909   1.476   2.525
 1349SOL     OW 4181   0.753   0.109   3.691
 1349SOL    HW1 4182   0.763   0.079   3.600
 1349SOL    HW2 4183   0.696   0.044   3.732
 1350SOL     OW 4184   3.003   1.908   0.784
 1350SOL    HW1 4185   2.942   1.851   0.831
 1350SOL    HW2 4186   2.949   1.981   0.754
 1351SOL     OW 4187   2.486   3.284   2.190
 1351SOL    HW1 4188   2.564   3.249   2.233
 1351SOL    HW2 4189   2.471   3.368   2.233
 1352SOL     OW 4190   2.402   1.019   0.827
 1352SOL    HW1 4191   2.423   1.080   0.897
 1352SOL    HW2 4192   2.473   0.955   0.828
 1353SOL     OW 4193   0.645   1.260   3.736
 1353SOL    HW1 4194   0.646   1.254   3.831
 1353SOL    HW2 4195   0.592   1.186   3.707
 1354SOL     OW 4196   1.842   2.927   1.013
 1354SOL    HW1 4197   1.924   2.888   1.045
 1354SOL    HW2 4198   1.841   3.014   1.053
 1355SOL     OW 4199   2.878   3.899   3.363
 1355SOL    HW1 4200   2.866   3.806   3.382
 1355SOL    HW2 4201   2.970   3.916   3.385
 1356SOL     OW 4202   3.938   0.581   1.511
 1356SOL    HW1 4203   3.913   0.644   1.443
 1356SOL    HW2 4204   3.963   0.636   1.586
 1357SOL     OW 4205   0.971   1.142   0.028
 1357SOL    HW1 4206   1.012   1.203  -0.033
 1357SOL    HW2 4207   0.955   1.194   0.107
 1358SOL     OW 4208   1.576   1.557   3.692
 1358SOL    HW1 4209   1.548   1.568   3.601
 1358SOL    HW2 4210   1.494   1.549   3.741
 1359SOL     OW 4211   1.705   3.122   2.136
 1359SOL    HW1 4212   1.659   3.078   2.207
 1359SOL    HW2 4213   1.662   3.090   2.056
 1360SOL     OW 4214   1.155   1.095   3.641
 1360SOL    HW1 4215   1.227   1.089   3.705
 1360SOL    HW2 4216   1.139   1.004   3.615
 1361SOL     OW 4217   0.453   0.720   0.149
 1361SOL    HW1 4218   0.462   0.636   0.105
 1361SOL    HW2 4219   0.487   0.784   0.086
 1362SOL     OW 4220   1.244   1.530   2.357
 1362SOL    HW1 4221   1.328   1.484   2.357
 1362SOL    HW2 4222   1.263   1.616   2.321
 1363SOL     OW 4223   2.027   3.825   2.345
 1363SOL    HW1 4224   1.990   3.740   2.370
 1363SOL    HW2 4225   2.062   3.861   2.426
 1364SOL     OW 4226   1.302   0.404   1.507
 1364SOL    HW1 4227   1.249   0.351   1.566
 1364SOL    HW2 4228   1.302   0.355   1.425
 1365SOL     OW 4229   3.494   3.140   3.938
 1365SOL    HW1 4230   3.548   3.163   3.862
 1365SOL    HW2 4231   3.404   3.139   3.904
 1366SOL     OW 4232   1.988   3.135   2.068
 1366SOL    HW1 4233   2.032   3.067   2.119
 1366SOL    HW2 4234   1.896   3.130   2.095
 1367SOL     OW 4235   1.205   0.115   2.405
 1367SOL    HW1 4236   1.300   0.110   2.391
 1367SOL    HW2 4237   1.175   0.178   2.340
 1368SOL     OW 4238   2.017   2.404   3.868
 1368SOL    HW1 4239   2.111   2.410   3.889
 1368SOL    HW2 4240   1.989   2.494   3.857
 1369SOL     OW 4241   3.839   0.379   1.712
 1369SOL    HW1 4242   3.782   0.333   1.649
 1369SOL    HW2 4243   3.869   0.456   1.665
 1370SOL     OW 4244   0.244   3.605   3.073
 1370SOL    HW1 4245   0.177   3.601   3.004
 1370SOL    HW2 4246   0.221   3.533   3.132
 1371SOL     OW 4247   2.794   0.941   1.233
 1371SOL    HW1 4248   2.790   1.026   1.189
 1371SOL    HW2 4249   2.750   0.955   1.316
 1372SOL     OW 4250   1.011   3.583   2.535
 1372SOL    HW1 4251   0.935   3.604   2.480
 1372SOL    HW2 4252   1.055   3.667   2.547
 1373SOL     OW 4253   0.094   0.497   2.279
 1373SOL    HW1 4254   0.086   0.555   2.203
 1373SOL    HW2 4255   0.161   0.539   2.334
 1374SOL     OW 4256   3.605   1.167   2.345
 1374SOL    HW1 4257   3.642   1.154   2.432
 1374SOL    HW2 4258   3.673   1.213   2.296
 1375SOL     OW 4259   3.412   0.719   0.800
 1375SOL    HW1 4260   3.461   0.638   0.790
 1375SOL    HW2 4261   3.322   0.691   0.818
 1376SOL     OW 4262   2.891   0.657   0.003
 1376SOL    HW1 4263   2.908   0.578   0.055
 1376SOL    HW2 4264   2.799   0.650  -0.022
 1377SOL     OW 4265   3.491   0.341   3.101
 1377SOL    HW1 4266   3.533   0.255   3.107
 1377SOL    HW2 4267   3.404   0.322   3.067
 1378SOL     OW 4268   0.141   0.370   0.906
 1378SOL    HW1 4269   0.055   0.381   0.865
 1378SOL    HW2 4270   0.202   0.360   0.832
 1379SOL     OW 4271   2.322   2.250   1.999
 1379SOL    HW1 4272   2.366   2.324   2.042
 1379SOL    HW2 4273   2.232   2.281   1.985
 1380SOL     OW 4274   0.662   2.282   0.256
 1380SOL    HW1 4275   0.621   2.209   0.208
 1380SOL    HW2 4276   0.683   2.245   0.342
 1381SOL     OW 4277   2.933   3.732   0.530
 1381SOL    HW1 4278   2.849   3.696   0.556
 1381SOL    HW2 4279   2.955   3.684   0.450
 1382SOL     OW 4280   3.452   1.998   1.837
 1382SOL    HW1 4281   3.395   2.037   1.903
 1382SOL    HW2 4282   3.538   1.995   1.877
 1383SOL     OW 4283   1.644   3.253   0.409
 1383SOL    HW1 4284   1.673   3.185   0.471
 1383SOL    HW2 4285   1.549   3.238   0.401
 1384SOL     OW 4286   3.762   0.781   0.045
 1384SOL    HW1 4287   3.798   0.788   0.133
 1384SOL    HW2 4288   3.668   0.768   0.058
 1385SOL     OW 4289   0.614   1.025   1.705
 1385SOL    HW1 4290   0.548   1.030   1.774
 1385SOL    HW2 4291   0.687   0.978   1.744
 1386SOL     OW 4292   0.302   3.680   0.857
 1386SOL    HW1 4293   0.328   3.676   0.765
 1386SOL    HW2 4294   0.382   3.654   0.905
 1387SOL     OW 4295   0.705   3.398   1.365
 1387SOL    HW1 4296   0.684   3.316   1.321
 1387SOL    HW2 4297   0.781   3.377   1.419
 1388SOL     OW 4298   3.696   2.041   1.944
 1388SOL    HW1 4299   3.735   2.127   1.929
 1388SOL    HW2 4300   3.757   1.996   2.002
 1389SOL     OW 4301   1.895   3.620   2.477
 1389SOL    HW1 4302   1.931   3.601   2.564
 1389SOL    HW2 4303   1.843   3.542   2.456
 1390SOL     OW 4304   3.439   1.873   2.890
 1390SOL    HW1 4305   3.384   1.799   2.916
 1390SOL    HW2 4306   3.506   1.879   2.959
 1391SOL     OW 4307   1.073   3.791   1.642
 1391SOL    HW1 4308   1.012   3.736   1.691
 1391SOL    HW2 4309   1.121   3.840   1.708
 1392SOL     OW 4310   2.021   0.192   1.044
 1392SOL    HW1 4311   1.968   0.116   1.022
 1392SOL    HW2 4312   2.024   0.243   0.963
 1393SOL     OW 4313   0.057   0.596   2.042
 1393SOL    HW1 4314  -0.034   0.569   2.053
 1393SOL    HW2 4315   0.051   0.687   2.013
 1394SOL     OW 4316   3.941   2.872   0.785
 1394SOL    HW1 4317   3.850   2.842   0.777
 1394SOL    HW2 4318   3.955   2.879   0.880
 1395SOL     OW 4319   0.333   3.271   1.258
 1395SOL    HW1 4320   0.386   3.349   1.246
 1395SOL    HW2 4321   0.264   3.297   1.318
 1396SOL     OW 4322   3.788   3.416   0.390
 1396SOL    HW1 4323   3.779   3.499   0.343
 1396SOL    HW2 4324   3.777   3.349   0.322
 1397SOL     OW 4325   2.183   2.954   2.217
 1397SOL    HW1 4326   2.221   3.020   2.159
 1397SOL    HW2 4327   2.257   2.924   2.270
 1398SOL     OW 4328   1.047   3.706   1.135
 1398SOL    HW1 4329   1.057   3.717   1.040
 1398SOL    HW2 4330   1.097   3.778   1.173
 1399SOL     OW 4331   3.351   3.331   3.089
 1399SOL    HW1 4332   3.264   3.334   3.050
 1399SOL    HW2 4333   3.411   3.339   3.015
 1400SOL     OW 4334   3.113   3.479   1.491
 1400SOL    HW1 4335   3.027   3.438   1.482
 1400SOL    HW2 4336   3.095   3.573   1.485
 1401SOL     OW 4337   2.902   1.501   3.097
 1401SOL    HW1 4338   2.873   1.438   3.031
 1401SOL    HW2 4339   2.998   1.497   3.093
 1402SOL     OW 4340   1.729   1.743   1.640
 1402SOL    HW1 4341   1.639   1.757   1.669
 1402SOL    HW2 4342   1.770   1.829   1.650
 1403SOL     OW 4343   1.112   1.133   1.276
 1403SOL    HW1 4344   1.133   1.045   1.308
 1403SOL    HW2 4345   1.094   1.184   1.354
 1404SOL     OW 4346   1.623   1.588   3.007
 1404SOL    HW1 4347   1.637   1.517   2.944
 1404SOL    HW2 4348   1.683   1.567   3.079
 1405SOL     OW 4349   2.155   1.896   2.069
 1405SOL    HW1 4350   2.194   1.983   2.070
 1405SOL    HW2 4351   2.160   1.866   2.160
 1406SOL     OW 4352   2.775   3.962   1.813
 1406SOL    HW1 4353   2.808   3.903   1.881
 1406SOL    HW2 4354   2.852   3.989   1.764
 1407SOL     OW 4355   0.202   1.154   3.783
 1407SOL    HW1 4356   0.252   1.183   3.859
 1407SOL    HW2 4357   0.207   1.058   3.786
 1408SOL     OW 4358   3.217   2.726   0.967
 1408SOL    HW1 4359   3.171   2.746   1.049
 1408SOL    HW2 4360   3.208   2.806   0.914
 1409SOL     OW 4361   2.001   3.632   1.271
 1409SOL    HW1 4362   1.949   3.642   1.191
 1409SOL    HW2 4363   2.057   3.556   1.253
 1410SOL     OW 4364   1.757   2.389   1.305
 1410SOL    HW1 4365   1.768   2.426   1.217
 1410SOL    HW2 4366   1.704   2.311   1.291
 1411SOL     OW 4367   3.931   1.694   2.812
 1411SOL    HW1 4368   3.848   1.661   2.846
 1411SOL    HW2 4369   3.994   1.625   2.831
 1412SOL     OW 4370   0.464   0.753   1.318
 1412SOL    HW1 4371   0.542   0.726   1.269
 1412SOL    HW2 4372   0.398   0.689   1.293
 1413SOL     OW 4373   0.349   0.860   3.490
 1413SOL    HW1 4374   0.431   0.908   3.479
 1413SOL    HW2 4375   0.293   0.893   3.420
 1414SOL     OW 4376   1.385   0.617   0.895
 1414SOL    HW1 4377   1.316   0.684   0.892
 1414SOL    HW2 4378   1.461   0.660   0.856
 1415SOL     OW 4379   3.797   3.532   2.517
 1415SOL    HW1 4380   3.743   3.548   2.440
 1415SOL    HW2 4381   3.763   3.591   2.583
 1416SOL     OW 4382   0.866   1.434   1.129
 1416SOL    HW1 4383   0.791   1.425   1.188
 1416SOL    HW2 4384   0.828   1.437   1.041
 1417SOL     OW 4385   0.045   3.820   0.356
 1417SOL    HW1 4386   0.060   3.861   0.271
 1417SOL    HW2 4387  -0.019   3.876   0.400
 1418SOL     OW 4388   1.067   0.216   2.118
 1418SOL    HW1 4389   1.027   0.141   2.075
 1418SOL    HW2 4390   1.008   0.237   2.190
 1419SOL     OW 4391   3.115   3.026   0.751
 1419SOL    HW1 4392   3.094   3.092   0.818
 1419SOL    HW2 4393   3.032   3.011   0.706
 1420SOL     OW 4394   3.533   1.433   2.884
 1420SOL    HW1 4395   3.523   1.452   2.791
 1420SOL    HW2 4396   3.478   1.356   2.899
 1421SOL     OW 4397   3.479   1.055   0.031
 1421SOL    HW1 4398   3.530   1.063   0.112
 1421SOL    HW2 4399   3.530   0.994  -0.022
 1422SOL     OW 4400   1.314   1.147   1.796
 1422SOL    HW1 4401   1.314   1.057   1.763
 1422SOL    HW2 4402   1.335   1.138   1.889
 1423SOL     OW 4403   1.246   2.471   2.297
 1423SOL    HW1 4404   1.296   2.506   2.371
 1423SOL    HW2 4405   1.155   2.488   2.319
 1424SOL     OW 4406   2.824   0.323   1.650
 1424SOL    HW1 4407   2.892   0.388   1.671
 1424SOL    HW2 4408   2.852   0.287   1.565
 1425SOL     OW 4409   0.312   1.617   2.134
 1425SOL    HW1 4410   0.329   1.538   2.082
 1425SOL    HW2 4411   0.392   1.630   2.185
 1426SOL     OW 4412   0.363   1.571   3.648
 1426SOL    HW1 4413   0.285   1.611   3.687
 1426SOL    HW2 4414   0.422   1.557   3.722
 1427SOL     OW 4415   1.456   3.848   1.586
 1427SOL    HW1 4416   1.476   3.780   1.523
 1427SOL    HW2 4417   1.521   3.837   1.655
 1428SOL     OW 4418   3.574   2.708   1.707
 1428SOL    HW1 4419   3.632   2.711   1.631
 1428SOL    HW2 4420   3.586   2.793   1.749
 1429SOL     OW 4421   2.909   3.893   1.449
 1429SOL    HW1 4422   2.930   3.985   1.464
 1429SOL    HW2 4423   2.814   3.888   1.460
 1430SOL     OW 4424   0.227   3.230   3.020
 1430SOL    HW1 4425   0.195   3.282   3.094
 1430SOL    HW2 4426   0.244   3.143   3.057
 1431SOL     OW 4427   3.949   2.243   2.354
 1431SOL    HW1 4428   3.913   2.329   2.336
 1431SOL    HW2 4429   3.943   2.234   2.449
 1432SOL     OW 4430   2.751   3.272   0.548
 1432SOL    HW1 4431   2.776   3.309   0.464
 1432SOL    HW2 4432   2.823   3.212   0.570
 1433SOL     OW 4433   1.055   2.659   0.286
 1433SOL    HW1 4434   1.050   2.753   0.303
 1433SOL    HW2 4435   0.964   2.634   0.267
 1434SOL     OW 4436   0.302   2.886   3.640
 1434SOL    HW1 4437   0.396   2.894   3.655
 1434SOL    HW2 4438   0.282   2.954   3.575
 1435SOL     OW 4439   0.087   1.733   3.544
 1435SOL    HW1 4440   0.072   1.738   3.450
 1435SOL    HW2 4441   0.135   1.813   3.565
 1436SOL     OW 4442   1.028   0.633   3.095
 1436SOL    HW1 4443   1.037   0.602   3.186
 1436SOL    HW2 4444   0.970   0.708   3.102
 1437SOL     OW 4445   3.096   1.685   0.042
 1437SOL    HW1 4446   3.110   1.593   0.062
 1437SOL    HW2 4447   3.171   1.710  -0.012
 1438SOL     OW 4448   2.720   2.154   1.921
 1438SOL    HW1 4449   2.735   2.060   1.932
 1438SOL    HW2 4450   2.697   2.185   2.008
 1439SOL     OW 4451   1.924   2.624   3.103
 1439SOL    HW1 4452   1.965   2.690   3.159
 1439SOL    HW2 4453   1.897   2.672   3.025
 1440SOL     OW 4454   0.226   2.474   1.750
 1440SOL    HW1 4455   0.197   2.412   1.816
 1440SOL    HW2 4456   0.315   2.496   1.775
 1441SOL     OW 4457   1.353   2.355   1.008
 1441SOL    HW1 4458   1.270   2.399   0.991
 1441SOL    HW2 4459   1.371   2.307   0.927
 1442SOL     OW 4460   3.332   1.289   3.444
 1442SOL    HW1 4461   3.323   1.250   3.531
 1442SOL    HW2 4462   3.391   1.364   3.457
 1443SOL     OW 4463   1.734   2.811   2.600
 1443SOL    HW1 4464   1.810   2.869   2.593
 1443SOL    HW2 4465   1.705   2.798   2.509
 1444SOL     OW 4466   2.223   3.554   1.554
 1444SOL    HW1 4467   2.307   3.581   1.591
 1444SOL    HW2 4468   2.182   3.502   1.623
 1445SOL     OW 4469   3.029   2.160   0.224
 1445SOL    HW1 4470   3.109   2.150   0.277
 1445SOL    HW2 4471   3.046   2.109   0.145
 1446SOL     OW 4472   3.203   2.860   2.693
 1446SOL    HW1 4473   3.141   2.925   2.659
 1446SOL    HW2 4474   3.180   2.779   2.646
 1447SOL     OW 4475   2.764   0.807   0.321
 1447SOL    HW1 4476   2.823   0.761   0.261
 1447SOL    HW2 4477   2.798   0.896   0.326
 1448SOL     OW 4478   1.581   1.210   2.431
 1448SOL    HW1 4479   1.573   1.155   2.509
 1448SOL    HW2 4480   1.674   1.202   2.407
 1449SOL     OW 4481   1.965   3.229   1.504
 1449SOL    HW1 4482   2.006   3.215   1.418
 1449SOL    HW2 4483   1.959   3.324   1.512
 1450SOL     OW 4484   2.074   0.567   2.853
 1450SOL    HW1 4485   2.034   0.483   2.872
 1450SOL    HW2 4486   2.129   0.585   2.929
 1451SOL     OW 4487   0.679   3.771   2.669
 1451SOL    HW1 4488   0.726   3.726   2.740
 1451SOL    HW2 4489   0.711   3.729   2.589
 1452SOL     OW 4490   0.554   0.293   1.596
 1452SOL    HW1 4491   0.499   0.297   1.674
 1452SOL    HW2 4492   0.622   0.359   1.611
 1453SOL     OW 4493   3.335   0.655   0.352
 1453SOL    HW1 4494   3.400   0.722   0.374
 1453SOL    HW2 4495   3.383   0.572   0.356
 1454SOL     OW 4496   1.468   2.751   2.708
 1454SOL    HW1 4497   1.549   2.797   2.686
 1454SOL    HW2 4498   1.401   2.794   2.655
 1455SOL     OW 4499   0.922   3.980   2.659
 1455SOL    HW1 4500   0.838   3.977   2.613
 1455SOL    HW2 4501   0.909   3.924   2.736
 1456SOL     OW 4502   2.287   2.683   3.120
 1456SOL    HW1 4503   2.276   2.692   3.215
 1456SOL    HW2 4504   2.294   2.588   3.107
 1457SOL     OW 4505   0.660   1.269   0.292
 1457SOL    HW1 4506   0.628   1.261   0.382
 1457SOL    HW2 4507   0.733   1.208   0.287
 1458SOL     OW 4508   0.939   0.891   3.145
 1458SOL    HW1 4509   1.011   0.916   3.088
 1458SOL    HW2 4510   0.861   0.921   3.099
 1459SOL     OW 4511   1.819   2.460   2.145
 1459SOL    HW1 4512   1.895   2.508   2.113
 1459SOL    HW2 4513   1.850   2.371   2.161
 1460SOL     OW 4514   3.027   3.119   2.585
 1460SOL    HW1 4515   2.973   3.147   2.659
 1460SOL    HW2 4516   3.026   3.194   2.525
 1461SOL     OW 4517   2.120   1.085   3.391
 1461SOL    HW1 4518   2.200   1.132   3.366
 1461SOL    HW2 4519   2.112   1.101   3.485
 1462SOL     OW 4520   2.076   1.195   1.878
 1462SOL    HW1 4521   2.066   1.122   1.939
 1462SOL    HW2 4522   2.026   1.267   1.917
 1463SOL     OW 4523   3.820   3.168   2.442
 1463SOL    HW1 4524   3.841   3.241   2.500
 1463SOL    HW2 4525   3.756   3.116   2.491
 1464SOL     OW 4526   1.709   2.601   1.509
 1464SOL    HW1 4527   1.672   2.518   1.481
 1464SOL    HW2 4528   1.708   2.656   1.430
 1465SOL     OW 4529   0.943   2.959   3.483
 1465SOL    HW1 4530   1.029   2.920   3.464
 1465SOL    HW2 4531   0.896   2.890   3.529
 1466SOL     OW 4532   3.765   1.004   3.828
 1466SOL    HW1 4533   3.806   1.090   3.831
 1466SOL    HW2 4534   3.810   0.954   3.897
 1467SOL     OW 4535   2.349   2.915   2.993
 1467SOL    HW1 4536   2.365   2.966   3.072
 1467SOL    HW2 4537   2.325   2.828   3.025
 1468SOL     OW 4538   1.121   2.449   0.462
 1468SOL    HW1 4539   1.062   2.409   0.398
 1468SOL    HW2 4540   1.116   2.543   0.444
 1469SOL     OW 4541   0.837   0.874   1.758
 1469SOL    HW1 4542   0.930   0.858   1.771
 1469SOL    HW2 4543   0.803   0.792   1.722
 1470SOL     OW 4544   1.106   3.807   0.888
 1470SOL    HW1 4545   1.184   3.863   0.882
 1470SOL    HW2 4546   1.045   3.845   0.825
 1471SOL     OW 4547   0.147   0.371   1.889
 1471SOL    HW1 4548   0.101   0.442   1.933
 1471SOL    HW2 4549   0.078   0.316   1.852
 1472SOL     OW 4550   0.820   0.676   2.535
 1472SOL    HW1 4551   0.748   0.632   2.579
 1472SOL    HW2 4552   0.827   0.633   2.450
 1473SOL     OW 4553   0.968   1.280   0.290
 1473SOL    HW1 4554   0.919   1.200   0.309
 1473SOL    HW2 4555   1.048   1.272   0.341
 1474SOL     OW 4556   2.461   2.227   3.721
 1474SOL    HW1 4557   2.466   2.150   3.778
 1474SOL    HW2 4558   2.444   2.190   3.634
 1475SOL     OW 4559   3.863   2.951   2.936
 1475SOL    HW1 4560   3.880   2.945   2.842
 1475SOL    HW2 4561   3.823   3.038   2.948
 1476SOL     OW 4562   0.390   2.756   0.163
 1476SOL    HW1 4563   0.393   2.748   0.068
 1476SOL    HW2 4564   0.310   2.805   0.181
 1477SOL     OW 4565   3.375   1.320   0.089
 1477SOL    HW1 4566   3.406   1.410   0.084
 1477SOL    HW2 4567   3.450   1.267   0.062
 1478SOL     OW 4568   2.582   0.349   1.032
 1478SOL    HW1 4569   2.517   0.418   1.048
 1478SOL    HW2 4570   2.620   0.372   0.947
 1479SOL     OW 4571   3.156   1.878   3.306
 1479SOL    HW1 4572   3.145   1.863   3.400
 1479SOL    HW2 4573   3.068   1.864   3.269
 1480SOL     OW 4574   1.864   3.423   0.791
 1480SOL    HW1 4575   1.924   3.409   0.718
 1480SOL    HW2 4576   1.921   3.437   0.866
 1481SOL     OW 4577   0.172   1.493   2.918
 1481SOL    HW1 4578   0.142   1.404   2.902
 1481SOL    HW2 4579   0.230   1.513   2.845
 1482SOL     OW 4580   0.512   2.274   3.944
 1482SOL    HW1 4581   0.540   2.363   3.922
 1482SOL    HW2 4582   0.591   2.222   3.939
 1483SOL     OW 4583   2.103   2.732   0.856
 1483SOL    HW1 4584   2.021   2.752   0.809
 1483SOL    HW2 4585   2.100   2.789   0.933
 1484SOL     OW 4586   3.760   1.261   0.433
 1484SOL    HW1 4587   3.737   1.352   0.414
 1484SOL    HW2 4588   3.852   1.264   0.458
 1485SOL     OW 4589   3.892   3.328   2.651
 1485SOL    HW1 4590   3.937   3.363   2.727
 1485SOL    HW2 4591   3.847   3.403   2.612
 1486SOL     OW 4592   0.638   3.100   0.897
 1486SOL    HW1 4593   0.630   3.181   0.947
 1486SOL    HW2 4594   0.558   3.052   0.916
 1487SOL     OW 4595   0.731   3.856   1.869
 1487SOL    HW1 4596   0.725   3.881   1.777
 1487SOL    HW2 4597   0.641   3.857   1.901
 1488SOL     OW 4598   2.199   0.180   3.748
 1488SOL    HW1 4599   2.112   0.176   3.788
 1488SOL    HW2 4600   2.258   0.197   3.822
 1489SOL     OW 4601   0.292   1.020   1.091
 1489SOL    HW1 4602   0.344   0.973   1.157
 1489SOL    HW2 4603   0.248   0.951   1.042
 1490SOL     OW 4604   0.546   1.443   1.121
 1490SOL    HW1 4605   0.456   1.425   1.145
 1490SOL    HW2 4606   0.542   1.524   1.070
 1491SOL     OW 4607   1.271   3.952   0.455
 1491SOL    HW1 4608   1.266   3.867   0.411
 1491SOL    HW2 4609   1.307   4.011   0.389
 1492SOL     OW 4610   1.012   3.783   0.484
 1492SOL    HW1 4611   1.054   3.700   0.505
 1492SOL    HW2 4612   0.999   3.826   0.569
 1493SOL     OW 4613   3.240   2.967   2.949
 1493SOL    HW1 4614   3.211   3.047   2.906
 1493SOL    HW2 4615   3.284   2.917   2.880
 1494SOL     OW 4616   1.404   0.187   2.643
 1494SOL    HW1 4617   1.354   0.124   2.592
 1494SOL    HW2 4618   1.378   0.170   2.734
 1495SOL     OW 4619   0.429   2.154   1.426
 1495SOL    HW1 4620   0.440   2.118   1.338
 1495SOL    HW2 4621   0.338   2.135   1.448
 1496SOL     OW 4622   1.134   0.878   0.174
 1496SOL    HW1 4623   1.120   0.793   0.133
 1496SOL    HW2 4624   1.140   0.939   0.100
 1497SOL     OW 4625   2.931   2.132   0.677
 1497SOL    HW1 4626   2.874   2.175   0.614
 1497SOL    HW2 4627   2.962   2.202   0.734
 1498SOL     OW 4628   0.010   2.586   0.449
 1498SOL    HW1 4629   0.075   2.605   0.517
 1498SOL    HW2 4630   0.032   2.497   0.420
 1499SOL     OW 4631   1.792   3.441   3.524
 1499SOL    HW1 4632   1.879   3.480   3.534
 1499SOL    HW2 4633   1.786   3.417   3.431
 1500SOL     OW 4634   1.473   0.222   3.074
 1500SOL    HW1 4635   1.398   0.176   3.113
 1500SOL    HW2 4636   1.549   0.174   3.105
 1501SOL     OW 4637   0.865   2.679   2.917
 1501SOL    HW1 4638   0.931   2.613   2.899
 1501SOL    HW2 4639   0.782   2.632   2.912
 1502SOL     OW 4640   0.016   2.357   0.787
 1502SOL    HW1 4641   0.077   2.418   0.746
 1502SOL    HW2 4642   0.002   2.289   0.721
 1503SOL     OW 4643   1.799   0.623   3.049
 1503SOL    HW1 4644   1.783   0.596   3.139
 1503SOL    HW2 4645   1.721   0.673   3.025
 1504SOL     OW 4646   3.862   0.848   0.455
 1504SOL    HW1 4647   3.824   0.783   0.395
 1504SOL    HW2 4648   3.877   0.799   0.536
 1505SOL     OW 4649   3.296   3.843   3.858
 1505SOL    HW1 4650   3.293   3.859   3.764
 1505SOL    HW2 4651   3.298   3.747   3.866
 1506SOL     OW 4652   2.165   1.924   2.684
 1506SOL    HW1 4653   2.246   1.874   2.693
 1506SOL    HW2 4654   2.109   1.869   2.629
 1507SOL     OW 4655   3.400   3.065   1.240
 1507SOL    HW1 4656   3.410   3.140   1.299
 1507SOL    HW2 4657   3.452   2.995   1.281
 1508SOL     OW 4658   2.946   2.624   2.817
 1508SOL    HW1 4659   2.863   2.671   2.811
 1508SOL    HW2 4660   2.961   2.612   2.911
 1509SOL     OW 4661   2.966   3.690   2.467
 1509SOL    HW1 4662   2.925   3.629   2.527
 1509SOL    HW2 4663   3.040   3.726   2.515
 1510SOL     OW 4664   0.619   0.960   3.445
 1510SOL    HW1 4665   0.651   0.989   3.359
 1510SOL    HW2 4666   0.697   0.927   3.489
 1511SOL     OW 4667   3.917   1.106   0.145
 1511SOL    HW1 4668   3.906   1.168   0.073
 1511SOL    HW2 4669   3.865   1.141   0.216
 1512SOL     OW 4670   1.185   3.437   0.337
 1512SOL    HW1 4671   1.213   3.364   0.392
 1512SOL    HW2 4672   1.209   3.410   0.248
 1513SOL     OW 4673   1.760   2.698   2.861
 1513SOL    HW1 4674   1.771   2.737   2.774
 1513SOL    HW2 4675   1.669   2.715   2.884
 1514SOL     OW 4676   2.945   0.399   3.534
 1514SOL    HW1 4677   2.905   0.389   3.447
 1514SOL    HW2 4678   2.895   0.470   3.575
 1515SOL     OW 4679   3.792   1.514   1.524
 1515SOL    HW1 4680   3.713   1.563   1.545
 1515SOL    HW2 4681   3.857   1.581   1.501
 1516SOL     OW 4682   3.815   3.630   1.618
 1516SOL    HW1 4683   3.764   3.555   1.648
 1516SOL    HW2 4684   3.756   3.679   1.561
 1517SOL     OW 4685   0.382   3.907   1.401
 1517SOL    HW1 4686   0.390   3.816   1.375
 1517SOL    HW2 4687   0.467   3.929   1.439
 1518SOL     OW 4688   0.304   0.666   3.675
 1518SOL    HW1 4689   0.330   0.730   3.609
 1518SOL    HW2 4690   0.224   0.626   3.640
 1519SOL     OW 4691   2.975   3.625   0.256
 1519SOL    HW1 4692   2.914   3.672   0.199
 1519SOL    HW2 4693   2.973   3.535   0.223
 1520SOL     OW 4694   3.477   2.811   2.748
 1520SOL    HW1 4695   3.384   2.836   2.751
 1520SOL    HW2 4696   3.477   2.717   2.768
 1521SOL     OW 4697   0.325   1.162   3.346
 1521SOL    HW1 4698   0.300   1.203   3.428
 1521SOL    HW2 4699   0.257   1.189   3.284
 1522SOL     OW 4700   3.090   1.416   1.704
 1522SOL    HW1 4701   3.150   1.423   1.778
 1522SOL    HW2 4702   3.144   1.381   1.633
 1523SOL     OW 4703   0.505   3.080   3.104
 1523SOL    HW1 4704   0.523   3.164   3.063
 1523SOL    HW2 4705   0.586   3.058   3.150
 1524SOL     OW 4706   0.828   0.096   3.962
 1524SOL    HW1 4707   0.868   0.092   3.876
 1524SOL    HW2 4708   0.890   0.052   4.020
 1525SOL     OW 4709   1.719   2.039   1.785
 1525SOL    HW1 4710   1.643   2.061   1.731
 1525SOL    HW2 4711   1.794   2.046   1.724
 1526SOL     OW 4712   3.221   0.950   0.301
 1526SOL    HW1 4713   3.248   0.863   0.331
 1526SOL    HW2 4714   3.183   0.934   0.215
 1527SOL     OW 4715   2.825   2.255   0.049
 1527SOL    HW1 4716   2.877   2.217   0.121
 1527SOL    HW2 4717   2.773   2.323   0.091
 1528SOL     OW 4718   3.680   3.142   2.199
 1528SOL    HW1 4719   3.619   3.211   2.171
 1528SOL    HW2 4720   3.699   3.163   2.291
 1529SOL     OW 4721   1.273   2.994   3.913
 1529SOL    HW1 4722   1.241   2.962   3.829
 1529SOL    HW2 4723   1.354   3.040   3.891
 1530SOL     OW 4724   1.992   1.595   2.221
 1530SOL    HW1 4725   1.905   1.630   2.239
 1530SOL    HW2 4726   2.051   1.669   2.235
 1531SOL     OW 4727   0.396   3.812   2.912
 1531SOL    HW1 4728   0.355   3.749   2.972
 1531SOL    HW2 4729   0.478   3.770   2.887
 1532SOL     OW 4730   3.837   3.127   1.879
 1532SOL    HW1 4731   3.884   3.131   1.796
 1532SOL    HW2 4732   3.901   3.092   1.941
 1533SOL     OW 4733   3.682   3.107   3.452
 1533SOL    HW1 4734   3.683   3.193   3.494
 1533SOL    HW2 4735   3.620   3.117   3.380
 1534SOL     OW 4736   0.031   3.822   1.852
 1534SOL    HW1 4737  -0.020   3.758   1.803
 1534SOL    HW2 4738   0.121   3.810   1.822
 1535SOL     OW 4739   3.835   2.670   1.993
 1535SOL    HW1 4740   3.877   2.672   2.079
 1535SOL    HW2 4741   3.784   2.751   1.990
 1536SOL     OW 4742   0.879   0.788   2.059
 1536SOL    HW1 4743   0.816   0.809   2.127
 1536SOL    HW2 4744   0.929   0.868   2.046
 1537SOL     OW 4745   0.697   1.117   1.209
 1537SOL    HW1 4746   0.731   1.198   1.247
 1537SOL    HW2 4747   0.678   1.061   1.284
 1538SOL     OW 4748   1.705   0.651   1.632
 1538SOL    HW1 4749   1.770   0.594   1.672
 1538SOL    HW2 4750   1.745   0.738   1.634
 1539SOL     OW 4751   2.596   0.075   2.618
 1539SOL    HW1 4752   2.648   0.008   2.662
 1539SOL    HW2 4753   2.590   0.045   2.527
 1540SOL     OW 4754   1.712   3.767   2.621
 1540SOL    HW1 4755   1.634   3.727   2.584
 1540SOL    HW2 4756   1.785   3.724   2.576
 1541SOL     OW 4757   2.505   1.620   1.435
 1541SOL    HW1 4758   2.470   1.531   1.428
 1541SOL    HW2 4759   2.487   1.645   1.525
 1542SOL     OW 4760   3.253   0.668   3.906
 1542SOL    HW1 4761   3.250   0.620   3.823
 1542SOL    HW2 4762   3.295   0.608   3.967
 1543SOL     OW 4763   0.419   0.372   2.404
 1543SOL    HW1 4764   0.357   0.305   2.374
 1543SOL    HW2 4765   0.459   0.334   2.482
 1544SOL     OW 4766   0.661   0.701   1.583
 1544SOL    HW1 4767   0.702   0.614   1.595
 1544SOL    HW2 4768   0.601   0.709   1.657
 1545SOL     OW 4769   1.833   0.765   3.470
 1545SOL    HW1 4770   1.918   0.786   3.507
 1545SOL    HW2 4771   1.822   0.671   3.484
 1546SOL     OW 4772   3.871   2.479   0.035
 1546SOL    HW1 4773   3.802   2.473   0.100
 1546SOL    HW2 4774   3.902   2.389   0.024
 1547SOL     OW 4775   2.450   2.040   0.551
 1547SOL    HW1 4776   2.541   2.013   0.556
 1547SOL    HW2 4777   2.442   2.081   0.464
 1548SOL     OW 4778   1.932   2.799   1.971
 1548SOL    HW1 4779   1.983   2.857   1.915
 1548SOL    HW2 4780   1.916   2.722   1.918
 1549SOL     OW 4781   1.231   0.780   1.139
 1549SOL    HW1 4782   1.185   0.697   1.148
 1549SOL    HW2 4783   1.173   0.833   1.084
 1550SOL     OW 4784   2.308   1.252   2.040
 1550SOL    HW1 4785   2.340   1.343   2.042
 1550SOL    HW2 4786   2.231   1.255   1.984
 1551SOL     OW 4787   1.036   2.218   1.826
 1551SOL    HW1 4788   0.978   2.273   1.878
 1551SOL    HW2 4789   0.995   2.214   1.740
 1552SOL     OW 4790   3.414   0.464   2.674
 1552SOL    HW1 4791   3.384   0.531   2.736
 1552SOL    HW2 4792   3.461   0.513   2.607
 1553SOL     OW 4793   0.796   2.784   3.848
 1553SOL    HW1 4794   0.854   2.859   3.864
 1553SOL    HW2 4795   0.730   2.790   3.917
 1554SOL     OW 4796   1.844   0.275   3.755
 1554SOL    HW1 4797   1.890   0.225   3.823
 1554SOL    HW2 4798   1.752   0.274   3.782
 1555SOL     OW 4799   2.845   2.993   0.589
 1555SOL    HW1 4800   2.909   3.024   0.524
 1555SOL    HW2 4801   2.761   2.999   0.545
 1556SOL     OW 4802   2.795   1.571   1.420
 1556SOL    HW1 4803   2.848   1.650   1.407
 1556SOL    HW2 4804   2.704   1.603   1.419
 1557SOL     OW 4805   3.914   2.000   0.193
 1557SOL    HW1 4806   3.943   1.968   0.279
 1557SOL    HW2 4807   3.819   2.008   0.202
 1558SOL     OW 4808   1.991   3.449   2.881
 1558SOL    HW1 4809   2.055   3.393   2.925
 1558SOL    HW2 4810   1.909   3.400   2.889
 1559SOL     OW 4811   3.340   3.489   1.086
 1559SOL    HW1 4812   3.415   3.496   1.028
 1559SOL    HW2 4813   3.271   3.540   1.043
 1560SOL     OW 4814   3.710   1.063   0.661
 1560SOL    HW1 4815   3.753   1.073   0.576
 1560SOL    HW2 4816   3.626   1.107   0.651
 1561SOL     OW 4817   1.100   0.412   0.399
 1561SOL    HW1 4818   1.061   0.415   0.311
 1561SOL    HW2 4819   1.177   0.355   0.390
 1562SOL     OW 4820   0.475   3.945   0.204
 1562SOL    HW1 4821   0.415   3.873   0.223
 1562SOL    HW2 4822   0.447   3.978   0.119
 1563SOL     OW 4823   1.656   3.722   3.945
 1563SOL    HW1 4824   1.745   3.688   3.956
 1563SOL    HW2 4825   1.640   3.719   3.851
 1564SOL     OW 4826   0.928   3.650   1.816
 1564SOL    HW1 4827   0.859   3.706   1.851
 1564SOL    HW2 4828   0.892   3.562   1.818
 1565SOL     OW 4829   3.378   2.924   0.709
 1565SOL    HW1 4830   3.296   2.971   0.727
 1565SOL    HW2 4831   3.441   2.962   0.770
 1566SOL     OW 4832   0.944   1.168   1.951
 1566SOL    HW1 4833   0.892   1.246   1.973
 1566SOL    HW2 4834   1.007   1.199   1.886
 1567SOL     OW 4835   0.028   3.484   2.090
 1567SOL    HW1 4836   0.086   3.480   2.014
 1567SOL    HW2 4837  -0.057   3.454   2.057
 1568SOL     OW 4838   1.529   2.516   3.390
 1568SOL    HW1 4839   1.582   2.547   3.318
 1568SOL    HW2 4840   1.488   2.435   3.357
 1569SOL     OW 4841   0.020   0.842   3.133
 1569SOL    HW1 4842   0.084   0.912   3.120
 1569SOL    HW2 4843   0.072   0.767   3.161
 1570SOL     OW 4844   2.811   3.704   0.066
 1570SOL    HW1 4845   2.730   3.662   0.039
 1570SOL    HW2 4846   2.787   3.794   0.087
 1571SOL     OW 4847   3.353   1.448   2.184
 1571SOL    HW1 4848   3.314   1.532   2.210
 1571SOL    HW2 4849   3.375   1.406   2.267
 1572SOL     OW 4850   2.914   0.495   1.221
 1572SOL    HW1 4851   2.875   0.569   1.267
 1572SOL    HW2 4852   2.997   0.528   1.188
 1573SOL     OW 4853   1.803   1.487   0.382
 1573SOL    HW1 4854   1.749   1.566   0.384
 1573SOL    HW2 4855   1.836   1.479   0.472
 1574SOL     OW 4856   0.971   3.848   3.042
 1574SOL    HW1 4857   1.048   3.833   2.987
 1574SOL    HW2 4858   0.911   3.896   2.985
 1575SOL     OW 4859   3.806   2.249   1.509
 1575SOL    HW1 4860   3.805   2.156   1.484
 1575SOL    HW2 4861   3.823   2.296   1.427
 1576SOL     OW 4862   3.417   0.787   2.263
 1576SOL    HW1 4863   3.507   0.815   2.248
 1576SOL    HW2 4864   3.402   0.720   2.196
 1577SOL     OW 4865   1.600   2.773   0.613
 1577SOL    HW1 4866   1.603   2.756   0.707
 1577SOL    HW2 4867   1.508   2.760   0.590
 1578SOL     OW 4868   0.582   0.892   0.532
 1578SOL    HW1 4869   0.618   0.950   0.599
 1578SOL    HW2 4870   0.488   0.890   0.550
 1579SOL     OW 4871   3.952   1.769   3.273
 1579SOL    HW1 4872   3.896   1.835   3.232
 1579SOL    HW2 4873   3.922   1.686   3.238
 1580SOL     OW 4874   0.056   0.128   3.593
 1580SOL    HW1 4875   0.097   0.042   3.577
 1580SOL    HW2 4876   0.097   0.186   3.529
 1581SOL     OW 4877   2.385   1.667   0.648
 1581SOL    HW1 4878   2.413   1.745   0.696
 1581SOL    HW2 4879   2.342   1.702   0.569
 1582SOL     OW 4880   2.519   0.421   1.847
 1582SOL    HW1 4881   2.428   0.391   1.853
 1582SOL    HW2 4882   2.529   0.484   1.919
 1583SOL     OW 4883   1.825   0.907   1.606
 1583SOL    HW1 4884   1.857   0.937   1.521
 1583SOL    HW2 4885   1.894   0.932   1.668
 1584SOL     OW 4886   0.398   0.298   1.813
 1584SOL    HW1 4887   0.312   0.337   1.828
 1584SOL    HW2 4888   0.459   0.354   1.861
 1585SOL     OW 4889   3.746   2.030   0.886
 1585SOL    HW1 4890   3.674   2.051   0.826
 1585SOL    HW2 4891   3.742   2.098   0.953
 1586SOL     OW 4892   1.577   1.943   2.238
 1586SOL    HW1 4893   1.600   2.009   2.172
 1586SOL    HW2 4894   1.607   1.980   2.321
 1587SOL     OW 4895   1.358   2.227   0.737
 1587SOL    HW1 4896   1.356   2.136   0.707
 1587SOL    HW2 4897   1.292   2.271   0.684
 1588SOL     OW 4898   2.689   2.036   0.827
 1588SOL    HW1 4899   2.758   2.043   0.761
 1588SOL    HW2 4900   2.645   2.121   0.826
 1589SOL     OW 4901   0.146   1.812   2.293
 1589SOL    HW1 4902   0.187   1.748   2.234
 1589SOL    HW2 4903   0.205   1.817   2.367
 1590SOL     OW 4904   0.060   2.330   0.297
 1590SOL    HW1 4905   0.142   2.282   0.287
 1590SOL    HW2 4906   0.002   2.294   0.230
 1591SOL     OW 4907   2.405   1.576   1.701
 1591SOL    HW1 4908   2.364   1.503   1.655
 1591SOL    HW2 4909   2.356   1.582   1.783
 1592SOL     OW 4910   1.317   2.617   0.235
 1592SOL    HW1 4911   1.353   2.529   0.230
 1592SOL    HW2 4912   1.224   2.604   0.252
 1593SOL     OW 4913   0.979   1.481   2.493
 1593SOL    HW1 4914   1.019   1.494   2.579
 1593SOL    HW2 4915   1.053   1.476   2.432
 1594SOL     OW 4916   2.011   0.175  -0.017
 1594SOL    HW1 4917   1.952   0.194   0.056
 1594SOL    HW2 4918   2.064   0.101   0.014
 1595SOL     OW 4919   0.115   0.134   3.055
 1595SOL    HW1 4920   0.032   0.091   3.034
 1595SOL    HW2 4921   0.090   0.211   3.106
 1596SOL     OW 4922   2.431   0.487   0.432
 1596SOL    HW1 4923   2.361   0.438   0.389
 1596SOL    HW2 4924   2.390   0.568   0.461
 1597SOL     OW 4925   0.342   0.346   2.913
 1597SOL    HW1 4926   0.415   0.382   2.964
 1597SOL    HW2 4927   0.295   0.290   2.974
 1598SOL     OW 4928   3.280   3.665   0.541
 1598SOL    HW1 4929   3.292   3.625   0.455
 1598SOL    HW2 4930   3.215   3.734   0.526
 1599SOL     OW 4931   0.802   1.599   2.317
 1599SOL    HW1 4932   0.865   1.561   2.378
 1599SOL    HW2 4933   0.849   1.672   2.276
 1600SOL     OW 4934   2.353   3.374   1.190
 1600SOL    HW1 4935   2.397   3.388   1.107
 1600SOL    HW2 4936   2.387   3.443   1.247
 1601SOL     OW 4937   3.278   1.628   0.424
 1601SOL    HW1 4938   3.246   1.553   0.475
 1601SOL    HW2 4939   3.268   1.703   0.482
 1602SOL     OW 4940   2.113   0.917   3.882
 1602SOL    HW1 4941   2.157   0.856   3.822
 1602SOL    HW2 4942   2.113   1.000   3.835
 1603SOL     OW 4943   2.177   1.051   2.675
 1603SOL    HW1 4944   2.155   1.090   2.759
 1603SOL    HW2 4945   2.096   1.009   2.646
 1604SOL     OW 4946   3.791   1.710   3.801
 1604SOL    HW1 4947   3.793   1.758   3.884
 1604SOL    HW2 4948   3.716   1.748   3.754
 1605SOL     OW 4949   3.767   2.302   0.419
 1605SOL    HW1 4950   3.852   2.319   0.380
 1605SOL    HW2 4951   3.786   2.266   0.506
 1606SOL     OW 4952   1.223   2.771   1.500
 1606SOL    HW1 4953   1.312   2.756   1.531
 1606SOL    HW2 4954   1.212   2.710   1.427
 1607SOL     OW 4955   3.451   1.141   0.623
 1607SOL    HW1 4956   3.397   1.114   0.548
 1607SOL    HW2 4957   3.410   1.098   0.698
 1608SOL     OW 4958   0.798   3.362   2.949
 1608SOL    HW1 4959   0.708   3.357   2.916
 1608SOL    HW2 4960   0.821   3.272   2.969
 1609SOL     OW 4961   3.520   0.767   0.143
 1609SOL    HW1 4962   3.545   0.769   0.236
 1609SOL    HW2 4963   3.425   0.778   0.143
 1610SOL     OW 4964   2.683   1.635   0.739
 1610SOL    HW1 4965   2.765   1.646   0.690
 1610SOL    HW2 4966   2.615   1.635   0.672
 1611SOL     OW 4967   2.317   1.783   3.016
 1611SOL    HW1 4968   2.383   1.723   2.980
 1611SOL    HW2 4969   2.243   1.727   3.038
 1612SOL     OW 4970   0.988   3.912   2.015
 1612SOL    HW1 4971   1.050   3.860   2.067
 1612SOL    HW2 4972   0.920   3.849   1.990
 1613SOL     OW 4973   0.037   1.461   0.135
 1613SOL    HW1 4974  -0.013   1.515   0.196
 1613SOL    HW2 4975  -0.023   1.443   0.063
 1614SOL     OW 4976   2.039   0.590   0.848
 1614SOL    HW1 4977   2.116   0.647   0.856
 1614SOL    HW2 4978   1.996   0.596   0.933
 1615SOL     OW 4979   1.194   3.646   2.909
 1615SOL    HW1 4980   1.218   3.612   2.996
 1615SOL    HW2 4981   1.172   3.568   2.858
 1616SOL     OW 4982   3.759   3.368   1.962
 1616SOL    HW1 4983   3.664   3.359   1.956
 1616SOL    HW2 4984   3.793   3.284   1.930
 1617SOL     OW 4985   1.495   2.007   2.944
 1617SOL    HW1 4986   1.528   1.997   2.854
 1617SOL    HW2 4987   1.416   2.060   2.934
 1618SOL     OW 4988   0.109   3.737   2.856
 1618SOL    HW1 4989   0.198   3.739   2.822
 1618SOL    HW2 4990   0.070   3.820   2.827
 1619SOL     OW 4991   2.132   2.252   1.129
 1619SOL    HW1 4992   2.138   2.328   1.070
 1619SOL    HW2 4993   2.206   2.197   1.104
 1620SOL     OW 4994   1.386   0.355   0.025
 1620SOL    HW1 4995   1.304   0.376  -0.020
 1620SOL    HW2 4996   1.377   0.262   0.048
 1621SOL     OW 4997   2.417   0.090   0.530
 1621SOL    HW1 4998   2.359   0.165   0.538
 1621SOL    HW2 4999   2.490   0.108   0.589
 1622SOL     OW 5000   2.636   3.834   3.748
 1622SOL    HW1 5001   2.646   3.892   3.673
 1622SOL    HW2 5002   2.674   3.751   3.719
 1623SOL     OW 5003   1.207   3.184   0.464
 1623SOL    HW1 5004   1.249   3.168   0.549
 1623SOL    HW2 5005   1.274   3.163   0.399
 1624SOL     OW 5006   0.734   3.603   2.132
 1624SOL    HW1 5007   0.648   3.640   2.147
 1624SOL    HW2 5008   0.726   3.558   2.047
 1625SOL     OW 5009   1.471   2.049   1.661
 1625SOL    HW1 5010   1.457   1.956   1.678
 1625SOL    HW2 5011   1.384   2.084   1.642
 1626SOL     OW 5012   1.227   2.036   3.689
 1626SOL    HW1 5013   1.176   2.094   3.746
 1626SOL    HW2 5014   1.209   2.067   3.601
 1627SOL     OW 5015   0.703   2.035   1.394
 1627SOL    HW1 5016   0.624   2.083   1.415
 1627SOL    HW2 5017   0.775   2.096   1.411
 1628SOL     OW 5018   0.447   3.515   0.274
 1628SOL    HW1 5019   0.513   3.500   0.342
 1628SOL    HW2 5020   0.380   3.449   0.291
 1629SOL     OW 5021   2.450   2.035   2.065
 1629SOL    HW1 5022   2.472   2.073   2.150
 1629SOL    HW2 5023   2.405   2.105   2.018
 1630SOL     OW 5024   1.496   3.116   3.853
 1630SOL    HW1 5025   1.558   3.065   3.906
 1630SOL    HW2 5026   1.551   3.180   3.808
 1631SOL     OW 5027   1.924   0.235   3.218
 1631SOL    HW1 5028   1.847   0.180   3.209
 1631SOL    HW2 5029   1.987   0.180   3.265
 1632SOL     OW 5030   2.642   0.925   2.919
 1632SOL    HW1 5031   2.708   0.949   2.855
 1632SOL    HW2 5032   2.649   0.830   2.925
 1633SOL     OW 5033   1.224   2.945   0.738
 1633SOL    HW1 5034   1.307   2.972   0.777
 1633SOL    HW2 5035   1.249   2.880   0.672
 1634SOL     OW 5036   3.043   3.976   0.599
 1634SOL    HW1 5037   2.988   3.906   0.562
 1634SOL    HW2 5038   3.054   3.952   0.690
 1635SOL     OW 5039   0.564   2.688   3.068
 1635SOL    HW1 5040   0.479   2.682   3.023
 1635SOL    HW2 5041   0.556   2.765   3.123
 1636SOL     OW 5042   1.693   3.111   3.287
 1636SOL    HW1 5043   1.599   3.116   3.270
 1636SOL    HW2 5044   1.734   3.103   3.201
 1637SOL     OW 5045   2.889   0.387   2.400
 1637SOL    HW1 5046   2.882   0.386   2.495
 1637SOL    HW2 5047   2.965   0.443   2.382
 1638SOL     OW 5048   0.507   3.125   1.529
 1638SOL    HW1 5049   0.570   3.102   1.461
 1638SOL    HW2 5050   0.465   3.042   1.552
 1639SOL     OW 5051   0.433   0.026   1.922
 1639SOL    HW1 5052   0.458   0.058   2.009
 1639SOL    HW2 5053   0.391   0.101   1.880
 1640SOL     OW 5054   0.927   3.011   3.196
 1640SOL    HW1 5055   0.907   2.917   3.188
 1640SOL    HW2 5056   0.956   3.021   3.287
 1641SOL     OW 5057   0.446   3.692   3.460
 1641SOL    HW1 5058   0.375   3.645   3.504
 1641SOL    HW2 5059   0.490   3.739   3.531
 1642SOL     OW 5060   2.532   2.949   2.374
 1642SOL    HW1 5061   2.539   2.906   2.289
 1642SOL    HW2 5062   2.469   2.897   2.423
 1643SOL     OW 5063   0.813   3.034   2.215
 1643SOL    HW1 5064   0.762   3.098   2.264
 1643SOL    HW2 5065   0.747   2.979   2.172
 1644SOL     OW 5066   0.197   2.905   1.607
 1644SOL    HW1 5067   0.166   2.815   1.607
 1644SOL    HW2 5068   0.292   2.899   1.612
 1645SOL     OW 5069   2.794   3.292   3.141
 1645SOL    HW1 5070   2.873   3.310   3.089
 1645SOL    HW2 5071   2.795   3.198   3.154
 1646SOL     OW 5072   0.746   0.269   0.438
 1646SOL    HW1 5073   0.836   0.262   0.407
 1646SOL    HW2 5074   0.701   0.321   0.371
 1647SOL     OW 5075   0.075   2.969   2.373
 1647SOL    HW1 5076   0.018   2.902   2.334
 1647SOL    HW2 5077   0.015   3.040   2.397
 1648SOL     OW 5078   3.917   0.651   1.247
 1648SOL    HW1 5079   3.915   0.730   1.194
 1648SOL    HW2 5080   3.981   0.595   1.204
 1649SOL     OW 5081   2.720   0.706   1.358
 1649SOL    HW1 5082   2.753   0.762   1.288
 1649SOL    HW2 5083   2.631   0.737   1.373
 1650SOL     OW 5084   3.694   2.582   1.268
 1650SOL    HW1 5085   3.759   2.537   1.322
 1650SOL    HW2 5086   3.744   2.620   1.196
 1651SOL     OW 5087   3.493   3.935   0.110
 1651SOL    HW1 5088   3.436   3.918   0.035
 1651SOL    HW2 5089   3.551   4.004   0.080
 1652SOL     OW 5090   1.238   2.123   1.556
 1652SOL    HW1 5091   1.274   2.156   1.474
 1652SOL    HW2 5092   1.150   2.159   1.560
 1653SOL     OW 5093   3.897   1.310   3.434
 1653SOL    HW1 5094   3.938   1.243   3.489
 1653SOL    HW2 5095   3.838   1.260   3.377
 1654SOL     OW 5096   0.680   0.596   1.219
 1654SOL    HW1 5097   0.756   0.645   1.188
 1654SOL    HW2 5098   0.713   0.544   1.293
 1655SOL     OW 5099   0.285   2.144   0.028
 1655SOL    HW1 5100   0.361   2.200   0.009
 1655SOL    HW2 5101   0.306   2.061  -0.013
 1656SOL     OW 5102   3.497   3.896   2.151
 1656SOL    HW1 5103   3.562   3.918   2.084
 1656SOL    HW2 5104   3.470   3.981   2.187
 1657SOL     OW 5105   3.107   2.091   1.260
 1657SOL    HW1 5106   3.070   2.129   1.340
 1657SOL    HW2 5107   3.031   2.053   1.215
 1658SOL     OW 5108   1.428   3.605   3.665
 1658SOL    HW1 5109   1.405   3.686   3.619
 1658SOL    HW2 5110   1.515   3.622   3.700
 1659SOL     OW 5111   2.546   1.516   0.928
 1659SOL    HW1 5112   2.594   1.556   0.856
 1659SOL    HW2 5113   2.599   1.534   1.005
 1660SOL     OW 5114   2.166   0.931   2.336
 1660SOL    HW1 5115   2.130   0.941   2.424
 1660SOL    HW2 5116   2.139   0.843   2.309
 1661SOL     OW 5117   0.152   0.065   1.090
 1661SOL    HW1 5118   0.077   0.114   1.124
 1661SOL    HW2 5119   0.121  -0.026   1.086
 1662SOL     OW 5120   3.815   1.328   2.264
 1662SOL    HW1 5121   3.886   1.332   2.328
 1662SOL    HW2 5122   3.783   1.418   2.258
 1663SOL     OW 5123   2.722   1.397   3.310
 1663SOL    HW1 5124   2.783   1.409   3.237
 1663SOL    HW2 5125   2.776   1.366   3.382
 1664SOL     OW 5126   2.020   1.423   2.002
 1664SOL    HW1 5127   1.972   1.480   1.941
 1664SOL    HW2 5128   2.003   1.460   2.088
 1665SOL     OW 5129   2.665   0.021   3.504
 1665SOL    HW1 5130   2.730  -0.021   3.447
 1665SOL    HW2 5131   2.667   0.113   3.477
 1666SOL     OW 5132   2.663   3.765   2.972
 1666SOL    HW1 5133   2.602   3.838   2.985
 1666SOL    HW2 5134   2.621   3.691   3.018
 1667SOL     OW 5135   2.039   2.912   2.883
 1667SOL    HW1 5136   2.098   2.839   2.905
 1667SOL    HW2 5137   2.042   2.917   2.787
 1668SOL     OW 5138   0.952   0.335   3.735
 1668SOL    HW1 5139   0.866   0.300   3.713
 1668SOL    HW2 5140   0.933   0.420   3.776
 1669SOL     OW 5141   0.048   3.110   0.207
 1669SOL    HW1 5142  -0.036   3.082   0.242
 1669SOL    HW2 5143   0.068   3.048   0.137
 1670SOL     OW 5144   3.771   0.195   2.307
 1670SOL    HW1 5145   3.756   0.167   2.216
 1670SOL    HW2 5146   3.864   0.215   2.310
 1671SOL     OW 5147   3.014   2.338   1.950
 1671SOL    HW1 5148   3.024   2.384   2.033
 1671SOL    HW2 5149   2.973   2.254   1.973
 1672SOL     OW 5150   1.969   0.531   2.606
 1672SOL    HW1 5151   1.928   0.444   2.606
 1672SOL    HW2 5152   1.988   0.548   2.698
 1673SOL     OW 5153   3.178   0.317   3.569
 1673SOL    HW1 5154   3.219   0.403   3.575
 1673SOL    HW2 5155   3.085   0.334   3.556
 1674SOL     OW 5156   3.223   1.281   1.525
 1674SOL    HW1 5157   3.180   1.197   1.542
 1674SOL    HW2 5158   3.312   1.270   1.558
 1675SOL     OW 5159   2.035   2.357   1.936
 1675SOL    HW1 5160   2.009   2.274   1.895
 1675SOL    HW2 5161   2.088   2.401   1.870
 1676SOL     OW 5162   2.097   2.862   1.097
 1676SOL    HW1 5163   2.125   2.953   1.097
 1676SOL    HW2 5164   2.154   2.820   1.161
 1677SOL     OW 5165   1.271   3.725   2.272
 1677SOL    HW1 5166   1.184   3.691   2.253
 1677SOL    HW2 5167   1.290   3.785   2.200
 1678SOL     OW 5168   3.884   0.279   2.697
 1678SOL    HW1 5169   3.797   0.243   2.681
 1678SOL    HW2 5170   3.944   0.207   2.678
 1679SOL     OW 5171   3.069   1.040   3.295
 1679SOL    HW1 5172   3.104   1.040   3.384
 1679SOL    HW2 5173   2.989   0.987   3.300
 1680SOL     OW 5174   0.666   2.731   0.704
 1680SOL    HW1 5175   0.707   2.790   0.641
 1680SOL    HW2 5176   0.658   2.648   0.658
 1681SOL     OW 5177   1.159   0.637   1.453
 1681SOL    HW1 5178   1.104   0.632   1.375
 1681SOL    HW2 5179   1.202   0.551   1.457
 1682SOL     OW 5180   0.833   1.978   2.470
 1682SOL    HW1 5181   0.876   1.914   2.527
 1682SOL    HW2 5182   0.905   2.025   2.428
 1683SOL     OW 5183   0.946   3.323   1.465
 1683SOL    HW1 5184   1.022   3.337   1.408
 1683SOL    HW2 5185   0.983   3.324   1.554
 1684SOL     OW 5186   3.461   2.599   0.967
 1684SOL    HW1 5187   3.369   2.622   0.982
 1684SOL    HW2 5188   3.482   2.536   1.036
 1685SOL     OW 5189   0.625   2.794   3.353
 1685SOL    HW1 5190   0.529   2.800   3.344
 1685SOL    HW2 5191   0.639   2.734   3.426
 1686SOL     OW 5192   1.807   0.961   2.367
 1686SOL    HW1 5193   1.732   0.910   2.398
 1686SOL    HW2 5194   1.846   0.907   2.298
 1687SOL     OW 5195   2.787   2.226   0.419
 1687SOL    HW1 5196   2.739   2.307   0.435
 1687SOL    HW2 5197   2.855   2.251   0.356
 1688SOL     OW 5198   3.656   0.202   0.720
 1688SOL    HW1 5199   3.586   0.136   0.722
 1688SOL    HW2 5200   3.737   0.151   0.723
 1689SOL     OW 5201   1.453   2.396   1.284
 1689SOL    HW1 5202   1.428   2.364   1.197
 1689SOL    HW2 5203   1.499   2.322   1.324
 1690SOL     OW 5204   2.930   3.026   1.762
 1690SOL    HW1 5205   2.869   2.970   1.809
 1690SOL    HW2 5206   2.910   3.010   1.669
 1691SOL     OW 5207   1.429   3.679   1.875
 1691SOL    HW1 5208   1.355   3.619   1.887
 1691SOL    HW2 5209   1.389   3.761   1.846
 1692SOL     OW 5210   2.346   0.598   1.369
 1692SOL    HW1 5211   2.347   0.625   1.461
 1692SOL    HW2 5212   2.370   0.677   1.320
 1693SOL     OW 5213   3.473   1.699   0.027
 1693SOL    HW1 5214   3.432   1.714  -0.058
 1693SOL    HW2 5215   3.428   1.758   0.087
 1694SOL     OW 5216   1.916   3.129   0.269
 1694SOL    HW1 5217   1.995   3.165   0.230
 1694SOL    HW2 5218   1.865   3.206   0.295
 1695SOL     OW 5219   2.886   0.158   2.809
 1695SOL    HW1 5220   2.805   0.109   2.797
 1695SOL    HW2 5221   2.936   0.106   2.872
 1696SOL     OW 5222   1.863   0.028   0.895
 1696SOL    HW1 5223   1.878  -0.037   0.827
 1696SOL    HW2 5224   1.842   0.109   0.848
 1697SOL     OW 5225   3.299   3.305   0.505
 1697SOL    HW1 5226   3.305   3.356   0.424
 1697SOL    HW2 5227   3.390   3.281   0.524
 1698SOL     OW 5228   0.810   0.878   1.403
 1698SOL    HW1 5229   0.762   0.819   1.460
 1698SOL    HW2 5230   0.804   0.964   1.446
 1699SOL     OW 5231   2.399   3.488   3.812
 1699SOL    HW1 5232   2.454   3.410   3.806
 1699SOL    HW2 5233   2.314   3.455   3.841
 1700SOL     OW 5234   3.277   3.949   0.466
 1700SOL    HW1 5235   3.198   3.986   0.507
 1700SOL    HW2 5236   3.247   3.920   0.380
 1701SOL     OW 5237   1.052   3.517   0.570
 1701SOL    HW1 5238   1.094   3.517   0.484
 1701SOL    HW2 5239   1.016   3.429   0.581
 1702SOL     OW 5240   0.546   2.004   1.736
 1702SOL    HW1 5241   0.461   1.965   1.718
 1702SOL    HW2 5242   0.609   1.937   1.709
 1703SOL     OW 5243   3.661   1.494   3.951
 1703SOL    HW1 5244   3.739   1.550   3.957
 1703SOL    HW2 5245   3.588   1.556   3.944
 1704SOL     OW 5246   1.094   3.155   2.187
 1704SOL    HW1 5247   1.054   3.235   2.219
 1704SOL    HW2 5248   1.021   3.096   2.168
 1705SOL     OW 5249   2.269   0.769   0.892
 1705SOL    HW1 5250   2.272   0.858   0.858
 1705SOL    HW2 5251   2.337   0.767   0.960
 1706SOL     OW 5252   2.234   0.819   3.302
 1706SOL    HW1 5253   2.192   0.887   3.355
 1706SOL    HW2 5254   2.228   0.851   3.212
 1707SOL     OW 5255   1.453   1.192   1.449
 1707SOL    HW1 5256   1.446   1.102   1.417
 1707SOL    HW2 5257   1.507   1.185   1.528
 1708SOL     OW 5258   3.275   2.137   1.997
 1708SOL    HW1 5259   3.295   2.173   2.084
 1708SOL    HW2 5260   3.213   2.198   1.959
 1709SOL     OW 5261   2.972   1.880   0.451
 1709SOL    HW1 5262   3.013   1.918   0.374
 1709SOL    HW2 5263   3.045   1.846   0.503
 1710SOL     OW 5264   2.542   1.273   2.371
 1710SOL    HW1 5265   2.532   1.358   2.413
 1710SOL    HW2 5266   2.473   1.218   2.410
 1711SOL     OW 5267   1.065   0.563   2.658
 1711SOL    HW1 5268   1.071   0.469   2.641
 1711SOL    HW2 5269   0.974   0.585   2.639
 1712SOL     OW 5270   2.477   2.346   0.941
 1712SOL    HW1 5271   2.467   2.271   0.999
 1712SOL    HW2 5272   2.417   2.328   0.868
 1713SOL     OW 5273   0.754   2.551   1.137
 1713SOL    HW1 5274   0.700   2.621   1.099
 1713SOL    HW2 5275   0.837   2.557   1.088
 1714SOL     OW 5276   2.954   1.239   2.720
 1714SOL    HW1 5277   3.032   1.234   2.665
 1714SOL    HW2 5278   2.970   1.313   2.779
 1715SOL     OW 5279   1.330   0.632   0.301
 1715SOL    HW1 5280   1.248   0.618   0.254
 1715SOL    HW2 5281   1.398   0.619   0.234
 1716SOL     OW 5282   2.628   1.748   2.849
 1716SOL    HW1 5283   2.717   1.763   2.816
 1716SOL    HW2 5284   2.640   1.726   2.941
 1717SOL     OW 5285   1.030   1.830   2.642
 1717SOL    HW1 5286   1.084   1.845   2.564
 1717SOL    HW2 5287   1.093   1.826   2.714
 1718SOL     OW 5288   1.475   0.926   1.085
 1718SOL    HW1 5289   1.402   0.867   1.101
 1718SOL    HW2 5290   1.530   0.880   1.022
 1719SOL     OW 5291   2.802   2.222   2.964
 1719SOL    HW1 5292   2.726   2.209   3.020
 1719SOL    HW2 5293   2.876   2.193   3.018
 1720SOL     OW 5294   2.111   1.152   1.174
 1720SOL    HW1 5295   2.106   1.073   1.119
 1720SOL    HW2 5296   2.046   1.211   1.136
 1721SOL     OW 5297   1.769   3.000   0.507
 1721SOL    HW1 5298   1.813   2.993   0.422
 1721SOL    HW2 5299   1.720   2.919   0.516
 1722SOL     OW 5300   1.491   2.070   3.752
 1722SOL    HW1 5301   1.519   2.129   3.683
 1722SOL    HW2 5302   1.403   2.044   3.728
 1723SOL     OW 5303   2.013   0.292   0.781
 1723SOL    HW1 5304   1.922   0.280   0.756
 1723SOL    HW2 5305   2.028   0.387   0.776
 1724SOL     OW 5306   0.019   3.072   0.580
 1724SOL    HW1 5307  -0.017   3.020   0.652
 1724SOL    HW2 5308   0.113   3.074   0.596
 1725SOL     OW 5309   0.929   0.233   0.829
 1725SOL    HW1 5310   0.899   0.257   0.917
 1725SOL    HW2 5311   0.996   0.298   0.808
 1726SOL     OW 5312   1.323   3.679   0.395
 1726SOL    HW1 5313   1.379   3.653   0.468
 1726SOL    HW2 5314   1.288   3.597   0.361
 1727SOL     OW 5315   3.659   3.490   3.517
 1727SOL    HW1 5316   3.609   3.568   3.493
 1727SOL    HW2 5317   3.594   3.419   3.516
 1728SOL     OW 5318   1.829   2.946   3.073
 1728SOL    HW1 5319   1.896   2.930   3.140
 1728SOL    HW2 5320   1.871   2.920   2.991
 1729SOL     OW 5321   2.012   0.556   1.463
 1729SOL    HW1 5322   2.078   0.504   1.417
 1729SOL    HW2 5323   2.043   0.560   1.553
 1730SOL     OW 5324   0.993   3.898   0.137
 1730SOL    HW1 5325   0.955   3.858   0.215
 1730SOL    HW2 5326   1.083   3.921   0.164
 1731SOL     OW 5327   2.790   1.371   0.499
 1731SOL    HW1 5328   2.865   1.321   0.467
 1731SOL    HW2 5329   2.828   1.436   0.558
 1732SOL     OW 5330   0.551   1.770   1.252
 1732SOL    HW1 5331   0.541   1.773   1.347
 1732SOL    HW2 5332   0.482   1.711   1.222
 1733SOL     OW 5333   0.639   0.632   3.695
 1733SOL    HW1 5334   0.545   0.623   3.678
 1733SOL    HW2 5335   0.681   0.591   3.619
 1734SOL     OW 5336   0.418   0.110   3.517
 1734SOL    HW1 5337   0.414   0.038   3.580
 1734SOL    HW2 5338   0.399   0.069   3.433
 1735SOL     OW 5339   1.614   2.136   1.289
 1735SOL    HW1 5340   1.548   2.067   1.285
 1735SOL    HW2 5341   1.649   2.141   1.199
 1736SOL     OW 5342   0.909   3.016   0.859
 1736SOL    HW1 5343   0.949   2.989   0.941
 1736SOL    HW2 5344   0.821   3.043   0.883
 1737SOL     OW 5345   0.782   1.411   1.982
 1737SOL    HW1 5346   0.815   1.486   2.031
 1737SOL    HW2 5347   0.802   1.430   1.891
 1738SOL     OW 5348   3.331   3.721   2.034
 1738SOL    HW1 5349   3.370   3.794   2.083
 1738SOL    HW2 5350   3.237   3.730   2.049
 1739SOL     OW 5351   0.073   1.085   3.556
 1739SOL    HW1 5352   0.104   0.999   3.583
 1739SOL    HW2 5353   0.095   1.143   3.629
 1740SOL     OW 5354   0.327   0.269   3.740
 1740SOL    HW1 5355   0.324   0.230   3.652
 1740SOL    HW2 5356   0.237   0.262   3.772
 1741SOL     OW 5357   0.143   3.717   2.513
 1741SOL    HW1 5358   0.089   3.792   2.487
 1741SOL    HW2 5359   0.081   3.655   2.552
 1742SOL     OW 5360   0.426   3.413   3.236
 1742SOL    HW1 5361   0.441   3.412   3.142
 1742SOL    HW2 5362   0.491   3.474   3.270
 1743SOL     OW 5363   2.411   1.786   2.690
 1743SOL    HW1 5364   2.441   1.794   2.599
 1743SOL    HW2 5365   2.492   1.778   2.741
 1744SOL     OW 5366   1.424   1.584   3.945
 1744SOL    HW1 5367   1.504   1.632   3.966
 1744SOL    HW2 5368   1.371   1.646   3.895
 1745SOL     OW 5369   3.004   0.374   2.063
 1745SOL    HW1 5370   3.033   0.447   2.119
 1745SOL    HW2 5371   3.066   0.374   1.990
 1746SOL     OW 5372   3.338   0.796   1.676
 1746SOL    HW1 5373   3.327   0.788   1.581
 1746SOL    HW2 5374   3.401   0.868   1.686
 1747SOL     OW 5375   1.330   2.423   3.070
 1747SOL    HW1 5376   1.298   2.338   3.039
 1747SOL    HW2 5377   1.251   2.469   3.098
 1748SOL     OW 5378   3.130   0.007   3.467
 1748SOL    HW1 5379   3.183  -0.063   3.507
 1748SOL    HW2 5380   3.157   0.086   3.512
 1749SOL     OW 5381   1.871   2.186   2.167
 1749SOL    HW1 5382   1.781   2.169   2.141
 1749SOL    HW2 5383   1.921   2.177   2.086
 1750SOL     OW 5384   2.147   1.372   3.164
 1750SOL    HW1 5385   2.141   1.347   3.072
 1750SOL    HW2 5386   2.237   1.349   3.190
 1751SOL     OW 5387   0.386   0.442   3.399
 1751SOL    HW1 5388   0.414   0.491   3.322
 1751SOL    HW2 5389   0.465   0.432   3.452
 1752SOL     OW 5390   3.833   1.099   1.362
 1752SOL    HW1 5391   3.924   1.111   1.338
 1752SOL    HW2 5392   3.822   1.149   1.443
 1753SOL     OW 5393   2.414   2.600   0.991
 1753SOL    HW1 5394   2.466   2.522   0.971
 1753SOL    HW2 5395   2.456   2.638   1.069
 1754SOL     OW 5396   2.228   3.169   2.880
 1754SOL    HW1 5397   2.195   3.177   2.791
 1754SOL    HW2 5398   2.264   3.081   2.884
 1755SOL     OW 5399   0.036   3.651   3.674
 1755SOL    HW1 5400  -0.017   3.612   3.605
 1755SOL    HW2 5401   0.083   3.722   3.631
 1756SOL     OW 5402   3.306   2.651   1.697
 1756SOL    HW1 5403   3.266   2.675   1.613
 1756SOL    HW2 5404   3.400   2.659   1.682
 1757SOL     OW 5405   0.414   1.352   2.466
 1757SOL    HW1 5406   0.390   1.388   2.381
 1757SOL    HW2 5407   0.472   1.278   2.445
 1758SOL     OW 5408   2.108   3.964   3.165
 1758SOL    HW1 5409   2.086   3.895   3.103
 1758SOL    HW2 5410   2.171   4.019   3.118
 1759SOL     OW 5411   3.440   2.537   0.462
 1759SOL    HW1 5412   3.423   2.593   0.386
 1759SOL    HW2 5413   3.423   2.593   0.538
 1760SOL     OW 5414   0.815   1.849   0.212
 1760SOL    HW1 5415   0.869   1.800   0.149
 1760SOL    HW2 5416   0.878   1.890   0.270
 1761SOL     OW 5417   0.117   1.985   3.662
 1761SOL    HW1 5418   0.111   2.024   3.749
 1761SOL    HW2 5419   0.027   1.970   3.635
 1762SOL     OW 5420   0.701   1.253   2.426
 1762SOL    HW1 5421   0.700   1.344   2.394
 1762SOL    HW2 5422   0.764   1.209   2.368
 1763SOL     OW 5423   3.591   1.978   2.363
 1763SOL    HW1 5424   3.603   2.013   2.451
 1763SOL    HW2 5425   3.641   2.036   2.306
 1764SOL     OW 5426   0.588   1.851   2.410
 1764SOL    HW1 5427   0.542   1.914   2.353
 1764SOL    HW2 5428   0.675   1.888   2.421
 1765SOL     OW 5429   3.618   2.505   1.899
 1765SOL    HW1 5430   3.582   2.548   1.821
 1765SOL    HW2 5431   3.704   2.545   1.911
 1766SOL     OW 5432   0.763   2.299   1.493
 1766SOL    HW1 5433   0.828   2.368   1.503
 1766SOL    HW2 5434   0.760   2.257   1.580
 1767SOL     OW 5435   1.250   2.061   0.236
 1767SOL    HW1 5436   1.274   1.971   0.213
 1767SOL    HW2 5437   1.157   2.055   0.261
 1768SOL     OW 5438   2.489   2.858   2.084
 1768SOL    HW1 5439   2.554   2.793   2.060
 1768SOL    HW2 5440   2.487   2.919   2.009
 1769SOL     OW 5441   1.699   1.236   3.534
 1769SOL    HW1 5442   1.677   1.193   3.451
 1769SOL    HW2 5443   1.615   1.271   3.566
 1770SOL     OW 5444   2.143   2.417   2.582
 1770SOL    HW1 5445   2.076   2.353   2.608
 1770SOL    HW2 5446   2.143   2.482   2.651
 1771SOL     OW 5447   2.740   1.447   3.662
 1771SOL    HW1 5448   2.720   1.541   3.660
 1771SOL    HW2 5449   2.654   1.405   3.674
 1772SOL     OW 5450   0.569   1.575   0.681
 1772SOL    HW1 5451   0.630   1.552   0.611
 1772SOL    HW2 5452   0.497   1.620   0.635
 1773SOL     OW 5453   2.493   1.010   1.627
 1773SOL    HW1 5454   2.546   1.056   1.693
 1773SOL    HW2 5455   2.515   0.918   1.640
 1774SOL     OW 5456   0.586   3.171   1.788
 1774SOL    HW1 5457   0.677   3.149   1.768
 1774SOL    HW2 5458   0.538   3.151   1.707
 1775SOL     OW 5459   1.273   1.593   1.888
 1775SOL    HW1 5460   1.347   1.627   1.938
 1775SOL    HW2 5461   1.305   1.509   1.854
 1776SOL     OW 5462   2.090   2.438   2.933
 1776SOL    HW1 5463   2.098   2.349   2.900
 1776SOL    HW2 5464   2.021   2.433   2.999
 1777SOL     OW 5465   2.908   0.979   3.674
 1777SOL    HW1 5466   2.898   0.906   3.612
 1777SOL    HW2 5467   3.003   0.989   3.684
 1778SOL     OW 5468   3.559   1.899   1.445
 1778SOL    HW1 5469   3.493   1.896   1.376
 1778SOL    HW2 5470   3.518   1.947   1.517
 1779SOL     OW 5471   0.745   1.883   0.783
 1779SOL    HW1 5472   0.747   1.797   0.824
 1779SOL    HW2 5473   0.659   1.887   0.740
 1780SOL     OW 5474   3.362   1.021   2.375
 1780SOL    HW1 5475   3.448   1.062   2.371
 1780SOL    HW2 5476   3.377   0.931   2.345
 1781SOL     OW 5477   3.321   1.941   1.281
 1781SOL    HW1 5478   3.270   1.900   1.351
 1781SOL    HW2 5479   3.263   2.008   1.245
 1782SOL     OW 5480   1.911   3.281   3.780
 1782SOL    HW1 5481   1.816   3.289   3.770
 1782SOL    HW2 5482   1.948   3.331   3.707
 1783SOL     OW 5483   0.628   3.667   3.029
 1783SOL    HW1 5484   0.703   3.655   2.970
 1783SOL    HW2 5485   0.668   3.673   3.116
 1784SOL     OW 5486   0.502   0.339   2.672
 1784SOL    HW1 5487   0.423   0.351   2.724
 1784SOL    HW2 5488   0.545   0.263   2.711
 1785SOL     OW 5489   2.373   3.024   3.247
 1785SOL    HW1 5490   2.428   2.948   3.267
 1785SOL    HW2 5491   2.317   3.033   3.324
 1786SOL     OW 5492   3.108   0.739   3.183
 1786SOL    HW1 5493   3.073   0.810   3.237
 1786SOL    HW2 5494   3.200   0.732   3.208
 1787SOL     OW 5495   0.600   2.255   1.793
 1787SOL    HW1 5496   0.620   2.242   1.885
 1787SOL    HW2 5497   0.599   2.167   1.755
 1788SOL     OW 5498   3.540   0.283   1.851
 1788SOL    HW1 5499   3.478   0.333   1.798
 1788SOL    HW2 5500   3.604   0.250   1.787
 1789SOL     OW 5501   3.941   1.924   2.970
 1789SOL    HW1 5502   3.940   1.843   2.919
 1789SOL    HW2 5503   3.882   1.907   3.043
 1790SOL     OW 5504   2.648   2.165   2.263
 1790SOL    HW1 5505   2.584   2.236   2.258
 1790SOL    HW2 5506   2.620   2.114   2.339
 1791SOL     OW 5507   1.562   0.543   0.158
 1791SOL    HW1 5508   1.527   0.494   0.084
 1791SOL    HW2 5509   1.640   0.587   0.122
 1792SOL     OW 5510   3.554   0.071   2.458
 1792SOL    HW1 5511   3.520   0.145   2.408
 1792SOL    HW2 5512   3.639   0.051   2.417
 1793SOL     OW 5513   3.835   3.841   3.020
 1793SOL    HW1 5514   3.757   3.792   3.045
 1793SOL    HW2 5515   3.888   3.778   2.971
 1794SOL     OW 5516   1.196   1.231   0.769
 1794SOL    HW1 5517   1.251   1.153   0.779
 1794SOL    HW2 5518   1.139   1.230   0.846
 1795SOL     OW 5519   2.687   1.100   0.445
 1795SOL    HW1 5520   2.732   1.177   0.480
 1795SOL    HW2 5521   2.686   1.114   0.350
 1796SOL     OW 5522   1.845   2.163   0.616
 1796SOL    HW1 5523   1.826   2.069   0.618
 1796SOL    HW2 5524   1.906   2.177   0.689
 1797SOL     OW 5525   1.922   2.049   1.590
 1797SOL    HW1 5526   1.899   2.093   1.508
 1797SOL    HW2 5527   1.988   2.105   1.630
 1798SOL     OW 5528   1.973   0.521   2.103
 1798SOL    HW1 5529   2.055   0.533   2.152
 1798SOL    HW2 5530   1.971   0.428   2.082
 1799SOL     OW 5531   1.266   3.883   1.888
 1799SOL    HW1 5532   1.294   3.909   1.976
 1799SOL    HW2 5533   1.174   3.907   1.884
 1800SOL     OW 5534   2.154   2.173   2.765
 1800SOL    HW1 5535   2.220   2.224   2.720
 1800SOL    HW2 5536   2.149   2.091   2.716
 1801SOL     OW 5537   3.878   0.486   3.378
 1801SOL    HW1 5538   3.835   0.557   3.330
 1801SOL    HW2 5539   3.807   0.444   3.427
 1802SOL     OW 5540   1.535   3.809   0.286
 1802SOL    HW1 5541   1.554   3.764   0.204
 1802SOL    HW2 5542   1.480   3.747   0.335
 1803SOL     OW 5543   0.867   0.812   0.758
 1803SOL    HW1 5544   0.881   0.764   0.676
 1803SOL    HW2 5545   0.801   0.878   0.737
 1804SOL     OW 5546   0.831   3.426   3.875
 1804SOL    HW1 5547   0.745   3.394   3.901
 1804SOL    HW2 5548   0.893   3.362   3.912
 1805SOL     OW 5549   2.312   1.098   0.442
 1805SOL    HW1 5550   2.291   1.065   0.355
 1805SOL    HW2 5551   2.399   1.063   0.460
 1806SOL     OW 5552   2.238   3.793   2.826
 1806SOL    HW1 5553   2.264   3.780   2.917
 1806SOL    HW2 5554   2.269   3.881   2.805
 1807SOL     OW 5555   0.478   3.411   1.686
 1807SOL    HW1 5556   0.517   3.329   1.717
 1807SOL    HW2 5557   0.442   3.390   1.600
 1808SOL     OW 5558   3.726   3.190   2.997
 1808SOL    HW1 5559   3.746   3.260   3.058
 1808SOL    HW2 5560   3.630   3.188   2.994
 1809SOL     OW 5561   3.584   3.793   3.120
 1809SOL    HW1 5562   3.610   3.870   3.171
 1809SOL    HW2 5563   3.546   3.733   3.183
 1810SOL     OW 5564   1.599   1.855   3.898
 1810SOL    HW1 5565   1.584   1.942   3.861
 1810SOL    HW2 5566   1.693   1.842   3.892
 1811SOL     OW 5567   2.226   1.660   3.661
 1811SOL    HW1 5568   2.150   1.715   3.680
 1811SOL    HW2 5569   2.192   1.589   3.607
 1812SOL     OW 5570   1.662   3.750   3.343
 1812SOL    HW1 5571   1.674   3.660   3.312
 1812SOL    HW2 5572   1.747   3.773   3.381
 1813SOL     OW 5573   2.200   3.932   0.063
 1813SOL    HW1 5574   2.235   3.864   0.122
 1813SOL    HW2 5575   2.250   3.920  -0.018
 1814SOL     OW 5576   2.553   2.173   3.172
 1814SOL    HW1 5577   2.514   2.130   3.096
 1814SOL    HW2 5578   2.601   2.103   3.217
 1815SOL     OW 5579   2.121   3.257   0.821
 1815SOL    HW1 5580   2.077   3.187   0.772
 1815SOL    HW2 5581   2.182   3.296   0.759
 1816SOL     OW 5582   1.759   0.514   3.294
 1816SOL    HW1 5583   1.665   0.499   3.285
 1816SOL    HW2 5584   1.797   0.427   3.302
 1817SOL     OW 5585   3.076   1.345   0.170
 1817SOL    HW1 5586   3.023   1.341   0.091
 1817SOL    HW2 5587   3.166   1.339   0.139
 1818SOL     OW 5588   0.411   2.720   2.080
 1818SOL    HW1 5589   0.437   2.635   2.043
 1818SOL    HW2 5590   0.324   2.703   2.118
 1819SOL     OW 5591   0.704   0.488   0.882
 1819SOL    HW1 5592   0.661   0.427   0.822
 1819SOL    HW2 5593   0.709   0.570   0.834
 1820SOL     OW 5594   3.696   1.640   2.933
 1820SOL    HW1 5595   3.637   1.566   2.941
 1820SOL    HW2 5596   3.651   1.712   2.978
 1821SOL     OW 5597   2.383   0.254   2.210
 1821SOL    HW1 5598   2.477   0.270   2.213
 1821SOL    HW2 5599   2.374   0.177   2.154
 1822SOL     OW 5600   2.113   0.086   2.159
 1822SOL    HW1 5601   2.062   0.011   2.188
 1822SOL    HW2 5602   2.203   0.053   2.155
 1823SOL     OW 5603   1.634   2.295   1.654
 1823SOL    HW1 5604   1.592   2.381   1.658
 1823SOL    HW2 5605   1.562   2.233   1.648
 1824SOL     OW 5606   2.252   0.342   1.873
 1824SOL    HW1 5607   2.243   0.261   1.823
 1824SOL    HW2 5608   2.170   0.348   1.923
 1825SOL     OW 5609   1.125   2.484   1.847
 1825SOL    HW1 5610   1.120   2.390   1.866
 1825SOL    HW2 5611   1.115   2.526   1.933
 1826SOL     OW 5612   2.681   2.491   1.550
 1826SOL    HW1 5613   2.600   2.465   1.505
 1826SOL    HW2 5614   2.751   2.465   1.490
 1827SOL     OW 5615   3.474   1.762   2.178
 1827SOL    HW1 5616   3.500   1.854   2.190
 1827SOL    HW2 5617   3.379   1.765   2.166
 1828SOL     OW 5618   3.294   2.306   2.656
 1828SOL    HW1 5619   3.316   2.234   2.715
 1828SOL    HW2 5620   3.200   2.319   2.669
 1829SOL     OW 5621   1.661   0.081   2.569
 1829SOL    HW1 5622   1.647  -0.012   2.589
 1829SOL    HW2 5623   1.580   0.124   2.596
 1830SOL     OW 5624   1.495   2.882   3.210
 1830SOL    HW1 5625   1.472   2.831   3.288
 1830SOL    HW2 5626   1.510   2.817   3.142
 1831SOL     OW 5627   0.563   0.356   3.622
 1831SOL    HW1 5628   0.529   0.267   3.626
 1831SOL    HW2 5629   0.513   0.404   3.688
 1832SOL     OW 5630   0.370   1.908   3.857
 1832SOL    HW1 5631   0.416   1.900   3.773
 1832SOL    HW2 5632   0.294   1.850   3.849
 1833SOL     OW 5633   3.112   3.304   1.948
 1833SOL    HW1 5634   3.097   3.219   1.990
 1833SOL    HW2 5635   3.029   3.350   1.955
 1834SOL     OW 5636   2.674   3.472   1.525
 1834SOL    HW1 5637   2.762   3.461   1.562
 1834SOL    HW2 5638   2.623   3.401   1.563
 1835SOL     OW 5639   3.734   3.379   3.745
 1835SOL    HW1 5640   3.693   3.433   3.813
 1835SOL    HW2 5641   3.720   3.428   3.664
 1836SOL     OW 5642   0.202   3.054   1.158
 1836SOL    HW1 5643   0.263   3.122   1.185
 1836SOL    HW2 5644   0.121   3.100   1.138
 1837SOL     OW 5645   0.165   0.875   3.795
 1837SOL    HW1 5646   0.170   0.787   3.758
 1837SOL    HW2 5647   0.149   0.861   3.888
 1838SOL     OW 5648   3.350   2.142   2.879
 1838SOL    HW1 5649   3.392   2.056   2.886
 1838SOL    HW2 5650   3.414   2.203   2.914
 1839SOL     OW 5651   2.707   0.895   0.883
 1839SOL    HW1 5652   2.701   0.853   0.797
 1839SOL    HW2 5653   2.707   0.989   0.864
 1840SOL     OW 5654   0.507   3.681   0.583
 1840SOL    HW1 5655   0.564   3.739   0.635
 1840SOL    HW2 5656   0.541   3.689   0.494
 1841SOL     OW 5657   2.493   0.176   3.669
 1841SOL    HW1 5658   2.505   0.111   3.600
 1841SOL    HW2 5659   2.405   0.157   3.704
 1842SOL     OW 5660   3.323   0.541   3.574
 1842SOL    HW1 5661   3.414   0.548   3.544
 1842SOL    HW2 5662   3.278   0.613   3.530
 1843SOL     OW 5663   0.372   3.065   0.839
 1843SOL    HW1 5664   0.308   3.128   0.873
 1843SOL    HW2 5665   0.366   3.074   0.744
 1844SOL     OW 5666   0.682   2.461   0.849
 1844SOL    HW1 5667   0.650   2.392   0.908
 1844SOL    HW2 5668   0.616   2.467   0.781
 1845SOL     OW 5669   2.587   3.529   3.122
 1845SOL    HW1 5670   2.666   3.475   3.111
 1845SOL    HW2 5671   2.526   3.472   3.168
 1846SOL     OW 5672   2.993   3.443   0.916
 1846SOL    HW1 5673   3.066   3.459   0.856
 1846SOL    HW2 5674   3.009   3.355   0.949
 1847SOL     OW 5675   1.039   0.127   0.408
 1847SOL    HW1 5676   1.126   0.090   0.423
 1847SOL    HW2 5677   0.982   0.080   0.469
 1848SOL     OW 5678   2.354   0.135   3.065
 1848SOL    HW1 5679   2.328   0.120   2.974
 1848SOL    HW2 5680   2.334   0.227   3.080
 1849SOL     OW 5681   1.316   2.734   0.547
 1849SOL    HW1 5682   1.342   2.655   0.499
 1849SOL    HW2 5683   1.221   2.727   0.556
 1850SOL     OW 5684   1.119   1.677   3.126
 1850SOL    HW1 5685   1.031   1.654   3.094
 1850SOL    HW2 5686   1.102   1.736   3.199
 1851SOL     OW 5687   1.474   2.685   1.561
 1851SOL    HW1 5688   1.454   2.636   1.640
 1851SOL    HW2 5689   1.569   2.677   1.551
 1852SOL     OW 5690   1.892   3.715   3.006
 1852SOL    HW1 5691   1.929   3.641   2.957
 1852SOL    HW2 5692   1.901   3.789   2.947
 1853SOL     OW 5693   1.230   1.624   0.802
 1853SOL    HW1 5694   1.188   1.542   0.828
 1853SOL    HW2 5695   1.158   1.688   0.800
 1854SOL     OW 5696   2.034   1.662   2.744
 1854SOL    HW1 5697   2.066   1.670   2.834
 1854SOL    HW2 5698   2.106   1.618   2.697
 1855SOL     OW 5699   2.719   0.839   2.033
 1855SOL    HW1 5700   2.717   0.910   2.098
 1855SOL    HW2 5701   2.759   0.765   2.079
 1856SOL     OW 5702   0.399   2.785   0.783
 1856SOL    HW1 5703   0.386   2.878   0.802
 1856SOL    HW2 5704   0.478   2.781   0.729
 1857SOL     OW 5705   2.600   2.108   2.538
 1857SOL    HW1 5706   2.644   2.164   2.602
 1857SOL    HW2 5707   2.506   2.120   2.555
 1858SOL     OW 5708   1.917   2.788   0.352
 1858SOL    HW1 5709   1.953   2.764   0.266
 1858SOL    HW2 5710   1.995   2.808   0.405
 1859SOL     OW 5711   0.509   2.481   0.588
 1859SOL    HW1 5712   0.516   2.386   0.584
 1859SOL    HW2 5713   0.504   2.509   0.497
 1860SOL     OW 5714   0.861   2.754   3.166
 1860SOL    HW1 5715   0.860   2.721   3.076
 1860SOL    HW2 5716   0.783   2.715   3.205
 1861SOL     OW 5717   3.663   1.718   1.866
 1861SOL    HW1 5718   3.618   1.707   1.950
 1861SOL    HW2 5719   3.711   1.801   1.876
 1862SOL     OW 5720   3.918   2.498   1.428
 1862SOL    HW1 5721   3.862   2.540   1.493
 1862SOL    HW2 5722   4.007   2.513   1.460
 1863SOL     OW 5723   0.159   2.530   2.449
 1863SOL    HW1 5724   0.243   2.575   2.455
 1863SOL    HW2 5725   0.181   2.437   2.460
 1864SOL     OW 5726   1.349   2.606   3.775
 1864SOL    HW1 5727   1.294   2.528   3.783
 1864SOL    HW2 5728   1.431   2.582   3.819
 1865SOL     OW 5729   2.067   1.802   3.321
 1865SOL    HW1 5730   2.149   1.849   3.307
 1865SOL    HW2 5731   2.084   1.745   3.396
 1866SOL     OW 5732   3.608   2.146   0.680
 1866SOL    HW1 5733   3.633   2.222   0.732
 1866SOL    HW2 5734   3.571   2.183   0.600
 1867SOL     OW 5735   1.164   1.855   1.184
 1867SOL    HW1 5736   1.144   1.898   1.101
 1867SOL    HW2 5737   1.165   1.762   1.163
 1868SOL     OW 5738   3.587   1.090   0.334
 1868SOL    HW1 5739   3.504   1.129   0.362
 1868SOL    HW2 5740   3.654   1.153   0.362
 1869SOL     OW 5741   1.883   0.357   1.603
 1869SOL    HW1 5742   1.907   0.397   1.520
 1869SOL    HW2 5743   1.805   0.305   1.584
 1870SOL     OW 5744   0.640   1.493   3.406
 1870SOL    HW1 5745   0.678   1.409   3.433
 1870SOL    HW2 5746   0.642   1.489   3.310
 1871SOL     OW 5747   0.372   3.106   0.036
 1871SOL    HW1 5748   0.441   3.169   0.014
 1871SOL    HW2 5749   0.389   3.084   0.128
 1872SOL     OW 5750   1.801   1.672   3.783
 1872SOL    HW1 5751   1.706   1.658   3.778
 1872SOL    HW2 5752   1.836   1.625   3.708
 1873SOL     OW 5753   3.758   0.633   0.318
 1873SOL    HW1 5754   3.754   0.550   0.365
 1873SOL    HW2 5755   3.813   0.615   0.242
 1874SOL     OW 5756   1.098   0.944   2.932
 1874SOL    HW1 5757   1.171   1.005   2.929
 1874SOL    HW2 5758   1.042   0.969   2.858
 1875SOL     OW 5759   1.806   2.401   2.752
 1875SOL    HW1 5760   1.788   2.355   2.834
 1875SOL    HW2 5761   1.797   2.493   2.774
 1876SOL     OW 5762   2.123   2.464   1.698
 1876SOL    HW1 5763   2.191   2.468   1.631
 1876SOL    HW2 5764   2.051   2.418   1.655
 1877SOL     OW 5765   1.542   0.471   0.456
 1877SOL    HW1 5766   1.606   0.460   0.387
 1877SOL    HW2 5767   1.466   0.510   0.413
 1878SOL     OW 5768   2.690   2.623   2.040
 1878SOL    HW1 5769   2.724   2.608   1.952
 1878SOL    HW2 5770   2.721   2.548   2.091
 1879SOL     OW 5771   2.183   3.383   1.770
 1879SOL    HW1 5772   2.264   3.396   1.820
 1879SOL    HW2 5773   2.164   3.289   1.781
 1880SOL     OW 5774   1.800   0.415   0.388
 1880SOL    HW1 5775   1.730   0.375   0.440
 1880SOL    HW2 5776   1.875   0.357   0.400
 1881SOL     OW 5777   3.026   2.403   2.675
 1881SOL    HW1 5778   2.968   2.474   2.705
 1881SOL    HW2 5779   2.972   2.351   2.616
 1882SOL     OW 5780   1.512   3.025   0.893
 1882SOL    HW1 5781   1.485   3.042   0.983
 1882SOL    HW2 5782   1.598   3.066   0.885
 1883SOL     OW 5783   1.377   0.956   2.921
 1883SOL    HW1 5784   1.316   0.889   2.952
 1883SOL    HW2 5785   1.349   0.974   2.831
 1884SOL     OW 5786   1.284   0.690   2.965
 1884SOL    HW1 5787   1.284   0.706   2.871
 1884SOL    HW2 5788   1.192   0.675   2.987
 1885SOL     OW 5789   2.165   2.467   1.404
 1885SOL    HW1 5790   2.114   2.543   1.377
 1885SOL    HW2 5791   2.114   2.392   1.372
 1886SOL     OW 5792   3.332   2.112   0.335
 1886SOL    HW1 5793   3.315   2.149   0.422
 1886SOL    HW2 5794   3.382   2.180   0.290
 1887SOL     OW 5795   3.671   0.625   1.070
 1887SOL    HW1 5796   3.701   0.654   0.984
 1887SOL    HW2 5797   3.748   0.584   1.111
 1888SOL     OW 5798   0.299   1.771   3.337
 1888SOL    HW1 5799   0.279   1.693   3.286
 1888SOL    HW2 5800   0.378   1.748   3.386
 1889SOL     OW 5801   3.341   2.464   2.050
 1889SOL    HW1 5802   3.409   2.531   2.037
 1889SOL    HW2 5803   3.372   2.388   2.000
 1890SOL     OW 5804   2.543   1.153   1.056
 1890SOL    HW1 5805   2.532   1.146   1.151
 1890SOL    HW2 5806   2.634   1.181   1.044
 1891SOL     OW 5807   2.479   1.848   0.891
 1891SOL    HW1 5808   2.562   1.893   0.872
 1891SOL    HW2 5809   2.502   1.755   0.888
 1892SOL     OW 5810   2.834   0.170   2.079
 1892SOL    HW1 5811   2.911   0.127   2.114
 1892SOL    HW2 5812   2.869   0.242   2.026
 1893SOL     OW 5813   1.306   0.039   2.128
 1893SOL    HW1 5814   1.395   0.070   2.141
 1893SOL    HW2 5815   1.254   0.119   2.117
 1894SOL     OW 5816   2.908   2.727   0.523
 1894SOL    HW1 5817   2.898   2.817   0.555
 1894SOL    HW2 5818   2.912   2.736   0.428
 1895SOL     OW 5819   3.637   0.004   3.321
 1895SOL    HW1 5820   3.716   0.040   3.361
 1895SOL    HW2 5821   3.575   0.077   3.320
 1896SOL     OW 5822   0.106   1.246   3.163
 1896SOL    HW1 5823   0.088   1.319   3.222
 1896SOL    HW2 5824   0.081   1.279   3.076
 1897SOL     OW 5825   3.281   0.275   2.952
 1897SOL    HW1 5826   3.208   0.333   2.933
 1897SOL    HW2 5827   3.315   0.250   2.866
 1898SOL     OW 5828   1.819   0.169   0.173
 1898SOL    HW1 5829   1.809   0.219   0.254
 1898SOL    HW2 5830   1.813   0.078   0.200
 1899SOL     OW 5831   1.110   3.337   0.795
 1899SOL    HW1 5832   1.118   3.283   0.873
 1899SOL    HW2 5833   1.175   3.300   0.734
 1900SOL     OW 5834   1.361   1.711   3.328
 1900SOL    HW1 5835   1.396   1.731   3.241
 1900SOL    HW2 5836   1.336   1.618   3.324
 1901SOL     OW 5837   1.969   2.167   1.316
 1901SOL    HW1 5838   2.017   2.199   1.240
 1901SOL    HW2 5839   1.915   2.242   1.343
 1902SOL     OW 5840   2.358   0.100   2.784
 1902SOL    HW1 5841   2.450   0.122   2.764
 1902SOL    HW2 5842   2.308   0.170   2.743
 1903SOL     OW 5843   2.590   1.910   1.419
 1903SOL    HW1 5844   2.537   1.874   1.490
 1903SOL    HW2 5845   2.660   1.846   1.406
 1904SOL     OW 5846   2.251   0.107   3.455
 1904SOL    HW1 5847   2.176   0.085   3.399
 1904SOL    HW2 5848   2.213   0.121   3.541
 1905SOL     OW 5849   1.359   2.833   1.120
 1905SOL    HW1 5850   1.334   2.897   1.186
 1905SOL    HW2 5851   1.278   2.815   1.072
 1906SOL     OW 5852   2.502   3.067   0.088
 1906SOL    HW1 5853   2.531   3.070  -0.003
 1906SOL    HW2 5854   2.421   3.016   0.086
 1907SOL     OW 5855   2.368   2.299   2.653
 1907SOL    HW1 5856   2.321   2.377   2.625
 1907SOL    HW2 5857   2.432   2.331   2.717
 1908SOL     OW 5858   1.019   3.676   2.200
 1908SOL    HW1 5859   0.942   3.628   2.170
 1908SOL    HW2 5860   0.987   3.728   2.274
 1909SOL     OW 5861   2.999   2.599   0.834
 1909SOL    HW1 5862   2.937   2.653   0.784
 1909SOL    HW2 5863   3.076   2.655   0.845
 1910SOL     OW 5864   0.164   2.082   2.843
 1910SOL    HW1 5865   0.111   2.062   2.766
 1910SOL    HW2 5866   0.122   2.034   2.914
 1911SOL     OW 5867   0.749   3.951   2.924
 1911SOL    HW1 5868   0.691   3.962   3.000
 1911SOL    HW2 5869   0.691   3.960   2.849
 1912SOL     OW 5870   2.963   3.123   2.856
 1912SOL    HW1 5871   2.955   3.050   2.917
 1912SOL    HW2 5872   2.879   3.169   2.862
 1913SOL     OW 5873   3.721   1.713   0.669
 1913SOL    HW1 5874   3.659   1.650   0.707
 1913SOL    HW2 5875   3.666   1.779   0.627
 1914SOL     OW 5876   0.228   2.159   2.253
 1914SOL    HW1 5877   0.138   2.183   2.275
 1914SOL    HW2 5878   0.282   2.212   2.311
 1915SOL     OW 5879   2.834   1.710   0.289
 1915SOL    HW1 5880   2.895   1.638   0.309
 1915SOL    HW2 5881   2.855   1.777   0.354
 1916SOL     OW 5882   2.769   2.502   1.811
 1916SOL    HW1 5883   2.801   2.413   1.828
 1916SOL    HW2 5884   2.733   2.497   1.722
 1917SOL     OW 5885   1.854   2.585   1.801
 1917SOL    HW1 5886   1.793   2.512   1.812
 1917SOL    HW2 5887   1.894   2.571   1.715
 1918NA      NA 5888   1.434   1.527   0.838
 1919NA      NA 5889   2.603   0.289   1.679
   3.96100   3.96100   3.96100   0.00000   0.00000   0.00000   0.00000   0.00000   0.00000
