Generated with MDTraj, t= 50015.0
 5889
    1TYR      N    1   1.349   1.225   1.389
    1TYR     H1    2   1.440   1.174   1.389
    1TYR     H2    3   1.368   1.318   1.431
    1TYR     H3    4   1.281   1.171   1.447
    1TYR     CA    5   1.301   1.226   1.249
    1TYR     HA    6   1.378   1.265   1.184
    1TYR     CB    7   1.264   1.082   1.215
    1TYR    HB1    8   1.353   1.017   1.221
    1TYR    HB2    9   1.179   1.034   1.268
    1TYR     CG   10   1.228   1.066   1.061
    1TYR    CD1   11   1.302   1.105   0.951
    1TYR    HD1   12   1.393   1.161   0.969
    1TYR    CE1   13   1.272   1.068   0.823
    1TYR    HE1   14   1.342   1.085   0.744
    1TYR     CZ   15   1.155   0.993   0.803
    1TYR     OH   16   1.134   0.928   0.683
    1TYR     HH   17   1.040   0.916   0.670
    1TYR    CD2   18   1.106   1.000   1.037
    1TYR    HD2   19   1.048   0.963   1.121
    1TYR    CE2   20   1.064   0.967   0.905
    1TYR    HE2   21   0.983   0.896   0.891
    1TYR      C   22   1.190   1.318   1.245
    1TYR      O   23   1.189   1.405   1.155
    2TYR      N   24   1.087   1.300   1.328
    2TYR     HN   25   1.081   1.228   1.396
    2TYR     CA   26   0.963   1.374   1.311
    2TYR     HA   27   0.938   1.362   1.207
    2TYR     CB   28   0.850   1.311   1.396
    2TYR    HB1   29   0.867   1.333   1.504
    2TYR    HB2   30   0.758   1.362   1.363
    2TYR     CG   31   0.828   1.167   1.369
    2TYR    CD1   32   0.815   1.073   1.474
    2TYR    HD1   33   0.827   1.119   1.571
    2TYR    CE1   34   0.801   0.934   1.454
    2TYR    HE1   35   0.805   0.873   1.543
    2TYR     CZ   36   0.786   0.890   1.320
    2TYR     OH   37   0.745   0.759   1.280
    2TYR     HH   38   0.721   0.727   1.367
    2TYR    CD2   39   0.818   1.114   1.237
    2TYR    HD2   40   0.807   1.174   1.148
    2TYR    CE2   41   0.798   0.980   1.215
    2TYR    HE2   42   0.768   0.939   1.119
    2TYR      C   43   0.961   1.526   1.348
    2TYR      O   44   0.943   1.566   1.467
    3ASP      N   45   0.977   1.603   1.240
    3ASP     HN   46   0.998   1.546   1.161
    3ASP     CA   47   0.993   1.747   1.231
    3ASP     HA   48   1.006   1.791   1.329
    3ASP     CB   49   1.128   1.785   1.161
    3ASP    HB1   50   1.145   1.716   1.075
    3ASP    HB2   51   1.128   1.890   1.124
    3ASP     CG   52   1.246   1.777   1.248
    3ASP    OD1   53   1.340   1.696   1.229
    3ASP    OD2   54   1.252   1.848   1.351
    3ASP      C   55   0.867   1.810   1.172
    3ASP      O   56   0.856   1.802   1.050
    4PRO      N   57   0.774   1.873   1.245
    4PRO     CD   58   0.772   1.883   1.394
    4PRO    HD1   59   0.863   1.939   1.425
    4PRO    HD2   60   0.775   1.782   1.440
    4PRO     CA   61   0.640   1.885   1.189
    4PRO     HA   62   0.616   1.800   1.127
    4PRO     CB   63   0.550   1.906   1.315
    4PRO    HB1   64   0.460   1.967   1.292
    4PRO    HB2   65   0.515   1.806   1.347
    4PRO     CG   66   0.645   1.962   1.431
    4PRO    HG1   67   0.660   2.072   1.425
    4PRO    HG2   68   0.592   1.936   1.525
    4PRO      C   69   0.640   2.006   1.101
    4PRO      O   70   0.561   2.015   1.011
    5GLU      N   71   0.733   2.101   1.138
    5GLU     HN   72   0.800   2.114   1.211
    5GLU     CA   73   0.748   2.217   1.048
    5GLU     HA   74   0.647   2.246   1.023
    5GLU     CB   75   0.810   2.340   1.121
    5GLU    HB1   76   0.921   2.336   1.127
    5GLU    HB2   77   0.779   2.431   1.064
    5GLU     CG   78   0.753   2.342   1.267
    5GLU    HG1   79   0.642   2.354   1.263
    5GLU    HG2   80   0.765   2.246   1.321
    5GLU     CD   81   0.820   2.460   1.330
    5GLU    OE1   82   0.929   2.449   1.387
    5GLU    OE2   83   0.751   2.569   1.330
    5GLU      C   84   0.824   2.191   0.923
    5GLU      O   85   0.810   2.260   0.823
    6THR      N   86   0.915   2.092   0.922
    6THR     HN   87   0.937   2.041   1.005
    6THR     CA   88   0.974   2.035   0.795
    6THR     HA   89   1.009   2.112   0.729
    6THR     CB   90   1.102   1.951   0.824
    6THR     HB   91   1.072   1.873   0.898
    6THR    OG1   92   1.215   2.021   0.871
    6THR    HG1   93   1.194   2.049   0.961
    6THR    CG2   94   1.140   1.869   0.696
    6THR   HG21   95   1.134   1.919   0.597
    6THR   HG22   96   1.246   1.845   0.716
    6THR   HG23   97   1.070   1.783   0.689
    6THR      C   98   0.872   1.953   0.712
    6THR      O   99   0.868   1.958   0.586
    7GLY      N  100   0.783   1.888   0.787
    7GLY     HN  101   0.783   1.898   0.886
    7GLY     CA  102   0.679   1.800   0.730
    7GLY    HA1  103   0.589   1.820   0.786
    7GLY    HA2  104   0.660   1.846   0.634
    7GLY      C  105   0.696   1.657   0.721
    7GLY      O  106   0.620   1.581   0.666
    8THR      N  107   0.803   1.613   0.792
    8THR     HN  108   0.866   1.671   0.843
    8THR     CA  109   0.849   1.474   0.808
    8THR     HA  110   0.838   1.434   0.708
    8THR     CB  111   0.990   1.460   0.870
    8THR     HB  112   0.985   1.481   0.979
    8THR    OG1  113   1.080   1.551   0.814
    8THR    HG1  114   1.169   1.525   0.839
    8THR    CG2  115   1.045   1.320   0.845
    8THR   HG21  116   1.044   1.313   0.734
    8THR   HG22  117   1.149   1.302   0.879
    8THR   HG23  118   0.977   1.246   0.892
    8THR      C  119   0.756   1.387   0.900
    8THR      O  120   0.745   1.425   1.018
    9TRP      N  121   0.694   1.280   0.851
    9TRP     HN  122   0.692   1.264   0.752
    9TRP     CA  123   0.597   1.208   0.926
    9TRP     HA  124   0.632   1.207   1.029
    9TRP     CB  125   0.446   1.242   0.915
    9TRP    HB1  126   0.444   1.303   0.822
    9TRP    HB2  127   0.378   1.154   0.908
    9TRP     CG  128   0.392   1.325   1.031
    9TRP    CD1  129   0.332   1.277   1.146
    9TRP    HD1  130   0.292   1.177   1.152
    9TRP    NE1  131   0.294   1.387   1.229
    9TRP    HE1  132   0.213   1.395   1.282
    9TRP    CE2  133   0.328   1.500   1.164
    9TRP    CD2  134   0.378   1.464   1.039
    9TRP    CE3  135   0.405   1.567   0.947
    9TRP    HE3  136   0.440   1.544   0.847
    9TRP    CZ3  137   0.369   1.698   0.985
    9TRP    HZ3  138   0.390   1.779   0.917
    9TRP    CZ2  139   0.308   1.632   1.209
    9TRP    HZ2  140   0.273   1.659   1.308
    9TRP    CH2  141   0.321   1.730   1.114
    9TRP    HH2  142   0.288   1.831   1.127
    9TRP      C  143   0.617   1.069   0.875
    9TRP      O  144   0.578   0.976   0.943
   10TYR      N  145   0.663   1.046   0.751
   10TYR     HN  146   0.704   1.115   0.691
   10TYR     CA  147   0.664   0.917   0.685
   10TYR     HA  148   0.617   0.845   0.749
   10TYR     CB  149   0.575   0.924   0.554
   10TYR    HB1  150   0.630   0.995   0.489
   10TYR    HB2  151   0.576   0.823   0.507
   10TYR     CG  152   0.438   0.981   0.579
   10TYR    CD1  153   0.349   0.915   0.667
   10TYR    HD1  154   0.387   0.833   0.726
   10TYR    CE1  155   0.214   0.950   0.678
   10TYR    HE1  156   0.150   0.893   0.744
   10TYR     CZ  157   0.171   1.049   0.585
   10TYR     OH  158   0.037   1.074   0.576
   10TYR     HH  159   0.020   1.162   0.542
   10TYR    CD2  160   0.391   1.085   0.498
   10TYR    HD2  161   0.453   1.146   0.434
   10TYR    CE2  162   0.254   1.115   0.502
   10TYR    HE2  163   0.208   1.184   0.433
   10TYR      C  164   0.804   0.871   0.642
   10TYR    OT1  165   0.849   0.760   0.679
   10TYR    OT2  166   0.873   0.943   0.563
   11SOL     OW  167   3.097   0.307   1.190
   11SOL    HW1  168   3.003   0.315   1.173
   11SOL    HW2  169   3.122   0.226   1.147
   12SOL     OW  170   3.511   3.557   2.366
   12SOL    HW1  171   3.605   3.562   2.380
   12SOL    HW2  172   3.493   3.463   2.357
   13SOL     OW  173   0.833   1.221   0.586
   13SOL    HW1  174   0.840   1.127   0.569
   13SOL    HW2  175   0.883   1.262   0.515
   14SOL     OW  176   3.209   1.104   1.711
   14SOL    HW1  177   3.211   1.071   1.622
   14SOL    HW2  178   3.298   1.089   1.744
   15SOL     OW  179   1.344   2.021   2.802
   15SOL    HW1  180   1.367   1.968   2.878
   15SOL    HW2  181   1.403   1.990   2.733
   16SOL     OW  182   1.627   1.393   0.673
   16SOL    HW1  183   1.612   1.308   0.631
   16SOL    HW2  184   1.540   1.432   0.678
   17SOL     OW  185   3.308   3.037   0.336
   17SOL    HW1  186   3.387   3.063   0.289
   17SOL    HW2  187   3.246   3.108   0.321
   18SOL     OW  188   0.943   1.090   3.678
   18SOL    HW1  189   0.991   1.009   3.699
   18SOL    HW2  190   0.957   1.146   3.754
   19SOL     OW  191   1.999   0.518   1.682
   19SOL    HW1  192   1.909   0.546   1.697
   19SOL    HW2  193   2.052   0.594   1.706
   20SOL     OW  194   2.780   1.367   3.941
   20SOL    HW1  195   2.836   1.443   3.957
   20SOL    HW2  196   2.838   1.303   3.900
   21SOL     OW  197   1.967   1.719   2.617
   21SOL    HW1  198   2.003   1.799   2.580
   21SOL    HW2  199   1.992   1.722   2.709
   22SOL     OW  200   3.807   3.786   2.417
   22SOL    HW1  201   3.780   3.737   2.339
   22SOL    HW2  202   3.887   3.741   2.446
   23SOL     OW  203   1.489   3.317   2.017
   23SOL    HW1  204   1.561   3.340   2.075
   23SOL    HW2  205   1.483   3.390   1.956
   24SOL     OW  206   1.764   3.500   1.018
   24SOL    HW1  207   1.775   3.471   0.927
   24SOL    HW2  208   1.852   3.518   1.049
   25SOL     OW  209   2.481   1.654   2.084
   25SOL    HW1  210   2.407   1.703   2.050
   25SOL    HW2  211   2.554   1.716   2.084
   26SOL     OW  212   2.645   2.833   2.147
   26SOL    HW1  213   2.649   2.860   2.239
   26SOL    HW2  214   2.554   2.808   2.134
   27SOL     OW  215   1.744   0.610   1.747
   27SOL    HW1  216   1.702   0.609   1.661
   27SOL    HW2  217   1.677   0.576   1.807
   28SOL     OW  218   0.923   2.039   3.173
   28SOL    HW1  219   0.966   2.071   3.094
   28SOL    HW2  220   0.910   1.945   3.158
   29SOL     OW  221   2.568   3.599   3.436
   29SOL    HW1  222   2.599   3.673   3.488
   29SOL    HW2  223   2.567   3.631   3.346
   30SOL     OW  224   3.841   2.603   1.562
   30SOL    HW1  225   3.822   2.546   1.637
   30SOL    HW2  226   3.784   2.679   1.574
   31SOL     OW  227   1.311   3.768   0.928
   31SOL    HW1  228   1.332   3.765   1.021
   31SOL    HW2  229   1.222   3.804   0.925
   32SOL     OW  230   3.236   3.634   3.410
   32SOL    HW1  231   3.166   3.668   3.355
   32SOL    HW2  232   3.317   3.666   3.369
   33SOL     OW  233   1.807   3.317   2.704
   33SOL    HW1  234   1.861   3.282   2.633
   33SOL    HW2  235   1.847   3.281   2.783
   34SOL     OW  236   3.620   2.203   0.121
   34SOL    HW1  237   3.618   2.114   0.086
   34SOL    HW2  238   3.642   2.258   0.046
   35SOL     OW  239   1.458   0.879   2.171
   35SOL    HW1  240   1.503   0.817   2.228
   35SOL    HW2  241   1.505   0.961   2.183
   36SOL     OW  242   0.657   3.176   0.279
   36SOL    HW1  243   0.728   3.184   0.343
   36SOL    HW2  244   0.578   3.200   0.326
   37SOL     OW  245   0.455   1.454   3.545
   37SOL    HW1  246   0.381   1.434   3.604
   37SOL    HW2  247   0.476   1.370   3.505
   38SOL     OW  248   1.016   3.915   3.754
   38SOL    HW1  249   1.035   4.005   3.726
   38SOL    HW2  250   1.064   3.906   3.837
   39SOL     OW  251   1.417   1.425   3.530
   39SOL    HW1  252   1.321   1.420   3.530
   39SOL    HW2  253   1.446   1.334   3.538
   40SOL     OW  254   2.241   0.118   3.281
   40SOL    HW1  255   2.257   0.202   3.238
   40SOL    HW2  256   2.237   0.055   3.209
   41SOL     OW  257   3.604   0.357   1.036
   41SOL    HW1  258   3.678   0.350   0.976
   41SOL    HW2  259   3.626   0.431   1.092
   42SOL     OW  260   3.224   1.029   1.216
   42SOL    HW1  261   3.298   1.065   1.263
   42SOL    HW2  262   3.162   1.003   1.284
   43SOL     OW  263   0.987   2.015   2.559
   43SOL    HW1  264   0.901   2.039   2.594
   43SOL    HW2  265   1.034   2.098   2.553
   44SOL     OW  266   2.618   0.817   3.490
   44SOL    HW1  267   2.584   0.729   3.475
   44SOL    HW2  268   2.556   0.857   3.551
   45SOL     OW  269   3.850   3.430   2.027
   45SOL    HW1  270   3.834   3.362   1.962
   45SOL    HW2  271   3.945   3.439   2.029
   46SOL     OW  272   2.080   2.994   2.652
   46SOL    HW1  273   2.175   3.000   2.651
   46SOL    HW2  274   2.062   2.900   2.648
   47SOL     OW  275   2.719   0.418   1.966
   47SOL    HW1  276   2.812   0.431   1.944
   47SOL    HW2  277   2.689   0.352   1.904
   48SOL     OW  278   1.615   1.418   0.394
   48SOL    HW1  279   1.631   1.328   0.422
   48SOL    HW2  280   1.615   1.468   0.476
   49SOL     OW  281   3.577   1.742   1.640
   49SOL    HW1  282   3.537   1.656   1.656
   49SOL    HW2  283   3.521   1.782   1.574
   50SOL     OW  284   0.526   1.549   1.425
   50SOL    HW1  285   0.546   1.471   1.476
   50SOL    HW2  286   0.467   1.518   1.356
   51SOL     OW  287   1.376   1.292   2.420
   51SOL    HW1  288   1.368   1.261   2.330
   51SOL    HW2  289   1.358   1.215   2.474
   52SOL     OW  290   1.427   0.862   3.028
   52SOL    HW1  291   1.344   0.893   3.063
   52SOL    HW2  292   1.486   0.937   3.035
   53SOL     OW  293   0.089   3.240   3.873
   53SOL    HW1  294   0.033   3.163   3.879
   53SOL    HW2  295   0.038   3.310   3.913
   54SOL     OW  296   1.040   3.720   3.073
   54SOL    HW1  297   1.119   3.766   3.101
   54SOL    HW2  298   1.060   3.627   3.085
   55SOL     OW  299   2.144   1.094   0.876
   55SOL    HW1  300   2.094   1.161   0.923
   55SOL    HW2  301   2.108   1.011   0.907
   56SOL     OW  302   0.115   2.970   3.887
   56SOL    HW1  303   0.166   2.966   3.806
   56SOL    HW2  304   0.084   2.881   3.901
   57SOL     OW  305   2.630   1.002   2.748
   57SOL    HW1  306   2.682   0.922   2.753
   57SOL    HW2  307   2.598   1.016   2.838
   58SOL     OW  308   2.243   1.928   0.263
   58SOL    HW1  309   2.234   2.023   0.268
   58SOL    HW2  310   2.153   1.895   0.269
   59SOL     OW  311   1.029   1.595   2.311
   59SOL    HW1  312   0.970   1.595   2.386
   59SOL    HW2  313   0.971   1.588   2.235
   60SOL     OW  314   2.016   1.024   2.185
   60SOL    HW1  315   2.046   1.092   2.246
   60SOL    HW2  316   2.052   1.050   2.100
   61SOL     OW  317   2.895   0.702   1.822
   61SOL    HW1  318   2.800   0.707   1.813
   61SOL    HW2  319   2.916   0.765   1.891
   62SOL     OW  320   3.990   2.024   0.609
   62SOL    HW1  321   3.963   1.968   0.681
   62SOL    HW2  322   3.927   2.096   0.610
   63SOL     OW  323   1.257   3.575   1.584
   63SOL    HW1  324   1.188   3.586   1.519
   63SOL    HW2  325   1.268   3.480   1.592
   64SOL     OW  326   2.072   1.597   0.111
   64SOL    HW1  327   2.085   1.686   0.078
   64SOL    HW2  328   2.160   1.563   0.123
   65SOL     OW  329   3.241   3.741   0.708
   65SOL    HW1  330   3.262   3.649   0.692
   65SOL    HW2  331   3.159   3.755   0.662
   66SOL     OW  332   3.935   1.171   0.838
   66SOL    HW1  333   3.853   1.133   0.869
   66SOL    HW2  334   3.975   1.103   0.784
   67SOL     OW  335   1.730   0.886   1.101
   67SOL    HW1  336   1.733   0.790   1.102
   67SOL    HW2  337   1.771   0.910   1.018
   68SOL     OW  338   1.694   1.349   2.581
   68SOL    HW1  339   1.678   1.388   2.667
   68SOL    HW2  340   1.623   1.284   2.571
   69SOL     OW  341   0.148   3.693   0.978
   69SOL    HW1  342   0.196   3.613   0.954
   69SOL    HW2  343   0.061   3.681   0.939
   70SOL     OW  344   1.823   2.629   0.944
   70SOL    HW1  345   1.873   2.707   0.967
   70SOL    HW2  346   1.767   2.657   0.871
   71SOL     OW  347   1.754   2.906   1.848
   71SOL    HW1  348   1.670   2.861   1.860
   71SOL    HW2  349   1.802   2.888   1.930
   72SOL     OW  350   0.052   0.503   3.726
   72SOL    HW1  351  -0.023   0.534   3.777
   72SOL    HW2  352   0.100   0.446   3.787
   73SOL     OW  353   2.330   2.439   1.907
   73SOL    HW1  354   2.300   2.369   1.848
   73SOL    HW2  355   2.310   2.407   1.995
   74SOL     OW  356   0.861   3.240   0.728
   74SOL    HW1  357   0.919   3.308   0.761
   74SOL    HW2  358   0.776   3.260   0.766
   75SOL     OW  359   3.209   2.658   3.500
   75SOL    HW1  360   3.210   2.674   3.405
   75SOL    HW2  361   3.230   2.742   3.539
   76SOL     OW  362   3.117   0.143   0.307
   76SOL    HW1  363   3.155   0.206   0.367
   76SOL    HW2  364   3.034   0.182   0.280
   77SOL     OW  365   0.605   3.659   1.056
   77SOL    HW1  366   0.687   3.708   1.055
   77SOL    HW2  367   0.559   3.690   1.133
   78SOL     OW  368   0.328   2.041   2.249
   78SOL    HW1  369   0.276   1.966   2.219
   78SOL    HW2  370   0.369   2.075   2.169
   79SOL     OW  371   0.220   0.672   3.592
   79SOL    HW1  372   0.165   0.624   3.653
   79SOL    HW2  373   0.281   0.720   3.648
   80SOL     OW  374   0.177   3.879   2.323
   80SOL    HW1  375   0.251   3.837   2.364
   80SOL    HW2  376   0.160   3.827   2.244
   81SOL     OW  377   2.474   3.718   3.153
   81SOL    HW1  378   2.399   3.745   3.101
   81SOL    HW2  379   2.453   3.630   3.182
   82SOL     OW  380   1.189   2.219   2.646
   82SOL    HW1  381   1.238   2.146   2.684
   82SOL    HW2  382   1.215   2.295   2.697
   83SOL     OW  383   3.274   1.851   1.532
   83SOL    HW1  384   3.263   1.843   1.438
   83SOL    HW2  385   3.186   1.867   1.566
   84SOL     OW  386   1.566   3.069   2.370
   84SOL    HW1  387   1.554   3.160   2.399
   84SOL    HW2  388   1.616   3.028   2.441
   85SOL     OW  389   0.444   0.433   3.510
   85SOL    HW1  390   0.479   0.502   3.454
   85SOL    HW2  391   0.396   0.480   3.579
   86SOL     OW  392   1.283   2.528   1.925
   86SOL    HW1  393   1.206   2.473   1.909
   86SOL    HW2  394   1.258   2.614   1.891
   87SOL     OW  395   0.529   0.645   3.374
   87SOL    HW1  396   0.540   0.734   3.409
   87SOL    HW2  397   0.508   0.658   3.281
   88SOL     OW  398   2.348   2.098   2.930
   88SOL    HW1  399   2.409   2.034   2.893
   88SOL    HW2  400   2.318   2.058   3.012
   89SOL     OW  401   0.260   0.819   2.904
   89SOL    HW1  402   0.257   0.794   2.996
   89SOL    HW2  403   0.271   0.914   2.905
   90SOL     OW  404   1.759   2.807   1.235
   90SOL    HW1  405   1.777   2.860   1.158
   90SOL    HW2  406   1.765   2.867   1.309
   91SOL     OW  407   2.565   2.220   0.088
   91SOL    HW1  408   2.561   2.240   0.182
   91SOL    HW2  409   2.650   2.178   0.076
   92SOL     OW  410   3.219   2.160   2.356
   92SOL    HW1  411   3.166   2.185   2.432
   92SOL    HW2  412   3.211   2.065   2.352
   93SOL     OW  413   0.829   2.251   1.652
   93SOL    HW1  414   0.801   2.330   1.605
   93SOL    HW2  415   0.748   2.203   1.670
   94SOL     OW  416   2.623   2.381   1.462
   94SOL    HW1  417   2.640   2.468   1.425
   94SOL    HW2  418   2.709   2.339   1.466
   95SOL     OW  419   2.425   2.785   0.542
   95SOL    HW1  420   2.494   2.733   0.501
   95SOL    HW2  421   2.350   2.775   0.484
   96SOL     OW  422   2.172   2.403   0.556
   96SOL    HW1  423   2.195   2.456   0.479
   96SOL    HW2  424   2.256   2.374   0.591
   97SOL     OW  425   3.720   3.323   3.528
   97SOL    HW1  426   3.631   3.299   3.555
   97SOL    HW2  427   3.719   3.312   3.433
   98SOL     OW  428   0.909   2.075   1.895
   98SOL    HW1  429   0.976   2.042   1.836
   98SOL    HW2  430   0.855   2.132   1.841
   99SOL     OW  431   0.499   0.896   3.478
   99SOL    HW1  432   0.405   0.897   3.460
   99SOL    HW2  433   0.505   0.890   3.574
  100SOL     OW  434   2.052   1.470   3.278
  100SOL    HW1  435   2.128   1.495   3.330
  100SOL    HW2  436   1.980   1.468   3.340
  101SOL     OW  437   3.314   1.276   2.315
  101SOL    HW1  438   3.309   1.283   2.410
  101SOL    HW2  439   3.227   1.248   2.288
  102SOL     OW  440   0.063   2.092   0.154
  102SOL    HW1  441   0.140   2.067   0.104
  102SOL    HW2  442   0.064   2.188   0.154
  103SOL     OW  443   0.403   1.552   0.527
  103SOL    HW1  444   0.357   1.597   0.598
  103SOL    HW2  445   0.493   1.543   0.558
  104SOL     OW  446   3.819   3.540   1.738
  104SOL    HW1  447   3.853   3.618   1.780
  104SOL    HW2  448   3.897   3.495   1.704
  105SOL     OW  449   2.657   3.755   1.329
  105SOL    HW1  450   2.692   3.754   1.418
  105SOL    HW2  451   2.565   3.728   1.339
  106SOL     OW  452   1.970   2.136   2.960
  106SOL    HW1  453   1.884   2.093   2.966
  106SOL    HW2  454   2.023   2.092   3.026
  107SOL     OW  455   3.014   0.136   2.108
  107SOL    HW1  456   3.035   0.156   2.016
  107SOL    HW2  457   2.928   0.094   2.104
  108SOL     OW  458   2.584   0.321   2.702
  108SOL    HW1  459   2.525   0.245   2.701
  108SOL    HW2  460   2.589   0.348   2.610
  109SOL     OW  461   2.877   0.257   0.211
  109SOL    HW1  462   2.814   0.329   0.211
  109SOL    HW2  463   2.835   0.187   0.161
  110SOL     OW  464   1.925   3.114   0.598
  110SOL    HW1  465   1.876   3.129   0.678
  110SOL    HW2  466   1.904   3.023   0.574
  111SOL     OW  467   1.251   2.303   2.401
  111SOL    HW1  468   1.175   2.297   2.343
  111SOL    HW2  469   1.223   2.261   2.482
  112SOL     OW  470   2.585   1.367   3.322
  112SOL    HW1  471   2.663   1.361   3.377
  112SOL    HW2  472   2.619   1.389   3.235
  113SOL     OW  473   2.787   3.638   2.270
  113SOL    HW1  474   2.858   3.646   2.206
  113SOL    HW2  475   2.742   3.557   2.246
  114SOL     OW  476   3.400   0.420   3.032
  114SOL    HW1  477   3.371   0.440   3.121
  114SOL    HW2  478   3.319   0.401   2.984
  115SOL     OW  479   3.472   1.517   0.891
  115SOL    HW1  480   3.474   1.421   0.893
  115SOL    HW2  481   3.554   1.542   0.849
  116SOL     OW  482   2.995   2.934   1.818
  116SOL    HW1  483   2.999   2.988   1.898
  116SOL    HW2  484   3.071   2.877   1.824
  117SOL     OW  485   3.612   1.293   1.506
  117SOL    HW1  486   3.662   1.228   1.555
  117SOL    HW2  487   3.579   1.246   1.429
  118SOL     OW  488   2.918   1.948   2.479
  118SOL    HW1  489   2.916   2.042   2.458
  118SOL    HW2  490   2.954   1.907   2.400
  119SOL     OW  491   3.366   3.925   3.236
  119SOL    HW1  492   3.287   3.880   3.205
  119SOL    HW2  493   3.347   3.949   3.326
  120SOL     OW  494   3.215   2.808   2.686
  120SOL    HW1  495   3.288   2.765   2.731
  120SOL    HW2  496   3.181   2.871   2.750
  121SOL     OW  497   2.191   2.704   2.567
  121SOL    HW1  498   2.248   2.696   2.491
  121SOL    HW2  499   2.115   2.649   2.546
  122SOL     OW  500   0.152   1.865   2.142
  122SOL    HW1  501   0.131   1.922   2.067
  122SOL    HW2  502   0.066   1.840   2.177
  123SOL     OW  503   2.422   1.607   1.631
  123SOL    HW1  504   2.492   1.672   1.627
  123SOL    HW2  505   2.343   1.655   1.606
  124SOL     OW  506   3.743   2.641   1.027
  124SOL    HW1  507   3.785   2.668   1.109
  124SOL    HW2  508   3.718   2.723   0.984
  125SOL     OW  509   0.636   3.261   2.322
  125SOL    HW1  510   0.695   3.330   2.352
  125SOL    HW2  511   0.674   3.231   2.239
  126SOL     OW  512   0.587   2.719   0.215
  126SOL    HW1  513   0.616   2.763   0.135
  126SOL    HW2  514   0.620   2.774   0.286
  127SOL     OW  515   2.759   1.678   0.688
  127SOL    HW1  516   2.704   1.642   0.758
  127SOL    HW2  517   2.748   1.773   0.695
  128SOL     OW  518   1.680   2.095   1.307
  128SOL    HW1  519   1.702   2.095   1.214
  128SOL    HW2  520   1.718   2.015   1.341
  129SOL     OW  521   3.756   1.145   1.217
  129SOL    HW1  522   3.798   1.064   1.189
  129SOL    HW2  523   3.825   1.192   1.266
  130SOL     OW  524   3.553   0.882   1.247
  130SOL    HW1  525   3.545   0.974   1.222
  130SOL    HW2  526   3.645   0.873   1.273
  131SOL     OW  527   1.999   0.059   3.690
  131SOL    HW1  528   1.934   0.000   3.652
  131SOL    HW2  529   1.977   0.145   3.654
  132SOL     OW  530   0.550   3.817   3.849
  132SOL    HW1  531   0.463   3.851   3.868
  132SOL    HW2  532   0.571   3.851   3.762
  133SOL     OW  533   0.946   1.173   3.341
  133SOL    HW1  534   0.876   1.226   3.379
  133SOL    HW2  535   1.007   1.237   3.304
  134SOL     OW  536   1.103   0.094   3.446
  134SOL    HW1  537   1.100   0.021   3.384
  134SOL    HW2  538   1.194   0.095   3.478
  135SOL     OW  539   1.516   2.729   0.530
  135SOL    HW1  540   1.583   2.663   0.514
  135SOL    HW2  541   1.435   2.689   0.498
  136SOL     OW  542   2.007   2.340   3.169
  136SOL    HW1  543   1.964   2.380   3.245
  136SOL    HW2  544   1.944   2.275   3.137
  137SOL     OW  545   0.613   2.736   1.739
  137SOL    HW1  546   0.673   2.739   1.665
  137SOL    HW2  547   0.532   2.700   1.703
  138SOL     OW  548   2.632   2.537   3.424
  138SOL    HW1  549   2.601   2.446   3.430
  138SOL    HW2  550   2.560   2.584   3.382
  139SOL     OW  551   0.842   0.913   2.185
  139SOL    HW1  552   0.797   0.913   2.270
  139SOL    HW2  553   0.919   0.968   2.199
  140SOL     OW  554   3.296   0.092   3.940
  140SOL    HW1  555   3.292   0.187   3.933
  140SOL    HW2  556   3.377   0.067   3.895
  141SOL     OW  557   1.622   3.491   3.477
  141SOL    HW1  558   1.534   3.456   3.460
  141SOL    HW2  559   1.608   3.554   3.548
  142SOL     OW  560   1.822   2.956   2.532
  142SOL    HW1  561   1.901   2.979   2.581
  142SOL    HW2  562   1.851   2.890   2.469
  143SOL     OW  563   3.861   3.764   0.260
  143SOL    HW1  564   3.853   3.776   0.355
  143SOL    HW2  565   3.955   3.751   0.247
  144SOL     OW  566   2.919   1.466   0.625
  144SOL    HW1  567   2.885   1.390   0.673
  144SOL    HW2  568   2.862   1.538   0.651
  145SOL     OW  569   0.213   1.352   2.047
  145SOL    HW1  570   0.270   1.286   2.088
  145SOL    HW2  571   0.268   1.393   1.980
  146SOL     OW  572   1.084   3.031   1.020
  146SOL    HW1  573   1.038   2.947   1.027
  146SOL    HW2  574   1.136   3.023   0.940
  147SOL     OW  575   2.011   0.650   1.209
  147SOL    HW1  576   2.055   0.579   1.162
  147SOL    HW2  577   2.038   0.729   1.162
  148SOL     OW  578   0.934   0.663   1.623
  148SOL    HW1  579   0.891   0.638   1.705
  148SOL    HW2  580   0.926   0.585   1.568
  149SOL     OW  581   1.709   0.147   1.445
  149SOL    HW1  582   1.691   0.225   1.497
  149SOL    HW2  583   1.713   0.178   1.355
  150SOL     OW  584   2.506   0.068   0.272
  150SOL    HW1  585   2.569   0.083   0.202
  150SOL    HW2  586   2.531   0.129   0.341
  151SOL     OW  587   0.101   3.414   3.338
  151SOL    HW1  588   0.104   3.338   3.280
  151SOL    HW2  589   0.090   3.377   3.425
  152SOL     OW  590   3.158   3.489   0.313
  152SOL    HW1  591   3.069   3.525   0.321
  152SOL    HW2  592   3.214   3.555   0.353
  153SOL     OW  593   1.434   2.504   2.401
  153SOL    HW1  594   1.358   2.446   2.407
  153SOL    HW2  595   1.438   2.529   2.308
  154SOL     OW  596   2.646   0.091   3.387
  154SOL    HW1  597   2.629   0.028   3.458
  154SOL    HW2  598   2.612   0.174   3.421
  155SOL     OW  599   1.104   0.178   2.049
  155SOL    HW1  600   1.186   0.178   2.000
  155SOL    HW2  601   1.040   0.141   1.988
  156SOL     OW  602   2.233   0.165   0.277
  156SOL    HW1  603   2.194   0.105   0.341
  156SOL    HW2  604   2.327   0.149   0.284
  157SOL     OW  605   3.163   0.709   2.446
  157SOL    HW1  606   3.149   0.799   2.418
  157SOL    HW2  607   3.078   0.667   2.434
  158SOL     OW  608   2.242   0.816   2.141
  158SOL    HW1  609   2.221   0.727   2.114
  158SOL    HW2  610   2.210   0.871   2.070
  159SOL     OW  611   2.222   0.254   1.233
  159SOL    HW1  612   2.206   0.160   1.233
  159SOL    HW2  613   2.208   0.282   1.323
  160SOL     OW  614   0.287   1.987   0.014
  160SOL    HW1  615   0.365   1.990   0.068
  160SOL    HW2  616   0.319   1.981  -0.076
  161SOL     OW  617   2.043   1.196   1.871
  161SOL    HW1  618   1.960   1.198   1.918
  161SOL    HW2  619   2.056   1.286   1.842
  162SOL     OW  620   2.098   2.318   0.857
  162SOL    HW1  621   2.091   2.222   0.855
  162SOL    HW2  622   2.150   2.340   0.780
  163SOL     OW  623   1.835   2.786   3.607
  163SOL    HW1  624   1.909   2.833   3.645
  163SOL    HW2  625   1.778   2.767   3.682
  164SOL     OW  626   0.711   2.197   0.559
  164SOL    HW1  627   0.765   2.118   0.550
  164SOL    HW2  628   0.738   2.235   0.642
  165SOL     OW  629   3.150   2.024   0.172
  165SOL    HW1  630   3.129   2.115   0.150
  165SOL    HW2  631   3.246   2.021   0.170
  166SOL     OW  632   2.707   2.908   1.864
  166SOL    HW1  633   2.797   2.889   1.836
  166SOL    HW2  634   2.686   2.838   1.925
  167SOL     OW  635   3.012   3.430   2.849
  167SOL    HW1  636   2.936   3.397   2.802
  167SOL    HW2  637   3.008   3.525   2.838
  168SOL     OW  638   3.081   1.907   2.719
  168SOL    HW1  639   3.058   1.910   2.626
  168SOL    HW2  640   3.007   1.950   2.763
  169SOL     OW  641   2.497   1.369   1.980
  169SOL    HW1  642   2.586   1.356   1.949
  169SOL    HW2  643   2.494   1.460   2.008
  170SOL     OW  644   3.657   2.415   2.736
  170SOL    HW1  645   3.687   2.424   2.645
  170SOL    HW2  646   3.569   2.453   2.735
  171SOL     OW  647   1.826   1.090   3.757
  171SOL    HW1  648   1.819   1.154   3.827
  171SOL    HW2  649   1.868   1.014   3.797
  172SOL     OW  650   2.940   2.466   2.036
  172SOL    HW1  651   2.949   2.543   1.981
  172SOL    HW2  652   2.936   2.501   2.125
  173SOL     OW  653   2.997   3.257   1.431
  173SOL    HW1  654   3.018   3.313   1.506
  173SOL    HW2  655   2.936   3.309   1.379
  174SOL     OW  656   2.357   3.226   3.004
  174SOL    HW1  657   2.355   3.183   2.918
  174SOL    HW2  658   2.265   3.229   3.031
  175SOL     OW  659   3.181   1.094   2.556
  175SOL    HW1  660   3.233   1.032   2.607
  175SOL    HW2  661   3.137   1.148   2.622
  176SOL     OW  662   3.602   3.795   3.189
  176SOL    HW1  663   3.518   3.838   3.205
  176SOL    HW2  664   3.638   3.840   3.113
  177SOL     OW  665   3.426   2.026   0.277
  177SOL    HW1  666   3.470   2.103   0.239
  177SOL    HW2  667   3.395   2.056   0.363
  178SOL     OW  668   1.111   1.772   2.924
  178SOL    HW1  669   1.024   1.808   2.940
  178SOL    HW2  670   1.101   1.720   2.844
  179SOL     OW  671   1.562   0.476   0.907
  179SOL    HW1  672   1.596   0.539   0.843
  179SOL    HW2  673   1.588   0.512   0.992
  180SOL     OW  674   3.420   3.207   3.653
  180SOL    HW1  675   3.448   3.161   3.732
  180SOL    HW2  676   3.389   3.292   3.684
  181SOL     OW  677   3.220   2.009   0.964
  181SOL    HW1  678   3.171   1.927   0.953
  181SOL    HW2  679   3.162   2.065   1.014
  182SOL     OW  680   1.908   1.795   3.498
  182SOL    HW1  681   1.997   1.809   3.530
  182SOL    HW2  682   1.888   1.704   3.520
  183SOL     OW  683   2.721   3.995   0.103
  183SOL    HW1  684   2.766   3.922   0.144
  183SOL    HW2  685   2.672   3.955   0.031
  184SOL     OW  686   2.217   1.852   2.122
  184SOL    HW1  687   2.220   1.885   2.212
  184SOL    HW2  688   2.241   1.927   2.068
  185SOL     OW  689   2.185   1.516   1.351
  185SOL    HW1  690   2.233   1.472   1.422
  185SOL    HW2  691   2.098   1.477   1.353
  186SOL     OW  692   1.780   3.704   2.443
  186SOL    HW1  693   1.799   3.797   2.441
  186SOL    HW2  694   1.786   3.680   2.536
  187SOL     OW  695   0.690   3.777   0.819
  187SOL    HW1  696   0.640   3.723   0.757
  187SOL    HW2  697   0.676   3.735   0.904
  188SOL     OW  698   1.257   2.722   0.115
  188SOL    HW1  699   1.289   2.812   0.106
  188SOL    HW2  700   1.275   2.681   0.030
  189SOL     OW  701   0.310   3.773   3.205
  189SOL    HW1  702   0.370   3.701   3.223
  189SOL    HW2  703   0.269   3.792   3.290
  190SOL     OW  704   1.741   1.433   1.751
  190SOL    HW1  705   1.775   1.406   1.836
  190SOL    HW2  706   1.651   1.462   1.769
  191SOL     OW  707   2.348   0.528   1.797
  191SOL    HW1  708   2.315   0.538   1.887
  191SOL    HW2  709   2.390   0.443   1.796
  192SOL     OW  710   3.507   2.386   0.292
  192SOL    HW1  711   3.550   2.344   0.218
  192SOL    HW2  712   3.461   2.316   0.337
  193SOL     OW  713   1.579   1.651   3.556
  193SOL    HW1  714   1.524   1.702   3.615
  193SOL    HW2  715   1.540   1.563   3.558
  194SOL     OW  716   1.451   3.898   0.426
  194SOL    HW1  717   1.436   3.900   0.520
  194SOL    HW2  718   1.520   3.833   0.414
  195SOL     OW  719   1.253   0.314   1.354
  195SOL    HW1  720   1.183   0.362   1.310
  195SOL    HW2  721   1.312   0.382   1.386
  196SOL     OW  722   2.631   1.762   1.200
  196SOL    HW1  723   2.720   1.790   1.222
  196SOL    HW2  724   2.618   1.681   1.250
  197SOL     OW  725   1.916   0.715   1.467
  197SOL    HW1  726   1.974   0.704   1.391
  197SOL    HW2  727   1.975   0.733   1.540
  198SOL     OW  728   0.506   0.866   2.659
  198SOL    HW1  729   0.426   0.900   2.700
  198SOL    HW2  730   0.475   0.820   2.581
  199SOL     OW  731   1.021   2.601   0.569
  199SOL    HW1  732   0.995   2.689   0.596
  199SOL    HW2  733   0.985   2.591   0.481
  200SOL     OW  734   1.232   0.460   0.167
  200SOL    HW1  735   1.282   0.383   0.192
  200SOL    HW2  736   1.212   0.504   0.250
  201SOL     OW  737   1.661   2.138   2.305
  201SOL    HW1  738   1.587   2.178   2.260
  201SOL    HW2  739   1.621   2.080   2.369
  202SOL     OW  740   1.839   2.416   2.302
  202SOL    HW1  741   1.835   2.399   2.208
  202SOL    HW2  742   1.787   2.346   2.342
  203SOL     OW  743   1.527   2.005   3.362
  203SOL    HW1  744   1.609   1.962   3.338
  203SOL    HW2  745   1.464   1.934   3.370
  204SOL     OW  746   0.152   3.267   2.417
  204SOL    HW1  747   0.210   3.342   2.426
  204SOL    HW2  748   0.148   3.229   2.504
  205SOL     OW  749   3.610   1.811   2.322
  205SOL    HW1  750   3.583   1.900   2.346
  205SOL    HW2  751   3.690   1.796   2.372
  206SOL     OW  752   0.048   0.385   3.037
  206SOL    HW1  753  -0.012   0.336   3.094
  206SOL    HW2  754   0.055   0.330   2.959
  207SOL     OW  755   2.590   2.106   2.690
  207SOL    HW1  756   2.583   2.198   2.716
  207SOL    HW2  757   2.556   2.104   2.600
  208SOL     OW  758   0.828  -0.004   2.743
  208SOL    HW1  759   0.768  -0.012   2.669
  208SOL    HW2  760   0.801   0.075   2.788
  209SOL     OW  761   2.407   2.776   1.205
  209SOL    HW1  762   2.346   2.787   1.132
  209SOL    HW2  763   2.354   2.738   1.275
  210SOL     OW  764   1.355   1.021   2.603
  210SOL    HW1  765   1.417   0.977   2.661
  210SOL    HW2  766   1.275   0.968   2.607
  211SOL     OW  767   0.404   2.354   3.119
  211SOL    HW1  768   0.454   2.380   3.042
  211SOL    HW2  769   0.450   2.277   3.153
  212SOL     OW  770   1.079   1.474   1.692
  212SOL    HW1  771   1.012   1.508   1.750
  212SOL    HW2  772   1.064   1.519   1.609
  213SOL     OW  773   3.213   1.010   0.949
  213SOL    HW1  774   3.124   1.013   0.913
  213SOL    HW2  775   3.201   1.024   1.043
  214SOL     OW  776   2.268   3.195   3.335
  214SOL    HW1  777   2.175   3.193   3.358
  214SOL    HW2  778   2.271   3.163   3.245
  215SOL     OW  779   3.824   1.546   1.459
  215SOL    HW1  780   3.751   1.492   1.489
  215SOL    HW2  781   3.842   1.606   1.531
  216SOL     OW  782   1.503   2.015   0.317
  216SOL    HW1  783   1.516   1.932   0.271
  216SOL    HW2  784   1.409   2.030   0.314
  217SOL     OW  785   0.887   2.116   3.624
  217SOL    HW1  786   0.855   2.127   3.713
  217SOL    HW2  787   0.857   2.195   3.578
  218SOL     OW  788   0.865   3.050   3.465
  218SOL    HW1  789   0.793   3.069   3.525
  218SOL    HW2  790   0.828   2.992   3.399
  219SOL     OW  791   3.345   1.751   3.822
  219SOL    HW1  792   3.303   1.671   3.853
  219SOL    HW2  793   3.273   1.810   3.800
  220SOL     OW  794   2.201   0.159   0.005
  220SOL    HW1  795   2.216   0.150   0.099
  220SOL    HW2  796   2.193   0.069  -0.026
  221SOL     OW  797   3.159   1.395   0.948
  221SOL    HW1  798   3.224   1.462   0.966
  221SOL    HW2  799   3.075   1.437   0.968
  222SOL     OW  800   1.192   1.712   1.877
  222SOL    HW1  801   1.220   1.640   1.820
  222SOL    HW2  802   1.217   1.791   1.829
  223SOL     OW  803   2.277   1.934   3.700
  223SOL    HW1  804   2.284   1.962   3.791
  223SOL    HW2  805   2.250   2.013   3.652
  224SOL     OW  806   1.126   2.235   3.683
  224SOL    HW1  807   1.048   2.182   3.695
  224SOL    HW2  808   1.109   2.315   3.733
  225SOL     OW  809   0.866   0.208   0.661
  225SOL    HW1  810   0.937   0.230   0.721
  225SOL    HW2  811   0.819   0.136   0.704
  226SOL     OW  812   3.598   0.523   1.257
  226SOL    HW1  813   3.593   0.595   1.320
  226SOL    HW2  814   3.574   0.445   1.308
  227SOL     OW  815   3.060   0.902   3.614
  227SOL    HW1  816   3.076   0.890   3.520
  227SOL    HW2  817   3.025   0.818   3.643
  228SOL     OW  818   2.215   3.378   2.110
  228SOL    HW1  819   2.132   3.426   2.111
  228SOL    HW2  820   2.252   3.394   2.024
  229SOL     OW  821   3.029   1.248   2.240
  229SOL    HW1  822   3.022   1.342   2.257
  229SOL    HW2  823   2.967   1.208   2.300
  230SOL     OW  824   2.256   2.146   2.475
  230SOL    HW1  825   2.221   2.158   2.563
  230SOL    HW2  826   2.323   2.213   2.466
  231SOL     OW  827   1.738   1.937   2.967
  231SOL    HW1  828   1.727   1.884   3.046
  231SOL    HW2  829   1.652   1.977   2.953
  232SOL     OW  830   1.870  -0.013   2.506
  232SOL    HW1  831   1.900   0.072   2.473
  232SOL    HW2  832   1.827   0.008   2.589
  233SOL     OW  833   3.542   2.685   2.982
  233SOL    HW1  834   3.599   2.668   3.057
  233SOL    HW2  835   3.454   2.666   3.014
  234SOL     OW  836   2.327   0.821   0.542
  234SOL    HW1  837   2.289   0.908   0.533
  234SOL    HW2  838   2.421   0.835   0.535
  235SOL     OW  839   2.513   1.353   0.067
  235SOL    HW1  840   2.502   1.262   0.041
  235SOL    HW2  841   2.601   1.376   0.038
  236SOL     OW  842   3.284   1.521   2.583
  236SOL    HW1  843   3.272   1.598   2.639
  236SOL    HW2  844   3.315   1.557   2.500
  237SOL     OW  845   1.642   1.439   2.299
  237SOL    HW1  846   1.715   1.411   2.245
  237SOL    HW2  847   1.668   1.417   2.389
  238SOL     OW  848   2.621   3.196   2.366
  238SOL    HW1  849   2.649   3.110   2.396
  238SOL    HW2  850   2.632   3.253   2.443
  239SOL     OW  851   3.278   3.367   1.362
  239SOL    HW1  852   3.287   3.447   1.309
  239SOL    HW2  853   3.202   3.322   1.324
  240SOL     OW  854   1.041   2.689   1.365
  240SOL    HW1  855   1.047   2.717   1.273
  240SOL    HW2  856   0.994   2.606   1.361
  241SOL     OW  857   2.965   0.449   1.808
  241SOL    HW1  858   2.974   0.544   1.798
  241SOL    HW2  859   2.930   0.419   1.724
  242SOL     OW  860   1.678   0.486   3.706
  242SOL    HW1  861   1.671   0.451   3.795
  242SOL    HW2  862   1.716   0.415   3.654
  243SOL     OW  863   3.746   2.001   0.353
  243SOL    HW1  864   3.748   1.921   0.302
  243SOL    HW2  865   3.798   2.064   0.303
  244SOL     OW  866   2.597   0.087   1.334
  244SOL    HW1  867   2.515   0.055   1.372
  244SOL    HW2  868   2.659   0.016   1.347
  245SOL     OW  869   3.018   1.620   3.925
  245SOL    HW1  870   3.000   1.714   3.922
  245SOL    HW2  871   3.015   1.597   4.018
  246SOL     OW  872   3.535   3.015   3.093
  246SOL    HW1  873   3.455   3.067   3.083
  246SOL    HW2  874   3.522   2.967   3.175
  247SOL     OW  875   3.921   3.655   3.289
  247SOL    HW1  876   3.966   3.572   3.307
  247SOL    HW2  877   3.936   3.671   3.196
  248SOL     OW  878   0.418   1.060   3.227
  248SOL    HW1  879   0.412   1.149   3.192
  248SOL    HW2  880   0.425   1.004   3.150
  249SOL     OW  881   2.101   1.930   1.599
  249SOL    HW1  882   2.121   1.847   1.557
  249SOL    HW2  883   2.099   1.911   1.692
  250SOL     OW  884   3.715   1.002   0.264
  250SOL    HW1  885   3.694   0.979   0.354
  250SOL    HW2  886   3.762   1.085   0.270
  251SOL     OW  887   0.164   1.098   3.732
  251SOL    HW1  888   0.194   1.188   3.717
  251SOL    HW2  889   0.178   1.054   3.648
  252SOL     OW  890   1.599   1.196   1.139
  252SOL    HW1  891   1.657   1.238   1.077
  252SOL    HW2  892   1.632   1.106   1.146
  253SOL     OW  893   0.126   0.606   0.705
  253SOL    HW1  894   0.036   0.601   0.674
  253SOL    HW2  895   0.121   0.660   0.784
  254SOL     OW  896   3.517   2.384   1.214
  254SOL    HW1  897   3.596   2.330   1.211
  254SOL    HW2  898   3.543   2.463   1.261
  255SOL     OW  899   0.939   1.600   1.898
  255SOL    HW1  900   0.872   1.658   1.935
  255SOL    HW2  901   1.019   1.653   1.896
  256SOL     OW  902   0.328   3.135   1.828
  256SOL    HW1  903   0.235   3.114   1.819
  256SOL    HW2  904   0.368   3.055   1.862
  257SOL     OW  905   0.040   2.589   1.252
  257SOL    HW1  906   0.024   2.683   1.247
  257SOL    HW2  907  -0.005   2.561   1.332
  258SOL     OW  908   0.659   0.336   2.154
  258SOL    HW1  909   0.598   0.334   2.227
  258SOL    HW2  910   0.652   0.425   2.119
  259SOL     OW  911   1.438   0.842   1.653
  259SOL    HW1  912   1.448   0.764   1.707
  259SOL    HW2  913   1.344   0.845   1.632
  260SOL     OW  914   3.184   3.016   1.633
  260SOL    HW1  915   3.129   3.050   1.562
  260SOL    HW2  916   3.172   3.078   1.705
  261SOL     OW  917   0.093   0.748   0.452
  261SOL    HW1  918   0.132   0.703   0.527
  261SOL    HW2  919   0.069   0.834   0.486
  262SOL     OW  920   1.150   1.917   3.415
  262SOL    HW1  921   1.097   1.996   3.400
  262SOL    HW2  922   1.135   1.896   3.507
  263SOL     OW  923   1.686   3.653   0.669
  263SOL    HW1  924   1.670   3.743   0.700
  263SOL    HW2  925   1.611   3.633   0.614
  264SOL     OW  926   3.928   3.123   2.250
  264SOL    HW1  927   3.857   3.186   2.251
  264SOL    HW2  928   3.996   3.162   2.305
  265SOL     OW  929   0.029   2.912   0.740
  265SOL    HW1  930   0.018   2.830   0.787
  265SOL    HW2  931  -0.028   2.903   0.663
  266SOL     OW  932   1.631   2.449   0.503
  266SOL    HW1  933   1.713   2.463   0.548
  266SOL    HW2  934   1.646   2.370   0.450
  267SOL     OW  935   0.116   2.828   2.769
  267SOL    HW1  936   0.086   2.740   2.791
  267SOL    HW2  937   0.044   2.885   2.794
  268SOL     OW  938   0.176   1.712   2.822
  268SOL    HW1  939   0.173   1.622   2.789
  268SOL    HW2  940   0.140   1.707   2.910
  269SOL     OW  941   0.745   1.811   1.984
  269SOL    HW1  942   0.724   1.832   2.075
  269SOL    HW2  943   0.783   1.892   1.950
  270SOL     OW  944   3.306   1.917   3.300
  270SOL    HW1  945   3.290   1.830   3.336
  270SOL    HW2  946   3.269   1.978   3.364
  271SOL     OW  947   2.177   3.484   3.217
  271SOL    HW1  948   2.196   3.462   3.126
  271SOL    HW2  949   2.224   3.417   3.268
  272SOL     OW  950   2.010   0.816   2.384
  272SOL    HW1  951   2.093   0.820   2.431
  272SOL    HW2  952   2.014   0.890   2.323
  273SOL     OW  953   1.566   2.727   0.795
  273SOL    HW1  954   1.538   2.751   0.706
  273SOL    HW2  955   1.505   2.659   0.822
  274SOL     OW  956   1.114  -0.005   0.995
  274SOL    HW1  957   1.071   0.026   1.074
  274SOL    HW2  958   1.073   0.044   0.924
  275SOL     OW  959   3.064   3.933   0.815
  275SOL    HW1  960   3.155   3.907   0.800
  275SOL    HW2  961   3.041   3.988   0.740
  276SOL     OW  962   0.259   2.932   3.639
  276SOL    HW1  963   0.183   2.935   3.580
  276SOL    HW2  964   0.269   2.839   3.660
  277SOL     OW  965   3.045   1.205   3.908
  277SOL    HW1  966   3.053   1.241   3.996
  277SOL    HW2  967   3.135   1.194   3.878
  278SOL     OW  968   3.295   3.774   1.796
  278SOL    HW1  969   3.266   3.786   1.706
  278SOL    HW2  970   3.343   3.855   1.816
  279SOL     OW  971   0.736   2.330   2.810
  279SOL    HW1  972   0.733   2.248   2.860
  279SOL    HW2  973   0.647   2.364   2.815
  280SOL     OW  974   2.918   2.624   1.805
  280SOL    HW1  975   2.937   2.717   1.789
  280SOL    HW2  976   2.922   2.584   1.718
  281SOL     OW  977   3.553   0.183   2.401
  281SOL    HW1  978   3.630   0.138   2.366
  281SOL    HW2  979   3.547   0.264   2.351
  282SOL     OW  980   1.037   2.810   1.599
  282SOL    HW1  981   1.021   2.899   1.566
  282SOL    HW2  982   1.058   2.759   1.521
  283SOL     OW  983   3.374   2.248   3.905
  283SOL    HW1  984   3.328   2.256   3.822
  283SOL    HW2  985   3.409   2.159   3.905
  284SOL     OW  986   3.515   1.903   0.553
  284SOL    HW1  987   3.561   1.934   0.474
  284SOL    HW2  988   3.528   1.972   0.617
  285SOL     OW  989   1.190   0.873   2.285
  285SOL    HW1  990   1.168   0.957   2.324
  285SOL    HW2  991   1.261   0.892   2.224
  286SOL     OW  992   3.675   2.817   2.512
  286SOL    HW1  993   3.697   2.735   2.555
  286SOL    HW2  994   3.710   2.807   2.423
  287SOL     OW  995   2.176   1.586   2.031
  287SOL    HW1  996   2.156   1.557   2.120
  287SOL    HW2  997   2.177   1.681   2.036
  288SOL     OW  998   3.046   0.566   3.801
  288SOL    HW1  999   2.974   0.505   3.784
  288SOL    HW2 1000   3.007   0.635   3.853
  289SOL     OW 1001   2.332   3.756   3.927
  289SOL    HW1 1002   2.314   3.667   3.899
  289SOL    HW2 1003   2.255   3.806   3.901
  290SOL     OW 1004   3.601   0.755   0.491
  290SOL    HW1 1005   3.525   0.812   0.503
  290SOL    HW2 1006   3.594   0.725   0.400
  291SOL     OW 1007   0.059   1.698   1.669
  291SOL    HW1 1008   0.110   1.769   1.632
  291SOL    HW2 1009  -0.026   1.737   1.691
  292SOL     OW 1010   3.315   3.432   1.659
  292SOL    HW1 1011   3.357   3.433   1.574
  292SOL    HW2 1012   3.387   3.429   1.722
  293SOL     OW 1013   3.472   2.992   1.652
  293SOL    HW1 1014   3.489   3.035   1.569
  293SOL    HW2 1015   3.377   2.982   1.656
  294SOL     OW 1016   3.717   1.766   0.814
  294SOL    HW1 1017   3.702   1.719   0.732
  294SOL    HW2 1018   3.811   1.785   0.815
  295SOL     OW 1019   2.506   0.063   2.417
  295SOL    HW1 1020   2.427   0.100   2.456
  295SOL    HW2 1021   2.474   0.002   2.350
  296SOL     OW 1022   1.382   0.379   3.312
  296SOL    HW1 1023   1.326   0.332   3.249
  296SOL    HW2 1024   1.409   0.458   3.265
  297SOL     OW 1025   3.476   1.267   0.483
  297SOL    HW1 1026   3.415   1.193   0.490
  297SOL    HW2 1027   3.426   1.343   0.512
  298SOL     OW 1028   3.599   1.651   0.587
  298SOL    HW1 1029   3.516   1.608   0.607
  298SOL    HW2 1030   3.575   1.742   0.569
  299SOL     OW 1031   1.239   1.990   0.291
  299SOL    HW1 1032   1.186   1.914   0.267
  299SOL    HW2 1033   1.182   2.043   0.346
  300SOL     OW 1034   2.025   2.481   1.340
  300SOL    HW1 1035   2.015   2.390   1.313
  300SOL    HW2 1036   1.939   2.520   1.326
  301SOL     OW 1037   2.213   0.726   3.526
  301SOL    HW1 1038   2.256   0.737   3.441
  301SOL    HW2 1039   2.220   0.812   3.568
  302SOL     OW 1040   3.880   0.035   2.028
  302SOL    HW1 1041   3.801  -0.014   2.048
  302SOL    HW2 1042   3.921   0.051   2.113
  303SOL     OW 1043  -0.009   2.370   2.278
  303SOL    HW1 1044   0.043   2.451   2.284
  303SOL    HW2 1045   0.054   2.300   2.290
  304SOL     OW 1046   2.338   3.172   2.743
  304SOL    HW1 1047   2.376   3.101   2.691
  304SOL    HW2 1048   2.310   3.237   2.678
  305SOL     OW 1049   1.351   3.547   2.523
  305SOL    HW1 1050   1.286   3.538   2.593
  305SOL    HW2 1051   1.408   3.617   2.553
  306SOL     OW 1052   0.359   1.675   2.104
  306SOL    HW1 1053   0.285   1.731   2.081
  306SOL    HW2 1054   0.357   1.603   2.041
  307SOL     OW 1055   2.919   2.766   1.563
  307SOL    HW1 1056   2.924   2.860   1.548
  307SOL    HW2 1057   2.933   2.726   1.477
  308SOL     OW 1058   2.322   0.460   1.498
  308SOL    HW1 1059   2.269   0.380   1.491
  308SOL    HW2 1060   2.307   0.490   1.588
  309SOL     OW 1061   1.005   2.264   0.405
  309SOL    HW1 1062   0.911   2.279   0.408
  309SOL    HW2 1063   1.035   2.317   0.331
  310SOL     OW 1064   2.898   1.071   2.435
  310SOL    HW1 1065   2.930   1.084   2.524
  310SOL    HW2 1066   2.963   1.015   2.393
  311SOL     OW 1067   2.274   1.070   0.469
  311SOL    HW1 1068   2.315   1.038   0.389
  311SOL    HW2 1069   2.286   1.164   0.468
  312SOL     OW 1070   3.356   1.907   1.254
  312SOL    HW1 1071   3.451   1.896   1.259
  312SOL    HW2 1072   3.343   2.000   1.237
  313SOL     OW 1073   0.793   1.130   3.133
  313SOL    HW1 1074   0.850   1.136   3.210
  313SOL    HW2 1075   0.729   1.064   3.156
  314SOL     OW 1076   2.747   3.346   2.781
  314SOL    HW1 1077   2.741   3.369   2.688
  314SOL    HW2 1078   2.681   3.401   2.824
  315SOL     OW 1079   3.896   3.418   0.072
  315SOL    HW1 1080   3.870   3.449   0.160
  315SOL    HW2 1081   3.813   3.413   0.024
  316SOL     OW 1082   0.766   2.298   3.146
  316SOL    HW1 1083   0.848   2.270   3.186
  316SOL    HW2 1084   0.730   2.219   3.107
  317SOL     OW 1085   1.822   3.051   0.254
  317SOL    HW1 1086   1.876   3.130   0.258
  317SOL    HW2 1087   1.755   3.065   0.321
  318SOL     OW 1088   1.162   1.599   3.561
  318SOL    HW1 1089   1.104   1.624   3.489
  318SOL    HW2 1090   1.116   1.527   3.605
  319SOL     OW 1091   3.863   2.980   1.745
  319SOL    HW1 1092   3.832   2.935   1.666
  319SOL    HW2 1093   3.873   2.910   1.810
  320SOL     OW 1094   3.427   0.518   3.326
  320SOL    HW1 1095   3.383   0.585   3.274
  320SOL    HW2 1096   3.361   0.449   3.336
  321SOL     OW 1097   2.510   3.474   2.845
  321SOL    HW1 1098   2.517   3.500   2.937
  321SOL    HW2 1099   2.425   3.432   2.838
  322SOL     OW 1100   2.802   1.393   3.530
  322SOL    HW1 1101   2.766   1.448   3.600
  322SOL    HW2 1102   2.859   1.331   3.576
  323SOL     OW 1103   0.057   1.918   3.554
  323SOL    HW1 1104   0.046   2.006   3.516
  323SOL    HW2 1105  -0.027   1.875   3.539
  324SOL     OW 1106   2.164   3.128   0.458
  324SOL    HW1 1107   2.226   3.177   0.513
  324SOL    HW2 1108   2.087   3.117   0.514
  325SOL     OW 1109   3.843   1.631   2.200
  325SOL    HW1 1110   3.796   1.562   2.154
  325SOL    HW2 1111   3.791   1.647   2.279
  326SOL     OW 1112   2.825   3.957   3.762
  326SOL    HW1 1113   2.831   3.877   3.710
  326SOL    HW2 1114   2.892   3.947   3.830
  327SOL     OW 1115   2.589   0.717   3.959
  327SOL    HW1 1116   2.615   0.636   3.914
  327SOL    HW2 1117   2.494   0.710   3.968
  328SOL     OW 1118   3.273   0.236   0.752
  328SOL    HW1 1119   3.190   0.275   0.780
  328SOL    HW2 1120   3.337   0.306   0.762
  329SOL     OW 1121   3.372   1.034   0.641
  329SOL    HW1 1122   3.314   1.018   0.716
  329SOL    HW2 1123   3.456   0.998   0.668
  330SOL     OW 1124   0.945   2.842   0.655
  330SOL    HW1 1125   1.029   2.886   0.641
  330SOL    HW2 1126   0.907   2.887   0.731
  331SOL     OW 1127   1.429   3.879   0.698
  331SOL    HW1 1128   1.394   3.835   0.775
  331SOL    HW2 1129   1.493   3.942   0.732
  332SOL     OW 1130   1.389   3.569   1.875
  332SOL    HW1 1131   1.352   3.652   1.905
  332SOL    HW2 1132   1.366   3.565   1.782
  333SOL     OW 1133   3.792   0.643   1.091
  333SOL    HW1 1134   3.758   0.598   1.168
  333SOL    HW2 1135   3.715   0.683   1.049
  334SOL     OW 1136   2.587   3.854   3.870
  334SOL    HW1 1137   2.627   3.774   3.837
  334SOL    HW2 1138   2.505   3.824   3.909
  335SOL     OW 1139   1.201   0.195   2.311
  335SOL    HW1 1140   1.150   0.169   2.234
  335SOL    HW2 1141   1.144   0.176   2.386
  336SOL     OW 1142   0.643   2.453   1.812
  336SOL    HW1 1143   0.630   2.377   1.755
  336SOL    HW2 1144   0.625   2.529   1.756
  337SOL     OW 1145   3.743   2.027   3.827
  337SOL    HW1 1146   3.773   1.970   3.898
  337SOL    HW2 1147   3.656   1.993   3.805
  338SOL     OW 1148   0.978   1.624   3.367
  338SOL    HW1 1149   0.915   1.694   3.349
  338SOL    HW2 1150   0.985   1.576   3.285
  339SOL     OW 1151   2.960   2.605   2.262
  339SOL    HW1 1152   2.958   2.697   2.289
  339SOL    HW2 1153   3.040   2.570   2.302
  340SOL     OW 1154   1.194   2.149   1.106
  340SOL    HW1 1155   1.154   2.091   1.171
  340SOL    HW2 1156   1.163   2.236   1.130
  341SOL     OW 1157   2.484   1.283   1.050
  341SOL    HW1 1158   2.456   1.282   0.958
  341SOL    HW2 1159   2.551   1.215   1.055
  342SOL     OW 1160   3.356   1.217   3.851
  342SOL    HW1 1161   3.451   1.225   3.843
  342SOL    HW2 1162   3.339   1.123   3.853
  343SOL     OW 1163   1.135   0.270   3.656
  343SOL    HW1 1164   1.142   0.363   3.678
  343SOL    HW2 1165   1.071   0.267   3.585
  344SOL     OW 1166   3.487   0.626   0.230
  344SOL    HW1 1167   3.443   0.710   0.244
  344SOL    HW2 1168   3.489   0.615   0.135
  345SOL     OW 1169   3.860   3.055   0.085
  345SOL    HW1 1170   3.805   2.977   0.085
  345SOL    HW2 1171   3.932   3.034   0.025
  346SOL     OW 1172   1.999   3.270   3.318
  346SOL    HW1 1173   1.987   3.363   3.298
  346SOL    HW2 1174   1.916   3.229   3.294
  347SOL     OW 1175   2.714   3.775   1.635
  347SOL    HW1 1176   2.746   3.728   1.713
  347SOL    HW2 1177   2.749   3.864   1.646
  348SOL     OW 1178  -0.007   2.835   1.140
  348SOL    HW1 1179  -0.044   2.915   1.104
  348SOL    HW2 1180   0.066   2.815   1.082
  349SOL     OW 1181   0.148   3.736   1.597
  349SOL    HW1 1182   0.126   3.662   1.653
  349SOL    HW2 1183   0.135   3.813   1.652
  350SOL     OW 1184   1.008   0.686   0.462
  350SOL    HW1 1185   0.960   0.731   0.532
  350SOL    HW2 1186   0.940   0.658   0.400
  351SOL     OW 1187   2.956   0.538   2.436
  351SOL    HW1 1188   2.892   0.607   2.422
  351SOL    HW2 1189   2.955   0.488   2.354
  352SOL     OW 1190   0.538   0.766   1.812
  352SOL    HW1 1191   0.603   0.702   1.842
  352SOL    HW2 1192   0.574   0.851   1.838
  353SOL     OW 1193   2.923   1.052   1.411
  353SOL    HW1 1194   2.900   1.140   1.442
  353SOL    HW2 1195   3.015   1.043   1.433
  354SOL     OW 1196   1.214   1.738   1.594
  354SOL    HW1 1197   1.185   1.664   1.541
  354SOL    HW2 1198   1.258   1.797   1.532
  355SOL     OW 1199   0.005   1.224   2.160
  355SOL    HW1 1200   0.086   1.261   2.123
  355SOL    HW2 1201  -0.062   1.289   2.141
  356SOL     OW 1202   2.312   2.431   2.756
  356SOL    HW1 1203   2.360   2.451   2.675
  356SOL    HW2 1204   2.226   2.401   2.726
  357SOL     OW 1205   2.326   0.138   0.955
  357SOL    HW1 1206   2.400   0.196   0.939
  357SOL    HW2 1207   2.358   0.051   0.929
  358SOL     OW 1208   0.777   2.868   1.203
  358SOL    HW1 1209   0.771   2.799   1.269
  358SOL    HW2 1210   0.864   2.858   1.165
  359SOL     OW 1211   3.721   0.908   3.110
  359SOL    HW1 1212   3.725   0.815   3.090
  359SOL    HW2 1213   3.641   0.939   3.068
  360SOL     OW 1214   3.363   3.355   0.449
  360SOL    HW1 1215   3.444   3.400   0.473
  360SOL    HW2 1216   3.317   3.418   0.394
  361SOL     OW 1217   1.066   3.472   1.860
  361SOL    HW1 1218   1.068   3.554   1.909
  361SOL    HW2 1219   0.999   3.420   1.904
  362SOL     OW 1220   1.095   3.672   0.778
  362SOL    HW1 1221   1.105   3.639   0.689
  362SOL    HW2 1222   1.177   3.650   0.822
  363SOL     OW 1223   3.118   0.417   2.846
  363SOL    HW1 1224   3.150   0.395   2.758
  363SOL    HW2 1225   3.023   0.425   2.835
  364SOL     OW 1226   2.921   3.526   0.420
  364SOL    HW1 1227   2.861   3.456   0.447
  364SOL    HW2 1228   2.899   3.600   0.477
  365SOL     OW 1229   1.077   3.071   0.116
  365SOL    HW1 1230   1.045   3.142   0.060
  365SOL    HW2 1231   1.172   3.073   0.106
  366SOL     OW 1232   2.444   0.182   2.109
  366SOL    HW1 1233   2.393   0.104   2.129
  366SOL    HW2 1234   2.405   0.250   2.164
  367SOL     OW 1235   3.501   1.484   2.858
  367SOL    HW1 1236   3.488   1.389   2.868
  367SOL    HW2 1237   3.429   1.513   2.802
  368SOL     OW 1238   3.871   2.619   3.458
  368SOL    HW1 1239   3.925   2.609   3.380
  368SOL    HW2 1240   3.898   2.547   3.516
  369SOL     OW 1241   0.494   2.051   2.043
  369SOL    HW1 1242   0.497   1.960   2.074
  369SOL    HW2 1243   0.567   2.094   2.088
  370SOL     OW 1244   2.718   0.330   3.209
  370SOL    HW1 1245   2.714   0.275   3.287
  370SOL    HW2 1246   2.764   0.277   3.144
  371SOL     OW 1247   0.872   0.323   0.179
  371SOL    HW1 1248   0.925   0.314   0.258
  371SOL    HW2 1249   0.930   0.298   0.107
  372SOL     OW 1250   1.201   1.241   3.529
  372SOL    HW1 1251   1.252   1.182   3.584
  372SOL    HW2 1252   1.110   1.215   3.543
  373SOL     OW 1253   0.476   1.022   1.371
  373SOL    HW1 1254   0.443   1.024   1.461
  373SOL    HW2 1255   0.537   1.095   1.366
  374SOL     OW 1256   3.429   1.213   2.813
  374SOL    HW1 1257   3.423   1.225   2.718
  374SOL    HW2 1258   3.520   1.185   2.827
  375SOL     OW 1259   1.974   1.840   3.944
  375SOL    HW1 1260   1.976   1.933   3.964
  375SOL    HW2 1261   1.882   1.822   3.924
  376SOL     OW 1262   1.068   1.930   1.741
  376SOL    HW1 1263   1.097   1.847   1.705
  376SOL    HW2 1264   1.088   1.994   1.673
  377SOL     OW 1265   3.236   1.891   2.475
  377SOL    HW1 1266   3.320   1.918   2.511
  377SOL    HW2 1267   3.254   1.877   2.382
  378SOL     OW 1268   2.037   0.891   0.283
  378SOL    HW1 1269   1.944   0.885   0.303
  378SOL    HW2 1270   2.043   0.963   0.219
  379SOL     OW 1271   0.364   1.359   3.135
  379SOL    HW1 1272   0.426   1.397   3.073
  379SOL    HW2 1273   0.330   1.434   3.184
  380SOL     OW 1274   3.435   2.068   1.678
  380SOL    HW1 1275   3.397   2.008   1.613
  380SOL    HW2 1276   3.490   2.127   1.627
  381SOL     OW 1277   0.468   0.553   2.355
  381SOL    HW1 1278   0.451   0.464   2.325
  381SOL    HW2 1279   0.511   0.543   2.440
  382SOL     OW 1280   2.229   1.555   0.940
  382SOL    HW1 1281   2.173   1.501   0.996
  382SOL    HW2 1282   2.168   1.606   0.886
  383SOL     OW 1283   2.791   3.363   1.298
  383SOL    HW1 1284   2.808   3.270   1.283
  383SOL    HW2 1285   2.820   3.406   1.217
  384SOL     OW 1286   1.195   0.865   0.287
  384SOL    HW1 1287   1.220   0.779   0.320
  384SOL    HW2 1288   1.127   0.848   0.222
  385SOL     OW 1289   1.391   0.689   3.395
  385SOL    HW1 1290   1.463   0.639   3.357
  385SOL    HW2 1291   1.388   0.661   3.486
  386SOL     OW 1292   1.089   2.175   1.579
  386SOL    HW1 1293   1.127   2.255   1.614
  386SOL    HW2 1294   1.004   2.201   1.545
  387SOL     OW 1295   3.293   0.623   0.970
  387SOL    HW1 1296   3.303   0.547   0.913
  387SOL    HW2 1297   3.294   0.698   0.911
  388SOL     OW 1298   1.493   0.980   3.497
  388SOL    HW1 1299   1.404   0.955   3.523
  388SOL    HW2 1300   1.521   0.911   3.437
  389SOL     OW 1301   1.434   2.273   3.456
  389SOL    HW1 1302   1.505   2.311   3.508
  389SOL    HW2 1303   1.465   2.185   3.433
  390SOL     OW 1304   1.957   0.942   2.977
  390SOL    HW1 1305   2.032   0.892   3.009
  390SOL    HW2 1306   1.993   1.028   2.956
  391SOL     OW 1307   0.597   1.179   1.750
  391SOL    HW1 1308   0.645   1.124   1.812
  391SOL    HW2 1309   0.622   1.269   1.773
  392SOL     OW 1310   2.470   3.441   3.210
  392SOL    HW1 1311   2.481   3.407   3.298
  392SOL    HW2 1312   2.449   3.365   3.156
  393SOL     OW 1313   3.105   2.963   2.058
  393SOL    HW1 1314   3.158   3.039   2.080
  393SOL    HW2 1315   3.160   2.888   2.081
  394SOL     OW 1316   0.713   0.360   0.977
  394SOL    HW1 1317   0.737   0.412   0.900
  394SOL    HW2 1318   0.681   0.278   0.941
  395SOL     OW 1319   2.377   2.192   3.536
  395SOL    HW1 1320   2.289   2.197   3.572
  395SOL    HW2 1321   2.369   2.132   3.462
  396SOL     OW 1322   0.220   0.929   3.927
  396SOL    HW1 1323   0.183   0.993   3.865
  396SOL    HW2 1324   0.260   0.863   3.870
  397SOL     OW 1325   1.722   2.302   0.071
  397SOL    HW1 1326   1.641   2.351   0.087
  397SOL    HW2 1327   1.692   2.214   0.047
  398SOL     OW 1328   3.400   1.969   1.952
  398SOL    HW1 1329   3.426   1.976   1.860
  398SOL    HW2 1330   3.369   2.056   1.975
  399SOL     OW 1331   1.483   3.290   0.331
  399SOL    HW1 1332   1.574   3.317   0.344
  399SOL    HW2 1333   1.433   3.371   0.339
  400SOL     OW 1334   0.585   2.649   3.807
  400SOL    HW1 1335   0.554   2.713   3.742
  400SOL    HW2 1336   0.648   2.698   3.860
  401SOL     OW 1337   1.685   0.352  -0.002
  401SOL    HW1 1338   1.673   0.423   0.062
  401SOL    HW2 1339   1.761   0.303   0.030
  402SOL     OW 1340   1.555   3.352   2.462
  402SOL    HW1 1341   1.507   3.432   2.480
  402SOL    HW2 1342   1.621   3.347   2.532
  403SOL     OW 1343   2.151   3.157   1.917
  403SOL    HW1 1344   2.208   3.228   1.946
  403SOL    HW2 1345   2.211   3.086   1.894
  404SOL     OW 1346   2.714   1.636   0.056
  404SOL    HW1 1347   2.810   1.637   0.062
  404SOL    HW2 1348   2.684   1.656   0.145
  405SOL     OW 1349   1.984   0.978   1.093
  405SOL    HW1 1350   1.902   0.944   1.130
  405SOL    HW2 1351   2.037   0.998   1.170
  406SOL     OW 1352   1.255   3.226   0.632
  406SOL    HW1 1353   1.235   3.248   0.723
  406SOL    HW2 1354   1.213   3.142   0.617
  407SOL     OW 1355   3.140   3.817   0.221
  407SOL    HW1 1356   3.224   3.821   0.176
  407SOL    HW2 1357   3.129   3.904   0.259
  408SOL     OW 1358   1.034   2.634   3.207
  408SOL    HW1 1359   1.102   2.678   3.156
  408SOL    HW2 1360   1.064   2.641   3.298
  409SOL     OW 1361   1.470   0.720   1.927
  409SOL    HW1 1362   1.515   0.770   1.995
  409SOL    HW2 1363   1.377   0.727   1.950
  410SOL     OW 1364   0.467   3.621   2.206
  410SOL    HW1 1365   0.505   3.654   2.125
  410SOL    HW2 1366   0.467   3.697   2.265
  411SOL     OW 1367   2.554   2.435   0.910
  411SOL    HW1 1368   2.504   2.509   0.877
  411SOL    HW2 1369   2.511   2.411   0.992
  412SOL     OW 1370   2.944   1.467   2.391
  412SOL    HW1 1371   2.850   1.461   2.376
  412SOL    HW2 1372   2.966   1.558   2.371
  413SOL     OW 1373   3.727   0.854   2.234
  413SOL    HW1 1374   3.806   0.907   2.245
  413SOL    HW2 1375   3.671   0.906   2.176
  414SOL     OW 1376   2.548   0.990   2.983
  414SOL    HW1 1377   2.461   0.952   2.968
  414SOL    HW2 1378   2.580   0.945   3.061
  415SOL     OW 1379   1.491   3.756   2.615
  415SOL    HW1 1380   1.521   3.765   2.705
  415SOL    HW2 1381   1.570   3.763   2.562
  416SOL     OW 1382   0.343   0.467   1.326
  416SOL    HW1 1383   0.318   0.559   1.318
  416SOL    HW2 1384   0.324   0.429   1.241
  417SOL     OW 1385   0.432   3.915   0.345
  417SOL    HW1 1386   0.514   3.879   0.309
  417SOL    HW2 1387   0.432   4.006   0.316
  418SOL     OW 1388   0.535   0.201   2.951
  418SOL    HW1 1389   0.618   0.228   2.989
  418SOL    HW2 1390   0.471   0.264   2.984
  419SOL     OW 1391   0.354   0.278   0.405
  419SOL    HW1 1392   0.354   0.236   0.491
  419SOL    HW2 1393   0.267   0.259   0.370
  420SOL     OW 1394   2.166   0.556   2.381
  420SOL    HW1 1395   2.147   0.650   2.386
  420SOL    HW2 1396   2.251   0.546   2.425
  421SOL     OW 1397   0.534   2.013   0.122
  421SOL    HW1 1398   0.583   1.945   0.077
  421SOL    HW2 1399   0.543   2.090   0.066
  422SOL     OW 1400   1.507   0.544   2.735
  422SOL    HW1 1401   1.488   0.566   2.644
  422SOL    HW2 1402   1.426   0.503   2.767
  423SOL     OW 1403   0.686   2.675   0.962
  423SOL    HW1 1404   0.659   2.641   0.877
  423SOL    HW2 1405   0.622   2.639   1.024
  424SOL     OW 1406   1.459   1.263   2.736
  424SOL    HW1 1407   1.409   1.215   2.802
  424SOL    HW2 1408   1.395   1.318   2.691
  425SOL     OW 1409   3.563   0.568   2.690
  425SOL    HW1 1410   3.475   0.549   2.656
  425SOL    HW2 1411   3.580   0.500   2.754
  426SOL     OW 1412   2.500   0.583   3.473
  426SOL    HW1 1413   2.551   0.503   3.482
  426SOL    HW2 1414   2.426   0.572   3.533
  427SOL     OW 1415   1.230   1.292   0.507
  427SOL    HW1 1416   1.296   1.302   0.438
  427SOL    HW2 1417   1.160   1.242   0.466
  428SOL     OW 1418   2.714   2.586   3.727
  428SOL    HW1 1419   2.722   2.561   3.635
  428SOL    HW2 1420   2.704   2.503   3.774
  429SOL     OW 1421   2.760   2.502   1.170
  429SOL    HW1 1422   2.701   2.578   1.170
  429SOL    HW2 1423   2.836   2.531   1.221
  430SOL     OW 1424   1.115   2.553   3.675
  430SOL    HW1 1425   1.053   2.595   3.616
  430SOL    HW2 1426   1.199   2.560   3.630
  431SOL     OW 1427   3.585   3.168   0.864
  431SOL    HW1 1428   3.501   3.158   0.820
  431SOL    HW2 1429   3.579   3.252   0.909
  432SOL     OW 1430   2.561   0.451   1.388
  432SOL    HW1 1431   2.475   0.450   1.430
  432SOL    HW2 1432   2.543   0.421   1.299
  433SOL     OW 1433   0.293   1.302   1.605
  433SOL    HW1 1434   0.325   1.220   1.642
  433SOL    HW2 1435   0.313   1.368   1.672
  434SOL     OW 1436   2.182   1.291   2.149
  434SOL    HW1 1437   2.193   1.326   2.060
  434SOL    HW2 1438   2.254   1.330   2.198
  435SOL     OW 1439   0.952   0.811   0.039
  435SOL    HW1 1440   0.926   0.734  -0.012
  435SOL    HW2 1441   0.882   0.821   0.103
  436SOL     OW 1442   2.233   3.333   0.122
  436SOL    HW1 1443   2.237   3.238   0.131
  436SOL    HW2 1444   2.221   3.366   0.211
  437SOL     OW 1445   0.938   3.365   2.129
  437SOL    HW1 1446   0.967   3.284   2.087
  437SOL    HW2 1447   0.940   3.345   2.223
  438SOL     OW 1448   2.078   1.628   2.292
  438SOL    HW1 1449   2.031   1.705   2.324
  438SOL    HW2 1450   2.073   1.565   2.364
  439SOL     OW 1451   3.018   3.772   0.507
  439SOL    HW1 1452   3.007   3.867   0.502
  439SOL    HW2 1453   3.078   3.751   0.435
  440SOL     OW 1454   2.617   0.599   3.141
  440SOL    HW1 1455   2.565   0.552   3.076
  440SOL    HW2 1456   2.669   0.531   3.184
  441SOL     OW 1457   0.426   3.133   3.565
  441SOL    HW1 1458   0.349   3.077   3.574
  441SOL    HW2 1459   0.455   3.118   3.475
  442SOL     OW 1460   2.634   1.497   1.237
  442SOL    HW1 1461   2.645   1.403   1.248
  442SOL    HW2 1462   2.561   1.505   1.174
  443SOL     OW 1463   2.280   0.499   0.776
  443SOL    HW1 1464   2.346   0.444   0.819
  443SOL    HW2 1465   2.275   0.466   0.686
  444SOL     OW 1466   3.547   1.714   3.008
  444SOL    HW1 1467   3.563   1.626   2.974
  444SOL    HW2 1468   3.541   1.704   3.102
  445SOL     OW 1469   2.663   1.862   3.826
  445SOL    HW1 1470   2.607   1.897   3.895
  445SOL    HW2 1471   2.667   1.768   3.845
  446SOL     OW 1472   0.304   3.578   1.265
  446SOL    HW1 1473   0.214   3.584   1.297
  446SOL    HW2 1474   0.308   3.494   1.219
  447SOL     OW 1475   1.871   2.823   0.119
  447SOL    HW1 1476   1.963   2.831   0.093
  447SOL    HW2 1477   1.859   2.893   0.183
  448SOL     OW 1478   1.587   2.946   3.513
  448SOL    HW1 1479   1.526   2.995   3.567
  448SOL    HW2 1480   1.657   2.919   3.573
  449SOL     OW 1481   1.754   2.095   1.728
  449SOL    HW1 1482   1.754   2.017   1.783
  449SOL    HW2 1483   1.697   2.157   1.775
  450SOL     OW 1484   3.951   3.102   2.883
  450SOL    HW1 1485   3.892   3.034   2.851
  450SOL    HW2 1486   3.914   3.128   2.967
  451SOL     OW 1487   0.656   0.719   3.746
  451SOL    HW1 1488   0.710   0.698   3.823
  451SOL    HW2 1489   0.658   0.639   3.693
  452SOL     OW 1490   2.031   3.115   2.183
  452SOL    HW1 1491   2.038   3.163   2.265
  452SOL    HW2 1492   2.087   3.163   2.122
  453SOL     OW 1493   0.907   0.358   2.271
  453SOL    HW1 1494   0.949   0.392   2.192
  453SOL    HW2 1495   0.820   0.329   2.241
  454SOL     OW 1496   1.479   2.129   1.066
  454SOL    HW1 1497   1.516   2.099   1.149
  454SOL    HW2 1498   1.398   2.174   1.090
  455SOL     OW 1499   3.938   0.074   3.854
  455SOL    HW1 1500   3.997   0.101   3.924
  455SOL    HW2 1501   3.851   0.072   3.895
  456SOL     OW 1502   2.338   0.766   3.269
  456SOL    HW1 1503   2.356   0.858   3.289
  456SOL    HW2 1504   2.420   0.720   3.287
  457SOL     OW 1505   0.803   3.599   0.129
  457SOL    HW1 1506   0.768   3.618   0.042
  457SOL    HW2 1507   0.741   3.537   0.167
  458SOL     OW 1508   3.929   1.677   1.038
  458SOL    HW1 1509   3.943   1.583   1.028
  458SOL    HW2 1510   3.877   1.685   1.118
  459SOL     OW 1511   0.158   0.852   1.898
  459SOL    HW1 1512   0.131   0.844   1.989
  459SOL    HW2 1513   0.084   0.820   1.847
  460SOL     OW 1514   2.052   3.587   0.124
  460SOL    HW1 1515   2.134   3.558   0.084
  460SOL    HW2 1516   2.061   3.682   0.133
  461SOL     OW 1517   2.479   3.020   0.964
  461SOL    HW1 1518   2.515   3.108   0.954
  461SOL    HW2 1519   2.555   2.965   0.982
  462SOL     OW 1520   3.011   3.755   1.213
  462SOL    HW1 1521   3.055   3.839   1.220
  462SOL    HW2 1522   3.002   3.724   1.303
  463SOL     OW 1523   1.169   0.695   1.945
  463SOL    HW1 1524   1.121   0.744   2.012
  463SOL    HW2 1525   1.159   0.604   1.969
  464SOL     OW 1526   3.589   3.480   0.572
  464SOL    HW1 1527   3.574   3.488   0.667
  464SOL    HW2 1528   3.643   3.556   0.550
  465SOL     OW 1529   3.415   0.073   0.234
  465SOL    HW1 1530   3.387   0.103   0.148
  465SOL    HW2 1531   3.341   0.093   0.292
  466SOL     OW 1532  -0.021   1.415   2.907
  466SOL    HW1 1533   0.042   1.429   2.836
  466SOL    HW2 1534   0.014   1.341   2.956
  467SOL     OW 1535   3.135   0.769   0.686
  467SOL    HW1 1536   3.130   0.796   0.594
  467SOL    HW2 1537   3.082   0.833   0.733
  468SOL     OW 1538   3.703   1.079   2.035
  468SOL    HW1 1539   3.797   1.088   2.017
  468SOL    HW2 1540   3.678   1.164   2.072
  469SOL     OW 1541   3.047   1.804   0.930
  469SOL    HW1 1542   2.973   1.773   0.982
  469SOL    HW2 1543   3.116   1.739   0.944
  470SOL     OW 1544   3.799   3.685   0.834
  470SOL    HW1 1545   3.804   3.747   0.907
  470SOL    HW2 1546   3.741   3.616   0.865
  471SOL     OW 1547   2.972   3.884   1.463
  471SOL    HW1 1548   3.050   3.835   1.488
  471SOL    HW2 1549   2.947   3.932   1.541
  472SOL     OW 1550   0.078   3.691   2.153
  472SOL    HW1 1551   0.122   3.606   2.151
  472SOL    HW2 1552  -0.016   3.670   2.153
  473SOL     OW 1553   3.515   1.926   3.691
  473SOL    HW1 1554   3.446   1.862   3.708
  473SOL    HW2 1555   3.469   2.000   3.650
  474SOL     OW 1556   2.631   3.422   2.115
  474SOL    HW1 1557   2.646   3.347   2.172
  474SOL    HW2 1558   2.621   3.383   2.028
  475SOL     OW 1559   2.785   3.720   1.098
  475SOL    HW1 1560   2.868   3.758   1.127
  475SOL    HW2 1561   2.728   3.726   1.175
  476SOL     OW 1562   3.967   1.329   1.336
  476SOL    HW1 1563   3.986   1.291   1.422
  476SOL    HW2 1564   3.927   1.413   1.355
  477SOL     OW 1565   1.751   3.385   0.752
  477SOL    HW1 1566   1.735   3.322   0.683
  477SOL    HW2 1567   1.747   3.470   0.709
  478SOL     OW 1568   0.893   0.584   3.859
  478SOL    HW1 1569   0.847   0.503   3.838
  478SOL    HW2 1570   0.968   0.586   3.800
  479SOL     OW 1571   3.931   1.703   3.053
  479SOL    HW1 1572   3.889   1.658   3.126
  479SOL    HW2 1573   3.884   1.674   2.975
  480SOL     OW 1574   3.441   2.726   3.852
  480SOL    HW1 1575   3.399   2.807   3.879
  480SOL    HW2 1576   3.378   2.657   3.873
  481SOL     OW 1577   3.743   3.475   1.021
  481SOL    HW1 1578   3.813   3.418   0.989
  481SOL    HW2 1579   3.758   3.481   1.115
  482SOL     OW 1580   3.039   1.293   0.187
  482SOL    HW1 1581   2.962   1.333   0.228
  482SOL    HW2 1582   3.108   1.301   0.252
  483SOL     OW 1583   1.600   3.347   1.671
  483SOL    HW1 1584   1.625   3.256   1.661
  483SOL    HW2 1585   1.650   3.377   1.747
  484SOL     OW 1586   3.146   1.867   1.890
  484SOL    HW1 1587   3.158   1.829   1.803
  484SOL    HW2 1588   3.235   1.871   1.926
  485SOL     OW 1589   1.908   3.749   0.926
  485SOL    HW1 1590   1.870   3.814   0.867
  485SOL    HW2 1591   1.992   3.727   0.886
  486SOL     OW 1592   2.269   1.706   2.775
  486SOL    HW1 1593   2.307   1.623   2.805
  486SOL    HW2 1594   2.326   1.773   2.813
  487SOL     OW 1595   0.896   1.786   3.663
  487SOL    HW1 1596   0.851   1.707   3.631
  487SOL    HW2 1597   0.861   1.857   3.608
  488SOL     OW 1598   3.624   2.224   2.101
  488SOL    HW1 1599   3.531   2.205   2.111
  488SOL    HW2 1600   3.661   2.206   2.188
  489SOL     OW 1601   2.487   2.552   0.300
  489SOL    HW1 1602   2.474   2.467   0.343
  489SOL    HW2 1603   2.581   2.557   0.285
  490SOL     OW 1604   1.233   3.308   0.899
  490SOL    HW1 1605   1.150   3.356   0.907
  490SOL    HW2 1606   1.282   3.330   0.978
  491SOL     OW 1607   3.267   2.200   1.205
  491SOL    HW1 1608   3.210   2.248   1.266
  491SOL    HW2 1609   3.340   2.260   1.190
  492SOL     OW 1610   0.528   2.127   3.183
  492SOL    HW1 1611   0.484   2.043   3.174
  492SOL    HW2 1612   0.591   2.113   3.255
  493SOL     OW 1613   3.040   0.544   3.099
  493SOL    HW1 1614   3.048   0.519   3.007
  493SOL    HW2 1615   3.007   0.465   3.142
  494SOL     OW 1616   2.672   1.081   0.927
  494SOL    HW1 1617   2.603   1.101   0.864
  494SOL    HW2 1618   2.692   0.989   0.912
  495SOL     OW 1619   2.896   1.010   0.150
  495SOL    HW1 1620   2.853   1.095   0.146
  495SOL    HW2 1621   2.990   1.031   0.147
  496SOL     OW 1622   3.031   1.985   1.590
  496SOL    HW1 1623   2.959   1.943   1.637
  496SOL    HW2 1624   3.037   2.072   1.628
  497SOL     OW 1625   3.687   2.829   1.561
  497SOL    HW1 1626   3.660   2.874   1.480
  497SOL    HW2 1627   3.608   2.825   1.614
  498SOL     OW 1628   0.231   2.680   3.764
  498SOL    HW1 1629   0.175   2.603   3.773
  498SOL    HW2 1630   0.265   2.695   3.853
  499SOL     OW 1631   3.140   3.416   0.994
  499SOL    HW1 1632   3.157   3.508   1.016
  499SOL    HW2 1633   3.136   3.415   0.898
  500SOL     OW 1634   2.676   2.664   1.478
  500SOL    HW1 1635   2.738   2.699   1.543
  500SOL    HW2 1636   2.594   2.710   1.497
  501SOL     OW 1637   0.569   1.300   3.885
  501SOL    HW1 1638   0.485   1.278   3.927
  501SOL    HW2 1639   0.597   1.218   3.844
  502SOL     OW 1640   3.202   1.335   0.399
  502SOL    HW1 1641   3.225   1.425   0.373
  502SOL    HW2 1642   3.200   1.338   0.494
  503SOL     OW 1643   0.244   2.256   2.389
  503SOL    HW1 1644   0.266   2.168   2.359
  503SOL    HW2 1645   0.329   2.300   2.398
  504SOL     OW 1646   0.451   0.521   0.298
  504SOL    HW1 1647   0.416   0.437   0.328
  504SOL    HW2 1648   0.374   0.575   0.280
  505SOL     OW 1649   3.405   2.446   3.279
  505SOL    HW1 1650   3.317   2.439   3.318
  505SOL    HW2 1651   3.400   2.391   3.201
  506SOL     OW 1652   2.626   0.961   1.474
  506SOL    HW1 1653   2.703   1.010   1.444
  506SOL    HW2 1654   2.630   0.878   1.427
  507SOL     OW 1655   1.480   1.199   3.847
  507SOL    HW1 1656   1.519   1.271   3.796
  507SOL    HW2 1657   1.528   1.200   3.930
  508SOL     OW 1658   0.034   1.962   1.250
  508SOL    HW1 1659   0.096   1.962   1.322
  508SOL    HW2 1660  -0.030   1.895   1.273
  509SOL     OW 1661   3.147   2.923   1.283
  509SOL    HW1 1662   3.072   2.943   1.339
  509SOL    HW2 1663   3.144   2.828   1.273
  510SOL     OW 1664   2.689   2.730   0.466
  510SOL    HW1 1665   2.784   2.735   0.474
  510SOL    HW2 1666   2.668   2.797   0.401
  511SOL     OW 1667   2.521   1.106   0.688
  511SOL    HW1 1668   2.436   1.062   0.693
  511SOL    HW2 1669   2.527   1.135   0.597
  512SOL     OW 1670   0.355   1.072   2.096
  512SOL    HW1 1671   0.295   1.004   2.066
  512SOL    HW2 1672   0.373   1.051   2.187
  513SOL     OW 1673   0.529   2.174   3.858
  513SOL    HW1 1674   0.557   2.257   3.820
  513SOL    HW2 1675   0.510   2.119   3.782
  514SOL     OW 1676   3.605   1.740   1.055
  514SOL    HW1 1677   3.653   1.739   0.973
  514SOL    HW2 1678   3.546   1.664   1.049
  515SOL     OW 1679   0.601   1.981   3.689
  515SOL    HW1 1680   0.562   1.910   3.637
  515SOL    HW2 1681   0.659   2.027   3.628
  516SOL     OW 1682   3.256   2.976   3.501
  516SOL    HW1 1683   3.289   3.067   3.499
  516SOL    HW2 1684   3.188   2.977   3.568
  517SOL     OW 1685   3.727   2.894   0.878
  517SOL    HW1 1686   3.643   2.940   0.880
  517SOL    HW2 1687   3.793   2.964   0.876
  518SOL     OW 1688   1.551   0.196   0.864
  518SOL    HW1 1689   1.559   0.291   0.854
  518SOL    HW2 1690   1.479   0.185   0.925
  519SOL     OW 1691   0.983   3.489   0.352
  519SOL    HW1 1692   0.919   3.510   0.285
  519SOL    HW2 1693   0.973   3.558   0.417
  520SOL     OW 1694   0.833   3.857   2.366
  520SOL    HW1 1695   0.850   3.766   2.392
  520SOL    HW2 1696   0.898   3.908   2.415
  521SOL     OW 1697   1.954   2.105   0.074
  521SOL    HW1 1698   1.897   2.182   0.063
  521SOL    HW2 1699   2.031   2.139   0.119
  522SOL     OW 1700   2.224   1.589   3.498
  522SOL    HW1 1701   2.308   1.554   3.528
  522SOL    HW2 1702   2.198   1.650   3.567
  523SOL     OW 1703   1.407   0.198   2.028
  523SOL    HW1 1704   1.463   0.270   1.998
  523SOL    HW2 1705   1.429   0.125   1.969
  524SOL     OW 1706   1.374   0.075   1.049
  524SOL    HW1 1707   1.403  -0.013   1.024
  524SOL    HW2 1708   1.279   0.072   1.042
  525SOL     OW 1709   0.092   0.763   0.940
  525SOL    HW1 1710   0.028   0.800   1.001
  525SOL    HW2 1711   0.177   0.785   0.977
  526SOL     OW 1712   0.497   2.748   2.963
  526SOL    HW1 1713   0.583   2.785   2.982
  526SOL    HW2 1714   0.442   2.825   2.947
  527SOL     OW 1715   2.609   1.960   1.514
  527SOL    HW1 1716   2.570   1.885   1.468
  527SOL    HW2 1717   2.683   1.985   1.459
  528SOL     OW 1718   2.816   0.554   0.071
  528SOL    HW1 1719   2.765   0.625   0.031
  528SOL    HW2 1720   2.815   0.485   0.006
  529SOL     OW 1721   0.635   2.985   0.075
  529SOL    HW1 1722   0.635   3.036   0.156
  529SOL    HW2 1723   0.543   2.981   0.048
  530SOL     OW 1724   0.935   0.099   1.149
  530SOL    HW1 1725   0.880   0.161   1.196
  530SOL    HW2 1726   0.966   0.039   1.216
  531SOL     OW 1727   2.125   0.285   1.504
  531SOL    HW1 1728   2.058   0.332   1.554
  531SOL    HW2 1729   2.101   0.192   1.514
  532SOL     OW 1730   2.387   2.736   0.149
  532SOL    HW1 1731   2.399   2.657   0.202
  532SOL    HW2 1732   2.463   2.739   0.091
  533SOL     OW 1733   3.483   1.480   1.653
  533SOL    HW1 1734   3.515   1.423   1.584
  533SOL    HW2 1735   3.408   1.434   1.690
  534SOL     OW 1736   1.393   0.277   0.285
  534SOL    HW1 1737   1.485   0.253   0.279
  534SOL    HW2 1738   1.358   0.220   0.353
  535SOL     OW 1739   0.323   0.412   2.008
  535SOL    HW1 1740   0.247   0.393   2.064
  535SOL    HW2 1741   0.345   0.503   2.029
  536SOL     OW 1742   2.332   3.186   2.284
  536SOL    HW1 1743   2.311   3.274   2.253
  536SOL    HW2 1744   2.428   3.186   2.293
  537SOL     OW 1745   1.720   3.655   2.159
  537SOL    HW1 1746   1.775   3.733   2.162
  537SOL    HW2 1747   1.633   3.685   2.186
  538SOL     OW 1748   3.326   1.971   2.811
  538SOL    HW1 1749   3.246   1.935   2.772
  538SOL    HW2 1750   3.339   2.054   2.766
  539SOL     OW 1751   3.244   0.120   1.645
  539SOL    HW1 1752   3.336   0.126   1.616
  539SOL    HW2 1753   3.194   0.147   1.568
  540SOL     OW 1754   2.072   1.748   1.290
  540SOL    HW1 1755   2.134   1.677   1.309
  540SOL    HW2 1756   2.011   1.747   1.364
  541SOL     OW 1757   0.794   1.597   2.919
  541SOL    HW1 1758   0.871   1.544   2.899
  541SOL    HW2 1759   0.798   1.670   2.858
  542SOL     OW 1760   3.109   0.945   0.438
  542SOL    HW1 1761   3.205   0.937   0.436
  542SOL    HW2 1762   3.093   1.035   0.465
  543SOL     OW 1763   1.009   3.026   3.749
  543SOL    HW1 1764   0.981   3.114   3.776
  543SOL    HW2 1765   1.023   3.033   3.655
  544SOL     OW 1766   2.146   3.464   2.919
  544SOL    HW1 1767   2.078   3.512   2.966
  544SOL    HW2 1768   2.115   3.459   2.829
  545SOL     OW 1769   1.029   3.417   1.223
  545SOL    HW1 1770   1.013   3.433   1.130
  545SOL    HW2 1771   1.103   3.356   1.224
  546SOL     OW 1772   2.514   2.965   0.256
  546SOL    HW1 1773   2.483   2.880   0.226
  546SOL    HW2 1774   2.606   2.969   0.229
  547SOL     OW 1775   1.965   0.859   3.347
  547SOL    HW1 1776   1.960   0.939   3.399
  547SOL    HW2 1777   1.932   0.790   3.406
  548SOL     OW 1778   0.763   3.837   0.265
  548SOL    HW1 1779   0.854   3.861   0.285
  548SOL    HW2 1780   0.770   3.757   0.212
  549SOL     OW 1781   1.692   1.459   3.347
  549SOL    HW1 1782   1.687   1.520   3.421
  549SOL    HW2 1783   1.688   1.372   3.387
  550SOL     OW 1784   0.187   2.260   0.677
  550SOL    HW1 1785   0.123   2.192   0.653
  550SOL    HW2 1786   0.253   2.256   0.609
  551SOL     OW 1787   0.862   0.925   0.267
  551SOL    HW1 1788   0.835   1.001   0.217
  551SOL    HW2 1789   0.881   0.959   0.354
  552SOL     OW 1790   1.428   2.947   3.277
  552SOL    HW1 1791   1.487   2.941   3.353
  552SOL    HW2 1792   1.482   2.922   3.202
  553SOL     OW 1793   3.718   1.149   2.873
  553SOL    HW1 1794   3.678   1.103   2.947
  553SOL    HW2 1795   3.773   1.216   2.913
  554SOL     OW 1796   1.366   0.879   0.507
  554SOL    HW1 1797   1.340   0.901   0.418
  554SOL    HW2 1798   1.301   0.921   0.563
  555SOL     OW 1799   1.502   0.585   0.211
  555SOL    HW1 1800   1.421   0.544   0.241
  555SOL    HW2 1801   1.478   0.631   0.131
  556SOL     OW 1802   0.076   2.018   1.939
  556SOL    HW1 1803   0.060   2.112   1.935
  556SOL    HW2 1804  -0.008   1.978   1.917
  557SOL     OW 1805   3.160   3.495   3.095
  557SOL    HW1 1806   3.175   3.423   3.157
  557SOL    HW2 1807   3.110   3.455   3.024
  558SOL     OW 1808   3.763   2.932   3.324
  558SOL    HW1 1809   3.670   2.953   3.315
  558SOL    HW2 1810   3.778   2.929   3.418
  559SOL     OW 1811   3.475   0.477   0.774
  559SOL    HW1 1812   3.486   0.488   0.679
  559SOL    HW2 1813   3.564   0.475   0.809
  560SOL     OW 1814   1.315   1.419   2.166
  560SOL    HW1 1815   1.338   1.512   2.163
  560SOL    HW2 1816   1.351   1.382   2.085
  561SOL     OW 1817   0.158   1.708   0.214
  561SOL    HW1 1818   0.179   1.778   0.277
  561SOL    HW2 1819   0.167   1.749   0.128
  562SOL     OW 1820   2.845   3.445   0.989
  562SOL    HW1 1821   2.880   3.529   1.017
  562SOL    HW2 1822   2.922   3.389   0.979
  563SOL     OW 1823   2.737   0.930   1.738
  563SOL    HW1 1824   2.688   0.930   1.656
  563SOL    HW2 1825   2.672   0.943   1.806
  564SOL     OW 1826   0.188   2.044   3.100
  564SOL    HW1 1827   0.110   2.091   3.130
  564SOL    HW2 1828   0.253   2.059   3.169
  565SOL     OW 1829   0.074   2.731   0.242
  565SOL    HW1 1830   0.026   2.660   0.284
  565SOL    HW2 1831   0.143   2.687   0.191
  566SOL     OW 1832   3.439   1.175   1.026
  566SOL    HW1 1833   3.372   1.106   1.019
  566SOL    HW2 1834   3.416   1.221   1.107
  567SOL     OW 1835   3.393   3.160   0.692
  567SOL    HW1 1836   3.413   3.067   0.681
  567SOL    HW2 1837   3.402   3.197   0.604
  568SOL     OW 1838   0.066   3.534   3.799
  568SOL    HW1 1839  -0.020   3.541   3.841
  568SOL    HW2 1840   0.055   3.574   3.713
  569SOL     OW 1841   3.928   3.312   0.873
  569SOL    HW1 1842   3.896   3.317   0.783
  569SOL    HW2 1843   3.992   3.241   0.871
  570SOL     OW 1844   1.913   3.145   3.877
  570SOL    HW1 1845   1.945   3.069   3.829
  570SOL    HW2 1846   1.839   3.177   3.825
  571SOL     OW 1847   0.277   2.013   3.690
  571SOL    HW1 1848   0.330   1.933   3.690
  571SOL    HW2 1849   0.198   1.989   3.641
  572SOL     OW 1850   0.395   0.779   1.261
  572SOL    HW1 1851   0.428   0.866   1.282
  572SOL    HW2 1852   0.428   0.723   1.331
  573SOL     OW 1853   1.769   2.197   3.266
  573SOL    HW1 1854   1.679   2.214   3.241
  573SOL    HW2 1855   1.786   2.256   3.339
  574SOL     OW 1856   1.193   3.318   2.807
  574SOL    HW1 1857   1.174   3.265   2.730
  574SOL    HW2 1858   1.266   3.273   2.850
  575SOL     OW 1859   1.157   3.924   0.665
  575SOL    HW1 1860   1.251   3.906   0.659
  575SOL    HW2 1861   1.118   3.840   0.688
  576SOL     OW 1862   1.842   3.529   3.330
  576SOL    HW1 1863   1.768   3.508   3.387
  576SOL    HW2 1864   1.905   3.574   3.388
  577SOL     OW 1865   2.727   0.364   1.604
  577SOL    HW1 1866   2.683   0.372   1.520
  577SOL    HW2 1867   2.657   0.339   1.665
  578SOL     OW 1868   2.921   1.587   1.596
  578SOL    HW1 1869   2.871   1.646   1.652
  578SOL    HW2 1870   3.011   1.594   1.628
  579SOL     OW 1871   1.495   2.688   2.588
  579SOL    HW1 1872   1.475   2.613   2.533
  579SOL    HW2 1873   1.434   2.756   2.560
  580SOL     OW 1874   1.005   1.510   0.467
  580SOL    HW1 1875   0.988   1.541   0.556
  580SOL    HW2 1876   1.096   1.480   0.469
  581SOL     OW 1877   1.555   0.139   0.015
  581SOL    HW1 1878   1.583   0.143   0.106
  581SOL    HW2 1879   1.586   0.222  -0.023
  582SOL     OW 1880   0.048   2.461   3.797
  582SOL    HW1 1881  -0.026   2.435   3.743
  582SOL    HW2 1882   0.114   2.393   3.783
  583SOL     OW 1883   2.199   3.937   1.262
  583SOL    HW1 1884   2.209   3.876   1.335
  583SOL    HW2 1885   2.250   3.898   1.191
  584SOL     OW 1886   2.038   3.583   2.428
  584SOL    HW1 1887   2.032   3.519   2.357
  584SOL    HW2 1888   1.950   3.619   2.436
  585SOL     OW 1889   2.079   3.698   0.681
  585SOL    HW1 1890   2.169   3.665   0.694
  585SOL    HW2 1891   2.041   3.639   0.617
  586SOL     OW 1892   0.384   3.408   2.958
  586SOL    HW1 1893   0.293   3.417   2.929
  586SOL    HW2 1894   0.404   3.315   2.944
  587SOL     OW 1895   2.858   3.839   0.276
  587SOL    HW1 1896   2.949   3.813   0.261
  587SOL    HW2 1897   2.811   3.756   0.284
  588SOL     OW 1898   3.786   2.178   0.643
  588SOL    HW1 1899   3.744   2.257   0.608
  588SOL    HW2 1900   3.714   2.128   0.681
  589SOL     OW 1901   2.689   0.220   3.772
  589SOL    HW1 1902   2.752   0.148   3.777
  589SOL    HW2 1903   2.603   0.178   3.774
  590SOL     OW 1904   0.180   1.523   1.483
  590SOL    HW1 1905   0.203   1.443   1.529
  590SOL    HW2 1906   0.149   1.583   1.551
  591SOL     OW 1907   1.271   3.240   1.326
  591SOL    HW1 1908   1.347   3.296   1.315
  591SOL    HW2 1909   1.260   3.231   1.421
  592SOL     OW 1910   0.476   2.064   2.526
  592SOL    HW1 1911   0.438   1.977   2.512
  592SOL    HW2 1912   0.403   2.118   2.555
  593SOL     OW 1913   3.009   1.590   0.225
  593SOL    HW1 1914   2.954   1.544   0.289
  593SOL    HW2 1915   3.088   1.612   0.274
  594SOL     OW 1916   1.879   1.202   0.034
  594SOL    HW1 1917   1.800   1.176   0.081
  594SOL    HW2 1918   1.951   1.165   0.085
  595SOL     OW 1919   0.550   3.154   2.780
  595SOL    HW1 1920   0.503   3.196   2.708
  595SOL    HW2 1921   0.497   3.078   2.803
  596SOL     OW 1922   3.494   0.368   1.450
  596SOL    HW1 1923   3.562   0.395   1.513
  596SOL    HW2 1924   3.418   0.348   1.505
  597SOL     OW 1925   3.620   1.301   3.839
  597SOL    HW1 1926   3.708   1.265   3.827
  597SOL    HW2 1927   3.626   1.350   3.921
  598SOL     OW 1928   2.442   1.445   3.588
  598SOL    HW1 1929   2.462   1.407   3.502
  598SOL    HW2 1930   2.528   1.460   3.627
  599SOL     OW 1931   3.971   2.303   1.406
  599SOL    HW1 1932   3.895   2.294   1.349
  599SOL    HW2 1933   3.944   2.264   1.489
  600SOL     OW 1934   2.507   1.222   1.462
  600SOL    HW1 1935   2.420   1.255   1.440
  600SOL    HW2 1936   2.491   1.135   1.499
  601SOL     OW 1937   3.085   3.624   1.890
  601SOL    HW1 1938   3.140   3.700   1.874
  601SOL    HW2 1939   3.071   3.625   1.985
  602SOL     OW 1940   1.816   3.471   3.705
  602SOL    HW1 1941   1.783   3.454   3.617
  602SOL    HW2 1942   1.737   3.469   3.760
  603SOL     OW 1943   3.786   3.979   3.406
  603SOL    HW1 1944   3.781   3.919   3.332
  603SOL    HW2 1945   3.737   3.935   3.476
  604SOL     OW 1946   3.512   3.169   0.246
  604SOL    HW1 1947   3.486   3.248   0.293
  604SOL    HW2 1948   3.606   3.178   0.234
  605SOL     OW 1949   2.326   0.660   0.019
  605SOL    HW1 1950   2.292   0.683   0.106
  605SOL    HW2 1951   2.275   0.583  -0.007
  606SOL     OW 1952   0.547   3.505   1.674
  606SOL    HW1 1953   0.518   3.424   1.632
  606SOL    HW2 1954   0.573   3.479   1.762
  607SOL     OW 1955   0.311   2.957   2.921
  607SOL    HW1 1956   0.279   2.996   3.003
  607SOL    HW2 1957   0.232   2.946   2.868
  608SOL     OW 1958   0.981   3.418   0.941
  608SOL    HW1 1959   0.968   3.506   0.907
  608SOL    HW2 1960   0.894   3.387   0.964
  609SOL     OW 1961   1.518   0.257   2.960
  609SOL    HW1 1962   1.426   0.274   2.940
  609SOL    HW2 1963   1.525   0.162   2.960
  610SOL     OW 1964   1.196   2.803   3.832
  610SOL    HW1 1965   1.121   2.848   3.792
  610SOL    HW2 1966   1.190   2.713   3.800
  611SOL     OW 1967   3.272   3.190   1.033
  611SOL    HW1 1968   3.235   3.152   0.953
  611SOL    HW2 1969   3.218   3.267   1.050
  612SOL     OW 1970   2.761   0.552   1.000
  612SOL    HW1 1971   2.855   0.543   1.017
  612SOL    HW2 1972   2.748   0.647   0.993
  613SOL     OW 1973   0.523   0.345   0.630
  613SOL    HW1 1974   0.541   0.392   0.548
  613SOL    HW2 1975   0.466   0.405   0.679
  614SOL     OW 1976   3.827   3.790   1.120
  614SOL    HW1 1977   3.897   3.847   1.151
  614SOL    HW2 1978   3.850   3.703   1.154
  615SOL     OW 1979   3.087   0.138   2.371
  615SOL    HW1 1980   3.113   0.141   2.279
  615SOL    HW2 1981   3.004   0.090   2.371
  616SOL     OW 1982   1.599   3.448   2.845
  616SOL    HW1 1983   1.582   3.379   2.910
  616SOL    HW2 1984   1.689   3.432   2.816
  617SOL     OW 1985   1.112   2.385   0.742
  617SOL    HW1 1986   1.078   2.449   0.680
  617SOL    HW2 1987   1.172   2.331   0.690
  618SOL     OW 1988   0.734   2.098   2.662
  618SOL    HW1 1989   0.646   2.093   2.626
  618SOL    HW2 1990   0.728   2.162   2.733
  619SOL     OW 1991   3.163   3.915   2.623
  619SOL    HW1 1992   3.157   3.946   2.533
  619SOL    HW2 1993   3.234   3.966   2.662
  620SOL     OW 1994   1.009   0.462   2.541
  620SOL    HW1 1995   1.102   0.481   2.557
  620SOL    HW2 1996   1.005   0.438   2.448
  621SOL     OW 1997   3.619   3.611   1.473
  621SOL    HW1 1998   3.614   3.695   1.426
  621SOL    HW2 1999   3.676   3.629   1.547
  622SOL     OW 2000   3.892   1.071   2.568
  622SOL    HW1 2001   3.876   1.126   2.645
  622SOL    HW2 2002   3.891   0.981   2.602
  623SOL     OW 2003   0.625   3.278   0.874
  623SOL    HW1 2004   0.655   3.346   0.934
  623SOL    HW2 2005   0.616   3.200   0.928
  624SOL     OW 2006   3.858   0.203   0.985
  624SOL    HW1 2007   3.954   0.196   0.981
  624SOL    HW2 2008   3.841   0.268   1.053
  625SOL     OW 2009   0.502   2.594   1.358
  625SOL    HW1 2010   0.589   2.554   1.357
  625SOL    HW2 2011   0.510   2.668   1.298
  626SOL     OW 2012   0.346   3.988   1.469
  626SOL    HW1 2013   0.395   3.967   1.549
  626SOL    HW2 2014   0.338   3.905   1.423
  627SOL     OW 2015   3.700   2.918   2.231
  627SOL    HW1 2016   3.700   2.900   2.137
  627SOL    HW2 2017   3.750   2.999   2.240
  628SOL     OW 2018   3.033   1.465   3.382
  628SOL    HW1 2019   2.944   1.447   3.412
  628SOL    HW2 2020   3.024   1.477   3.287
  629SOL     OW 2021   0.920   2.499   3.852
  629SOL    HW1 2022   0.985   2.509   3.782
  629SOL    HW2 2023   0.837   2.527   3.812
  630SOL     OW 2024   0.704   0.460   3.618
  630SOL    HW1 2025   0.629   0.402   3.608
  630SOL    HW2 2026   0.778   0.402   3.635
  631SOL     OW 2027   3.124   0.341   2.565
  631SOL    HW1 2028   3.053   0.400   2.541
  631SOL    HW2 2029   3.119   0.270   2.500
  632SOL     OW 2030   3.326   0.529   2.568
  632SOL    HW1 2031   3.263   0.457   2.564
  632SOL    HW2 2032   3.283   0.602   2.524
  633SOL     OW 2033   2.234   2.637   1.402
  633SOL    HW1 2034   2.150   2.594   1.384
  633SOL    HW2 2035   2.270   2.588   1.476
  634SOL     OW 2036   2.405   2.722   3.215
  634SOL    HW1 2037   2.481   2.773   3.241
  634SOL    HW2 2038   2.359   2.705   3.298
  635SOL     OW 2039   2.205   1.130   2.433
  635SOL    HW1 2040   2.200   1.177   2.350
  635SOL    HW2 2041   2.265   1.182   2.486
  636SOL     OW 2042   0.445   3.303   0.481
  636SOL    HW1 2043   0.423   3.290   0.573
  636SOL    HW2 2044   0.387   3.243   0.434
  637SOL     OW 2045   0.189   0.611   3.125
  637SOL    HW1 2046   0.130   0.642   3.193
  637SOL    HW2 2047   0.145   0.533   3.089
  638SOL     OW 2048   1.731   0.952   2.534
  638SOL    HW1 2049   1.678   0.906   2.598
  638SOL    HW2 2050   1.818   0.958   2.574
  639SOL     OW 2051   3.408   2.200   2.679
  639SOL    HW1 2052   3.351   2.244   2.742
  639SOL    HW2 2053   3.439   2.270   2.622
  640SOL     OW 2054   3.178   3.218   1.828
  640SOL    HW1 2055   3.240   3.193   1.896
  640SOL    HW2 2056   3.208   3.303   1.798
  641SOL     OW 2057   3.873   2.574   2.845
  641SOL    HW1 2058   3.897   2.537   2.760
  641SOL    HW2 2059   3.810   2.512   2.882
  642SOL     OW 2060   2.834   1.670   1.912
  642SOL    HW1 2061   2.770   1.700   1.846
  642SOL    HW2 2062   2.781   1.624   1.977
  643SOL     OW 2063   1.901   1.325   2.214
  643SOL    HW1 2064   1.990   1.315   2.180
  643SOL    HW2 2065   1.912   1.369   2.298
  644SOL     OW 2066   2.742   3.065   3.520
  644SOL    HW1 2067   2.782   3.144   3.484
  644SOL    HW2 2068   2.757   3.070   3.614
  645SOL     OW 2069   3.176   1.978   3.739
  645SOL    HW1 2070   3.207   2.049   3.682
  645SOL    HW2 2071   3.081   1.991   3.743
  646SOL     OW 2072   1.847   1.752   0.917
  646SOL    HW1 2073   1.834   1.840   0.882
  646SOL    HW2 2074   1.838   1.694   0.841
  647SOL     OW 2075   2.162   0.841   3.876
  647SOL    HW1 2076   2.198   0.843   3.787
  647SOL    HW2 2077   2.229   0.797   3.928
  648SOL     OW 2078   1.317   1.429   1.589
  648SOL    HW1 2079   1.381   1.437   1.660
  648SOL    HW2 2080   1.232   1.443   1.632
  649SOL     OW 2081   1.104   3.874   2.794
  649SOL    HW1 2082   1.020   3.893   2.753
  649SOL    HW2 2083   1.116   3.780   2.781
  650SOL     OW 2084   3.315   0.000   2.385
  650SOL    HW1 2085   3.397   0.051   2.386
  650SOL    HW2 2086   3.247   0.064   2.364
  651SOL     OW 2087   2.022   3.227   2.456
  651SOL    HW1 2088   2.066   3.144   2.477
  651SOL    HW2 2089   2.093   3.291   2.450
  652SOL     OW 2090   1.457   2.552   2.134
  652SOL    HW1 2091   1.422   2.524   2.049
  652SOL    HW2 2092   1.545   2.582   2.114
  653SOL     OW 2093   3.436   2.011   3.080
  653SOL    HW1 2094   3.405   1.962   3.004
  653SOL    HW2 2095   3.398   1.965   3.155
  654SOL     OW 2096   3.496   2.083   2.318
  654SOL    HW1 2097   3.422   2.107   2.374
  654SOL    HW2 2098   3.567   2.141   2.347
  655SOL     OW 2099   2.149   3.624   2.669
  655SOL    HW1 2100   2.100   3.597   2.592
  655SOL    HW2 2101   2.231   3.659   2.635
  656SOL     OW 2102   3.439   3.723   2.545
  656SOL    HW1 2103   3.393   3.782   2.486
  656SOL    HW2 2104   3.467   3.650   2.490
  657SOL     OW 2105   2.806   2.990   0.269
  657SOL    HW1 2106   2.793   3.010   0.362
  657SOL    HW2 2107   2.804   3.075   0.226
  658SOL     OW 2108   3.732   1.371   2.132
  658SOL    HW1 2109   3.662   1.419   2.089
  658SOL    HW2 2110   3.692   1.334   2.211
  659SOL     OW 2111   0.263   0.008   3.006
  659SOL    HW1 2112   0.347   0.044   2.979
  659SOL    HW2 2113   0.284  -0.050   3.079
  660SOL     OW 2114   2.031   3.382   0.873
  660SOL    HW1 2115   2.029   3.423   0.959
  660SOL    HW2 2116   1.940   3.384   0.843
  661SOL     OW 2117   2.007   0.383   2.283
  661SOL    HW1 2118   2.074   0.421   2.340
  661SOL    HW2 2119   2.014   0.289   2.297
  662SOL     OW 2120   1.987   3.763   2.841
  662SOL    HW1 2121   2.036   3.758   2.923
  662SOL    HW2 2122   2.052   3.746   2.773
  663SOL     OW 2123   2.667   3.682   2.498
  663SOL    HW1 2124   2.713   3.756   2.537
  663SOL    HW2 2125   2.707   3.671   2.411
  664SOL     OW 2126   0.472   3.821   2.379
  664SOL    HW1 2127   0.511   3.908   2.378
  664SOL    HW2 2128   0.482   3.791   2.469
  665SOL     OW 2129   0.301   3.090   2.285
  665SOL    HW1 2130   0.323   3.143   2.208
  665SOL    HW2 2131   0.265   3.153   2.347
  666SOL     OW 2132   0.191   0.680   0.215
  666SOL    HW1 2133   0.150   0.706   0.298
  666SOL    HW2 2134   0.181   0.756   0.158
  667SOL     OW 2135   2.229   2.763   0.931
  667SOL    HW1 2136   2.192   2.690   0.982
  667SOL    HW2 2137   2.153   2.816   0.906
  668SOL     OW 2138   1.222   2.190   0.527
  668SOL    HW1 2139   1.134   2.210   0.496
  668SOL    HW2 2140   1.278   2.257   0.487
  669SOL     OW 2141   1.699   2.701   2.089
  669SOL    HW1 2142   1.762   2.660   2.030
  669SOL    HW2 2143   1.749   2.767   2.136
  670SOL     OW 2144   1.779   1.913   0.202
  670SOL    HW1 2145   1.801   1.990   0.149
  670SOL    HW2 2146   1.760   1.845   0.137
  671SOL     OW 2147   1.838  -0.018   2.069
  671SOL    HW1 2148   1.773   0.049   2.093
  671SOL    HW2 2149   1.920   0.031   2.060
  672SOL     OW 2150   0.679   2.321   2.103
  672SOL    HW1 2151   0.735   2.250   2.134
  672SOL    HW2 2152   0.726   2.401   2.126
  673SOL     OW 2153   3.157   2.263   2.801
  673SOL    HW1 2154   3.101   2.337   2.777
  673SOL    HW2 2155   3.129   2.192   2.743
  674SOL     OW 2156   1.695   2.539   1.176
  674SOL    HW1 2157   1.702   2.633   1.194
  674SOL    HW2 2158   1.736   2.529   1.089
  675SOL     OW 2159   3.192   0.669   2.118
  675SOL    HW1 2160   3.206   0.727   2.193
  675SOL    HW2 2161   3.134   0.718   2.060
  676SOL     OW 2162   3.814   2.500   0.173
  676SOL    HW1 2163   3.796   2.418   0.218
  676SOL    HW2 2164   3.785   2.484   0.083
  677SOL     OW 2165   2.552   0.408   0.919
  677SOL    HW1 2166   2.614   0.478   0.936
  677SOL    HW2 2167   2.522   0.381   1.006
  678SOL     OW 2168   3.079   1.973   0.650
  678SOL    HW1 2169   2.983   1.971   0.645
  678SOL    HW2 2170   3.106   1.886   0.623
  679SOL     OW 2171   2.853   2.337   0.554
  679SOL    HW1 2172   2.781   2.395   0.575
  679SOL    HW2 2173   2.928   2.395   0.539
  680SOL     OW 2174   3.696   1.526   0.371
  680SOL    HW1 2175   3.784   1.562   0.357
  680SOL    HW2 2176   3.673   1.554   0.460
  681SOL     OW 2177   2.255   3.952   3.056
  681SOL    HW1 2178   2.227   3.892   2.987
  681SOL    HW2 2179   2.341   3.984   3.028
  682SOL     OW 2180   0.669   3.248   3.100
  682SOL    HW1 2181   0.670   3.252   3.004
  682SOL    HW2 2182   0.750   3.293   3.126
  683SOL     OW 2183   3.180   2.390   1.920
  683SOL    HW1 2184   3.097   2.415   1.960
  683SOL    HW2 2185   3.234   2.468   1.927
  684SOL     OW 2186   1.948   1.404   2.465
  684SOL    HW1 2187   1.861   1.383   2.501
  684SOL    HW2 2188   2.006   1.400   2.541
  685SOL     OW 2189   2.345   2.408   0.044
  685SOL    HW1 2190   2.431   2.366   0.051
  685SOL    HW2 2191   2.336   2.428  -0.049
  686SOL     OW 2192   0.003   3.836   0.506
  686SOL    HW1 2193  -0.037   3.778   0.571
  686SOL    HW2 2194   0.096   3.814   0.508
  687SOL     OW 2195   1.154   3.457   0.606
  687SOL    HW1 2196   1.215   3.383   0.603
  687SOL    HW2 2197   1.100   3.446   0.527
  688SOL     OW 2198   2.821   3.626   1.854
  688SOL    HW1 2199   2.907   3.664   1.875
  688SOL    HW2 2200   2.808   3.558   1.920
  689SOL     OW 2201   2.350   1.969   1.895
  689SOL    HW1 2202   2.320   2.053   1.861
  689SOL    HW2 2203   2.300   1.904   1.847
  690SOL     OW 2204   3.743   0.965   3.383
  690SOL    HW1 2205   3.662   0.938   3.425
  690SOL    HW2 2206   3.724   0.962   3.289
  691SOL     OW 2207   3.846   0.883   1.225
  691SOL    HW1 2208   3.842   0.799   1.178
  691SOL    HW2 2209   3.929   0.879   1.274
  692SOL     OW 2210   1.084   0.274   3.954
  692SOL    HW1 2211   1.106   0.357   3.994
  692SOL    HW2 2212   1.153   0.258   3.890
  693SOL     OW 2213   0.323   2.718   0.046
  693SOL    HW1 2214   0.403   2.673   0.075
  693SOL    HW2 2215   0.335   2.808   0.075
  694SOL     OW 2216   0.400   2.870   1.906
  694SOL    HW1 2217   0.420   2.875   1.812
  694SOL    HW2 2218   0.354   2.786   1.916
  695SOL     OW 2219   2.400   0.900   1.705
  695SOL    HW1 2220   2.442   0.849   1.774
  695SOL    HW2 2221   2.396   0.840   1.630
  696SOL     OW 2222   2.041   1.201   2.923
  696SOL    HW1 2223   2.010   1.291   2.934
  696SOL    HW2 2224   2.090   1.182   3.003
  697SOL     OW 2225   3.233   0.708   3.153
  697SOL    HW1 2226   3.250   0.754   3.071
  697SOL    HW2 2227   3.153   0.659   3.137
  698SOL     OW 2228   1.711   2.545   2.718
  698SOL    HW1 2229   1.664   2.583   2.792
  698SOL    HW2 2230   1.642   2.517   2.657
  699SOL     OW 2231   3.433   3.401   3.166
  699SOL    HW1 2232   3.398   3.466   3.227
  699SOL    HW2 2233   3.514   3.371   3.206
  700SOL     OW 2234   0.788   3.833   3.609
  700SOL    HW1 2235   0.842   3.824   3.530
  700SOL    HW2 2236   0.849   3.862   3.676
  701SOL     OW 2237   2.923   1.584   1.333
  701SOL    HW1 2238   2.943   1.578   1.426
  701SOL    HW2 2239   2.861   1.513   1.317
  702SOL     OW 2240   2.137   2.216   3.653
  702SOL    HW1 2241   2.150   2.291   3.711
  702SOL    HW2 2242   2.042   2.205   3.647
  703SOL     OW 2243   3.212   1.674   3.070
  703SOL    HW1 2244   3.228   1.587   3.105
  703SOL    HW2 2245   3.291   1.695   3.020
  704SOL     OW 2246   3.437   2.706   1.788
  704SOL    HW1 2247   3.406   2.686   1.876
  704SOL    HW2 2248   3.458   2.621   1.749
  705SOL     OW 2249   3.167   2.492   2.430
  705SOL    HW1 2250   3.104   2.492   2.502
  705SOL    HW2 2251   3.245   2.450   2.466
  706SOL     OW 2252   3.671   0.241   3.312
  706SOL    HW1 2253   3.729   0.167   3.334
  706SOL    HW2 2254   3.731   0.313   3.292
  707SOL     OW 2255   0.195   2.933   0.344
  707SOL    HW1 2256   0.150   2.863   0.297
  707SOL    HW2 2257   0.198   2.903   0.435
  708SOL     OW 2258   0.137   0.800   2.161
  708SOL    HW1 2259   0.116   0.865   2.227
  708SOL    HW2 2260   0.170   0.725   2.210
  709SOL     OW 2261   0.721   0.347   3.344
  709SOL    HW1 2262   0.688   0.384   3.426
  709SOL    HW2 2263   0.649   0.295   3.310
  710SOL     OW 2264   0.595   3.459   0.204
  710SOL    HW1 2265   0.609   3.382   0.259
  710SOL    HW2 2266   0.499   3.468   0.199
  711SOL     OW 2267   0.972   0.953   2.978
  711SOL    HW1 2268   0.958   1.045   2.999
  711SOL    HW2 2269   0.975   0.908   3.062
  712SOL     OW 2270   1.004   3.803   2.152
  712SOL    HW1 2271   0.992   3.833   2.062
  712SOL    HW2 2272   0.939   3.852   2.202
  713SOL     OW 2273   1.667   1.306   2.888
  713SOL    HW1 2274   1.640   1.398   2.892
  713SOL    HW2 2275   1.602   1.265   2.832
  714SOL     OW 2276   3.545   0.163   3.102
  714SOL    HW1 2277   3.456   0.197   3.105
  714SOL    HW2 2278   3.586   0.195   3.182
  715SOL     OW 2279   3.807   0.249   1.777
  715SOL    HW1 2280   3.793   0.192   1.853
  715SOL    HW2 2281   3.902   0.259   1.772
  716SOL     OW 2282   3.656   0.179   0.281
  716SOL    HW1 2283   3.697   0.161   0.365
  716SOL    HW2 2284   3.574   0.128   0.283
  717SOL     OW 2285   0.491   3.791   1.254
  717SOL    HW1 2286   0.469   3.844   1.177
  717SOL    HW2 2287   0.412   3.739   1.269
  718SOL     OW 2288   2.049   0.172   1.956
  718SOL    HW1 2289   1.970   0.155   1.904
  718SOL    HW2 2290   2.082   0.256   1.923
  719SOL     OW 2291   2.552   2.354   1.763
  719SOL    HW1 2292   2.555   2.370   1.668
  719SOL    HW2 2293   2.486   2.416   1.795
  720SOL     OW 2294   0.268   0.334   2.663
  720SOL    HW1 2295   0.278   0.415   2.713
  720SOL    HW2 2296   0.281   0.265   2.727
  721SOL     OW 2297   0.565   1.627   3.243
  721SOL    HW1 2298   0.606   1.557   3.192
  721SOL    HW2 2299   0.474   1.599   3.253
  722SOL     OW 2300   1.010   3.147   1.256
  722SOL    HW1 2301   1.027   3.112   1.169
  722SOL    HW2 2302   1.095   3.177   1.287
  723SOL     OW 2303   0.214   0.321   3.887
  723SOL    HW1 2304   0.302   0.285   3.900
  723SOL    HW2 2305   0.168   0.301   3.969
  724SOL     OW 2306   3.455   0.165   2.673
  724SOL    HW1 2307   3.508   0.227   2.723
  724SOL    HW2 2308   3.493   0.166   2.585
  725SOL     OW 2309   2.438   0.533   2.236
  725SOL    HW1 2310   2.432   0.518   2.331
  725SOL    HW2 2311   2.471   0.622   2.228
  726SOL     OW 2312   0.783   3.959   3.267
  726SOL    HW1 2313   0.715   4.026   3.257
  726SOL    HW2 2314   0.748   3.882   3.222
  727SOL     OW 2315   2.384   2.113   1.587
  727SOL    HW1 2316   2.347   2.054   1.521
  727SOL    HW2 2317   2.473   2.081   1.600
  728SOL     OW 2318   1.908   3.262   1.918
  728SOL    HW1 2319   1.843   3.194   1.903
  728SOL    HW2 2320   1.992   3.221   1.899
  729SOL     OW 2321   2.136   0.446   1.063
  729SOL    HW1 2322   2.180   0.443   0.978
  729SOL    HW2 2323   2.188   0.387   1.118
  730SOL     OW 2324   0.407   3.741   0.790
  730SOL    HW1 2325   0.425   3.764   0.881
  730SOL    HW2 2326   0.345   3.668   0.795
  731SOL     OW 2327   0.645   0.390   1.810
  731SOL    HW1 2328   0.571   0.442   1.778
  731SOL    HW2 2329   0.707   0.456   1.843
  732SOL     OW 2330   1.683   1.672   3.166
  732SOL    HW1 2331   1.688   1.600   3.230
  732SOL    HW2 2332   1.707   1.750   3.216
  733SOL     OW 2333   2.108   0.771   3.105
  733SOL    HW1 2334   2.047   0.791   3.175
  733SOL    HW2 2335   2.190   0.751   3.150
  734SOL     OW 2336   0.040   1.174   3.009
  734SOL    HW1 2337   0.008   1.101   2.956
  734SOL    HW2 2338   0.052   1.137   3.096
  735SOL     OW 2339   2.585   3.507   0.844
  735SOL    HW1 2340   2.641   3.484   0.917
  735SOL    HW2 2341   2.544   3.425   0.817
  736SOL     OW 2342   0.934   3.196   2.715
  736SOL    HW1 2343   0.891   3.131   2.772
  736SOL    HW2 2344   0.996   3.144   2.664
  737SOL     OW 2345   0.939   3.703   0.546
  737SOL    HW1 2346   0.891   3.782   0.573
  737SOL    HW2 2347   0.945   3.650   0.626
  738SOL     OW 2348   3.227   1.276   3.392
  738SOL    HW1 2349   3.314   1.301   3.424
  738SOL    HW2 2350   3.175   1.356   3.404
  739SOL     OW 2351   1.591   1.566   2.937
  739SOL    HW1 2352   1.625   1.607   3.017
  739SOL    HW2 2353   1.524   1.626   2.906
  740SOL     OW 2354   3.196   0.335   1.472
  740SOL    HW1 2355   3.171   0.312   1.382
  740SOL    HW2 2356   3.122   0.385   1.505
  741SOL     OW 2357   0.366   1.744   3.757
  741SOL    HW1 2358   0.421   1.750   3.835
  741SOL    HW2 2359   0.405   1.674   3.705
  742SOL     OW 2360   2.239   2.204   0.280
  742SOL    HW1 2361   2.187   2.283   0.262
  742SOL    HW2 2362   2.321   2.237   0.316
  743SOL     OW 2363   0.525   0.681   1.488
  743SOL    HW1 2364   0.552   0.590   1.473
  743SOL    HW2 2365   0.570   0.707   1.568
  744SOL     OW 2366   3.618   2.862   1.916
  744SOL    HW1 2367   3.550   2.829   1.858
  744SOL    HW2 2368   3.627   2.955   1.893
  745SOL     OW 2369   0.720   3.256   3.913
  745SOL    HW1 2370   0.774   3.285   3.987
  745SOL    HW2 2371   0.710   3.162   3.926
  746SOL     OW 2372   2.794   1.929   0.348
  746SOL    HW1 2373   2.808   1.843   0.389
  746SOL    HW2 2374   2.699   1.936   0.339
  747SOL     OW 2375   3.703   0.349   3.737
  747SOL    HW1 2376   3.754   0.389   3.808
  747SOL    HW2 2377   3.768   0.326   3.671
  748SOL     OW 2378   0.284   2.395   2.777
  748SOL    HW1 2379   0.248   2.475   2.815
  748SOL    HW2 2380   0.212   2.331   2.782
  749SOL     OW 2381   2.325   2.780   2.355
  749SOL    HW1 2382   2.273   2.830   2.291
  749SOL    HW2 2383   2.366   2.710   2.303
  750SOL     OW 2384   2.992   3.635   3.732
  750SOL    HW1 2385   3.001   3.645   3.826
  750SOL    HW2 2386   3.068   3.679   3.695
  751SOL     OW 2387   3.102   2.256   0.092
  751SOL    HW1 2388   3.058   2.341   0.090
  751SOL    HW2 2389   3.182   2.268   0.041
  752SOL     OW 2390   2.500   1.693   3.180
  752SOL    HW1 2391   2.570   1.717   3.240
  752SOL    HW2 2392   2.544   1.645   3.109
  753SOL     OW 2393   3.165   2.134   3.445
  753SOL    HW1 2394   3.080   2.150   3.486
  753SOL    HW2 2395   3.150   2.152   3.353
  754SOL     OW 2396   0.624   2.758   2.580
  754SOL    HW1 2397   0.691   2.694   2.557
  754SOL    HW2 2398   0.655   2.840   2.541
  755SOL     OW 2399   1.832   3.494   0.317
  755SOL    HW1 2400   1.884   3.458   0.246
  755SOL    HW2 2401   1.815   3.585   0.291
  756SOL     OW 2402   1.086   3.632   0.027
  756SOL    HW1 2403   1.077   3.728   0.025
  756SOL    HW2 2404   0.996   3.600   0.029
  757SOL     OW 2405   3.383   3.760   0.076
  757SOL    HW1 2406   3.432   3.701   0.019
  757SOL    HW2 2407   3.450   3.815   0.117
  758SOL     OW 2408   3.286   0.797   0.118
  758SOL    HW1 2409   3.208   0.763   0.075
  758SOL    HW2 2410   3.340   0.832   0.047
  759SOL     OW 2411   3.236   0.912   3.327
  759SOL    HW1 2412   3.159   0.962   3.300
  759SOL    HW2 2413   3.235   0.836   3.268
  760SOL     OW 2414   1.302   2.966   1.866
  760SOL    HW1 2415   1.367   2.961   1.936
  760SOL    HW2 2416   1.287   3.060   1.854
  761SOL     OW 2417   3.683   3.293   3.911
  761SOL    HW1 2418   3.717   3.213   3.870
  761SOL    HW2 2419   3.588   3.287   3.901
  762SOL     OW 2420   2.883   1.475   0.999
  762SOL    HW1 2421   2.809   1.459   0.939
  762SOL    HW2 2422   2.842   1.514   1.076
  763SOL     OW 2423   3.379   2.561   2.010
  763SOL    HW1 2424   3.327   2.617   2.067
  763SOL    HW2 2425   3.466   2.562   2.049
  764SOL     OW 2426   1.844   2.228   3.652
  764SOL    HW1 2427   1.807   2.141   3.640
  764SOL    HW2 2428   1.818   2.276   3.573
  765SOL     OW 2429   1.271   0.192   1.739
  765SOL    HW1 2430   1.269   0.097   1.754
  765SOL    HW2 2431   1.364   0.215   1.740
  766SOL     OW 2432   2.184   0.421  -0.021
  766SOL    HW1 2433   2.207   0.329  -0.007
  766SOL    HW2 2434   2.106   0.435   0.032
  767SOL     OW 2435   0.784   3.370   3.460
  767SOL    HW1 2436   0.740   3.387   3.543
  767SOL    HW2 2437   0.804   3.276   3.462
  768SOL     OW 2438   1.948   0.083   0.457
  768SOL    HW1 2439   2.001   0.044   0.527
  768SOL    HW2 2440   1.858   0.080   0.490
  769SOL     OW 2441   0.659   3.087   1.093
  769SOL    HW1 2442   0.717   3.132   1.154
  769SOL    HW2 2443   0.664   2.995   1.120
  770SOL     OW 2444   0.960   0.664   1.126
  770SOL    HW1 2445   0.979   0.648   1.033
  770SOL    HW2 2446   0.867   0.688   1.127
  771SOL     OW 2447   3.677   3.559   3.060
  771SOL    HW1 2448   3.650   3.616   3.132
  771SOL    HW2 2449   3.621   3.583   2.987
  772SOL     OW 2450   1.975   2.363   0.277
  772SOL    HW1 2451   1.906   2.412   0.232
  772SOL    HW2 2452   2.052   2.420   0.273
  773SOL     OW 2453   1.013   0.065   3.003
  773SOL    HW1 2454   0.994  -0.003   3.067
  773SOL    HW2 2455   1.046   0.018   2.926
  774SOL     OW 2456   3.212   3.262   2.758
  774SOL    HW1 2457   3.147   3.327   2.786
  774SOL    HW2 2458   3.245   3.296   2.675
  775SOL     OW 2459   3.971   0.665   2.383
  775SOL    HW1 2460   3.928   0.654   2.468
  775SOL    HW2 2461   3.903   0.643   2.319
  776SOL     OW 2462   2.917   2.470   0.859
  776SOL    HW1 2463   2.869   2.415   0.922
  776SOL    HW2 2464   2.977   2.410   0.816
  777SOL     OW 2465   1.072   0.265   1.577
  777SOL    HW1 2466   1.146   0.300   1.527
  777SOL    HW2 2467   1.108   0.191   1.625
  778SOL     OW 2468   3.040   3.708   2.837
  778SOL    HW1 2469   3.032   3.801   2.816
  778SOL    HW2 2470   3.116   3.679   2.787
  779SOL     OW 2471   0.293   2.380   0.914
  779SOL    HW1 2472   0.253   2.398   0.829
  779SOL    HW2 2473   0.319   2.288   0.909
  780SOL     OW 2474   1.370   3.603   0.037
  780SOL    HW1 2475   1.281   3.605   0.001
  780SOL    HW2 2476   1.393   3.695   0.048
  781SOL     OW 2477   1.417   2.600   1.009
  781SOL    HW1 2478   1.322   2.602   0.996
  781SOL    HW2 2479   1.435   2.514   1.046
  782SOL     OW 2480   2.971   0.898   2.033
  782SOL    HW1 2481   3.055   0.943   2.035
  782SOL    HW2 2482   2.908   0.967   2.013
  783SOL     OW 2483   2.096   1.180   0.193
  783SOL    HW1 2484   2.132   1.232   0.265
  783SOL    HW2 2485   2.173   1.147   0.146
  784SOL     OW 2486   0.585   3.724   1.965
  784SOL    HW1 2487   0.633   3.804   1.945
  784SOL    HW2 2488   0.648   3.654   1.951
  785SOL     OW 2489   3.068   0.772   1.137
  785SOL    HW1 2490   3.111   0.855   1.118
  785SOL    HW2 2491   3.139   0.715   1.169
  786SOL     OW 2492   2.334   1.546   0.085
  786SOL    HW1 2493   2.342   1.592   0.001
  786SOL    HW2 2494   2.401   1.478   0.081
  787SOL     OW 2495   0.403   2.317   0.117
  787SOL    HW1 2496   0.335   2.340   0.054
  787SOL    HW2 2497   0.482   2.361   0.085
  788SOL     OW 2498   3.117   2.471   3.289
  788SOL    HW1 2499   3.030   2.496   3.258
  788SOL    HW2 2500   3.126   2.380   3.263
  789SOL     OW 2501   3.485   2.751   2.243
  789SOL    HW1 2502   3.554   2.816   2.251
  789SOL    HW2 2503   3.448   2.744   2.331
  790SOL     OW 2504   2.233   3.386   1.629
  790SOL    HW1 2505   2.145   3.370   1.663
  790SOL    HW2 2506   2.225   3.371   1.534
  791SOL     OW 2507   2.570   2.646   2.711
  791SOL    HW1 2508   2.502   2.699   2.752
  791SOL    HW2 2509   2.650   2.669   2.758
  792SOL     OW 2510   2.513   0.044   3.126
  792SOL    HW1 2511   2.505   0.067   3.218
  792SOL    HW2 2512   2.547  -0.045   3.126
  793SOL     OW 2513   0.882   0.923   3.493
  793SOL    HW1 2514   0.893   0.997   3.553
  793SOL    HW2 2515   0.874   0.963   3.406
  794SOL     OW 2516   3.269   1.480   3.811
  794SOL    HW1 2517   3.174   1.481   3.827
  794SOL    HW2 2518   3.299   1.396   3.846
  795SOL     OW 2519   1.732   1.995   3.595
  795SOL    HW1 2520   1.782   1.941   3.534
  795SOL    HW2 2521   1.689   1.932   3.653
  796SOL     OW 2522   1.583   3.517   3.845
  796SOL    HW1 2523   1.496   3.494   3.877
  796SOL    HW2 2524   1.627   3.557   3.921
  797SOL     OW 2525   0.844   3.472   3.046
  797SOL    HW1 2526   0.810   3.519   3.122
  797SOL    HW2 2527   0.803   3.514   2.971
  798SOL     OW 2528   2.282   1.770   2.496
  798SOL    HW1 2529   2.362   1.820   2.517
  798SOL    HW2 2530   2.259   1.726   2.577
  799SOL     OW 2531   0.501   1.691   0.043
  799SOL    HW1 2532   0.471   1.703   0.134
  799SOL    HW2 2533   0.593   1.715   0.045
  800SOL     OW 2534   2.560   1.243   2.323
  800SOL    HW1 2535   2.520   1.237   2.236
  800SOL    HW2 2536   2.603   1.158   2.335
  801SOL     OW 2537   2.473   2.355   2.493
  801SOL    HW1 2538   2.557   2.356   2.539
  801SOL    HW2 2539   2.494   2.381   2.404
  802SOL     OW 2540   0.596   2.144   1.773
  802SOL    HW1 2541   0.576   2.089   1.849
  802SOL    HW2 2542   0.516   2.143   1.720
  803SOL     OW 2543   2.759   0.646   0.589
  803SOL    HW1 2544   2.819   0.640   0.514
  803SOL    HW2 2545   2.758   0.558   0.626
  804SOL     OW 2546   3.952   0.604   2.861
  804SOL    HW1 2547   4.002   0.529   2.892
  804SOL    HW2 2548   3.891   0.624   2.933
  805SOL     OW 2549   0.487   1.703   0.333
  805SOL    HW1 2550   0.439   1.646   0.393
  805SOL    HW2 2551   0.467   1.792   0.362
  806SOL     OW 2552   0.339   2.654   0.832
  806SOL    HW1 2553   0.413   2.667   0.774
  806SOL    HW2 2554   0.378   2.639   0.918
  807SOL     OW 2555   2.128   1.959   1.011
  807SOL    HW1 2556   2.184   2.012   1.066
  807SOL    HW2 2557   2.067   1.917   1.072
  808SOL     OW 2558   0.486   3.251   2.532
  808SOL    HW1 2559   0.433   3.328   2.508
  808SOL    HW2 2560   0.540   3.234   2.455
  809SOL     OW 2561   1.144   2.739   1.836
  809SOL    HW1 2562   1.087   2.746   1.760
  809SOL    HW2 2563   1.201   2.816   1.830
  810SOL     OW 2564   0.988   3.065   1.503
  810SOL    HW1 2565   0.974   3.072   1.409
  810SOL    HW2 2566   0.962   3.150   1.538
  811SOL     OW 2567   0.399   3.261   1.287
  811SOL    HW1 2568   0.487   3.268   1.323
  811SOL    HW2 2569   0.356   3.194   1.339
  812SOL     OW 2570   0.925   3.290   1.640
  812SOL    HW1 2571   0.953   3.362   1.697
  812SOL    HW2 2572   0.835   3.271   1.669
  813SOL     OW 2573   3.328   3.674   0.440
  813SOL    HW1 2574   3.416   3.652   0.411
  813SOL    HW2 2575   3.342   3.729   0.517
  814SOL     OW 2576   0.979   1.938   2.299
  814SOL    HW1 2577   0.986   1.945   2.394
  814SOL    HW2 2578   1.062   1.899   2.271
  815SOL     OW 2579   1.249   3.241   1.593
  815SOL    HW1 2580   1.160   3.207   1.600
  815SOL    HW2 2581   1.292   3.214   1.674
  816SOL     OW 2582   2.646   1.932   3.315
  816SOL    HW1 2583   2.699   1.966   3.243
  816SOL    HW2 2584   2.670   1.839   3.321
  817SOL     OW 2585   0.785   2.950   1.816
  817SOL    HW1 2586   0.736   2.946   1.734
  817SOL    HW2 2587   0.798   2.859   1.842
  818SOL     OW 2588   1.975   2.563   2.815
  818SOL    HW1 2589   1.961   2.500   2.885
  818SOL    HW2 2590   1.898   2.553   2.759
  819SOL     OW 2591   1.009   0.309   0.958
  819SOL    HW1 2592   1.031   0.371   1.029
  819SOL    HW2 2593   0.919   0.282   0.977
  820SOL     OW 2594   0.114   2.462   0.380
  820SOL    HW1 2595   0.174   2.402   0.424
  820SOL    HW2 2596   0.028   2.420   0.389
  821SOL     OW 2597   1.873   3.434   3.077
  821SOL    HW1 2598   1.847   3.495   3.146
  821SOL    HW2 2599   1.794   3.384   3.057
  822SOL     OW 2600   0.044   3.285   3.572
  822SOL    HW1 2601   0.110   3.266   3.639
  822SOL    HW2 2602  -0.039   3.283   3.619
  823SOL     OW 2603   2.612   2.849   3.357
  823SOL    HW1 2604   2.611   2.942   3.333
  823SOL    HW2 2605   2.671   2.844   3.432
  824SOL     OW 2606   1.037   0.443   1.256
  824SOL    HW1 2607   1.013   0.519   1.203
  824SOL    HW2 2608   0.955   0.396   1.269
  825SOL     OW 2609   3.604   2.420   0.591
  825SOL    HW1 2610   3.660   2.443   0.665
  825SOL    HW2 2611   3.540   2.491   0.585
  826SOL     OW 2612   2.124   2.532   1.020
  826SOL    HW1 2613   2.029   2.537   1.028
  826SOL    HW2 2614   2.140   2.453   0.969
  827SOL     OW 2615   3.187   2.725   0.314
  827SOL    HW1 2616   3.202   2.815   0.341
  827SOL    HW2 2617   3.120   2.731   0.245
  828SOL     OW 2618   3.907   2.731   3.934
  828SOL    HW1 2619   3.895   2.735   4.029
  828SOL    HW2 2620   3.947   2.646   3.917
  829SOL     OW 2621   0.257   2.264   3.349
  829SOL    HW1 2622   0.309   2.236   3.273
  829SOL    HW2 2623   0.208   2.340   3.317
  830SOL     OW 2624   1.256   3.109   2.623
  830SOL    HW1 2625   1.249   3.018   2.594
  830SOL    HW2 2626   1.349   3.120   2.643
  831SOL     OW 2627   0.433   0.548  -0.011
  831SOL    HW1 2628   0.482   0.520   0.066
  831SOL    HW2 2629   0.341   0.537   0.014
  832SOL     OW 2630   2.871   2.776   2.770
  832SOL    HW1 2631   2.878   2.758   2.864
  832SOL    HW2 2632   2.839   2.866   2.766
  833SOL     OW 2633   2.097   1.735   3.686
  833SOL    HW1 2634   2.160   1.805   3.705
  833SOL    HW2 2635   2.022   1.755   3.742
  834SOL     OW 2636   1.970   2.183   1.218
  834SOL    HW1 2637   2.063   2.163   1.230
  834SOL    HW2 2638   1.927   2.148   1.296
  835SOL     OW 2639   2.229   0.531   2.776
  835SOL    HW1 2640   2.229   0.555   2.869
  835SOL    HW2 2641   2.157   0.580   2.738
  836SOL     OW 2642   3.581   2.308   1.555
  836SOL    HW1 2643   3.609   2.219   1.531
  836SOL    HW2 2644   3.624   2.365   1.491
  837SOL     OW 2645   3.145   2.814   3.214
  837SOL    HW1 2646   3.052   2.834   3.220
  837SOL    HW2 2647   3.187   2.900   3.201
  838SOL     OW 2648   3.991   0.104   3.574
  838SOL    HW1 2649   3.964   0.116   3.665
  838SOL    HW2 2650   3.913   0.071   3.530
  839SOL     OW 2651   0.311   1.502   0.031
  839SOL    HW1 2652   0.326   1.442   0.104
  839SOL    HW2 2653   0.371   1.574   0.046
  840SOL     OW 2654   2.718   0.488   0.321
  840SOL    HW1 2655   2.624   0.499   0.309
  840SOL    HW2 2656   2.757   0.531   0.245
  841SOL     OW 2657   0.998   0.567   0.884
  841SOL    HW1 2658   0.916   0.575   0.835
  841SOL    HW2 2659   1.026   0.476   0.869
  842SOL     OW 2660   1.020   1.082   2.065
  842SOL    HW1 2661   1.098   1.109   2.115
  842SOL    HW2 2662   0.973   1.164   2.049
  843SOL     OW 2663   0.503   3.556   2.607
  843SOL    HW1 2664   0.587   3.521   2.637
  843SOL    HW2 2665   0.490   3.635   2.660
  844SOL     OW 2666   0.023   3.218   0.517
  844SOL    HW1 2667  -0.065   3.239   0.549
  844SOL    HW2 2668   0.067   3.179   0.592
  845SOL     OW 2669   1.385   1.471   0.683
  845SOL    HW1 2670   1.302   1.451   0.640
  845SOL    HW2 2671   1.364   1.478   0.776
  846SOL     OW 2672   3.637   2.059   1.473
  846SOL    HW1 2673   3.716   2.017   1.507
  846SOL    HW2 2674   3.623   2.019   1.387
  847SOL     OW 2675   1.238   3.801   3.318
  847SOL    HW1 2676   1.285   3.729   3.359
  847SOL    HW2 2677   1.298   3.875   3.321
  848SOL     OW 2678   2.227   3.081   0.189
  848SOL    HW1 2679   2.210   3.096   0.282
  848SOL    HW2 2680   2.315   3.045   0.187
  849SOL     OW 2681   2.196   2.750   0.399
  849SOL    HW1 2682   2.105   2.742   0.427
  849SOL    HW2 2683   2.197   2.824   0.340
  850SOL     OW 2684   1.023   0.014   0.378
  850SOL    HW1 2685   0.991   0.104   0.371
  850SOL    HW2 2686   1.051   0.006   0.469
  851SOL     OW 2687   1.843   0.352   3.526
  851SOL    HW1 2688   1.836   0.412   3.452
  851SOL    HW2 2689   1.888   0.275   3.490
  852SOL     OW 2690   3.349   2.739   1.430
  852SOL    HW1 2691   3.353   2.777   1.518
  852SOL    HW2 2692   3.332   2.646   1.444
  853SOL     OW 2693   2.004   1.336   1.031
  853SOL    HW1 2694   1.935   1.273   1.011
  853SOL    HW2 2695   1.958   1.420   1.038
  854SOL     OW 2696   1.659   0.590   0.696
  854SOL    HW1 2697   1.713   0.581   0.617
  854SOL    HW2 2698   1.579   0.541   0.675
  855SOL     OW 2699   2.497   3.365   1.342
  855SOL    HW1 2700   2.589   3.347   1.322
  855SOL    HW2 2701   2.450   3.285   1.316
  856SOL     OW 2702   3.787   1.924   1.673
  856SOL    HW1 2703   3.709   1.879   1.640
  856SOL    HW2 2704   3.797   1.890   1.762
  857SOL     OW 2705   1.931   1.356   0.605
  857SOL    HW1 2706   1.846   1.321   0.631
  857SOL    HW2 2707   1.958   1.301   0.531
  858SOL     OW 2708   0.006   1.567   0.413
  858SOL    HW1 2709   0.073   1.596   0.351
  858SOL    HW2 2710   0.024   1.616   0.493
  859SOL     OW 2711   2.927   0.758   0.380
  859SOL    HW1 2712   3.003   0.811   0.354
  859SOL    HW2 2713   2.853   0.818   0.377
  860SOL     OW 2714   3.277   0.678   3.776
  860SOL    HW1 2715   3.187   0.648   3.785
  860SOL    HW2 2716   3.318   0.614   3.717
  861SOL     OW 2717   3.600   2.643   3.443
  861SOL    HW1 2718   3.690   2.610   3.447
  861SOL    HW2 2719   3.549   2.570   3.408
  862SOL     OW 2720   2.470   2.433   2.215
  862SOL    HW1 2721   2.467   2.511   2.159
  862SOL    HW2 2722   2.419   2.367   2.169
  863SOL     OW 2723   1.788   2.202   2.033
  863SOL    HW1 2724   1.720   2.253   1.988
  863SOL    HW2 2725   1.740   2.137   2.084
  864SOL     OW 2726   3.006   3.392   3.469
  864SOL    HW1 2727   3.033   3.483   3.465
  864SOL    HW2 2728   3.039   3.360   3.553
  865SOL     OW 2729   3.297   0.523   1.712
  865SOL    HW1 2730   3.300   0.503   1.805
  865SOL    HW2 2731   3.242   0.454   1.674
  866SOL     OW 2732   1.446   1.639   2.053
  866SOL    HW1 2733   1.442   1.702   2.125
  866SOL    HW2 2734   1.537   1.611   2.050
  867SOL     OW 2735   3.159   3.172   0.000
  867SOL    HW1 2736   3.158   3.077  -0.014
  867SOL    HW2 2737   3.117   3.184   0.085
  868SOL     OW 2738   2.909   0.437   3.465
  868SOL    HW1 2739   2.984   0.405   3.514
  868SOL    HW2 2740   2.910   0.532   3.478
  869SOL     OW 2741   2.382   2.215   0.675
  869SOL    HW1 2742   2.353   2.127   0.701
  869SOL    HW2 2743   2.459   2.232   0.730
  870SOL     OW 2744   2.139   0.299   2.634
  870SOL    HW1 2745   2.045   0.318   2.632
  870SOL    HW2 2746   2.175   0.367   2.692
  871SOL     OW 2747   2.887   2.252   1.194
  871SOL    HW1 2748   2.866   2.208   1.112
  871SOL    HW2 2749   2.835   2.333   1.192
  872SOL     OW 2750   3.825   2.964   0.472
  872SOL    HW1 2751   3.819   3.039   0.413
  872SOL    HW2 2752   3.833   2.888   0.414
  873SOL     OW 2753   1.937   3.044   1.138
  873SOL    HW1 2754   1.874   3.100   1.093
  873SOL    HW2 2755   1.966   3.096   1.213
  874SOL     OW 2756   1.426   2.435   1.281
  874SOL    HW1 2757   1.513   2.433   1.241
  874SOL    HW2 2758   1.414   2.347   1.317
  875SOL     OW 2759   1.429   2.179   1.397
  875SOL    HW1 2760   1.381   2.096   1.398
  875SOL    HW2 2761   1.521   2.153   1.390
  876SOL     OW 2762   2.049   2.930   3.742
  876SOL    HW1 2763   2.048   2.891   3.830
  876SOL    HW2 2764   2.142   2.951   3.727
  877SOL     OW 2765   3.291   0.605   1.293
  877SOL    HW1 2766   3.313   0.560   1.212
  877SOL    HW2 2767   3.249   0.538   1.347
  878SOL     OW 2768   1.613   2.974   3.840
  878SOL    HW1 2769   1.631   3.015   3.924
  878SOL    HW2 2770   1.579   3.045   3.786
  879SOL     OW 2771   0.000   2.324   0.876
  879SOL    HW1 2772   0.022   2.272   0.953
  879SOL    HW2 2773   0.063   2.297   0.809
  880SOL     OW 2774   0.682   2.097   3.432
  880SOL    HW1 2775   0.767   2.124   3.398
  880SOL    HW2 2776   0.644   2.177   3.469
  881SOL     OW 2777   3.442   1.546   3.554
  881SOL    HW1 2778   3.409   1.557   3.643
  881SOL    HW2 2779   3.499   1.470   3.559
  882SOL     OW 2780   1.060   2.076   2.931
  882SOL    HW1 2781   1.150   2.053   2.953
  882SOL    HW2 2782   1.067   2.120   2.846
  883SOL     OW 2783   0.247   1.563   1.845
  883SOL    HW1 2784   0.282   1.641   1.802
  883SOL    HW2 2785   0.155   1.559   1.817
  884SOL     OW 2786   2.123   1.732   0.768
  884SOL    HW1 2787   2.028   1.735   0.784
  884SOL    HW2 2788   2.147   1.823   0.751
  885SOL     OW 2789   1.929   3.544   1.671
  885SOL    HW1 2790   1.884   3.516   1.750
  885SOL    HW2 2791   1.863   3.538   1.602
  886SOL     OW 2792   1.229   0.456   2.756
  886SOL    HW1 2793   1.211   0.366   2.781
  886SOL    HW2 2794   1.179   0.509   2.818
  887SOL     OW 2795   1.721   2.139   0.671
  887SOL    HW1 2796   1.812   2.124   0.697
  887SOL    HW2 2797   1.726   2.164   0.579
  888SOL     OW 2798   2.063   1.908   3.090
  888SOL    HW1 2799   1.986   1.870   3.132
  888SOL    HW2 2800   2.133   1.897   3.154
  889SOL     OW 2801   1.368   3.405   3.428
  889SOL    HW1 2802   1.276   3.420   3.451
  889SOL    HW2 2803   1.366   3.330   3.368
  890SOL     OW 2804   0.133   1.113   0.189
  890SOL    HW1 2805   0.040   1.137   0.182
  890SOL    HW2 2806   0.144   1.042   0.126
  891SOL     OW 2807   2.700   0.211   2.943
  891SOL    HW1 2808   2.651   0.130   2.941
  891SOL    HW2 2809   2.674   0.258   2.863
  892SOL     OW 2810   0.280   2.743   2.388
  892SOL    HW1 2811   0.214   2.740   2.318
  892SOL    HW2 2812   0.316   2.654   2.390
  893SOL     OW 2813   2.333   0.875   2.394
  893SOL    HW1 2814   2.314   0.967   2.374
  893SOL    HW2 2815   2.324   0.830   2.310
  894SOL     OW 2816   0.787   2.366   2.552
  894SOL    HW1 2817   0.841   2.292   2.526
  894SOL    HW2 2818   0.766   2.351   2.644
  895SOL     OW 2819   1.742   0.829   3.164
  895SOL    HW1 2820   1.826   0.814   3.121
  895SOL    HW2 2821   1.693   0.884   3.103
  896SOL     OW 2822   2.984   0.490   0.465
  896SOL    HW1 2823   3.021   0.570   0.426
  896SOL    HW2 2824   2.936   0.450   0.393
  897SOL     OW 2825   0.402   1.888   3.230
  897SOL    HW1 2826   0.464   1.815   3.234
  897SOL    HW2 2827   0.316   1.845   3.226
  898SOL     OW 2828   3.842   0.611   2.140
  898SOL    HW1 2829   3.928   0.617   2.099
  898SOL    HW2 2830   3.819   0.701   2.162
  899SOL     OW 2831   2.145   1.504   0.609
  899SOL    HW1 2832   2.142   1.560   0.687
  899SOL    HW2 2833   2.065   1.452   0.612
  900SOL     OW 2834   3.650   1.149   0.860
  900SOL    HW1 2835   3.562   1.155   0.898
  900SOL    HW2 2836   3.664   1.235   0.820
  901SOL     OW 2837   0.447   0.189   3.950
  901SOL    HW1 2838   0.508   0.176   4.023
  901SOL    HW2 2839   0.487   0.142   3.877
  902SOL     OW 2840   0.156   0.979   3.482
  902SOL    HW1 2841   0.114   0.917   3.542
  902SOL    HW2 2842   0.107   0.971   3.400
  903SOL     OW 2843   0.983   3.005   3.070
  903SOL    HW1 2844   1.023   2.939   3.013
  903SOL    HW2 2845   0.914   3.045   3.016
  904SOL     OW 2846   1.331   0.721   0.960
  904SOL    HW1 2847   1.253   0.775   0.967
  904SOL    HW2 2848   1.357   0.727   0.868
  905SOL     OW 2849   2.949   0.819   3.250
  905SOL    HW1 2850   2.940   0.751   3.184
  905SOL    HW2 2851   2.914   0.898   3.209
  906SOL     OW 2852   2.589   0.281   0.441
  906SOL    HW1 2853   2.631   0.355   0.397
  906SOL    HW2 2854   2.614   0.291   0.533
  907SOL     OW 2855   0.084   0.510   1.893
  907SOL    HW1 2856   0.084   0.423   1.851
  907SOL    HW2 2857   0.144   0.500   1.966
  908SOL     OW 2858   1.592   2.551   3.401
  908SOL    HW1 2859   1.526   2.595   3.454
  908SOL    HW2 2860   1.552   2.543   3.314
  909SOL     OW 2861   1.928   1.479   3.866
  909SOL    HW1 2862   1.936   1.390   3.900
  909SOL    HW2 2863   1.959   1.535   3.937
  910SOL     OW 2864   1.609   1.512   1.088
  910SOL    HW1 2865   1.575   1.439   1.140
  910SOL    HW2 2866   1.703   1.513   1.107
  911SOL     OW 2867   0.996   0.350   0.420
  911SOL    HW1 2868   0.960   0.436   0.398
  911SOL    HW2 2869   0.964   0.333   0.509
  912SOL     OW 2870   3.188   1.345   2.940
  912SOL    HW1 2871   3.244   1.294   2.881
  912SOL    HW2 2872   3.099   1.327   2.909
  913SOL     OW 2873   0.795   1.824   3.353
  913SOL    HW1 2874   0.716   1.787   3.394
  913SOL    HW2 2875   0.781   1.919   3.357
  914SOL     OW 2876   1.696   2.710   3.845
  914SOL    HW1 2877   1.666   2.800   3.832
  914SOL    HW2 2878   1.710   2.703   3.939
  915SOL     OW 2879   3.500   3.644   1.950
  915SOL    HW1 2880   3.572   3.660   1.889
  915SOL    HW2 2881   3.423   3.682   1.907
  916SOL     OW 2882   0.210   3.061   3.172
  916SOL    HW1 2883   0.183   2.974   3.202
  916SOL    HW2 2884   0.129   3.112   3.170
  917SOL     OW 2885   3.516   2.353   0.920
  917SOL    HW1 2886   3.541   2.392   1.003
  917SOL    HW2 2887   3.584   2.381   0.859
  918SOL     OW 2888   3.918   3.229   1.834
  918SOL    HW1 2889   3.950   3.139   1.832
  918SOL    HW2 2890   3.823   3.220   1.843
  919SOL     OW 2891   2.245   1.004   1.912
  919SOL    HW1 2892   2.302   0.995   1.836
  919SOL    HW2 2893   2.182   1.071   1.887
  920SOL     OW 2894   2.842   3.144   1.143
  920SOL    HW1 2895   2.916   3.084   1.130
  920SOL    HW2 2896   2.785   3.130   1.067
  921SOL     OW 2897   0.802   0.312   1.248
  921SOL    HW1 2898   0.769   0.313   1.158
  921SOL    HW2 2899   0.723   0.319   1.302
  922SOL     OW 2900   2.278   2.431   3.226
  922SOL    HW1 2901   2.196   2.387   3.202
  922SOL    HW2 2902   2.334   2.419   3.150
  923SOL     OW 2903   1.427   0.760   3.959
  923SOL    HW1 2904   1.343   0.785   3.921
  923SOL    HW2 2905   1.490   0.821   3.919
  924SOL     OW 2906   1.262   2.617   0.387
  924SOL    HW1 2907   1.177   2.616   0.432
  924SOL    HW2 2908   1.242   2.651   0.300
  925SOL     OW 2909   1.466   1.318   3.097
  925SOL    HW1 2910   1.411   1.293   3.023
  925SOL    HW2 2911   1.553   1.333   3.058
  926SOL     OW 2912   2.843   2.035   1.359
  926SOL    HW1 2913   2.852   2.112   1.304
  926SOL    HW2 2914   2.906   1.972   1.325
  927SOL     OW 2915   3.021   3.028   3.639
  927SOL    HW1 2916   2.967   3.091   3.687
  927SOL    HW2 2917   2.967   2.949   3.633
  928SOL     OW 2918   1.393   2.593   1.498
  928SOL    HW1 2919   1.426   2.532   1.432
  928SOL    HW2 2920   1.352   2.663   1.449
  929SOL     OW 2921   1.968   1.076   3.543
  929SOL    HW1 2922   1.931   1.143   3.486
  929SOL    HW2 2923   1.921   1.086   3.625
  930SOL     OW 2924   2.640   1.440   1.656
  930SOL    HW1 2925   2.572   1.506   1.673
  930SOL    HW2 2926   2.598   1.378   1.597
  931SOL     OW 2927   3.518   0.106   1.546
  931SOL    HW1 2928   3.482   0.023   1.514
  931SOL    HW2 2929   3.532   0.158   1.467
  932SOL     OW 2930   2.460   2.861   2.851
  932SOL    HW1 2931   2.380   2.857   2.902
  932SOL    HW2 2932   2.463   2.951   2.817
  933SOL     OW 2933   0.735   3.412   1.080
  933SOL    HW1 2934   0.672   3.484   1.072
  933SOL    HW2 2935   0.747   3.401   1.174
  934SOL     OW 2936   0.397   2.564   1.622
  934SOL    HW1 2937   0.312   2.520   1.622
  934SOL    HW2 2938   0.413   2.586   1.530
  935SOL     OW 2939   3.376   0.710   2.870
  935SOL    HW1 2940   3.471   0.705   2.881
  935SOL    HW2 2941   3.352   0.623   2.836
  936SOL     OW 2942   0.771   2.737   1.529
  936SOL    HW1 2943   0.864   2.754   1.514
  936SOL    HW2 2944   0.748   2.669   1.465
  937SOL     OW 2945   3.735   1.601   2.782
  937SOL    HW1 2946   3.653   1.568   2.818
  937SOL    HW2 2947   3.802   1.542   2.818
  938SOL     OW 2948   1.681   3.848   3.701
  938SOL    HW1 2949   1.675   3.829   3.607
  938SOL    HW2 2950   1.678   3.944   3.706
  939SOL     OW 2951   0.307   0.557   2.822
  939SOL    HW1 2952   0.400   0.576   2.806
  939SOL    HW2 2953   0.266   0.643   2.826
  940SOL     OW 2954   3.766   3.289   0.663
  940SOL    HW1 2955   3.694   3.331   0.615
  940SOL    HW2 2956   3.724   3.254   0.742
  941SOL     OW 2957   2.762   3.225   0.116
  941SOL    HW1 2958   2.816   3.302   0.134
  941SOL    HW2 2959   2.674   3.249   0.144
  942SOL     OW 2960   1.537   0.894   2.744
  942SOL    HW1 2961   1.573   0.950   2.813
  942SOL    HW2 2962   1.503   0.817   2.790
  943SOL     OW 2963   1.308   3.174   2.198
  943SOL    HW1 2964   1.364   3.172   2.120
  943SOL    HW2 2965   1.300   3.267   2.218
  944SOL     OW 2966   1.711   1.667   0.492
  944SOL    HW1 2967   1.783   1.727   0.473
  944SOL    HW2 2968   1.640   1.696   0.435
  945SOL     OW 2969   2.124   0.719   0.734
  945SOL    HW1 2970   2.192   0.753   0.677
  945SOL    HW2 2971   2.160   0.639   0.771
  946SOL     OW 2972   2.885   0.715   3.528
  946SOL    HW1 2973   2.805   0.766   3.531
  946SOL    HW2 2974   2.927   0.741   3.446
  947SOL     OW 2975   2.767   0.066   0.476
  947SOL    HW1 2976   2.722   0.148   0.456
  947SOL    HW2 2977   2.781   0.023   0.392
  948SOL     OW 2978   1.468   0.202   2.293
  948SOL    HW1 2979   1.475   0.193   2.198
  948SOL    HW2 2980   1.374   0.199   2.311
  949SOL     OW 2981   1.240   3.869   2.254
  949SOL    HW1 2982   1.154   3.849   2.217
  949SOL    HW2 2983   1.224   3.876   2.348
  950SOL     OW 2984   2.448   3.759   0.235
  950SOL    HW1 2985   2.531   3.718   0.213
  950SOL    HW2 2986   2.466   3.853   0.231
  951SOL     OW 2987   0.502   0.138   3.402
  951SOL    HW1 2988   0.429   0.201   3.408
  951SOL    HW2 2989   0.487   0.078   3.475
  952SOL     OW 2990   2.528   0.691   2.848
  952SOL    HW1 2991   2.450   0.745   2.836
  952SOL    HW2 2992   2.494   0.602   2.856
  953SOL     OW 2993   1.102   2.184   0.048
  953SOL    HW1 2994   1.024   2.155   0.001
  953SOL    HW2 2995   1.073   2.258   0.101
  954SOL     OW 2996   2.575   3.859   3.575
  954SOL    HW1 2997   2.586   3.893   3.664
  954SOL    HW2 2998   2.480   3.860   3.561
  955SOL     OW 2999   0.519   2.842   3.576
  955SOL    HW1 3000   0.452   2.773   3.578
  955SOL    HW2 3001   0.471   2.922   3.554
  956SOL     OW 3002   0.313   2.281   1.405
  956SOL    HW1 3003   0.371   2.322   1.341
  956SOL    HW2 3004   0.226   2.290   1.367
  957SOL     OW 3005   3.113   3.614   0.004
  957SOL    HW1 3006   3.207   3.612   0.019
  957SOL    HW2 3007   3.084   3.697   0.042
  958SOL     OW 3008   3.934   2.197   3.185
  958SOL    HW1 3009   3.939   2.248   3.105
  958SOL    HW2 3010   3.883   2.120   3.162
  959SOL     OW 3011   1.470   2.933   2.096
  959SOL    HW1 3012   1.489   2.994   2.167
  959SOL    HW2 3013   1.493   2.847   2.131
  960SOL     OW 3014   3.726   2.476   0.806
  960SOL    HW1 3015   3.795   2.412   0.822
  960SOL    HW2 3016   3.723   2.529   0.886
  961SOL     OW 3017   1.706   1.073   0.834
  961SOL    HW1 3018   1.664   0.988   0.821
  961SOL    HW2 3019   1.783   1.071   0.778
  962SOL     OW 3020   1.545   0.264   1.767
  962SOL    HW1 3021   1.628   0.218   1.760
  962SOL    HW2 3022   1.566   0.347   1.811
  963SOL     OW 3023   1.591   1.955   2.004
  963SOL    HW1 3024   1.544   1.894   1.947
  963SOL    HW2 3025   1.542   2.037   1.995
  964SOL     OW 3026   3.651   2.505   2.068
  964SOL    HW1 3027   3.746   2.518   2.055
  964SOL    HW2 3028   3.638   2.412   2.052
  965SOL     OW 3029   2.525   3.555   1.657
  965SOL    HW1 3030   2.474   3.542   1.578
  965SOL    HW2 3031   2.576   3.635   1.640
  966SOL     OW 3032   2.661   0.728   1.336
  966SOL    HW1 3033   2.706   0.770   1.262
  966SOL    HW2 3034   2.681   0.635   1.327
  967SOL     OW 3035   1.031   1.388   2.875
  967SOL    HW1 3036   1.043   1.460   2.814
  967SOL    HW2 3037   1.042   1.427   2.962
  968SOL     OW 3038   2.419   3.050   1.960
  968SOL    HW1 3039   2.422   3.088   1.873
  968SOL    HW2 3040   2.508   3.061   1.994
  969SOL     OW 3041   1.501   3.193   3.722
  969SOL    HW1 3042   1.412   3.211   3.693
  969SOL    HW2 3043   1.541   3.280   3.730
  970SOL     OW 3044   1.973   3.272   0.175
  970SOL    HW1 3045   1.948   3.214   0.102
  970SOL    HW2 3046   2.054   3.313   0.146
  971SOL     OW 3047   0.024   1.410   0.971
  971SOL    HW1 3048   0.099   1.378   1.020
  971SOL    HW2 3049   0.002   1.339   0.911
  972SOL     OW 3050   1.883   2.472   3.785
  972SOL    HW1 3051   1.820   2.481   3.856
  972SOL    HW2 3052   1.868   2.383   3.752
  973SOL     OW 3053   3.550   3.485   0.856
  973SOL    HW1 3054   3.458   3.499   0.879
  973SOL    HW2 3055   3.599   3.514   0.932
  974SOL     OW 3056   3.748   3.637   2.158
  974SOL    HW1 3057   3.670   3.674   2.118
  974SOL    HW2 3058   3.763   3.555   2.111
  975SOL     OW 3059   1.322   3.534   0.305
  975SOL    HW1 3060   1.360   3.551   0.219
  975SOL    HW2 3061   1.234   3.571   0.301
  976SOL     OW 3062   1.365   3.076   1.057
  976SOL    HW1 3063   1.269   3.080   1.057
  976SOL    HW2 3064   1.393   3.158   1.098
  977SOL     OW 3065   2.918   3.015   1.460
  977SOL    HW1 3066   2.850   3.061   1.510
  977SOL    HW2 3067   2.971   3.084   1.422
  978SOL     OW 3068   1.710   1.665   1.357
  978SOL    HW1 3069   1.676   1.576   1.359
  978SOL    HW2 3070   1.639   1.718   1.321
  979SOL     OW 3071   3.888   1.177   3.826
  979SOL    HW1 3072   3.915   1.268   3.813
  979SOL    HW2 3073   3.967   1.126   3.812
  980SOL     OW 3074   2.776   2.511   0.280
  980SOL    HW1 3075   2.849   2.532   0.337
  980SOL    HW2 3076   2.739   2.430   0.316
  981SOL     OW 3077   0.146   1.764   3.264
  981SOL    HW1 3078   0.100   1.806   3.337
  981SOL    HW2 3079   0.083   1.767   3.192
  982SOL     OW 3080   1.568   1.789   1.141
  982SOL    HW1 3081   1.479   1.773   1.174
  982SOL    HW2 3082   1.588   1.712   1.088
  983SOL     OW 3083   1.073   1.078   0.417
  983SOL    HW1 3084   1.014   1.048   0.486
  983SOL    HW2 3085   1.121   1.000   0.391
  984SOL     OW 3086   1.873   2.558   1.781
  984SOL    HW1 3087   1.932   2.601   1.720
  984SOL    HW2 3088   1.785   2.577   1.747
  985SOL     OW 3089   2.726   0.148   2.171
  985SOL    HW1 3090   2.704   0.106   2.254
  985SOL    HW2 3091   2.648   0.135   2.116
  986SOL     OW 3092   3.713   3.586   3.633
  986SOL    HW1 3093   3.784   3.648   3.615
  986SOL    HW2 3094   3.750   3.500   3.610
  987SOL     OW 3095   0.717   0.969   2.789
  987SOL    HW1 3096   0.763   0.896   2.831
  987SOL    HW2 3097   0.665   0.928   2.720
  988SOL     OW 3098   1.159   1.075   1.534
  988SOL    HW1 3099   1.149   0.982   1.553
  988SOL    HW2 3100   1.156   1.118   1.620
  989SOL     OW 3101   2.906   2.421   1.572
  989SOL    HW1 3102   2.961   2.355   1.615
  989SOL    HW2 3103   2.937   2.422   1.481
  990SOL     OW 3104   0.369   1.185   0.064
  990SOL    HW1 3105   0.349   1.111   0.007
  990SOL    HW2 3106   0.306   1.179   0.135
  991SOL     OW 3107   3.074   3.571   2.163
  991SOL    HW1 3108   3.108   3.626   2.234
  991SOL    HW2 3109   3.104   3.483   2.185
  992SOL     OW 3110   1.437   2.250   2.165
  992SOL    HW1 3111   1.435   2.345   2.160
  992SOL    HW2 3112   1.358   2.227   2.214
  993SOL     OW 3113   3.232   3.468   0.732
  993SOL    HW1 3114   3.295   3.411   0.690
  993SOL    HW2 3115   3.147   3.429   0.713
  994SOL     OW 3116   2.631   0.354   2.427
  994SOL    HW1 3117   2.686   0.406   2.369
  994SOL    HW2 3118   2.560   0.321   2.371
  995SOL     OW 3119   1.643   1.012   1.817
  995SOL    HW1 3120   1.587   0.954   1.765
  995SOL    HW2 3121   1.724   0.963   1.829
  996SOL     OW 3122   0.089   0.068   2.585
  996SOL    HW1 3123   0.056   0.056   2.674
  996SOL    HW2 3124   0.107  -0.021   2.554
  997SOL     OW 3125   0.302   2.098   0.991
  997SOL    HW1 3126   0.391   2.084   1.025
  997SOL    HW2 3127   0.292   2.031   0.923
  998SOL     OW 3128   0.898   0.782   2.484
  998SOL    HW1 3129   0.949   0.745   2.412
  998SOL    HW2 3130   0.961   0.796   2.554
  999SOL     OW 3131   1.366   1.794   3.332
  999SOL    HW1 3132   1.287   1.834   3.368
  999SOL    HW2 3133   1.344   1.702   3.320
 1000SOL     OW 3134   2.061   3.725   3.115
 1000SOL    HW1 3135   2.036   3.679   3.195
 1000SOL    HW2 3136   2.021   3.811   3.123
 1001SOL     OW 3137   2.920   1.159   1.086
 1001SOL    HW1 3138   2.947   1.184   1.174
 1001SOL    HW2 3139   2.905   1.243   1.041
 1002SOL     OW 3140   2.125   1.196   3.170
 1002SOL    HW1 3141   2.161   1.285   3.169
 1002SOL    HW2 3142   2.040   1.205   3.213
 1003SOL     OW 3143   1.018   3.903   1.403
 1003SOL    HW1 3144   1.041   3.811   1.418
 1003SOL    HW2 3145   0.925   3.909   1.425
 1004SOL     OW 3146   2.621   0.493   3.816
 1004SOL    HW1 3147   2.638   0.404   3.847
 1004SOL    HW2 3148   2.556   0.482   3.746
 1005SOL     OW 3149   3.505   0.151   3.511
 1005SOL    HW1 3150   3.551   0.208   3.450
 1005SOL    HW2 3151   3.417   0.142   3.473
 1006SOL     OW 3152   0.683   1.462   3.699
 1006SOL    HW1 3153   0.633   1.421   3.769
 1006SOL    HW2 3154   0.625   1.461   3.623
 1007SOL     OW 3155   2.405   3.621   1.305
 1007SOL    HW1 3156   2.404   3.528   1.330
 1007SOL    HW2 3157   2.429   3.620   1.213
 1008SOL     OW 3158   3.049   2.216   3.181
 1008SOL    HW1 3159   2.960   2.247   3.167
 1008SOL    HW2 3160   3.056   2.136   3.128
 1009SOL     OW 3161   3.844   2.261   3.713
 1009SOL    HW1 3162   3.827   2.182   3.763
 1009SOL    HW2 3163   3.905   2.233   3.645
 1010SOL     OW 3164   2.855   0.499   2.712
 1010SOL    HW1 3165   2.803   0.419   2.705
 1010SOL    HW2 3166   2.829   0.552   2.637
 1011SOL     OW 3167   1.512   1.891   0.598
 1011SOL    HW1 3168   1.502   1.893   0.503
 1011SOL    HW2 3169   1.508   1.982   0.625
 1012SOL     OW 3170   1.392   3.118   2.936
 1012SOL    HW1 3171   1.399   3.039   2.991
 1012SOL    HW2 3172   1.440   3.095   2.856
 1013SOL     OW 3173   1.259   1.089   3.772
 1013SOL    HW1 3174   1.339   1.127   3.809
 1013SOL    HW2 3175   1.192   1.103   3.839
 1014SOL     OW 3176   2.282   2.207   2.177
 1014SOL    HW1 3177   2.278   2.191   2.271
 1014SOL    HW2 3178   2.193   2.190   2.146
 1015SOL     OW 3179   2.328   3.603   0.718
 1015SOL    HW1 3180   2.388   3.642   0.655
 1015SOL    HW2 3181   2.384   3.550   0.774
 1016SOL     OW 3182   0.187   3.176   2.726
 1016SOL    HW1 3183   0.121   3.172   2.795
 1016SOL    HW2 3184   0.225   3.264   2.735
 1017SOL     OW 3185   0.807   1.813   3.081
 1017SOL    HW1 3186   0.782   1.818   3.173
 1017SOL    HW2 3187   0.777   1.726   3.053
 1018SOL     OW 3188   1.638   3.726   3.174
 1018SOL    HW1 3189   1.725   3.686   3.173
 1018SOL    HW2 3190   1.578   3.654   3.189
 1019SOL     OW 3191   3.820   2.551   2.552
 1019SOL    HW1 3192   3.911   2.527   2.570
 1019SOL    HW2 3193   3.820   2.578   2.460
 1020SOL     OW 3194   2.099   3.859   3.871
 1020SOL    HW1 3195   2.016   3.837   3.914
 1020SOL    HW2 3196   2.073   3.901   3.789
 1021SOL     OW 3197   2.500   3.571   0.435
 1021SOL    HW1 3198   2.586   3.575   0.394
 1021SOL    HW2 3199   2.449   3.640   0.392
 1022SOL     OW 3200   0.130   0.820   1.354
 1022SOL    HW1 3201   0.167   0.816   1.442
 1022SOL    HW2 3202   0.207   0.823   1.296
 1023SOL     OW 3203   0.333   3.035   1.519
 1023SOL    HW1 3204   0.411   2.983   1.505
 1023SOL    HW2 3205   0.260   2.974   1.506
 1024SOL     OW 3206   2.631   0.869   3.205
 1024SOL    HW1 3207   2.642   0.871   3.300
 1024SOL    HW2 3208   2.641   0.777   3.181
 1025SOL     OW 3209   2.216   2.492   0.280
 1025SOL    HW1 3210   2.238   2.583   0.297
 1025SOL    HW2 3211   2.264   2.470   0.200
 1026SOL     OW 3212   0.197   0.700   1.635
 1026SOL    HW1 3213   0.212   0.764   1.705
 1026SOL    HW2 3214   0.115   0.657   1.659
 1027SOL     OW 3215   3.567   1.337   1.223
 1027SOL    HW1 3216   3.614   1.408   1.265
 1027SOL    HW2 3217   3.634   1.272   1.202
 1028SOL     OW 3218   2.998   2.560   0.442
 1028SOL    HW1 3219   3.072   2.597   0.393
 1028SOL    HW2 3220   3.039   2.512   0.514
 1029SOL     OW 3221   0.401   0.779   0.999
 1029SOL    HW1 3222   0.398   0.775   1.094
 1029SOL    HW2 3223   0.475   0.837   0.980
 1030SOL     OW 3224   0.797   3.475   2.721
 1030SOL    HW1 3225   0.788   3.559   2.768
 1030SOL    HW2 3226   0.837   3.416   2.785
 1031SOL     OW 3227   1.840   1.823   2.026
 1031SOL    HW1 3228   1.853   1.822   2.121
 1031SOL    HW2 3229   1.753   1.861   2.014
 1032SOL     OW 3230   3.229   2.746   2.173
 1032SOL    HW1 3231   3.309   2.772   2.219
 1032SOL    HW2 3232   3.181   2.694   2.237
 1033SOL     OW 3233   1.410   2.156   0.736
 1033SOL    HW1 3234   1.343   2.120   0.793
 1033SOL    HW2 3235   1.365   2.170   0.652
 1034SOL     OW 3236   1.479   2.462   0.143
 1034SOL    HW1 3237   1.410   2.426   0.088
 1034SOL    HW2 3238   1.433   2.496   0.220
 1035SOL     OW 3239   3.776   1.345   3.231
 1035SOL    HW1 3240   3.823   1.289   3.293
 1035SOL    HW2 3241   3.837   1.417   3.212
 1036SOL     OW 3242   3.666   0.364   0.076
 1036SOL    HW1 3243   3.681   0.316   0.157
 1036SOL    HW2 3244   3.701   0.452   0.093
 1037SOL     OW 3245   2.623   1.873   2.062
 1037SOL    HW1 3246   2.702   1.897   2.014
 1037SOL    HW2 3247   2.591   1.955   2.098
 1038SOL     OW 3248   1.723   1.319   0.900
 1038SOL    HW1 3249   1.683   1.374   0.832
 1038SOL    HW2 3250   1.702   1.230   0.874
 1039SOL     OW 3251   3.769   0.658   0.697
 1039SOL    HW1 3252   3.764   0.723   0.767
 1039SOL    HW2 3253   3.707   0.690   0.631
 1040SOL     OW 3254   2.362   2.428   1.565
 1040SOL    HW1 3255   2.336   2.362   1.629
 1040SOL    HW2 3256   2.414   2.381   1.500
 1041SOL     OW 3257   3.376   2.684   0.580
 1041SOL    HW1 3258   3.336   2.730   0.507
 1041SOL    HW2 3259   3.467   2.715   0.581
 1042SOL     OW 3260   0.342   3.458   3.452
 1042SOL    HW1 3261   0.358   3.438   3.544
 1042SOL    HW2 3262   0.256   3.499   3.450
 1043SOL     OW 3263   2.700   1.017   2.032
 1043SOL    HW1 3264   2.713   1.104   1.994
 1043SOL    HW2 3265   2.620   1.024   2.083
 1044SOL     OW 3266   0.430   2.559   0.430
 1044SOL    HW1 3267   0.443   2.606   0.347
 1044SOL    HW2 3268   0.353   2.601   0.469
 1045SOL     OW 3269   0.540   1.344   2.512
 1045SOL    HW1 3270   0.517   1.396   2.435
 1045SOL    HW2 3271   0.480   1.269   2.510
 1046SOL     OW 3272   1.438   1.891   1.799
 1046SOL    HW1 3273   1.423   1.863   1.708
 1046SOL    HW2 3274   1.386   1.970   1.809
 1047SOL     OW 3275   0.381   0.769   3.788
 1047SOL    HW1 3276   0.470   0.794   3.811
 1047SOL    HW2 3277   0.369   0.682   3.827
 1048SOL     OW 3278   1.394   1.755   2.323
 1048SOL    HW1 3279   1.314   1.763   2.272
 1048SOL    HW2 3280   1.382   1.677   2.376
 1049SOL     OW 3281   2.061   0.120   0.934
 1049SOL    HW1 3282   2.150   0.151   0.951
 1049SOL    HW2 3283   2.024   0.105   1.021
 1050SOL     OW 3284   0.847   3.703   2.889
 1050SOL    HW1 3285   0.822   3.790   2.860
 1050SOL    HW2 3286   0.907   3.718   2.962
 1051SOL     OW 3287   3.110   0.486   0.732
 1051SOL    HW1 3288   3.039   0.460   0.674
 1051SOL    HW2 3289   3.142   0.568   0.696
 1052SOL     OW 3290   1.522   3.218   0.642
 1052SOL    HW1 3291   1.428   3.223   0.625
 1052SOL    HW2 3292   1.560   3.187   0.559
 1053SOL     OW 3293   0.738   3.938   1.417
 1053SOL    HW1 3294   0.680   3.893   1.356
 1053SOL    HW2 3295   0.688   4.015   1.445
 1054SOL     OW 3296   1.311   2.903   0.610
 1054SOL    HW1 3297   1.323   2.958   0.533
 1054SOL    HW2 3298   1.373   2.831   0.598
 1055SOL     OW 3299   1.825   0.442   2.095
 1055SOL    HW1 3300   1.841   0.534   2.078
 1055SOL    HW2 3301   1.894   0.417   2.158
 1056SOL     OW 3302   1.096   2.712   3.452
 1056SOL    HW1 3303   1.174   2.736   3.502
 1056SOL    HW2 3304   1.058   2.795   3.424
 1057SOL     OW 3305   2.313   3.722   2.892
 1057SOL    HW1 3306   2.404   3.695   2.877
 1057SOL    HW2 3307   2.269   3.643   2.922
 1058SOL     OW 3308   1.054   2.519   2.791
 1058SOL    HW1 3309   0.969   2.502   2.832
 1058SOL    HW2 3310   1.102   2.570   2.856
 1059SOL     OW 3311   1.527   2.795   1.685
 1059SOL    HW1 3312   1.469   2.865   1.655
 1059SOL    HW2 3313   1.487   2.715   1.651
 1060SOL     OW 3314   0.845   1.200   2.671
 1060SOL    HW1 3315   0.883   1.239   2.749
 1060SOL    HW2 3316   0.785   1.133   2.704
 1061SOL     OW 3317   2.652   3.611   0.178
 1061SOL    HW1 3318   2.566   3.578   0.152
 1061SOL    HW2 3319   2.707   3.600   0.101
 1062SOL     OW 3320   2.388   1.596   1.155
 1062SOL    HW1 3321   2.321   1.607   1.087
 1062SOL    HW2 3322   2.349   1.535   1.217
 1063SOL     OW 3323   2.928   1.223   3.082
 1063SOL    HW1 3324   2.953   1.219   3.175
 1063SOL    HW2 3325   2.938   1.134   3.050
 1064SOL     OW 3326   1.347   1.404   0.262
 1064SOL    HW1 3327   1.435   1.422   0.294
 1064SOL    HW2 3328   1.310   1.490   0.242
 1065SOL     OW 3329   3.275   3.916   3.499
 1065SOL    HW1 3330   3.273   3.825   3.532
 1065SOL    HW2 3331   3.204   3.959   3.546
 1066SOL     OW 3332   3.500   1.270   0.187
 1066SOL    HW1 3333   3.439   1.341   0.168
 1066SOL    HW2 3334   3.523   1.282   0.279
 1067SOL     OW 3335   3.430   3.198  -0.018
 1067SOL    HW1 3336   3.449   3.160   0.068
 1067SOL    HW2 3337   3.335   3.201  -0.023
 1068SOL     OW 3338   2.142   1.673   1.580
 1068SOL    HW1 3339   2.153   1.655   1.673
 1068SOL    HW2 3340   2.055   1.638   1.560
 1069SOL     OW 3341   2.593   1.556   0.915
 1069SOL    HW1 3342   2.556   1.562   1.003
 1069SOL    HW2 3343   2.519   1.530   0.860
 1070SOL     OW 3344   2.409   2.052   3.312
 1070SOL    HW1 3345   2.348   1.979   3.314
 1070SOL    HW2 3346   2.496   2.011   3.308
 1071SOL     OW 3347   2.675   0.857   0.212
 1071SOL    HW1 3348   2.752   0.900   0.175
 1071SOL    HW2 3349   2.635   0.810   0.138
 1072SOL     OW 3350   0.976   3.344   3.858
 1072SOL    HW1 3351   0.984   3.429   3.815
 1072SOL    HW2 3352   0.882   3.332   3.869
 1073SOL     OW 3353   3.676   2.089   2.644
 1073SOL    HW1 3354   3.671   2.008   2.695
 1073SOL    HW2 3355   3.592   2.132   2.658
 1074SOL     OW 3356   3.080   3.360   3.741
 1074SOL    HW1 3357   3.056   3.436   3.794
 1074SOL    HW2 3358   3.102   3.292   3.804
 1075SOL     OW 3359   1.948   3.415   2.213
 1075SOL    HW1 3360   1.873   3.357   2.222
 1075SOL    HW2 3361   1.919   3.484   2.153
 1076SOL     OW 3362   1.300   2.116   1.809
 1076SOL    HW1 3363   1.205   2.125   1.825
 1076SOL    HW2 3364   1.318   2.180   1.740
 1077SOL     OW 3365   2.937   1.865   0.120
 1077SOL    HW1 3366   2.886   1.862   0.201
 1077SOL    HW2 3367   3.022   1.901   0.146
 1078SOL     OW 3368   1.280   0.045   1.396
 1078SOL    HW1 3369   1.190   0.029   1.423
 1078SOL    HW2 3370   1.282   0.137   1.370
 1079SOL     OW 3371   3.246   2.483   1.447
 1079SOL    HW1 3372   3.312   2.460   1.513
 1079SOL    HW2 3373   3.174   2.423   1.465
 1080SOL     OW 3374   2.055   3.516   1.129
 1080SOL    HW1 3375   2.131   3.507   1.186
 1080SOL    HW2 3376   2.001   3.584   1.170
 1081SOL     OW 3377   1.463   3.934   3.281
 1081SOL    HW1 3378   1.509   4.018   3.273
 1081SOL    HW2 3379   1.520   3.871   3.238
 1082SOL     OW 3380   2.835   2.158   0.066
 1082SOL    HW1 3381   2.858   2.071   0.034
 1082SOL    HW2 3382   2.919   2.199   0.086
 1083SOL     OW 3383   3.539   0.753   1.028
 1083SOL    HW1 3384   3.507   0.809   1.099
 1083SOL    HW2 3385   3.475   0.683   1.021
 1084SOL     OW 3386   2.727   1.302   1.859
 1084SOL    HW1 3387   2.795   1.239   1.834
 1084SOL    HW2 3388   2.724   1.363   1.785
 1085SOL     OW 3389   1.922   1.508   3.580
 1085SOL    HW1 3390   2.011   1.499   3.616
 1085SOL    HW2 3391   1.865   1.503   3.656
 1086SOL     OW 3392   2.277   3.798   1.503
 1086SOL    HW1 3393   2.352   3.829   1.554
 1086SOL    HW2 3394   2.311   3.724   1.454
 1087SOL     OW 3395   1.519   3.916   1.959
 1087SOL    HW1 3396   1.547   3.878   2.042
 1087SOL    HW2 3397   1.451   3.856   1.926
 1088SOL     OW 3398   0.123   0.274   1.750
 1088SOL    HW1 3399   0.190   0.216   1.786
 1088SOL    HW2 3400   0.150   0.289   1.659
 1089SOL     OW 3401   0.801   1.797   2.740
 1089SOL    HW1 3402   0.808   1.889   2.716
 1089SOL    HW2 3403   0.753   1.757   2.667
 1090SOL     OW 3404   2.787   3.438   2.527
 1090SOL    HW1 3405   2.727   3.512   2.518
 1090SOL    HW2 3406   2.868   3.467   2.485
 1091SOL     OW 3407   1.891   1.334   1.290
 1091SOL    HW1 3408   1.884   1.352   1.196
 1091SOL    HW2 3409   1.831   1.260   1.305
 1092SOL     OW 3410   2.702   3.718   2.827
 1092SOL    HW1 3411   2.639   3.660   2.784
 1092SOL    HW2 3412   2.737   3.772   2.756
 1093SOL     OW 3413   3.364   0.912   2.668
 1093SOL    HW1 3414   3.429   0.899   2.599
 1093SOL    HW2 3415   3.382   0.842   2.731
 1094SOL     OW 3416   0.034   2.193   3.478
 1094SOL    HW1 3417   0.122   2.225   3.458
 1094SOL    HW2 3418  -0.021   2.230   3.408
 1095SOL     OW 3419   0.872   3.351   2.422
 1095SOL    HW1 3420   0.964   3.367   2.400
 1095SOL    HW2 3421   0.873   3.333   2.516
 1096SOL     OW 3422   3.227   0.452   1.954
 1096SOL    HW1 3423   3.134   0.431   1.944
 1096SOL    HW2 3424   3.228   0.524   2.016
 1097SOL     OW 3425   1.452   3.549   0.551
 1097SOL    HW1 3426   1.401   3.575   0.475
 1097SOL    HW2 3427   1.411   3.468   0.582
 1098SOL     OW 3428   3.403   0.338   3.900
 1098SOL    HW1 3429   3.482   0.338   3.954
 1098SOL    HW2 3430   3.415   0.410   3.839
 1099SOL     OW 3431   3.443   2.669   0.251
 1099SOL    HW1 3432   3.347   2.675   0.254
 1099SOL    HW2 3433   3.461   2.577   0.268
 1100SOL     OW 3434   1.467   3.329   1.125
 1100SOL    HW1 3435   1.493   3.384   1.052
 1100SOL    HW2 3436   1.537   3.339   1.189
 1101SOL     OW 3437   3.269   3.263   3.411
 1101SOL    HW1 3438   3.313   3.264   3.496
 1101SOL    HW2 3439   3.185   3.306   3.426
 1102SOL     OW 3440   0.744   3.091   2.071
 1102SOL    HW1 3441   0.776   3.050   1.991
 1102SOL    HW2 3442   0.792   3.047   2.142
 1103SOL     OW 3443   0.803   2.807   3.210
 1103SOL    HW1 3444   0.839   2.855   3.136
 1103SOL    HW2 3445   0.869   2.740   3.229
 1104SOL     OW 3446   3.305   2.200   2.115
 1104SOL    HW1 3447   3.242   2.239   2.055
 1104SOL    HW2 3448   3.263   2.206   2.201
 1105SOL     OW 3449   2.303   2.582   3.441
 1105SOL    HW1 3450   2.295   2.518   3.371
 1105SOL    HW2 3451   2.223   2.570   3.493
 1106SOL     OW 3452   2.753   3.028   0.528
 1106SOL    HW1 3453   2.681   3.011   0.589
 1106SOL    HW2 3454   2.830   3.041   0.584
 1107SOL     OW 3455   2.495   1.099   3.526
 1107SOL    HW1 3456   2.543   1.158   3.468
 1107SOL    HW2 3457   2.410   1.088   3.483
 1108SOL     OW 3458   3.935   0.293   1.325
 1108SOL    HW1 3459   3.937   0.387   1.310
 1108SOL    HW2 3460   4.002   0.278   1.392
 1109SOL     OW 3461   3.228   3.018   2.875
 1109SOL    HW1 3462   3.216   3.112   2.860
 1109SOL    HW2 3463   3.272   3.013   2.960
 1110SOL     OW 3464   2.069   2.525   2.385
 1110SOL    HW1 3465   2.113   2.455   2.337
 1110SOL    HW2 3466   1.976   2.510   2.369
 1111SOL     OW 3467   2.332   0.435   3.658
 1111SOL    HW1 3468   2.254   0.467   3.703
 1111SOL    HW2 3469   2.361   0.361   3.710
 1112SOL     OW 3470   1.735   1.553   2.006
 1112SOL    HW1 3471   1.794   1.501   2.060
 1112SOL    HW2 3472   1.776   1.639   2.002
 1113SOL     OW 3473   1.659   1.115   0.145
 1113SOL    HW1 3474   1.691   1.093   0.233
 1113SOL    HW2 3475   1.603   1.042   0.121
 1114SOL     OW 3476   0.532   2.703   0.664
 1114SOL    HW1 3477   0.495   2.647   0.596
 1114SOL    HW2 3478   0.609   2.657   0.695
 1115SOL     OW 3479   0.841   2.337   3.451
 1115SOL    HW1 3480   0.818   2.429   3.441
 1115SOL    HW2 3481   0.933   2.332   3.425
 1116SOL     OW 3482   3.265   1.715   2.771
 1116SOL    HW1 3483   3.176   1.750   2.761
 1116SOL    HW2 3484   3.318   1.792   2.793
 1117SOL     OW 3485   0.358   1.770   2.483
 1117SOL    HW1 3486   0.265   1.750   2.493
 1117SOL    HW2 3487   0.396   1.747   2.568
 1118SOL     OW 3488   2.952   3.090   2.330
 1118SOL    HW1 3489   3.007   3.027   2.282
 1118SOL    HW2 3490   2.990   3.175   2.309
 1119SOL     OW 3491   3.949   0.999   2.300
 1119SOL    HW1 3492   3.966   1.087   2.266
 1119SOL    HW2 3493   3.960   1.007   2.394
 1120SOL     OW 3494   2.285   0.037   3.564
 1120SOL    HW1 3495   2.194   0.007   3.566
 1120SOL    HW2 3496   2.304   0.049   3.471
 1121SOL     OW 3497   3.816   2.650   2.282
 1121SOL    HW1 3498   3.736   2.598   2.275
 1121SOL    HW2 3499   3.793   2.734   2.241
 1122SOL     OW 3500   0.897   0.233   3.514
 1122SOL    HW1 3501   0.954   0.163   3.482
 1122SOL    HW2 3502   0.834   0.247   3.444
 1123SOL     OW 3503   1.872   0.048   3.155
 1123SOL    HW1 3504   1.780   0.053   3.180
 1123SOL    HW2 3505   1.878   0.097   3.073
 1124SOL     OW 3506   1.891   1.574   1.128
 1124SOL    HW1 3507   1.961   1.607   1.186
 1124SOL    HW2 3508   1.872   1.647   1.069
 1125SOL     OW 3509   1.643   0.138   3.629
 1125SOL    HW1 3510   1.561   0.188   3.629
 1125SOL    HW2 3511   1.711   0.204   3.613
 1126SOL     OW 3512   1.608   0.878   0.638
 1126SOL    HW1 3513   1.624   0.806   0.699
 1126SOL    HW2 3514   1.521   0.861   0.603
 1127SOL     OW 3515   2.527   2.051   1.207
 1127SOL    HW1 3516   2.600   2.109   1.231
 1127SOL    HW2 3517   2.569   1.976   1.166
 1128SOL     OW 3518   2.805   0.837   1.111
 1128SOL    HW1 3519   2.810   0.927   1.077
 1128SOL    HW2 3520   2.895   0.805   1.105
 1129SOL     OW 3521   3.855   0.422   0.579
 1129SOL    HW1 3522   3.875   0.442   0.488
 1129SOL    HW2 3523   3.805   0.498   0.610
 1130SOL     OW 3524   1.395   1.814   3.002
 1130SOL    HW1 3525   1.418   1.841   3.090
 1130SOL    HW2 3526   1.306   1.779   3.009
 1131SOL     OW 3527   1.232   3.858   0.221
 1131SOL    HW1 3528   1.310   3.879   0.273
 1131SOL    HW2 3529   1.159   3.886   0.277
 1132SOL     OW 3530   1.989   2.869   0.924
 1132SOL    HW1 3531   1.920   2.916   0.877
 1132SOL    HW2 3532   2.003   2.919   1.004
 1133SOL     OW 3533   3.175   2.900   3.914
 1133SOL    HW1 3534   3.102   2.875   3.971
 1133SOL    HW2 3535   3.161   2.850   3.834
 1134SOL     OW 3536   0.439   0.293   2.313
 1134SOL    HW1 3537   0.471   0.205   2.332
 1134SOL    HW2 3538   0.344   0.287   2.320
 1135SOL     OW 3539   3.002   0.513   1.497
 1135SOL    HW1 3540   3.009   0.608   1.504
 1135SOL    HW2 3541   2.939   0.499   1.427
 1136SOL     OW 3542   1.168   0.803   3.299
 1136SOL    HW1 3543   1.248   0.765   3.335
 1136SOL    HW2 3544   1.099   0.740   3.320
 1137SOL     OW 3545   0.166   0.294   0.654
 1137SOL    HW1 3546   0.226   0.362   0.684
 1137SOL    HW2 3547   0.078   0.330   0.670
 1138SOL     OW 3548   1.211   1.264   3.240
 1138SOL    HW1 3549   1.222   1.283   3.333
 1138SOL    HW2 3550   1.291   1.296   3.198
 1139SOL     OW 3551   0.559   0.143   2.685
 1139SOL    HW1 3552   0.568   0.219   2.628
 1139SOL    HW2 3553   0.551   0.180   2.773
 1140SOL     OW 3554   2.390   0.757   1.483
 1140SOL    HW1 3555   2.394   0.664   1.459
 1140SOL    HW2 3556   2.469   0.795   1.446
 1141SOL     OW 3557   3.012   2.249   2.541
 1141SOL    HW1 3558   2.984   2.276   2.454
 1141SOL    HW2 3559   2.958   2.300   2.601
 1142SOL     OW 3560   2.573   0.838   0.503
 1142SOL    HW1 3561   2.616   0.754   0.522
 1142SOL    HW2 3562   2.632   0.882   0.441
 1143SOL     OW 3563   0.514   2.484   2.851
 1143SOL    HW1 3564   0.521   2.579   2.856
 1143SOL    HW2 3565   0.424   2.468   2.822
 1144SOL     OW 3566   0.203   3.869   0.158
 1144SOL    HW1 3567   0.284   3.867   0.207
 1144SOL    HW2 3568   0.205   3.789   0.105
 1145SOL     OW 3569   2.008   2.978   3.210
 1145SOL    HW1 3570   2.061   2.902   3.186
 1145SOL    HW2 3571   1.940   2.942   3.267
 1146SOL     OW 3572   3.651   2.719   0.584
 1146SOL    HW1 3573   3.687   2.729   0.671
 1146SOL    HW2 3574   3.701   2.781   0.530
 1147SOL     OW 3575   2.378   3.968   1.819
 1147SOL    HW1 3576   2.367   3.873   1.814
 1147SOL    HW2 3577   2.331   3.994   1.898
 1148SOL     OW 3578   1.642   0.760   2.340
 1148SOL    HW1 3579   1.643   0.841   2.391
 1148SOL    HW2 3580   1.725   0.717   2.362
 1149SOL     OW 3581   2.429   1.429   0.578
 1149SOL    HW1 3582   2.409   1.520   0.599
 1149SOL    HW2 3583   2.422   1.382   0.661
 1150SOL     OW 3584   1.477   1.543   1.795
 1150SOL    HW1 3585   1.471   1.562   1.889
 1150SOL    HW2 3586   1.463   1.628   1.753
 1151SOL     OW 3587   0.165   3.478   2.826
 1151SOL    HW1 3588   0.076   3.452   2.850
 1151SOL    HW2 3589   0.165   3.573   2.834
 1152SOL     OW 3590   1.700   1.020   2.941
 1152SOL    HW1 3591   1.714   1.109   2.908
 1152SOL    HW2 3592   1.788   0.983   2.949
 1153SOL     OW 3593   3.520   0.952   1.589
 1153SOL    HW1 3594   3.507   0.945   1.684
 1153SOL    HW2 3595   3.475   0.876   1.552
 1154SOL     OW 3596   0.883   2.561   2.981
 1154SOL    HW1 3597   0.815   2.500   3.009
 1154SOL    HW2 3598   0.930   2.583   3.060
 1155SOL     OW 3599   0.120   2.355   1.853
 1155SOL    HW1 3600   0.201   2.366   1.902
 1155SOL    HW2 3601   0.133   2.407   1.773
 1156SOL     OW 3602   1.578   3.727   0.988
 1156SOL    HW1 3603   1.655   3.677   1.014
 1156SOL    HW2 3604   1.520   3.663   0.947
 1157SOL     OW 3605   3.780   2.852   2.823
 1157SOL    HW1 3606   3.701   2.865   2.771
 1157SOL    HW2 3607   3.777   2.760   2.848
 1158SOL     OW 3608   1.748   1.086   1.343
 1158SOL    HW1 3609   1.709   1.107   1.428
 1158SOL    HW2 3610   1.704   1.005   1.317
 1159SOL     OW 3611   2.279   3.426   0.408
 1159SOL    HW1 3612   2.260   3.387   0.493
 1159SOL    HW2 3613   2.359   3.477   0.423
 1160SOL     OW 3614   1.641   2.405   0.804
 1160SOL    HW1 3615   1.664   2.488   0.846
 1160SOL    HW2 3616   1.555   2.421   0.765
 1161SOL     OW 3617   0.102   1.541   2.295
 1161SOL    HW1 3618   0.150   1.513   2.217
 1161SOL    HW2 3619   0.024   1.584   2.260
 1162SOL     OW 3620   0.427   3.687   2.950
 1162SOL    HW1 3621   0.415   3.592   2.948
 1162SOL    HW2 3622   0.410   3.711   3.041
 1163SOL     OW 3623   3.906   2.880   3.573
 1163SOL    HW1 3624   3.933   2.798   3.532
 1163SOL    HW2 3625   3.850   2.853   3.646
 1164SOL     OW 3626   0.593   0.081   2.392
 1164SOL    HW1 3627   0.666   0.033   2.353
 1164SOL    HW2 3628   0.634   0.156   2.435
 1165SOL     OW 3629   2.465   3.193   3.547
 1165SOL    HW1 3630   2.396   3.186   3.482
 1165SOL    HW2 3631   2.546   3.174   3.499
 1166SOL     OW 3632   2.609   3.358   1.825
 1166SOL    HW1 3633   2.693   3.331   1.788
 1166SOL    HW2 3634   2.586   3.438   1.779
 1167SOL     OW 3635   0.122   2.939   2.095
 1167SOL    HW1 3636   0.199   2.920   2.147
 1167SOL    HW2 3637   0.072   3.001   2.149
 1168SOL     OW 3638   1.764   1.255   1.969
 1168SOL    HW1 3639   1.700   1.195   1.931
 1168SOL    HW2 3640   1.769   1.229   2.061
 1169SOL     OW 3641   2.616   1.780   1.761
 1169SOL    HW1 3642   2.533   1.795   1.806
 1169SOL    HW2 3643   2.627   1.857   1.705
 1170SOL     OW 3644   2.024   2.863   1.763
 1170SOL    HW1 3645   1.934   2.867   1.730
 1170SOL    HW2 3646   2.078   2.860   1.685
 1171SOL     OW 3647   2.433   2.358   2.990
 1171SOL    HW1 3648   2.378   2.388   2.918
 1171SOL    HW2 3649   2.462   2.270   2.964
 1172SOL     OW 3650   3.802   1.782   1.889
 1172SOL    HW1 3651   3.734   1.817   1.947
 1172SOL    HW2 3652   3.789   1.687   1.893
 1173SOL     OW 3653   0.148   2.519   3.338
 1173SOL    HW1 3654   0.158   2.523   3.243
 1173SOL    HW2 3655   0.225   2.563   3.373
 1174SOL     OW 3656   1.904   2.502   0.636
 1174SOL    HW1 3657   1.986   2.477   0.594
 1174SOL    HW2 3658   1.904   2.455   0.719
 1175SOL     OW 3659   1.814   1.181   0.441
 1175SOL    HW1 3660   1.868   1.150   0.368
 1175SOL    HW2 3661   1.838   1.125   0.515
 1176SOL     OW 3662   1.852   3.388   1.347
 1176SOL    HW1 3663   1.941   3.359   1.325
 1176SOL    HW2 3664   1.849   3.479   1.320
 1177SOL     OW 3665   3.756   3.488   2.532
 1177SOL    HW1 3666   3.788   3.447   2.612
 1177SOL    HW2 3667   3.821   3.556   2.512
 1178SOL     OW 3668   2.855   3.882   2.636
 1178SOL    HW1 3669   2.836   3.969   2.601
 1178SOL    HW2 3670   2.947   3.867   2.613
 1179SOL     OW 3671   1.225   3.584   2.762
 1179SOL    HW1 3672   1.195   3.501   2.800
 1179SOL    HW2 3673   1.294   3.614   2.820
 1180SOL     OW 3674   0.861   0.434   1.523
 1180SOL    HW1 3675   0.827   0.405   1.438
 1180SOL    HW2 3676   0.932   0.373   1.542
 1181SOL     OW 3677   0.792   1.513   0.233
 1181SOL    HW1 3678   0.789   1.600   0.273
 1181SOL    HW2 3679   0.702   1.481   0.239
 1182SOL     OW 3680   0.806   2.920   0.893
 1182SOL    HW1 3681   0.766   2.999   0.930
 1182SOL    HW2 3682   0.766   2.848   0.942
 1183SOL     OW 3683   1.803   0.217   2.931
 1183SOL    HW1 3684   1.880   0.269   2.907
 1183SOL    HW2 3685   1.729   0.274   2.914
 1184SOL     OW 3686   2.993   0.172   0.629
 1184SOL    HW1 3687   2.915   0.176   0.572
 1184SOL    HW2 3688   3.052   0.237   0.592
 1185SOL     OW 3689   0.823   3.096   0.509
 1185SOL    HW1 3690   0.816   3.116   0.602
 1185SOL    HW2 3691   0.911   3.126   0.485
 1186SOL     OW 3692   1.765   0.124   1.725
 1186SOL    HW1 3693   1.729   0.035   1.736
 1186SOL    HW2 3694   1.800   0.125   1.636
 1187SOL     OW 3695   1.003   2.750   1.076
 1187SOL    HW1 3696   0.918   2.711   1.055
 1187SOL    HW2 3697   1.067   2.692   1.032
 1188SOL     OW 3698   0.177   1.931   1.586
 1188SOL    HW1 3699   0.112   1.996   1.561
 1188SOL    HW2 3700   0.258   1.982   1.596
 1189SOL     OW 3701   0.404   0.483   1.721
 1189SOL    HW1 3702   0.355   0.492   1.803
 1189SOL    HW2 3703   0.342   0.510   1.653
 1190SOL     OW 3704   3.922   0.462   3.452
 1190SOL    HW1 3705   3.958   0.451   3.540
 1190SOL    HW2 3706   3.974   0.403   3.398
 1191SOL     OW 3707   0.624   0.639   2.825
 1191SOL    HW1 3708   0.701   0.617   2.876
 1191SOL    HW2 3709   0.642   0.604   2.738
 1192SOL     OW 3710   0.767   2.701   1.965
 1192SOL    HW1 3711   0.766   2.607   1.945
 1192SOL    HW2 3712   0.691   2.736   1.918
 1193SOL     OW 3713   3.461   0.978   3.501
 1193SOL    HW1 3714   3.422   1.054   3.545
 1193SOL    HW2 3715   3.393   0.947   3.442
 1194SOL     OW 3716   3.819   1.760   1.300
 1194SOL    HW1 3717   3.810   1.686   1.360
 1194SOL    HW2 3718   3.729   1.784   1.278
 1195SOL     OW 3719   3.733   1.439   1.778
 1195SOL    HW1 3720   3.762   1.354   1.745
 1195SOL    HW2 3721   3.640   1.444   1.753
 1196SOL     OW 3722   0.618   2.404   3.666
 1196SOL    HW1 3723   0.584   2.493   3.678
 1196SOL    HW2 3724   0.703   2.416   3.624
 1197SOL     OW 3725   2.010   1.019   2.643
 1197SOL    HW1 3726   2.020   1.106   2.682
 1197SOL    HW2 3727   2.071   1.019   2.569
 1198SOL     OW 3728   2.072   0.321   2.927
 1198SOL    HW1 3729   2.145   0.276   2.886
 1198SOL    HW2 3730   2.108   0.358   3.007
 1199SOL     OW 3731   0.070   0.519   1.138
 1199SOL    HW1 3732   0.012   0.572   1.193
 1199SOL    HW2 3733   0.046   0.543   1.049
 1200SOL     OW 3734   2.798   3.646   0.658
 1200SOL    HW1 3735   2.741   3.588   0.709
 1200SOL    HW2 3736   2.826   3.713   0.721
 1201SOL     OW 3737   0.035   0.833   2.710
 1201SOL    HW1 3738  -0.010   0.756   2.744
 1201SOL    HW2 3739   0.113   0.842   2.765
 1202SOL     OW 3740   0.983   3.893   1.894
 1202SOL    HW1 3741   0.968   3.812   1.846
 1202SOL    HW2 3742   0.944   3.961   1.839
 1203SOL     OW 3743   2.171   0.095   2.215
 1203SOL    HW1 3744   2.136   0.114   2.128
 1203SOL    HW2 3745   2.158   0.001   2.226
 1204SOL     OW 3746   0.464   3.251   1.631
 1204SOL    HW1 3747   0.412   3.233   1.709
 1204SOL    HW2 3748   0.447   3.176   1.574
 1205SOL     OW 3749   2.975   2.763   0.115
 1205SOL    HW1 3750   2.914   2.704   0.070
 1205SOL    HW2 3751   2.919   2.823   0.164
 1206SOL     OW 3752   3.727   3.938   2.908
 1206SOL    HW1 3753   3.712   3.906   2.819
 1206SOL    HW2 3754   3.643   3.976   2.934
 1207SOL     OW 3755   1.157   2.199   3.421
 1207SOL    HW1 3756   1.249   2.220   3.407
 1207SOL    HW2 3757   1.147   2.200   3.516
 1208SOL     OW 3758   2.691   1.233   1.282
 1208SOL    HW1 3759   2.624   1.203   1.344
 1208SOL    HW2 3760   2.746   1.156   1.267
 1209SOL     OW 3761   2.987   3.334   0.711
 1209SOL    HW1 3762   2.995   3.239   0.717
 1209SOL    HW2 3763   2.893   3.350   0.699
 1210SOL     OW 3764   1.924   2.623   3.235
 1210SOL    HW1 3765   1.880   2.703   3.265
 1210SOL    HW2 3766   1.986   2.654   3.169
 1211SOL     OW 3767   0.042   1.913   0.884
 1211SOL    HW1 3768   0.078   1.995   0.919
 1211SOL    HW2 3769   0.009   1.867   0.961
 1212SOL     OW 3770   3.809   0.877   1.540
 1212SOL    HW1 3771   3.827   0.850   1.450
 1212SOL    HW2 3772   3.719   0.908   1.539
 1213SOL     OW 3773   2.511   1.799   3.620
 1213SOL    HW1 3774   2.430   1.843   3.648
 1213SOL    HW2 3775   2.581   1.855   3.652
 1214SOL     OW 3776   1.775   1.918   1.499
 1214SOL    HW1 3777   1.840   1.979   1.464
 1214SOL    HW2 3778   1.757   1.951   1.587
 1215SOL     OW 3779   3.851   3.482   2.837
 1215SOL    HW1 3780   3.816   3.551   2.893
 1215SOL    HW2 3781   3.793   3.407   2.851
 1216SOL     OW 3782   0.698   1.426   1.752
 1216SOL    HW1 3783   0.707   1.481   1.674
 1216SOL    HW2 3784   0.682   1.487   1.823
 1217SOL     OW 3785   2.984   1.181   3.342
 1217SOL    HW1 3786   2.943   1.199   3.426
 1217SOL    HW2 3787   3.076   1.207   3.353
 1218SOL     OW 3788   2.997   1.842   1.257
 1218SOL    HW1 3789   2.973   1.751   1.275
 1218SOL    HW2 3790   3.087   1.837   1.226
 1219SOL     OW 3791   0.447   0.190   1.935
 1219SOL    HW1 3792   0.416   0.277   1.960
 1219SOL    HW2 3793   0.496   0.204   1.854
 1220SOL     OW 3794   3.349   2.176   3.622
 1220SOL    HW1 3795   3.284   2.150   3.557
 1220SOL    HW2 3796   3.338   2.271   3.630
 1221SOL     OW 3797   0.737   1.814   2.431
 1221SOL    HW1 3798   0.668   1.805   2.366
 1221SOL    HW2 3799   0.814   1.841   2.381
 1222SOL     OW 3800   3.471   0.588   2.080
 1222SOL    HW1 3801   3.495   0.532   2.154
 1222SOL    HW2 3802   3.380   0.612   2.097
 1223SOL     OW 3803   2.670   2.755   1.186
 1223SOL    HW1 3804   2.575   2.766   1.178
 1223SOL    HW2 3805   2.689   2.786   1.275
 1224SOL     OW 3806   3.626   1.969   1.193
 1224SOL    HW1 3807   3.635   1.897   1.130
 1224SOL    HW2 3808   3.592   2.042   1.141
 1225SOL     OW 3809   3.048   2.814   2.459
 1225SOL    HW1 3810   2.961   2.850   2.471
 1225SOL    HW2 3811   3.079   2.794   2.548
 1226SOL     OW 3812   3.155   0.400   3.595
 1226SOL    HW1 3813   3.226   0.350   3.636
 1226SOL    HW2 3814   3.133   0.468   3.659
 1227SOL     OW 3815   1.856   1.192   3.245
 1227SOL    HW1 3816   1.829   1.126   3.181
 1227SOL    HW2 3817   1.783   1.255   3.248
 1228SOL     OW 3818   2.047   1.907   2.442
 1228SOL    HW1 3819   2.039   1.997   2.473
 1228SOL    HW2 3820   2.136   1.880   2.465
 1229SOL     OW 3821   0.209   3.871   3.773
 1229SOL    HW1 3822   0.136   3.932   3.772
 1229SOL    HW2 3823   0.203   3.828   3.858
 1230SOL     OW 3824   0.379   3.367   3.739
 1230SOL    HW1 3825   0.376   3.275   3.712
 1230SOL    HW2 3826   0.358   3.365   3.833
 1231SOL     OW 3827   3.188   3.363   2.320
 1231SOL    HW1 3828   3.126   3.394   2.387
 1231SOL    HW2 3829   3.274   3.377   2.359
 1232SOL     OW 3830   3.943   1.477   3.740
 1232SOL    HW1 3831   3.961   1.496   3.647
 1232SOL    HW2 3832   3.873   1.538   3.763
 1233SOL     OW 3833   0.285   3.310   1.051
 1233SOL    HW1 3834   0.238   3.231   1.022
 1233SOL    HW2 3835   0.339   3.280   1.124
 1234SOL     OW 3836   1.937   0.434   3.272
 1234SOL    HW1 3837   2.013   0.441   3.331
 1234SOL    HW2 3838   1.962   0.485   3.195
 1235SOL     OW 3839   0.505   2.338   2.393
 1235SOL    HW1 3840   0.595   2.327   2.424
 1235SOL    HW2 3841   0.493   2.267   2.330
 1236SOL     OW 3842   0.713   1.165   2.362
 1236SOL    HW1 3843   0.693   1.232   2.426
 1236SOL    HW2 3844   0.800   1.133   2.386
 1237SOL     OW 3845   2.500   3.880   0.840
 1237SOL    HW1 3846   2.493   3.837   0.755
 1237SOL    HW2 3847   2.593   3.900   0.850
 1238SOL     OW 3848   2.989   2.597   2.980
 1238SOL    HW1 3849   3.083   2.588   2.996
 1238SOL    HW2 3850   2.949   2.598   3.067
 1239SOL     OW 3851   3.371   3.569   2.930
 1239SOL    HW1 3852   3.429   3.510   2.977
 1239SOL    HW2 3853   3.297   3.583   2.989
 1240SOL     OW 3854   1.657   0.213   3.267
 1240SOL    HW1 3855   1.617   0.271   3.202
 1240SOL    HW2 3856   1.722   0.268   3.311
 1241SOL     OW 3857   3.242   1.383   1.712
 1241SOL    HW1 3858   3.204   1.419   1.792
 1241SOL    HW2 3859   3.234   1.288   1.723
 1242SOL     OW 3860   0.620   1.218   2.094
 1242SOL    HW1 3861   0.650   1.194   2.182
 1242SOL    HW2 3862   0.531   1.183   2.089
 1243SOL     OW 3863   1.847   1.594   0.705
 1243SOL    HW1 3864   1.782   1.641   0.654
 1243SOL    HW2 3865   1.864   1.515   0.654
 1244SOL     OW 3866   3.302   0.272   0.466
 1244SOL    HW1 3867   3.388   0.315   0.470
 1244SOL    HW2 3868   3.289   0.235   0.553
 1245SOL     OW 3869   0.103   1.673   2.522
 1245SOL    HW1 3870   0.036   1.738   2.540
 1245SOL    HW2 3871   0.070   1.625   2.446
 1246SOL     OW 3872   2.419   1.792   1.388
 1246SOL    HW1 3873   2.466   1.799   1.305
 1246SOL    HW2 3874   2.332   1.760   1.364
 1247SOL     OW 3875   0.753   2.587   3.438
 1247SOL    HW1 3876   0.679   2.606   3.380
 1247SOL    HW2 3877   0.768   2.668   3.485
 1248SOL     OW 3878   2.400   0.165   3.764
 1248SOL    HW1 3879   2.324   0.170   3.823
 1248SOL    HW2 3880   2.373   0.104   3.696
 1249SOL     OW 3881   3.608   3.146   1.851
 1249SOL    HW1 3882   3.560   3.226   1.868
 1249SOL    HW2 3883   3.560   3.102   1.782
 1250SOL     OW 3884   1.639   0.197   1.177
 1250SOL    HW1 3885   1.582   0.128   1.143
 1250SOL    HW2 3886   1.651   0.257   1.103
 1251SOL     OW 3887   2.963   0.972   0.856
 1251SOL    HW1 3888   2.879   0.938   0.825
 1251SOL    HW2 3889   2.940   1.047   0.910
 1252SOL     OW 3890   2.433   2.653   0.778
 1252SOL    HW1 3891   2.432   2.701   0.696
 1252SOL    HW2 3892   2.353   2.681   0.824
 1253SOL     OW 3893   2.206   0.496   2.022
 1253SOL    HW1 3894   2.268   0.465   2.088
 1253SOL    HW2 3895   2.121   0.491   2.065
 1254SOL     OW 3896   3.903   2.185   1.644
 1254SOL    HW1 3897   3.874   2.098   1.668
 1254SOL    HW2 3898   3.845   2.244   1.691
 1255SOL     OW 3899   2.849   0.049   1.666
 1255SOL    HW1 3900   2.795   0.127   1.651
 1255SOL    HW2 3901   2.916   0.077   1.729
 1256SOL     OW 3902   0.801   2.081   2.156
 1256SOL    HW1 3903   0.835   2.084   2.066
 1256SOL    HW2 3904   0.872   2.040   2.207
 1257SOL     OW 3905   1.375   2.400   0.490
 1257SOL    HW1 3906   1.470   2.416   0.492
 1257SOL    HW2 3907   1.338   2.482   0.457
 1258SOL     OW 3908   3.479   3.187   1.403
 1258SOL    HW1 3909   3.441   3.120   1.346
 1258SOL    HW2 3910   3.410   3.252   1.413
 1259SOL     OW 3911   3.051   2.251   1.714
 1259SOL    HW1 3912   3.002   2.255   1.796
 1259SOL    HW2 3913   3.139   2.278   1.738
 1260SOL     OW 3914   1.875   3.677   1.226
 1260SOL    HW1 3915   1.807   3.683   1.159
 1260SOL    HW2 3916   1.852   3.745   1.289
 1261SOL     OW 3917   0.161   1.979   2.828
 1261SOL    HW1 3918   0.156   1.884   2.818
 1261SOL    HW2 3919   0.187   1.992   2.920
 1262SOL     OW 3920   2.150   2.743   3.106
 1262SOL    HW1 3921   2.230   2.715   3.152
 1262SOL    HW2 3922   2.178   2.754   3.015
 1263SOL     OW 3923   1.232   2.781   3.115
 1263SOL    HW1 3924   1.240   2.848   3.182
 1263SOL    HW2 3925   1.231   2.830   3.032
 1264SOL     OW 3926   1.475   0.518   3.080
 1264SOL    HW1 3927   1.541   0.574   3.119
 1264SOL    HW2 3928   1.525   0.451   3.033
 1265SOL     OW 3929   3.261   2.620   3.041
 1265SOL    HW1 3930   3.275   2.557   3.112
 1265SOL    HW2 3931   3.217   2.694   3.083
 1266SOL     OW 3932   0.347   2.300   0.385
 1266SOL    HW1 3933   0.345   2.297   0.289
 1266SOL    HW2 3934   0.400   2.377   0.406
 1267SOL     OW 3935   0.626   1.172   2.930
 1267SOL    HW1 3936   0.679   1.168   3.009
 1267SOL    HW2 3937   0.650   1.093   2.881
 1268SOL     OW 3938   2.892   3.939   3.284
 1268SOL    HW1 3939   2.823   3.989   3.328
 1268SOL    HW2 3940   2.845   3.872   3.235
 1269SOL     OW 3941   3.274   3.714   3.706
 1269SOL    HW1 3942   3.327   3.652   3.755
 1269SOL    HW2 3943   3.314   3.799   3.725
 1270SOL     OW 3944   3.218   1.681   3.401
 1270SOL    HW1 3945   3.170   1.604   3.374
 1270SOL    HW2 3946   3.250   1.660   3.489
 1271SOL     OW 3947   0.558   1.331   0.215
 1271SOL    HW1 3948   0.472   1.366   0.236
 1271SOL    HW2 3949   0.565   1.340   0.120
 1272SOL     OW 3950   2.403   2.419   1.138
 1272SOL    HW1 3951   2.339   2.480   1.176
 1272SOL    HW2 3952   2.477   2.421   1.198
 1273SOL     OW 3953   3.388   3.475   3.563
 1273SOL    HW1 3954   3.308   3.525   3.546
 1273SOL    HW2 3955   3.448   3.501   3.493
 1274SOL     OW 3956   1.701   2.214   0.389
 1274SOL    HW1 3957   1.779   2.189   0.340
 1274SOL    HW2 3958   1.640   2.141   0.376
 1275SOL     OW 3959   2.546   2.916   1.648
 1275SOL    HW1 3960   2.497   2.998   1.660
 1275SOL    HW2 3961   2.604   2.912   1.724
 1276SOL     OW 3962   0.486   2.065   0.700
 1276SOL    HW1 3963   0.523   2.081   0.613
 1276SOL    HW2 3964   0.557   2.086   0.760
 1277SOL     OW 3965   2.367   1.088   3.248
 1277SOL    HW1 3966   2.276   1.113   3.231
 1277SOL    HW2 3967   2.418   1.159   3.211
 1278SOL     OW 3968   2.659   1.561   3.691
 1278SOL    HW1 3969   2.691   1.561   3.782
 1278SOL    HW2 3970   2.597   1.634   3.688
 1279SOL     OW 3971   3.971   1.320   0.461
 1279SOL    HW1 3972   3.981   1.415   0.471
 1279SOL    HW2 3973   3.926   1.310   0.377
 1280SOL     OW 3974   2.318   2.979   2.537
 1280SOL    HW1 3975   2.285   2.892   2.516
 1280SOL    HW2 3976   2.378   3.000   2.465
 1281SOL     OW 3977   0.993   1.413   3.697
 1281SOL    HW1 3978   0.906   1.410   3.658
 1281SOL    HW2 3979   0.980   1.452   3.783
 1282SOL     OW 3980   3.640   0.430   2.276
 1282SOL    HW1 3981   3.692   0.489   2.220
 1282SOL    HW2 3982   3.706   0.384   2.329
 1283SOL     OW 3983   0.864   2.636   0.328
 1283SOL    HW1 3984   0.777   2.676   0.328
 1283SOL    HW2 3985   0.921   2.702   0.289
 1284SOL     OW 3986   0.757   2.759   0.002
 1284SOL    HW1 3987   0.747   2.854   0.010
 1284SOL    HW2 3988   0.846   2.742   0.033
 1285SOL     OW 3989   2.626   2.105   2.377
 1285SOL    HW1 3990   2.717   2.134   2.370
 1285SOL    HW2 3991   2.583   2.144   2.301
 1286SOL     OW 3992   1.680   0.599   1.468
 1286SOL    HW1 3993   1.772   0.618   1.450
 1286SOL    HW2 3994   1.637   0.605   1.382
 1287SOL     OW 3995   3.688   2.583   1.323
 1287SOL    HW1 3996   3.738   2.576   1.404
 1287SOL    HW2 3997   3.675   2.677   1.311
 1288SOL     OW 3998   1.508   3.017   1.403
 1288SOL    HW1 3999   1.445   2.994   1.335
 1288SOL    HW2 4000   1.553   3.095   1.369
 1289SOL     OW 4001   2.924   1.134   1.786
 1289SOL    HW1 4002   3.018   1.117   1.785
 1289SOL    HW2 4003   2.885   1.053   1.753
 1290SOL     OW 4004   2.372   1.536   2.302
 1290SOL    HW1 4005   2.395   1.566   2.214
 1290SOL    HW2 4006   2.330   1.612   2.343
 1291SOL     OW 4007   2.326   3.739   1.013
 1291SOL    HW1 4008   2.395   3.786   0.966
 1291SOL    HW2 4009   2.301   3.667   0.955
 1292SOL     OW 4010   0.213   2.717   0.528
 1292SOL    HW1 4011   0.166   2.745   0.607
 1292SOL    HW2 4012   0.156   2.653   0.487
 1293SOL     OW 4013   3.716   3.211   1.241
 1293SOL    HW1 4014   3.621   3.210   1.229
 1293SOL    HW2 4015   3.737   3.304   1.256
 1294SOL     OW 4016   2.693   1.382   3.081
 1294SOL    HW1 4017   2.776   1.336   3.091
 1294SOL    HW2 4018   2.689   1.402   2.987
 1295SOL     OW 4019   3.729   3.722   0.567
 1295SOL    HW1 4020   3.705   3.815   0.564
 1295SOL    HW2 4021   3.751   3.706   0.659
 1296SOL     OW 4022   3.147   3.086   0.815
 1296SOL    HW1 4023   3.150   2.996   0.785
 1296SOL    HW2 4024   3.216   3.130   0.765
 1297SOL     OW 4025   3.844   1.487   2.539
 1297SOL    HW1 4026   3.782   1.539   2.590
 1297SOL    HW2 4027   3.926   1.492   2.588
 1298SOL     OW 4028   0.095   1.784   3.930
 1298SOL    HW1 4029   0.124   1.708   3.880
 1298SOL    HW2 4030   0.167   1.846   3.924
 1299SOL     OW 4031   2.476   0.423   2.971
 1299SOL    HW1 4032   2.503   0.341   3.014
 1299SOL    HW2 4033   2.472   0.400   2.878
 1300SOL     OW 4034   0.601   1.432   3.044
 1300SOL    HW1 4035   0.606   1.350   2.995
 1300SOL    HW2 4036   0.677   1.482   3.015
 1301SOL     OW 4037   3.367   2.268   3.044
 1301SOL    HW1 4038   3.303   2.240   2.979
 1301SOL    HW2 4039   3.417   2.189   3.064
 1302SOL     OW 4040   0.873   0.201   1.778
 1302SOL    HW1 4041   0.818   0.277   1.793
 1302SOL    HW2 4042   0.944   0.233   1.721
 1303SOL     OW 4043   2.210   2.697   2.837
 1303SOL    HW1 4044   2.143   2.629   2.848
 1303SOL    HW2 4045   2.207   2.719   2.744
 1304SOL     OW 4046   1.208   0.998   3.137
 1304SOL    HW1 4047   1.206   1.079   3.188
 1304SOL    HW2 4048   1.191   0.929   3.202
 1305SOL     OW 4049   1.472   0.669   3.663
 1305SOL    HW1 4050   1.473   0.727   3.739
 1305SOL    HW2 4051   1.541   0.606   3.679
 1306SOL     OW 4052   1.610   0.301   0.589
 1306SOL    HW1 4053   1.642   0.317   0.678
 1306SOL    HW2 4054   1.527   0.350   0.585
 1307SOL     OW 4055   1.869   0.813   3.836
 1307SOL    HW1 4056   1.953   0.769   3.852
 1307SOL    HW2 4057   1.832   0.826   3.923
 1308SOL     OW 4058   1.752   3.751   0.195
 1308SOL    HW1 4059   1.833   3.798   0.172
 1308SOL    HW2 4060   1.693   3.767   0.121
 1309SOL     OW 4061   3.674   2.479   3.142
 1309SOL    HW1 4062   3.713   2.394   3.162
 1309SOL    HW2 4063   3.584   2.458   3.116
 1310SOL     OW 4064   1.079   2.033   1.344
 1310SOL    HW1 4065   1.077   2.087   1.424
 1310SOL    HW2 4066   1.156   1.977   1.355
 1311SOL     OW 4067   0.088   2.833   3.286
 1311SOL    HW1 4068   0.004   2.868   3.316
 1311SOL    HW2 4069   0.065   2.757   3.232
 1312SOL     OW 4070   3.855   0.527   0.321
 1312SOL    HW1 4071   3.914   0.602   0.326
 1312SOL    HW2 4072   3.898   0.467   0.260
 1313SOL     OW 4073   1.994   2.176   0.524
 1313SOL    HW1 4074   2.068   2.218   0.568
 1313SOL    HW2 4075   1.987   2.223   0.440
 1314SOL     OW 4076   1.242   0.462   2.283
 1314SOL    HW1 4077   1.235   0.370   2.309
 1314SOL    HW2 4078   1.326   0.490   2.319
 1315SOL     OW 4079   0.847   2.647   2.502
 1315SOL    HW1 4080   0.860   2.552   2.507
 1315SOL    HW2 4081   0.934   2.681   2.481
 1316SOL     OW 4082   0.718   2.514   0.706
 1316SOL    HW1 4083   0.771   2.518   0.626
 1316SOL    HW2 4084   0.725   2.423   0.734
 1317SOL     OW 4085   0.114   3.916   1.821
 1317SOL    HW1 4086   0.186   3.944   1.878
 1317SOL    HW2 4087   0.035   3.935   1.872
 1318SOL     OW 4088   3.171   0.034   1.090
 1318SOL    HW1 4089   3.119   0.003   1.016
 1318SOL    HW2 4090   3.237  -0.033   1.103
 1319SOL     OW 4091   2.231   2.913   2.126
 1319SOL    HW1 4092   2.178   2.989   2.151
 1319SOL    HW2 4093   2.293   2.948   2.061
 1320SOL     OW 4094   0.343   1.080   2.908
 1320SOL    HW1 4095   0.298   1.144   2.963
 1320SOL    HW2 4096   0.431   1.116   2.896
 1321SOL     OW 4097   3.848   1.248   0.170
 1321SOL    HW1 4098   3.759   1.274   0.194
 1321SOL    HW2 4099   3.883   1.325   0.124
 1322SOL     OW 4100   2.076   3.982   0.676
 1322SOL    HW1 4101   2.057   4.002   0.768
 1322SOL    HW2 4102   2.073   3.886   0.671
 1323SOL     OW 4103   2.385   2.668   2.073
 1323SOL    HW1 4104   2.314   2.732   2.067
 1323SOL    HW2 4105   2.393   2.632   1.985
 1324SOL     OW 4106   0.763   0.527   0.741
 1324SOL    HW1 4107   0.774   0.619   0.716
 1324SOL    HW2 4108   0.725   0.486   0.663
 1325SOL     OW 4109   2.378   0.124   2.663
 1325SOL    HW1 4110   2.293   0.164   2.645
 1325SOL    HW2 4111   2.358   0.033   2.683
 1326SOL     OW 4112   1.658   0.617   3.319
 1326SOL    HW1 4113   1.702   0.619   3.404
 1326SOL    HW2 4114   1.686   0.698   3.276
 1327SOL     OW 4115   1.601   1.940   0.887
 1327SOL    HW1 4116   1.562   1.915   0.971
 1327SOL    HW2 4117   1.568   1.875   0.825
 1328SOL     OW 4118   0.597   0.149   1.659
 1328SOL    HW1 4119   0.665   0.096   1.701
 1328SOL    HW2 4120   0.595   0.231   1.709
 1329SOL     OW 4121   1.679   3.376   2.194
 1329SOL    HW1 4122   1.682   3.469   2.216
 1329SOL    HW2 4123   1.654   3.333   2.276
 1330SOL     OW 4124   0.970   3.754   3.391
 1330SOL    HW1 4125   0.927   3.813   3.329
 1330SOL    HW2 4126   1.062   3.755   3.365
 1331SOL     OW 4127   1.489   0.556   2.450
 1331SOL    HW1 4128   1.554   0.601   2.395
 1331SOL    HW2 4129   1.532   0.475   2.477
 1332SOL     OW 4130   3.184   2.479   0.955
 1332SOL    HW1 4131   3.277   2.457   0.954
 1332SOL    HW2 4132   3.153   2.449   1.041
 1333SOL     OW 4133   0.544   1.801   2.258
 1333SOL    HW1 4134   0.492   1.761   2.189
 1333SOL    HW2 4135   0.493   1.789   2.338
 1334SOL     OW 4136   1.475   2.364   2.662
 1334SOL    HW1 4137   1.515   2.278   2.676
 1334SOL    HW2 4138   1.453   2.366   2.569
 1335SOL     OW 4139   1.562   3.901   1.410
 1335SOL    HW1 4140   1.622   3.973   1.429
 1335SOL    HW2 4141   1.479   3.943   1.389
 1336SOL     OW 4142   2.309   2.976   3.679
 1336SOL    HW1 4143   2.353   2.892   3.670
 1336SOL    HW2 4144   2.364   3.037   3.630
 1337SOL     OW 4145   1.982   2.064   0.818
 1337SOL    HW1 4146   1.961   2.003   0.747
 1337SOL    HW2 4147   2.037   2.013   0.877
 1338SOL     OW 4148   0.926   0.885   1.873
 1338SOL    HW1 4149   1.002   0.878   1.816
 1338SOL    HW2 4150   0.955   0.940   1.946
 1339SOL     OW 4151   1.133   3.455   2.348
 1339SOL    HW1 4152   1.220   3.482   2.378
 1339SOL    HW2 4153   1.121   3.500   2.265
 1340SOL     OW 4154   2.225   2.194   1.793
 1340SOL    HW1 4155   2.237   2.154   1.707
 1340SOL    HW2 4156   2.133   2.220   1.795
 1341SOL     OW 4157   3.438   0.285   2.019
 1341SOL    HW1 4158   3.362   0.337   1.991
 1341SOL    HW2 4159   3.489   0.344   2.074
 1342SOL     OW 4160   1.121   0.849   2.659
 1342SOL    HW1 4161   1.098   0.894   2.740
 1342SOL    HW2 4162   1.171   0.772   2.687
 1343SOL     OW 4163   2.088   3.171   3.063
 1343SOL    HW1 4164   2.016   3.232   3.075
 1343SOL    HW2 4165   2.077   3.107   3.133
 1344SOL     OW 4166   2.982   0.796   0.031
 1344SOL    HW1 4167   2.939   0.720   0.070
 1344SOL    HW2 4168   2.956   0.870   0.086
 1345SOL     OW 4169   1.633   1.056   2.314
 1345SOL    HW1 4170   1.692   1.016   2.378
 1345SOL    HW2 4171   1.680   1.134   2.283
 1346SOL     OW 4172   1.173   1.754   2.143
 1346SOL    HW1 4173   1.186   1.724   2.053
 1346SOL    HW2 4174   1.102   1.700   2.177
 1347SOL     OW 4175   1.082   1.390   0.177
 1347SOL    HW1 4176   1.037   1.421   0.256
 1347SOL    HW2 4177   1.167   1.358   0.209
 1348SOL     OW 4178   0.209   2.554   3.043
 1348SOL    HW1 4179   0.252   2.468   3.048
 1348SOL    HW2 4180   0.281   2.616   3.033
 1349SOL     OW 4181   0.245   2.287   3.793
 1349SOL    HW1 4182   0.335   2.305   3.820
 1349SOL    HW2 4183   0.248   2.201   3.751
 1350SOL     OW 4184   3.443   0.990   1.888
 1350SOL    HW1 4185   3.377   1.034   1.941
 1350SOL    HW2 4186   3.526   1.019   1.925
 1351SOL     OW 4187   3.708   2.060   3.029
 1351SOL    HW1 4188   3.716   1.975   2.986
 1351SOL    HW2 4189   3.632   2.051   3.086
 1352SOL     OW 4190   3.073   3.545   2.495
 1352SOL    HW1 4191   3.145   3.529   2.557
 1352SOL    HW2 4192   3.106   3.614   2.438
 1353SOL     OW 4193   1.564   2.883   3.028
 1353SOL    HW1 4194   1.508   2.829   2.973
 1353SOL    HW2 4195   1.650   2.878   2.987
 1354SOL     OW 4196   3.036   2.570   1.277
 1354SOL    HW1 4197   3.116   2.554   1.327
 1354SOL    HW2 4198   3.062   2.630   1.208
 1355SOL     OW 4199   0.930   0.671   3.388
 1355SOL    HW1 4200   0.909   0.749   3.441
 1355SOL    HW2 4201   0.885   0.599   3.432
 1356SOL     OW 4202   1.998   3.877   0.211
 1356SOL    HW1 4203   1.967   3.935   0.281
 1356SOL    HW2 4204   2.077   3.837   0.247
 1357SOL     OW 4205   3.009   1.476   2.708
 1357SOL    HW1 4206   2.962   1.528   2.642
 1357SOL    HW2 4207   3.101   1.485   2.684
 1358SOL     OW 4208   1.544   2.999   2.716
 1358SOL    HW1 4209   1.609   2.953   2.769
 1358SOL    HW2 4210   1.568   2.979   2.626
 1359SOL     OW 4211   2.118   0.770   1.707
 1359SOL    HW1 4212   2.158   0.842   1.658
 1359SOL    HW2 4213   2.184   0.745   1.771
 1360SOL     OW 4214   1.336   1.503   0.955
 1360SOL    HW1 4215   1.430   1.519   0.961
 1360SOL    HW2 4216   1.310   1.476   1.043
 1361SOL     OW 4217   3.740   1.274   2.387
 1361SOL    HW1 4218   3.796   1.207   2.428
 1361SOL    HW2 4219   3.772   1.357   2.423
 1362SOL     OW 4220   0.718   1.896   3.916
 1362SOL    HW1 4221   0.784   1.844   3.869
 1362SOL    HW2 4222   0.659   1.926   3.847
 1363SOL     OW 4223   0.760   3.617   3.812
 1363SOL    HW1 4224   0.696   3.682   3.842
 1363SOL    HW2 4225   0.724   3.584   3.729
 1364SOL     OW 4226   2.957   2.551   3.547
 1364SOL    HW1 4227   2.981   2.632   3.591
 1364SOL    HW2 4228   3.024   2.538   3.480
 1365SOL     OW 4229   2.668   3.410   3.737
 1365SOL    HW1 4230   2.699   3.383   3.650
 1365SOL    HW2 4231   2.573   3.395   3.733
 1366SOL     OW 4232   0.454   2.521   1.066
 1366SOL    HW1 4233   0.392   2.471   1.013
 1366SOL    HW2 4234   0.419   2.516   1.155
 1367SOL     OW 4235   1.680   3.825   1.745
 1367SOL    HW1 4236   1.622   3.799   1.673
 1367SOL    HW2 4237   1.620   3.852   1.815
 1368SOL     OW 4238   1.652   0.161   0.267
 1368SOL    HW1 4239   1.742   0.155   0.235
 1368SOL    HW2 4240   1.648   0.099   0.340
 1369SOL     OW 4241   2.141   2.864   0.053
 1369SOL    HW1 4242   2.148   2.958   0.065
 1369SOL    HW2 4243   2.223   2.829   0.089
 1370SOL     OW 4244   1.756   0.029   2.746
 1370SOL    HW1 4245   1.806  -0.045   2.781
 1370SOL    HW2 4246   1.734   0.082   2.822
 1371SOL     OW 4247   0.394   3.236   0.744
 1371SOL    HW1 4248   0.487   3.241   0.768
 1371SOL    HW2 4249   0.378   3.143   0.729
 1372SOL     OW 4250   0.903   2.965   2.249
 1372SOL    HW1 4251   0.967   2.912   2.201
 1372SOL    HW2 4252   0.956   3.027   2.299
 1373SOL     OW 4253   1.001   0.510   2.964
 1373SOL    HW1 4254   0.923   0.505   3.020
 1373SOL    HW2 4255   1.040   0.595   2.986
 1374SOL     OW 4256   3.127   1.559   2.129
 1374SOL    HW1 4257   3.184   1.635   2.115
 1374SOL    HW2 4258   3.118   1.519   2.043
 1375SOL     OW 4259   0.397   1.037   1.630
 1375SOL    HW1 4260   0.460   1.099   1.668
 1375SOL    HW2 4261   0.400   0.962   1.689
 1376SOL     OW 4262   2.237   1.259   1.489
 1376SOL    HW1 4263   2.253   1.272   1.582
 1376SOL    HW2 4264   2.171   1.190   1.485
 1377SOL     OW 4265   1.356   2.460   2.898
 1377SOL    HW1 4266   1.405   2.418   2.827
 1377SOL    HW2 4267   1.266   2.430   2.886
 1378SOL     OW 4268   3.326   2.531   2.759
 1378SOL    HW1 4269   3.231   2.520   2.759
 1378SOL    HW2 4270   3.356   2.478   2.833
 1379SOL     OW 4271   1.133   1.555   3.089
 1379SOL    HW1 4272   1.156   1.624   3.026
 1379SOL    HW2 4273   1.213   1.542   3.140
 1380SOL     OW 4274   3.483   1.035   3.051
 1380SOL    HW1 4275   3.395   1.001   3.035
 1380SOL    HW2 4276   3.472   1.098   3.122
 1381SOL     OW 4277   1.946   2.122   1.467
 1381SOL    HW1 4278   2.017   2.075   1.511
 1381SOL    HW2 4279   1.891   2.154   1.539
 1382SOL     OW 4280   0.768   3.334   1.359
 1382SOL    HW1 4281   0.851   3.310   1.319
 1382SOL    HW2 4282   0.789   3.409   1.415
 1383SOL     OW 4283   3.053   0.103   3.542
 1383SOL    HW1 4284   2.990   0.085   3.612
 1383SOL    HW2 4285   3.016   0.061   3.465
 1384SOL     OW 4286   2.984   1.500   3.100
 1384SOL    HW1 4287   3.056   1.545   3.056
 1384SOL    HW2 4288   2.970   1.421   3.047
 1385SOL     OW 4289   1.699   1.782   3.937
 1385SOL    HW1 4290   1.633   1.790   3.867
 1385SOL    HW2 4291   1.659   1.724   4.001
 1386SOL     OW 4292   1.386   2.821   1.208
 1386SOL    HW1 4293   1.399   2.767   1.130
 1386SOL    HW2 4294   1.381   2.910   1.174
 1387SOL     OW 4295   3.251   3.705   2.320
 1387SOL    HW1 4296   3.333   3.658   2.306
 1387SOL    HW2 4297   3.278   3.795   2.340
 1388SOL     OW 4298   2.653   1.420   2.825
 1388SOL    HW1 4299   2.692   1.501   2.793
 1388SOL    HW2 4300   2.567   1.416   2.783
 1389SOL     OW 4301   1.467   1.822   1.497
 1389SOL    HW1 4302   1.403   1.839   1.427
 1389SOL    HW2 4303   1.549   1.808   1.451
 1390SOL     OW 4304   0.620   0.164   0.824
 1390SOL    HW1 4305   0.604   0.212   0.743
 1390SOL    HW2 4306   0.547   0.103   0.831
 1391SOL     OW 4307   1.879   0.395   2.592
 1391SOL    HW1 4308   1.859   0.458   2.524
 1391SOL    HW2 4309   1.804   0.335   2.593
 1392SOL     OW 4310   1.144   1.196   1.784
 1392SOL    HW1 4311   1.105   1.283   1.794
 1392SOL    HW2 4312   1.095   1.140   1.843
 1393SOL     OW 4313   0.158   3.120   0.887
 1393SOL    HW1 4314   0.094   3.054   0.861
 1393SOL    HW2 4315   0.243   3.078   0.874
 1394SOL     OW 4316   3.239   2.993   2.355
 1394SOL    HW1 4317   3.170   2.932   2.381
 1394SOL    HW2 4318   3.310   2.978   2.419
 1395SOL     OW 4319   3.652   3.831   1.312
 1395SOL    HW1 4320   3.682   3.906   1.364
 1395SOL    HW2 4321   3.700   3.838   1.230
 1396SOL     OW 4322   3.872   0.367   2.416
 1396SOL    HW1 4323   3.869   0.438   2.480
 1396SOL    HW2 4324   3.957   0.325   2.432
 1397SOL     OW 4325   1.703   0.835   0.109
 1397SOL    HW1 4326   1.731   0.834   0.201
 1397SOL    HW2 4327   1.628   0.776   0.106
 1398SOL     OW 4328   0.346   0.803   2.443
 1398SOL    HW1 4329   0.388   0.750   2.376
 1398SOL    HW2 4330   0.268   0.754   2.468
 1399SOL     OW 4331   1.149   0.818   1.696
 1399SOL    HW1 4332   1.097   0.744   1.665
 1399SOL    HW2 4333   1.161   0.802   1.790
 1400SOL     OW 4334   0.717   2.332   0.340
 1400SOL    HW1 4335   0.694   2.278   0.416
 1400SOL    HW2 4336   0.636   2.340   0.290
 1401SOL     OW 4337   3.103   2.710   1.062
 1401SOL    HW1 4338   3.117   2.633   1.006
 1401SOL    HW2 4339   3.042   2.764   1.012
 1402SOL     OW 4340   1.117   2.385   1.206
 1402SOL    HW1 4341   1.195   2.432   1.232
 1402SOL    HW2 4342   1.052   2.406   1.273
 1403SOL     OW 4343   1.570   3.270   3.066
 1403SOL    HW1 4344   1.644   3.210   3.080
 1403SOL    HW2 4345   1.495   3.213   3.050
 1404SOL     OW 4346   2.781   3.003   2.516
 1404SOL    HW1 4347   2.852   3.035   2.459
 1404SOL    HW2 4348   2.794   3.050   2.599
 1405SOL     OW 4349   3.883   3.082   1.046
 1405SOL    HW1 4350   3.822   3.121   1.108
 1405SOL    HW2 4351   3.915   3.155   0.993
 1406SOL     OW 4352   0.413   3.345   2.123
 1406SOL    HW1 4353   0.448   3.419   2.172
 1406SOL    HW2 4354   0.479   3.276   2.134
 1407SOL     OW 4355   1.039   3.113   1.982
 1407SOL    HW1 4356   1.101   3.156   1.923
 1407SOL    HW2 4357   1.023   3.027   1.943
 1408SOL     OW 4358   3.509   2.975   2.795
 1408SOL    HW1 4359   3.415   2.988   2.807
 1408SOL    HW2 4360   3.546   2.985   2.883
 1409SOL     OW 4361   3.131   2.602   3.814
 1409SOL    HW1 4362   3.199   2.548   3.855
 1409SOL    HW2 4363   3.054   2.589   3.869
 1410SOL     OW 4364   1.822   2.852   3.357
 1410SOL    HW1 4365   1.852   2.822   3.443
 1410SOL    HW2 4366   1.728   2.865   3.367
 1411SOL     OW 4367   1.229   1.537   2.465
 1411SOL    HW1 4368   1.156   1.553   2.405
 1411SOL    HW2 4369   1.255   1.446   2.447
 1412SOL     OW 4370   1.589   3.139   0.905
 1412SOL    HW1 4371   1.550   3.164   0.821
 1412SOL    HW2 4372   1.517   3.098   0.954
 1413SOL     OW 4373   2.501   1.848   0.343
 1413SOL    HW1 4374   2.414   1.885   0.330
 1413SOL    HW2 4375   2.493   1.757   0.316
 1414SOL     OW 4376   1.755   1.526   0.189
 1414SOL    HW1 4377   1.703   1.489   0.261
 1414SOL    HW2 4378   1.845   1.520   0.220
 1415SOL     OW 4379   3.486   2.889   3.341
 1415SOL    HW1 4380   3.413   2.909   3.400
 1415SOL    HW2 4381   3.522   2.807   3.375
 1416SOL     OW 4382   2.914   2.481   0.042
 1416SOL    HW1 4383   2.843   2.460  -0.019
 1416SOL    HW2 4384   2.871   2.492   0.126
 1417SOL     OW 4385   1.760   3.107   3.162
 1417SOL    HW1 4386   1.717   3.023   3.146
 1417SOL    HW2 4387   1.853   3.091   3.145
 1418SOL     OW 4388   2.957   2.742   0.853
 1418SOL    HW1 4389   2.910   2.659   0.848
 1418SOL    HW2 4390   3.028   2.733   0.790
 1419SOL     OW 4391   3.856   1.204   3.472
 1419SOL    HW1 4392   3.796   1.131   3.454
 1419SOL    HW2 4393   3.923   1.165   3.528
 1420SOL     OW 4394   1.250   1.142   2.194
 1420SOL    HW1 4395   1.333   1.150   2.147
 1420SOL    HW2 4396   1.225   1.232   2.215
 1421SOL     OW 4397   3.220   0.989   2.899
 1421SOL    HW1 4398   3.292   1.036   2.857
 1421SOL    HW2 4399   3.192   0.924   2.834
 1422SOL     OW 4400   3.493   3.279   2.346
 1422SOL    HW1 4401   3.495   3.204   2.406
 1422SOL    HW2 4402   3.579   3.279   2.305
 1423SOL     OW 4403   3.190   1.657   1.704
 1423SOL    HW1 4404   3.267   1.701   1.670
 1423SOL    HW2 4405   3.198   1.567   1.673
 1424SOL     OW 4406   0.281   3.825   0.534
 1424SOL    HW1 4407   0.335   3.868   0.468
 1424SOL    HW2 4408   0.343   3.773   0.585
 1425SOL     OW 4409   1.391   1.296   1.934
 1425SOL    HW1 4410   1.326   1.262   1.873
 1425SOL    HW2 4411   1.460   1.332   1.878
 1426SOL     OW 4412   1.163   1.820   3.732
 1426SOL    HW1 4413   1.075   1.839   3.700
 1426SOL    HW2 4414   1.187   1.737   3.689
 1427SOL     OW 4415   1.344   2.317   3.901
 1427SOL    HW1 4416   1.308   2.253   3.963
 1427SOL    HW2 4417   1.317   2.284   3.815
 1428SOL     OW 4418   0.836   1.730   0.406
 1428SOL    HW1 4419   0.858   1.653   0.459
 1428SOL    HW2 4420   0.846   1.804   0.466
 1429SOL     OW 4421   2.702   0.290   0.699
 1429SOL    HW1 4422   2.753   0.214   0.727
 1429SOL    HW2 4423   2.657   0.319   0.778
 1430SOL     OW 4424   3.121   3.823   3.227
 1430SOL    HW1 4425   3.048   3.880   3.251
 1430SOL    HW2 4426   3.086   3.767   3.157
 1431SOL     OW 4427   3.901   0.708   1.795
 1431SOL    HW1 4428   3.836   0.684   1.729
 1431SOL    HW2 4429   3.930   0.625   1.833
 1432SOL     OW 4430   3.683   1.528   0.070
 1432SOL    HW1 4431   3.655   1.539   0.161
 1432SOL    HW2 4432   3.775   1.555   0.070
 1433SOL     OW 4433   3.341   1.436   3.137
 1433SOL    HW1 4434   3.279   1.405   3.070
 1433SOL    HW2 4435   3.365   1.357   3.185
 1434SOL     OW 4436   1.100   3.411   3.487
 1434SOL    HW1 4437   1.079   3.470   3.560
 1434SOL    HW2 4438   1.026   3.421   3.426
 1435SOL     OW 4439   0.394   2.309   1.948
 1435SOL    HW1 4440   0.467   2.371   1.960
 1435SOL    HW2 4441   0.426   2.227   1.984
 1436SOL     OW 4442   1.806   3.776   1.483
 1436SOL    HW1 4443   1.715   3.802   1.466
 1436SOL    HW2 4444   1.809   3.762   1.578
 1437SOL     OW 4445   1.804   2.879   2.895
 1437SOL    HW1 4446   1.854   2.955   2.867
 1437SOL    HW2 4447   1.869   2.809   2.905
 1438SOL     OW 4448   2.161   3.298   1.333
 1438SOL    HW1 4449   2.121   3.216   1.361
 1438SOL    HW2 4450   2.234   3.272   1.277
 1439SOL     OW 4451   3.031   0.218   3.103
 1439SOL    HW1 4452   3.026   0.180   3.016
 1439SOL    HW2 4453   2.987   0.155   3.160
 1440SOL     OW 4454   0.741   0.572   2.579
 1440SOL    HW1 4455   0.821   0.520   2.578
 1440SOL    HW2 4456   0.768   0.656   2.541
 1441SOL     OW 4457   2.257   0.734   0.302
 1441SOL    HW1 4458   2.193   0.803   0.285
 1441SOL    HW2 4459   2.286   0.750   0.391
 1442SOL     OW 4460   0.649   0.971   1.930
 1442SOL    HW1 4461   0.743   0.952   1.929
 1442SOL    HW2 4462   0.634   1.011   2.016
 1443SOL     OW 4463   2.213   0.453   3.424
 1443SOL    HW1 4464   2.196   0.546   3.440
 1443SOL    HW2 4465   2.247   0.421   3.507
 1444SOL     OW 4466   0.262   3.503   0.864
 1444SOL    HW1 4467   0.295   3.443   0.798
 1444SOL    HW2 4468   0.249   3.449   0.942
 1445SOL     OW 4469   1.367   2.296   1.631
 1445SOL    HW1 4470   1.384   2.293   1.537
 1445SOL    HW2 4471   1.306   2.369   1.642
 1446SOL     OW 4472   1.768   0.780   0.385
 1446SOL    HW1 4473   1.751   0.687   0.399
 1446SOL    HW2 4474   1.735   0.822   0.464
 1447SOL     OW 4475   3.523   0.409   0.444
 1447SOL    HW1 4476   3.614   0.391   0.466
 1447SOL    HW2 4477   3.527   0.486   0.386
 1448SOL     OW 4478   0.597   3.498   3.627
 1448SOL    HW1 4479   0.518   3.448   3.651
 1448SOL    HW2 4480   0.567   3.558   3.559
 1449SOL     OW 4481   2.154   2.153   2.733
 1449SOL    HW1 4482   2.083   2.130   2.792
 1449SOL    HW2 4483   2.234   2.131   2.781
 1450SOL     OW 4484   3.821   3.120   3.090
 1450SOL    HW1 4485   3.851   3.048   3.146
 1450SOL    HW2 4486   3.729   3.100   3.073
 1451SOL     OW 4487   3.460   2.434   2.504
 1451SOL    HW1 4488   3.447   2.528   2.495
 1451SOL    HW2 4489   3.506   2.408   2.424
 1452SOL     OW 4490   0.068   1.583   0.685
 1452SOL    HW1 4491   0.149   1.626   0.713
 1452SOL    HW2 4492   0.045   1.525   0.758
 1453SOL     OW 4493   2.634   2.381   2.733
 1453SOL    HW1 4494   2.671   2.376   2.821
 1453SOL    HW2 4495   2.592   2.467   2.729
 1454SOL     OW 4496   1.906   0.739   2.095
 1454SOL    HW1 4497   1.896   0.796   2.019
 1454SOL    HW2 4498   1.950   0.793   2.160
 1455SOL     OW 4499   0.515   2.882   2.232
 1455SOL    HW1 4500   0.610   2.895   2.227
 1455SOL    HW2 4501   0.485   2.884   2.141
 1456SOL     OW 4502   2.444   1.236   3.015
 1456SOL    HW1 4503   2.512   1.301   3.029
 1456SOL    HW2 4504   2.491   1.154   3.000
 1457SOL     OW 4505   3.788   0.603   3.814
 1457SOL    HW1 4506   3.762   0.622   3.724
 1457SOL    HW2 4507   3.820   0.686   3.849
 1458SOL     OW 4508   1.433   1.492   1.340
 1458SOL    HW1 4509   1.392   1.510   1.425
 1458SOL    HW2 4510   1.409   1.568   1.286
 1459SOL     OW 4511   1.957   2.773   2.369
 1459SOL    HW1 4512   2.010   2.694   2.369
 1459SOL    HW2 4513   1.930   2.784   2.278
 1460SOL     OW 4514   1.248   0.617   0.385
 1460SOL    HW1 4515   1.289   0.652   0.464
 1460SOL    HW2 4516   1.154   0.619   0.403
 1461SOL     OW 4517   3.835   1.904   0.080
 1461SOL    HW1 4518   3.906   1.862   0.033
 1461SOL    HW2 4519   3.873   1.984   0.116
 1462SOL     OW 4520   1.438   3.509   3.161
 1462SOL    HW1 4521   1.387   3.478   3.236
 1462SOL    HW2 4522   1.485   3.431   3.131
 1463SOL     OW 4523   0.061   1.501   3.482
 1463SOL    HW1 4524  -0.014   1.521   3.427
 1463SOL    HW2 4525   0.085   1.411   3.457
 1464SOL     OW 4526   2.950   2.536   2.627
 1464SOL    HW1 4527   2.935   2.621   2.669
 1464SOL    HW2 4528   2.870   2.519   2.577
 1465SOL     OW 4529   0.949   3.631   2.516
 1465SOL    HW1 4530   0.998   3.565   2.468
 1465SOL    HW2 4531   0.882   3.581   2.563
 1466SOL     OW 4532   0.312   2.171   1.657
 1466SOL    HW1 4533   0.250   2.214   1.717
 1466SOL    HW2 4534   0.314   2.227   1.580
 1467SOL     OW 4535   1.208   3.255   3.681
 1467SOL    HW1 4536   1.141   3.248   3.750
 1467SOL    HW2 4537   1.171   3.316   3.618
 1468SOL     OW 4538   0.739   2.058   2.968
 1468SOL    HW1 4539   0.661   2.034   3.020
 1468SOL    HW2 4540   0.784   1.975   2.954
 1469SOL     OW 4541   0.933   1.337   1.941
 1469SOL    HW1 4542   0.943   1.428   1.969
 1469SOL    HW2 4543   0.864   1.339   1.874
 1470SOL     OW 4544   0.779   3.036   2.873
 1470SOL    HW1 4545   0.708   3.080   2.826
 1470SOL    HW2 4546   0.782   2.949   2.834
 1471SOL     OW 4547   0.131   1.281   2.429
 1471SOL    HW1 4548   0.077   1.203   2.439
 1471SOL    HW2 4549   0.089   1.331   2.358
 1472SOL     OW 4550   2.661   2.810   3.969
 1472SOL    HW1 4551   2.696   2.892   3.934
 1472SOL    HW2 4552   2.716   2.742   3.930
 1473SOL     OW 4553   3.857   3.108   1.447
 1473SOL    HW1 4554   3.844   3.140   1.536
 1473SOL    HW2 4555   3.799   3.161   1.394
 1474SOL     OW 4556   3.444   3.883   1.137
 1474SOL    HW1 4557   3.451   3.978   1.132
 1474SOL    HW2 4558   3.511   3.857   1.200
 1475SOL     OW 4559   2.982   1.197   3.653
 1475SOL    HW1 4560   2.996   1.104   3.633
 1475SOL    HW2 4561   3.014   1.207   3.743
 1476SOL     OW 4562   1.452   2.718   2.852
 1476SOL    HW1 4563   1.458   2.690   2.761
 1476SOL    HW2 4564   1.424   2.640   2.899
 1477SOL     OW 4565   3.602   1.813   2.051
 1477SOL    HW1 4566   3.612   1.826   2.146
 1477SOL    HW2 4567   3.531   1.872   2.027
 1478SOL     OW 4568   0.792   2.775   2.827
 1478SOL    HW1 4569   0.727   2.733   2.770
 1478SOL    HW2 4570   0.842   2.702   2.863
 1479SOL     OW 4571   0.434   1.973   0.411
 1479SOL    HW1 4572   0.477   2.029   0.345
 1479SOL    HW2 4573   0.341   1.978   0.390
 1480SOL     OW 4574   1.585   2.107   2.662
 1480SOL    HW1 4575   1.674   2.110   2.695
 1480SOL    HW2 4576   1.583   2.032   2.603
 1481SOL     OW 4577   1.064   3.565   3.699
 1481SOL    HW1 4578   1.147   3.611   3.685
 1481SOL    HW2 4579   1.001   3.635   3.719
 1482SOL     OW 4580   1.706   0.515   0.442
 1482SOL    HW1 4581   1.694   0.430   0.483
 1482SOL    HW2 4582   1.641   0.518   0.372
 1483SOL     OW 4583   0.631   2.450   0.053
 1483SOL    HW1 4584   0.630   2.526  -0.005
 1483SOL    HW2 4585   0.721   2.446   0.086
 1484SOL     OW 4586   3.654   1.862   2.814
 1484SOL    HW1 4587   3.585   1.839   2.876
 1484SOL    HW2 4588   3.705   1.782   2.804
 1485SOL     OW 4589   0.188   3.213   0.289
 1485SOL    HW1 4590   0.133   3.240   0.363
 1485SOL    HW2 4591   0.177   3.118   0.284
 1486SOL     OW 4592   2.806   2.330   3.802
 1486SOL    HW1 4593   2.853   2.293   3.727
 1486SOL    HW2 4594   2.773   2.254   3.850
 1487SOL     OW 4595   2.841   3.708   3.155
 1487SOL    HW1 4596   2.894   3.628   3.149
 1487SOL    HW2 4597   2.805   3.719   3.067
 1488SOL     OW 4598   3.778   1.638   3.326
 1488SOL    HW1 4599   3.761   1.684   3.408
 1488SOL    HW2 4600   3.691   1.619   3.291
 1489SOL     OW 4601   3.269   1.682   0.927
 1489SOL    HW1 4602   3.337   1.615   0.918
 1489SOL    HW2 4603   3.318   1.764   0.936
 1490SOL     OW 4604   0.564   1.757   3.496
 1490SOL    HW1 4605   0.551   1.664   3.513
 1490SOL    HW2 4606   0.501   1.777   3.427
 1491SOL     OW 4607   0.487   3.130   3.293
 1491SOL    HW1 4608   0.542   3.169   3.226
 1491SOL    HW2 4609   0.401   3.122   3.252
 1492SOL     OW 4610   0.411   0.396   1.051
 1492SOL    HW1 4611   0.505   0.386   1.036
 1492SOL    HW2 4612   0.384   0.468   0.994
 1493SOL     OW 4613   3.915   0.572   1.431
 1493SOL    HW1 4614   3.991   0.600   1.481
 1493SOL    HW2 4615   3.843   0.569   1.495
 1494SOL     OW 4616   2.495   0.304   1.175
 1494SOL    HW1 4617   2.529   0.224   1.218
 1494SOL    HW2 4618   2.400   0.297   1.184
 1495SOL     OW 4619   2.735   2.225   0.353
 1495SOL    HW1 4620   2.769   2.144   0.315
 1495SOL    HW2 4621   2.800   2.250   0.419
 1496SOL     OW 4622   3.713   2.179   1.838
 1496SOL    HW1 4623   3.635   2.147   1.793
 1496SOL    HW2 4624   3.685   2.192   1.929
 1497SOL     OW 4625   1.541   1.163   0.565
 1497SOL    HW1 4626   1.573   1.073   0.570
 1497SOL    HW2 4627   1.455   1.156   0.524
 1498SOL     OW 4628   1.226   2.887   2.863
 1498SOL    HW1 4629   1.298   2.879   2.800
 1498SOL    HW2 4630   1.155   2.929   2.814
 1499SOL     OW 4631   1.191   0.450   2.017
 1499SOL    HW1 4632   1.160   0.359   2.011
 1499SOL    HW2 4633   1.225   0.457   2.106
 1500SOL     OW 4634   2.114   0.935   1.351
 1500SOL    HW1 4635   2.078   0.966   1.435
 1500SOL    HW2 4636   2.205   0.915   1.370
 1501SOL     OW 4637   0.975   1.576  -0.005
 1501SOL    HW1 4638   1.050   1.541   0.044
 1501SOL    HW2 4639   0.899   1.540   0.039
 1502SOL     OW 4640   3.814   0.159   0.695
 1502SOL    HW1 4641   3.842   0.247   0.671
 1502SOL    HW2 4642   3.837   0.151   0.788
 1503SOL     OW 4643   1.826   0.708   3.513
 1503SOL    HW1 4644   1.853   0.650   3.585
 1503SOL    HW2 4645   1.780   0.780   3.557
 1504SOL     OW 4646   3.034   3.923   3.925
 1504SOL    HW1 4647   2.996   3.965   4.002
 1504SOL    HW2 4648   3.128   3.937   3.934
 1505SOL     OW 4649   3.372   2.765   1.000
 1505SOL    HW1 4650   3.301   2.730   1.054
 1505SOL    HW2 4651   3.426   2.815   1.061
 1506SOL     OW 4652   1.019   0.653   2.283
 1506SOL    HW1 4653   1.070   0.734   2.282
 1506SOL    HW2 4654   1.085   0.584   2.280
 1507SOL     OW 4655   2.594   3.842   0.592
 1507SOL    HW1 4656   2.645   3.922   0.584
 1507SOL    HW2 4657   2.654   3.779   0.631
 1508SOL     OW 4658   0.585   0.331   1.395
 1508SOL    HW1 4659   0.500   0.355   1.357
 1508SOL    HW2 4660   0.563   0.288   1.478
 1509SOL     OW 4661   1.389   0.522   1.461
 1509SOL    HW1 4662   1.466   0.579   1.471
 1509SOL    HW2 4663   1.359   0.507   1.551
 1510SOL     OW 4664   2.735   3.629   3.851
 1510SOL    HW1 4665   2.819   3.645   3.807
 1510SOL    HW2 4666   2.714   3.539   3.829
 1511SOL     OW 4667   3.400   2.727   2.482
 1511SOL    HW1 4668   3.461   2.739   2.555
 1511SOL    HW2 4669   3.318   2.766   2.513
 1512SOL     OW 4670   0.697   3.184   3.655
 1512SOL    HW1 4671   0.703   3.218   3.744
 1512SOL    HW2 4672   0.603   3.172   3.641
 1513SOL     OW 4673   3.715   3.345   3.252
 1513SOL    HW1 4674   3.760   3.263   3.232
 1513SOL    HW2 4675   3.735   3.402   3.177
 1514SOL     OW 4676   1.307   3.198   3.245
 1514SOL    HW1 4677   1.215   3.178   3.260
 1514SOL    HW2 4678   1.351   3.112   3.246
 1515SOL     OW 4679   1.079   0.170   2.550
 1515SOL    HW1 4680   1.115   0.088   2.584
 1515SOL    HW2 4681   1.041   0.213   2.627
 1516SOL     OW 4682   2.486   2.765   3.658
 1516SOL    HW1 4683   2.438   2.707   3.599
 1516SOL    HW2 4684   2.516   2.708   3.728
 1517SOL     OW 4685   1.931   1.020   0.666
 1517SOL    HW1 4686   1.925   0.951   0.733
 1517SOL    HW2 4687   2.022   1.047   0.668
 1518SOL     OW 4688   3.510   0.055   3.801
 1518SOL    HW1 4689   3.588   0.084   3.848
 1518SOL    HW2 4690   3.525   0.081   3.710
 1519SOL     OW 4691   2.586   0.791   2.271
 1519SOL    HW1 4692   2.643   0.864   2.248
 1519SOL    HW2 4693   2.523   0.828   2.333
 1520SOL     OW 4694   0.169   2.718   1.930
 1520SOL    HW1 4695   0.085   2.695   1.890
 1520SOL    HW2 4696   0.149   2.794   1.985
 1521SOL     OW 4697   1.514   2.267   3.160
 1521SOL    HW1 4698   1.466   2.322   3.222
 1521SOL    HW2 4699   1.452   2.250   3.090
 1522SOL     OW 4700   2.061   3.562   3.790
 1522SOL    HW1 4701   1.975   3.557   3.750
 1522SOL    HW2 4702   2.048   3.534   3.881
 1523SOL     OW 4703   2.395   3.146   1.221
 1523SOL    HW1 4704   2.343   3.157   1.141
 1523SOL    HW2 4705   2.463   3.084   1.196
 1524SOL     OW 4706   1.438   3.666   2.915
 1524SOL    HW1 4707   1.409   3.643   3.003
 1524SOL    HW2 4708   1.504   3.600   2.893
 1525SOL     OW 4709   3.672   3.882   2.623
 1525SOL    HW1 4710   3.595   3.839   2.587
 1525SOL    HW2 4711   3.732   3.888   2.549
 1526SOL     OW 4712   0.086   2.358   0.104
 1526SOL    HW1 4713   0.072   2.428   0.168
 1526SOL    HW2 4714   0.068   2.399   0.019
 1527SOL     OW 4715   2.887   2.894   3.217
 1527SOL    HW1 4716   2.844   2.911   3.301
 1527SOL    HW2 4717   2.817   2.903   3.152
 1528SOL     OW 4718   2.326   2.506   3.744
 1528SOL    HW1 4719   2.246   2.520   3.694
 1528SOL    HW2 4720   2.385   2.460   3.684
 1529SOL     OW 4721   2.203   2.886   1.531
 1529SOL    HW1 4722   2.279   2.917   1.582
 1529SOL    HW2 4723   2.241   2.829   1.464
 1530SOL     OW 4724   0.368   2.977   0.103
 1530SOL    HW1 4725   0.318   3.052   0.072
 1530SOL    HW2 4726   0.342   2.966   0.194
 1531SOL     OW 4727   3.778   1.154   1.669
 1531SOL    HW1 4728   3.850   1.130   1.612
 1531SOL    HW2 4729   3.767   1.080   1.728
 1532SOL     OW 4730   0.372   0.388   3.060
 1532SOL    HW1 4731   0.324   0.388   3.143
 1532SOL    HW2 4732   0.316   0.439   3.001
 1533SOL     OW 4733   2.842   2.556   3.224
 1533SOL    HW1 4734   2.769   2.564   3.162
 1533SOL    HW2 4735   2.801   2.550   3.310
 1534SOL     OW 4736   2.406   3.696   1.875
 1534SOL    HW1 4737   2.489   3.659   1.843
 1534SOL    HW2 4738   2.343   3.625   1.863
 1535SOL     OW 4739   3.722   2.768   0.265
 1535SOL    HW1 4740   3.739   2.674   0.276
 1535SOL    HW2 4741   3.628   2.773   0.248
 1536SOL     OW 4742   0.329   3.468   2.433
 1536SOL    HW1 4743   0.352   3.493   2.344
 1536SOL    HW2 4744   0.388   3.520   2.489
 1537SOL     OW 4745   3.016   1.931   3.067
 1537SOL    HW1 4746   3.049   1.870   3.132
 1537SOL    HW2 4747   3.068   1.913   2.988
 1538SOL     OW 4748   2.409   1.034   0.255
 1538SOL    HW1 4749   2.380   1.024   0.164
 1538SOL    HW2 4750   2.485   0.976   0.263
 1539SOL     OW 4751   1.788   2.554   0.233
 1539SOL    HW1 4752   1.797   2.641   0.195
 1539SOL    HW2 4753   1.695   2.533   0.226
 1540SOL     OW 4754   3.258   1.621   0.351
 1540SOL    HW1 4755   3.303   1.686   0.296
 1540SOL    HW2 4756   3.307   1.621   0.433
 1541SOL     OW 4757   1.843   1.830   2.285
 1541SOL    HW1 4758   1.757   1.855   2.319
 1541SOL    HW2 4759   1.903   1.842   2.358
 1542SOL     OW 4760   1.202   0.518   3.721
 1542SOL    HW1 4761   1.274   0.544   3.664
 1542SOL    HW2 4762   1.221   0.561   3.805
 1543SOL     OW 4763   0.205   1.252   3.427
 1543SOL    HW1 4764   0.239   1.265   3.339
 1543SOL    HW2 4765   0.204   1.157   3.439
 1544SOL     OW 4766   1.247   3.795   1.949
 1544SOL    HW1 4767   1.166   3.829   1.910
 1544SOL    HW2 4768   1.236   3.810   2.043
 1545SOL     OW 4769   3.290   0.967   3.785
 1545SOL    HW1 4770   3.311   0.874   3.791
 1545SOL    HW2 4771   3.214   0.971   3.726
 1546SOL     OW 4772   2.786   2.195   3.136
 1546SOL    HW1 4773   2.721   2.220   3.201
 1546SOL    HW2 4774   2.757   2.109   3.104
 1547SOL     OW 4775   2.870   3.072   0.773
 1547SOL    HW1 4776   2.809   3.012   0.817
 1547SOL    HW2 4777   2.953   3.059   0.819
 1548SOL     OW 4778   2.623   1.026   2.470
 1548SOL    HW1 4779   2.718   1.009   2.469
 1548SOL    HW2 4780   2.606   1.062   2.557
 1549SOL     OW 4781   0.746   3.842   1.668
 1549SOL    HW1 4782   0.751   3.881   1.581
 1549SOL    HW2 4783   0.652   3.836   1.687
 1550SOL     OW 4784   1.662   0.223   2.501
 1550SOL    HW1 4785   1.647   0.164   2.574
 1550SOL    HW2 4786   1.590   0.205   2.440
 1551SOL     OW 4787   1.885   0.176   0.120
 1551SOL    HW1 4788   1.951   0.235   0.157
 1551SOL    HW2 4789   1.931   0.093   0.109
 1552SOL     OW 4790   2.058   1.821   1.843
 1552SOL    HW1 4791   2.028   1.832   1.933
 1552SOL    HW2 4792   1.979   1.800   1.794
 1553SOL     OW 4793   0.300  -0.005   2.034
 1553SOL    HW1 4794   0.256   0.033   2.110
 1553SOL    HW2 4795   0.361   0.063   2.005
 1554SOL     OW 4796   0.326   1.419   0.295
 1554SOL    HW1 4797   0.233   1.411   0.316
 1554SOL    HW2 4798   0.363   1.468   0.368
 1555SOL     OW 4799   0.442   1.054   2.375
 1555SOL    HW1 4800   0.437   0.971   2.423
 1555SOL    HW2 4801   0.534   1.077   2.376
 1556SOL     OW 4802   1.758   0.577   1.075
 1556SOL    HW1 4803   1.781   0.495   1.032
 1556SOL    HW2 4804   1.836   0.601   1.126
 1557SOL     OW 4805   2.674   1.938   0.778
 1557SOL    HW1 4806   2.632   1.908   0.858
 1557SOL    HW2 4807   2.623   2.014   0.751
 1558SOL     OW 4808   3.368   0.960   0.340
 1558SOL    HW1 4809   3.309   0.933   0.270
 1558SOL    HW2 4810   3.414   1.036   0.305
 1559SOL     OW 4811   2.667   0.348   3.508
 1559SOL    HW1 4812   2.742   0.405   3.493
 1559SOL    HW2 4813   2.692   0.294   3.583
 1560SOL     OW 4814   1.765   2.989   1.539
 1560SOL    HW1 4815   1.677   2.970   1.507
 1560SOL    HW2 4816   1.764   2.960   1.630
 1561SOL     OW 4817   2.502   0.737   1.892
 1561SOL    HW1 4818   2.548   0.700   1.967
 1561SOL    HW2 4819   2.461   0.663   1.849
 1562SOL     OW 4820   2.936   0.777   1.528
 1562SOL    HW1 4821   2.877   0.806   1.458
 1562SOL    HW2 4822   2.903   0.822   1.607
 1563SOL     OW 4823   1.153   2.565   2.541
 1563SOL    HW1 4824   1.188   2.480   2.513
 1563SOL    HW2 4825   1.110   2.546   2.624
 1564SOL     OW 4826   3.429   2.206   0.482
 1564SOL    HW1 4827   3.370   2.168   0.547
 1564SOL    HW2 4828   3.470   2.280   0.527
 1565SOL     OW 4829   3.874   2.673   3.142
 1565SOL    HW1 4830   3.799   2.620   3.169
 1565SOL    HW2 4831   3.875   2.667   3.046
 1566SOL     OW 4832   0.553   1.196   3.448
 1566SOL    HW1 4833   0.606   1.153   3.515
 1566SOL    HW2 4834   0.517   1.123   3.397
 1567SOL     OW 4835   3.803   2.303   1.201
 1567SOL    HW1 4836   3.807   2.395   1.173
 1567SOL    HW2 4837   3.872   2.260   1.150
 1568SOL     OW 4838   1.908   2.889   2.077
 1568SOL    HW1 4839   1.926   2.963   2.134
 1568SOL    HW2 4840   1.981   2.888   2.014
 1569SOL     OW 4841   2.775   1.645   0.396
 1569SOL    HW1 4842   2.711   1.577   0.376
 1569SOL    HW2 4843   2.755   1.672   0.486
 1570SOL     OW 4844   1.337   3.037   0.070
 1570SOL    HW1 4845   1.322   3.002  -0.017
 1570SOL    HW2 4846   1.409   3.100   0.059
 1571SOL     OW 4847   0.509   3.834   2.670
 1571SOL    HW1 4848   0.537   3.842   2.761
 1571SOL    HW2 4849   0.531   3.918   2.631
 1572SOL     OW 4850   1.987   1.905   0.572
 1572SOL    HW1 4851   2.013   1.831   0.517
 1572SOL    HW2 4852   1.986   1.980   0.512
 1573SOL     OW 4853   3.864   0.090   2.323
 1573SOL    HW1 4854   3.841   0.002   2.351
 1573SOL    HW2 4855   3.915   0.126   2.396
 1574SOL     OW 4856   1.037   3.638   1.403
 1574SOL    HW1 4857   0.945   3.634   1.429
 1574SOL    HW2 4858   1.048   3.566   1.341
 1575SOL     OW 4859   3.334   3.622   1.243
 1575SOL    HW1 4860   3.315   3.640   1.151
 1575SOL    HW2 4861   3.427   3.642   1.253
 1576SOL     OW 4862   2.450   1.983   0.024
 1576SOL    HW1 4863   2.406   1.962   0.106
 1576SOL    HW2 4864   2.492   2.068   0.040
 1577SOL     OW 4865   0.792   3.575   3.286
 1577SOL    HW1 4866   0.860   3.623   3.332
 1577SOL    HW2 4867   0.797   3.486   3.321
 1578SOL     OW 4868   2.028   0.743   2.765
 1578SOL    HW1 4869   2.002   0.828   2.729
 1578SOL    HW2 4870   1.947   0.694   2.771
 1579SOL     OW 4871   1.410   0.481   0.614
 1579SOL    HW1 4872   1.358   0.456   0.538
 1579SOL    HW2 4873   1.347   0.523   0.673
 1580SOL     OW 4874   2.006   3.498   0.506
 1580SOL    HW1 4875   1.925   3.493   0.454
 1580SOL    HW2 4876   2.076   3.482   0.442
 1581SOL     OW 4877   2.917   3.449   0.135
 1581SOL    HW1 4878   2.997   3.482   0.094
 1581SOL    HW2 4879   2.896   3.514   0.202
 1582SOL     OW 4880   3.462   3.575   3.840
 1582SOL    HW1 4881   3.481   3.555   3.748
 1582SOL    HW2 4882   3.503   3.503   3.888
 1583SOL     OW 4883   0.100   0.208   0.150
 1583SOL    HW1 4884   0.128   0.117   0.161
 1583SOL    HW2 4885   0.062   0.232   0.235
 1584SOL     OW 4886   2.806   0.262   1.250
 1584SOL    HW1 4887   2.819   0.167   1.248
 1584SOL    HW2 4888   2.715   0.273   1.276
 1585SOL     OW 4889   0.210   0.314   1.486
 1585SOL    HW1 4890   0.262   0.375   1.435
 1585SOL    HW2 4891   0.263   0.234   1.492
 1586SOL     OW 4892   3.416   0.731   1.514
 1586SOL    HW1 4893   3.410   0.657   1.574
 1586SOL    HW2 4894   3.370   0.703   1.435
 1587SOL     OW 4895   3.201   2.397   3.651
 1587SOL    HW1 4896   3.129   2.421   3.709
 1587SOL    HW2 4897   3.223   2.478   3.606
 1588SOL     OW 4898   2.729   3.151   2.046
 1588SOL    HW1 4899   2.751   3.162   1.953
 1588SOL    HW2 4900   2.732   3.057   2.060
 1589SOL     OW 4901   2.418   1.671   0.711
 1589SOL    HW1 4902   2.442   1.761   0.686
 1589SOL    HW2 4903   2.324   1.676   0.729
 1590SOL     OW 4904   3.446   0.029   1.886
 1590SOL    HW1 4905   3.419   0.110   1.929
 1590SOL    HW2 4906   3.476   0.057   1.799
 1591SOL     OW 4907   1.336   0.001   3.645
 1591SOL    HW1 4908   1.389   0.068   3.601
 1591SOL    HW2 4909   1.279   0.051   3.704
 1592SOL     OW 4910   1.463   3.478   0.870
 1592SOL    HW1 4911   1.387   3.445   0.822
 1592SOL    HW2 4912   1.539   3.445   0.823
 1593SOL     OW 4913   2.805   1.716   2.904
 1593SOL    HW1 4914   2.793   1.683   2.815
 1593SOL    HW2 4915   2.883   1.669   2.936
 1594SOL     OW 4916   0.070   3.677   1.345
 1594SOL    HW1 4917   0.094   3.694   1.436
 1594SOL    HW2 4918   0.063   3.763   1.304
 1595SOL     OW 4919   2.647   2.086   3.573
 1595SOL    HW1 4920   2.627   2.016   3.511
 1595SOL    HW2 4921   2.562   2.126   3.593
 1596SOL     OW 4922   1.253   2.883   2.291
 1596SOL    HW1 4923   1.288   2.951   2.233
 1596SOL    HW2 4924   1.190   2.836   2.237
 1597SOL     OW 4925   3.285   3.155   3.124
 1597SOL    HW1 4926   3.331   3.239   3.123
 1597SOL    HW2 4927   3.280   3.132   3.217
 1598SOL     OW 4928   2.643   2.228   0.795
 1598SOL    HW1 4929   2.601   2.294   0.850
 1598SOL    HW2 4930   2.703   2.278   0.740
 1599SOL     OW 4931   1.354   2.723   3.554
 1599SOL    HW1 4932   1.375   2.699   3.644
 1599SOL    HW2 4933   1.391   2.811   3.544
 1600SOL     OW 4934   0.824   3.805   1.048
 1600SOL    HW1 4935   0.882   3.876   1.076
 1600SOL    HW2 4936   0.840   3.797   0.954
 1601SOL     OW 4937   0.688   2.866   0.405
 1601SOL    HW1 4938   0.728   2.952   0.415
 1601SOL    HW2 4939   0.654   2.845   0.492
 1602SOL     OW 4940   2.454   0.773   2.593
 1602SOL    HW1 4941   2.408   0.824   2.527
 1602SOL    HW2 4942   2.388   0.753   2.659
 1603SOL     OW 4943   3.645   0.017   0.560
 1603SOL    HW1 4944   3.698   0.090   0.592
 1603SOL    HW2 4945   3.588  -0.005   0.634
 1604SOL     OW 4946   1.146   0.709   1.304
 1604SOL    HW1 4947   1.097   0.751   1.375
 1604SOL    HW2 4948   1.081   0.695   1.235
 1605SOL     OW 4949   2.851   0.966   3.001
 1605SOL    HW1 4950   2.762   0.934   3.012
 1605SOL    HW2 4951   2.883   0.921   2.923
 1606SOL     OW 4952   1.750   3.498   1.873
 1606SOL    HW1 4953   1.778   3.422   1.925
 1606SOL    HW2 4954   1.720   3.561   1.938
 1607SOL     OW 4955   3.232   0.336   3.305
 1607SOL    HW1 4956   3.213   0.281   3.228
 1607SOL    HW2 4957   3.170   0.307   3.371
 1608SOL     OW 4958   3.284   3.697   0.995
 1608SOL    HW1 4959   3.258   3.719   0.905
 1608SOL    HW2 4960   3.333   3.774   1.025
 1609SOL     OW 4961   3.736   1.788   3.550
 1609SOL    HW1 4962   3.751   1.744   3.633
 1609SOL    HW2 4963   3.658   1.842   3.565
 1610SOL     OW 4964   0.434   1.479   2.305
 1610SOL    HW1 4965   0.346   1.463   2.341
 1610SOL    HW2 4966   0.420   1.544   2.237
 1611SOL     OW 4967   2.737   0.858   0.769
 1611SOL    HW1 4968   2.777   0.793   0.712
 1611SOL    HW2 4969   2.645   0.862   0.741
 1612SOL     OW 4970   0.117   0.361   2.178
 1612SOL    HW1 4971   0.027   0.392   2.188
 1612SOL    HW2 4972   0.138   0.321   2.263
 1613SOL     OW 4973   2.495   2.311   0.428
 1613SOL    HW1 4974   2.586   2.284   0.422
 1613SOL    HW2 4975   2.466   2.281   0.515
 1614SOL     OW 4976   2.817   2.830   3.660
 1614SOL    HW1 4977   2.799   2.736   3.666
 1614SOL    HW2 4978   2.735   2.869   3.630
 1615SOL     OW 4979   2.821   0.406   2.220
 1615SOL    HW1 4980   2.790   0.425   2.132
 1615SOL    HW2 4981   2.791   0.317   2.238
 1616SOL     OW 4982   0.580   2.647   3.241
 1616SOL    HW1 4983   0.652   2.705   3.216
 1616SOL    HW2 4984   0.543   2.617   3.157
 1617SOL     OW 4985   3.263   2.138   0.717
 1617SOL    HW1 4986   3.285   2.090   0.797
 1617SOL    HW2 4987   3.193   2.087   0.677
 1618SOL     OW 4988   3.606   2.018   0.778
 1618SOL    HW1 4989   3.639   1.929   0.775
 1618SOL    HW2 4990   3.572   2.028   0.867
 1619SOL     OW 4991   3.197   3.718   1.483
 1619SOL    HW1 4992   3.151   3.635   1.491
 1619SOL    HW2 4993   3.253   3.708   1.406
 1620SOL     OW 4994   0.045   2.180   1.090
 1620SOL    HW1 4995   0.017   2.125   1.164
 1620SOL    HW2 4996   0.139   2.163   1.083
 1621SOL     OW 4997   2.725   2.468   2.338
 1621SOL    HW1 4998   2.791   2.534   2.316
 1621SOL    HW2 4999   2.658   2.479   2.270
 1622SOL     OW 5000   2.470   3.029   0.678
 1622SOL    HW1 5001   2.458   2.944   0.635
 1622SOL    HW2 5002   2.447   3.014   0.769
 1623SOL     OW 5003   0.590   0.870   0.082
 1623SOL    HW1 5004   0.647   0.840   0.153
 1623SOL    HW2 5005   0.516   0.911   0.126
 1624SOL     OW 5006   0.858   0.262   3.768
 1624SOL    HW1 5007   0.869   0.234   3.677
 1624SOL    HW2 5008   0.939   0.235   3.811
 1625SOL     OW 5009   0.091   2.689   0.892
 1625SOL    HW1 5010   0.176   2.681   0.849
 1625SOL    HW2 5011   0.090   2.619   0.957
 1626SOL     OW 5012   2.780   2.893   1.001
 1626SOL    HW1 5013   2.854   2.849   0.959
 1626SOL    HW2 5014   2.761   2.838   1.077
 1627SOL     OW 5015   1.568   3.920   2.978
 1627SOL    HW1 5016   1.523   3.841   2.947
 1627SOL    HW2 5017   1.594   3.898   3.068
 1628SOL     OW 5018   1.324   3.884   1.657
 1628SOL    HW1 5019   1.310   3.791   1.642
 1628SOL    HW2 5020   1.343   3.920   1.570
 1629SOL     OW 5021   2.034   2.587   3.578
 1629SOL    HW1 5022   1.964   2.612   3.518
 1629SOL    HW2 5023   1.988   2.560   3.658
 1630SOL     OW 5024   2.291   0.286   2.358
 1630SOL    HW1 5025   2.235   0.216   2.325
 1630SOL    HW2 5026   2.239   0.326   2.428
 1631SOL     OW 5027   3.703   0.542   3.279
 1631SOL    HW1 5028   3.764   0.531   3.353
 1631SOL    HW2 5029   3.619   0.512   3.313
 1632SOL     OW 5030   2.870   2.143   0.941
 1632SOL    HW1 5031   2.949   2.131   0.889
 1632SOL    HW2 5032   2.803   2.092   0.896
 1633SOL     OW 5033   1.235   0.661   2.971
 1633SOL    HW1 5034   1.253   0.729   3.037
 1633SOL    HW2 5035   1.321   0.626   2.949
 1634SOL     OW 5036   1.554   2.095   0.052
 1634SOL    HW1 5037   1.477   2.054   0.012
 1634SOL    HW2 5038   1.533   2.100   0.145
 1635SOL     OW 5039   3.819   0.569   2.590
 1635SOL    HW1 5040   3.725   0.567   2.573
 1635SOL    HW2 5041   3.826   0.564   2.686
 1636SOL     OW 5042   0.621   0.995   3.726
 1636SOL    HW1 5043   0.683   0.930   3.693
 1636SOL    HW2 5044   0.623   0.982   3.821
 1637SOL     OW 5045   2.010   0.044   1.525
 1637SOL    HW1 5046   1.950  -0.029   1.510
 1637SOL    HW2 5047   2.094   0.003   1.545
 1638SOL     OW 5048   3.199   1.362   0.684
 1638SOL    HW1 5049   3.212   1.336   0.776
 1638SOL    HW2 5050   3.104   1.369   0.675
 1639SOL     OW 5051   1.011   2.788   0.137
 1639SOL    HW1 5052   1.092   2.739   0.127
 1639SOL    HW2 5053   1.037   2.879   0.123
 1640SOL     OW 5054   3.566   3.592   3.402
 1640SOL    HW1 5055   3.611   3.595   3.486
 1640SOL    HW2 5056   3.609   3.659   3.349
 1641SOL     OW 5057   3.798   2.288   2.924
 1641SOL    HW1 5058   3.754   2.215   2.968
 1641SOL    HW2 5059   3.737   2.314   2.855
 1642SOL     OW 5060   1.678   3.923   0.826
 1642SOL    HW1 5061   1.647   3.861   0.893
 1642SOL    HW2 5062   1.646   4.008   0.855
 1643SOL     OW 5063   1.761   2.967   0.812
 1643SOL    HW1 5064   1.713   2.891   0.778
 1643SOL    HW2 5065   1.695   3.018   0.860
 1644SOL     OW 5066   1.186   0.609   0.685
 1644SOL    HW1 5067   1.138   0.612   0.769
 1644SOL    HW2 5068   1.123   0.639   0.620
 1645SOL     OW 5069   2.021   1.473   2.988
 1645SOL    HW1 5070   1.952   1.458   3.052
 1645SOL    HW2 5071   1.995   1.555   2.944
 1646SOL     OW 5072   0.073   1.070   1.573
 1646SOL    HW1 5073   0.168   1.058   1.573
 1646SOL    HW2 5074   0.038   0.982   1.587
 1647SOL     OW 5075   1.191   0.823   3.821
 1647SOL    HW1 5076   1.200   0.918   3.818
 1647SOL    HW2 5077   1.113   0.808   3.875
 1648SOL     OW 5078   2.960   3.585   1.424
 1648SOL    HW1 5079   2.867   3.593   1.406
 1648SOL    HW2 5080   2.965   3.531   1.503
 1649SOL     OW 5081   3.520   1.208   2.553
 1649SOL    HW1 5082   3.593   1.238   2.499
 1649SOL    HW2 5083   3.493   1.125   2.514
 1650SOL     OW 5084   1.953   2.271   1.790
 1650SOL    HW1 5085   1.953   2.367   1.786
 1650SOL    HW2 5086   1.881   2.250   1.851
 1651SOL     OW 5087   2.239   0.412   3.160
 1651SOL    HW1 5088   2.226   0.415   3.255
 1651SOL    HW2 5089   2.317   0.465   3.145
 1652SOL     OW 5090   0.163   0.273   1.075
 1652SOL    HW1 5091   0.256   0.291   1.081
 1652SOL    HW2 5092   0.121   0.358   1.090
 1653SOL     OW 5093   2.408   3.849   2.174
 1653SOL    HW1 5094   2.438   3.786   2.108
 1653SOL    HW2 5095   2.314   3.832   2.181
 1654SOL     OW 5096   1.437   2.577   3.150
 1654SOL    HW1 5097   1.364   2.638   3.154
 1654SOL    HW2 5098   1.428   2.534   3.065
 1655SOL     OW 5099   1.412   0.732   1.221
 1655SOL    HW1 5100   1.330   0.697   1.255
 1655SOL    HW2 5101   1.409   0.716   1.127
 1656SOL     OW 5102   1.382   1.542   3.246
 1656SOL    HW1 5103   1.425   1.521   3.329
 1656SOL    HW2 5104   1.448   1.521   3.179
 1657SOL     OW 5105   1.028   2.771   2.078
 1657SOL    HW1 5106   1.086   2.750   2.005
 1657SOL    HW2 5107   0.940   2.754   2.044
 1658SOL     OW 5108   1.255   0.193   2.865
 1658SOL    HW1 5109   1.262   0.106   2.825
 1658SOL    HW2 5110   1.189   0.183   2.934
 1659SOL     OW 5111   2.644   1.844   2.517
 1659SOL    HW1 5112   2.732   1.877   2.532
 1659SOL    HW2 5113   2.607   1.903   2.451
 1660SOL     OW 5114   0.787   0.261   3.049
 1660SOL    HW1 5115   0.818   0.329   3.109
 1660SOL    HW2 5116   0.867   0.216   3.021
 1661SOL     OW 5117   2.109   3.742   1.730
 1661SOL    HW1 5118   2.133   3.747   1.637
 1661SOL    HW2 5119   2.036   3.681   1.733
 1662SOL     OW 5120   0.825   1.540   2.502
 1662SOL    HW1 5121   0.769   1.487   2.560
 1662SOL    HW2 5122   0.771   1.616   2.481
 1663SOL     OW 5123   1.803   2.226   0.992
 1663SOL    HW1 5124   1.855   2.229   1.073
 1663SOL    HW2 5125   1.861   2.186   0.927
 1664SOL     OW 5126   3.684   1.628   3.779
 1664SOL    HW1 5127   3.602   1.671   3.754
 1664SOL    HW2 5128   3.666   1.591   3.865
 1665SOL     OW 5129   0.981   2.455   0.181
 1665SOL    HW1 5130   0.919   2.494   0.243
 1665SOL    HW2 5131   0.944   2.475   0.095
 1666SOL     OW 5132   2.737   3.348   3.450
 1666SOL    HW1 5133   2.695   3.421   3.405
 1666SOL    HW2 5134   2.828   3.374   3.460
 1667SOL     OW 5135   3.835   1.858   2.513
 1667SOL    HW1 5136   3.871   1.945   2.497
 1667SOL    HW2 5137   3.788   1.866   2.596
 1668SOL     OW 5138   2.641   2.517   0.633
 1668SOL    HW1 5139   2.582   2.554   0.698
 1668SOL    HW2 5140   2.644   2.583   0.563
 1669SOL     OW 5141   3.940   2.107   2.528
 1669SOL    HW1 5142   3.938   2.137   2.619
 1669SOL    HW2 5143   3.995   2.171   2.483
 1670SOL     OW 5144   2.042   0.325   0.610
 1670SOL    HW1 5145   2.067   0.247   0.659
 1670SOL    HW2 5146   1.990   0.292   0.537
 1671SOL     OW 5147   0.067   3.628   2.511
 1671SOL    HW1 5148   0.136   3.575   2.472
 1671SOL    HW2 5149   0.091   3.635   2.603
 1672SOL     OW 5150   0.782   0.563   0.348
 1672SOL    HW1 5151   0.786   0.483   0.296
 1672SOL    HW2 5152   0.688   0.579   0.361
 1673SOL     OW 5153   1.245   3.254   1.867
 1673SOL    HW1 5154   1.310   3.266   1.936
 1673SOL    HW2 5155   1.203   3.339   1.858
 1674SOL     OW 5156   3.745   3.081   3.744
 1674SOL    HW1 5157   3.686   3.007   3.760
 1674SOL    HW2 5158   3.814   3.044   3.688
 1675SOL     OW 5159   3.108   3.218   0.261
 1675SOL    HW1 5160   3.124   3.312   0.263
 1675SOL    HW2 5161   3.049   3.203   0.336
 1676SOL     OW 5162   2.388   3.387   3.698
 1676SOL    HW1 5163   2.293   3.395   3.688
 1676SOL    HW2 5164   2.413   3.316   3.640
 1677SOL     OW 5165   1.692   0.199   2.147
 1677SOL    HW1 5166   1.637   0.221   2.222
 1677SOL    HW2 5167   1.716   0.284   2.109
 1678SOL     OW 5168   2.041   1.056   1.592
 1678SOL    HW1 5169   2.006   1.080   1.678
 1678SOL    HW2 5170   2.009   1.124   1.533
 1679SOL     OW 5171   3.810   3.528   1.283
 1679SOL    HW1 5172   3.894   3.568   1.309
 1679SOL    HW2 5173   3.751   3.549   1.356
 1680SOL     OW 5174   3.675   1.394   0.726
 1680SOL    HW1 5175   3.766   1.397   0.695
 1680SOL    HW2 5176   3.626   1.357   0.653
 1681SOL     OW 5177   0.245   1.407   3.724
 1681SOL    HW1 5178   0.285   1.467   3.787
 1681SOL    HW2 5179   0.154   1.436   3.717
 1682SOL     OW 5180   1.704   1.711   2.569
 1682SOL    HW1 5181   1.790   1.711   2.611
 1682SOL    HW2 5182   1.683   1.618   2.559
 1683SOL     OW 5183   2.405   1.065   2.127
 1683SOL    HW1 5184   2.375   0.976   2.146
 1683SOL    HW2 5185   2.366   1.086   2.042
 1684SOL     OW 5186   2.764   0.144   2.501
 1684SOL    HW1 5187   2.675   0.114   2.480
 1684SOL    HW2 5188   2.754   0.237   2.519
 1685SOL     OW 5189   0.185   0.248   2.425
 1685SOL    HW1 5190   0.214   0.288   2.507
 1685SOL    HW2 5191   0.151   0.162   2.450
 1686SOL     OW 5192   0.775   3.611   1.499
 1686SOL    HW1 5193   0.785   3.681   1.563
 1686SOL    HW2 5194   0.685   3.580   1.511
 1687SOL     OW 5195   0.139   2.573   2.599
 1687SOL    HW1 5196   0.142   2.668   2.592
 1687SOL    HW2 5197   0.228   2.544   2.581
 1688SOL     OW 5198   2.857   3.248   1.793
 1688SOL    HW1 5199   2.899   3.177   1.841
 1688SOL    HW2 5200   2.926   3.285   1.739
 1689SOL     OW 5201   1.831   0.350   0.957
 1689SOL    HW1 5202   1.915   0.357   1.004
 1689SOL    HW2 5203   1.837   0.267   0.909
 1690SOL     OW 5204   3.271   1.274   2.023
 1690SOL    HW1 5205   3.176   1.285   2.026
 1690SOL    HW2 5206   3.300   1.292   2.113
 1691SOL     OW 5207   2.144   3.776   2.219
 1691SOL    HW1 5208   2.099   3.751   2.138
 1691SOL    HW2 5209   2.107   3.719   2.286
 1692SOL     OW 5210   1.258   0.016  -0.018
 1692SOL    HW1 5211   1.246  -0.050   0.050
 1692SOL    HW2 5212   1.350   0.043  -0.009
 1693SOL     OW 5213   2.458   3.288   0.788
 1693SOL    HW1 5214   2.485   3.209   0.742
 1693SOL    HW2 5215   2.363   3.289   0.779
 1694SOL     OW 5216   2.316   1.415   2.527
 1694SOL    HW1 5217   2.280   1.484   2.582
 1694SOL    HW2 5218   2.370   1.461   2.463
 1695SOL     OW 5219   2.268   0.848   2.835
 1695SOL    HW1 5220   2.175   0.830   2.820
 1695SOL    HW2 5221   2.283   0.933   2.795
 1696SOL     OW 5222   3.632   0.755   3.653
 1696SOL    HW1 5223   3.607   0.666   3.677
 1696SOL    HW2 5224   3.549   0.800   3.638
 1697SOL     OW 5225   0.118   3.437   1.699
 1697SOL    HW1 5226   0.089   3.382   1.772
 1697SOL    HW2 5227   0.190   3.387   1.659
 1698SOL     OW 5228   2.954   1.816   2.216
 1698SOL    HW1 5229   2.984   1.740   2.166
 1698SOL    HW2 5230   2.914   1.873   2.150
 1699SOL     OW 5231   0.466   3.780   1.705
 1699SOL    HW1 5232   0.396   3.791   1.769
 1699SOL    HW2 5233   0.478   3.685   1.700
 1700SOL     OW 5234   2.203   1.366   0.379
 1700SOL    HW1 5235   2.178   1.437   0.319
 1700SOL    HW2 5236   2.223   1.411   0.461
 1701SOL     OW 5237   1.803   0.587   2.796
 1701SOL    HW1 5238   1.709   0.601   2.793
 1701SOL    HW2 5239   1.822   0.530   2.721
 1702SOL     OW 5240   1.290   2.119   3.128
 1702SOL    HW1 5241   1.365   2.095   3.183
 1702SOL    HW2 5242   1.214   2.108   3.184
 1703SOL     OW 5243   3.745   3.301   2.283
 1703SOL    HW1 5244   3.764   3.357   2.208
 1703SOL    HW2 5245   3.765   3.356   2.360
 1704SOL     OW 5246   2.181   3.209   1.045
 1704SOL    HW1 5247   2.130   3.130   1.026
 1704SOL    HW2 5248   2.130   3.280   1.005
 1705SOL     OW 5249   2.788   3.887   0.827
 1705SOL    HW1 5250   2.875   3.915   0.798
 1705SOL    HW2 5251   2.804   3.835   0.906
 1706SOL     OW 5252   1.338   3.674   3.692
 1706SOL    HW1 5253   1.413   3.676   3.751
 1706SOL    HW2 5254   1.323   3.765   3.669
 1707SOL     OW 5255   3.254   3.203   2.101
 1707SOL    HW1 5256   3.316   3.133   2.123
 1707SOL    HW2 5257   3.233   3.244   2.185
 1708SOL     OW 5258   2.845   3.137   3.816
 1708SOL    HW1 5259   2.823   3.149   3.908
 1708SOL    HW2 5260   2.870   3.225   3.786
 1709SOL     OW 5261   3.728   3.950   0.045
 1709SOL    HW1 5262   3.773   3.882   0.094
 1709SOL    HW2 5263   3.666   3.988   0.107
 1710SOL     OW 5264   0.759   3.511   1.952
 1710SOL    HW1 5265   0.724   3.444   1.894
 1710SOL    HW2 5266   0.773   3.466   2.036
 1711SOL     OW 5267   3.088   2.223   1.419
 1711SOL    HW1 5268   3.081   2.140   1.466
 1711SOL    HW2 5269   3.015   2.221   1.356
 1712SOL     OW 5270   0.966   2.255   2.327
 1712SOL    HW1 5271   0.887   2.207   2.303
 1712SOL    HW2 5272   0.985   2.310   2.250
 1713SOL     OW 5273   1.699   0.042   0.578
 1713SOL    HW1 5274   1.725   0.018   0.667
 1713SOL    HW2 5275   1.652   0.125   0.589
 1714SOL     OW 5276   0.161   1.920   0.380
 1714SOL    HW1 5277   0.133   1.925   0.472
 1714SOL    HW2 5278   0.108   1.986   0.335
 1715SOL     OW 5279   1.860   0.786   0.847
 1715SOL    HW1 5280   1.821   0.698   0.851
 1715SOL    HW2 5281   1.946   0.772   0.808
 1716SOL     OW 5282   2.383   3.680   2.483
 1716SOL    HW1 5283   2.390   3.639   2.397
 1716SOL    HW2 5284   2.474   3.691   2.511
 1717SOL     OW 5285   0.194   3.765   2.819
 1717SOL    HW1 5286   0.186   3.833   2.886
 1717SOL    HW2 5287   0.287   3.744   2.816
 1718SOL     OW 5288   2.078   3.665   3.461
 1718SOL    HW1 5289   2.124   3.601   3.405
 1718SOL    HW2 5290   2.137   3.678   3.535
 1719SOL     OW 5291   2.836   3.041   2.810
 1719SOL    HW1 5292   2.791   3.122   2.834
 1719SOL    HW2 5293   2.928   3.058   2.830
 1720SOL     OW 5294   0.509   3.572   3.273
 1720SOL    HW1 5295   0.598   3.538   3.273
 1720SOL    HW2 5296   0.455   3.499   3.305
 1721SOL     OW 5297   2.898   2.282   3.551
 1721SOL    HW1 5298   2.846   2.282   3.470
 1721SOL    HW2 5299   2.943   2.366   3.550
 1722SOL     OW 5300   1.238   0.224   0.527
 1722SOL    HW1 5301   1.192   0.144   0.551
 1722SOL    HW2 5302   1.172   0.277   0.482
 1723SOL     OW 5303   0.352   0.662   1.997
 1723SOL    HW1 5304   0.271   0.709   1.981
 1723SOL    HW2 5305   0.418   0.710   1.947
 1724SOL     OW 5306   2.326   1.459   2.864
 1724SOL    HW1 5307   2.377   1.388   2.903
 1724SOL    HW2 5308   2.238   1.448   2.899
 1725SOL     OW 5309   2.023   3.073   1.410
 1725SOL    HW1 5310   1.938   3.039   1.437
 1725SOL    HW2 5311   2.086   3.012   1.449
 1726SOL     OW 5312   1.850   0.597   2.411
 1726SOL    HW1 5313   1.913   0.668   2.423
 1726SOL    HW2 5314   1.879   0.551   2.333
 1727SOL     OW 5315   0.139   2.496   1.586
 1727SOL    HW1 5316   0.108   2.418   1.540
 1727SOL    HW2 5317   0.066   2.558   1.582
 1728SOL     OW 5318   3.928   2.608   0.682
 1728SOL    HW1 5319   3.979   2.634   0.759
 1728SOL    HW2 5320   3.851   2.564   0.719
 1729SOL     OW 5321   1.480   0.962   1.412
 1729SOL    HW1 5322   1.460   0.897   1.345
 1729SOL    HW2 5323   1.486   0.912   1.493
 1730SOL     OW 5324   2.735   3.283   0.466
 1730SOL    HW1 5325   2.644   3.274   0.439
 1730SOL    HW2 5326   2.752   3.206   0.520
 1731SOL     OW 5327   2.015   2.111   2.132
 1731SOL    HW1 5328   1.976   2.054   2.198
 1731SOL    HW2 5329   1.941   2.139   2.078
 1732SOL     OW 5330   3.138   2.406   0.683
 1732SOL    HW1 5331   3.158   2.470   0.751
 1732SOL    HW2 5332   3.211   2.344   0.685
 1733SOL     OW 5333   1.561   1.925   2.464
 1733SOL    HW1 5334   1.490   1.879   2.418
 1733SOL    HW2 5335   1.614   1.855   2.501
 1734SOL     OW 5336   2.550   2.164   2.110
 1734SOL    HW1 5337   2.575   2.197   2.024
 1734SOL    HW2 5338   2.455   2.158   2.106
 1735SOL     OW 5339   3.690   2.829   3.807
 1735SOL    HW1 5340   3.752   2.777   3.859
 1735SOL    HW2 5341   3.607   2.783   3.816
 1736SOL     OW 5342   0.696   3.296   1.814
 1736SOL    HW1 5343   0.688   3.227   1.879
 1736SOL    HW2 5344   0.620   3.283   1.756
 1737SOL     OW 5345  -0.010   3.709   3.542
 1737SOL    HW1 5346  -0.030   3.711   3.449
 1737SOL    HW2 5347   0.075   3.752   3.549
 1738SOL     OW 5348   3.585   0.640   1.839
 1738SOL    HW1 5349   3.559   0.732   1.836
 1738SOL    HW2 5350   3.565   0.613   1.928
 1739SOL     OW 5351   1.978   1.788   0.335
 1739SOL    HW1 5352   1.904   1.835   0.296
 1739SOL    HW2 5353   2.007   1.727   0.267
 1740SOL     OW 5354   3.379   3.009   1.208
 1740SOL    HW1 5355   3.305   2.969   1.253
 1740SOL    HW2 5356   3.340   3.072   1.148
 1741SOL     OW 5357   2.858   2.082   2.800
 1741SOL    HW1 5358   2.766   2.061   2.782
 1741SOL    HW2 5359   2.858   2.177   2.813
 1742SOL     OW 5360   1.926   3.116   2.855
 1742SOL    HW1 5361   1.986   3.162   2.913
 1742SOL    HW2 5362   1.981   3.082   2.785
 1743SOL     OW 5363   3.257   3.586   2.702
 1743SOL    HW1 5364   3.286   3.589   2.793
 1743SOL    HW2 5365   3.310   3.652   2.658
 1744SOL     OW 5366   3.466   2.084   1.009
 1744SOL    HW1 5367   3.380   2.041   1.008
 1744SOL    HW2 5368   3.446   2.177   0.994
 1745SOL     OW 5369   3.360   1.766   0.161
 1745SOL    HW1 5370   3.352   1.749   0.067
 1745SOL    HW2 5371   3.369   1.861   0.167
 1746SOL     OW 5372   0.796   0.631   1.846
 1746SOL    HW1 5373   0.822   0.723   1.842
 1746SOL    HW2 5374   0.814   0.605   1.937
 1747SOL     OW 5375   2.342   1.302   0.810
 1747SOL    HW1 5376   2.302   1.215   0.814
 1747SOL    HW2 5377   2.274   1.361   0.844
 1748SOL     OW 5378   0.309   1.550   3.311
 1748SOL    HW1 5379   0.306   1.532   3.405
 1748SOL    HW2 5380   0.239   1.614   3.297
 1749SOL     OW 5381   3.499   0.862   2.400
 1749SOL    HW1 5382   3.446   0.808   2.341
 1749SOL    HW2 5383   3.585   0.866   2.358
 1750SOL     OW 5384   2.486   0.251   1.848
 1750SOL    HW1 5385   2.488   0.240   1.943
 1750SOL    HW2 5386   2.427   0.182   1.817
 1751SOL     OW 5387   0.537   3.781   3.473
 1751SOL    HW1 5388   0.620   3.812   3.510
 1751SOL    HW2 5389   0.564   3.714   3.410
 1752SOL     OW 5390   0.174   3.428   2.038
 1752SOL    HW1 5391   0.240   3.360   2.049
 1752SOL    HW2 5392   0.219   3.498   1.991
 1753SOL     OW 5393   2.579   1.460   0.364
 1753SOL    HW1 5394   2.522   1.433   0.437
 1753SOL    HW2 5395   2.539   1.421   0.287
 1754SOL     OW 5396   1.364   3.800   1.205
 1754SOL    HW1 5397   1.306   3.858   1.255
 1754SOL    HW2 5398   1.441   3.790   1.261
 1755SOL     OW 5399   2.982   1.206   2.749
 1755SOL    HW1 5400   2.898   1.175   2.783
 1755SOL    HW2 5401   2.969   1.301   2.738
 1756SOL     OW 5402   3.784   3.184   0.307
 1756SOL    HW1 5403   3.812   3.158   0.220
 1756SOL    HW2 5404   3.860   3.227   0.346
 1757SOL     OW 5405   0.057   0.721   3.343
 1757SOL    HW1 5406   0.125   0.724   3.411
 1757SOL    HW2 5407  -0.019   0.681   3.386
 1758SOL     OW 5408   1.750   3.885   3.422
 1758SOL    HW1 5409   1.844   3.901   3.411
 1758SOL    HW2 5410   1.709   3.966   3.393
 1759SOL     OW 5411   2.281   1.083   3.989
 1759SOL    HW1 5412   2.232   1.018   3.939
 1759SOL    HW2 5413   2.336   1.127   3.924
 1760SOL     OW 5414   1.866   1.653   1.623
 1760SOL    HW1 5415   1.829   1.694   1.545
 1760SOL    HW2 5416   1.800   1.588   1.649
 1761SOL     OW 5417   2.421   3.166   1.703
 1761SOL    HW1 5418   2.359   3.224   1.657
 1761SOL    HW2 5419   2.504   3.214   1.702
 1762SOL     OW 5420   1.082   3.119   2.372
 1762SOL    HW1 5421   1.126   3.106   2.456
 1762SOL    HW2 5422   1.154   3.127   2.309
 1763SOL     OW 5423   2.767   0.724   2.518
 1763SOL    HW1 5424   2.741   0.733   2.610
 1763SOL    HW2 5425   2.695   0.763   2.469
 1764SOL     OW 5426   3.041   1.466   1.903
 1764SOL    HW1 5427   2.977   1.395   1.894
 1764SOL    HW2 5428   2.987   1.546   1.906
 1765SOL     OW 5429   0.073   0.165   0.426
 1765SOL    HW1 5430   0.081   0.204   0.513
 1765SOL    HW2 5431   0.062   0.072   0.443
 1766SOL     OW 5432   3.517   1.246   3.283
 1766SOL    HW1 5433   3.581   1.301   3.239
 1766SOL    HW2 5434   3.563   1.211   3.360
 1767SOL     OW 5435   3.841   2.698   1.889
 1767SOL    HW1 5436   3.817   2.608   1.865
 1767SOL    HW2 5437   3.758   2.744   1.898
 1768SOL     OW 5438   2.255   2.148   1.195
 1768SOL    HW1 5439   2.343   2.110   1.192
 1768SOL    HW2 5440   2.267   2.238   1.165
 1769SOL     OW 5441   2.605   2.572   3.067
 1769SOL    HW1 5442   2.563   2.502   3.017
 1769SOL    HW2 5443   2.536   2.604   3.125
 1770SOL     OW 5444   2.768   1.620   2.607
 1770SOL    HW1 5445   2.760   1.714   2.590
 1770SOL    HW2 5446   2.753   1.578   2.522
 1771SOL     OW 5447   2.774   0.751   2.856
 1771SOL    HW1 5448   2.679   0.751   2.869
 1771SOL    HW2 5449   2.799   0.658   2.860
 1772SOL     OW 5450   0.024   1.484   0.100
 1772SOL    HW1 5451   0.095   1.469   0.037
 1772SOL    HW2 5452   0.039   1.572   0.133
 1773SOL     OW 5453   2.434   0.527   0.315
 1773SOL    HW1 5454   2.372   0.593   0.283
 1773SOL    HW2 5455   2.395   0.496   0.397
 1774SOL     OW 5456   2.891   1.995   3.743
 1774SOL    HW1 5457   2.835   2.042   3.682
 1774SOL    HW2 5458   2.833   1.931   3.785
 1775SOL     OW 5459   2.307   3.380   2.522
 1775SOL    HW1 5460   2.349   3.425   2.450
 1775SOL    HW2 5461   2.243   3.442   2.557
 1776SOL     OW 5462   0.417   2.542   2.538
 1776SOL    HW1 5463   0.474   2.478   2.496
 1776SOL    HW2 5464   0.475   2.593   2.595
 1777SOL     OW 5465   3.717   0.504   1.619
 1777SOL    HW1 5466   3.657   0.543   1.682
 1777SOL    HW2 5467   3.750   0.425   1.662
 1778SOL     OW 5468   3.487   3.032   2.504
 1778SOL    HW1 5469   3.553   2.965   2.483
 1778SOL    HW2 5470   3.483   3.033   2.599
 1779SOL     OW 5471   3.825   2.430   0.451
 1779SOL    HW1 5472   3.731   2.425   0.470
 1779SOL    HW2 5473   3.856   2.503   0.504
 1780SOL     OW 5474   2.208   3.323   0.656
 1780SOL    HW1 5475   2.159   3.258   0.707
 1780SOL    HW2 5476   2.172   3.407   0.685
 1781SOL     OW 5477   0.827   1.183   0.154
 1781SOL    HW1 5478   0.898   1.246   0.149
 1781SOL    HW2 5479   0.748   1.237   0.161
 1782SOL     OW 5480   3.897   0.860   3.648
 1782SOL    HW1 5481   3.858   0.878   3.734
 1782SOL    HW2 5482   3.831   0.889   3.585
 1783SOL     OW 5483   1.135   2.520   0.978
 1783SOL    HW1 5484   1.124   2.476   0.894
 1783SOL    HW2 5485   1.126   2.450   1.043
 1784SOL     OW 5486   3.807   0.939  -0.011
 1784SOL    HW1 5487   3.760   0.944   0.072
 1784SOL    HW2 5488   3.810   1.030  -0.041
 1785SOL     OW 5489   1.575   0.459   1.955
 1785SOL    HW1 5490   1.530   0.543   1.966
 1785SOL    HW2 5491   1.661   0.473   1.994
 1786SOL     OW 5492   1.314   3.014   3.575
 1786SOL    HW1 5493   1.293   3.070   3.650
 1786SOL    HW2 5494   1.264   3.053   3.502
 1787SOL     OW 5495   1.651   1.220   1.615
 1787SOL    HW1 5496   1.704   1.289   1.654
 1787SOL    HW2 5497   1.643   1.154   1.684
 1788SOL     OW 5498   1.038   3.221   0.385
 1788SOL    HW1 5499   1.034   3.314   0.364
 1788SOL    HW2 5500   1.063   3.179   0.302
 1789SOL     OW 5501   0.279   3.669   1.937
 1789SOL    HW1 5502   0.372   3.665   1.961
 1789SOL    HW2 5503   0.250   3.753   1.972
 1790SOL     OW 5504   2.322   1.963   0.807
 1790SOL    HW1 5505   2.277   2.016   0.872
 1790SOL    HW2 5506   2.381   1.907   0.857
 1791SOL     OW 5507   2.317   1.307   1.720
 1791SOL    HW1 5508   2.286   1.393   1.694
 1791SOL    HW2 5509   2.369   1.324   1.799
 1792SOL     OW 5510   1.739   3.679   2.706
 1792SOL    HW1 5511   1.675   3.633   2.760
 1792SOL    HW2 5512   1.822   3.670   2.755
 1793SOL     OW 5513   3.343   1.553   0.597
 1793SOL    HW1 5514   3.308   1.624   0.651
 1793SOL    HW2 5515   3.309   1.473   0.636
 1794SOL     OW 5516   1.576   3.205   0.068
 1794SOL    HW1 5517   1.567   3.217   0.162
 1794SOL    HW2 5518   1.532   3.280   0.029
 1795SOL     OW 5519   1.235   1.195   2.926
 1795SOL    HW1 5520   1.166   1.253   2.895
 1795SOL    HW2 5521   1.196   1.150   3.001
 1796SOL     OW 5522   1.916   2.695   0.448
 1796SOL    HW1 5523   1.856   2.651   0.388
 1796SOL    HW2 5524   1.909   2.645   0.530
 1797SOL     OW 5525   3.339   2.503  -0.006
 1797SOL    HW1 5526   3.397   2.547   0.055
 1797SOL    HW2 5527   3.378   2.417  -0.019
 1798SOL     OW 5528   0.249   3.656   3.956
 1798SOL    HW1 5529   0.336   3.641   3.921
 1798SOL    HW2 5530   0.190   3.610   3.896
 1799SOL     OW 5531   0.027   0.978   3.214
 1799SOL    HW1 5532  -0.040   0.996   3.280
 1799SOL    HW2 5533   0.028   0.883   3.206
 1800SOL     OW 5534   1.415   0.269   3.589
 1800SOL    HW1 5535   1.424   0.312   3.504
 1800SOL    HW2 5536   1.329   0.295   3.621
 1801SOL     OW 5537   0.340   0.076   0.793
 1801SOL    HW1 5538   0.328  -0.017   0.771
 1801SOL    HW2 5539   0.276   0.122   0.738
 1802SOL     OW 5540   2.421   1.190   3.775
 1802SOL    HW1 5541   2.474   1.146   3.708
 1802SOL    HW2 5542   2.422   1.282   3.750
 1803SOL     OW 5543   2.936   2.003   1.999
 1803SOL    HW1 5544   2.945   2.097   1.982
 1803SOL    HW2 5545   2.998   1.962   1.939
 1804SOL     OW 5546   1.955   1.733   2.897
 1804SOL    HW1 5547   1.861   1.750   2.903
 1804SOL    HW2 5548   1.995   1.798   2.955
 1805SOL     OW 5549   2.787   2.297   1.888
 1805SOL    HW1 5550   2.715   2.324   1.831
 1805SOL    HW2 5551   2.801   2.372   1.946
 1806SOL     OW 5552   3.620   2.887   1.294
 1806SOL    HW1 5553   3.670   2.963   1.266
 1806SOL    HW2 5554   3.529   2.911   1.277
 1807SOL     OW 5555   1.049   1.566   2.683
 1807SOL    HW1 5556   1.113   1.578   2.612
 1807SOL    HW2 5557   0.964   1.563   2.639
 1808SOL     OW 5558   2.623   2.796   2.454
 1808SOL    HW1 5559   2.571   2.752   2.522
 1808SOL    HW2 5560   2.686   2.849   2.503
 1809SOL     OW 5561   1.076   1.061   0.011
 1809SOL    HW1 5562   1.114   1.088   0.095
 1809SOL    HW2 5563   1.009   0.997   0.034
 1810SOL     OW 5564   1.614   1.461   3.935
 1810SOL    HW1 5565   1.650   1.479   4.022
 1810SOL    HW2 5566   1.686   1.483   3.875
 1811SOL     OW 5567   3.727   2.220   2.352
 1811SOL    HW1 5568   3.798   2.281   2.332
 1811SOL    HW2 5569   3.753   2.180   2.435
 1812SOL     OW 5570   2.428   3.497   2.269
 1812SOL    HW1 5571   2.504   3.478   2.214
 1812SOL    HW2 5572   2.352   3.477   2.214
 1813SOL     OW 5573   1.124   2.476   1.570
 1813SOL    HW1 5574   1.043   2.486   1.520
 1813SOL    HW2 5575   1.175   2.554   1.550
 1814SOL     OW 5576   0.044   0.130   2.888
 1814SOL    HW1 5577  -0.029   0.079   2.924
 1814SOL    HW2 5578   0.122   0.081   2.913
 1815SOL     OW 5579   0.415   2.598   3.447
 1815SOL    HW1 5580   0.487   2.538   3.468
 1815SOL    HW2 5581   0.426   2.616   3.353
 1816SOL     OW 5582   3.623   3.898   2.071
 1816SOL    HW1 5583   3.590   3.942   2.150
 1816SOL    HW2 5584   3.564   3.926   2.001
 1817SOL     OW 5585   1.053   1.817   0.186
 1817SOL    HW1 5586   1.003   1.824   0.104
 1817SOL    HW2 5587   0.992   1.776   0.247
 1818SOL     OW 5588   1.460   1.819   3.755
 1818SOL    HW1 5589   1.373   1.825   3.716
 1818SOL    HW2 5590   1.463   1.891   3.818
 1819SOL     OW 5591   0.449   0.715   3.132
 1819SOL    HW1 5592   0.448   0.699   3.038
 1819SOL    HW2 5593   0.378   0.661   3.166
 1820SOL     OW 5594   3.630   1.342   3.565
 1820SOL    HW1 5595   3.631   1.318   3.657
 1820SOL    HW2 5596   3.717   1.319   3.533
 1821SOL     OW 5597   0.709   0.318   2.499
 1821SOL    HW1 5598   0.793   0.331   2.455
 1821SOL    HW2 5599   0.702   0.391   2.561
 1822SOL     OW 5600   2.847   2.236   2.299
 1822SOL    HW1 5601   2.830   2.328   2.320
 1822SOL    HW2 5602   2.793   2.218   2.222
 1823SOL     OW 5603   3.479   0.186   1.226
 1823SOL    HW1 5604   3.448   0.254   1.285
 1823SOL    HW2 5605   3.531   0.232   1.160
 1824SOL     OW 5606   1.865   0.876   1.787
 1824SOL    HW1 5607   1.947   0.869   1.738
 1824SOL    HW2 5608   1.807   0.813   1.745
 1825SOL     OW 5609   2.667   1.498   2.382
 1825SOL    HW1 5610   2.634   1.408   2.383
 1825SOL    HW2 5611   2.608   1.545   2.323
 1826SOL     OW 5612   2.818   1.331   0.381
 1826SOL    HW1 5613   2.855   1.366   0.462
 1826SOL    HW2 5614   2.726   1.357   0.385
 1827SOL     OW 5615   2.447   3.471   0.034
 1827SOL    HW1 5616   2.450   3.439  -0.056
 1827SOL    HW2 5617   2.387   3.411   0.079
 1828SOL     OW 5618   3.768   0.088   1.416
 1828SOL    HW1 5619   3.817   0.148   1.359
 1828SOL    HW2 5620   3.760   0.136   1.498
 1829SOL     OW 5621   1.797   1.904   3.255
 1829SOL    HW1 5622   1.838   1.862   3.331
 1829SOL    HW2 5623   1.803   1.997   3.273
 1830SOL     OW 5624   1.049   2.424   1.818
 1830SOL    HW1 5625   1.073   2.484   1.748
 1830SOL    HW2 5626   0.968   2.382   1.787
 1831SOL     OW 5627   0.428   0.572   0.803
 1831SOL    HW1 5628   0.355   0.626   0.831
 1831SOL    HW2 5629   0.506   0.627   0.814
 1832SOL     OW 5630   2.500   1.882   2.820
 1832SOL    HW1 5631   2.543   1.799   2.799
 1832SOL    HW2 5632   2.558   1.949   2.783
 1833SOL     OW 5633   3.054   0.198   1.824
 1833SOL    HW1 5634   3.117   0.162   1.761
 1833SOL    HW2 5635   3.055   0.292   1.807
 1834SOL     OW 5636   0.352   2.967   0.759
 1834SOL    HW1 5637   0.393   2.901   0.703
 1834SOL    HW2 5638   0.269   2.928   0.787
 1835SOL     OW 5639   2.338   1.148   2.711
 1835SOL    HW1 5640   2.348   1.238   2.681
 1835SOL    HW2 5641   2.414   1.102   2.676
 1836SOL     OW 5642   1.257   2.826   2.551
 1836SOL    HW1 5643   1.210   2.744   2.541
 1836SOL    HW2 5644   1.261   2.864   2.463
 1837SOL     OW 5645   1.412   1.665   0.475
 1837SOL    HW1 5646   1.446   1.734   0.532
 1837SOL    HW2 5647   1.398   1.590   0.533
 1838SOL     OW 5648   0.643   0.092   0.157
 1838SOL    HW1 5649   0.682   0.007   0.178
 1838SOL    HW2 5650   0.717   0.152   0.156
 1839SOL     OW 5651   3.620   0.388   2.891
 1839SOL    HW1 5652   3.668   0.315   2.932
 1839SOL    HW2 5653   3.537   0.392   2.938
 1840SOL     OW 5654   2.402   0.518   2.516
 1840SOL    HW1 5655   2.412   0.478   2.602
 1840SOL    HW2 5656   2.442   0.604   2.525
 1841SOL     OW 5657   1.744   3.284   0.457
 1841SOL    HW1 5658   1.831   3.249   0.475
 1841SOL    HW2 5659   1.761   3.369   0.416
 1842SOL     OW 5660   0.955   1.072   2.433
 1842SOL    HW1 5661   0.953   1.129   2.509
 1842SOL    HW2 5662   0.932   0.986   2.467
 1843SOL     OW 5663   3.517   1.598   3.284
 1843SOL    HW1 5664   3.488   1.596   3.375
 1843SOL    HW2 5665   3.464   1.531   3.241
 1844SOL     OW 5666   1.570   3.835   3.950
 1844SOL    HW1 5667   1.596   3.820   3.859
 1844SOL    HW2 5668   1.575   3.930   3.961
 1845SOL     OW 5669   2.765   1.683   3.279
 1845SOL    HW1 5670   2.843   1.643   3.239
 1845SOL    HW2 5671   2.740   1.621   3.348
 1846SOL     OW 5672   0.570   2.908   1.455
 1846SOL    HW1 5673   0.650   2.860   1.475
 1846SOL    HW2 5674   0.579   2.934   1.364
 1847SOL     OW 5675   2.332   3.401   1.879
 1847SOL    HW1 5676   2.307   3.403   1.786
 1847SOL    HW2 5677   2.425   3.379   1.878
 1848SOL     OW 5678   0.291   3.333   0.049
 1848SOL    HW1 5679   0.204   3.329   0.009
 1848SOL    HW2 5680   0.280   3.291   0.134
 1849SOL     OW 5681   3.510   2.963   0.537
 1849SOL    HW1 5682   3.461   3.012   0.471
 1849SOL    HW2 5683   3.599   2.997   0.530
 1850SOL     OW 5684   0.810   2.787   3.627
 1850SOL    HW1 5685   0.721   2.818   3.618
 1850SOL    HW2 5686   0.845   2.834   3.703
 1851SOL     OW 5687   0.726   0.065   2.036
 1851SOL    HW1 5688   0.781   0.141   2.057
 1851SOL    HW2 5689   0.638   0.102   2.025
 1852SOL     OW 5690   3.185   0.899   1.493
 1852SOL    HW1 5691   3.267   0.852   1.504
 1852SOL    HW2 5692   3.117   0.833   1.508
 1853SOL     OW 5693   3.555   3.584   0.292
 1853SOL    HW1 5694   3.634   3.638   0.293
 1853SOL    HW2 5695   3.570   3.523   0.219
 1854SOL     OW 5696   3.450   3.389   1.909
 1854SOL    HW1 5697   3.386   3.373   1.979
 1854SOL    HW2 5698   3.482   3.477   1.927
 1855SOL     OW 5699   2.499  -0.019   1.574
 1855SOL    HW1 5700   2.499   0.076   1.563
 1855SOL    HW2 5701   2.511  -0.032   1.668
 1856SOL     OW 5702   2.267   1.796   3.298
 1856SOL    HW1 5703   2.257   1.729   3.365
 1856SOL    HW2 5704   2.336   1.764   3.241
 1857SOL     OW 5705   0.065  -0.024   1.222
 1857SOL    HW1 5706   0.148  -0.009   1.176
 1857SOL    HW2 5707   0.043   0.061   1.260
 1858SOL     OW 5708   1.129   3.451   3.088
 1858SOL    HW1 5709   1.184   3.394   3.036
 1858SOL    HW2 5710   1.041   3.416   3.078
 1859SOL     OW 5711   0.235   0.251   3.441
 1859SOL    HW1 5712   0.196   0.198   3.510
 1859SOL    HW2 5713   0.286   0.317   3.488
 1860SOL     OW 5714   0.712   1.501   2.198
 1860SOL    HW1 5715   0.712   1.407   2.180
 1860SOL    HW2 5716   0.622   1.520   2.226
 1861SOL     OW 5717   3.753   0.630   3.031
 1861SOL    HW1 5718   3.742   0.595   3.119
 1861SOL    HW2 5719   3.718   0.561   2.974
 1862SOL     OW 5720   1.597   0.900   3.771
 1862SOL    HW1 5721   1.569   0.947   3.693
 1862SOL    HW2 5722   1.686   0.931   3.787
 1863SOL     OW 5723   0.961   0.326   2.777
 1863SOL    HW1 5724   0.974   0.362   2.864
 1863SOL    HW2 5725   0.974   0.401   2.718
 1864SOL     OW 5726   1.436   2.636   3.796
 1864SOL    HW1 5727   1.491   2.562   3.770
 1864SOL    HW2 5728   1.495   2.695   3.842
 1865SOL     OW 5729   3.725   0.894   0.831
 1865SOL    HW1 5730   3.655   0.843   0.872
 1865SOL    HW2 5731   3.689   0.983   0.827
 1866SOL     OW 5732   2.194   3.742   0.339
 1866SOL    HW1 5733   2.202   3.650   0.363
 1866SOL    HW2 5734   2.277   3.762   0.295
 1867SOL     OW 5735   1.959   0.591   0.256
 1867SOL    HW1 5736   1.996   0.679   0.268
 1867SOL    HW2 5737   1.961   0.552   0.343
 1868SOL     OW 5738   0.641   2.999   2.473
 1868SOL    HW1 5739   0.709   3.019   2.409
 1868SOL    HW2 5740   0.636   3.078   2.528
 1869SOL     OW 5741   1.104   3.015   3.315
 1869SOL    HW1 5742   1.031   3.035   3.374
 1869SOL    HW2 5743   1.063   3.006   3.229
 1870SOL     OW 5744   1.630   1.224   3.473
 1870SOL    HW1 5745   1.581   1.155   3.428
 1870SOL    HW2 5746   1.679   1.178   3.542
 1871SOL     OW 5747   2.561   2.329   3.255
 1871SOL    HW1 5748   2.546   2.383   3.177
 1871SOL    HW2 5749   2.491   2.264   3.253
 1872SOL     OW 5750   1.586   3.320   1.358
 1872SOL    HW1 5751   1.572   3.333   1.451
 1872SOL    HW2 5752   1.676   3.349   1.342
 1873SOL     OW 5753   1.257   1.672   0.095
 1873SOL    HW1 5754   1.269   1.670  -0.000
 1873SOL    HW2 5755   1.172   1.715   0.107
 1874SOL     OW 5756   3.213   2.812   0.764
 1874SOL    HW1 5757   3.258   2.808   0.848
 1874SOL    HW2 5758   3.275   2.773   0.702
 1875SOL     OW 5759   2.015   3.754   1.996
 1875SOL    HW1 5760   2.036   3.769   1.903
 1875SOL    HW2 5761   1.931   3.799   2.009
 1876SOL     OW 5762   1.500   1.751   0.248
 1876SOL    HW1 5763   1.442   1.717   0.179
 1876SOL    HW2 5764   1.458   1.725   0.330
 1877SOL     OW 5765   1.286   0.491   1.734
 1877SOL    HW1 5766   1.256   0.400   1.737
 1877SOL    HW2 5767   1.293   0.517   1.826
 1878SOL     OW 5768   1.494   3.787   2.229
 1878SOL    HW1 5769   1.422   3.850   2.220
 1878SOL    HW2 5770   1.520   3.792   2.320
 1879SOL     OW 5771   3.479   0.492   3.668
 1879SOL    HW1 5772   3.549   0.431   3.690
 1879SOL    HW2 5773   3.474   0.490   3.573
 1880SOL     OW 5774   0.063   2.234   2.776
 1880SOL    HW1 5775   0.102   2.150   2.801
 1880SOL    HW2 5776  -0.020   2.238   2.823
 1881SOL     OW 5777   2.278   0.407   0.523
 1881SOL    HW1 5778   2.340   0.334   0.523
 1881SOL    HW2 5779   2.193   0.366   0.540
 1882SOL     OW 5780   0.271   3.746   3.544
 1882SOL    HW1 5781   0.361   3.774   3.527
 1882SOL    HW2 5782   0.248   3.788   3.627
 1883SOL     OW 5783   3.821   2.431   1.790
 1883SOL    HW1 5784   3.910   2.404   1.813
 1883SOL    HW2 5785   3.765   2.360   1.823
 1884SOL     OW 5786   3.678   2.387   3.882
 1884SOL    HW1 5787   3.746   2.350   3.826
 1884SOL    HW2 5788   3.612   2.420   3.822
 1885SOL     OW 5789   2.211   0.985   3.608
 1885SOL    HW1 5790   2.244   1.064   3.652
 1885SOL    HW2 5791   2.127   1.012   3.570
 1886SOL     OW 5792   0.006   0.255   3.268
 1886SOL    HW1 5793   0.097   0.251   3.298
 1886SOL    HW2 5794  -0.032   0.172   3.295
 1887SOL     OW 5795   1.553   3.585   1.552
 1887SOL    HW1 5796   1.559   3.505   1.604
 1887SOL    HW2 5797   1.460   3.607   1.552
 1888SOL     OW 5798   0.833   2.124  -0.004
 1888SOL    HW1 5799   0.784   2.181   0.055
 1888SOL    HW2 5800   0.787   2.040  -0.001
 1889SOL     OW 5801   1.293   2.012   3.893
 1889SOL    HW1 5802   1.247   1.950   3.837
 1889SOL    HW2 5803   1.226   2.044   3.954
 1890SOL     OW 5804   0.320   2.965   2.604
 1890SOL    HW1 5805   0.292   3.048   2.643
 1890SOL    HW2 5806   0.279   2.898   2.659
 1891SOL     OW 5807   0.794   0.677   2.113
 1891SOL    HW1 5808   0.844   0.632   2.181
 1891SOL    HW2 5809   0.801   0.770   2.135
 1892SOL     OW 5810   2.746   1.955   3.057
 1892SOL    HW1 5811   2.729   1.867   3.023
 1892SOL    HW2 5812   2.840   1.967   3.045
 1893SOL     OW 5813   0.988   2.419   2.106
 1893SOL    HW1 5814   0.982   2.514   2.093
 1893SOL    HW2 5815   1.026   2.386   2.024
 1894SOL     OW 5816   3.537   1.533   1.987
 1894SOL    HW1 5817   3.493   1.616   2.006
 1894SOL    HW2 5818   3.581   1.548   1.903
 1895SOL     OW 5819   3.327   0.054   2.965
 1895SOL    HW1 5820   3.386   0.016   3.030
 1895SOL    HW2 5821   3.384   0.076   2.891
 1896SOL     OW 5822   0.144   1.442   2.655
 1896SOL    HW1 5823   0.146   1.524   2.604
 1896SOL    HW2 5824   0.172   1.375   2.593
 1897SOL     OW 5825   0.293   1.790   0.667
 1897SOL    HW1 5826   0.375   1.837   0.653
 1897SOL    HW2 5827   0.226   1.859   0.670
 1898SOL     OW 5828   0.061   2.902   1.446
 1898SOL    HW1 5829   0.051   2.877   1.354
 1898SOL    HW2 5830   0.001   2.976   1.457
 1899SOL     OW 5831   0.391   1.742   1.649
 1899SOL    HW1 5832   0.429   1.704   1.570
 1899SOL    HW2 5833   0.311   1.786   1.619
 1900SOL     OW 5834   1.229   3.852   2.512
 1900SOL    HW1 5835   1.303   3.853   2.573
 1900SOL    HW2 5836   1.182   3.771   2.532
 1901SOL     OW 5837   0.792   0.535   3.167
 1901SOL    HW1 5838   0.746   0.476   3.227
 1901SOL    HW2 5839   0.826   0.605   3.223
 1902SOL     OW 5840   1.788   3.224   1.033
 1902SOL    HW1 5841   1.791   3.313   1.069
 1902SOL    HW2 5842   1.716   3.226   0.970
 1903SOL     OW 5843   1.356   3.061   0.387
 1903SOL    HW1 5844   1.333   3.029   0.300
 1903SOL    HW2 5845   1.394   3.148   0.372
 1904SOL     OW 5846   3.393   2.455   1.670
 1904SOL    HW1 5847   3.384   2.422   1.759
 1904SOL    HW2 5848   3.467   2.408   1.634
 1905SOL     OW 5849   3.054   3.445   1.663
 1905SOL    HW1 5850   3.148   3.431   1.651
 1905SOL    HW2 5851   3.048   3.498   1.742
 1906SOL     OW 5852   3.220   0.939   2.280
 1906SOL    HW1 5853   3.205   0.991   2.359
 1906SOL    HW2 5854   3.283   0.990   2.229
 1907SOL     OW 5855   2.800   1.267   0.770
 1907SOL    HW1 5856   2.799   1.198   0.837
 1907SOL    HW2 5857   2.712   1.263   0.731
 1908SOL     OW 5858   0.675   0.897   3.160
 1908SOL    HW1 5859   0.594   0.905   3.211
 1908SOL    HW2 5860   0.669   0.811   3.119
 1909SOL     OW 5861   0.367   3.882   1.033
 1909SOL    HW1 5862   0.359   3.946   0.962
 1909SOL    HW2 5863   0.295   3.820   1.017
 1910SOL     OW 5864   2.650   2.860   3.052
 1910SOL    HW1 5865   2.640   2.765   3.060
 1910SOL    HW2 5866   2.609   2.882   2.969
 1911SOL     OW 5867   1.985   0.116   3.383
 1911SOL    HW1 5868   2.070   0.132   3.342
 1911SOL    HW2 5869   1.926   0.093   3.311
 1912SOL     OW 5870   2.493   1.815   0.955
 1912SOL    HW1 5871   2.512   1.778   1.041
 1912SOL    HW2 5872   2.465   1.741   0.901
 1913SOL     OW 5873   1.822   2.392   3.426
 1913SOL    HW1 5874   1.885   2.463   3.437
 1913SOL    HW2 5875   1.739   2.436   3.407
 1914SOL     OW 5876   2.854   1.286   1.487
 1914SOL    HW1 5877   2.866   1.373   1.525
 1914SOL    HW2 5878   2.761   1.284   1.462
 1915SOL     OW 5879   2.862   2.339   2.896
 1915SOL    HW1 5880   2.886   2.426   2.927
 1915SOL    HW2 5881   2.848   2.288   2.976
 1916SOL     OW 5882   2.049   1.455   1.822
 1916SOL    HW1 5883   1.966   1.501   1.814
 1916SOL    HW2 5884   2.097   1.504   1.889
 1917SOL     OW 5885   1.546   2.288   1.865
 1917SOL    HW1 5886   1.464   2.288   1.914
 1917SOL    HW2 5887   1.520   2.302   1.774
 1918NA      NA 5888   0.427   2.919   2.417
 1919NA      NA 5889   1.610   2.164   0.867
   3.96100   3.96100   3.96100   0.00000   0.00000   0.00000   0.00000   0.00000   0.00000
