Generated with MDTraj, t= 110.0
 6520
    1MOL     C1    1   1.892   0.707   1.231
    1MOL     C2    2   1.898   0.726   1.093
    1MOL     C3    3   1.995   0.669   1.016
    1MOL     C4    4   2.096   0.604   1.079
    1MOL     C5    5   2.101   0.595   1.220
    1MOL     C6    6   2.002   0.650   1.298
    1MOL     C7    7   1.994   0.675   0.873
    1MOL     N1    8   1.995   0.688   0.760
    1MOL     C8    9   1.996   0.632   1.448
    1MOL     O1   10   2.040   0.536   1.508
    1MOL     O2   11   1.927   0.707   1.508
    1MOL     H1   12   1.808   0.754   1.281
    1MOL     H2   13   1.819   0.790   1.056
    1MOL     H3   14   2.176   0.556   1.022
    1MOL     H4   15   2.186   0.547   1.267
    2OCB     C1   16   2.241   1.235   0.019
    2OCB     C2   17   2.340   1.322   0.267
    2OCB     C3   18   2.379   1.247   0.035
    2OCB     C4   19   2.156   1.276   0.120
    2OCB     C5   20   2.204   1.321   0.241
    2OCB     C6   21   2.432   1.299   0.158
    2OCB     O1   22   2.381   1.362   0.387
    2OCB     C7   23   2.590   1.298   0.180
    2OCB     C8   24   2.425   1.259   0.477
    2OCB     O2   25   2.566   1.253   0.472
    2OCB     C9   26   2.620   1.152   0.390
    2OCB    C10   27   2.641   1.172   0.253
    2OCB    C11   28   2.687   1.063   0.177
    2OCB    C12   29   2.658   1.029   0.446
    2OCB    C13   30   2.726   0.941   0.235
    2OCB    C14   31   2.717   0.927   0.370
    2OCB     O3   32   2.755   0.816   0.430
    2OCB    C15   33   2.772   0.821   0.160
    2OCB    C16   34   2.655   0.729   0.124
    2OCB    C17   35   2.619   0.627   0.211
    2OCB    C18   36   2.653   0.710   0.433
    2OCB     O4   37   2.681   0.611   0.332
    2OCB     O5   38   2.023   1.241   0.118
    2OCB    C19   39   2.182   1.169  -0.108
    2OCB    C20   40   2.170   1.013  -0.096
    2OCB     O6   41   1.964   1.040   0.018
    2OCB    C21   42   2.063   0.960  -0.035
    2OCB    C22   43   2.511   0.544   0.184
    2OCB    C23   44   2.432   0.561   0.070
    2OCB    C24   45   2.052   0.829  -0.014
    2OCB    C25   46   2.148   0.738  -0.051
    2OCB     O7   47   2.316   0.488   0.063
    2OCB     O8   48   2.128   0.607  -0.021
    2OCB    C26   49   2.196   0.555   0.100
    2OCB    C27   50   2.273   0.926  -0.126
    2OCB    C28   51   2.265   0.787  -0.105
    2OCB    C29   52   2.569   0.748   0.012
    2OCB    C30   53   2.375   0.685  -0.134
    2OCB    C31   54   2.465   0.664  -0.013
    2OCB    C32   55   1.985   1.106   0.146
    2OCB    C33   56   2.867   0.852   0.044
    2OCB    C34   57   2.928   0.729  -0.023
    2OCB    C35   58   3.024   0.787  -0.119
    2OCB     O9   59   2.980   0.815  -0.226
    2OCB    C36   60   2.661   1.333   0.048
    2OCB    C37   61   2.799   1.406   0.057
    2OCB    C38   62   2.795   1.525   0.157
    2OCB    O10   63   2.812   1.497   0.271
    2OCB    C39   64   2.255   1.215  -0.235
    2OCB    C40   65   2.219   1.353  -0.283
    2OCB    C41   66   2.336   1.425  -0.353
    2OCB    O11   67   2.387   1.388  -0.457
    2OCB    C42   68   2.451   0.724  -0.265
    2OCB    C43   69   2.556   0.616  -0.306
    2OCB    C44   70   2.604   0.634  -0.447
    2OCB    O12   71   2.551   0.563  -0.534
    2OCB    C45   72   2.372   1.281   0.617
    2OCB    C46   73   2.255   1.297   0.873
    2OCB    C47   74   2.430   1.221   0.725
    2OCB    C48   75   2.246   1.344   0.636
    2OCB    C49   76   2.189   1.354   0.763
    2OCB    C50   77   2.368   1.222   0.851
    2OCB    C51   78   1.869   1.100   0.240
    2OCB    C52   79   1.648   1.082   0.407
    2OCB    C53   80   1.783   0.992   0.236
    2OCB    C54   81   1.842   1.196   0.333
    2OCB    C55   82   1.734   1.191   0.413
    2OCB    C56   83   1.678   0.976   0.321
    2OCB    C57   84   2.103   0.482   0.190
    2OCB    C58   85   1.930   0.340   0.354
    2OCB    C59   86   2.153   0.408   0.297
    2OCB    C60   87   1.963   0.490   0.169
    2OCB    C61   88   1.879   0.411   0.248
    2OCB    C62   89   2.069   0.331   0.371
    2OCB    C63   90   2.637   0.652   0.571
    2OCB    C64   91   2.582   0.539   0.814
    2OCB    C65   92   2.595   0.518   0.579
    2OCB    C66   93   2.669   0.725   0.685
    2OCB    C67   94   2.633   0.667   0.805
    2OCB    C68   95   2.562   0.459   0.703
    2OCB    O13   96   1.712   1.296   0.504
    2OCB    O14   97   1.746   0.420   0.233
    2OCB    O15   98   2.102   0.257   0.480
    2OCB    O16   99   2.074   1.426   0.790
    2OCB    O17  100   2.409   1.140   0.948
    2OCB    O18  101   2.523   0.326   0.723
    2OCB    O19  102   2.652   0.731   0.927
    2OCB    C69  103   1.686   0.537   0.195
    2OCB    C70  104   1.540   0.754   0.115
    2OCB    C71  105   1.672   0.641   0.288
    2OCB    C72  106   1.627   0.542   0.069
    2OCB    C73  107   1.552   0.648   0.024
    2OCB    C74  108   1.606   0.751   0.237
    2OCB    O20  109   1.595   0.863   0.324
    2OCB    C75  110   1.986   1.459   0.697
    2OCB    C76  111   1.809   1.521   0.495
    2OCB    C77  112   1.994   1.588   0.637
    2OCB    C78  113   1.892   1.362   0.658
    2OCB    C79  114   1.803   1.392   0.554
    2OCB    C80  115   1.898   1.618   0.539
    2OCB    C81  116   2.235   0.220   0.511
    2OCB    C82  117   2.502   0.151   0.563
    2OCB    C83  118   2.298   0.117   0.436
    2OCB    C84  119   2.310   0.296   0.599
    2OCB    C85  120   2.442   0.260   0.627
    2OCB    C86  121   2.433   0.074   0.462
    2OCB    C87  122   2.493  -0.049   0.403
    2OCB    O21  123   2.610  -0.072   0.410
    2OCB    C88  124   2.894   1.143   0.995
    2OCB    O22  125   2.993   1.077   1.025
    2OCB    C89  126   1.900   1.751   0.472
    2OCB    O23  127   1.819   1.785   0.380
    2OCB    O24  128   3.134   0.802  -0.083
    2OCB    O25  129   2.700   0.702  -0.468
    2OCB    O26  130   2.383   1.516  -0.292
    2OCB    C90  131   1.488   0.645  -0.110
    2OCB    O27  132   1.497   0.543  -0.178
    2OCB    O28  133   2.896   1.261   0.973
    2OCB    O29  134   2.419  -0.142   0.369
    2OCB    O30  135   1.420   0.740  -0.147
    2OCB    O31  136   1.990   1.828   0.498
    2OCB    O32  137   2.755   1.635   0.121
    2OCB    C91  138   2.530   1.076   0.946
    2OCB    C92  139   2.760   0.929   0.959
    2OCB    C93  140   2.527   0.935   0.926
    2OCB    C94  141   2.654   1.146   0.955
    2OCB    C95  142   2.769   1.068   0.973
    2OCB    C96  143   2.643   0.861   0.937
    2OCB    C97  144   2.390   0.865   0.908
    2OCB    C98  145   1.894   1.218   0.715
    2OCB    C99  146   1.727   0.634   0.436
    2OCB      C  147   2.239   0.400   0.690
    2OCB     H1  148   2.447   1.208  -0.039
    2OCB     H2  149   2.136   1.327   0.325
    2OCB     H3  150   2.609   1.387   0.239
    2OCB     H4  151   2.388   1.159   0.449
    2OCB     H5  152   2.682   1.065   0.069
    2OCB     H6  153   2.645   1.020   0.553
    2OCB     H7  154   2.838   0.765   0.227
    2OCB     H8  155   2.555   0.749   0.402
    2OCB     H9  156   2.080   1.206  -0.118
    2OCB    H10  157   2.480   0.471   0.258
    2OCB    H11  158   1.963   0.786   0.032
    2OCB    H12  159   2.221   0.646   0.155
    2OCB    H13  160   2.361   0.973  -0.167
    2OCB    H14  161   2.597   0.830  -0.053
    2OCB    H15  162   2.323   0.591  -0.155
    2OCB    H16  163   2.070   1.059   0.198
    2OCB    H17  164   2.810   0.905  -0.033
    2OCB    H18  165   2.953   0.907   0.082
    2OCB    H19  166   2.977   0.658   0.045
    2OCB    H20  167   2.845   0.681  -0.074
    2OCB    H21  168   2.598   1.402  -0.009
    2OCB    H22  169   2.680   1.251  -0.021
    2OCB    H23  170   2.885   1.342   0.077
    2OCB    H24  171   2.805   1.455  -0.041
    2OCB    H25  172   2.363   1.204  -0.228
    2OCB    H26  173   2.220   1.140  -0.307
    2OCB    H27  174   2.138   1.336  -0.355
    2OCB    H28  175   2.187   1.416  -0.200
    2OCB    H29  176   2.380   0.739  -0.347
    2OCB    H30  177   2.511   0.815  -0.253
    2OCB    H31  178   2.634   0.617  -0.230
    2OCB    H32  179   2.510   0.518  -0.294
    2OCB    H33  180   2.205   1.303   0.970
    2OCB    H34  181   2.522   1.164   0.713
    2OCB    H35  182   2.205   1.397   0.551
    2OCB    H36  183   1.571   1.077   0.484
    2OCB    H37  184   1.800   0.916   0.160
    2OCB    H38  185   1.903   1.286   0.335
    2OCB    H39  186   1.859   0.281   0.411
    2OCB    H40  187   2.259   0.408   0.320
    2OCB    H41  188   1.925   0.548   0.085
    2OCB    H42  189   2.574   0.497   0.914
    2OCB    H43  190   2.599   0.445   0.499
    2OCB    H44  191   2.704   0.828   0.681
    2OCB    H45  192   1.488   0.848   0.097
    2OCB    H46  193   1.645   0.459   0.000
    2OCB    H47  194   1.737   1.556   0.421
    2OCB    H48  195   2.063   1.664   0.673
    2OCB    H49  196   2.605   0.134   0.593
    2OCB    H50  197   2.239   0.050   0.374
    2OCB    H51  198   2.850   0.876   0.989
    2OCB    H52  199   2.648   1.254   0.965
    2OCB    H53  200   2.395   0.759   0.883
    2OCB    H54  201   2.330   0.861   0.999
    2OCB    H55  202   2.327   0.906   0.829
    2OCB    H56  203   1.993   1.174   0.699
    2OCB    H57  204   1.877   1.227   0.822
    2OCB    H58  205   1.811   1.153   0.687
    2OCB    H59  206   1.781   0.540   0.437
    2OCB    H60  207   1.797   0.713   0.464
    2OCB    H61  208   1.650   0.636   0.514
    2OCB    H62  209   2.283   0.497   0.666
    2OCB    H63  210   2.132   0.402   0.668
    2OCB    H64  211   2.254   0.377   0.795
    3Na+    Na+  212   2.589   0.741   3.343
    4Na+    Na+  213   2.988   2.588   1.173
    5Na+    Na+  214   1.359   1.631   3.356
    6Na+    Na+  215   2.486   1.778   2.641
    7Na+    Na+  216   3.024   1.368   2.209
    8Na+    Na+  217   2.174   3.027   1.085
    9Na+    Na+  218   1.945   1.973   0.330
   10Na+    Na+  219   1.513   0.969   1.605
   11Na+    Na+  220   3.460   1.132   0.521
   12HOH      O  221   3.123   3.107   1.991
   12HOH     H1  222   3.058   3.100   1.921
   12HOH     H2  223   3.205   3.124   1.946
   13HOH      O  224   3.037   3.028   2.732
   13HOH     H1  225   3.047   3.069   2.646
   13HOH     H2  226   2.951   3.058   2.763
   14HOH      O  227   1.699   0.491   1.305
   14HOH     H1  228   1.669   0.572   1.264
   14HOH     H2  229   1.793   0.503   1.317
   15HOH      O  230   3.146   0.218   0.364
   15HOH     H1  231   3.086   0.166   0.415
   15HOH     H2  232   3.135   0.307   0.396
   16HOH      O  233   2.442   2.610   1.782
   16HOH     H1  234   2.405   2.549   1.846
   16HOH     H2  235   2.532   2.580   1.769
   17HOH      O  236   3.824   2.415   1.845
   17HOH     H1  237   3.919   2.409   1.849
   17HOH     H2  238   3.806   2.503   1.811
   18HOH      O  239   0.066   0.542   1.107
   18HOH     H1  240   0.050   0.552   1.014
   18HOH     H2  241   0.042   0.452   1.126
   19HOH      O  242   2.223   1.017   3.455
   19HOH     H1  243   2.162   1.026   3.529
   19HOH     H2  244   2.302   1.062   3.483
   20HOH      O  245   1.277   2.250   1.920
   20HOH     H1  246   1.346   2.263   1.855
   20HOH     H2  247   1.275   2.155   1.933
   21HOH      O  248   1.762   2.088   0.449
   21HOH     H1  249   1.723   2.159   0.399
   21HOH     H2  250   1.768   2.122   0.538
   22HOH      O  251   2.367   0.390   3.521
   22HOH     H1  252   2.440   0.453   3.517
   22HOH     H2  253   2.330   0.392   3.432
   23HOH      O  254   1.259   1.859   3.109
   23HOH     H1  255   1.237   1.935   3.056
   23HOH     H2  256   1.222   1.878   3.195
   24HOH      O  257   2.867   1.232   3.563
   24HOH     H1  258   2.786   1.235   3.614
   24HOH     H2  259   2.904   1.320   3.573
   25HOH      O  260   3.390   2.957   1.587
   25HOH     H1  261   3.328   3.023   1.556
   25HOH     H2  262   3.448   3.004   1.647
   26HOH      O  263   2.925   1.030   3.390
   26HOH     H1  264   2.916   1.108   3.445
   26HOH     H2  265   2.851   1.034   3.330
   27HOH      O  266   3.378   3.788   1.342
   27HOH     H1  267   3.464   3.804   1.304
   27HOH     H2  268   3.319   3.788   1.267
   28HOH      O  269   1.499   1.978   1.868
   28HOH     H1  270   1.509   1.923   1.790
   28HOH     H2  271   1.409   1.962   1.896
   29HOH      O  272   1.944   2.581   3.674
   29HOH     H1  273   2.018   2.621   3.720
   29HOH     H2  274   1.975   2.571   3.584
   30HOH      O  275   2.254   3.386   3.800
   30HOH     H1  276   2.348   3.385   3.816
   30HOH     H2  277   2.246   3.392   3.705
   31HOH      O  278   2.914   0.293   2.157
   31HOH     H1  279   2.921   0.201   2.134
   31HOH     H2  280   2.824   0.316   2.134
   32HOH      O  281   0.955   1.224   2.483
   32HOH     H1  282   0.924   1.306   2.445
   32HOH     H2  283   1.025   1.249   2.542
   33HOH      O  284   0.461   3.976   2.704
   33HOH     H1  285   0.464   3.957   2.610
   33HOH     H2  286   0.550   4.003   2.725
   34HOH      O  287   0.793   3.042   3.846
   34HOH     H1  288   0.705   3.079   3.837
   34HOH     H2  289   0.814   3.009   3.759
   35HOH      O  290   0.166   1.679   3.969
   35HOH     H1  291   0.136   1.591   3.989
   35HOH     H2  292   0.109   1.736   4.022
   36HOH      O  293   1.566   2.277   1.262
   36HOH     H1  294   1.509   2.275   1.185
   36HOH     H2  295   1.655   2.275   1.226
   37HOH      O  296   3.357   0.545   2.104
   37HOH     H1  297   3.287   0.534   2.040
   37HOH     H2  298   3.437   0.550   2.051
   38HOH      O  299   4.019   1.831   2.213
   38HOH     H1  300   3.928   1.810   2.237
   38HOH     H2  301   4.059   1.859   2.294
   39HOH      O  302   2.537   2.404   0.274
   39HOH     H1  303   2.523   2.319   0.233
   39HOH     H2  304   2.623   2.396   0.317
   40HOH      O  305   0.378   3.953   1.835
   40HOH     H1  306   0.379   4.048   1.846
   40HOH     H2  307   0.408   3.939   1.745
   41HOH      O  308   0.763   1.383   0.339
   41HOH     H1  309   0.736   1.425   0.257
   41HOH     H2  310   0.829   1.442   0.376
   42HOH      O  311   3.290   1.806   3.950
   42HOH     H1  312   3.345   1.824   4.026
   42HOH     H2  313   3.339   1.844   3.876
   43HOH      O  314   2.463   3.147   1.843
   43HOH     H1  315   2.538   3.094   1.816
   43HOH     H2  316   2.407   3.150   1.766
   44HOH      O  317   3.125   3.022   3.969
   44HOH     H1  318   3.176   2.946   3.941
   44HOH     H2  319   3.035   2.991   3.970
   45HOH      O  320   3.637   2.000   2.764
   45HOH     H1  321   3.571   2.029   2.827
   45HOH     H2  322   3.605   2.031   2.680
   46HOH      O  323   1.101   2.549   1.214
   46HOH     H1  324   1.179   2.605   1.219
   46HOH     H2  325   1.134   2.461   1.234
   47HOH      O  326   3.107   0.966   3.634
   47HOH     H1  327   3.066   0.904   3.695
   47HOH     H2  328   3.035   0.996   3.579
   48HOH      O  329   0.535   2.958   1.204
   48HOH     H1  330   0.574   3.035   1.245
   48HOH     H2  331   0.549   2.888   1.267
   49HOH      O  332   0.239   2.135   2.312
   49HOH     H1  333   0.178   2.209   2.313
   49HOH     H2  334   0.191   2.064   2.353
   50HOH      O  335   2.531   0.233   0.057
   50HOH     H1  336   2.450   0.256   0.012
   50HOH     H2  337   2.580   0.314   0.061
   51HOH      O  338   0.712   3.356   0.252
   51HOH     H1  339   0.627   3.311   0.253
   51HOH     H2  340   0.700   3.428   0.190
   52HOH      O  341   3.409   2.570   1.867
   52HOH     H1  342   3.466   2.591   1.941
   52HOH     H2  343   3.469   2.543   1.798
   53HOH      O  344   0.396   0.456   1.184
   53HOH     H1  345   0.345   0.400   1.243
   53HOH     H2  346   0.334   0.478   1.114
   54HOH      O  347   2.531   0.516   3.217
   54HOH     H1  348   2.467   0.454   3.183
   54HOH     H2  349   2.550   0.485   3.306
   55HOH      O  350   3.052   0.845   1.318
   55HOH     H1  351   3.070   0.855   1.224
   55HOH     H2  352   3.127   0.885   1.361
   56HOH      O  353   3.731   3.323   3.129
   56HOH     H1  354   3.745   3.397   3.188
   56HOH     H2  355   3.796   3.258   3.156
   57HOH      O  356   0.715   0.068   2.756
   57HOH     H1  357   0.700   0.126   2.831
   57HOH     H2  358   0.746   0.126   2.687
   58HOH      O  359   0.467   2.975   1.993
   58HOH     H1  360   0.507   2.917   2.057
   58HOH     H2  361   0.536   2.993   1.929
   59HOH      O  362   0.910   1.752   0.963
   59HOH     H1  363   0.861   1.700   0.900
   59HOH     H2  364   0.931   1.691   1.034
   60HOH      O  365   3.761   1.783   2.324
   60HOH     H1  366   3.773   1.782   2.419
   60HOH     H2  367   3.775   1.692   2.297
   61HOH      O  368   3.251   0.321   2.661
   61HOH     H1  369   3.241   0.320   2.756
   61HOH     H2  370   3.244   0.229   2.635
   62HOH      O  371   1.510   0.394   1.890
   62HOH     H1  372   1.488   0.301   1.898
   62HOH     H2  373   1.470   0.421   1.807
   63HOH      O  374   1.510   1.073   1.242
   63HOH     H1  375   1.444   1.015   1.280
   63HOH     H2  376   1.576   1.080   1.311
   64HOH      O  377   2.904   2.729   1.399
   64HOH     H1  378   2.822   2.766   1.364
   64HOH     H2  379   2.935   2.793   1.462
   65HOH      O  380   2.825   0.304   0.821
   65HOH     H1  381   2.730   0.302   0.807
   65HOH     H2  382   2.861   0.324   0.735
   66HOH      O  383   3.045   0.461   3.452
   66HOH     H1  384   3.020   0.519   3.524
   66HOH     H2  385   2.995   0.381   3.467
   67HOH      O  386   1.886   3.064   0.743
   67HOH     H1  387   1.837   3.140   0.714
   67HOH     H2  388   1.859   2.994   0.683
   68HOH      O  389   2.549   3.552   0.109
   68HOH     H1  390   2.522   3.563   0.200
   68HOH     H2  391   2.552   3.457   0.096
   69HOH      O  392   1.365   0.301   1.221
   69HOH     H1  393   1.341   0.350   1.300
   69HOH     H2  394   1.292   0.314   1.161
   70HOH      O  395   2.693   0.459   2.732
   70HOH     H1  396   2.742   0.518   2.675
   70HOH     H2  397   2.760   0.422   2.790
   71HOH      O  398   3.734   0.262   2.007
   71HOH     H1  399   3.722   0.215   1.924
   71HOH     H2  400   3.823   0.238   2.035
   72HOH      O  401   2.598   3.698   0.759
   72HOH     H1  402   2.659   3.692   0.686
   72HOH     H2  403   2.625   3.776   0.807
   73HOH      O  404   1.685   2.705   1.614
   73HOH     H1  405   1.626   2.664   1.677
   73HOH     H2  406   1.647   2.791   1.598
   74HOH      O  407   0.731   0.038   2.347
   74HOH     H1  408   0.749   0.109   2.285
   74HOH     H2  409   0.767  -0.040   2.305
   75HOH      O  410   2.151   2.789   1.720
   75HOH     H1  411   2.110   2.822   1.799
   75HOH     H2  412   2.217   2.726   1.751
   76HOH      O  413   0.465   2.978   3.500
   76HOH     H1  414   0.519   3.054   3.522
   76HOH     H2  415   0.376   3.012   3.500
   77HOH      O  416   0.809   2.872   0.822
   77HOH     H1  417   0.769   2.787   0.805
   77HOH     H2  418   0.736   2.927   0.852
   78HOH      O  419   1.420   0.825   2.828
   78HOH     H1  420   1.491   0.889   2.827
   78HOH     H2  421   1.340   0.877   2.834
   79HOH      O  422   1.306   3.936   3.957
   79HOH     H1  423   1.307   4.015   4.011
   79HOH     H2  424   1.365   3.875   4.001
   80HOH      O  425   1.734   1.490   2.704
   80HOH     H1  426   1.780   1.571   2.725
   80HOH     H2  427   1.786   1.421   2.747
   81HOH      O  428   2.939   0.059   0.884
   81HOH     H1  429   2.905   0.014   0.806
   81HOH     H2  430   2.918   0.151   0.869
   82HOH      O  431   1.018   2.940   1.598
   82HOH     H1  432   0.965   2.892   1.534
   82HOH     H2  433   1.050   2.873   1.658
   83HOH      O  434   2.077   1.340   1.882
   83HOH     H1  435   2.139   1.293   1.827
   83HOH     H2  436   2.099   1.432   1.870
   84HOH      O  437   3.255   2.681   3.284
   84HOH     H1  438   3.181   2.635   3.323
   84HOH     H2  439   3.308   2.710   3.359
   85HOH      O  440   3.837   1.297   2.951
   85HOH     H1  441   3.861   1.287   3.043
   85HOH     H2  442   3.910   1.259   2.902
   86HOH      O  443   0.412   1.369   2.763
   86HOH     H1  444   0.329   1.322   2.755
   86HOH     H2  445   0.467   1.311   2.815
   87HOH      O  446   1.572   1.828   0.516
   87HOH     H1  447   1.583   1.903   0.575
   87HOH     H2  448   1.658   1.817   0.476
   88HOH      O  449   2.367   0.961   0.526
   88HOH     H1  450   2.337   0.879   0.563
   88HOH     H2  451   2.376   1.020   0.601
   89HOH      O  452   2.671   0.058   3.960
   89HOH     H1  453   2.615   0.121   4.005
   89HOH     H2  454   2.614  -0.017   3.942
   90HOH      O  455   1.422   1.145   2.610
   90HOH     H1  456   1.474   1.131   2.689
   90HOH     H2  457   1.413   1.058   2.572
   91HOH      O  458   3.880   3.731   0.760
   91HOH     H1  459   3.850   3.657   0.814
   91HOH     H2  460   3.813   3.798   0.772
   92HOH      O  461   2.354   3.418   2.536
   92HOH     H1  462   2.435   3.423   2.586
   92HOH     H2  463   2.376   3.455   2.450
   93HOH      O  464   1.587   2.229   2.301
   93HOH     H1  465   1.682   2.227   2.315
   93HOH     H2  466   1.571   2.160   2.237
   94HOH      O  467   2.929   2.524   1.588
   94HOH     H1  468   3.020   2.541   1.561
   94HOH     H2  469   2.876   2.561   1.518
   95HOH      O  470   3.104   3.416   2.201
   95HOH     H1  471   3.167   3.488   2.209
   95HOH     H2  472   3.054   3.436   2.122
   96HOH      O  473   3.242   0.061   2.577
   96HOH     H1  474   3.291   0.022   2.505
   96HOH     H2  475   3.247  -0.003   2.648
   97HOH      O  476   0.698   2.250   1.111
   97HOH     H1  477   0.782   2.207   1.126
   97HOH     H2  478   0.720   2.332   1.067
   98HOH      O  479   4.021   0.431   2.483
   98HOH     H1  480   3.996   0.452   2.573
   98HOH     H2  481   4.047   0.516   2.445
   99HOH      O  482   0.398   2.875   0.307
   99HOH     H1  483   0.414   2.782   0.293
   99HOH     H2  484   0.327   2.896   0.246
  100HOH      O  485   2.006   0.163   1.665
  100HOH     H1  486   2.086   0.172   1.717
  100HOH     H2  487   1.969   0.252   1.662
  101HOH      O  488   3.145   2.173   1.439
  101HOH     H1  489   3.229   2.169   1.393
  101HOH     H2  490   3.169   2.184   1.531
  102HOH      O  491   0.662   1.451   1.544
  102HOH     H1  492   0.689   1.499   1.622
  102HOH     H2  493   0.665   1.517   1.474
  103HOH      O  494   3.654   2.236   1.713
  103HOH     H1  495   3.689   2.148   1.727
  103HOH     H2  496   3.724   2.295   1.742
  104HOH      O  497   3.785   2.244   1.135
  104HOH     H1  498   3.764   2.272   1.224
  104HOH     H2  499   3.881   2.246   1.132
  105HOH      O  500   3.580   3.944   1.261
  105HOH     H1  501   3.563   4.037   1.275
  105HOH     H2  502   3.649   3.942   1.195
  106HOH      O  503   0.113   2.287   3.145
  106HOH     H1  504   0.135   2.348   3.216
  106HOH     H2  505   0.176   2.308   3.076
  107HOH      O  506   2.431   3.626   1.476
  107HOH     H1  507   2.338   3.606   1.491
  107HOH     H2  508   2.474   3.600   1.558
  108HOH      O  509   2.609   1.624   2.794
  108HOH     H1  510   2.539   1.560   2.779
  108HOH     H2  511   2.608   1.640   2.888
  109HOH      O  512   0.520   1.306   0.484
  109HOH     H1  513   0.600   1.322   0.434
  109HOH     H2  514   0.549   1.259   0.561
  110HOH      O  515   0.817   2.500   3.475
  110HOH     H1  516   0.758   2.574   3.460
  110HOH     H2  517   0.786   2.462   3.558
  111HOH      O  518   0.438   2.419   1.615
  111HOH     H1  519   0.445   2.486   1.682
  111HOH     H2  520   0.349   2.386   1.623
  112HOH      O  521   2.360   3.055   2.163
  112HOH     H1  522   2.446   3.038   2.200
  112HOH     H2  523   2.377   3.096   2.078
  113HOH      O  524   0.618   0.462   3.406
  113HOH     H1  525   0.692   0.518   3.385
  113HOH     H2  526   0.597   0.483   3.497
  114HOH      O  527   3.852   0.287   0.453
  114HOH     H1  528   3.785   0.334   0.502
  114HOH     H2  529   3.906   0.356   0.414
  115HOH      O  530   1.442   0.175   0.516
  115HOH     H1  531   1.496   0.169   0.595
  115HOH     H2  532   1.365   0.123   0.535
  116HOH      O  533   1.091   2.157   3.266
  116HOH     H1  534   1.142   2.233   3.236
  116HOH     H2  535   1.110   2.089   3.202
  117HOH      O  536   1.094   2.796   2.129
  117HOH     H1  537   1.159   2.861   2.154
  117HOH     H2  538   1.105   2.725   2.193
  118HOH      O  539   2.102   3.901   2.048
  118HOH     H1  540   2.140   3.855   2.123
  118HOH     H2  541   2.010   3.877   2.049
  119HOH      O  542   1.158   2.869   1.264
  119HOH     H1  543   1.145   2.868   1.169
  119HOH     H2  544   1.080   2.826   1.299
  120HOH      O  545   1.520   1.714   2.342
  120HOH     H1  546   1.506   1.711   2.247
  120HOH     H2  547   1.608   1.751   2.352
  121HOH      O  548   2.732   2.422   1.390
  121HOH     H1  549   2.768   2.333   1.388
  121HOH     H2  550   2.743   2.453   1.300
  122HOH      O  551   2.146   0.419   3.735
  122HOH     H1  552   2.225   0.415   3.680
  122HOH     H2  553   2.074   0.416   3.673
  123HOH      O  554   0.455   2.619   1.790
  123HOH     H1  555   0.512   2.608   1.866
  123HOH     H2  556   0.449   2.713   1.777
  124HOH      O  557   2.722   0.663   2.069
  124HOH     H1  558   2.732   0.646   1.975
  124HOH     H2  559   2.663   0.594   2.099
  125HOH      O  560   1.581   1.354   2.118
  125HOH     H1  561   1.525   1.367   2.194
  125HOH     H2  562   1.644   1.288   2.145
  126HOH      O  563   3.115   1.139   3.930
  126HOH     H1  564   3.078   1.073   3.871
  126HOH     H2  565   3.186   1.093   3.976
  127HOH      O  566   0.859   0.587   3.351
  127HOH     H1  567   0.883   0.610   3.261
  127HOH     H2  568   0.908   0.649   3.405
  128HOH      O  569   0.538   3.656   3.326
  128HOH     H1  570   0.574   3.706   3.399
  128HOH     H2  571   0.491   3.721   3.274
  129HOH      O  572   1.755   1.179   3.436
  129HOH     H1  573   1.692   1.210   3.501
  129HOH     H2  574   1.713   1.102   3.396
  130HOH      O  575   1.877   0.729   2.063
  130HOH     H1  576   1.923   0.666   2.007
  130HOH     H2  577   1.784   0.715   2.042
  131HOH      O  578   3.692   1.089   2.761
  131HOH     H1  579   3.623   1.063   2.821
  131HOH     H2  580   3.742   1.155   2.810
  132HOH      O  581   3.227   0.273   1.144
  132HOH     H1  582   3.301   0.282   1.204
  132HOH     H2  583   3.194   0.362   1.131
  133HOH      O  584   2.883   1.484   3.705
  133HOH     H1  585   2.866   1.563   3.654
  133HOH     H2  586   2.945   1.512   3.772
  134HOH      O  587   1.325   3.766   1.157
  134HOH     H1  588   1.266   3.827   1.111
  134HOH     H2  589   1.407   3.772   1.108
  135HOH      O  590   3.472   1.594   0.901
  135HOH     H1  591   3.421   1.522   0.864
  135HOH     H2  592   3.421   1.673   0.881
  136HOH      O  593   1.920   1.902   3.337
  136HOH     H1  594   1.830   1.907   3.368
  136HOH     H2  595   1.958   1.988   3.358
  137HOH      O  596   0.174   1.325   1.723
  137HOH     H1  597   0.186   1.234   1.694
  137HOH     H2  598   0.126   1.367   1.652
  138HOH      O  599   3.093   1.895   1.425
  138HOH     H1  600   3.123   1.983   1.402
  138HOH     H2  601   3.166   1.838   1.401
  139HOH      O  602   3.105   0.000   3.571
  139HOH     H1  603   3.119   0.036   3.483
  139HOH     H2  604   3.192  -0.028   3.599
  140HOH      O  605   3.769   3.851   3.426
  140HOH     H1  606   3.851   3.883   3.389
  140HOH     H2  607   3.703   3.912   3.395
  141HOH      O  608   1.523   1.705   3.521
  141HOH     H1  609   1.561   1.789   3.494
  141HOH     H2  610   1.489   1.723   3.609
  142HOH      O  611   0.582   0.409   0.974
  142HOH     H1  612   0.523   0.430   1.046
  142HOH     H2  613   0.533   0.348   0.920
  143HOH      O  614   0.161   3.953   2.726
  143HOH     H1  615   0.151   4.033   2.674
  143HOH     H2  616   0.254   3.932   2.720
  144HOH      O  617   3.511   3.477   2.032
  144HOH     H1  618   3.434   3.483   1.976
  144HOH     H2  619   3.540   3.567   2.043
  145HOH      O  620   3.262   1.088   3.046
  145HOH     H1  621   3.174   1.125   3.057
  145HOH     H2  622   3.264   1.014   3.107
  146HOH      O  623   0.965   2.276   1.682
  146HOH     H1  624   1.005   2.350   1.636
  146HOH     H2  625   0.968   2.301   1.774
  147HOH      O  626   2.357   0.094   1.034
  147HOH     H1  627   2.273   0.061   1.066
  147HOH     H2  628   2.360   0.185   1.063
  148HOH      O  629   1.714   1.715   3.762
  148HOH     H1  630   1.780   1.782   3.743
  148HOH     H2  631   1.745   1.638   3.714
  149HOH      O  632   3.917   3.964   0.522
  149HOH     H1  633   3.926   4.058   0.507
  149HOH     H2  634   3.917   3.925   0.434
  150HOH      O  635   0.018   4.021   0.998
  150HOH     H1  636  -0.041   3.973   1.057
  150HOH     H2  637   0.103   3.980   1.011
  151HOH      O  638   0.489   0.726   2.407
  151HOH     H1  639   0.395   0.707   2.415
  151HOH     H2  640   0.493   0.803   2.351
  152HOH      O  641   0.757   2.570   1.681
  152HOH     H1  642   0.713   2.526   1.754
  152HOH     H2  643   0.727   2.522   1.603
  153HOH      O  644   1.879   2.595   2.635
  153HOH     H1  645   1.950   2.572   2.693
  153HOH     H2  646   1.920   2.605   2.549
  154HOH      O  647   3.771   3.333   3.571
  154HOH     H1  648   3.693   3.364   3.526
  154HOH     H2  649   3.749   3.246   3.603
  155HOH      O  650   2.741   3.041   1.793
  155HOH     H1  651   2.768   3.125   1.830
  155HOH     H2  652   2.822   2.992   1.784
  156HOH      O  653   0.188   3.315   0.584
  156HOH     H1  654   0.270   3.359   0.562
  156HOH     H2  655   0.159   3.276   0.501
  157HOH      O  656   3.740   2.996   1.997
  157HOH     H1  657   3.683   3.028   2.068
  157HOH     H2  658   3.808   2.945   2.042
  158HOH      O  659   2.842   1.420   0.735
  158HOH     H1  660   2.821   1.343   0.681
  158HOH     H2  661   2.858   1.384   0.822
  159HOH      O  662   3.670   1.800   2.965
  159HOH     H1  663   3.672   1.863   3.037
  159HOH     H2  664   3.661   1.855   2.887
  160HOH      O  665   1.442   0.975   3.205
  160HOH     H1  666   1.535   0.992   3.190
  160HOH     H2  667   1.402   1.062   3.204
  161HOH      O  668   3.409   2.400   3.357
  161HOH     H1  669   3.317   2.419   3.340
  161HOH     H2  670   3.444   2.482   3.391
  162HOH      O  671   2.777   0.084   0.284
  162HOH     H1  672   2.721   0.015   0.318
  162HOH     H2  673   2.741   0.104   0.197
  163HOH      O  674   0.028   0.849   1.550
  163HOH     H1  675   0.055   0.762   1.521
  163HOH     H2  676  -0.047   0.833   1.607
  164HOH      O  677   1.538   3.887   1.471
  164HOH     H1  678   1.604   3.822   1.446
  164HOH     H2  679   1.542   3.953   1.401
  165HOH      O  680   2.882   2.627   2.455
  165HOH     H1  681   2.906   2.600   2.544
  165HOH     H2  682   2.925   2.562   2.399
  166HOH      O  683   2.684   2.044   3.645
  166HOH     H1  684   2.738   2.028   3.722
  166HOH     H2  685   2.708   1.975   3.584
  167HOH      O  686   0.366   3.002   2.537
  167HOH     H1  687   0.348   2.908   2.539
  167HOH     H2  688   0.407   3.017   2.452
  168HOH      O  689   3.840   0.145   2.948
  168HOH     H1  690   3.852   0.185   3.034
  168HOH     H2  691   3.837   0.051   2.965
  169HOH      O  692   0.258   1.663   2.399
  169HOH     H1  693   0.304   1.579   2.392
  169HOH     H2  694   0.167   1.639   2.417
  170HOH      O  695   1.550   1.285   3.147
  170HOH     H1  696   1.496   1.255   3.073
  170HOH     H2  697   1.635   1.305   3.107
  171HOH      O  698   1.161   3.446   2.929
  171HOH     H1  699   1.072   3.454   2.962
  171HOH     H2  700   1.165   3.505   2.854
  172HOH      O  701   2.170   1.860   1.067
  172HOH     H1  702   2.099   1.823   1.120
  172HOH     H2  703   2.208   1.785   1.022
  173HOH      O  704   1.221   0.440   1.413
  173HOH     H1  705   1.227   0.402   1.500
  173HOH     H2  706   1.143   0.400   1.374
  174HOH      O  707   2.821   0.522   1.499
  174HOH     H1  708   2.876   0.513   1.421
  174HOH     H2  709   2.739   0.479   1.475
  175HOH      O  710   3.270   2.821   2.525
  175HOH     H1  711   3.257   2.829   2.430
  175HOH     H2  712   3.344   2.879   2.543
  176HOH      O  713   0.548   3.790   0.882
  176HOH     H1  714   0.614   3.724   0.862
  176HOH     H2  715   0.527   3.830   0.798
  177HOH      O  716   3.561   3.485   3.440
  177HOH     H1  717   3.505   3.407   3.443
  177HOH     H2  718   3.512   3.547   3.387
  178HOH      O  719   1.693   4.021   3.633
  178HOH     H1  720   1.663   3.933   3.608
  178HOH     H2  721   1.728   4.011   3.721
  179HOH      O  722   3.030   3.452   1.923
  179HOH     H1  723   2.981   3.523   1.881
  179HOH     H2  724   2.976   3.374   1.908
  180HOH      O  725   2.951   2.236  -0.001
  180HOH     H1  726   3.022   2.193   0.045
  180HOH     H2  727   2.975   2.329  -0.000
  181HOH      O  728   2.688   1.303   3.174
  181HOH     H1  729   2.731   1.219   3.191
  181HOH     H2  730   2.677   1.342   3.261
  182HOH      O  731   1.226  -0.026   1.028
  182HOH     H1  732   1.269   0.023   0.958
  182HOH     H2  733   1.136   0.006   1.028
  183HOH      O  734   0.356   0.997   1.483
  183HOH     H1  735   0.433   1.052   1.497
  183HOH     H2  736   0.283   1.050   1.515
  184HOH      O  737   2.320   2.921   0.451
  184HOH     H1  738   2.264   2.871   0.511
  184HOH     H2  739   2.270   3.001   0.434
  185HOH      O  740   2.204   0.711   2.507
  185HOH     H1  741   2.133   0.757   2.552
  185HOH     H2  742   2.168   0.691   2.420
  186HOH      O  743   2.084   3.476   2.028
  186HOH     H1  744   2.137   3.555   2.013
  186HOH     H2  745   2.106   3.448   2.116
  187HOH      O  746   0.765   1.313   2.080
  187HOH     H1  747   0.861   1.315   2.078
  187HOH     H2  748   0.739   1.404   2.093
  188HOH      O  749   3.687   3.937   0.665
  188HOH     H1  750   3.754   3.921   0.599
  188HOH     H2  751   3.621   3.989   0.620
  189HOH      O  752   1.267   1.497   2.982
  189HOH     H1  753   1.228   1.561   2.923
  189HOH     H2  754   1.361   1.506   2.969
  190HOH      O  755   1.574   2.537   3.212
  190HOH     H1  756   1.637   2.561   3.281
  190HOH     H2  757   1.545   2.621   3.177
  191HOH      O  758   3.459   2.291   0.777
  191HOH     H1  759   3.396   2.219   0.783
  191HOH     H2  760   3.540   2.255   0.812
  192HOH      O  761   0.750   3.490   3.311
  192HOH     H1  762   0.671   3.542   3.307
  192HOH     H2  763   0.821   3.552   3.293
  193HOH      O  764   0.872   0.103   3.044
  193HOH     H1  765   0.791   0.148   3.020
  193HOH     H2  766   0.848   0.010   3.046
  194HOH      O  767   1.153   1.014   1.134
  194HOH     H1  768   1.133   0.921   1.122
  194HOH     H2  769   1.223   1.032   1.071
  195HOH      O  770   3.852   3.541   0.126
  195HOH     H1  771   3.932   3.578   0.087
  195HOH     H2  772   3.875   3.527   0.218
  196HOH      O  773   2.739   1.106   1.698
  196HOH     H1  774   2.771   1.062   1.777
  196HOH     H2  775   2.804   1.085   1.631
  197HOH      O  776   2.400   1.520   1.579
  197HOH     H1  777   2.430   1.473   1.657
  197HOH     H2  778   2.480   1.551   1.538
  198HOH      O  779   1.435   2.120   0.603
  198HOH     H1  780   1.481   2.184   0.549
  198HOH     H2  781   1.479   2.125   0.688
  199HOH      O  782   2.408   2.608   2.913
  199HOH     H1  783   2.435   2.516   2.906
  199HOH     H2  784   2.480   2.657   2.874
  200HOH      O  785   3.997   0.660   0.547
  200HOH     H1  786   3.995   0.574   0.504
  200HOH     H2  787   4.079   0.699   0.519
  201HOH      O  788   3.371   1.663   3.359
  201HOH     H1  789   3.427   1.673   3.282
  201HOH     H2  790   3.401   1.581   3.400
  202HOH      O  791   3.339   2.841   3.926
  202HOH     H1  792   3.338   2.842   3.831
  202HOH     H2  793   3.423   2.799   3.949
  203HOH      O  794   3.688   1.587   3.359
  203HOH     H1  795   3.724   1.635   3.434
  203HOH     H2  796   3.637   1.653   3.312
  204HOH      O  797   3.767   0.280   3.185
  204HOH     H1  798   3.683   0.246   3.217
  204HOH     H2  799   3.758   0.375   3.193
  205HOH      O  800   3.057   1.651   2.831
  205HOH     H1  801   3.057   1.681   2.923
  205HOH     H2  802   2.979   1.595   2.825
  206HOH      O  803   0.759   3.317   0.526
  206HOH     H1  804   0.786   3.341   0.438
  206HOH     H2  805   0.701   3.242   0.514
  207HOH      O  806   3.903   2.914   1.736
  207HOH     H1  807   3.836   2.908   1.668
  207HOH     H2  808   3.860   2.961   1.808
  208HOH      O  809   0.274   2.861   1.553
  208HOH     H1  810   0.230   2.786   1.593
  208HOH     H2  811   0.248   2.858   1.461
  209HOH      O  812   2.368   1.516   2.677
  209HOH     H1  813   2.353   1.517   2.771
  209HOH     H2  814   2.385   1.425   2.655
  210HOH      O  815   2.621   1.843   3.209
  210HOH     H1  816   2.603   1.916   3.150
  210HOH     H2  817   2.644   1.770   3.151
  211HOH      O  818   3.570   3.756   1.971
  211HOH     H1  819   3.654   3.801   1.966
  211HOH     H2  820   3.511   3.819   2.013
  212HOH      O  821   0.847   2.998   3.571
  212HOH     H1  822   0.808   2.924   3.523
  212HOH     H2  823   0.835   3.073   3.512
  213HOH      O  824   1.904   3.462   0.519
  213HOH     H1  825   1.996   3.474   0.495
  213HOH     H2  826   1.861   3.543   0.491
  214HOH      O  827   2.608   0.539   2.325
  214HOH     H1  828   2.626   0.450   2.353
  214HOH     H2  829   2.562   0.579   2.399
  215HOH      O  830   2.587   2.821   1.922
  215HOH     H1  831   2.619   2.904   1.888
  215HOH     H2  832   2.566   2.770   1.843
  216HOH      O  833   2.491   2.642   2.341
  216HOH     H1  834   2.562   2.699   2.313
  216HOH     H2  835   2.526   2.597   2.418
  217HOH      O  836   0.797   1.883   3.659
  217HOH     H1  837   0.863   1.899   3.592
  217HOH     H2  838   0.740   1.816   3.621
  218HOH      O  839   2.594   3.823   1.409
  218HOH     H1  840   2.618   3.860   1.494
  218HOH     H2  841   2.544   3.744   1.430
  219HOH      O  842   2.313   3.153   3.378
  219HOH     H1  843   2.222   3.137   3.353
  219HOH     H2  844   2.365   3.116   3.307
  220HOH      O  845   2.885   1.594   3.470
  220HOH     H1  846   2.939   1.669   3.445
  220HOH     H2  847   2.943   1.518   3.462
  221HOH      O  848   0.191   2.196   0.155
  221HOH     H1  849   0.141   2.275   0.173
  221HOH     H2  850   0.153   2.162   0.074
  222HOH      O  851   2.356   4.054   3.198
  222HOH     H1  852   2.270   4.050   3.155
  222HOH     H2  853   2.359   3.975   3.252
  223HOH      O  854   2.966   0.178   2.467
  223HOH     H1  855   3.032   0.111   2.453
  223HOH     H2  856   2.908   0.142   2.534
  224HOH      O  857   1.833   2.036   3.661
  224HOH     H1  858   1.845   2.031   3.756
  224HOH     H2  859   1.857   2.126   3.638
  225HOH      O  860   2.499   3.226   0.537
  225HOH     H1  861   2.410   3.209   0.569
  225HOH     H2  862   2.554   3.168   0.589
  226HOH      O  863   3.258   1.481   0.786
  226HOH     H1  864   3.201   1.445   0.854
  226HOH     H2  865   3.212   1.560   0.756
  227HOH      O  866   0.025   2.910   0.826
  227HOH     H1  867   0.087   2.949   0.887
  227HOH     H2  868  -0.013   2.985   0.780
  228HOH      O  869   1.333   0.949   1.460
  228HOH     H1  870   1.246   0.987   1.476
  228HOH     H2  871   1.314   0.865   1.418
  229HOH      O  872   3.301   0.413   0.851
  229HOH     H1  873   3.212   0.409   0.885
  229HOH     H2  874   3.291   0.452   0.764
  230HOH      O  875   0.309   3.328   2.657
  230HOH     H1  876   0.297   3.257   2.720
  230HOH     H2  877   0.359   3.394   2.705
  231HOH      O  878   1.946   0.345   3.537
  231HOH     H1  879   1.884   0.284   3.496
  231HOH     H2  880   1.913   0.432   3.513
  232HOH      O  881   3.595   3.995   3.820
  232HOH     H1  882   3.604   3.985   3.915
  232HOH     H2  883   3.683   3.981   3.785
  233HOH      O  884   2.127   0.533   1.788
  233HOH     H1  885   2.090   0.501   1.706
  233HOH     H2  886   2.109   0.627   1.788
  234HOH      O  887   0.506   1.992   1.214
  234HOH     H1  888   0.417   2.024   1.198
  234HOH     H2  889   0.563   2.065   1.188
  235HOH      O  890   2.635   2.505   2.521
  235HOH     H1  891   2.642   2.540   2.610
  235HOH     H2  892   2.710   2.543   2.474
  236HOH      O  893   1.474   2.522   0.845
  236HOH     H1  894   1.538   2.475   0.898
  236HOH     H2  895   1.467   2.608   0.887
  237HOH      O  896   0.351   3.071   0.497
  237HOH     H1  897   0.271   3.123   0.499
  237HOH     H2  898   0.342   3.016   0.420
  238HOH      O  899   3.242   2.914   0.709
  238HOH     H1  900   3.178   2.905   0.638
  238HOH     H2  901   3.306   2.977   0.676
  239HOH      O  902   2.884   0.971   1.893
  239HOH     H1  903   2.926   0.972   1.979
  239HOH     H2  904   2.955   0.950   1.832
  240HOH      O  905   0.761   1.916   2.302
  240HOH     H1  906   0.746   1.967   2.382
  240HOH     H2  907   0.689   1.853   2.300
  241HOH      O  908   0.910   3.853   2.275
  241HOH     H1  909   0.829   3.832   2.322
  241HOH     H2  910   0.980   3.820   2.331
  242HOH      O  911   0.277   3.491   3.047
  242HOH     H1  912   0.222   3.522   2.975
  242HOH     H2  913   0.220   3.495   3.123
  243HOH      O  914   0.807   2.487   0.161
  243HOH     H1  915   0.745   2.540   0.211
  243HOH     H2  916   0.892   2.528   0.176
  244HOH      O  917   2.258   2.346   0.174
  244HOH     H1  918   2.310   2.273   0.140
  244HOH     H2  919   2.257   2.410   0.103
  245HOH      O  920   2.224   2.250   3.565
  245HOH     H1  921   2.140   2.271   3.525
  245HOH     H2  922   2.210   2.266   3.659
  246HOH      O  923   1.084   1.231   0.136
  246HOH     H1  924   1.103   1.153   0.083
  246HOH     H2  925   1.006   1.269   0.096
  247HOH      O  926   3.804   1.516   2.314
  247HOH     H1  927   3.845   1.468   2.242
  247HOH     H2  928   3.735   1.457   2.345
  248HOH      O  929   2.210   0.033   1.546
  248HOH     H1  930   2.226  -0.038   1.608
  248HOH     H2  931   2.126   0.070   1.573
  249HOH      O  932   1.229   1.342   1.432
  249HOH     H1  933   1.295   1.388   1.379
  249HOH     H2  934   1.220   1.395   1.511
  250HOH      O  935   2.947   0.239   3.530
  250HOH     H1  936   2.856   0.215   3.511
  250HOH     H2  937   2.994   0.156   3.527
  251HOH      O  938   3.038   2.441   0.541
  251HOH     H1  939   2.987   2.514   0.506
  251HOH     H2  940   3.086   2.478   0.615
  252HOH      O  941   0.508   0.681   3.949
  252HOH     H1  942   0.414   0.696   3.939
  252HOH     H2  943   0.536   0.750   4.009
  253HOH      O  944   1.805   3.001   3.479
  253HOH     H1  945   1.813   2.934   3.411
  253HOH     H2  946   1.896   3.021   3.502
  254HOH      O  947   1.151   2.284   0.879
  254HOH     H1  948   1.119   2.308   0.792
  254HOH     H2  949   1.073   2.252   0.925
  255HOH      O  950   2.526   2.979   0.300
  255HOH     H1  951   2.570   3.023   0.374
  255HOH     H2  952   2.447   2.941   0.339
  256HOH      O  953   3.672   0.549   0.715
  256HOH     H1  954   3.717   0.600   0.782
  256HOH     H2  955   3.628   0.615   0.661
  257HOH      O  956   2.949   2.291   3.245
  257HOH     H1  957   3.010   2.251   3.307
  257HOH     H2  958   3.003   2.310   3.168
  258HOH      O  959   3.477   2.468   0.536
  258HOH     H1  960   3.505   2.424   0.456
  258HOH     H2  961   3.488   2.402   0.605
  259HOH      O  962   3.204   3.371   0.995
  259HOH     H1  963   3.272   3.364   0.927
  259HOH     H2  964   3.190   3.465   1.005
  260HOH      O  965   1.770   2.077   1.927
  260HOH     H1  966   1.691   2.025   1.938
  260HOH     H2  967   1.782   2.082   1.832
  261HOH      O  968   0.903   1.429   4.017
  261HOH     H1  969   0.873   1.424   3.926
  261HOH     H2  970   0.825   1.453   4.067
  262HOH      O  971   3.278   0.971   1.375
  262HOH     H1  972   3.313   1.043   1.323
  262HOH     H2  973   3.312   0.987   1.463
  263HOH      O  974   0.239   3.098   1.710
  263HOH     H1  975   0.236   3.168   1.645
  263HOH     H2  976   0.259   3.019   1.659
  264HOH      O  977   3.979   3.399   3.789
  264HOH     H1  978   3.907   3.353   3.833
  264HOH     H2  979   3.935   3.461   3.730
  265HOH      O  980   3.158   3.484   0.159
  265HOH     H1  981   3.126   3.528   0.238
  265HOH     H2  982   3.112   3.401   0.157
  266HOH      O  983   0.039   3.757   3.636
  266HOH     H1  984   0.012   3.828   3.695
  266HOH     H2  985  -0.040   3.702   3.628
  267HOH      O  986   2.190   1.908   3.056
  267HOH     H1  987   2.221   1.903   3.146
  267HOH     H2  988   2.148   1.994   3.050
  268HOH      O  989   1.250   1.810   2.349
  268HOH     H1  990   1.285   1.899   2.350
  268HOH     H2  991   1.328   1.754   2.345
  269HOH      O  992   1.804   2.212   2.765
  269HOH     H1  993   1.867   2.280   2.787
  269HOH     H2  994   1.842   2.168   2.689
  270HOH      O  995   0.694   0.854   2.153
  270HOH     H1  996   0.703   0.762   2.126
  270HOH     H2  997   0.716   0.904   2.073
  271HOH      O  998   3.410   1.917   0.147
  271HOH     H1  999   3.434   1.830   0.179
  271HOH     H2 1000   3.463   1.978   0.199
  272HOH      O 1001   3.888   0.168   0.156
  272HOH     H1 1002   3.846   0.214   0.229
  272HOH     H2 1003   3.859   0.216   0.078
  273HOH      O 1004   3.335   2.176   2.019
  273HOH     H1 1005   3.297   2.088   2.014
  273HOH     H2 1006   3.413   2.166   2.073
  274HOH      O 1007   3.617   3.367   3.836
  274HOH     H1 1008   3.640   3.364   3.743
  274HOH     H2 1009   3.558   3.292   3.849
  275HOH      O 1010   1.369   2.035   2.374
  275HOH     H1 1011   1.430   2.032   2.300
  275HOH     H2 1012   1.413   2.090   2.439
  276HOH      O 1013   2.961   2.227   3.682
  276HOH     H1 1014   2.907   2.178   3.744
  276HOH     H2 1015   3.047   2.184   3.686
  277HOH      O 1016   0.022   1.338   2.252
  277HOH     H1 1017   0.049   1.347   2.160
  277HOH     H2 1018   0.092   1.287   2.293
  278HOH      O 1019   1.845   2.565   2.003
  278HOH     H1 1020   1.813   2.518   1.925
  278HOH     H2 1021   1.778   2.631   2.020
  279HOH      O 1022   0.087   3.911   1.776
  279HOH     H1 1023   0.170   3.946   1.808
  279HOH     H2 1024   0.089   3.930   1.682
  280HOH      O 1025   1.676   3.719   1.933
  280HOH     H1 1026   1.671   3.791   1.870
  280HOH     H2 1027   1.585   3.690   1.944
  281HOH      O 1028   3.083   0.885   2.121
  281HOH     H1 1029   3.132   0.893   2.203
  281HOH     H2 1030   3.031   0.805   2.132
  282HOH      O 1031   1.815   3.879   2.714
  282HOH     H1 1032   1.826   3.866   2.619
  282HOH     H2 1033   1.852   3.966   2.730
  283HOH      O 1034   3.945   1.647   3.813
  283HOH     H1 1035   3.911   1.630   3.901
  283HOH     H2 1036   4.040   1.651   3.825
  284HOH      O 1037   0.347   0.240   1.830
  284HOH     H1 1038   0.344   0.333   1.804
  284HOH     H2 1039   0.367   0.242   1.923
  285HOH      O 1040   3.558   4.045   3.036
  285HOH     H1 1041   3.473   4.001   3.031
  285HOH     H2 1042   3.620   3.983   2.998
  286HOH      O 1043   2.751   1.911   2.264
  286HOH     H1 1044   2.698   1.942   2.337
  286HOH     H2 1045   2.820   1.976   2.255
  287HOH      O 1046   2.887   2.920   0.465
  287HOH     H1 1047   2.909   3.009   0.493
  287HOH     H2 1048   2.894   2.868   0.544
  288HOH      O 1049   3.339   2.365   0.217
  288HOH     H1 1050   3.245   2.354   0.226
  288HOH     H2 1051   3.376   2.289   0.262
  289HOH      O 1052   3.407   1.021   1.610
  289HOH     H1 1053   3.475   1.083   1.582
  289HOH     H2 1054   3.337   1.077   1.644
  290HOH      O 1055   2.373   2.130   2.726
  290HOH     H1 1056   2.418   2.046   2.737
  290HOH     H2 1057   2.382   2.150   2.633
  291HOH      O 1058   2.820   3.849   1.257
  291HOH     H1 1059   2.727   3.840   1.278
  291HOH     H2 1060   2.838   3.942   1.272
  292HOH      O 1061   1.523   2.865   0.409
  292HOH     H1 1062   1.467   2.805   0.361
  292HOH     H2 1063   1.468   2.942   0.426
  293HOH      O 1064   3.738   3.035   1.051
  293HOH     H1 1065   3.654   2.989   1.046
  293HOH     H2 1066   3.770   3.015   1.139
  294HOH      O 1067   0.808   3.582   3.561
  294HOH     H1 1068   0.760   3.539   3.491
  294HOH     H2 1069   0.778   3.673   3.559
  295HOH      O 1070   2.134   2.367   3.210
  295HOH     H1 1071   2.114   2.357   3.117
  295HOH     H2 1072   2.115   2.281   3.248
  296HOH      O 1073   3.500   1.912   2.338
  296HOH     H1 1074   3.508   1.929   2.244
  296HOH     H2 1075   3.565   1.844   2.356
  297HOH      O 1076   2.532   2.019   0.787
  297HOH     H1 1077   2.437   2.026   0.796
  297HOH     H2 1078   2.558   2.101   0.744
  298HOH      O 1079   3.453   2.534   3.854
  298HOH     H1 1080   3.369   2.562   3.818
  298HOH     H2 1081   3.431   2.490   3.936
  299HOH      O 1082   1.038   3.355   1.294
  299HOH     H1 1083   0.999   3.297   1.228
  299HOH     H2 1084   1.077   3.295   1.358
  300HOH      O 1085   1.579   4.000   0.801
  300HOH     H1 1086   1.577   3.964   0.713
  300HOH     H2 1087   1.614   4.088   0.791
  301HOH      O 1088   0.290   3.495   1.339
  301HOH     H1 1089   0.278   3.458   1.252
  301HOH     H2 1090   0.366   3.552   1.331
  302HOH      O 1091   0.362   0.533   1.726
  302HOH     H1 1092   0.449   0.556   1.757
  302HOH     H2 1093   0.316   0.616   1.717
  303HOH      O 1094   3.139   1.840   3.616
  303HOH     H1 1095   3.180   1.918   3.652
  303HOH     H2 1096   3.088   1.804   3.688
  304HOH      O 1097   1.426   3.437   0.322
  304HOH     H1 1098   1.346   3.481   0.296
  304HOH     H2 1099   1.402   3.344   0.324
  305HOH      O 1100   2.660   1.614   1.678
  305HOH     H1 1101   2.700   1.694   1.645
  305HOH     H2 1102   2.734   1.557   1.700
  306HOH      O 1103   2.099   1.446   3.014
  306HOH     H1 1104   2.092   1.529   3.060
  306HOH     H2 1105   2.189   1.445   2.981
  307HOH      O 1106   2.697   3.960   1.874
  307HOH     H1 1107   2.757   3.932   1.804
  307HOH     H2 1108   2.754   3.996   1.942
  308HOH      O 1109   2.457   2.464   0.526
  308HOH     H1 1110   2.363   2.449   0.519
  308HOH     H2 1111   2.486   2.480   0.436
  309HOH      O 1112   1.408   1.906   3.712
  309HOH     H1 1113   1.318   1.926   3.737
  309HOH     H2 1114   1.454   1.895   3.796
  310HOH      O 1115   0.196   1.614   0.923
  310HOH     H1 1116   0.276   1.562   0.933
  310HOH     H2 1117   0.225   1.693   0.877
  311HOH      O 1118   1.910   2.035   3.920
  311HOH     H1 1119   1.955   2.118   3.908
  311HOH     H2 1120   1.893   2.030   4.014
  312HOH      O 1121   1.565   2.680   2.861
  312HOH     H1 1122   1.497   2.746   2.847
  312HOH     H2 1123   1.648   2.728   2.852
  313HOH      O 1124   1.504   3.639   2.254
  313HOH     H1 1125   1.485   3.733   2.261
  313HOH     H2 1126   1.440   3.607   2.191
  314HOH      O 1127   2.532   2.231   3.775
  314HOH     H1 1128   2.588   2.153   3.771
  314HOH     H2 1129   2.575   2.289   3.837
  315HOH      O 1130   2.271   0.948   1.708
  315HOH     H1 1131   2.342   0.983   1.655
  315HOH     H2 1132   2.272   0.854   1.691
  316HOH      O 1133   3.298   3.337   3.521
  316HOH     H1 1134   3.231   3.320   3.455
  316HOH     H2 1135   3.249   3.345   3.603
  317HOH      O 1136   0.525   2.030   2.948
  317HOH     H1 1137   0.445   2.002   2.993
  317HOH     H2 1138   0.560   2.100   3.003
  318HOH      O 1139   1.070   0.321   3.992
  318HOH     H1 1140   1.097   0.316   3.900
  318HOH     H2 1141   1.144   0.362   4.037
  319HOH      O 1142   1.879   3.031   2.188
  319HOH     H1 1143   1.959   3.067   2.226
  319HOH     H2 1144   1.909   2.957   2.135
  320HOH      O 1145   3.321   2.632   2.275
  320HOH     H1 1146   3.263   2.705   2.252
  320HOH     H2 1147   3.280   2.556   2.235
  321HOH      O 1148   0.790   1.749   1.615
  321HOH     H1 1149   0.831   1.836   1.623
  321HOH     H2 1150   0.831   1.710   1.539
  322HOH      O 1151   2.320   1.856   2.807
  322HOH     H1 1152   2.307   1.862   2.901
  322HOH     H2 1153   2.233   1.868   2.770
  323HOH      O 1154   3.773   3.586   1.482
  323HOH     H1 1155   3.863   3.600   1.455
  323HOH     H2 1156   3.766   3.628   1.567
  324HOH      O 1157   1.448   0.055   2.919
  324HOH     H1 1158   1.500   0.116   2.972
  324HOH     H2 1159   1.507  -0.018   2.903
  325HOH      O 1160   1.642   2.954   2.586
  325HOH     H1 1161   1.594   2.912   2.514
  325HOH     H2 1162   1.576   3.008   2.630
  326HOH      O 1163   2.354   2.802   3.385
  326HOH     H1 1164   2.383   2.867   3.322
  326HOH     H2 1165   2.321   2.729   3.332
  327HOH      O 1166   3.281   2.081   0.785
  327HOH     H1 1167   3.307   2.012   0.846
  327HOH     H2 1168   3.208   2.044   0.736
  328HOH      O 1169   2.723   3.233   3.582
  328HOH     H1 1170   2.640   3.186   3.589
  328HOH     H2 1171   2.787   3.174   3.623
  329HOH      O 1172   0.286   0.458   3.333
  329HOH     H1 1173   0.228   0.453   3.409
  329HOH     H2 1174   0.366   0.497   3.366
  330HOH      O 1175   3.168   2.634   1.526
  330HOH     H1 1176   3.234   2.565   1.518
  330HOH     H2 1177   3.200   2.690   1.596
  331HOH      O 1178   3.437   2.002   3.400
  331HOH     H1 1179   3.443   1.923   3.453
  331HOH     H2 1180   3.490   2.067   3.447
  332HOH      O 1181   1.216   0.075   3.288
  332HOH     H1 1182   1.216   0.144   3.355
  332HOH     H2 1183   1.269   0.005   3.326
  333HOH      O 1184   2.199   2.759   3.721
  333HOH     H1 1185   2.287   2.793   3.738
  333HOH     H2 1186   2.160   2.749   3.808
  334HOH      O 1187   3.158   2.119   0.123
  334HOH     H1 1188   3.115   2.112   0.208
  334HOH     H2 1189   3.235   2.062   0.130
  335HOH      O 1190   3.848   2.769   0.983
  335HOH     H1 1191   3.915   2.829   0.950
  335HOH     H2 1192   3.784   2.825   1.026
  336HOH      O 1193   2.588   0.415   1.316
  336HOH     H1 1194   2.584   0.480   1.246
  336HOH     H2 1195   2.606   0.332   1.271
  337HOH      O 1196   3.734   0.147   1.114
  337HOH     H1 1197   3.790   0.078   1.150
  337HOH     H2 1198   3.738   0.135   1.020
  338HOH      O 1199   3.946   1.958   3.780
  338HOH     H1 1200   3.854   1.931   3.790
  338HOH     H2 1201   3.991   1.879   3.751
  339HOH      O 1202   1.003   2.257   0.059
  339HOH     H1 1203   0.960   2.171   0.060
  339HOH     H2 1204   0.931   2.319   0.067
  340HOH      O 1205   3.683   0.838   1.463
  340HOH     H1 1206   3.700   0.857   1.555
  340HOH     H2 1207   3.618   0.767   1.465
  341HOH      O 1208   1.508   0.068   1.300
  341HOH     H1 1209   1.445   0.140   1.288
  341HOH     H2 1210   1.534   0.045   1.211
  342HOH      O 1211   3.368   3.821   2.395
  342HOH     H1 1212   3.274   3.821   2.410
  342HOH     H2 1213   3.399   3.903   2.433
  343HOH      O 1214   2.050   1.681   3.133
  343HOH     H1 1215   2.095   1.755   3.093
  343HOH     H2 1216   2.090   1.674   3.220
  344HOH      O 1217   3.539   3.446   1.453
  344HOH     H1 1218   3.536   3.434   1.358
  344HOH     H2 1219   3.618   3.498   1.468
  345HOH      O 1220   3.922   2.983   3.303
  345HOH     H1 1221   3.908   3.061   3.250
  345HOH     H2 1222   3.867   2.916   3.262
  346HOH      O 1223   0.268   0.819   2.183
  346HOH     H1 1224   0.301   0.741   2.137
  346HOH     H2 1225   0.345   0.875   2.193
  347HOH      O 1226  -0.020   3.467   0.871
  347HOH     H1 1227   0.059   3.413   0.866
  347HOH     H2 1228  -0.016   3.522   0.792
  348HOH      O 1229   0.185   1.242   2.645
  348HOH     H1 1230   0.098   1.283   2.642
  348HOH     H2 1231   0.173   1.163   2.698
  349HOH      O 1232   2.926   2.698   2.003
  349HOH     H1 1233   2.897   2.746   1.925
  349HOH     H2 1234   2.958   2.614   1.970
  350HOH      O 1235   0.755   1.668   2.422
  350HOH     H1 1236   0.762   1.688   2.516
  350HOH     H2 1237   0.789   1.746   2.379
  351HOH      O 1238   0.214   1.175   2.379
  351HOH     H1 1239   0.260   1.202   2.458
  351HOH     H2 1240   0.283   1.160   2.315
  352HOH      O 1241   0.369   2.747   3.803
  352HOH     H1 1242   0.305   2.721   3.736
  352HOH     H2 1243   0.445   2.776   3.753
  353HOH      O 1244   0.560   0.733   3.133
  353HOH     H1 1245   0.647   0.737   3.093
  353HOH     H2 1246   0.525   0.822   3.121
  354HOH      O 1247   1.064   1.281   0.426
  354HOH     H1 1248   1.126   1.258   0.357
  354HOH     H2 1249   1.094   1.365   0.459
  355HOH      O 1250   3.903   0.209   2.378
  355HOH     H1 1251   3.942   0.292   2.405
  355HOH     H2 1252   3.822   0.202   2.430
  356HOH      O 1253   0.403   0.807   3.668
  356HOH     H1 1254   0.460   0.881   3.689
  356HOH     H2 1255   0.444   0.766   3.592
  357HOH      O 1256   2.250   3.893   0.810
  357HOH     H1 1257   2.254   3.803   0.841
  357HOH     H2 1258   2.199   3.940   0.877
  358HOH      O 1259   0.539   1.215   1.556
  358HOH     H1 1260   0.615   1.162   1.580
  358HOH     H2 1261   0.575   1.303   1.542
  359HOH      O 1262   3.955   2.189   0.247
  359HOH     H1 1263   3.921   2.209   0.334
  359HOH     H2 1264   4.047   2.166   0.262
  360HOH      O 1265   0.646   2.139   2.478
  360HOH     H1 1266   0.579   2.194   2.518
  360HOH     H2 1267   0.652   2.063   2.536
  361HOH      O 1268   2.657   2.730   0.786
  361HOH     H1 1269   2.603   2.690   0.854
  361HOH     H2 1270   2.597   2.747   0.714
  362HOH      O 1271   2.831   3.935   2.315
  362HOH     H1 1272   2.863   3.882   2.387
  362HOH     H2 1273   2.907   3.987   2.287
  363HOH      O 1274   2.044   0.660   3.467
  363HOH     H1 1275   2.029   0.696   3.554
  363HOH     H2 1276   1.959   0.666   3.424
  364HOH      O 1277   1.229   3.248   0.686
  364HOH     H1 1278   1.217   3.227   0.593
  364HOH     H2 1279   1.196   3.171   0.732
  365HOH      O 1280   1.640   3.370   1.569
  365HOH     H1 1281   1.672   3.335   1.486
  365HOH     H2 1282   1.577   3.438   1.543
  366HOH      O 1283   0.694   3.605   1.556
  366HOH     H1 1284   0.714   3.570   1.643
  366HOH     H2 1285   0.707   3.700   1.565
  367HOH      O 1286   2.209   1.722   3.686
  367HOH     H1 1287   2.265   1.660   3.733
  367HOH     H2 1288   2.260   1.745   3.608
  368HOH      O 1289   2.677   0.044   2.156
  368HOH     H1 1290   2.588   0.021   2.182
  368HOH     H2 1291   2.733  -0.013   2.209
  369HOH      O 1292   2.795   2.405   0.868
  369HOH     H1 1293   2.818   2.439   0.781
  369HOH     H2 1294   2.789   2.311   0.855
  370HOH      O 1295   3.801   3.559   2.532
  370HOH     H1 1296   3.891   3.578   2.505
  370HOH     H2 1297   3.750   3.563   2.451
  371HOH      O 1298   0.990   3.136   2.886
  371HOH     H1 1299   1.002   3.190   2.965
  371HOH     H2 1300   0.971   3.049   2.920
  372HOH      O 1301   0.802   3.879   3.058
  372HOH     H1 1302   0.835   3.837   2.979
  372HOH     H2 1303   0.706   3.877   3.048
  373HOH      O 1304   2.831   3.068   2.913
  373HOH     H1 1305   2.783   3.149   2.931
  373HOH     H2 1306   2.886   3.055   2.991
  374HOH      O 1307   1.344   0.879   0.611
  374HOH     H1 1308   1.312   0.813   0.672
  374HOH     H2 1309   1.418   0.920   0.656
  375HOH      O 1310   1.579   0.934   2.320
  375HOH     H1 1311   1.642   0.863   2.318
  375HOH     H2 1312   1.547   0.935   2.410
  376HOH      O 1313   0.300   3.270   2.393
  376HOH     H1 1314   0.300   3.266   2.488
  376HOH     H2 1315   0.349   3.193   2.365
  377HOH      O 1316   1.472   2.873   2.388
  377HOH     H1 1317   1.521   2.939   2.338
  377HOH     H2 1318   1.493   2.790   2.345
  378HOH      O 1319   2.216   2.650   0.835
  378HOH     H1 1320   2.295   2.600   0.820
  378HOH     H2 1321   2.210   2.708   0.759
  379HOH      O 1322   0.464   2.742   2.819
  379HOH     H1 1323   0.536   2.771   2.764
  379HOH     H2 1324   0.484   2.650   2.838
  380HOH      O 1325   2.209   3.750   2.231
  380HOH     H1 1326   2.275   3.693   2.193
  380HOH     H2 1327   2.147   3.690   2.274
  381HOH      O 1328   2.332   3.065   0.892
  381HOH     H1 1329   2.373   3.150   0.905
  381HOH     H2 1330   2.278   3.075   0.814
  382HOH      O 1331   2.041   0.761   3.079
  382HOH     H1 1332   1.947   0.749   3.064
  382HOH     H2 1333   2.046   0.840   3.133
  383HOH      O 1334   2.053   1.497   2.545
  383HOH     H1 1335   2.147   1.491   2.560
  383HOH     H2 1336   2.014   1.448   2.618
  384HOH      O 1337   3.043   3.673   0.333
  384HOH     H1 1338   3.112   3.733   0.304
  384HOH     H2 1339   2.968   3.729   0.350
  385HOH      O 1340   0.077   3.646   2.317
  385HOH     H1 1341   0.172   3.641   2.329
  385HOH     H2 1342   0.057   3.739   2.319
  386HOH      O 1343   0.686   3.744   0.346
  386HOH     H1 1344   0.712   3.754   0.255
  386HOH     H2 1345   0.627   3.818   0.363
  387HOH      O 1346   3.122   1.714   0.646
  387HOH     H1 1347   3.092   1.692   0.558
  387HOH     H2 1348   3.043   1.742   0.692
  388HOH      O 1349   0.546   2.733   1.364
  388HOH     H1 1350   0.469   2.683   1.337
  388HOH     H2 1351   0.620   2.681   1.334
  389HOH      O 1352   3.954   1.028   3.779
  389HOH     H1 1353   3.885   1.051   3.842
  389HOH     H2 1354   4.034   1.066   3.815
  390HOH      O 1355   1.165   0.366   0.748
  390HOH     H1 1356   1.080   0.341   0.712
  390HOH     H2 1357   1.201   0.428   0.685
  391HOH      O 1358   0.770   1.712   1.881
  391HOH     H1 1359   0.752   1.806   1.883
  391HOH     H2 1360   0.776   1.691   1.787
  392HOH      O 1361   2.714   3.657   1.897
  392HOH     H1 1362   2.666   3.730   1.935
  392HOH     H2 1363   2.786   3.642   1.958
  393HOH      O 1364   3.248   2.550   2.589
  393HOH     H1 1365   3.257   2.586   2.501
  393HOH     H2 1366   3.241   2.627   2.646
  394HOH      O 1367   2.592   3.049   0.743
  394HOH     H1 1368   2.586   2.954   0.739
  394HOH     H2 1369   2.531   3.075   0.812
  395HOH      O 1370   3.932   2.605   1.172
  395HOH     H1 1371   3.897   2.653   1.097
  395HOH     H2 1372   3.870   2.621   1.243
  396HOH      O 1373   1.994   2.469   2.199
  396HOH     H1 1374   1.940   2.497   2.126
  396HOH     H2 1375   2.075   2.438   2.159
  397HOH      O 1376   3.554   0.965   0.665
  397HOH     H1 1377   3.591   0.898   0.607
  397HOH     H2 1378   3.614   0.968   0.739
  398HOH      O 1379   1.541   1.698   2.024
  398HOH     H1 1380   1.606   1.688   1.954
  398HOH     H2 1381   1.457   1.679   1.982
  399HOH      O 1382   1.545   2.765   0.980
  399HOH     H1 1383   1.606   2.784   1.051
  399HOH     H2 1384   1.586   2.804   0.903
  400HOH      O 1385   1.966   0.795   2.615
  400HOH     H1 1386   1.899   0.855   2.581
  400HOH     H2 1387   1.933   0.767   2.700
  401HOH      O 1388   0.958   1.494   2.416
  401HOH     H1 1389   0.882   1.552   2.413
  401HOH     H2 1390   1.003   1.518   2.497
  402HOH      O 1391   3.093   1.586   2.224
  402HOH     H1 1392   3.152   1.659   2.244
  402HOH     H2 1393   3.056   1.608   2.138
  403HOH      O 1394   3.272   3.464   2.579
  403HOH     H1 1395   3.250   3.502   2.494
  403HOH     H2 1396   3.368   3.459   2.579
  404HOH      O 1397   3.389   3.949   2.070
  404HOH     H1 1398   3.430   4.005   2.137
  404HOH     H2 1399   3.373   4.008   1.996
  405HOH      O 1400   1.504   0.710   0.957
  405HOH     H1 1401   1.417   0.706   0.916
  405HOH     H2 1402   1.558   0.652   0.903
  406HOH      O 1403   1.494   0.119   2.582
  406HOH     H1 1404   1.508   0.171   2.661
  406HOH     H2 1405   1.569   0.138   2.526
  407HOH      O 1406   3.066   0.505   0.316
  407HOH     H1 1407   2.981   0.463   0.306
  407HOH     H2 1408   3.054   0.569   0.385
  408HOH      O 1409   0.883   3.653   1.937
  408HOH     H1 1410   0.797   3.694   1.937
  408HOH     H2 1411   0.884   3.600   2.017
  409HOH      O 1412   4.026   2.454   3.915
  409HOH     H1 1413   4.041   2.442   4.009
  409HOH     H2 1414   3.950   2.513   3.911
  410HOH      O 1415   0.363   0.355   2.379
  410HOH     H1 1416   0.400   0.423   2.322
  410HOH     H2 1417   0.426   0.349   2.451
  411HOH      O 1418   2.352   3.144   2.538
  411HOH     H1 1419   2.337   3.238   2.544
  411HOH     H2 1420   2.291   3.106   2.602
  412HOH      O 1421   0.070   3.961   2.988
  412HOH     H1 1422   0.115   3.946   2.905
  412HOH     H2 1423   0.055   4.056   2.990
  413HOH      O 1424   3.584   3.801   1.556
  413HOH     H1 1425   3.519   3.826   1.490
  413HOH     H2 1426   3.541   3.731   1.606
  414HOH      O 1427   1.588   1.876   0.815
  414HOH     H1 1428   1.499   1.902   0.790
  414HOH     H2 1429   1.587   1.780   0.809
  415HOH      O 1430   3.929   1.709   1.788
  415HOH     H1 1431   4.008   1.696   1.840
  415HOH     H2 1432   3.953   1.680   1.700
  416HOH      O 1433   2.675   2.275   2.795
  416HOH     H1 1434   2.654   2.281   2.702
  416HOH     H2 1435   2.756   2.223   2.798
  417HOH      O 1436   3.472   2.857   3.225
  417HOH     H1 1437   3.459   2.951   3.233
  417HOH     H2 1438   3.389   2.824   3.190
  418HOH      O 1439   1.047   2.708   2.508
  418HOH     H1 1440   1.136   2.674   2.501
  418HOH     H2 1441   1.056   2.801   2.488
  419HOH      O 1442   1.809   2.980   0.451
  419HOH     H1 1443   1.826   3.071   0.425
  419HOH     H2 1444   1.715   2.968   0.436
  420HOH      O 1445   1.785   2.809   3.769
  420HOH     H1 1446   1.733   2.761   3.833
  420HOH     H2 1447   1.858   2.749   3.749
  421HOH      O 1448   0.534   3.231   3.261
  421HOH     H1 1449   0.595   3.161   3.236
  421HOH     H2 1450   0.566   3.261   3.346
  422HOH      O 1451   0.964   1.964   3.437
  422HOH     H1 1452   0.873   1.976   3.410
  422HOH     H2 1453   1.011   2.036   3.395
  423HOH      O 1454   0.119   2.671   1.322
  423HOH     H1 1455   0.167   2.737   1.272
  423HOH     H2 1456   0.041   2.654   1.269
  424HOH      O 1457   0.949   3.198   2.060
  424HOH     H1 1458   0.988   3.282   2.085
  424HOH     H2 1459   0.859   3.221   2.035
  425HOH      O 1460   1.886   3.571   1.594
  425HOH     H1 1461   1.870   3.526   1.677
  425HOH     H2 1462   1.900   3.662   1.618
  426HOH      O 1463   2.940   1.393   2.422
  426HOH     H1 1464   2.854   1.394   2.464
  426HOH     H2 1465   2.999   1.357   2.488
  427HOH      O 1466   1.103   3.030   3.942
  427HOH     H1 1467   1.129   3.011   3.852
  427HOH     H2 1468   1.058   2.951   3.972
  428HOH      O 1469   3.954   3.299   1.523
  428HOH     H1 1470   3.938   3.368   1.459
  428HOH     H2 1471   3.867   3.278   1.558
  429HOH      O 1472   2.541   1.994   1.086
  429HOH     H1 1473   2.508   1.991   0.997
  429HOH     H2 1474   2.475   1.948   1.138
  430HOH      O 1475   2.469   1.943   0.395
  430HOH     H1 1476   2.528   1.869   0.377
  430HOH     H2 1477   2.520   2.002   0.451
  431HOH      O 1478   0.966   3.141   1.100
  431HOH     H1 1479   0.984   3.169   1.010
  431HOH     H2 1480   0.997   3.051   1.104
  432HOH      O 1481   2.697   0.939   1.410
  432HOH     H1 1482   2.729   0.876   1.474
  432HOH     H2 1483   2.775   0.987   1.382
  433HOH      O 1484   3.510   2.082  -0.035
  433HOH     H1 1485   3.590   2.126  -0.003
  433HOH     H2 1486   3.481   2.029   0.038
  434HOH      O 1487   3.634   0.939   1.218
  434HOH     H1 1488   3.701   1.007   1.212
  434HOH     H2 1489   3.640   0.908   1.308
  435HOH      O 1490   2.166   3.603   2.625
  435HOH     H1 1491   2.228   3.661   2.669
  435HOH     H2 1492   2.211   3.518   2.622
  436HOH      O 1493   0.405   3.895   3.233
  436HOH     H1 1494   0.331   3.853   3.277
  436HOH     H2 1495   0.403   3.985   3.264
  437HOH      O 1496   2.006   0.318   1.357
  437HOH     H1 1497   1.940   0.248   1.361
  437HOH     H2 1498   1.989   0.371   1.434
  438HOH      O 1499   2.992   2.961   1.534
  438HOH     H1 1500   2.927   3.026   1.507
  438HOH     H2 1501   3.050   2.953   1.459
  439HOH      O 1502   1.709   0.887   1.706
  439HOH     H1 1503   1.798   0.914   1.729
  439HOH     H2 1504   1.684   0.825   1.775
  440HOH      O 1505   0.948   0.754   3.717
  440HOH     H1 1506   1.039   0.734   3.740
  440HOH     H2 1507   0.900   0.673   3.737
  441HOH      O 1508   2.184   3.649   1.647
  441HOH     H1 1509   2.145   3.733   1.622
  441HOH     H2 1510   2.261   3.673   1.699
  442HOH      O 1511   1.077   3.470   0.316
  442HOH     H1 1512   1.068   3.416   0.394
  442HOH     H2 1513   1.007   3.439   0.258
  443HOH      O 1514   1.068   4.046   1.316
  443HOH     H1 1515   1.143   3.992   1.340
  443HOH     H2 1516   1.024   3.997   1.247
  444HOH      O 1517   2.319   0.703   1.605
  444HOH     H1 1518   2.294   0.613   1.624
  444HOH     H2 1519   2.400   0.717   1.653
  445HOH      O 1520   0.930   3.555   2.974
  445HOH     H1 1521   0.956   3.638   2.935
  445HOH     H2 1522   0.835   3.553   2.965
  446HOH      O 1523   2.341   3.924   2.431
  446HOH     H1 1524   2.286   3.865   2.379
  446HOH     H2 1525   2.278   3.981   2.476
  447HOH      O 1526   3.044   2.029   0.592
  447HOH     H1 1527   2.980   1.962   0.566
  447HOH     H2 1528   2.992   2.095   0.638
  448HOH      O 1529   2.615   3.031   1.492
  448HOH     H1 1530   2.610   2.996   1.403
  448HOH     H2 1531   2.597   2.956   1.548
  449HOH      O 1532   3.271   1.436   2.828
  449HOH     H1 1533   3.246   1.508   2.769
  449HOH     H2 1534   3.187   1.399   2.857
  450HOH      O 1535   1.572   1.885   3.972
  450HOH     H1 1536   1.630   1.819   3.933
  450HOH     H2 1537   1.518   1.836   4.033
  451HOH      O 1538   3.135   2.948   1.276
  451HOH     H1 1539   3.198   3.011   1.238
  451HOH     H2 1540   3.052   2.970   1.234
  452HOH      O 1541   1.745   2.436   0.950
  452HOH     H1 1542   1.773   2.527   0.950
  452HOH     H2 1543   1.770   2.403   1.037
  453HOH      O 1544   3.513   2.593   2.674
  453HOH     H1 1545   3.564   2.513   2.680
  453HOH     H2 1546   3.433   2.567   2.627
  454HOH      O 1547   2.735   1.025   3.171
  454HOH     H1 1548   2.752   0.967   3.097
  454HOH     H2 1549   2.659   0.987   3.215
  455HOH      O 1550   1.581   3.500   2.489
  455HOH     H1 1551   1.507   3.440   2.503
  455HOH     H2 1552   1.553   3.554   2.415
  456HOH      O 1553   2.092   3.872   2.575
  456HOH     H1 1554   2.106   3.779   2.554
  456HOH     H2 1555   2.108   3.878   2.669
  457HOH      O 1556   2.915   1.707   2.516
  457HOH     H1 1557   2.942   1.708   2.424
  457HOH     H2 1558   2.948   1.790   2.552
  458HOH      O 1559   3.770   2.820   1.506
  458HOH     H1 1560   3.728   2.749   1.458
  458HOH     H2 1561   3.705   2.890   1.510
  459HOH      O 1562   1.189   1.145   3.874
  459HOH     H1 1563   1.242   1.107   3.804
  459HOH     H2 1564   1.104   1.102   3.865
  460HOH      O 1565   3.888   1.618   0.060
  460HOH     H1 1566   3.815   1.595   0.116
  460HOH     H2 1567   3.933   1.689   0.107
  461HOH      O 1568   1.173   1.255   1.726
  461HOH     H1 1569   1.142   1.165   1.722
  461HOH     H2 1570   1.097   1.308   1.704
  462HOH      O 1571   1.196   1.564   0.203
  462HOH     H1 1572   1.288   1.589   0.207
  462HOH     H2 1573   1.196   1.469   0.209
  463HOH      O 1574   2.986   0.561   1.300
  463HOH     H1 1575   3.004   0.652   1.321
  463HOH     H2 1576   3.067   0.530   1.258
  464HOH      O 1577   2.911   1.645   0.833
  464HOH     H1 1578   2.900   1.558   0.795
  464HOH     H2 1579   2.828   1.689   0.817
  465HOH      O 1580   1.519   0.997   0.959
  465HOH     H1 1581   1.541   0.904   0.961
  465HOH     H2 1582   1.516   1.023   1.051
  466HOH      O 1583   0.395   2.122   1.561
  466HOH     H1 1584   0.469   2.061   1.560
  466HOH     H2 1585   0.436   2.208   1.568
  467HOH      O 1586   3.631   2.043   0.480
  467HOH     H1 1587   3.660   1.952   0.476
  467HOH     H2 1588   3.645   2.068   0.572
  468HOH      O 1589   3.626   0.084   3.350
  468HOH     H1 1590   3.557   0.091   3.416
  468HOH     H2 1591   3.580   0.080   3.267
  469HOH      O 1592   0.192   3.237   1.440
  469HOH     H1 1593   0.232   3.322   1.418
  469HOH     H2 1594   0.104   3.260   1.471
  470HOH      O 1595   1.700   1.070   1.444
  470HOH     H1 1596   1.771   1.006   1.439
  470HOH     H2 1597   1.735   1.140   1.499
  471HOH      O 1598   2.606   2.228   0.616
  471HOH     H1 1599   2.543   2.298   0.597
  471HOH     H2 1600   2.660   2.222   0.537
  472HOH      O 1601   3.490   1.258   2.257
  472HOH     H1 1602   3.524   1.261   2.346
  472HOH     H2 1603   3.396   1.273   2.266
  473HOH      O 1604   2.714   0.086   2.639
  473HOH     H1 1605   2.636   0.114   2.590
  473HOH     H2 1606   2.705   0.130   2.724
  474HOH      O 1607   1.030   1.101   3.613
  474HOH     H1 1608   1.106   1.043   3.606
  474HOH     H2 1609   1.059   1.183   3.574
  475HOH      O 1610   1.818   1.108   3.827
  475HOH     H1 1611   1.727   1.106   3.858
  475HOH     H2 1612   1.870   1.099   3.907
  476HOH      O 1613   3.986   1.846   0.189
  476HOH     H1 1614   4.069   1.850   0.236
  476HOH     H2 1615   3.931   1.913   0.230
  477HOH      O 1616   3.476   0.649   3.512
  477HOH     H1 1617   3.486   0.615   3.601
  477HOH     H2 1618   3.436   0.735   3.523
  478HOH      O 1619   2.814   0.693   3.290
  478HOH     H1 1620   2.855   0.706   3.376
  478HOH     H2 1621   2.882   0.716   3.227
  479HOH      O 1622   1.252   2.972   2.235
  479HOH     H1 1623   1.320   2.939   2.294
  479HOH     H2 1624   1.204   3.035   2.288
  480HOH      O 1625   1.030   1.921   2.467
  480HOH     H1 1626   1.081   1.847   2.432
  480HOH     H2 1627   1.078   1.999   2.438
  481HOH      O 1628   0.653   2.639   0.297
  481HOH     H1 1629   0.557   2.647   0.304
  481HOH     H2 1630   0.686   2.716   0.342
  482HOH      O 1631   3.166   3.760   2.164
  482HOH     H1 1632   3.226   3.797   2.099
  482HOH     H2 1633   3.205   3.676   2.189
  483HOH      O 1634   3.660   1.889   1.239
  483HOH     H1 1635   3.701   1.953   1.296
  483HOH     H2 1636   3.574   1.873   1.278
  484HOH      O 1637   0.964   0.110   3.291
  484HOH     H1 1638   1.053   0.074   3.285
  484HOH     H2 1639   0.933   0.111   3.201
  485HOH      O 1640   0.545   2.731   2.418
  485HOH     H1 1641   0.480   2.748   2.350
  485HOH     H2 1642   0.563   2.638   2.412
  486HOH      O 1643   0.378   1.573   2.979
  486HOH     H1 1644   0.434   1.650   2.976
  486HOH     H2 1645   0.394   1.528   2.896
  487HOH      O 1646   0.049   3.276   2.839
  487HOH     H1 1647   0.088   3.352   2.797
  487HOH     H2 1648   0.039   3.211   2.769
  488HOH      O 1649   3.799   2.773   0.454
  488HOH     H1 1650   3.772   2.738   0.539
  488HOH     H2 1651   3.809   2.696   0.398
  489HOH      O 1652   2.983   0.638   0.507
  489HOH     H1 1653   3.029   0.680   0.579
  489HOH     H2 1654   2.932   0.709   0.467
  490HOH      O 1655   1.543   3.472   1.238
  490HOH     H1 1656   1.574   3.541   1.297
  490HOH     H2 1657   1.448   3.475   1.246
  491HOH      O 1658   0.253   2.457   3.335
  491HOH     H1 1659   0.205   2.539   3.322
  491HOH     H2 1660   0.339   2.473   3.296
  492HOH      O 1661   1.660   1.590   0.801
  492HOH     H1 1662   1.641   1.575   0.708
  492HOH     H2 1663   1.742   1.639   0.801
  493HOH      O 1664   3.626   2.640   2.060
  493HOH     H1 1665   3.628   2.665   2.153
  493HOH     H2 1666   3.682   2.563   2.056
  494HOH      O 1667   2.045   2.475   1.825
  494HOH     H1 1668   2.128   2.443   1.859
  494HOH     H2 1669   2.005   2.521   1.898
  495HOH      O 1670   2.716   1.975   1.324
  495HOH     H1 1671   2.772   1.910   1.280
  495HOH     H2 1672   2.628   1.958   1.290
  496HOH      O 1673   3.315   1.286   3.295
  496HOH     H1 1674   3.405   1.283   3.261
  496HOH     H2 1675   3.272   1.210   3.255
  497HOH      O 1676   1.945   0.999   2.047
  497HOH     H1 1677   1.938   1.024   1.955
  497HOH     H2 1678   1.950   0.903   2.045
  498HOH      O 1679   0.205   0.657   2.429
  498HOH     H1 1680   0.200   0.687   2.520
  498HOH     H2 1681   0.199   0.738   2.377
  499HOH      O 1682   3.170   0.930   3.257
  499HOH     H1 1683   3.100   0.974   3.304
  499HOH     H2 1684   3.125   0.876   3.191
  500HOH      O 1685   1.457   3.119   0.535
  500HOH     H1 1686   1.413   3.155   0.458
  500HOH     H2 1687   1.452   3.189   0.600
  501HOH      O 1688   3.183   3.545   3.082
  501HOH     H1 1689   3.177   3.530   2.988
  501HOH     H2 1690   3.206   3.460   3.118
  502HOH      O 1691   4.011   1.162   0.441
  502HOH     H1 1692   4.063   1.084   0.460
  502HOH     H2 1693   3.946   1.165   0.512
  503HOH      O 1694   2.844   3.470   2.849
  503HOH     H1 1695   2.791   3.411   2.903
  503HOH     H2 1696   2.856   3.423   2.766
  504HOH      O 1697   3.626   3.420   0.103
  504HOH     H1 1698   3.707   3.469   0.114
  504HOH     H2 1699   3.621   3.403   0.009
  505HOH      O 1700   2.156   2.068   1.281
  505HOH     H1 1701   2.077   2.033   1.239
  505HOH     H2 1702   2.228   2.021   1.240
  506HOH      O 1703   2.082   1.196   2.410
  506HOH     H1 1704   1.996   1.157   2.420
  506HOH     H2 1705   2.106   1.179   2.318
  507HOH      O 1706   1.923   0.368   3.869
  507HOH     H1 1707   1.924   0.272   3.873
  507HOH     H2 1708   2.014   0.393   3.854
  508HOH      O 1709   2.517   2.808   0.568
  508HOH     H1 1710   2.557   2.766   0.492
  508HOH     H2 1711   2.432   2.838   0.537
  509HOH      O 1712   3.875   3.890   1.455
  509HOH     H1 1713   3.794   3.843   1.473
  509HOH     H2 1714   3.944   3.832   1.488
  510HOH      O 1715   3.648   0.416   1.154
  510HOH     H1 1716   3.568   0.429   1.205
  510HOH     H2 1717   3.649   0.321   1.136
  511HOH      O 1718   1.917   3.633   2.373
  511HOH     H1 1719   1.875   3.588   2.300
  511HOH     H2 1720   1.894   3.581   2.450
  512HOH      O 1721   0.080   3.939   2.288
  512HOH     H1 1722   0.053   3.963   2.376
  512HOH     H2 1723   0.084   4.022   2.240
  513HOH      O 1724   3.139   0.079   1.720
  513HOH     H1 1725   3.230   0.070   1.746
  513HOH     H2 1726   3.142   0.087   1.624
  514HOH      O 1727   3.761   1.561   2.862
  514HOH     H1 1728   3.736   1.645   2.899
  514HOH     H2 1729   3.749   1.498   2.933
  515HOH      O 1730   3.521   2.629   3.453
  515HOH     H1 1731   3.526   2.715   3.495
  515HOH     H2 1732   3.607   2.589   3.470
  516HOH      O 1733   3.049   2.807   3.759
  516HOH     H1 1734   3.000   2.726   3.746
  516HOH     H2 1735   2.999   2.874   3.712
  517HOH      O 1736   3.933   2.174   3.616
  517HOH     H1 1737   3.945   2.099   3.674
  517HOH     H2 1738   4.007   2.169   3.556
  518HOH      O 1739   2.270   1.681   0.864
  518HOH     H1 1740   2.235   1.593   0.850
  518HOH     H2 1741   2.330   1.695   0.791
  519HOH      O 1742   0.790   3.501   0.967
  519HOH     H1 1743   0.764   3.590   0.991
  519HOH     H2 1744   0.742   3.483   0.886
  520HOH      O 1745   3.753   2.698   0.725
  520HOH     H1 1746   3.663   2.727   0.740
  520HOH     H2 1747   3.795   2.705   0.811
  521HOH      O 1748   3.394   1.446   3.601
  521HOH     H1 1749   3.310   1.492   3.608
  521HOH     H2 1750   3.376   1.357   3.630
  522HOH      O 1751   1.062   3.037   1.883
  522HOH     H1 1752   1.011   3.075   1.955
  522HOH     H2 1753   1.102   3.112   1.840
  523HOH      O 1754   3.712   0.559   0.188
  523HOH     H1 1755   3.695   0.466   0.173
  523HOH     H2 1756   3.798   0.575   0.150
  524HOH      O 1757   1.877   3.967   3.821
  524HOH     H1 1758   1.926   4.021   3.759
  524HOH     H2 1759   1.944   3.919   3.869
  525HOH      O 1760   2.669   1.661   1.133
  525HOH     H1 1761   2.606   1.729   1.157
  525HOH     H2 1762   2.753   1.692   1.166
  526HOH      O 1763   3.840   3.603   1.761
  526HOH     H1 1764   3.878   3.519   1.735
  526HOH     H2 1765   3.862   3.611   1.854
  527HOH      O 1766   0.377   2.555   1.219
  527HOH     H1 1767   0.352   2.553   1.126
  527HOH     H2 1768   0.293   2.564   1.265
  528HOH      O 1769   0.263   2.790   2.295
  528HOH     H1 1770   0.173   2.800   2.326
  528HOH     H2 1771   0.264   2.705   2.251
  529HOH      O 1772   1.762   1.798   2.948
  529HOH     H1 1773   1.795   1.755   3.027
  529HOH     H2 1774   1.726   1.881   2.980
  530HOH      O 1775   3.777   2.678   1.785
  530HOH     H1 1776   3.842   2.746   1.769
  530HOH     H2 1777   3.765   2.678   1.880
  531HOH      O 1778   3.950   0.895   3.048
  531HOH     H1 1779   3.855   0.897   3.062
  531HOH     H2 1780   3.986   0.938   3.125
  532HOH      O 1781   1.052   2.572   0.217
  532HOH     H1 1782   1.042   2.609   0.305
  532HOH     H2 1783   1.126   2.511   0.225
  533HOH      O 1784   0.051   3.303   2.266
  533HOH     H1 1785   0.018   3.214   2.275
  533HOH     H2 1786   0.139   3.300   2.305
  534HOH      O 1787   3.596   0.857   0.036
  534HOH     H1 1788   3.645   0.809  -0.032
  534HOH     H2 1789   3.583   0.793   0.105
  535HOH      O 1790   2.493   0.655   1.187
  535HOH     H1 1791   2.546   0.707   1.126
  535HOH     H2 1792   2.448   0.719   1.241
  536HOH      O 1793   0.120   1.194   3.889
  536HOH     H1 1794   0.088   1.267   3.941
  536HOH     H2 1795   0.139   1.231   3.803
  537HOH      O 1796   0.714   0.128   0.182
  537HOH     H1 1797   0.681   0.196   0.123
  537HOH     H2 1798   0.810   0.134   0.173
  538HOH      O 1799   0.494   1.593   0.684
  538HOH     H1 1800   0.511   1.641   0.603
  538HOH     H2 1801   0.423   1.533   0.662
  539HOH      O 1802   1.234   0.603   1.700
  539HOH     H1 1803   1.154   0.609   1.753
  539HOH     H2 1804   1.231   0.516   1.663
  540HOH      O 1805   2.740   1.558   0.512
  540HOH     H1 1806   2.809   1.530   0.571
  540HOH     H2 1807   2.745   1.498   0.438
  541HOH      O 1808   0.053   2.331   1.863
  541HOH     H1 1809   0.087   2.247   1.831
  541HOH     H2 1810   0.129   2.375   1.900
  542HOH      O 1811   0.480   2.813   3.266
  542HOH     H1 1812   0.407   2.841   3.211
  542HOH     H2 1813   0.481   2.876   3.338
  543HOH      O 1814   2.642   1.765   0.776
  543HOH     H1 1815   2.610   1.852   0.799
  543HOH     H2 1816   2.565   1.717   0.747
  544HOH      O 1817   0.168   2.326   1.537
  544HOH     H1 1818   0.156   2.235   1.565
  544HOH     H2 1819   0.145   2.325   1.445
  545HOH      O 1820   0.991   3.491   0.625
  545HOH     H1 1821   0.994   3.565   0.686
  545HOH     H2 1822   0.898   3.483   0.603
  546HOH      O 1823   2.291   2.553   4.026
  546HOH     H1 1824   2.215   2.611   4.023
  546HOH     H2 1825   2.362   2.604   3.986
  547HOH      O 1826   3.159   3.319   1.305
  547HOH     H1 1827   3.179   3.371   1.227
  547HOH     H2 1828   3.179   3.229   1.280
  548HOH      O 1829   0.364   0.155   3.306
  548HOH     H1 1830   0.455   0.184   3.300
  548HOH     H2 1831   0.313   0.235   3.307
  549HOH      O 1832   0.275   3.422   0.161
  549HOH     H1 1833   0.277   3.496   0.222
  549HOH     H2 1834   0.233   3.457   0.083
  550HOH      O 1835   0.130   2.691   3.304
  550HOH     H1 1836   0.057   2.681   3.242
  550HOH     H2 1837   0.185   2.759   3.265
  551HOH      O 1838   3.642   3.181   2.215
  551HOH     H1 1839   3.722   3.233   2.206
  551HOH     H2 1840   3.662   3.120   2.286
  552HOH      O 1841   3.134   2.692   0.287
  552HOH     H1 1842   3.141   2.770   0.232
  552HOH     H2 1843   3.201   2.703   0.354
  553HOH      O 1844   0.424   1.066   1.775
  553HOH     H1 1845   0.435   1.144   1.721
  553HOH     H2 1846   0.469   1.087   1.857
  554HOH      O 1847   2.700   0.204   3.723
  554HOH     H1 1848   2.711   0.290   3.764
  554HOH     H2 1849   2.715   0.142   3.794
  555HOH      O 1850   3.466   2.214   3.604
  555HOH     H1 1851   3.547   2.251   3.641
  555HOH     H2 1852   3.437   2.278   3.540
  556HOH      O 1853   1.045   3.934   1.698
  556HOH     H1 1854   1.114   3.993   1.669
  556HOH     H2 1855   0.982   3.991   1.743
  557HOH      O 1856   0.343   3.084   2.829
  557HOH     H1 1857   0.317   3.000   2.866
  557HOH     H2 1858   0.343   3.069   2.734
  558HOH      O 1859   0.375   0.161   2.883
  558HOH     H1 1860   0.286   0.157   2.916
  558HOH     H2 1861   0.382   0.087   2.823
  559HOH      O 1862   0.074   1.053   1.977
  559HOH     H1 1863   0.122   1.116   2.030
  559HOH     H2 1864   0.094   0.968   2.016
  560HOH      O 1865   3.393   1.838   2.729
  560HOH     H1 1866   3.468   1.793   2.689
  560HOH     H2 1867   3.389   1.922   2.682
  561HOH      O 1868   3.094   1.315   1.986
  561HOH     H1 1869   3.108   1.244   1.924
  561HOH     H2 1870   3.086   1.393   1.932
  562HOH      O 1871   2.379   0.368   2.967
  562HOH     H1 1872   2.296   0.336   3.005
  562HOH     H2 1873   2.445   0.310   3.005
  563HOH      O 1874   2.053   2.992   3.571
  563HOH     H1 1875   2.033   2.935   3.645
  563HOH     H2 1876   2.121   2.946   3.522
  564HOH      O 1877   1.231   2.621   3.965
  564HOH     H1 1878   1.148   2.648   4.005
  564HOH     H2 1879   1.254   2.540   4.012
  565HOH      O 1880   0.673   0.541   2.845
  565HOH     H1 1881   0.761   0.509   2.864
  565HOH     H2 1882   0.619   0.508   2.917
  566HOH      O 1883   2.362   1.441   2.265
  566HOH     H1 1884   2.269   1.437   2.287
  566HOH     H2 1885   2.371   1.520   2.212
  567HOH      O 1886   3.066   3.633   1.667
  567HOH     H1 1887   3.150   3.599   1.636
  567HOH     H2 1888   3.012   3.637   1.589
  568HOH      O 1889   1.681   2.767   2.039
  568HOH     H1 1890   1.683   2.816   1.957
  568HOH     H2 1891   1.588   2.751   2.055
  569HOH      O 1892   3.697   3.571   0.902
  569HOH     H1 1893   3.616   3.568   0.852
  569HOH     H2 1894   3.703   3.484   0.943
  570HOH      O 1895   1.397   0.631   2.337
  570HOH     H1 1896   1.385   0.553   2.391
  570HOH     H2 1897   1.455   0.602   2.266
  571HOH      O 1898   1.034   2.203   0.356
  571HOH     H1 1899   1.027   2.172   0.266
  571HOH     H2 1900   0.943   2.219   0.382
  572HOH      O 1901   0.471   3.490   2.350
  572HOH     H1 1902   0.561   3.475   2.378
  572HOH     H2 1903   0.429   3.404   2.358
  573HOH      O 1904   3.706   1.872   3.486
  573HOH     H1 1905   3.800   1.855   3.491
  573HOH     H2 1906   3.686   1.916   3.569
  574HOH      O 1907   1.307   2.592   0.646
  574HOH     H1 1908   1.265   2.513   0.611
  574HOH     H2 1909   1.336   2.567   0.734
  575HOH      O 1910   2.390   1.514   1.951
  575HOH     H1 1911   2.438   1.596   1.963
  575HOH     H2 1912   2.300   1.541   1.935
  576HOH      O 1913   2.975   0.913   0.652
  576HOH     H1 1914   2.991   0.996   0.698
  576HOH     H2 1915   3.024   0.922   0.570
  577HOH      O 1916   3.475   2.085   2.959
  577HOH     H1 1917   3.436   2.038   3.033
  577HOH     H2 1918   3.524   2.157   2.999
  578HOH      O 1919   1.358   3.539   3.109
  578HOH     H1 1920   1.365   3.466   3.170
  578HOH     H2 1921   1.278   3.522   3.060
  579HOH      O 1922   0.848   1.044   3.125
  579HOH     H1 1923   0.927   0.992   3.140
  579HOH     H2 1924   0.795   0.991   3.066
  580HOH      O 1925   3.308   1.312   1.676
  580HOH     H1 1926   3.216   1.323   1.700
  580HOH     H2 1927   3.350   1.283   1.757
  581HOH      O 1928   1.021   2.614   1.698
  581HOH     H1 1929   0.932   2.580   1.691
  581HOH     H2 1930   1.066   2.578   1.622
  582HOH      O 1931   1.497   2.587   1.784
  582HOH     H1 1932   1.498   2.497   1.815
  582HOH     H2 1933   1.484   2.640   1.862
  583HOH      O 1934   2.105   2.218   1.518
  583HOH     H1 1935   2.054   2.297   1.500
  583HOH     H2 1936   2.127   2.184   1.431
  584HOH      O 1937   1.203   0.963   2.091
  584HOH     H1 1938   1.138   1.025   2.124
  584HOH     H2 1939   1.287   1.001   2.115
  585HOH      O 1940   0.826   0.296   2.256
  585HOH     H1 1941   0.891   0.350   2.300
  585HOH     H2 1942   0.836   0.318   2.163
  586HOH      O 1943   0.498   3.325   3.015
  586HOH     H1 1944   0.520   3.301   3.105
  586HOH     H2 1945   0.425   3.387   3.024
  587HOH      O 1946   2.767   2.503   3.010
  587HOH     H1 1947   2.814   2.420   2.999
  587HOH     H2 1948   2.679   2.476   3.037
  588HOH      O 1949   1.918   3.843   1.619
  588HOH     H1 1950   1.899   3.895   1.541
  588HOH     H2 1951   1.978   3.897   1.670
  589HOH      O 1952   1.032   3.072   2.328
  589HOH     H1 1953   0.979   3.058   2.407
  589HOH     H2 1954   0.969   3.071   2.257
  590HOH      O 1955   0.264   2.830   0.586
  590HOH     H1 1956   0.295   2.917   0.560
  590HOH     H2 1957   0.169   2.834   0.574
  591HOH      O 1958   0.996   2.766   0.037
  591HOH     H1 1959   0.929   2.825   0.072
  591HOH     H2 1960   1.012   2.703   0.107
  592HOH      O 1961   3.790   3.362   2.700
  592HOH     H1 1962   3.864   3.304   2.681
  592HOH     H2 1963   3.803   3.438   2.643
  593HOH      O 1964   0.630   3.099   2.512
  593HOH     H1 1965   0.592   3.145   2.586
  593HOH     H2 1966   0.629   3.163   2.440
  594HOH      O 1967   2.388   3.358   2.934
  594HOH     H1 1968   2.385   3.365   2.839
  594HOH     H2 1969   2.393   3.449   2.964
  595HOH      O 1970   2.031   0.966   3.259
  595HOH     H1 1971   2.037   1.040   3.199
  595HOH     H2 1972   2.105   0.976   3.319
  596HOH      O 1973   3.234   1.924   2.100
  596HOH     H1 1974   3.299   1.856   2.087
  596HOH     H2 1975   3.214   1.920   2.194
  597HOH      O 1976   0.660   1.700   0.490
  597HOH     H1 1977   0.720   1.655   0.430
  597HOH     H2 1978   0.694   1.790   0.494
  598HOH      O 1979   1.180   3.811   2.388
  598HOH     H1 1980   1.257   3.802   2.445
  598HOH     H2 1981   1.146   3.898   2.408
  599HOH      O 1982   2.635   1.362   3.737
  599HOH     H1 1983   2.548   1.391   3.710
  599HOH     H2 1984   2.689   1.441   3.735
  600HOH      O 1985   1.653   2.936   1.820
  600HOH     H1 1986   1.572   2.917   1.773
  600HOH     H2 1987   1.691   3.011   1.774
  601HOH      O 1988   3.712   2.989   0.779
  601HOH     H1 1989   3.795   3.016   0.740
  601HOH     H2 1990   3.722   3.006   0.872
  602HOH      O 1991   1.015   0.670   0.842
  602HOH     H1 1992   0.962   0.749   0.842
  602HOH     H2 1993   0.962   0.606   0.794
  603HOH      O 1994   1.667   3.808   3.348
  603HOH     H1 1995   1.660   3.806   3.252
  603HOH     H2 1996   1.590   3.857   3.377
  604HOH      O 1997   0.771   2.411   2.719
  604HOH     H1 1998   0.811   2.495   2.696
  604HOH     H2 1999   0.703   2.398   2.653
  605HOH      O 2000   0.490   2.091   2.230
  605HOH     H1 2001   0.412   2.099   2.285
  605HOH     H2 2002   0.564   2.096   2.292
  606HOH      O 2003   3.518   2.200   3.227
  606HOH     H1 2004   3.472   2.135   3.279
  606HOH     H2 2005   3.490   2.284   3.263
  607HOH      O 2006   0.460   0.261   2.083
  607HOH     H1 2007   0.520   0.325   2.122
  607HOH     H2 2008   0.386   0.258   2.144
  608HOH      O 2009   2.918   2.781   1.049
  608HOH     H1 2010   2.968   2.857   1.020
  608HOH     H2 2011   2.852   2.768   0.981
  609HOH      O 2012   2.791   0.927   3.697
  609HOH     H1 2013   2.858   0.883   3.750
  609HOH     H2 2014   2.736   0.857   3.664
  610HOH      O 2015   0.715   3.270   1.123
  610HOH     H1 2016   0.791   3.214   1.106
  610HOH     H2 2017   0.733   3.350   1.073
  611HOH      O 2018   3.156   1.415   3.906
  611HOH     H1 2019   3.129   1.323   3.907
  611HOH     H2 2020   3.250   1.412   3.891
  612HOH      O 2021   1.005   1.170   0.957
  612HOH     H1 2022   1.096   1.191   0.976
  612HOH     H2 2023   0.963   1.164   1.043
  613HOH      O 2024   2.591   1.435   3.400
  613HOH     H1 2025   2.506   1.428   3.443
  613HOH     H2 2026   2.652   1.459   3.470
  614HOH      O 2027   2.419   0.219   1.724
  614HOH     H1 2028   2.347   0.260   1.675
  614HOH     H2 2029   2.391   0.223   1.815
  615HOH      O 2030   1.980   2.058   2.591
  615HOH     H1 2031   2.031   2.136   2.569
  615HOH     H2 2032   2.045   1.992   2.616
  616HOH      O 2033   3.058   2.958   3.048
  616HOH     H1 2034   2.990   2.896   3.078
  616HOH     H2 2035   3.086   2.923   2.963
  617HOH      O 2036   2.848   2.076   2.868
  617HOH     H1 2037   2.931   2.052   2.909
  617HOH     H2 2038   2.782   2.060   2.936
  618HOH      O 2039   3.741   1.165   0.971
  618HOH     H1 2040   3.707   1.235   0.916
  618HOH     H2 2041   3.726   1.196   1.061
  619HOH      O 2042   2.011   3.760   2.980
  619HOH     H1 2043   2.084   3.730   3.034
  619HOH     H2 2044   1.988   3.684   2.926
  620HOH      O 2045   1.144   2.488   1.510
  620HOH     H1 2046   1.224   2.540   1.506
  620HOH     H2 2047   1.169   2.403   1.475
  621HOH      O 2048   2.877   1.821   4.001
  621HOH     H1 2049   2.948   1.775   3.956
  621HOH     H2 2050   2.817   1.751   4.028
  622HOH      O 2051   0.589   1.575   2.034
  622HOH     H1 2052   0.648   1.626   1.979
  622HOH     H2 2053   0.504   1.617   2.024
  623HOH      O 2054   1.529   1.550   1.039
  623HOH     H1 2055   1.566   1.544   0.951
  623HOH     H2 2056   1.545   1.464   1.078
  624HOH      O 2057   2.593   3.480   0.410
  624HOH     H1 2058   2.526   3.538   0.444
  624HOH     H2 2059   2.573   3.395   0.450
  625HOH      O 2060   0.069   0.409   3.161
  625HOH     H1 2061   0.158   0.431   3.190
  625HOH     H2 2062   0.015   0.482   3.191
  626HOH      O 2063   3.479   3.965   0.344
  626HOH     H1 2064   3.487   3.994   0.434
  626HOH     H2 2065   3.471   4.046   0.293
  627HOH      O 2066   1.497   3.363   3.321
  627HOH     H1 2067   1.580   3.402   3.291
  627HOH     H2 2068   1.460   3.428   3.380
  628HOH      O 2069   1.410   2.446   2.928
  628HOH     H1 2070   1.435   2.538   2.928
  628HOH     H2 2071   1.492   2.398   2.923
  629HOH      O 2072   2.127   2.627   1.092
  629HOH     H1 2073   2.163   2.648   1.005
  629HOH     H2 2074   2.167   2.544   1.115
  630HOH      O 2075   1.648   1.265   1.093
  630HOH     H1 2076   1.601   1.239   1.014
  630HOH     H2 2077   1.629   1.196   1.157
  631HOH      O 2078   0.214   3.716   3.411
  631HOH     H1 2079   0.209   3.633   3.364
  631HOH     H2 2080   0.144   3.711   3.477
  632HOH      O 2081   1.853   1.892   1.515
  632HOH     H1 2082   1.859   1.797   1.529
  632HOH     H2 2083   1.876   1.903   1.422
  633HOH      O 2084   3.503   0.531   3.950
  633HOH     H1 2085   3.416   0.543   3.911
  633HOH     H2 2086   3.550   0.612   3.928
  634HOH      O 2087   0.615   2.338   2.103
  634HOH     H1 2088   0.562   2.259   2.093
  634HOH     H2 2089   0.586   2.377   2.185
  635HOH      O 2090   0.215   4.000   3.596
  635HOH     H1 2091   0.294   3.999   3.542
  635HOH     H2 2092   0.184   3.909   3.596
  636HOH      O 2093   3.042   3.155   2.236
  636HOH     H1 2094   3.094   3.117   2.165
  636HOH     H2 2095   3.067   3.248   2.235
  637HOH      O 2096   0.382   2.145   2.734
  637HOH     H1 2097   0.410   2.057   2.760
  637HOH     H2 2098   0.290   2.135   2.711
  638HOH      O 2099   0.518   3.543   2.088
  638HOH     H1 2100   0.531   3.459   2.044
  638HOH     H2 2101   0.488   3.518   2.176
  639HOH      O 2102   2.967   1.400   3.109
  639HOH     H1 2103   2.928   1.328   3.059
  639HOH     H2 2104   3.025   1.357   3.172
  640HOH      O 2105   0.004   2.374   0.961
  640HOH     H1 2106  -0.045   2.437   1.014
  640HOH     H2 2107   0.086   2.419   0.940
  641HOH      O 2108   0.270   3.583   0.857
  641HOH     H1 2109   0.278   3.597   0.762
  641HOH     H2 2110   0.271   3.488   0.867
  642HOH      O 2111   0.219   0.170   2.251
  642HOH     H1 2112   0.244   0.078   2.264
  642HOH     H2 2113   0.275   0.219   2.311
  643HOH      O 2114   0.720   3.025   3.230
  643HOH     H1 2115   0.815   3.023   3.217
  643HOH     H2 2116   0.684   2.993   3.147
  644HOH      O 2117   2.088   3.986   3.458
  644HOH     H1 2118   2.177   4.016   3.476
  644HOH     H2 2119   2.031   4.044   3.508
  645HOH      O 2120   1.382   2.503   3.410
  645HOH     H1 2121   1.453   2.497   3.345
  645HOH     H2 2122   1.398   2.586   3.455
  646HOH      O 2123   2.534   1.072   2.179
  646HOH     H1 2124   2.520   0.979   2.164
  646HOH     H2 2125   2.500   1.114   2.099
  647HOH      O 2126   1.386   1.820   1.298
  647HOH     H1 2127   1.429   1.902   1.275
  647HOH     H2 2128   1.415   1.801   1.387
  648HOH      O 2129   1.836   1.046   2.779
  648HOH     H1 2130   1.877   1.005   2.703
  648HOH     H2 2131   1.905   1.053   2.844
  649HOH      O 2132   0.974   0.084   0.995
  649HOH     H1 2133   0.905   0.095   1.060
  649HOH     H2 2134   0.931   0.104   0.911
  650HOH      O 2135   1.005   0.148   0.166
  650HOH     H1 2136   1.028   0.207   0.094
  650HOH     H2 2137   1.081   0.091   0.174
  651HOH      O 2138   1.972   3.958   2.352
  651HOH     H1 2139   1.917   3.887   2.319
  651HOH     H2 2140   2.019   3.920   2.426
  652HOH      O 2141   0.757   0.584   0.535
  652HOH     H1 2142   0.715   0.553   0.455
  652HOH     H2 2143   0.820   0.650   0.506
  653HOH      O 2144   2.724   3.795   3.355
  653HOH     H1 2145   2.814   3.823   3.369
  653HOH     H2 2146   2.715   3.716   3.407
  654HOH      O 2147   1.389   1.088   3.648
  654HOH     H1 2148   1.433   1.141   3.582
  654HOH     H2 2149   1.346   1.019   3.598
  655HOH      O 2150   1.531   2.326   3.777
  655HOH     H1 2151   1.504   2.411   3.812
  655HOH     H2 2152   1.543   2.271   3.854
  656HOH      O 2153   1.591   3.778   0.639
  656HOH     H1 2154   1.581   3.683   0.640
  656HOH     H2 2155   1.681   3.793   0.613
  657HOH      O 2156   2.269   0.845   2.141
  657HOH     H1 2157   2.333   0.811   2.203
  657HOH     H2 2158   2.310   0.832   2.055
  658HOH      O 2159   0.873   2.470   3.804
  658HOH     H1 2160   0.956   2.427   3.783
  658HOH     H2 2161   0.845   2.429   3.886
  659HOH      O 2162   2.329   1.217   1.199
  659HOH     H1 2163   2.359   1.197   1.110
  659HOH     H2 2164   2.387   1.287   1.228
  660HOH      O 2165   3.829   3.598   3.240
  660HOH     H1 2166   3.852   3.642   3.158
  660HOH     H2 2167   3.785   3.666   3.292
  661HOH      O 2168   0.285   0.627   0.694
  661HOH     H1 2169   0.368   0.587   0.720
  661HOH     H2 2170   0.219   0.578   0.743
  662HOH      O 2171   0.541   1.233   1.937
  662HOH     H1 2172   0.520   1.315   1.893
  662HOH     H2 2173   0.632   1.242   1.965
  663HOH      O 2174   3.799   2.365   2.277
  663HOH     H1 2175   3.770   2.333   2.192
  663HOH     H2 2176   3.719   2.368   2.330
  664HOH      O 2177   3.578   1.476   1.849
  664HOH     H1 2178   3.512   1.407   1.847
  664HOH     H2 2179   3.640   1.448   1.917
  665HOH      O 2180   2.932   3.679   3.542
  665HOH     H1 2181   2.910   3.737   3.616
  665HOH     H2 2182   2.921   3.591   3.577
  666HOH      O 2183   1.953   2.260   3.404
  666HOH     H1 2184   1.924   2.298   3.487
  666HOH     H2 2185   1.872   2.242   3.357
  667HOH      O 2186   0.451   0.859   1.257
  667HOH     H1 2187   0.386   0.847   1.326
  667HOH     H2 2188   0.505   0.932   1.289
  668HOH      O 2189   3.500   3.216   2.842
  668HOH     H1 2190   3.406   3.234   2.836
  668HOH     H2 2191   3.542   3.301   2.828
  669HOH      O 2192   1.982   1.007   3.626
  669HOH     H1 2193   1.899   1.047   3.654
  669HOH     H2 2194   1.975   0.916   3.654
  670HOH      O 2195   2.520   3.981   0.813
  670HOH     H1 2196   2.446   3.956   0.757
  670HOH     H2 2197   2.482   4.041   0.877
  671HOH      O 2198   3.909   0.239   3.697
  671HOH     H1 2199   3.988   0.201   3.660
  671HOH     H2 2200   3.846   0.238   3.624
  672HOH      O 2201   1.412   1.371   1.924
  672HOH     H1 2202   1.345   1.310   1.955
  672HOH     H2 2203   1.477   1.374   1.994
  673HOH      O 2204   4.032   1.837   2.651
  673HOH     H1 2205   3.941   1.817   2.631
  673HOH     H2 2206   4.061   1.763   2.705
  674HOH      O 2207   2.992   1.111   3.079
  674HOH     H1 2208   2.992   1.096   2.985
  674HOH     H2 2209   2.914   1.066   3.111
  675HOH      O 2210   2.472   3.120   3.006
  675HOH     H1 2211   2.421   3.200   2.993
  675HOH     H2 2212   2.473   3.078   2.920
  676HOH      O 2213   0.010   1.727   1.100
  676HOH     H1 2214   0.067   1.693   1.031
  676HOH     H2 2215  -0.074   1.683   1.084
  677HOH      O 2216   2.345   3.146   1.231
  677HOH     H1 2217   2.306   3.115   1.313
  677HOH     H2 2218   2.295   3.225   1.209
  678HOH      O 2219   0.348   3.249   1.964
  678HOH     H1 2220   0.340   3.219   1.874
  678HOH     H2 2221   0.408   3.188   2.005
  679HOH      O 2222   1.542   1.316   3.593
  679HOH     H1 2223   1.467   1.354   3.640
  679HOH     H2 2224   1.617   1.368   3.621
  680HOH      O 2225   0.851   3.994   3.904
  680HOH     H1 2226   0.861   4.087   3.925
  680HOH     H2 2227   0.934   3.969   3.864
  681HOH      O 2228   1.619   2.517   2.657
  681HOH     H1 2229   1.582   2.580   2.719
  681HOH     H2 2230   1.705   2.554   2.634
  682HOH      O 2231   1.569   0.377   1.014
  682HOH     H1 2232   1.663   0.362   1.023
  682HOH     H2 2233   1.531   0.343   1.094
  683HOH      O 2234   3.170   3.345   0.478
  683HOH     H1 2235   3.139   3.423   0.524
  683HOH     H2 2236   3.090   3.304   0.445
  684HOH      O 2237   1.588   3.052   0.112
  684HOH     H1 2238   1.526   3.045   0.184
  684HOH     H2 2239   1.570   2.975   0.057
  685HOH      O 2240   3.031   1.339   1.692
  685HOH     H1 2241   2.943   1.356   1.725
  685HOH     H2 2242   3.022   1.260   1.639
  686HOH      O 2243   2.519   1.252   2.373
  686HOH     H1 2244   2.453   1.315   2.345
  686HOH     H2 2245   2.516   1.183   2.307
  687HOH      O 2246   3.569   0.819   1.755
  687HOH     H1 2247   3.502   0.846   1.692
  687HOH     H2 2248   3.581   0.895   1.812
  688HOH      O 2249   3.884   0.734   4.010
  688HOH     H1 2250   3.947   0.801   4.033
  688HOH     H2 2251   3.925   0.652   4.036
  689HOH      O 2252   3.126   2.199   2.693
  689HOH     H1 2253   3.139   2.104   2.701
  689HOH     H2 2254   3.209   2.237   2.721
  690HOH      O 2255   0.517   2.202   3.476
  690HOH     H1 2256   0.486   2.262   3.408
  690HOH     H2 2257   0.557   2.259   3.542
  691HOH      O 2258   0.671   3.542   0.064
  691HOH     H1 2259   0.626   3.601   0.003
  691HOH     H2 2260   0.764   3.553   0.044
  692HOH      O 2261   2.416   3.664   0.530
  692HOH     H1 2262   2.456   3.699   0.609
  692HOH     H2 2263   2.407   3.739   0.472
  693HOH      O 2264   2.088   0.286   1.050
  693HOH     H1 2265   2.037   0.299   1.130
  693HOH     H2 2266   2.177   0.312   1.074
  694HOH      O 2267   2.461   2.406   1.459
  694HOH     H1 2268   2.556   2.399   1.471
  694HOH     H2 2269   2.424   2.357   1.533
  695HOH      O 2270   1.314   3.193   0.329
  695HOH     H1 2271   1.228   3.183   0.370
  695HOH     H2 2272   1.297   3.189   0.235
  696HOH      O 2273   1.525   2.144   3.991
  696HOH     H1 2274   1.437   2.142   4.028
  696HOH     H2 2275   1.544   2.053   3.968
  697HOH      O 2276   3.623   0.528   2.013
  697HOH     H1 2277   3.653   0.438   2.008
  697HOH     H2 2278   3.670   0.565   2.088
  698HOH      O 2279   1.434   3.951   3.412
  698HOH     H1 2280   1.417   3.964   3.505
  698HOH     H2 2281   1.381   3.874   3.389
  699HOH      O 2282   0.644   0.537   0.290
  699HOH     H1 2283   0.585   0.612   0.279
  699HOH     H2 2284   0.643   0.494   0.204
  700HOH      O 2285   2.676   1.625   3.064
  700HOH     H1 2286   2.768   1.639   3.086
  700HOH     H2 2287   2.653   1.542   3.105
  701HOH      O 2288   0.301   1.944   3.070
  701HOH     H1 2289   0.224   1.964   3.123
  701HOH     H2 2290   0.267   1.899   2.993
  702HOH      O 2291   0.579   0.809   1.580
  702HOH     H1 2292   0.573   0.750   1.505
  702HOH     H2 2293   0.497   0.859   1.578
  703HOH      O 2294   2.680   3.271   0.055
  703HOH     H1 2295   2.745   3.328   0.096
  703HOH     H2 2296   2.676   3.301  -0.036
  704HOH      O 2297   2.880   1.116   1.319
  704HOH     H1 2298   2.953   1.090   1.262
  704HOH     H2 2299   2.845   1.196   1.278
  705HOH      O 2300   2.464   0.945   1.252
  705HOH     H1 2301   2.551   0.958   1.289
  705HOH     H2 2302   2.444   1.028   1.209
  706HOH      O 2303   2.977   1.812   1.646
  706HOH     H1 2304   3.020   1.727   1.637
  706HOH     H2 2305   3.001   1.859   1.566
  707HOH      O 2306   0.265   3.805   1.268
  707HOH     H1 2307   0.225   3.770   1.188
  707HOH     H2 2308   0.355   3.775   1.265
  708HOH      O 2309   1.370   2.069   3.492
  708HOH     H1 2310   1.386   2.030   3.578
  708HOH     H2 2311   1.423   2.149   3.492
  709HOH      O 2312   1.557   2.594   2.397
  709HOH     H1 2313   1.563   2.597   2.492
  709HOH     H2 2314   1.621   2.527   2.371
  710HOH      O 2315   3.855   2.176   2.499
  710HOH     H1 2316   3.865   2.179   2.404
  710HOH     H2 2317   3.914   2.106   2.527
  711HOH      O 2318   2.955   2.669   2.847
  711HOH     H1 2319   2.910   2.651   2.930
  711HOH     H2 2320   2.963   2.583   2.805
  712HOH      O 2321   2.864   3.085   2.467
  712HOH     H1 2322   2.810   3.007   2.459
  712HOH     H2 2323   2.943   3.065   2.416
  713HOH      O 2324   2.245   0.878   0.285
  713HOH     H1 2325   2.312   0.920   0.232
  713HOH     H2 2326   2.266   0.902   0.375
  714HOH      O 2327   2.450   3.900   1.165
  714HOH     H1 2328   2.491   3.906   1.252
  714HOH     H2 2329   2.457   3.988   1.129
  715HOH      O 2330   3.436   1.735   1.778
  715HOH     H1 2331   3.478   1.650   1.764
  715HOH     H2 2332   3.403   1.731   1.868
  716HOH      O 2333   2.582   3.713   2.840
  716HOH     H1 2334   2.522   3.786   2.854
  716HOH     H2 2335   2.669   3.752   2.852
  717HOH      O 2336   2.904   3.911   2.615
  717HOH     H1 2337   2.897   3.857   2.693
  717HOH     H2 2338   2.837   3.979   2.626
  718HOH      O 2339   3.629   0.283   2.492
  718HOH     H1 2340   3.647   0.343   2.563
  718HOH     H2 2341   3.607   0.339   2.417
  719HOH      O 2342   3.643   0.592   3.157
  719HOH     H1 2343   3.700   0.638   3.220
  719HOH     H2 2344   3.586   0.538   3.212
  720HOH      O 2345   0.792   3.031   0.111
  720HOH     H1 2346   0.848   3.042   0.034
  720HOH     H2 2347   0.704   3.049   0.079
  721HOH      O 2348   3.563   2.840   1.045
  721HOH     H1 2349   3.546   2.825   0.952
  721HOH     H2 2350   3.524   2.765   1.089
  722HOH      O 2351   0.775   3.813   0.093
  722HOH     H1 2352   0.754   3.895   0.050
  722HOH     H2 2353   0.870   3.818   0.108
  723HOH      O 2354   0.569   1.753   0.059
  723HOH     H1 2355   0.522   1.753  -0.025
  723HOH     H2 2356   0.541   1.834   0.102
  724HOH      O 2357   3.595   1.107   3.659
  724HOH     H1 2358   3.503   1.086   3.675
  724HOH     H2 2359   3.592   1.179   3.596
  725HOH      O 2360   2.847   2.914   3.979
  725HOH     H1 2361   2.794   2.875   3.910
  725HOH     H2 2362   2.809   2.881   4.060
  726HOH      O 2363   1.943   1.364   2.800
  726HOH     H1 2364   1.951   1.270   2.788
  726HOH     H2 2365   2.013   1.386   2.862
  727HOH      O 2366   1.222   1.830   3.365
  727HOH     H1 2367   1.241   1.921   3.388
  727HOH     H2 2368   1.147   1.807   3.420
  728HOH      O 2369   3.873   1.128   0.691
  728HOH     H1 2370   3.842   1.133   0.781
  728HOH     H2 2371   3.873   1.034   0.671
  729HOH      O 2372   0.759   1.549   3.009
  729HOH     H1 2373   0.766   1.485   2.937
  729HOH     H2 2374   0.719   1.626   2.969
  730HOH      O 2375   1.160   2.063   0.551
  730HOH     H1 2376   1.249   2.099   0.545
  730HOH     H2 2377   1.118   2.091   0.470
  731HOH      O 2378   0.897   0.879   0.130
  731HOH     H1 2379   0.946   0.811   0.083
  731HOH     H2 2380   0.938   0.961   0.102
  732HOH      O 2381   2.698   2.006   1.623
  732HOH     H1 2382   2.696   1.999   1.527
  732HOH     H2 2383   2.755   2.082   1.640
  733HOH      O 2384   1.806   2.564   3.006
  733HOH     H1 2385   1.833   2.653   3.027
  733HOH     H2 2386   1.718   2.573   2.970
  734HOH      O 2387   2.823   2.059   3.863
  734HOH     H1 2388   2.869   2.119   3.921
  734HOH     H2 2389   2.831   1.974   3.907
  735HOH      O 2390   1.039   3.758   1.507
  735HOH     H1 2391   1.036   3.810   1.587
  735HOH     H2 2392   1.120   3.786   1.464
  736HOH      O 2393   0.337   3.429   3.762
  736HOH     H1 2394   0.423   3.390   3.779
  736HOH     H2 2395   0.286   3.359   3.722
  737HOH      O 2396   3.930   0.296   0.788
  737HOH     H1 2397   3.938   0.203   0.768
  737HOH     H2 2398   3.838   0.308   0.812
  738HOH      O 2399   2.641   0.005   3.526
  738HOH     H1 2400   2.656   0.078   3.587
  738HOH     H2 2401   2.610  -0.066   3.582
  739HOH      O 2402   2.879   2.237   1.709
  739HOH     H1 2403   2.892   2.301   1.640
  739HOH     H2 2404   2.966   2.204   1.728
  740HOH      O 2405   0.548   0.521   2.252
  740HOH     H1 2406   0.635   0.537   2.215
  740HOH     H2 2407   0.534   0.594   2.312
  741HOH      O 2408   3.830   3.371   2.168
  741HOH     H1 2409   3.839   3.465   2.150
  741HOH     H2 2410   3.918   3.344   2.196
  742HOH      O 2411   1.100   0.897   1.868
  742HOH     H1 2412   1.070   0.806   1.867
  742HOH     H2 2413   1.117   0.916   1.960
  743HOH      O 2414   2.341   3.401   3.264
  743HOH     H1 2415   2.433   3.385   3.243
  743HOH     H2 2416   2.314   3.323   3.312
  744HOH      O 2417   1.015   0.664   3.122
  744HOH     H1 2418   1.071   0.622   3.188
  744HOH     H2 2419   1.066   0.739   3.092
  745HOH      O 2420   2.314   0.152   2.580
  745HOH     H1 2421   2.356   0.207   2.646
  745HOH     H2 2422   2.250   0.210   2.538
  746HOH      O 2423   1.866   1.710   2.742
  746HOH     H1 2424   1.827   1.744   2.823
  746HOH     H2 2425   1.960   1.729   2.750
  747HOH      O 2426   2.939   0.613   3.639
  747HOH     H1 2427   2.958   0.694   3.687
  747HOH     H2 2428   2.858   0.632   3.591
  748HOH      O 2429   0.693   1.973   3.385
  748HOH     H1 2430   0.648   2.051   3.419
  748HOH     H2 2431   0.625   1.906   3.381
  749HOH      O 2432   1.680   2.269   1.624
  749HOH     H1 2433   1.761   2.219   1.630
  749HOH     H2 2434   1.708   2.360   1.618
  750HOH      O 2435   1.138   0.730   2.225
  750HOH     H1 2436   1.214   0.724   2.283
  750HOH     H2 2437   1.137   0.821   2.196
  751HOH      O 2438   3.561   3.256   2.520
  751HOH     H1 2439   3.562   3.281   2.428
  751HOH     H2 2440   3.650   3.275   2.551
  752HOH      O 2441   2.751   0.116   2.939
  752HOH     H1 2442   2.813   0.046   2.957
  752HOH     H2 2443   2.803   0.196   2.939
  753HOH      O 2444   1.882   3.324   0.014
  753HOH     H1 2445   1.790   3.305  -0.008
  753HOH     H2 2446   1.879   3.355   0.104
  754HOH      O 2447   3.719   1.691   1.958
  754HOH     H1 2448   3.666   1.616   1.932
  754HOH     H2 2449   3.793   1.690   1.897
  755HOH      O 2450   3.492   0.667   1.415
  755HOH     H1 2451   3.419   0.708   1.369
  755HOH     H2 2452   3.451   0.609   1.479
  756HOH      O 2453   3.526   1.245   0.311
  756HOH     H1 2454   3.530   1.336   0.282
  756HOH     H2 2455   3.617   1.214   0.305
  757HOH      O 2456   2.572   2.234   2.530
  757HOH     H1 2457   2.518   2.192   2.463
  757HOH     H2 2458   2.575   2.326   2.505
  758HOH      O 2459   2.690   2.284   3.530
  758HOH     H1 2460   2.774   2.308   3.569
  758HOH     H2 2461   2.679   2.191   3.551
  759HOH      O 2462   2.764   3.986   0.666
  759HOH     H1 2463   2.737   3.967   0.576
  759HOH     H2 2464   2.684   3.977   0.717
  760HOH      O 2465   2.114   3.786   3.901
  760HOH     H1 2466   2.100   3.823   3.988
  760HOH     H2 2467   2.104   3.691   3.914
  761HOH      O 2468   0.188   2.448   3.732
  761HOH     H1 2469   0.132   2.455   3.809
  761HOH     H2 2470   0.267   2.405   3.763
  762HOH      O 2471   2.919   2.758   0.715
  762HOH     H1 2472   2.828   2.733   0.732
  762HOH     H2 2473   2.937   2.827   0.778
  763HOH      O 2474   0.734   1.482   3.409
  763HOH     H1 2475   0.769   1.398   3.378
  763HOH     H2 2476   0.657   1.497   3.353
  764HOH      O 2477   2.819   2.972   3.622
  764HOH     H1 2478   2.855   3.013   3.543
  764HOH     H2 2479   2.734   2.938   3.595
  765HOH      O 2480   2.000   2.497   0.086
  765HOH     H1 2481   2.015   2.587   0.056
  765HOH     H2 2482   2.011   2.501   0.181
  766HOH      O 2483   2.325   1.775   1.903
  766HOH     H1 2484   2.374   1.813   1.830
  766HOH     H2 2485   2.271   1.848   1.936
  767HOH      O 2486   3.669   1.244   0.555
  767HOH     H1 2487   3.741   1.227   0.616
  767HOH     H2 2488   3.665   1.340   0.551
  768HOH      O 2489   1.917   0.239   0.707
  768HOH     H1 2490   1.986   0.186   0.746
  768HOH     H2 2491   1.958   0.280   0.631
  769HOH      O 2492   2.431   1.910   1.695
  769HOH     H1 2493   2.386   1.915   1.610
  769HOH     H2 2494   2.524   1.908   1.672
  770HOH      O 2495   0.022   3.712   4.050
  770HOH     H1 2496   0.049   3.797   4.014
  770HOH     H2 2497   0.079   3.649   4.007
  771HOH      O 2498   0.323   3.678   0.589
  771HOH     H1 2499   0.379   3.755   0.601
  771HOH     H2 2500   0.234   3.712   0.593
  772HOH      O 2501   0.500   2.438   2.344
  772HOH     H1 2502   0.415   2.483   2.339
  772HOH     H2 2503   0.498   2.391   2.427
  773HOH      O 2504   3.111   1.393   3.456
  773HOH     H1 2505   3.189   1.371   3.405
  773HOH     H2 2506   3.103   1.320   3.518
  774HOH      O 2507   2.700   2.734   2.147
  774HOH     H1 2508   2.772   2.700   2.095
  774HOH     H2 2509   2.630   2.750   2.083
  775HOH      O 2510   1.562   3.881   1.730
  775HOH     H1 2511   1.538   3.883   1.638
  775HOH     H2 2512   1.619   3.957   1.743
  776HOH      O 2513   1.936   1.667   0.031
  776HOH     H1 2514   1.882   1.588   0.030
  776HOH     H2 2515   1.979   1.668  -0.055
  777HOH      O 2516   1.151   3.728   1.954
  777HOH     H1 2517   1.190   3.729   1.866
  777HOH     H2 2518   1.057   3.735   1.938
  778HOH      O 2519   0.084   0.596   1.495
  778HOH     H1 2520   0.154   0.531   1.489
  778HOH     H2 2521   0.060   0.613   1.403
  779HOH      O 2522   2.175   2.731   2.983
  779HOH     H1 2523   2.262   2.719   2.944
  779HOH     H2 2524   2.182   2.693   3.070
  780HOH      O 2525   3.876   1.187   1.832
  780HOH     H1 2526   3.886   1.282   1.821
  780HOH     H2 2527   3.962   1.158   1.862
  781HOH      O 2528   3.994   3.227   3.090
  781HOH     H1 2529   4.004   3.242   2.996
  781HOH     H2 2530   4.082   3.241   3.126
  782HOH      O 2531   3.086   1.583   1.571
  782HOH     H1 2532   3.063   1.508   1.626
  782HOH     H2 2533   3.072   1.552   1.481
  783HOH      O 2534   0.639   3.073   0.517
  783HOH     H1 2535   0.633   3.014   0.592
  783HOH     H2 2536   0.550   3.080   0.483
  784HOH      O 2537   1.425   1.189   1.622
  784HOH     H1 2538   1.386   1.211   1.706
  784HOH     H2 2539   1.373   1.239   1.558
  785HOH      O 2540   3.584   3.790   2.784
  785HOH     H1 2541   3.638   3.811   2.860
  785HOH     H2 2542   3.639   3.813   2.709
  786HOH      O 2543   1.081   3.741   0.419
  786HOH     H1 2544   1.070   3.647   0.403
  786HOH     H2 2545   1.059   3.752   0.511
  787HOH      O 2546   3.218   2.112   3.719
  787HOH     H1 2547   3.309   2.105   3.689
  787HOH     H2 2548   3.225   2.150   3.807
  788HOH      O 2549   1.136   1.441   2.191
  788HOH     H1 2550   1.072   1.464   2.258
  788HOH     H2 2551   1.108   1.490   2.113
  789HOH      O 2552   1.382   3.674   0.063
  789HOH     H1 2553   1.417   3.586   0.080
  789HOH     H2 2554   1.326   3.663  -0.015
  790HOH      O 2555   3.502   0.262   1.555
  790HOH     H1 2556   3.577   0.313   1.586
  790HOH     H2 2557   3.523   0.172   1.580
  791HOH      O 2558   1.209   0.501   2.583
  791HOH     H1 2559   1.303   0.514   2.588
  791HOH     H2 2560   1.197   0.406   2.589
  792HOH      O 2561   0.847   2.658   2.702
  792HOH     H1 2562   0.789   2.735   2.706
  792HOH     H2 2563   0.912   2.681   2.635
  793HOH      O 2564   0.523   1.061   3.762
  793HOH     H1 2565   0.616   1.084   3.759
  793HOH     H2 2566   0.489   1.108   3.839
  794HOH      O 2567   0.434   0.005   1.500
  794HOH     H1 2568   0.422   0.082   1.446
  794HOH     H2 2569   0.347  -0.034   1.507
  795HOH      O 2570   1.865   3.800   2.118
  795HOH     H1 2571   1.856   3.718   2.165
  795HOH     H2 2572   1.795   3.798   2.052
  796HOH      O 2573   2.848   0.353   0.285
  796HOH     H1 2574   2.825   0.260   0.282
  796HOH     H2 2575   2.791   0.394   0.220
  797HOH      O 2576   2.851   3.246   3.335
  797HOH     H1 2577   2.804   3.279   3.411
  797HOH     H2 2578   2.898   3.323   3.301
  798HOH      O 2579   3.217   0.903   0.238
  798HOH     H1 2580   3.235   0.921   0.145
  798HOH     H2 2581   3.196   0.810   0.240
  799HOH      O 2582   2.031   2.427   0.721
  799HOH     H1 2583   2.068   2.513   0.742
  799HOH     H2 2584   1.961   2.446   0.658
  800HOH      O 2585   0.137   1.285   3.626
  800HOH     H1 2586   0.174   1.208   3.582
  800HOH     H2 2587   0.042   1.276   3.614
  801HOH      O 2588   3.466   2.626   1.172
  801HOH     H1 2589   3.374   2.639   1.195
  801HOH     H2 2590   3.467   2.542   1.125
  802HOH      O 2591   2.758   2.116   0.383
  802HOH     H1 2592   2.802   2.042   0.424
  802HOH     H2 2593   2.738   2.087   0.294
  803HOH      O 2594   2.942   3.485   3.224
  803HOH     H1 2595   3.028   3.515   3.198
  803HOH     H2 2596   2.881   3.545   3.181
  804HOH      O 2597   1.370   0.738   3.618
  804HOH     H1 2598   1.461   0.739   3.588
  804HOH     H2 2599   1.377   0.716   3.711
  805HOH      O 2600   3.050   2.327   2.986
  805HOH     H1 2601   3.125   2.386   2.982
  805HOH     H2 2602   3.084   2.242   2.961
  806HOH      O 2603   1.266   3.661   3.835
  806HOH     H1 2604   1.199   3.602   3.801
  806HOH     H2 2605   1.337   3.658   3.771
  807HOH      O 2606   0.252   3.677   2.607
  807HOH     H1 2607   0.272   3.693   2.514
  807HOH     H2 2608   0.316   3.612   2.634
  808HOH      O 2609   1.870   0.430   1.672
  808HOH     H1 2610   1.793   0.405   1.621
  808HOH     H2 2611   1.910   0.501   1.623
  809HOH      O 2612   2.972   3.848   1.002
  809HOH     H1 2613   2.938   3.834   1.090
  809HOH     H2 2614   2.955   3.941   0.985
  810HOH      O 2615   3.323   3.221   1.842
  810HOH     H1 2616   3.414   3.192   1.832
  810HOH     H2 2617   3.329   3.315   1.856
  811HOH      O 2618   1.878   0.347   1.941
  811HOH     H1 2619   1.956   0.294   1.924
  811HOH     H2 2620   1.877   0.411   1.870
  812HOH      O 2621   0.464   3.059   1.486
  812HOH     H1 2622   0.389   3.108   1.451
  812HOH     H2 2623   0.426   2.984   1.530
  813HOH      O 2624   0.985   2.837   2.930
  813HOH     H1 2625   1.003   2.821   3.023
  813HOH     H2 2626   0.974   2.750   2.892
  814HOH      O 2627   1.024   0.304   1.306
  814HOH     H1 2628   0.936   0.294   1.270
  814HOH     H2 2629   1.071   0.225   1.278
  815HOH      O 2630   3.007   1.006   0.389
  815HOH     H1 2631   2.981   1.094   0.364
  815HOH     H2 2632   3.077   0.984   0.327
  816HOH      O 2633   1.564   3.742   3.105
  816HOH     H1 2634   1.518   3.797   3.042
  816HOH     H2 2635   1.511   3.663   3.111
  817HOH      O 2636   1.801   1.928   2.226
  817HOH     H1 2637   1.840   1.952   2.141
  817HOH     H2 2638   1.873   1.888   2.275
  818HOH      O 2639   3.053   0.000   2.186
  818HOH     H1 2640   3.109   0.075   2.207
  818HOH     H2 2641   3.113  -0.072   2.169
  819HOH      O 2642   2.992   3.210   0.330
  819HOH     H1 2643   2.927   3.265   0.285
  819HOH     H2 2644   2.940   3.139   0.369
  820HOH      O 2645   1.611   1.894   1.617
  820HOH     H1 2646   1.704   1.917   1.615
  820HOH     H2 2647   1.574   1.938   1.541
  821HOH      O 2648   1.068   1.569   2.652
  821HOH     H1 2649   1.110   1.483   2.648
  821HOH     H2 2650   1.122   1.619   2.714
  822HOH      O 2651   0.443   1.783   1.377
  822HOH     H1 2652   0.445   1.864   1.327
  822HOH     H2 2653   0.498   1.722   1.328
  823HOH      O 2654   2.868   0.293   1.116
  823HOH     H1 2655   2.929   0.265   1.047
  823HOH     H2 2656   2.908   0.371   1.154
  824HOH      O 2657   2.873   1.878   1.899
  824HOH     H1 2658   2.938   1.865   1.831
  824HOH     H2 2659   2.841   1.967   1.885
  825HOH      O 2660   1.193   2.364   2.166
  825HOH     H1 2661   1.207   2.351   2.072
  825HOH     H2 2662   1.126   2.300   2.189
  826HOH      O 2663   0.704   2.109   3.138
  826HOH     H1 2664   0.692   2.053   3.215
  826HOH     H2 2665   0.758   2.182   3.170
  827HOH      O 2666  -0.025   1.826   3.482
  827HOH     H1 2667   0.021   1.760   3.430
  827HOH     H2 2668   0.044   1.881   3.517
  828HOH      O 2669   0.178   2.971   1.948
  828HOH     H1 2670   0.157   3.020   1.869
  828HOH     H2 2671   0.273   2.978   1.956
  829HOH      O 2672   1.729   3.506   3.354
  829HOH     H1 2673   1.708   3.574   3.418
  829HOH     H2 2674   1.750   3.429   3.408
  830HOH      O 2675   0.164   2.782   2.610
  830HOH     H1 2676   0.103   2.738   2.551
  830HOH     H2 2677   0.111   2.845   2.658
  831HOH      O 2678  -0.020   2.034   1.592
  831HOH     H1 2679   0.013   1.961   1.540
  831HOH     H2 2680   0.051   2.054   1.653
  832HOH      O 2681   2.982   3.887   1.791
  832HOH     H1 2682   3.034   3.962   1.820
  832HOH     H2 2683   3.043   3.833   1.741
  833HOH      O 2684   0.974   3.772   2.835
  833HOH     H1 2685   0.924   3.794   2.756
  833HOH     H2 2686   1.065   3.770   2.805
  834HOH      O 2687   2.976   3.243   0.990
  834HOH     H1 2688   2.933   3.328   0.981
  834HOH     H2 2689   3.070   3.263   0.981
  835HOH      O 2690   1.974   1.336   3.410
  835HOH     H1 2691   1.943   1.247   3.430
  835HOH     H2 2692   1.894   1.388   3.402
  836HOH      O 2693   0.703   3.460   2.471
  836HOH     H1 2694   0.704   3.450   2.566
  836HOH     H2 2695   0.795   3.477   2.447
  837HOH      O 2696   1.231   2.608   2.258
  837HOH     H1 2697   1.259   2.611   2.350
  837HOH     H2 2698   1.229   2.515   2.237
  838HOH      O 2699   0.874   2.814   1.408
  838HOH     H1 2700   0.839   2.736   1.366
  838HOH     H2 2701   0.812   2.884   1.387
  839HOH      O 2702   2.702   2.856   1.227
  839HOH     H1 2703   2.771   2.833   1.165
  839HOH     H2 2704   2.668   2.940   1.194
  840HOH      O 2705   3.909   0.575   3.276
  840HOH     H1 2706   3.902   0.666   3.306
  840HOH     H2 2707   3.890   0.522   3.354
  841HOH      O 2708   0.664   2.398   1.438
  841HOH     H1 2709   0.668   2.317   1.489
  841HOH     H2 2710   0.576   2.432   1.454
  842HOH      O 2711   1.533   1.992   2.140
  842HOH     H1 2712   1.541   1.961   2.050
  842HOH     H2 2713   1.600   1.945   2.189
  843HOH      O 2714   1.954   1.976   0.714
  843HOH     H1 2715   1.935   1.929   0.632
  843HOH     H2 2716   2.047   1.996   0.708
  844HOH      O 2717   2.030   2.277   0.926
  844HOH     H1 2718   2.032   2.328   0.845
  844HOH     H2 2719   1.944   2.236   0.927
  845HOH      O 2720   0.923   1.885   0.623
  845HOH     H1 2721   0.876   1.912   0.702
  845HOH     H2 2722   1.008   1.930   0.629
  846HOH      O 2723   2.426   0.068   1.397
  846HOH     H1 2724   2.506   0.097   1.440
  846HOH     H2 2725   2.360   0.068   1.467
  847HOH      O 2726   2.940   1.675   3.184
  847HOH     H1 2727   2.993   1.692   3.262
  847HOH     H2 2728   2.955   1.582   3.166
  848HOH      O 2729   3.858   0.859   0.657
  848HOH     H1 2730   3.866   0.821   0.745
  848HOH     H2 2731   3.900   0.795   0.599
  849HOH      O 2732   1.010   2.137   3.679
  849HOH     H1 2733   1.046   2.212   3.632
  849HOH     H2 2734   1.041   2.061   3.630
  850HOH      O 2735   2.788   3.296   2.607
  850HOH     H1 2736   2.839   3.226   2.567
  850HOH     H2 2737   2.753   3.346   2.534
  851HOH      O 2738   3.134   2.164   1.751
  851HOH     H1 2739   3.147   2.075   1.783
  851HOH     H2 2740   3.223   2.201   1.748
  852HOH      O 2741   3.693   0.444   2.708
  852HOH     H1 2742   3.653   0.384   2.771
  852HOH     H2 2743   3.714   0.522   2.760
  853HOH      O 2744   3.989   2.871   2.095
  853HOH     H1 2745   4.072   2.890   2.052
  853HOH     H2 2746   3.997   2.780   2.124
  854HOH      O 2747   2.833   3.468   3.683
  854HOH     H1 2748   2.792   3.383   3.664
  854HOH     H2 2749   2.861   3.462   3.774
  855HOH      O 2750   2.842   2.246   2.521
  855HOH     H1 2751   2.747   2.245   2.528
  855HOH     H2 2752   2.870   2.318   2.577
  856HOH      O 2753   0.945   3.327   0.118
  856HOH     H1 2754   0.912   3.292   0.035
  856HOH     H2 2755   0.866   3.344   0.170
  857HOH      O 2756   3.037   1.987   3.069
  857HOH     H1 2757   3.096   1.915   3.089
  857HOH     H2 2758   2.982   1.996   3.147
  858HOH      O 2759   1.986   2.559   3.401
  858HOH     H1 2760   2.020   2.632   3.350
  858HOH     H2 2761   2.009   2.481   3.351
  859HOH      O 2762   0.188   3.189   3.647
  859HOH     H1 2763   0.244   3.116   3.674
  859HOH     H2 2764   0.178   3.178   3.553
  860HOH      O 2765   3.127   3.825   3.186
  860HOH     H1 2766   3.126   3.755   3.121
  860HOH     H2 2767   3.166   3.785   3.264
  861HOH      O 2768   1.788   3.271   2.026
  861HOH     H1 2769   1.822   3.199   2.079
  861HOH     H2 2770   1.838   3.266   1.944
  862HOH      O 2771   2.366   1.471   2.933
  862HOH     H1 2772   2.421   1.395   2.955
  862HOH     H2 2773   2.357   1.518   3.016
  863HOH      O 2774   1.500   3.591   2.718
  863HOH     H1 2775   1.540   3.576   2.632
  863HOH     H2 2776   1.542   3.526   2.775
  864HOH      O 2777   0.004   3.176   2.589
  864HOH     H1 2778   0.049   3.256   2.563
  864HOH     H2 2779  -0.014   3.131   2.506
  865HOH      O 2780   1.902   3.783   1.206
  865HOH     H1 2781   1.931   3.837   1.133
  865HOH     H2 2782   1.965   3.711   1.210
  866HOH      O 2783   0.997   0.461   2.415
  866HOH     H1 2784   1.068   0.507   2.459
  866HOH     H2 2785   0.917   0.494   2.458
  867HOH      O 2786   1.120   0.955   3.101
  867HOH     H1 2787   1.127   0.958   3.005
  867HOH     H2 2788   1.210   0.941   3.131
  868HOH      O 2789   2.346   1.597   3.162
  868HOH     H1 2790   2.324   1.539   3.235
  868HOH     H2 2791   2.356   1.684   3.201
  869HOH      O 2792   2.279   3.003   1.463
  869HOH     H1 2793   2.338   2.942   1.507
  869HOH     H2 2794   2.250   3.062   1.533
  870HOH      O 2795   2.201   0.068   2.947
  870HOH     H1 2796   2.147   0.092   2.871
  870HOH     H2 2797   2.146   0.090   3.023
  871HOH      O 2798   0.918   0.334   3.456
  871HOH     H1 2799   0.887   0.416   3.418
  871HOH     H2 2800   0.917   0.272   3.383
  872HOH      O 2801   0.925   1.994   1.608
  872HOH     H1 2802   0.969   1.973   1.526
  872HOH     H2 2803   0.951   2.085   1.627
  873HOH      O 2804   2.445   1.122   3.564
  873HOH     H1 2805   2.429   1.217   3.556
  873HOH     H2 2806   2.493   1.113   3.646
  874HOH      O 2807   2.056   0.063   3.199
  874HOH     H1 2808   2.057   0.016   3.282
  874HOH     H2 2809   1.978   0.031   3.154
  875HOH      O 2810   2.931   0.445   3.869
  875HOH     H1 2811   2.937   0.505   3.794
  875HOH     H2 2812   2.986   0.370   3.844
  876HOH      O 2813   1.510   3.720   3.679
  876HOH     H1 2814   1.574   3.654   3.706
  876HOH     H2 2815   1.536   3.798   3.727
  877HOH      O 2816   0.261   3.360   1.111
  877HOH     H1 2817   0.341   3.309   1.116
  877HOH     H2 2818   0.212   3.322   1.038
  878HOH      O 2819   0.179   3.498   2.011
  878HOH     H1 2820   0.170   3.506   2.105
  878HOH     H2 2821   0.251   3.435   1.999
  879HOH      O 2822   2.262   2.174   3.833
  879HOH     H1 2823   2.238   2.082   3.840
  879HOH     H2 2824   2.356   2.173   3.817
  880HOH      O 2825   2.637   2.044   0.141
  880HOH     H1 2826   2.640   2.087   0.055
  880HOH     H2 2827   2.545   2.025   0.156
  881HOH      O 2828   0.439   0.939   0.974
  881HOH     H1 2829   0.503   0.905   0.911
  881HOH     H2 2830   0.458   0.892   1.055
  882HOH      O 2831   2.268   0.211   3.943
  882HOH     H1 2832   2.213   0.286   3.922
  882HOH     H2 2833   2.210   0.151   3.991
  883HOH      O 2834   3.462   1.755   2.079
  883HOH     H1 2835   3.438   1.686   2.142
  883HOH     H2 2836   3.557   1.750   2.074
  884HOH      O 2837   3.245   0.256   2.919
  884HOH     H1 2838   3.221   0.311   2.994
  884HOH     H2 2839   3.234   0.167   2.951
  885HOH      O 2840   0.685   3.347   1.433
  885HOH     H1 2841   0.671   3.427   1.484
  885HOH     H2 2842   0.775   3.355   1.400
  886HOH      O 2843   1.060   0.506   2.083
  886HOH     H1 2844   1.073   0.569   2.154
  886HOH     H2 2845   1.128   0.440   2.097
  887HOH      O 2846   3.932   3.108   0.666
  887HOH     H1 2847   4.003   3.072   0.612
  887HOH     H2 2848   3.900   3.183   0.615
  888HOH      O 2849   3.602   2.758   0.074
  888HOH     H1 2850   3.663   2.706   0.022
  888HOH     H2 2851   3.522   2.705   0.076
  889HOH      O 2852   3.141   0.347   2.007
  889HOH     H1 2853   3.054   0.387   2.019
  889HOH     H2 2854   3.143   0.275   2.069
  890HOH      O 2855   2.281   0.567   2.831
  890HOH     H1 2856   2.217   0.538   2.766
  890HOH     H2 2857   2.325   0.486   2.859
  891HOH      O 2858   3.816   0.316   3.940
  891HOH     H1 2859   3.841   0.287   3.852
  891HOH     H2 2860   3.721   0.310   3.940
  892HOH      O 2861   3.939   1.376   2.660
  892HOH     H1 2862   3.868   1.403   2.719
  892HOH     H2 2863   3.894   1.351   2.579
  893HOH      O 2864   2.075   3.140   2.644
  893HOH     H1 2865   2.078   3.217   2.700
  893HOH     H2 2866   1.999   3.155   2.587
  894HOH      O 2867   1.989   0.741   3.734
  894HOH     H1 2868   2.051   0.718   3.803
  894HOH     H2 2869   1.904   0.711   3.767
  895HOH      O 2870   2.156   3.458   1.450
  895HOH     H1 2871   2.121   3.371   1.468
  895HOH     H2 2872   2.152   3.503   1.535
  896HOH      O 2873   2.533   0.171   3.083
  896HOH     H1 2874   2.467   0.111   3.119
  896HOH     H2 2875   2.579   0.119   3.017
  897HOH      O 2876   3.134   0.833   1.027
  897HOH     H1 2877   3.223   0.847   0.994
  897HOH     H2 2878   3.091   0.918   1.019
  898HOH      O 2879   2.474   2.802   1.571
  898HOH     H1 2880   2.474   2.755   1.488
  898HOH     H2 2881   2.488   2.734   1.637
  899HOH      O 2882   1.977   2.836   3.299
  899HOH     H1 2883   2.029   2.915   3.285
  899HOH     H2 2884   1.942   2.815   3.212
  900HOH      O 2885   1.255   1.645   1.109
  900HOH     H1 2886   1.321   1.591   1.065
  900HOH     H2 2887   1.297   1.672   1.191
  901HOH      O 2888   3.379   1.181   0.932
  901HOH     H1 2889   3.372   1.134   1.015
  901HOH     H2 2890   3.299   1.157   0.884
  902HOH      O 2891   0.301   3.703   3.731
  902HOH     H1 2892   0.222   3.710   3.677
  902HOH     H2 2893   0.349   3.629   3.694
  903HOH      O 2894   3.112   0.867   1.732
  903HOH     H1 2895   3.174   0.896   1.798
  903HOH     H2 2896   3.165   0.824   1.665
  904HOH      O 2897   0.081   3.484   3.257
  904HOH     H1 2898   0.041   3.445   3.335
  904HOH     H2 2899   0.009   3.531   3.215
  905HOH      O 2900   3.440   2.139   1.444
  905HOH     H1 2901   3.467   2.067   1.501
  905HOH     H2 2902   3.521   2.180   1.417
  906HOH      O 2903   0.664   2.701   1.044
  906HOH     H1 2904   0.618   2.771   1.091
  906HOH     H2 2905   0.709   2.652   1.112
  907HOH      O 2906   0.300   0.346   0.338
  907HOH     H1 2907   0.273   0.279   0.274
  907HOH     H2 2908   0.377   0.308   0.381
  908HOH      O 2909   0.077   0.213   3.003
  908HOH     H1 2910   0.027   0.264   2.938
  908HOH     H2 2911   0.090   0.274   3.075
  909HOH      O 2912   2.722   2.854   2.470
  909HOH     H1 2913   2.716   2.848   2.565
  909HOH     H2 2914   2.759   2.770   2.443
  910HOH      O 2915   4.028   0.989   3.305
  910HOH     H1 2916   3.946   1.018   3.347
  910HOH     H2 2917   4.047   0.905   3.346
  911HOH      O 2918   1.254   0.202   3.513
  911HOH     H1 2919   1.282   0.281   3.559
  911HOH     H2 2920   1.276   0.130   3.573
  912HOH      O 2921   1.131   3.593   2.193
  912HOH     H1 2922   1.156   3.673   2.238
  912HOH     H2 2923   1.135   3.615   2.100
  913HOH      O 2924   0.649   0.652   1.801
  913HOH     H1 2925   0.623   0.672   1.711
  913HOH     H2 2926   0.611   0.722   1.854
  914HOH      O 2927   0.661   3.875   1.585
  914HOH     H1 2928   0.673   3.967   1.610
  914HOH     H2 2929   0.592   3.878   1.518
  915HOH      O 2930   3.302   1.566   1.266
  915HOH     H1 2931   3.215   1.538   1.293
  915HOH     H2 2932   3.345   1.487   1.235
  916HOH      O 2933   0.129   2.591   1.599
  916HOH     H1 2934   0.170   2.628   1.522
  916HOH     H2 2935   0.153   2.498   1.597
  917HOH      O 2936   1.492   1.751   3.213
  917HOH     H1 2937   1.569   1.807   3.210
  917HOH     H2 2938   1.430   1.793   3.153
  918HOH      O 2939   0.495   2.165   1.881
  918HOH     H1 2940   0.504   2.235   1.817
  918HOH     H2 2941   0.586   2.140   1.902
  919HOH      O 2942   2.372   1.979   0.059
  919HOH     H1 2943   2.313   1.957  -0.013
  919HOH     H2 2944   2.319   1.969   0.138
  920HOH      O 2945   3.018   0.459   0.918
  920HOH     H1 2946   2.942   0.412   0.882
  920HOH     H2 2947   3.005   0.550   0.890
  921HOH      O 2948   2.249   3.203   0.119
  921HOH     H1 2949   2.195   3.227   0.044
  921HOH     H2 2950   2.312   3.140   0.083
  922HOH      O 2951   3.731   2.497   3.953
  922HOH     H1 2952   3.749   2.569   3.893
  922HOH     H2 2953   3.683   2.432   3.901
  923HOH      O 2954   0.149   0.689   0.087
  923HOH     H1 2955   0.181   0.729   0.007
  923HOH     H2 2956   0.190   0.603   0.089
  924HOH      O 2957   0.833   1.472   3.762
  924HOH     H1 2958   0.896   1.438   3.699
  924HOH     H2 2959   0.787   1.541   3.714
  925HOH      O 2960   2.099   2.328   2.521
  925HOH     H1 2961   2.142   2.343   2.605
  925HOH     H2 2962   2.080   2.416   2.488
  926HOH      O 2963   1.972   2.161   2.109
  926HOH     H1 2964   1.906   2.167   2.040
  926HOH     H2 2965   1.922   2.172   2.190
  927HOH      O 2966   0.434   1.074   2.581
  927HOH     H1 2967   0.489   1.144   2.615
  927HOH     H2 2968   0.350   1.086   2.625
  928HOH      O 2969   0.043   0.289   1.715
  928HOH     H1 2970   0.134   0.260   1.712
  928HOH     H2 2971   0.039   0.351   1.788
  929HOH      O 2972   1.530   3.752   0.961
  929HOH     H1 2973   1.563   3.666   0.936
  929HOH     H2 2974   1.562   3.811   0.894
  930HOH      O 2975   2.065   0.086   0.874
  930HOH     H1 2976   2.016   0.016   0.918
  930HOH     H2 2977   2.071   0.155   0.940
  931HOH      O 2978   3.165   0.674   1.935
  931HOH     H1 2979   3.103   0.725   1.883
  931HOH     H2 2980   3.249   0.689   1.892
  932HOH      O 2981   1.027   3.990   2.047
  932HOH     H1 2982   0.937   3.995   2.015
  932HOH     H2 2983   1.028   3.913   2.104
  933HOH      O 2984   0.878   1.251   3.301
  933HOH     H1 2985   0.872   1.188   3.230
  933HOH     H2 2986   0.972   1.257   3.319
  934HOH      O 2987   0.670   2.852   2.638
  934HOH     H1 2988   0.641   2.804   2.560
  934HOH     H2 2989   0.661   2.944   2.614
  935HOH      O 2990   1.227   0.794   0.100
  935HOH     H1 2991   1.263   0.855   0.164
  935HOH     H2 2992   1.270   0.816   0.018
  936HOH      O 2993   3.721   0.114   0.856
  936HOH     H1 2994   3.727   0.031   0.809
  936HOH     H2 2995   3.642   0.156   0.821
  937HOH      O 2996   1.379   1.343   2.317
  937HOH     H1 2997   1.290   1.361   2.286
  937HOH     H2 2998   1.397   1.414   2.379
  938HOH      O 2999   2.074   2.738  -0.006
  938HOH     H1 3000   1.985   2.771   0.002
  938HOH     H2 3001   2.128   2.805   0.037
  939HOH      O 3002   1.120   1.500   0.570
  939HOH     H1 3003   1.169   1.580   0.553
  939HOH     H2 3004   1.101   1.503   0.663
  940HOH      O 3005   2.757   2.488   1.125
  940HOH     H1 3006   2.774   2.450   1.040
  940HOH     H2 3007   2.665   2.513   1.123
  941HOH      O 3008   1.032   2.901   0.994
  941HOH     H1 3009   0.943   2.876   0.970
  941HOH     H2 3010   1.086   2.874   0.921
  942HOH      O 3011   1.665   0.233   2.394
  942HOH     H1 3012   1.588   0.282   2.365
  942HOH     H2 3013   1.665   0.155   2.339
  943HOH      O 3014   1.714   3.564   3.739
  943HOH     H1 3015   1.713   3.555   3.834
  943HOH     H2 3016   1.777   3.498   3.709
  944HOH      O 3017   0.287   0.827   3.935
  944HOH     H1 3018   0.263   0.913   3.969
  944HOH     H2 3019   0.320   0.844   3.847
  945HOH      O 3020   3.191   1.211   2.348
  945HOH     H1 3021   3.240   1.135   2.319
  945HOH     H2 3022   3.140   1.180   2.422
  946HOH      O 3023   2.908   3.712   0.001
  946HOH     H1 3024   2.998   3.691  -0.026
  946HOH     H2 3025   2.917   3.784   0.063
  947HOH      O 3026   1.693   2.252   0.744
  947HOH     H1 3027   1.707   2.325   0.804
  947HOH     H2 3028   1.735   2.177   0.787
  948HOH      O 3029   1.522   1.530   3.951
  948HOH     H1 3030   1.508   1.450   3.900
  948HOH     H2 3031   1.576   1.586   3.896
  949HOH      O 3032   2.121   1.167   1.631
  949HOH     H1 3033   2.176   1.096   1.664
  949HOH     H2 3034   2.129   1.161   1.536
  950HOH      O 3035   1.879   2.289   3.699
  950HOH     H1 3036   1.851   2.378   3.678
  950HOH     H2 3037   1.936   2.299   3.775
  951HOH      O 3038   3.257   0.675   3.036
  951HOH     H1 3039   3.225   0.608   3.096
  951HOH     H2 3040   3.347   0.648   3.017
  952HOH      O 3041   1.838   3.291   3.472
  952HOH     H1 3042   1.877   3.323   3.554
  952HOH     H2 3043   1.812   3.201   3.491
  953HOH      O 3044   0.939   1.711   3.212
  953HOH     H1 3045   0.863   1.660   3.186
  953HOH     H2 3046   0.942   1.783   3.148
  954HOH      O 3047   3.277   0.438   3.824
  954HOH     H1 3048   3.240   0.423   3.911
  954HOH     H2 3049   3.251   0.361   3.774
  955HOH      O 3050   0.660   3.575   2.984
  955HOH     H1 3051   0.601   3.650   2.982
  955HOH     H2 3052   0.603   3.501   3.008
  956HOH      O 3053   1.529   2.354   1.921
  956HOH     H1 3054   1.585   2.276   1.912
  956HOH     H2 3055   1.506   2.356   2.014
  957HOH      O 3056   3.570   1.841   1.579
  957HOH     H1 3057   3.514   1.822   1.654
  957HOH     H2 3058   3.638   1.898   1.615
  958HOH      O 3059   1.232   3.714   2.757
  958HOH     H1 3060   1.285   3.782   2.716
  958HOH     H2 3061   1.277   3.633   2.737
  959HOH      O 3062   1.396   0.101   1.618
  959HOH     H1 3063   1.468   0.164   1.626
  959HOH     H2 3064   1.406   0.066   1.529
  960HOH      O 3065   0.826   0.483   1.465
  960HOH     H1 3066   0.738   0.496   1.428
  960HOH     H2 3067   0.874   0.436   1.396
  961HOH      O 3068   0.832   0.324   1.983
  961HOH     H1 3069   0.767   0.307   1.915
  961HOH     H2 3070   0.916   0.317   1.938
  962HOH      O 3071   0.146   1.911   2.434
  962HOH     H1 3072   0.198   1.836   2.406
  962HOH     H2 3073   0.091   1.877   2.505
  963HOH      O 3074   0.208   1.284   0.742
  963HOH     H1 3075   0.291   1.250   0.773
  963HOH     H2 3076   0.161   1.207   0.710
  964HOH      O 3077   0.682   0.178   3.607
  964HOH     H1 3078   0.674   0.179   3.512
  964HOH     H2 3079   0.776   0.179   3.624
  965HOH      O 3080   3.991   0.104   1.434
  965HOH     H1 3081   3.917   0.046   1.450
  965HOH     H2 3082   3.953   0.192   1.435
  966HOH      O 3083   3.299   1.891   1.005
  966HOH     H1 3084   3.339   1.898   1.091
  966HOH     H2 3085   3.225   1.831   1.016
  967HOH      O 3086   1.727   0.985   3.190
  967HOH     H1 3087   1.741   0.930   3.113
  967HOH     H2 3088   1.787   1.059   3.178
  968HOH      O 3089   0.690   1.188   0.683
  968HOH     H1 3090   0.745   1.243   0.738
  968HOH     H2 3091   0.750   1.124   0.645
  969HOH      O 3092   3.384   0.843   0.908
  969HOH     H1 3093   3.434   0.772   0.950
  969HOH     H2 3094   3.451   0.905   0.878
  970HOH      O 3095   3.795   1.362   3.978
  970HOH     H1 3096   3.849   1.332   4.052
  970HOH     H2 3097   3.768   1.281   3.935
  971HOH      O 3098   3.642   1.161   1.660
  971HOH     H1 3099   3.645   1.216   1.738
  971HOH     H2 3100   3.718   1.189   1.609
  972HOH      O 3101   0.162   3.930   1.511
  972HOH     H1 3102   0.099   3.992   1.473
  972HOH     H2 3103   0.189   3.875   1.437
  973HOH      O 3104   0.820   0.169   0.773
  973HOH     H1 3105   0.875   0.231   0.725
  973HOH     H2 3106   0.730   0.195   0.753
  974HOH      O 3107   0.763   2.066   1.935
  974HOH     H1 3108   0.805   2.150   1.916
  974HOH     H2 3109   0.822   2.023   1.997
  975HOH      O 3110   3.734   2.784   2.793
  975HOH     H1 3111   3.664   2.783   2.858
  975HOH     H2 3112   3.744   2.877   2.771
  976HOH      O 3113   3.321   2.744   3.660
  976HOH     H1 3114   3.226   2.751   3.672
  976HOH     H2 3115   3.333   2.661   3.615
  977HOH      O 3116   0.334   3.411   3.460
  977HOH     H1 3117   0.359   3.493   3.419
  977HOH     H2 3118   0.245   3.395   3.429
  978HOH      O 3119   1.362   0.431   3.643
  978HOH     H1 3120   1.419   0.478   3.704
  978HOH     H2 3121   1.287   0.489   3.632
  979HOH      O 3122   1.341   0.170   0.851
  979HOH     H1 3123   1.431   0.188   0.879
  979HOH     H2 3124   1.304   0.257   0.833
  980HOH      O 3125   0.294   1.396   1.425
  980HOH     H1 3126   0.259   1.365   1.342
  980HOH     H2 3127   0.379   1.351   1.433
  981HOH      O 3128   1.962   3.344   0.887
  981HOH     H1 3129   1.977   3.433   0.856
  981HOH     H2 3130   1.875   3.322   0.854
  982HOH      O 3131   2.654   1.756   0.354
  982HOH     H1 3132   2.678   1.678   0.405
  982HOH     H2 3133   2.684   1.738   0.265
  983HOH      O 3134   2.448   3.690   3.147
  983HOH     H1 3135   2.442   3.759   3.213
  983HOH     H2 3136   2.360   3.652   3.144
  984HOH      O 3137   3.278   2.515   3.042
  984HOH     H1 3138   3.362   2.502   3.086
  984HOH     H2 3139   3.250   2.602   3.068
  985HOH      O 3140   3.465   2.079   2.547
  985HOH     H1 3141   3.478   2.048   2.457
  985HOH     H2 3142   3.412   2.158   2.537
  986HOH      O 3143   3.107   0.556   2.685
  986HOH     H1 3144   3.161   0.489   2.641
  986HOH     H2 3145   3.019   0.543   2.649
  987HOH      O 3146   0.854   2.180   2.842
  987HOH     H1 3147   0.811   2.256   2.804
  987HOH     H2 3148   0.910   2.215   2.911
  988HOH      O 3149   0.986   0.261   3.715
  988HOH     H1 3150   1.033   0.178   3.721
  988HOH     H2 3151   0.962   0.268   3.623
  989HOH      O 3152   1.833   1.381   3.997
  989HOH     H1 3153   1.906   1.362   4.057
  989HOH     H2 3154   1.767   1.315   4.018
  990HOH      O 3155   0.667   2.554   1.945
  990HOH     H1 3156   0.747   2.600   1.971
  990HOH     H2 3157   0.662   2.479   2.005
  991HOH      O 3158   3.765   0.881   3.628
  991HOH     H1 3159   3.702   0.954   3.629
  991HOH     H2 3160   3.849   0.923   3.609
  992HOH      O 3161   1.594   0.734   1.905
  992HOH     H1 3162   1.560   0.674   1.971
  992HOH     H2 3163   1.521   0.791   1.884
  993HOH      O 3164   1.560   0.281   3.487
  993HOH     H1 3165   1.604   0.202   3.520
  993HOH     H2 3166   1.494   0.301   3.553
  994HOH      O 3167   0.028   0.755   3.424
  994HOH     H1 3168   0.046   0.783   3.514
  994HOH     H2 3169   0.047   0.661   3.424
  995HOH      O 3170   1.133   1.292   3.443
  995HOH     H1 3171   1.211   1.346   3.459
  995HOH     H2 3172   1.151   1.250   3.359
  996HOH      O 3173   3.907   3.906   3.839
  996HOH     H1 3174   3.911   3.932   3.931
  996HOH     H2 3175   3.868   3.819   3.841
  997HOH      O 3176   3.536   3.485   3.041
  997HOH     H1 3177   3.525   3.508   2.949
  997HOH     H2 3178   3.611   3.425   3.042
  998HOH      O 3179   0.507   3.677   1.338
  998HOH     H1 3180   0.549   3.644   1.259
  998HOH     H2 3181   0.578   3.683   1.402
  999HOH      O 3182   2.384   0.701   1.941
  999HOH     H1 3183   2.436   0.732   1.867
  999HOH     H2 3184   2.417   0.613   1.959
 1000HOH      O 3185   3.773   0.809   2.575
 1000HOH     H1 3186   3.732   0.782   2.658
 1000HOH     H2 3187   3.865   0.783   2.584
 1001HOH      O 3188   0.042   0.793   3.690
 1001HOH     H1 3189  -0.001   0.710   3.711
 1001HOH     H2 3190  -0.001   0.857   3.747
 1002HOH      O 3191  -0.019   3.453   1.252
 1002HOH     H1 3192   0.010   3.522   1.312
 1002HOH     H2 3193   0.062   3.414   1.220
 1003HOH      O 3194   3.353   1.913   3.154
 1003HOH     H1 3195   3.374   1.820   3.142
 1003HOH     H2 3196   3.359   1.926   3.249
 1004HOH      O 3197   1.410   2.311   0.314
 1004HOH     H1 3198   1.497   2.349   0.305
 1004HOH     H2 3199   1.423   2.217   0.306
 1005HOH      O 3200   3.802   2.549   3.514
 1005HOH     H1 3201   3.803   2.527   3.421
 1005HOH     H2 3202   3.882   2.601   3.527
 1006HOH      O 3203   3.994   1.981   1.240
 1006HOH     H1 3204   4.047   1.945   1.312
 1006HOH     H2 3205   4.004   1.917   1.169
 1007HOH      O 3206   1.952   0.951   1.430
 1007HOH     H1 3207   2.048   0.949   1.429
 1007HOH     H2 3208   1.926   0.864   1.460
 1008HOH      O 3209   2.224   1.898   0.302
 1008HOH     H1 3210   2.218   1.805   0.281
 1008HOH     H2 3211   2.306   1.906   0.351
 1009HOH      O 3212   1.616   3.112   0.946
 1009HOH     H1 3213   1.669   3.191   0.935
 1009HOH     H2 3214   1.534   3.143   0.983
 1010HOH      O 3215   3.459   2.129   0.309
 1010HOH     H1 3216   3.542   2.127   0.357
 1010HOH     H2 3217   3.400   2.073   0.360
 1011HOH      O 3218   0.080   0.922   2.447
 1011HOH     H1 3219   0.031   0.937   2.527
 1011HOH     H2 3220   0.107   1.009   2.418
 1012HOH      O 3221   1.686   1.742   0.165
 1012HOH     H1 3222   1.732   1.774   0.242
 1012HOH     H2 3223   1.752   1.692   0.116
 1013HOH      O 3224   1.930   1.214   3.120
 1013HOH     H1 3225   1.946   1.259   3.203
 1013HOH     H2 3226   2.005   1.236   3.065
 1014HOH      O 3227   0.480   3.711   3.956
 1014HOH     H1 3228   0.411   3.707   3.890
 1014HOH     H2 3229   0.538   3.781   3.926
 1015HOH      O 3230   0.497   2.338   2.601
 1015HOH     H1 3231   0.443   2.417   2.597
 1015HOH     H2 3232   0.438   2.270   2.635
 1016HOH      O 3233   2.254   2.424   1.225
 1016HOH     H1 3234   2.297   2.414   1.310
 1016HOH     H2 3235   2.198   2.347   1.217
 1017HOH      O 3236   1.092   3.996   3.806
 1017HOH     H1 3237   1.175   3.974   3.848
 1017HOH     H2 3238   1.075   3.924   3.746
 1018HOH      O 3239   0.181   2.731   3.998
 1018HOH     H1 3240   0.245   2.685   3.944
 1018HOH     H2 3241   0.102   2.735   3.943
 1019HOH      O 3242   0.771   0.304   1.708
 1019HOH     H1 3243   0.778   0.395   1.678
 1019HOH     H2 3244   0.816   0.254   1.640
 1020HOH      O 3245   0.767   2.992   1.833
 1020HOH     H1 3246   0.860   3.010   1.816
 1020HOH     H2 3247   0.746   2.921   1.773
 1021HOH      O 3248   1.836   3.956   1.406
 1021HOH     H1 3249   1.833   4.043   1.368
 1021HOH     H2 3250   1.853   3.898   1.331
 1022HOH      O 3251   2.471   3.301   0.864
 1022HOH     H1 3252   2.512   3.339   0.942
 1022HOH     H2 3253   2.531   3.322   0.793
 1023HOH      O 3254   2.998   2.466   1.911
 1023HOH     H1 3255   3.082   2.426   1.932
 1023HOH     H2 3256   2.992   2.460   1.816
 1024HOH      O 3257   0.059   1.426   0.051
 1024HOH     H1 3258   0.088   1.437   0.141
 1024HOH     H2 3259  -0.018   1.483   0.042
 1025HOH      O 3260   1.078   0.674   2.754
 1025HOH     H1 3261   1.124   0.606   2.704
 1025HOH     H2 3262   1.001   0.629   2.789
 1026HOH      O 3263   1.413   3.015   3.853
 1026HOH     H1 3264   1.362   3.070   3.794
 1026HOH     H2 3265   1.492   2.992   3.804
 1027HOH      O 3266   0.565   0.995   0.371
 1027HOH     H1 3267   0.648   1.023   0.411
 1027HOH     H2 3268   0.506   1.069   0.384
 1028HOH      O 3269   1.769   0.561   3.798
 1028HOH     H1 3270   1.820   0.490   3.837
 1028HOH     H2 3271   1.678   0.539   3.821
 1029HOH      O 3272   1.076   1.773   2.156
 1029HOH     H1 3273   1.024   1.853   2.167
 1029HOH     H2 3274   1.143   1.778   2.224
 1030HOH      O 3275   0.035   0.278   1.045
 1030HOH     H1 3276  -0.006   0.297   0.960
 1030HOH     H2 3277   0.007   0.189   1.066
 1031HOH      O 3278   0.923   1.596   0.389
 1031HOH     H1 3279   0.961   1.657   0.327
 1031HOH     H2 3280   0.998   1.560   0.437
 1032HOH      O 3281   4.019   2.334   1.295
 1032HOH     H1 3282   4.016   2.406   1.231
 1032HOH     H2 3283   3.988   2.372   1.377
 1033HOH      O 3284   0.909   0.908   1.317
 1033HOH     H1 3285   0.877   0.998   1.329
 1033HOH     H2 3286   1.003   0.913   1.336
 1034HOH      O 3287   1.734   0.468   3.409
 1034HOH     H1 3288   1.687   0.396   3.450
 1034HOH     H2 3289   1.671   0.541   3.410
 1035HOH      O 3290   1.122   0.507   3.575
 1035HOH     H1 3291   1.073   0.428   3.552
 1035HOH     H2 3292   1.124   0.558   3.494
 1036HOH      O 3293   0.790   0.163   1.197
 1036HOH     H1 3294   0.711   0.114   1.177
 1036HOH     H2 3295   0.765   0.254   1.185
 1037HOH      O 3296   3.104   1.711   1.006
 1037HOH     H1 3297   3.029   1.696   0.949
 1037HOH     H2 3298   3.140   1.624   1.023
 1038HOH      O 3299   0.036   0.539   0.838
 1038HOH     H1 3300  -0.028   0.604   0.810
 1038HOH     H2 3301   0.009   0.458   0.795
 1039HOH      O 3302   0.646   1.512   0.127
 1039HOH     H1 3303   0.616   1.602   0.116
 1039HOH     H2 3304   0.582   1.474   0.188
 1040HOH      O 3305   2.020   1.437   1.585
 1040HOH     H1 3306   2.051   1.347   1.570
 1040HOH     H2 3307   2.075   1.469   1.656
 1041HOH      O 3308   0.938   1.022   3.919
 1041HOH     H1 3309   0.869   1.076   3.881
 1041HOH     H2 3310   0.927   0.937   3.877
 1042HOH      O 3311   1.062   1.786   0.011
 1042HOH     H1 3312   0.967   1.799   0.005
 1042HOH     H2 3313   1.075   1.745   0.096
 1043HOH      O 3314   2.701   0.971   2.740
 1043HOH     H1 3315   2.615   0.972   2.780
 1043HOH     H2 3316   2.716   1.060   2.710
 1044HOH      O 3317   3.573   2.084   2.104
 1044HOH     H1 3318   3.589   2.000   2.061
 1044HOH     H2 3319   3.656   2.130   2.099
 1045HOH      O 3320   0.754   0.475   2.561
 1045HOH     H1 3321   0.726   0.470   2.652
 1045HOH     H2 3322   0.755   0.569   2.541
 1046HOH      O 3323   2.878   2.190   1.378
 1046HOH     H1 3324   2.953   2.139   1.409
 1046HOH     H2 3325   2.814   2.124   1.352
 1047HOH      O 3326   0.080   0.755   1.949
 1047HOH     H1 3327   0.157   0.757   1.893
 1047HOH     H2 3328   0.007   0.775   1.890
 1048HOH      O 3329   3.229   3.245   3.126
 1048HOH     H1 3330   3.231   3.212   3.036
 1048HOH     H2 3331   3.174   3.184   3.174
 1049HOH      O 3332   0.395   1.380   0.243
 1049HOH     H1 3333   0.302   1.386   0.268
 1049HOH     H2 3334   0.440   1.353   0.323
 1050HOH      O 3335   1.501   2.808   4.000
 1050HOH     H1 3336   1.475   2.737   3.942
 1050HOH     H2 3337   1.477   2.888   3.953
 1051HOH      O 3338   3.307   2.294   2.445
 1051HOH     H1 3339   3.242   2.227   2.425
 1051HOH     H2 3340   3.256   2.371   2.468
 1052HOH      O 3341   0.343   1.727   2.064
 1052HOH     H1 3342   0.417   1.787   2.051
 1052HOH     H2 3343   0.344   1.708   2.158
 1053HOH      O 3344   0.904   2.034   1.064
 1053HOH     H1 3345   0.976   2.065   1.118
 1053HOH     H2 3346   0.923   1.941   1.050
 1054HOH      O 3347   3.676   2.362   2.666
 1054HOH     H1 3348   3.723   2.286   2.631
 1054HOH     H2 3349   3.646   2.334   2.753
 1055HOH      O 3350   3.178   2.469   3.718
 1055HOH     H1 3351   3.084   2.460   3.734
 1055HOH     H2 3352   3.219   2.414   3.785
 1056HOH      O 3353   3.798   2.215   2.050
 1056HOH     H1 3354   3.807   2.270   1.973
 1056HOH     H2 3355   3.877   2.161   2.050
 1057HOH      O 3356   2.987   2.930   1.805
 1057HOH     H1 3357   2.996   2.942   1.711
 1057HOH     H2 3358   3.067   2.886   1.832
 1058HOH      O 3359   0.340   0.081   0.234
 1058HOH     H1 3360   0.356   0.097   0.141
 1058HOH     H2 3361   0.296  -0.004   0.237
 1059HOH      O 3362   2.972   1.284   0.365
 1059HOH     H1 3363   2.896   1.339   0.348
 1059HOH     H2 3364   3.030   1.299   0.290
 1060HOH      O 3365   3.303   1.015   2.730
 1060HOH     H1 3366   3.303   0.920   2.715
 1060HOH     H2 3367   3.289   1.023   2.825
 1061HOH      O 3368   1.256   3.867   1.393
 1061HOH     H1 3369   1.292   3.835   1.311
 1061HOH     H2 3370   1.333   3.888   1.447
 1062HOH      O 3371   1.048   3.777   0.110
 1062HOH     H1 3372   1.136   3.783   0.073
 1062HOH     H2 3373   1.063   3.756   0.202
 1063HOH      O 3374   2.024   0.062   2.727
 1063HOH     H1 3375   2.076   0.028   2.654
 1063HOH     H2 3376   1.968   0.128   2.688
 1064HOH      O 3377   1.605   3.003   2.209
 1064HOH     H1 3378   1.697   3.017   2.187
 1064HOH     H2 3379   1.557   3.039   2.134
 1065HOH      O 3380   2.558   1.610   2.490
 1065HOH     H1 3381   2.582   1.622   2.398
 1065HOH     H2 3382   2.551   1.516   2.502
 1066HOH      O 3383   0.231   1.333   1.141
 1066HOH     H1 3384   0.139   1.318   1.119
 1066HOH     H2 3385   0.255   1.410   1.088
 1067HOH      O 3386   1.835   0.808   2.324
 1067HOH     H1 3387   1.858   0.780   2.235
 1067HOH     H2 3388   1.884   0.748   2.381
 1068HOH      O 3389   2.459   1.556   0.689
 1068HOH     H1 3390   2.540   1.506   0.706
 1068HOH     H2 3391   2.436   1.535   0.599
 1069HOH      O 3392   2.047   2.272   3.943
 1069HOH     H1 3393   2.136   2.252   3.915
 1069HOH     H2 3394   2.056   2.349   3.999
 1070HOH      O 3395   0.242   2.091   1.252
 1070HOH     H1 3396   0.152   2.122   1.240
 1070HOH     H2 3397   0.249   2.072   1.345
 1071HOH      O 3398   0.870   3.270   3.453
 1071HOH     H1 3399   0.936   3.330   3.487
 1071HOH     H2 3400   0.828   3.319   3.383
 1072HOH      O 3401   3.529   0.497   1.764
 1072HOH     H1 3402   3.571   0.504   1.850
 1072HOH     H2 3403   3.601   0.484   1.703
 1073HOH      O 3404   0.091   2.381   0.428
 1073HOH     H1 3405   0.129   2.450   0.483
 1073HOH     H2 3406   0.145   2.304   0.445
 1074HOH      O 3407  -0.005   2.114   0.855
 1074HOH     H1 3408   0.074   2.077   0.895
 1074HOH     H2 3409  -0.013   2.201   0.894
 1075HOH      O 3410   2.898   3.053   1.169
 1075HOH     H1 3411   2.808   3.055   1.199
 1075HOH     H2 3412   2.908   3.134   1.117
 1076HOH      O 3413   2.162   1.783   2.284
 1076HOH     H1 3414   2.155   1.825   2.198
 1076HOH     H2 3415   2.152   1.690   2.267
 1077HOH      O 3416   3.033   2.410   1.326
 1077HOH     H1 3417   3.102   2.362   1.372
 1077HOH     H2 3418   2.973   2.342   1.295
 1078HOH      O 3419   1.474   1.851   2.801
 1078HOH     H1 3420   1.506   1.803   2.877
 1078HOH     H2 3421   1.545   1.846   2.737
 1079HOH      O 3422   1.670   0.221   0.788
 1079HOH     H1 3423   1.756   0.218   0.747
 1079HOH     H2 3424   1.677   0.290   0.854
 1080HOH      O 3425   1.956   3.427   3.693
 1080HOH     H1 3426   2.007   3.484   3.635
 1080HOH     H2 3427   1.977   3.457   3.781
 1081HOH      O 3428   0.444   1.173   1.158
 1081HOH     H1 3429   0.385   1.099   1.148
 1081HOH     H2 3430   0.387   1.250   1.152
 1082HOH      O 3431   0.646   2.621   3.699
 1082HOH     H1 3432   0.644   2.695   3.760
 1082HOH     H2 3433   0.723   2.570   3.726
 1083HOH      O 3434   2.874   1.195   0.592
 1083HOH     H1 3435   2.929   1.216   0.517
 1083HOH     H2 3436   2.830   1.113   0.567
 1084HOH      O 3437   1.569   2.664   1.344
 1084HOH     H1 3438   1.646   2.673   1.289
 1084HOH     H2 3439   1.595   2.700   1.429
 1085HOH      O 3440   0.908   2.631   2.005
 1085HOH     H1 3441   0.943   2.663   1.922
 1085HOH     H2 3442   0.958   2.677   2.072
 1086HOH      O 3443   2.651   0.790   2.529
 1086HOH     H1 3444   2.575   0.745   2.565
 1086HOH     H2 3445   2.672   0.858   2.593
 1087HOH      O 3446   1.536   0.058   0.036
 1087HOH     H1 3447   1.523   0.151   0.020
 1087HOH     H2 3448   1.570   0.053   0.125
 1088HOH      O 3449   3.975   3.081   0.123
 1088HOH     H1 3450   4.023   3.086   0.040
 1088HOH     H2 3451   3.887   3.052   0.098
 1089HOH      O 3452   0.396   1.622   1.576
 1089HOH     H1 3453   0.427   1.681   1.506
 1089HOH     H2 3454   0.349   1.553   1.530
 1090HOH      O 3455   0.580   2.023   3.737
 1090HOH     H1 3456   0.639   1.969   3.684
 1090HOH     H2 3457   0.493   2.003   3.704
 1091HOH      O 3458   2.616   0.963   3.414
 1091HOH     H1 3459   2.702   0.986   3.449
 1091HOH     H2 3460   2.554   1.016   3.464
 1092HOH      O 3461   3.676   1.895   3.780
 1092HOH     H1 3462   3.625   1.816   3.764
 1092HOH     H2 3463   3.623   1.946   3.840
 1093HOH      O 3464   3.028   3.940   0.187
 1093HOH     H1 3465   3.109   3.896   0.212
 1093HOH     H2 3466   3.021   4.015   0.246
 1094HOH      O 3467   3.336   1.852   0.554
 1094HOH     H1 3468   3.267   1.791   0.578
 1094HOH     H2 3469   3.315   1.932   0.601
 1095HOH      O 3470   1.374   2.967   1.093
 1095HOH     H1 3471   1.300   2.934   1.144
 1095HOH     H2 3472   1.410   2.889   1.050
 1096HOH      O 3473   2.505   2.500   2.093
 1096HOH     H1 3474   2.501   2.561   2.167
 1096HOH     H2 3475   2.597   2.476   2.087
 1097HOH      O 3476   0.057   2.337   2.198
 1097HOH     H1 3477   0.073   2.286   2.119
 1097HOH     H2 3478  -0.038   2.329   2.212
 1098HOH      O 3479   3.509   1.438   2.992
 1098HOH     H1 3480   3.570   1.365   2.981
 1098HOH     H2 3481   3.449   1.430   2.918
 1099HOH      O 3482   0.603   0.115   1.799
 1099HOH     H1 3483   0.515   0.149   1.785
 1099HOH     H2 3484   0.661   0.189   1.777
 1100HOH      O 3485   0.863   0.485   3.790
 1100HOH     H1 3486   0.927   0.416   3.800
 1100HOH     H2 3487   0.793   0.446   3.738
 1101HOH      O 3488   3.722   1.074   3.915
 1101HOH     H1 3489   3.662   1.093   3.843
 1101HOH     H2 3490   3.674   1.014   3.972
 1102HOH      O 3491   0.637   0.917   0.035
 1102HOH     H1 3492   0.717   0.881   0.073
 1102HOH     H2 3493   0.640   1.010   0.056
 1103HOH      O 3494   3.458   2.744   1.454
 1103HOH     H1 3495   3.427   2.824   1.495
 1103HOH     H2 3496   3.449   2.759   1.360
 1104HOH      O 3497   1.905   3.911   0.963
 1104HOH     H1 3498   1.895   3.817   0.948
 1104HOH     H2 3499   1.817   3.941   0.987
 1105HOH      O 3500   0.468   1.804   2.487
 1105HOH     H1 3501   0.399   1.759   2.438
 1105HOH     H2 3502   0.520   1.733   2.526
 1106HOH      O 3503   0.631   3.759   2.187
 1106HOH     H1 3504   0.599   3.693   2.125
 1106HOH     H2 3505   0.602   3.842   2.150
 1107HOH      O 3506   0.552   0.302   0.423
 1107HOH     H1 3507   0.572   0.386   0.382
 1107HOH     H2 3508   0.614   0.241   0.384
 1108HOH      O 3509   2.786   3.661   1.618
 1108HOH     H1 3510   2.710   3.604   1.630
 1108HOH     H2 3511   2.808   3.691   1.706
 1109HOH      O 3512   0.316   0.035   1.140
 1109HOH     H1 3513   0.346  -0.031   1.203
 1109HOH     H2 3514   0.267   0.098   1.193
 1110HOH      O 3515   3.555   2.608   3.122
 1110HOH     H1 3516   3.518   2.659   3.050
 1110HOH     H2 3517   3.522   2.651   3.201
 1111HOH      O 3518   2.524   0.831   3.150
 1111HOH     H1 3519   2.563   0.754   3.108
 1111HOH     H2 3520   2.430   0.813   3.151
 1112HOH      O 3521   1.436   0.698   3.282
 1112HOH     H1 3522   1.449   0.792   3.268
 1112HOH     H2 3523   1.499   0.675   3.350
 1113HOH      O 3524   1.587   1.997   1.344
 1113HOH     H1 3525   1.579   2.092   1.343
 1113HOH     H2 3526   1.679   1.980   1.321
 1114HOH      O 3527   2.336   3.001   3.846
 1114HOH     H1 3528   2.250   3.029   3.878
 1114HOH     H2 3529   2.398   3.041   3.907
 1115HOH      O 3530   3.954   2.689   3.092
 1115HOH     H1 3531   3.981   2.692   3.000
 1115HOH     H2 3532   3.869   2.732   3.093
 1116HOH      O 3533   2.445   0.613   2.561
 1116HOH     H1 3534   2.357   0.648   2.548
 1116HOH     H2 3535   2.443   0.574   2.648
 1117HOH      O 3536   1.443   3.317   1.794
 1117HOH     H1 3537   1.477   3.227   1.793
 1117HOH     H2 3538   1.511   3.369   1.751
 1118HOH      O 3539   3.337   3.912   3.644
 1118HOH     H1 3540   3.336   3.818   3.630
 1118HOH     H2 3541   3.398   3.924   3.717
 1119HOH      O 3542   2.508   3.788   3.704
 1119HOH     H1 3543   2.472   3.870   3.738
 1119HOH     H2 3544   2.566   3.757   3.774
 1120HOH      O 3545   0.489   1.535   3.222
 1120HOH     H1 3546   0.433   1.551   3.299
 1120HOH     H2 3547   0.432   1.555   3.147
 1121HOH      O 3548   1.409   1.106   2.192
 1121HOH     H1 3549   1.393   1.179   2.252
 1121HOH     H2 3550   1.475   1.053   2.236
 1122HOH      O 3551   1.785   3.149   1.643
 1122HOH     H1 3552   1.726   3.224   1.639
 1122HOH     H2 3553   1.869   3.183   1.610
 1123HOH      O 3554   2.068   3.521   3.947
 1123HOH     H1 3555   2.142   3.465   3.925
 1123HOH     H2 3556   2.003   3.462   3.985
 1124HOH      O 3557   2.075   3.153   3.929
 1124HOH     H1 3558   2.068   3.178   3.836
 1124HOH     H2 3559   1.990   3.177   3.966
 1125HOH      O 3560   0.779   0.443   1.166
 1125HOH     H1 3561   0.742   0.434   1.079
 1125HOH     H2 3562   0.776   0.537   1.183
 1126HOH      O 3563   1.468   2.814   3.126
 1126HOH     H1 3564   1.392   2.776   3.082
 1126HOH     H2 3565   1.472   2.904   3.092
 1127HOH      O 3566   0.768   2.591   1.269
 1127HOH     H1 3567   0.859   2.566   1.284
 1127HOH     H2 3568   0.720   2.508   1.267
 1128HOH      O 3569   0.749   2.030   0.845
 1128HOH     H1 3570   0.803   2.037   0.924
 1128HOH     H2 3571   0.665   1.998   0.877
 1129HOH      O 3572   0.274   1.036   3.480
 1129HOH     H1 3573   0.267   0.977   3.405
 1129HOH     H2 3574   0.285   0.977   3.555
 1130HOH      O 3575   0.153   2.465   0.126
 1130HOH     H1 3576   0.156   2.554   0.092
 1130HOH     H2 3577   0.126   2.476   0.218
 1131HOH      O 3578   3.594   2.140   0.996
 1131HOH     H1 3579   3.678   2.175   1.024
 1131HOH     H2 3580   3.612   2.048   0.977
 1132HOH      O 3581   3.211   1.922   1.764
 1132HOH     H1 3582   3.146   1.865   1.723
 1132HOH     H2 3583   3.292   1.870   1.764
 1133HOH      O 3584   0.595   3.026   0.920
 1133HOH     H1 3585   0.654   3.096   0.894
 1133HOH     H2 3586   0.584   3.037   1.014
 1134HOH      O 3587   2.297   2.840   2.464
 1134HOH     H1 3588   2.332   2.927   2.486
 1134HOH     H2 3589   2.357   2.808   2.397
 1135HOH      O 3590   0.776   3.183   0.798
 1135HOH     H1 3591   0.842   3.241   0.837
 1135HOH     H2 3592   0.762   3.219   0.710
 1136HOH      O 3593   1.613   0.771   1.473
 1136HOH     H1 3594   1.706   0.753   1.485
 1136HOH     H2 3595   1.594   0.737   1.385
 1137HOH      O 3596   3.480   2.780   0.804
 1137HOH     H1 3597   3.424   2.858   0.801
 1137HOH     H2 3598   3.419   2.706   0.802
 1138HOH      O 3599   0.238   0.198   1.383
 1138HOH     H1 3600   0.147   0.186   1.355
 1138HOH     H2 3601   0.237   0.281   1.432
 1139HOH      O 3602   1.558   3.009   1.286
 1139HOH     H1 3603   1.521   2.982   1.201
 1139HOH     H2 3604   1.484   3.002   1.347
 1140HOH      O 3605   0.047   3.107   3.884
 1140HOH     H1 3606  -0.001   3.080   3.806
 1140HOH     H2 3607   0.090   3.189   3.859
 1141HOH      O 3608   2.734   1.237   2.611
 1141HOH     H1 3609   2.741   1.320   2.658
 1141HOH     H2 3610   2.662   1.250   2.549
 1142HOH      O 3611   0.153   3.485   3.960
 1142HOH     H1 3612   0.082   3.448   3.907
 1142HOH     H2 3613   0.227   3.492   3.900
 1143HOH      O 3614   0.477   0.779   0.229
 1143HOH     H1 3615   0.507   0.824   0.150
 1143HOH     H2 3616   0.516   0.828   0.301
 1144HOH      O 3617   0.094   1.648   3.330
 1144HOH     H1 3618   0.105   1.603   3.247
 1144HOH     H2 3619   0.176   1.632   3.377
 1145HOH      O 3620   3.443   0.181   3.770
 1145HOH     H1 3621   3.513   0.117   3.781
 1145HOH     H2 3622   3.366   0.140   3.811
 1146HOH      O 3623   0.655   2.789   3.918
 1146HOH     H1 3624   0.605   2.862   3.953
 1146HOH     H2 3625   0.745   2.822   3.912
 1147HOH      O 3626   1.392   2.792   2.657
 1147HOH     H1 3627   1.398   2.855   2.584
 1147HOH     H2 3628   1.381   2.707   2.615
 1148HOH      O 3629   3.554   0.746   2.395
 1148HOH     H1 3630   3.476   0.733   2.449
 1148HOH     H2 3631   3.615   0.793   2.452
 1149HOH      O 3632   0.891   1.922   3.007
 1149HOH     H1 3633   0.889   1.921   2.911
 1149HOH     H2 3634   0.860   2.009   3.030
 1150HOH      O 3635   1.768   2.346   4.033
 1150HOH     H1 3636   1.851   2.312   3.999
 1150HOH     H2 3637   1.705   2.276   4.014
 1151HOH      O 3638   2.878   0.532   2.521
 1151HOH     H1 3639   2.864   0.591   2.447
 1151HOH     H2 3640   2.824   0.456   2.501
 1152HOH      O 3641   2.253   0.362   1.516
 1152HOH     H1 3642   2.249   0.332   1.425
 1152HOH     H2 3643   2.183   0.427   1.523
 1153HOH      O 3644   3.857   3.074   1.295
 1153HOH     H1 3645   3.784   3.101   1.350
 1153HOH     H2 3646   3.921   3.037   1.357
 1154HOH      O 3647   3.806   1.310   1.500
 1154HOH     H1 3648   3.892   1.344   1.526
 1154HOH     H2 3649   3.764   1.385   1.458
 1155HOH      O 3650   3.610   3.748   0.255
 1155HOH     H1 3651   3.546   3.813   0.286
 1155HOH     H2 3652   3.558   3.685   0.206
 1156HOH      O 3653   3.580   1.619   2.642
 1156HOH     H1 3654   3.529   1.562   2.584
 1156HOH     H2 3655   3.588   1.569   2.724
 1157HOH      O 3656   2.487   0.991   2.926
 1157HOH     H1 3657   2.425   0.948   2.868
 1157HOH     H2 3658   2.479   0.943   3.009
 1158HOH      O 3659   3.998   0.143   2.114
 1158HOH     H1 3660   3.954   0.149   2.199
 1158HOH     H2 3661   4.088   0.170   2.132
 1159HOH      O 3662   0.755   0.827   2.942
 1159HOH     H1 3663   0.727   0.899   2.886
 1159HOH     H2 3664   0.764   0.753   2.883
 1160HOH      O 3665   0.671   2.773   3.476
 1160HOH     H1 3666   0.633   2.712   3.540
 1160HOH     H2 3667   0.603   2.839   3.463
 1161HOH      O 3668   3.305   3.571   1.508
 1161HOH     H1 3669   3.322   3.644   1.449
 1161HOH     H2 3670   3.384   3.517   1.503
 1162HOH      O 3671   3.035   2.970   0.882
 1162HOH     H1 3672   3.120   2.958   0.839
 1162HOH     H2 3673   3.017   3.064   0.874
 1163HOH      O 3674   1.602   2.005   3.099
 1163HOH     H1 3675   1.656   2.051   3.162
 1163HOH     H2 3676   1.565   2.074   3.044
 1164HOH      O 3677   1.274   2.578   2.525
 1164HOH     H1 3678   1.334   2.514   2.487
 1164HOH     H2 3679   1.235   2.534   2.601
 1165HOH      O 3680   3.358   2.400   1.516
 1165HOH     H1 3681   3.349   2.367   1.606
 1165HOH     H2 3682   3.419   2.339   1.474
 1166HOH      O 3683   3.155   0.787   2.817
 1166HOH     H1 3684   3.128   0.710   2.768
 1166HOH     H2 3685   3.191   0.752   2.899
 1167HOH      O 3686   2.938   3.720   2.027
 1167HOH     H1 3687   3.013   3.746   2.080
 1167HOH     H2 3688   2.929   3.791   1.963
 1168HOH      O 3689   1.794   1.008   2.506
 1168HOH     H1 3690   1.835   1.002   2.420
 1168HOH     H2 3691   1.763   1.098   2.511
 1169HOH      O 3692   1.458   3.901   2.249
 1169HOH     H1 3693   1.531   3.963   2.259
 1169HOH     H2 3694   1.389   3.952   2.207
 1170HOH      O 3695   0.636   0.222   2.982
 1170HOH     H1 3696   0.625   0.311   3.013
 1170HOH     H2 3697   0.548   0.194   2.956
 1171HOH      O 3698   3.336   4.028   1.495
 1171HOH     H1 3699   3.407   4.011   1.556
 1171HOH     H2 3700   3.323   3.945   1.449
 1172HOH      O 3701   1.848   2.749   0.700
 1172HOH     H1 3702   1.771   2.728   0.648
 1172HOH     H2 3703   1.825   2.725   0.789
 1173HOH      O 3704   2.674   2.205   3.238
 1173HOH     H1 3705   2.636   2.195   3.325
 1173HOH     H2 3706   2.752   2.258   3.252
 1174HOH      O 3707   3.546   0.303   2.889
 1174HOH     H1 3708   3.580   0.228   2.938
 1174HOH     H2 3709   3.457   0.276   2.864
 1175HOH      O 3710   1.284   0.934   3.454
 1175HOH     H1 3711   1.317   0.855   3.497
 1175HOH     H2 3712   1.332   0.938   3.371
 1176HOH      O 3713   1.355   2.249   1.064
 1176HOH     H1 3714   1.374   2.162   1.029
 1176HOH     H2 3715   1.292   2.287   1.003
 1177HOH      O 3716   1.513   1.461   1.676
 1177HOH     H1 3717   1.480   1.445   1.764
 1177HOH     H2 3718   1.533   1.374   1.641
 1178HOH      O 3719   0.060   0.444   1.931
 1178HOH     H1 3720  -0.008   0.511   1.923
 1178HOH     H2 3721   0.119   0.478   1.999
 1179HOH      O 3722   1.713   2.619   0.288
 1179HOH     H1 3723   1.623   2.608   0.259
 1179HOH     H2 3724   1.749   2.688   0.232
 1180HOH      O 3725   3.423   1.264   1.950
 1180HOH     H1 3726   3.478   1.188   1.970
 1180HOH     H2 3727   3.364   1.271   2.025
 1181HOH      O 3728   0.187   2.090   1.731
 1181HOH     H1 3729   0.214   2.057   1.817
 1181HOH     H2 3730   0.269   2.100   1.682
 1182HOH      O 3731   0.746   0.731   2.521
 1182HOH     H1 3732   0.793   0.814   2.531
 1182HOH     H2 3733   0.668   0.754   2.470
 1183HOH      O 3734   0.201   1.038   0.594
 1183HOH     H1 3735   0.212   1.012   0.686
 1183HOH     H2 3736   0.204   0.956   0.545
 1184HOH      O 3737   3.803   2.109   1.409
 1184HOH     H1 3738   3.843   2.096   1.323
 1184HOH     H2 3739   3.870   2.082   1.471
 1185HOH      O 3740   0.490   0.258   3.821
 1185HOH     H1 3741   0.482   0.353   3.815
 1185HOH     H2 3742   0.555   0.235   3.754
 1186HOH      O 3743   1.400   0.147   1.889
 1186HOH     H1 3744   1.392   0.124   1.796
 1186HOH     H2 3745   1.375   0.068   1.936
 1187HOH      O 3746   3.944   0.971   2.776
 1187HOH     H1 3747   3.921   0.942   2.864
 1187HOH     H2 3748   3.860   0.996   2.737
 1188HOH      O 3749   1.396   2.286   1.582
 1188HOH     H1 3750   1.406   2.381   1.590
 1188HOH     H2 3751   1.486   2.253   1.576
 1189HOH      O 3752   2.858   0.403   3.197
 1189HOH     H1 3753   2.823   0.483   3.236
 1189HOH     H2 3754   2.817   0.332   3.246
 1190HOH      O 3755   0.156   2.282   3.518
 1190HOH     H1 3756   0.127   2.339   3.589
 1190HOH     H2 3757   0.200   2.340   3.456
 1191HOH      O 3758   3.695   2.477   0.185
 1191HOH     H1 3759   3.701   2.489   0.091
 1191HOH     H2 3760   3.608   2.510   0.208
 1192HOH      O 3761   3.250   1.783   2.335
 1192HOH     H1 3762   3.213   1.774   2.423
 1192HOH     H2 3763   3.333   1.828   2.349
 1193HOH      O 3764   3.760   2.358   0.630
 1193HOH     H1 3765   3.815   2.396   0.561
 1193HOH     H2 3766   3.746   2.430   0.692
 1194HOH      O 3767   0.398   1.757   3.866
 1194HOH     H1 3768   0.324   1.711   3.905
 1194HOH     H2 3769   0.360   1.838   3.832
 1195HOH      O 3770   2.601   2.737   3.217
 1195HOH     H1 3771   2.542   2.813   3.208
 1195HOH     H2 3772   2.592   2.711   3.308
 1196HOH      O 3773   0.166   1.205   2.958
 1196HOH     H1 3774   0.113   1.169   3.029
 1196HOH     H2 3775   0.161   1.139   2.889
 1197HOH      O 3776   0.995   1.549   1.118
 1197HOH     H1 3777   1.082   1.576   1.148
 1197HOH     H2 3778   0.983   1.461   1.154
 1198HOH      O 3779   3.279   0.532   3.345
 1198HOH     H1 3780   3.324   0.587   3.409
 1198HOH     H2 3781   3.194   0.514   3.385
 1199HOH      O 3782   3.243   0.621   1.179
 1199HOH     H1 3783   3.217   0.711   1.163
 1199HOH     H2 3784   3.283   0.593   1.096
 1200HOH      O 3785   1.382   0.028   3.702
 1200HOH     H1 3786   1.376  -0.051   3.757
 1200HOH     H2 3787   1.358   0.099   3.762
 1201HOH      O 3788   2.142   3.513   0.417
 1201HOH     H1 3789   2.200   3.440   0.395
 1201HOH     H2 3790   2.196   3.591   0.401
 1202HOH      O 3791   1.869   1.945   1.226
 1202HOH     H1 3792   1.861   1.985   1.140
 1202HOH     H2 3793   1.882   1.851   1.209
 1203HOH      O 3794   3.712   3.290   1.620
 1203HOH     H1 3795   3.722   3.311   1.713
 1203HOH     H2 3796   3.652   3.357   1.586
 1204HOH      O 3797   3.312   1.209   3.695
 1204HOH     H1 3798   3.251   1.146   3.655
 1204HOH     H2 3799   3.292   1.206   3.788
 1205HOH      O 3800   2.791   2.147   1.964
 1205HOH     H1 3801   2.761   2.218   2.021
 1205HOH     H2 3802   2.798   2.188   1.878
 1206HOH      O 3803   3.950   2.788   3.917
 1206HOH     H1 3804   3.907   2.852   3.974
 1206HOH     H2 3805   3.883   2.764   3.853
 1207HOH      O 3806   2.109   1.216   1.359
 1207HOH     H1 3807   2.178   1.202   1.294
 1207HOH     H2 3808   2.035   1.164   1.327
 1208HOH      O 3809   3.216   0.631   2.328
 1208HOH     H1 3810   3.255   0.626   2.241
 1208HOH     H2 3811   3.181   0.543   2.343
 1209HOH      O 3812   0.074   2.393   2.781
 1209HOH     H1 3813   0.004   2.338   2.817
 1209HOH     H2 3814   0.134   2.405   2.854
 1210HOH      O 3815   0.479   0.672   2.693
 1210HOH     H1 3816   0.529   0.610   2.745
 1210HOH     H2 3817   0.522   0.672   2.607
 1211HOH      O 3818   0.069   3.448   2.553
 1211HOH     H1 3819   0.155   3.480   2.581
 1211HOH     H2 3820   0.076   3.436   2.459
 1212HOH      O 3821   1.701   3.273   1.326
 1212HOH     H1 3822   1.678   3.180   1.325
 1212HOH     H2 3823   1.646   3.312   1.258
 1213HOH      O 3824   0.249   2.617   0.973
 1213HOH     H1 3825   0.190   2.683   0.937
 1213HOH     H2 3826   0.310   2.598   0.901
 1214HOH      O 3827   0.615   0.010   1.018
 1214HOH     H1 3828   0.580   0.079   0.962
 1214HOH     H2 3829   0.579  -0.071   0.982
 1215HOH      O 3830   0.736   2.495   3.093
 1215HOH     H1 3831   0.772   2.577   3.127
 1215HOH     H2 3832   0.789   2.427   3.134
 1216HOH      O 3833   1.284   3.698   3.356
 1216HOH     H1 3834   1.327   3.634   3.413
 1216HOH     H2 3835   1.324   3.686   3.270
 1217HOH      O 3836   3.643   2.337   1.416
 1217HOH     H1 3837   3.724   2.292   1.442
 1217HOH     H2 3838   3.623   2.395   1.489
 1218HOH      O 3839   2.725   1.642   1.953
 1218HOH     H1 3840   2.668   1.633   1.876
 1218HOH     H2 3841   2.752   1.733   1.952
 1219HOH      O 3842   2.174   0.284   1.849
 1219HOH     H1 3843   2.168   0.375   1.820
 1219HOH     H2 3844   2.193   0.290   1.943
 1220HOH      O 3845   0.106   1.999   3.221
 1220HOH     H1 3846   0.019   1.958   3.229
 1220HOH     H2 3847   0.087   2.092   3.208
 1221HOH      O 3848   1.375   1.335   0.791
 1221HOH     H1 3849   1.310   1.402   0.773
 1221HOH     H2 3850   1.423   1.325   0.709
 1222HOH      O 3851   2.791   1.132   2.252
 1222HOH     H1 3852   2.698   1.114   2.239
 1222HOH     H2 3853   2.822   1.060   2.307
 1223HOH      O 3854   3.089   2.518   0.973
 1223HOH     H1 3855   3.081   2.425   0.952
 1223HOH     H2 3856   3.121   2.559   0.892
 1224HOH      O 3857   2.164   3.423   2.278
 1224HOH     H1 3858   2.176   3.329   2.292
 1224HOH     H2 3859   2.096   3.448   2.341
 1225HOH      O 3860   0.480   1.233   3.505
 1225HOH     H1 3861   0.415   1.167   3.482
 1225HOH     H2 3862   0.476   1.239   3.601
 1226HOH      O 3863   3.577   2.938   0.559
 1226HOH     H1 3864   3.589   2.931   0.653
 1226HOH     H2 3865   3.665   2.946   0.523
 1227HOH      O 3866   0.646   2.111   0.604
 1227HOH     H1 3867   0.688   2.067   0.678
 1227HOH     H2 3868   0.587   2.175   0.645
 1228HOH      O 3869   1.362   3.360   2.531
 1228HOH     H1 3870   1.332   3.337   2.443
 1228HOH     H2 3871   1.288   3.338   2.587
 1229HOH      O 3872   1.541   3.072   3.064
 1229HOH     H1 3873   1.626   3.098   3.028
 1229HOH     H2 3874   1.482   3.145   3.042
 1230HOH      O 3875   0.136   2.879   0.196
 1230HOH     H1 3876   0.098   2.963   0.172
 1230HOH     H2 3877   0.148   2.834   0.112
 1231HOH      O 3878   2.561   3.380   1.113
 1231HOH     H1 3879   2.517   3.458   1.147
 1231HOH     H2 3880   2.650   3.386   1.147
 1232HOH      O 3881   2.276   2.847   1.215
 1232HOH     H1 3882   2.228   2.766   1.196
 1232HOH     H2 3883   2.367   2.819   1.220
 1233HOH      O 3884   2.895   3.431   3.940
 1233HOH     H1 3885   2.884   3.507   3.997
 1233HOH     H2 3886   2.958   3.376   3.987
 1234HOH      O 3887   1.335   3.031   1.440
 1234HOH     H1 3888   1.275   2.967   1.402
 1234HOH     H2 3889   1.277   3.093   1.486
 1235HOH      O 3890   1.196   2.821   1.773
 1235HOH     H1 3891   1.158   2.902   1.807
 1235HOH     H2 3892   1.127   2.755   1.785
 1236HOH      O 3893   3.362   2.613   0.109
 1236HOH     H1 3894   3.278   2.654   0.089
 1236HOH     H2 3895   3.341   2.522   0.126
 1237HOH      O 3896   2.750   3.434   2.367
 1237HOH     H1 3897   2.665   3.471   2.343
 1237HOH     H2 3898   2.775   3.381   2.291
 1238HOH      O 3899   2.988   2.398   2.311
 1238HOH     H1 3900   3.069   2.359   2.280
 1238HOH     H2 3901   2.944   2.327   2.358
 1239HOH      O 3902   3.709   2.208   0.095
 1239HOH     H1 3903   3.682   2.293   0.131
 1239HOH     H2 3904   3.800   2.199   0.122
 1240HOH      O 3905   3.749   2.687   3.769
 1240HOH     H1 3906   3.699   2.760   3.733
 1240HOH     H2 3907   3.782   2.641   3.692
 1241HOH      O 3908   1.789   1.289   1.603
 1241HOH     H1 3909   1.862   1.333   1.560
 1241HOH     H2 3910   1.770   1.343   1.679
 1242HOH      O 3911   1.520   2.927   3.385
 1242HOH     H1 3912   1.520   2.893   3.295
 1242HOH     H2 3913   1.597   2.983   3.390
 1243HOH      O 3914   0.974   0.596   4.043
 1243HOH     H1 3915   0.941   0.584   3.954
 1243HOH     H2 3916   1.065   0.623   4.032
 1244HOH      O 3917   2.113   1.796   2.573
 1244HOH     H1 3918   2.086   1.704   2.576
 1244HOH     H2 3919   2.132   1.812   2.480
 1245HOH      O 3920   1.090   0.213   1.895
 1245HOH     H1 3921   1.073   0.135   1.949
 1245HOH     H2 3922   1.151   0.265   1.947
 1246HOH      O 3923   2.448   1.770   3.451
 1246HOH     H1 3924   2.507   1.757   3.376
 1246HOH     H2 3925   2.499   1.744   3.527
 1247HOH      O 3926   0.813   1.863   3.940
 1247HOH     H1 3927   0.815   1.891   3.849
 1247HOH     H2 3928   0.731   1.814   3.948
 1248HOH      O 3929   1.576   3.857   2.845
 1248HOH     H1 3930   1.651   3.863   2.785
 1248HOH     H2 3931   1.530   3.778   2.819
 1249HOH      O 3932   0.879   3.501   2.191
 1249HOH     H1 3933   0.839   3.483   2.276
 1249HOH     H2 3934   0.967   3.532   2.212
 1250HOH      O 3935   0.149   3.637   1.734
 1250HOH     H1 3936   0.121   3.723   1.767
 1250HOH     H2 3937   0.182   3.592   1.811
 1251HOH      O 3938   2.833   2.428   0.299
 1251HOH     H1 3939   2.835   2.340   0.336
 1251HOH     H2 3940   2.912   2.434   0.245
 1252HOH      O 3941   0.349   2.553   2.567
 1252HOH     H1 3942   0.263   2.509   2.566
 1252HOH     H2 3943   0.328   2.645   2.581
 1253HOH      O 3944   0.761   1.176   1.321
 1253HOH     H1 3945   0.697   1.232   1.366
 1253HOH     H2 3946   0.717   1.150   1.240
 1254HOH      O 3947   2.162   3.121   0.379
 1254HOH     H1 3948   2.074   3.149   0.406
 1254HOH     H2 3949   2.174   3.161   0.293
 1255HOH      O 3950   0.421   1.468   0.945
 1255HOH     H1 3951   0.463   1.382   0.953
 1255HOH     H2 3952   0.471   1.512   0.876
 1256HOH      O 3953   2.545   3.111   2.725
 1256HOH     H1 3954   2.483   3.116   2.652
 1256HOH     H2 3955   2.589   3.196   2.726
 1257HOH      O 3956   2.250   3.790   2.838
 1257HOH     H1 3957   2.197   3.818   2.912
 1257HOH     H2 3958   2.320   3.855   2.833
 1258HOH      O 3959   1.242   0.329   1.666
 1258HOH     H1 3960   1.170   0.297   1.720
 1258HOH     H2 3961   1.287   0.250   1.637
 1259HOH      O 3962   2.483   3.098   3.597
 1259HOH     H1 3963   2.431   3.055   3.665
 1259HOH     H2 3964   2.439   3.075   3.516
 1260HOH      O 3965   1.159   3.483   3.656
 1260HOH     H1 3966   1.135   3.492   3.564
 1260HOH     H2 3967   1.136   3.393   3.679
 1261HOH      O 3968   2.881   3.372   0.689
 1261HOH     H1 3969   2.941   3.420   0.633
 1261HOH     H2 3970   2.902   3.401   0.778
 1262HOH      O 3971   1.267   2.846   0.762
 1262HOH     H1 3972   1.350   2.893   0.750
 1262HOH     H2 3973   1.284   2.758   0.729
 1263HOH      O 3974   2.146   3.130   2.336
 1263HOH     H1 3975   2.198   3.078   2.275
 1263HOH     H2 3976   2.204   3.144   2.411
 1264HOH      O 3977   2.474   2.723   3.674
 1264HOH     H1 3978   2.498   2.772   3.595
 1264HOH     H2 3979   2.448   2.637   3.642
 1265HOH      O 3980   3.174   1.345   0.149
 1265HOH     H1 3981   3.124   1.374   0.072
 1265HOH     H2 3982   3.255   1.309   0.112
 1266HOH      O 3983   1.969   2.989   0.989
 1266HOH     H1 3984   1.890   2.964   1.037
 1266HOH     H2 3985   1.936   3.029   0.908
 1267HOH      O 3986   1.370   0.832   2.528
 1267HOH     H1 3987   1.363   0.767   2.457
 1267HOH     H2 3988   1.348   0.783   2.607
 1268HOH      O 3989   0.886   2.266   0.744
 1268HOH     H1 3990   0.862   2.176   0.768
 1268HOH     H2 3991   0.854   2.276   0.654
 1269HOH      O 3992   2.377   2.085   1.905
 1269HOH     H1 3993   2.420   2.090   1.819
 1269HOH     H2 3994   2.433   2.026   1.956
 1270HOH      O 3995   3.521   1.384   1.083
 1270HOH     H1 3996   3.454   1.359   1.020
 1270HOH     H2 3997   3.570   1.454   1.039
 1271HOH      O 3998   3.346   0.135   0.953
 1271HOH     H1 3999   3.354   0.218   0.907
 1271HOH     H2 4000   3.285   0.153   1.025
 1272HOH      O 4001   1.931   3.763   3.349
 1272HOH     H1 4002   1.840   3.792   3.336
 1272HOH     H2 4003   1.973   3.836   3.395
 1273HOH      O 4004   1.039   2.851   3.228
 1273HOH     H1 4005   1.050   2.802   3.309
 1273HOH     H2 4006   1.064   2.940   3.249
 1274HOH      O 4007   0.812   3.745   1.321
 1274HOH     H1 4008   0.771   3.672   1.369
 1274HOH     H2 4009   0.892   3.764   1.371
 1275HOH      O 4010   1.066   3.127   0.419
 1275HOH     H1 4011   1.038   3.079   0.496
 1275HOH     H2 4012   1.013   3.091   0.348
 1276HOH      O 4013   2.225   1.138   3.142
 1276HOH     H1 4014   2.216   1.221   3.189
 1276HOH     H2 4015   2.312   1.107   3.166
 1277HOH      O 4016   1.665   1.280   2.518
 1277HOH     H1 4017   1.676   1.366   2.559
 1277HOH     H2 4018   1.572   1.260   2.528
 1278HOH      O 4019   0.942   1.639   3.479
 1278HOH     H1 4020   0.864   1.584   3.471
 1278HOH     H2 4021   0.937   1.699   3.404
 1279HOH      O 4022   2.365   0.394   1.099
 1279HOH     H1 4023   2.400   0.476   1.134
 1279HOH     H2 4024   2.441   0.347   1.066
 1280HOH      O 4025   3.073   2.252   0.868
 1280HOH     H1 4026   3.010   2.228   0.800
 1280HOH     H2 4027   3.149   2.195   0.852
 1281HOH      O 4028   0.245   0.818   0.471
 1281HOH     H1 4029   0.274   0.734   0.508
 1281HOH     H2 4030   0.250   0.805   0.376
 1282HOH      O 4031   3.689   3.054   2.698
 1282HOH     H1 4032   3.597   3.080   2.703
 1282HOH     H2 4033   3.737   3.125   2.742
 1283HOH      O 4034   1.768   2.900   1.162
 1283HOH     H1 4035   1.719   2.980   1.184
 1283HOH     H2 4036   1.792   2.863   1.247
 1284HOH      O 4037   1.222   3.193   0.080
 1284HOH     H1 4038   1.152   3.239   0.126
 1284HOH     H2 4039   1.177   3.127   0.026
 1285HOH      O 4040   1.442   2.873   1.654
 1285HOH     H1 4041   1.356   2.852   1.692
 1285HOH     H2 4042   1.422   2.912   1.569
 1286HOH      O 4043   0.845   0.035   0.437
 1286HOH     H1 4044   0.869  -0.001   0.352
 1286HOH     H2 4045   0.912   0.102   0.455
 1287HOH      O 4046   3.311   3.127   1.173
 1287HOH     H1 4047   3.372   3.196   1.201
 1287HOH     H2 4048   3.336   3.109   1.082
 1288HOH      O 4049   3.441   1.710   0.373
 1288HOH     H1 4050   3.416   1.745   0.458
 1288HOH     H2 4051   3.369   1.651   0.349
 1289HOH      O 4052   0.162   3.199   0.315
 1289HOH     H1 4053   0.163   3.260   0.241
 1289HOH     H2 4054   0.070   3.173   0.322
 1290HOH      O 4055   2.809   0.777   1.608
 1290HOH     H1 4056   2.901   0.761   1.628
 1290HOH     H2 4057   2.774   0.690   1.584
 1291HOH      O 4058   0.908   1.337   1.633
 1291HOH     H1 4059   0.850   1.261   1.624
 1291HOH     H2 4060   0.890   1.390   1.556
 1292HOH      O 4061   3.001   0.772   3.117
 1292HOH     H1 4062   2.948   0.820   3.053
 1292HOH     H2 4063   3.059   0.717   3.065
 1293HOH      O 4064   2.225   1.424   3.325
 1293HOH     H1 4065   2.140   1.385   3.349
 1293HOH     H2 4066   2.275   1.423   3.406
 1294HOH      O 4067   0.392   0.206   0.945
 1294HOH     H1 4068   0.368   0.148   1.016
 1294HOH     H2 4069   0.315   0.207   0.888
 1295HOH      O 4070   3.634   1.260   2.503
 1295HOH     H1 4071   3.716   1.211   2.513
 1295HOH     H2 4072   3.578   1.226   2.572
 1296HOH      O 4073   0.602   0.836   0.768
 1296HOH     H1 4074   0.569   0.882   0.691
 1296HOH     H2 4075   0.583   0.743   0.751
 1297HOH      O 4076   0.021   2.961   1.497
 1297HOH     H1 4077   0.028   2.971   1.592
 1297HOH     H2 4078  -0.038   2.886   1.485
 1298HOH      O 4079   3.402   3.035   2.590
 1298HOH     H1 4080   3.315   3.073   2.601
 1298HOH     H2 4081   3.457   3.109   2.562
 1299HOH      O 4082   0.291   0.916   3.200
 1299HOH     H1 4083   0.225   0.982   3.220
 1299HOH     H2 4084   0.374   0.964   3.204
 1300HOH      O 4085   3.300   3.774   1.073
 1300HOH     H1 4086   3.390   3.767   1.104
 1300HOH     H2 4087   3.307   3.820   0.989
 1301HOH      O 4088   2.578   1.664   3.683
 1301HOH     H1 4089   2.507   1.606   3.708
 1301HOH     H2 4090   2.585   1.727   3.755
 1302HOH      O 4091   3.793   2.534   3.248
 1302HOH     H1 4092   3.710   2.558   3.207
 1302HOH     H2 4093   3.860   2.576   3.194
 1303HOH      O 4094   0.806   3.681   0.592
 1303HOH     H1 4095   0.821   3.772   0.617
 1303HOH     H2 4096   0.761   3.686   0.508
 1304HOH      O 4097   2.657   1.929   2.703
 1304HOH     H1 4098   2.672   1.936   2.797
 1304HOH     H2 4099   2.744   1.912   2.666
 1305HOH      O 4100   0.555   2.512   2.898
 1305HOH     H1 4101   0.618   2.515   2.969
 1305HOH     H2 4102   0.580   2.435   2.846
 1306HOH      O 4103   0.655   0.212   3.308
 1306HOH     H1 4104   0.740   0.212   3.265
 1306HOH     H2 4105   0.643   0.302   3.338
 1307HOH      O 4106   0.260   0.204   0.672
 1307HOH     H1 4107   0.178   0.162   0.699
 1307HOH     H2 4108   0.244   0.231   0.581
 1308HOH      O 4109   3.150   2.208   0.414
 1308HOH     H1 4110   3.121   2.138   0.473
 1308HOH     H2 4111   3.122   2.288   0.457
 1309HOH      O 4112   0.200   0.880   0.824
 1309HOH     H1 4113   0.288   0.905   0.853
 1309HOH     H2 4114   0.214   0.800   0.773
 1310HOH      O 4115   1.457   2.724   3.587
 1310HOH     H1 4116   1.516   2.766   3.525
 1310HOH     H2 4117   1.378   2.778   3.585
 1311HOH      O 4118   2.088   1.136   2.881
 1311HOH     H1 4119   2.139   1.151   2.961
 1311HOH     H2 4120   2.134   1.187   2.814
 1312HOH      O 4121   2.221   1.247   2.668
 1312HOH     H1 4122   2.280   1.172   2.658
 1312HOH     H2 4123   2.174   1.252   2.585
 1313HOH      O 4124   0.588   1.529   1.238
 1313HOH     H1 4125   0.660   1.489   1.189
 1313HOH     H2 4126   0.512   1.523   1.180
 1314HOH      O 4127  -0.017   2.031   2.010
 1314HOH     H1 4128   0.075   2.057   2.012
 1314HOH     H2 4129  -0.016   1.939   2.036
 1315HOH      O 4130   2.116   2.718   1.428
 1315HOH     H1 4131   2.143   2.757   1.511
 1315HOH     H2 4132   2.171   2.760   1.362
 1316HOH      O 4133   1.763   3.336   0.699
 1316HOH     H1 4134   1.692   3.394   0.673
 1316HOH     H2 4135   1.841   3.375   0.660
 1317HOH      O 4136   0.133   1.393   0.325
 1317HOH     H1 4137   0.149   1.445   0.404
 1317HOH     H2 4138   0.098   1.310   0.358
 1318HOH      O 4139   2.162   3.911   0.117
 1318HOH     H1 4140   2.161   3.866   0.202
 1318HOH     H2 4141   2.255   3.922   0.096
 1319HOH      O 4142   3.979   3.827   2.559
 1319HOH     H1 4143   4.011   3.873   2.636
 1319HOH     H2 4144   4.039   3.754   2.548
 1320HOH      O 4145   1.543   2.271   3.504
 1320HOH     H1 4146   1.577   2.266   3.593
 1320HOH     H2 4147   1.477   2.341   3.507
 1321HOH      O 4148   2.438   2.334   2.905
 1321HOH     H1 4149   2.397   2.264   2.854
 1321HOH     H2 4150   2.532   2.324   2.889
 1322HOH      O 4151   3.334   0.939   0.473
 1322HOH     H1 4152   3.306   0.943   0.381
 1322HOH     H2 4153   3.298   0.857   0.505
 1323HOH      O 4154   3.825   1.195   0.245
 1323HOH     H1 4155   3.845   1.112   0.203
 1323HOH     H2 4156   3.882   1.197   0.322
 1324HOH      O 4157   1.775   0.396   2.197
 1324HOH     H1 4158   1.793   0.322   2.256
 1324HOH     H2 4159   1.822   0.374   2.117
 1325HOH      O 4160   1.851   2.485   1.634
 1325HOH     H1 4161   1.802   2.567   1.638
 1325HOH     H2 4162   1.927   2.499   1.691
 1326HOH      O 4163   2.941   4.018   3.946
 1326HOH     H1 4164   2.855   4.056   3.963
 1326HOH     H2 4165   2.971   3.986   4.032
 1327HOH      O 4166   1.288   3.968   2.029
 1327HOH     H1 4167   1.203   4.006   2.050
 1327HOH     H2 4168   1.267   3.884   1.989
 1328HOH      O 4169   1.276   0.947   0.331
 1328HOH     H1 4170   1.323   0.892   0.394
 1328HOH     H2 4171   1.193   0.966   0.374
 1329HOH      O 4172   3.521   0.377   3.337
 1329HOH     H1 4173   3.512   0.315   3.409
 1329HOH     H2 4174   3.435   0.419   3.330
 1330HOH      O 4175   0.884   0.797   0.394
 1330HOH     H1 4176   0.886   0.848   0.313
 1330HOH     H2 4177   0.954   0.834   0.447
 1331HOH      O 4178   1.796   3.670   0.855
 1331HOH     H1 4179   1.868   3.634   0.802
 1331HOH     H2 4180   1.763   3.595   0.904
 1332HOH      O 4181   2.063   3.360   2.818
 1332HOH     H1 4182   2.011   3.440   2.812
 1332HOH     H2 4183   2.102   3.362   2.905
 1333HOH      O 4184   0.817   1.716   2.660
 1333HOH     H1 4185   0.895   1.662   2.674
 1333HOH     H2 4186   0.845   1.805   2.683
 1334HOH      O 4187   0.234   1.821   0.767
 1334HOH     H1 4188   0.280   1.863   0.693
 1334HOH     H2 4189   0.243   1.883   0.839
 1335HOH      O 4190   0.140   1.865   0.452
 1335HOH     H1 4191   0.118   1.792   0.510
 1335HOH     H2 4192   0.236   1.869   0.455
 1336HOH      O 4193   2.638   1.660   2.225
 1336HOH     H1 4194   2.645   1.651   2.130
 1336HOH     H2 4195   2.713   1.714   2.249
 1337HOH      O 4196   3.738   3.005   4.000
 1337HOH     H1 4197   3.669   3.071   3.992
 1337HOH     H2 4198   3.698   2.935   4.052
 1338HOH      O 4199   1.271   1.651   1.586
 1338HOH     H1 4200   1.335   1.614   1.525
 1338HOH     H2 4201   1.220   1.712   1.533
 1339HOH      O 4202   3.147   0.375   0.055
 1339HOH     H1 4203   3.126   0.369   0.148
 1339HOH     H2 4204   3.065   0.401   0.014
 1340HOH      O 4205   0.858   3.879   2.622
 1340HOH     H1 4206   0.786   3.831   2.581
 1340HOH     H2 4207   0.818   3.959   2.656
 1341HOH      O 4208   3.973   3.039   2.310
 1341HOH     H1 4209   3.884   3.012   2.334
 1341HOH     H2 4210   3.993   2.988   2.232
 1342HOH      O 4211   1.448   1.435   1.319
 1342HOH     H1 4212   1.493   1.370   1.265
 1342HOH     H2 4213   1.512   1.503   1.333
 1343HOH      O 4214   2.904   0.360   2.905
 1343HOH     H1 4215   2.963   0.418   2.857
 1343HOH     H2 4216   2.907   0.391   2.995
 1344HOH      O 4217   4.012   2.666   2.827
 1344HOH     H1 4218   4.053   2.584   2.799
 1344HOH     H2 4219   3.921   2.658   2.796
 1345HOH      O 4220   1.180   1.441   3.927
 1345HOH     H1 4221   1.100   1.466   3.973
 1345HOH     H2 4222   1.180   1.345   3.928
 1346HOH      O 4223   3.558   2.371   2.945
 1346HOH     H1 4224   3.531   2.456   2.979
 1346HOH     H2 4225   3.572   2.317   3.023
 1347HOH      O 4226   1.923   1.724   1.953
 1347HOH     H1 4227   1.890   1.675   2.028
 1347HOH     H2 4228   1.854   1.717   1.887
 1348HOH      O 4229   3.611   3.087   1.455
 1348HOH     H1 4230   3.635   3.140   1.531
 1348HOH     H2 4231   3.523   3.054   1.476
 1349HOH      O 4232   0.781   0.837   0.969
 1349HOH     H1 4233   0.769   0.924   1.007
 1349HOH     H2 4234   0.719   0.835   0.895
 1350HOH      O 4235   3.765   1.812   2.624
 1350HOH     H1 4236   3.727   1.879   2.680
 1350HOH     H2 4237   3.714   1.733   2.642
 1351HOH      O 4238   0.096   0.467   3.518
 1351HOH     H1 4239   0.072   0.379   3.489
 1351HOH     H2 4240   0.036   0.485   3.591
 1352HOH      O 4241   2.341   1.085   1.941
 1352HOH     H1 4242   2.265   1.106   1.994
 1352HOH     H2 4243   2.305   1.035   1.867
 1353HOH      O 4244   3.227   2.789   1.760
 1353HOH     H1 4245   3.278   2.715   1.795
 1353HOH     H2 4246   3.292   2.845   1.718
 1354HOH      O 4247   3.557   3.093   1.794
 1354HOH     H1 4248   3.576   3.016   1.847
 1354HOH     H2 4249   3.632   3.150   1.807
 1355HOH      O 4250   0.476   3.806   2.967
 1355HOH     H1 4251   0.409   3.850   2.914
 1355HOH     H2 4252   0.441   3.807   3.056
 1356HOH      O 4253   1.914   1.089   1.794
 1356HOH     H1 4254   1.984   1.120   1.736
 1356HOH     H2 4255   1.845   1.155   1.786
 1357HOH      O 4256   0.083   1.668   1.998
 1357HOH     H1 4257   0.043   1.706   2.076
 1357HOH     H2 4258   0.177   1.674   2.014
 1358HOH      O 4259   4.019   3.364   3.493
 1358HOH     H1 4260   3.925   3.350   3.507
 1358HOH     H2 4261   4.057   3.363   3.581
 1359HOH      O 4262   2.288   2.264   0.874
 1359HOH     H1 4263   2.219   2.279   0.938
 1359HOH     H2 4264   2.269   2.178   0.837
 1360HOH      O 4265   0.547   0.583   1.362
 1360HOH     H1 4266   0.511   0.519   1.301
 1360HOH     H2 4267   0.604   0.639   1.309
 1361HOH      O 4268   3.108   3.819   2.462
 1361HOH     H1 4269   3.078   3.732   2.436
 1361HOH     H2 4270   3.049   3.845   2.533
 1362HOH      O 4271   2.492   3.845   1.998
 1362HOH     H1 4272   2.417   3.903   1.989
 1362HOH     H2 4273   2.564   3.892   1.954
 1363HOH      O 4274   2.033   0.513   2.671
 1363HOH     H1 4275   2.004   0.520   2.762
 1363HOH     H2 4276   1.977   0.575   2.624
 1364HOH      O 4277   1.377   3.268   2.936
 1364HOH     H1 4278   1.440   3.330   2.973
 1364HOH     H2 4279   1.293   3.313   2.940
 1365HOH      O 4280   2.089   3.586   1.234
 1365HOH     H1 4281   2.165   3.575   1.178
 1365HOH     H2 4282   2.115   3.548   1.318
 1366HOH      O 4283   3.603   0.370   3.714
 1366HOH     H1 4284   3.525   0.324   3.745
 1366HOH     H2 4285   3.618   0.438   3.781
 1367HOH      O 4286   1.397   1.589   2.554
 1367HOH     H1 4287   1.441   1.606   2.637
 1367HOH     H2 4288   1.428   1.658   2.495
 1368HOH      O 4289   3.032   1.045   2.826
 1368HOH     H1 4290   2.963   1.052   2.760
 1368HOH     H2 4291   3.048   0.951   2.833
 1369HOH      O 4292   0.803   2.178   3.856
 1369HOH     H1 4293   0.880   2.166   3.799
 1369HOH     H2 4294   0.736   2.122   3.817
 1370HOH      O 4295   1.675   0.039   2.208
 1370HOH     H1 4296   1.753  -0.016   2.211
 1370HOH     H2 4297   1.657   0.051   2.115
 1371HOH      O 4298   3.468   3.551   0.756
 1371HOH     H1 4299   3.389   3.596   0.784
 1371HOH     H2 4300   3.452   3.528   0.665
 1372HOH      O 4301   1.651   3.464   0.973
 1372HOH     H1 4302   1.586   3.431   0.911
 1372HOH     H2 4303   1.619   3.439   1.059
 1373HOH      O 4304   2.468   2.663   1.336
 1373HOH     H1 4305   2.477   2.570   1.358
 1373HOH     H2 4306   2.492   2.667   1.243
 1374HOH      O 4307   1.701   1.711   1.789
 1374HOH     H1 4308   1.716   1.620   1.761
 1374HOH     H2 4309   1.641   1.746   1.724
 1375HOH      O 4310   1.193   1.717   2.833
 1375HOH     H1 4311   1.148   1.802   2.828
 1375HOH     H2 4312   1.279   1.734   2.795
 1376HOH      O 4313   1.538   1.588   2.927
 1376HOH     H1 4314   1.613   1.574   2.869
 1376HOH     H2 4315   1.576   1.592   3.015
 1377HOH      O 4316   3.705   2.323   3.654
 1377HOH     H1 4317   3.732   2.405   3.614
 1377HOH     H2 4318   3.783   2.268   3.650
 1378HOH      O 4319   2.090   3.081   3.196
 1378HOH     H1 4320   2.106   3.075   3.102
 1378HOH     H2 4321   2.041   3.163   3.206
 1379HOH      O 4322   3.846   3.684   1.092
 1379HOH     H1 4323   3.825   3.641   1.009
 1379HOH     H2 4324   3.857   3.612   1.154
 1380HOH      O 4325   0.195   2.809   2.909
 1380HOH     H1 4326   0.281   2.798   2.870
 1380HOH     H2 4327   0.140   2.744   2.864
 1381HOH      O 4328   2.791   1.360   1.800
 1381HOH     H1 4329   2.729   1.308   1.748
 1381HOH     H2 4330   2.770   1.337   1.891
 1382HOH      O 4331   2.646   2.979   2.250
 1382HOH     H1 4332   2.675   2.969   2.341
 1382HOH     H2 4333   2.671   2.896   2.208
 1383HOH      O 4334   2.312   1.007   2.412
 1383HOH     H1 4335   2.328   1.100   2.400
 1383HOH     H2 4336   2.249   0.983   2.344
 1384HOH      O 4337   0.353   3.749   2.372
 1384HOH     H1 4338   0.392   3.661   2.367
 1384HOH     H2 4339   0.425   3.805   2.402
 1385HOH      O 4340   2.320   2.643   0.333
 1385HOH     H1 4341   2.236   2.658   0.376
 1385HOH     H2 4342   2.312   2.556   0.294
 1386HOH      O 4343   3.855   3.091   3.719
 1386HOH     H1 4344   3.811   3.051   3.795
 1386HOH     H2 4345   3.879   3.016   3.664
 1387HOH      O 4346   2.905   1.898   0.248
 1387HOH     H1 4347   2.926   1.925   0.159
 1387HOH     H2 4348   2.815   1.865   0.243
 1388HOH      O 4349   1.827   3.431   2.529
 1388HOH     H1 4350   1.736   3.462   2.531
 1388HOH     H2 4351   1.822   3.343   2.493
 1389HOH      O 4352   3.372   0.294   1.866
 1389HOH     H1 4353   3.396   0.378   1.828
 1389HOH     H2 4354   3.287   0.310   1.906
 1390HOH      O 4355   2.069   2.172   0.302
 1390HOH     H1 4356   2.153   2.134   0.328
 1390HOH     H2 4357   2.094   2.252   0.254
 1391HOH      O 4358   3.988   2.596   2.125
 1391HOH     H1 4359   4.001   2.557   2.212
 1391HOH     H2 4360   4.070   2.581   2.080
 1392HOH      O 4361   3.866   0.835   1.802
 1392HOH     H1 4362   3.862   0.922   1.841
 1392HOH     H2 4363   3.776   0.804   1.803
 1393HOH      O 4364   1.555   0.255   3.088
 1393HOH     H1 4365   1.527   0.313   3.159
 1393HOH     H2 4366   1.648   0.276   3.075
 1394HOH      O 4367   2.199   1.919   3.882
 1394HOH     H1 4368   2.215   1.856   3.812
 1394HOH     H2 4369   2.107   1.908   3.904
 1395HOH      O 4370   3.615   0.037   1.643
 1395HOH     H1 4371   3.702   0.076   1.651
 1395HOH     H2 4372   3.632  -0.053   1.615
 1396HOH      O 4373   0.621   3.139   2.818
 1396HOH     H1 4374   0.551   3.182   2.869
 1396HOH     H2 4375   0.597   3.046   2.819
 1397HOH      O 4376   3.697   2.614   1.330
 1397HOH     H1 4377   3.691   2.530   1.377
 1397HOH     H2 4378   3.628   2.610   1.264
 1398HOH      O 4379   0.407   1.857   0.521
 1398HOH     H1 4380   0.442   1.946   0.522
 1398HOH     H2 4381   0.476   1.803   0.483
 1399HOH      O 4382   3.486   0.560   2.955
 1399HOH     H1 4383   3.494   0.474   2.914
 1399HOH     H2 4384   3.560   0.564   3.016
 1400HOH      O 4385   2.797   3.272   1.885
 1400HOH     H1 4386   2.761   3.285   1.973
 1400HOH     H2 4387   2.724   3.289   1.826
 1401HOH      O 4388   2.326   0.774   3.389
 1401HOH     H1 4389   2.298   0.864   3.402
 1401HOH     H2 4390   2.258   0.721   3.430
 1402HOH      O 4391   3.433   0.360   1.307
 1402HOH     H1 4392   3.392   0.435   1.348
 1402HOH     H2 4393   3.456   0.302   1.379
 1403HOH      O 4394   1.867   2.670   0.978
 1403HOH     H1 4395   1.878   2.727   1.055
 1403HOH     H2 4396   1.955   2.658   0.944
 1404HOH      O 4397   3.552   0.279   0.753
 1404HOH     H1 4398   3.469   0.328   0.758
 1404HOH     H2 4399   3.617   0.339   0.789
 1405HOH      O 4400   0.761   2.887   0.354
 1405HOH     H1 4401   0.760   2.949   0.281
 1405HOH     H2 4402   0.744   2.941   0.431
 1406HOH      O 4403   2.931   1.971   2.611
 1406HOH     H1 4404   3.007   1.942   2.663
 1406HOH     H2 4405   2.896   2.045   2.660
 1407HOH      O 4406   3.936   2.885   3.568
 1407HOH     H1 4407   4.000   2.814   3.577
 1407HOH     H2 4408   3.942   2.911   3.477
 1408HOH      O 4409   1.294   3.551   1.522
 1408HOH     H1 4410   1.298   3.521   1.431
 1408HOH     H2 4411   1.202   3.571   1.536
 1409HOH      O 4412   0.966   2.270   2.281
 1409HOH     H1 4413   0.973   2.281   2.376
 1409HOH     H2 4414   0.878   2.299   2.260
 1410HOH      O 4415   3.665   3.440   0.383
 1410HOH     H1 4416   3.627   3.527   0.394
 1410HOH     H2 4417   3.628   3.409   0.300
 1411HOH      O 4418   3.916   1.461   1.266
 1411HOH     H1 4419   3.914   1.388   1.203
 1411HOH     H2 4420   3.882   1.535   1.217
 1412HOH      O 4421   1.111   0.621   0.329
 1412HOH     H1 4422   1.145   0.693   0.276
 1412HOH     H2 4423   1.017   0.617   0.309
 1413HOH      O 4424   3.073   3.245   0.057
 1413HOH     H1 4425   3.058   3.203   0.141
 1413HOH     H2 4426   3.096   3.172  -0.002
 1414HOH      O 4427   0.167   1.871   1.460
 1414HOH     H1 4428   0.240   1.822   1.421
 1414HOH     H2 4429   0.180   1.862   1.554
 1415HOH      O 4430   0.004   1.454   0.832
 1415HOH     H1 4431   0.060   1.519   0.874
 1415HOH     H2 4432   0.064   1.389   0.796
 1416HOH      O 4433   2.659   0.161   1.572
 1416HOH     H1 4434   2.723   0.159   1.643
 1416HOH     H2 4435   2.575   0.173   1.616
 1417HOH      O 4436   4.032   1.588   2.476
 1417HOH     H1 4437   3.969   1.547   2.417
 1417HOH     H2 4438   4.054   1.519   2.539
 1418HOH      O 4439   0.089   2.678   3.592
 1418HOH     H1 4440   0.101   2.589   3.624
 1418HOH     H2 4441   0.118   2.675   3.500
 1419HOH      O 4442   2.254   1.928   3.338
 1419HOH     H1 4443   2.280   2.017   3.363
 1419HOH     H2 4444   2.325   1.873   3.370
 1420HOH      O 4445   0.516   0.448   3.066
 1420HOH     H1 4446   0.527   0.534   3.105
 1420HOH     H2 4447   0.429   0.419   3.094
 1421HOH      O 4448   0.374   3.515   1.653
 1421HOH     H1 4449   0.286   3.542   1.680
 1421HOH     H2 4450   0.371   3.517   1.557
 1422HOH      O 4451   0.477   1.178   2.949
 1422HOH     H1 4452   0.533   1.182   3.027
 1422HOH     H2 4453   0.389   1.198   2.981
 1423HOH      O 4454   1.114   1.923   1.440
 1423HOH     H1 4455   1.128   1.951   1.349
 1423HOH     H2 4456   1.179   1.972   1.490
 1424HOH      O 4457   2.872   2.546   3.302
 1424HOH     H1 4458   2.785   2.567   3.270
 1424HOH     H2 4459   2.875   2.450   3.301
 1425HOH      O 4460   0.700   3.263   2.008
 1425HOH     H1 4461   0.700   3.358   1.996
 1425HOH     H2 4462   0.658   3.228   1.930
 1426HOH      O 4463   2.075   3.575   3.509
 1426HOH     H1 4464   2.015   3.617   3.447
 1426HOH     H2 4465   2.135   3.645   3.535
 1427HOH      O 4466   1.456   1.400   0.528
 1427HOH     H1 4467   1.390   1.385   0.460
 1427HOH     H2 4468   1.533   1.352   0.498
 1428HOH      O 4469   2.675   3.279   1.592
 1428HOH     H1 4470   2.757   3.298   1.545
 1428HOH     H2 4471   2.654   3.189   1.567
 1429HOH      O 4472   0.403   1.221  -0.009
 1429HOH     H1 4473   0.310   1.203  -0.025
 1429HOH     H2 4474   0.403   1.275   0.070
 1430HOH      O 4475   1.856   3.518   1.870
 1430HOH     H1 4476   1.925   3.507   1.936
 1430HOH     H2 4477   1.789   3.571   1.914
 1431HOH      O 4478   3.056   2.477   0.130
 1431HOH     H1 4479   3.035   2.535   0.056
 1431HOH     H2 4480   3.084   2.536   0.199
 1432HOH      O 4481   3.544   3.662   1.115
 1432HOH     H1 4482   3.630   3.669   1.073
 1432HOH     H2 4483   3.534   3.569   1.134
 1433HOH      O 4484   3.842   2.272   3.125
 1433HOH     H1 4485   3.776   2.318   3.179
 1433HOH     H2 4486   3.923   2.319   3.143
 1434HOH      O 4487   2.341   3.346   0.310
 1434HOH     H1 4488   2.321   3.310   0.224
 1434HOH     H2 4489   2.419   3.299   0.339
 1435HOH      O 4490   3.473   3.141   3.242
 1435HOH     H1 4491   3.522   3.151   3.160
 1435HOH     H2 4492   3.399   3.201   3.233
 1436HOH      O 4493   2.798   0.861   2.968
 1436HOH     H1 4494   2.755   0.903   2.894
 1436HOH     H2 4495   2.765   0.771   2.967
 1437HOH      O 4496   0.593   1.276   2.291
 1437HOH     H1 4497   0.583   1.371   2.296
 1437HOH     H2 4498   0.660   1.262   2.225
 1438HOH      O 4499   0.619   2.790   2.117
 1438HOH     H1 4500   0.708   2.822   2.128
 1438HOH     H2 4501   0.628   2.696   2.103
 1439HOH      O 4502   2.440   3.887   0.104
 1439HOH     H1 4503   2.454   3.883   0.198
 1439HOH     H2 4504   2.506   3.828   0.068
 1440HOH      O 4505   0.990   0.828   3.451
 1440HOH     H1 4506   0.981   0.841   3.546
 1440HOH     H2 4507   1.039   0.904   3.421
 1441HOH      O 4508   0.034   0.433   0.362
 1441HOH     H1 4509   0.127   0.411   0.367
 1441HOH     H2 4510   0.022   0.465   0.273
 1442HOH      O 4511   1.279   3.481   1.251
 1442HOH     H1 4512   1.191   3.448   1.268
 1442HOH     H2 4513   1.266   3.555   1.191
 1443HOH      O 4514   0.549   1.883   2.086
 1443HOH     H1 4515   0.518   1.930   2.164
 1443HOH     H2 4516   0.613   1.941   2.046
 1444HOH      O 4517   1.999   0.583   2.343
 1444HOH     H1 4518   2.042   0.580   2.258
 1444HOH     H2 4519   1.947   0.502   2.347
 1445HOH      O 4520   2.607   1.089   3.798
 1445HOH     H1 4521   2.674   1.033   3.759
 1445HOH     H2 4522   2.648   1.176   3.801
 1446HOH      O 4523   1.391   2.577   1.547
 1446HOH     H1 4524   1.446   2.609   1.475
 1446HOH     H2 4525   1.431   2.614   1.626
 1447HOH      O 4526   2.227   0.274   2.114
 1447HOH     H1 4527   2.297   0.298   2.174
 1447HOH     H2 4528   2.153   0.252   2.170
 1448HOH      O 4529   3.995   3.379   1.780
 1448HOH     H1 4530   3.968   3.340   1.697
 1448HOH     H2 4531   4.080   3.338   1.799
 1449HOH      O 4532   1.565   2.180   2.883
 1449HOH     H1 4533   1.656   2.189   2.858
 1449HOH     H2 4534   1.516   2.180   2.801
 1450HOH      O 4535   2.924   0.677   2.256
 1450HOH     H1 4536   2.978   0.598   2.250
 1450HOH     H2 4537   2.855   0.664   2.191
 1451HOH      O 4538   1.251   3.792   0.740
 1451HOH     H1 4539   1.165   3.760   0.768
 1451HOH     H2 4540   1.311   3.720   0.760
 1452HOH      O 4541   3.589   0.725   2.761
 1452HOH     H1 4542   3.556   0.663   2.826
 1452HOH     H2 4543   3.530   0.715   2.686
 1453HOH      O 4544   1.494   0.523   1.581
 1453HOH     H1 4545   1.432   0.573   1.633
 1453HOH     H2 4546   1.547   0.589   1.537
 1454HOH      O 4547   0.797   0.218   2.550
 1454HOH     H1 4548   0.790   0.313   2.557
 1454HOH     H2 4549   0.766   0.198   2.461
 1455HOH      O 4550   0.771   1.609   0.757
 1455HOH     H1 4551   0.682   1.613   0.723
 1455HOH     H2 4552   0.823   1.660   0.695
 1456HOH      O 4553   2.448   2.481   0.817
 1456HOH     H1 4554   2.413   2.393   0.830
 1456HOH     H2 4555   2.477   2.482   0.726
 1457HOH      O 4556   2.716   3.782   3.088
 1457HOH     H1 4557   2.712   3.795   3.183
 1457HOH     H2 4558   2.629   3.749   3.065
 1458HOH      O 4559   3.716   3.640   2.237
 1458HOH     H1 4560   3.777   3.659   2.165
 1458HOH     H2 4561   3.674   3.725   2.255
 1459HOH      O 4562   0.305   2.100   0.682
 1459HOH     H1 4563   0.356   2.178   0.703
 1459HOH     H2 4564   0.297   2.053   0.765
 1460HOH      O 4565   1.794   0.091   3.408
 1460HOH     H1 4566   1.747   0.026   3.356
 1460HOH     H2 4567   1.778   0.065   3.499
 1461HOH      O 4568   3.521   1.664   3.758
 1461HOH     H1 4569   3.476   1.587   3.792
 1461HOH     H2 4570   3.578   1.630   3.689
 1462HOH      O 4571   2.233   0.916   1.395
 1462HOH     H1 4572   2.318   0.937   1.356
 1462HOH     H2 4573   2.251   0.842   1.453
 1463HOH      O 4574   3.421   1.146   1.238
 1463HOH     H1 4575   3.502   1.117   1.196
 1463HOH     H2 4576   3.448   1.218   1.295
 1464HOH      O 4577   3.103   1.403   0.991
 1464HOH     H1 4578   3.110   1.399   1.086
 1464HOH     H2 4579   3.022   1.356   0.971
 1465HOH      O 4580   3.705   3.738   3.987
 1465HOH     H1 4581   3.706   3.823   4.032
 1465HOH     H2 4582   3.772   3.687   4.031
 1466HOH      O 4583   1.141   1.919   3.797
 1466HOH     H1 4584   1.108   1.854   3.859
 1466HOH     H2 4585   1.069   1.980   3.786
 1467HOH      O 4586   1.699   3.660   1.380
 1467HOH     H1 4587   1.748   3.640   1.460
 1467HOH     H2 4588   1.766   3.685   1.317
 1468HOH      O 4589   1.146   0.926   2.848
 1468HOH     H1 4590   1.119   0.844   2.807
 1468HOH     H2 4591   1.100   0.994   2.799
 1469HOH      O 4592   0.274   2.093   2.026
 1469HOH     H1 4593   0.291   2.089   2.120
 1469HOH     H2 4594   0.352   2.135   1.989
 1470HOH      O 4595   2.277   3.507   0.943
 1470HOH     H1 4596   2.325   3.546   1.016
 1470HOH     H2 4597   2.340   3.446   0.903
 1471HOH      O 4598   1.187   1.673   3.596
 1471HOH     H1 4599   1.100   1.649   3.565
 1471HOH     H2 4600   1.173   1.754   3.646
 1472HOH      O 4601   1.059   2.986   0.671
 1472HOH     H1 4602   0.977   2.946   0.700
 1472HOH     H2 4603   1.123   2.915   0.676
 1473HOH      O 4604   0.021   1.398   1.972
 1473HOH     H1 4605   0.030   1.492   1.985
 1473HOH     H2 4606   0.098   1.373   1.921
 1474HOH      O 4607   2.254   3.723   3.672
 1474HOH     H1 4608   2.345   3.744   3.691
 1474HOH     H2 4609   2.205   3.761   3.746
 1475HOH      O 4610   1.394   2.754   1.985
 1475HOH     H1 4611   1.346   2.724   2.062
 1475HOH     H2 4612   1.326   2.767   1.918
 1476HOH      O 4613   0.742   2.545   0.658
 1476HOH     H1 4614   0.754   2.480   0.589
 1476HOH     H2 4615   0.651   2.536   0.684
 1477HOH      O 4616   3.774   2.625   2.563
 1477HOH     H1 4617   3.757   2.689   2.632
 1477HOH     H2 4618   3.739   2.543   2.599
 1478HOH      O 4619   3.293   3.498   1.855
 1478HOH     H1 4620   3.309   3.592   1.845
 1478HOH     H2 4621   3.199   3.492   1.873
 1479HOH      O 4622   1.984   0.197   2.287
 1479HOH     H1 4623   2.028   0.234   2.363
 1479HOH     H2 4624   1.979   0.103   2.306
 1480HOH      O 4625   0.026   1.437   1.490
 1480HOH     H1 4626  -0.024   1.465   1.413
 1480HOH     H2 4627   0.117   1.453   1.467
 1481HOH      O 4628   1.133   1.520   0.858
 1481HOH     H1 4629   1.197   1.586   0.885
 1481HOH     H2 4630   1.092   1.492   0.939
 1482HOH      O 4631   3.039   3.118   3.487
 1482HOH     H1 4632   3.093   3.068   3.426
 1482HOH     H2 4633   2.973   3.160   3.431
 1483HOH      O 4634   3.769   1.983   1.758
 1483HOH     H1 4635   3.850   2.005   1.713
 1483HOH     H2 4636   3.778   1.890   1.779
 1484HOH      O 4637   3.848   3.248   0.437
 1484HOH     H1 4638   3.795   3.169   0.425
 1484HOH     H2 4639   3.787   3.320   0.420
 1485HOH      O 4640   0.170   1.010   2.787
 1485HOH     H1 4641   0.208   0.923   2.801
 1485HOH     H2 4642   0.076   0.994   2.775
 1486HOH      O 4643   1.837   1.642   2.411
 1486HOH     H1 4644   1.910   1.601   2.457
 1486HOH     H2 4645   1.793   1.696   2.477
 1487HOH      O 4646   2.436   0.112   2.319
 1487HOH     H1 4647   2.421   0.017   2.320
 1487HOH     H2 4648   2.403   0.141   2.404
 1488HOH      O 4649   2.690   2.894   2.735
 1488HOH     H1 4650   2.621   2.957   2.718
 1488HOH     H2 4651   2.746   2.935   2.801
 1489HOH      O 4652   2.406   0.003   3.804
 1489HOH     H1 4653   2.351   0.047   3.870
 1489HOH     H2 4654   2.375   0.039   3.721
 1490HOH      O 4655   0.122   0.170   2.543
 1490HOH     H1 4656   0.165   0.249   2.510
 1490HOH     H2 4657   0.045   0.160   2.487
 1491HOH      O 4658   0.723   3.070   1.433
 1491HOH     H1 4659   0.634   3.057   1.467
 1491HOH     H2 4660   0.729   3.165   1.418
 1492HOH      O 4661   1.891   1.092   1.187
 1492HOH     H1 4662   1.896   1.019   1.248
 1492HOH     H2 4663   1.965   1.080   1.128
 1493HOH      O 4664   4.012   0.749   1.262
 1493HOH     H1 4665   4.054   0.688   1.202
 1493HOH     H2 4666   3.924   0.716   1.273
 1494HOH      O 4667   1.174   3.298   1.766
 1494HOH     H1 4668   1.143   3.385   1.789
 1494HOH     H2 4669   1.267   3.310   1.748
 1495HOH      O 4670   1.497   3.149   2.689
 1495HOH     H1 4671   1.455   3.142   2.775
 1495HOH     H2 4672   1.461   3.229   2.651
 1496HOH      O 4673   0.483   2.440   3.837
 1496HOH     H1 4674   0.511   2.470   3.924
 1496HOH     H2 4675   0.488   2.518   3.782
 1497HOH      O 4676   2.828   0.099   1.324
 1497HOH     H1 4677   2.764   0.135   1.386
 1497HOH     H2 4678   2.841   0.170   1.260
 1498HOH      O 4679   3.391   0.032   1.807
 1498HOH     H1 4680   3.391   0.124   1.832
 1498HOH     H2 4681   3.475   0.018   1.764
 1499HOH      O 4682   2.187   3.136   1.688
 1499HOH     H1 4683   2.112   3.083   1.714
 1499HOH     H2 4684   2.169   3.222   1.724
 1500HOH      O 4685   3.868   0.111   2.686
 1500HOH     H1 4686   3.918   0.190   2.665
 1500HOH     H2 4687   3.854   0.116   2.780
 1501HOH      O 4688   3.680   0.760   3.371
 1501HOH     H1 4689   3.600   0.723   3.408
 1501HOH     H2 4690   3.732   0.786   3.447
 1502HOH      O 4691   0.825   3.419   3.806
 1502HOH     H1 4692   0.867   3.483   3.864
 1502HOH     H2 4693   0.810   3.467   3.725
 1503HOH      O 4694   0.946   3.653   3.227
 1503HOH     H1 4695   0.895   3.734   3.221
 1503HOH     H2 4696   0.967   3.631   3.136
 1504HOH      O 4697   1.793   0.892   3.443
 1504HOH     H1 4698   1.870   0.936   3.480
 1504HOH     H2 4699   1.803   0.902   3.348
 1505HOH      O 4700   1.121   3.284   2.631
 1505HOH     H1 4701   1.134   3.245   2.717
 1505HOH     H2 4702   1.055   3.228   2.589
 1506HOH      O 4703   2.838   0.151   1.793
 1506HOH     H1 4704   2.873   0.222   1.739
 1506HOH     H2 4705   2.903   0.082   1.789
 1507HOH      O 4706   0.168   1.502   3.113
 1507HOH     H1 4707   0.154   1.425   3.057
 1507HOH     H2 4708   0.244   1.545   3.075
 1508HOH      O 4709   3.327   3.614   3.600
 1508HOH     H1 4710   3.377   3.634   3.679
 1508HOH     H2 4711   3.356   3.526   3.575
 1509HOH      O 4712   3.464   0.635   0.294
 1509HOH     H1 4713   3.520   0.593   0.229
 1509HOH     H2 4714   3.382   0.652   0.248
 1510HOH      O 4715   1.624   0.696   3.534
 1510HOH     H1 4716   1.646   0.688   3.627
 1510HOH     H2 4717   1.685   0.762   3.500
 1511HOH      O 4718   0.211   2.017   3.492
 1511HOH     H1 4719   0.193   2.111   3.497
 1511HOH     H2 4720   0.182   1.992   3.404
 1512HOH      O 4721   1.366   0.856   1.784
 1512HOH     H1 4722   1.298   0.881   1.846
 1512HOH     H2 4723   1.340   0.770   1.752
 1513HOH      O 4724   1.002   3.331   0.888
 1513HOH     H1 4725   0.942   3.401   0.911
 1513HOH     H2 4726   1.058   3.368   0.820
 1514HOH      O 4727   2.467   3.980   2.763
 1514HOH     H1 4728   2.474   3.957   2.670
 1514HOH     H2 4729   2.474   4.075   2.764
 1515HOH      O 4730   0.244   2.883   3.147
 1515HOH     H1 4731   0.231   2.835   3.065
 1515HOH     H2 4732   0.207   2.970   3.130
 1516HOH      O 4733   3.690   0.849   3.042
 1516HOH     H1 4734   3.662   0.759   3.057
 1516HOH     H2 4735   3.645   0.876   2.962
 1517HOH      O 4736   3.334   1.332   0.561
 1517HOH     H1 4737   3.304   1.388   0.490
 1517HOH     H2 4738   3.313   1.381   0.641
 1518HOH      O 4739   1.841   1.626   1.498
 1518HOH     H1 4740   1.849   1.593   1.409
 1518HOH     H2 4741   1.896   1.568   1.551
 1519HOH      O 4742   1.636   3.869   3.868
 1519HOH     H1 4743   1.583   3.909   3.937
 1519HOH     H2 4744   1.722   3.909   3.876
 1520HOH      O 4745   3.514   1.658   3.127
 1520HOH     H1 4746   3.557   1.706   3.055
 1520HOH     H2 4747   3.504   1.569   3.094
 1521HOH      O 4748   0.875   2.031   0.124
 1521HOH     H1 4749   0.805   1.994   0.177
 1521HOH     H2 4750   0.871   1.983   0.042
 1522HOH      O 4751   3.684  -0.024   0.061
 1522HOH     H1 4752   3.752   0.012   0.119
 1522HOH     H2 4753   3.604   0.021   0.089
 1523HOH      O 4754   1.302   2.969   3.525
 1523HOH     H1 4755   1.322   3.054   3.563
 1523HOH     H2 4756   1.372   2.952   3.463
 1524HOH      O 4757   2.097   2.770   0.601
 1524HOH     H1 4758   2.034   2.760   0.672
 1524HOH     H2 4759   2.046   2.758   0.521
 1525HOH      O 4760   3.189   2.810   2.829
 1525HOH     H1 4761   3.178   2.889   2.776
 1525HOH     H2 4762   3.105   2.765   2.821
 1526HOH      O 4763   0.507   1.390   3.800
 1526HOH     H1 4764   0.467   1.363   3.883
 1526HOH     H2 4765   0.587   1.436   3.826
 1527HOH      O 4766   2.556   1.740   3.982
 1527HOH     H1 4767   2.617   1.685   4.032
 1527HOH     H2 4768   2.561   1.825   4.025
 1528HOH      O 4769   1.379   3.076   2.024
 1528HOH     H1 4770   1.312   3.057   2.089
 1528HOH     H2 4771   1.419   2.991   2.005
 1529HOH      O 4772   0.773   3.976   1.908
 1529HOH     H1 4773   0.716   4.039   1.863
 1529HOH     H2 4774   0.751   3.892   1.869
 1530HOH      O 4775   1.049   1.161   2.199
 1530HOH     H1 4776   1.099   1.243   2.201
 1530HOH     H2 4777   1.009   1.156   2.286
 1531HOH      O 4778   1.300   1.141   0.942
 1531HOH     H1 4779   1.333   1.226   0.912
 1531HOH     H2 4780   1.377   1.084   0.939
 1532HOH      O 4781   0.970   3.463   2.479
 1532HOH     H1 4782   1.046   3.498   2.431
 1532HOH     H2 4783   1.008   3.411   2.549
 1533HOH      O 4784   0.936   0.493   2.883
 1533HOH     H1 4785   0.975   0.405   2.879
 1533HOH     H2 4786   0.969   0.529   2.965
 1534HOH      O 4787   0.482   3.091   2.289
 1534HOH     H1 4788   0.572   3.060   2.296
 1534HOH     H2 4789   0.438   3.024   2.236
 1535HOH      O 4790   2.125   0.336   3.103
 1535HOH     H1 4791   2.184   0.367   3.171
 1535HOH     H2 4792   2.079   0.262   3.144
 1536HOH      O 4793   1.264   2.865   2.889
 1536HOH     H1 4794   1.290   2.842   2.800
 1536HOH     H2 4795   1.169   2.861   2.888
 1537HOH      O 4796   1.211   1.364   2.596
 1537HOH     H1 4797   1.278   1.308   2.635
 1537HOH     H2 4798   1.259   1.441   2.565
 1538HOH      O 4799   2.920   1.746   1.251
 1538HOH     H1 4800   2.946   1.786   1.334
 1538HOH     H2 4801   2.997   1.755   1.195
 1539HOH      O 4802   1.573   1.120   2.845
 1539HOH     H1 4803   1.660   1.081   2.833
 1539HOH     H2 4804   1.589   1.214   2.847
 1540HOH      O 4805   2.368   1.894   1.264
 1540HOH     H1 4806   2.346   1.862   1.351
 1540HOH     H2 4807   2.308   1.848   1.206
 1541HOH      O 4808   0.711   1.079   3.454
 1541HOH     H1 4809   0.769   1.138   3.405
 1541HOH     H2 4810   0.630   1.128   3.464
 1542HOH      O 4811   0.458   1.433   1.794
 1542HOH     H1 4812   0.453   1.511   1.739
 1542HOH     H2 4813   0.385   1.378   1.765
 1543HOH      O 4814   0.756   2.351   0.443
 1543HOH     H1 4815   0.747   2.390   0.356
 1543HOH     H2 4816   0.687   2.284   0.446
 1544HOH      O 4817   0.468   2.318   0.713
 1544HOH     H1 4818   0.480   2.393   0.771
 1544HOH     H2 4819   0.450   2.357   0.628
 1545HOH      O 4820   3.107   3.460   2.794
 1545HOH     H1 4821   3.147   3.507   2.721
 1545HOH     H2 4822   3.013   3.471   2.781
 1546HOH      O 4823   1.243   0.288   2.098
 1546HOH     H1 4824   1.317   0.261   2.045
 1546HOH     H2 4825   1.234   0.219   2.164
 1547HOH      O 4826   0.268   3.152   3.143
 1547HOH     H1 4827   0.333   3.181   3.208
 1547HOH     H2 4828   0.311   3.166   3.059
 1548HOH      O 4829   0.782   1.335   0.901
 1548HOH     H1 4830   0.863   1.318   0.949
 1548HOH     H2 4831   0.791   1.425   0.870
 1549HOH      O 4832   0.107   3.713   1.040
 1549HOH     H1 4833   0.021   3.670   1.035
 1549HOH     H2 4834   0.159   3.671   0.972
 1550HOH      O 4835   3.936   3.600   2.040
 1550HOH     H1 4836   3.969   3.532   1.982
 1550HOH     H2 4837   4.015   3.640   2.078
 1551HOH      O 4838   1.273   0.706   1.326
 1551HOH     H1 4839   1.261   0.618   1.361
 1551HOH     H2 4840   1.204   0.715   1.261
 1552HOH      O 4841   3.422   2.934   0.312
 1552HOH     H1 4842   3.439   2.873   0.384
 1552HOH     H2 4843   3.468   2.895   0.237
 1553HOH      O 4844   2.970   2.032   2.151
 1553HOH     H1 4845   3.034   1.969   2.118
 1553HOH     H2 4846   2.927   2.066   2.073
 1554HOH      O 4847   0.605   1.950   1.565
 1554HOH     H1 4848   0.671   1.892   1.603
 1554HOH     H2 4849   0.549   1.892   1.514
 1555HOH      O 4850   3.286   0.927   1.934
 1555HOH     H1 4851   3.370   0.905   1.973
 1555HOH     H2 4852   3.223   0.917   2.005
 1556HOH      O 4853   3.344   0.884   3.477
 1556HOH     H1 4854   3.294   0.867   3.397
 1556HOH     H2 4855   3.278   0.898   3.544
 1557HOH      O 4856   3.403   3.629   3.279
 1557HOH     H1 4857   3.413   3.579   3.198
 1557HOH     H2 4858   3.310   3.623   3.300
 1558HOH      O 4859   1.023   0.046   2.550
 1558HOH     H1 4860   0.948   0.105   2.556
 1558HOH     H2 4861   0.994  -0.034   2.593
 1559HOH      O 4862   3.573   0.455   2.293
 1559HOH     H1 4863   3.494   0.490   2.251
 1559HOH     H2 4864   3.617   0.532   2.330
 1560HOH      O 4865   3.879   3.824   0.299
 1560HOH     H1 4866   3.915   3.776   0.224
 1560HOH     H2 4867   3.784   3.809   0.293
 1561HOH      O 4868   0.659   2.903   2.995
 1561HOH     H1 4869   0.738   2.853   2.976
 1561HOH     H2 4870   0.590   2.860   2.945
 1562HOH      O 4871   3.984   0.526   2.836
 1562HOH     H1 4872   4.062   0.525   2.892
 1562HOH     H2 4873   3.916   0.486   2.889
 1563HOH      O 4874   0.421   2.361   0.190
 1563HOH     H1 4875   0.474   2.384   0.114
 1563HOH     H2 4876   0.343   2.321   0.153
 1564HOH      O 4877   3.421   1.813   1.325
 1564HOH     H1 4878   3.353   1.746   1.317
 1564HOH     H2 4879   3.467   1.791   1.406
 1565HOH      O 4880   2.033   3.015   2.923
 1565HOH     H1 4881   2.065   2.925   2.927
 1565HOH     H2 4882   2.022   3.032   2.829
 1566HOH      O 4883   0.608   0.574   3.657
 1566HOH     H1 4884   0.638   0.655   3.616
 1566HOH     H2 4885   0.594   0.598   3.749
 1567HOH      O 4886   3.737   1.126   2.165
 1567HOH     H1 4887   3.765   1.051   2.218
 1567HOH     H2 4888   3.649   1.147   2.196
 1568HOH      O 4889   0.278   3.016   0.963
 1568HOH     H1 4890   0.327   2.933   0.966
 1568HOH     H2 4891   0.270   3.042   1.054
 1569HOH      O 4892   3.271   0.738   0.686
 1569HOH     H1 4893   3.189   0.744   0.736
 1569HOH     H2 4894   3.339   0.762   0.749
 1570HOH      O 4895   1.326   1.231   0.275
 1570HOH     H1 4896   1.286   1.234   0.189
 1570HOH     H2 4897   1.347   1.139   0.289
 1571HOH      O 4898   1.843   3.982   3.039
 1571HOH     H1 4899   1.767   3.950   3.088
 1571HOH     H2 4900   1.875   3.906   2.991
 1572HOH      O 4901   0.904   3.606   3.968
 1572HOH     H1 4902   0.850   3.679   3.938
 1572HOH     H2 4903   0.960   3.644   4.036
 1573HOH      O 4904   2.690   0.539   1.789
 1573HOH     H1 4905   2.779   0.525   1.759
 1573HOH     H2 4906   2.635   0.502   1.720
 1574HOH      O 4907   2.538   0.496   1.566
 1574HOH     H1 4908   2.474   0.425   1.571
 1574HOH     H2 4909   2.532   0.527   1.476
 1575HOH      O 4910   3.243   1.521   0.358
 1575HOH     H1 4911   3.223   1.464   0.283
 1575HOH     H2 4912   3.159   1.538   0.399
 1576HOH      O 4913   1.803   2.840   3.044
 1576HOH     H1 4914   1.803   2.886   2.960
 1576HOH     H2 4915   1.716   2.858   3.080
 1577HOH      O 4916   2.527   3.498   3.810
 1577HOH     H1 4917   2.622   3.492   3.814
 1577HOH     H2 4918   2.507   3.516   3.718
 1578HOH      O 4919   0.136   2.392   2.539
 1578HOH     H1 4920   0.131   2.300   2.513
 1578HOH     H2 4921   0.112   2.392   2.631
 1579HOH      O 4922   1.025   0.625   1.858
 1579HOH     H1 4923   0.938   0.602   1.825
 1579HOH     H2 4924   1.036   0.570   1.936
 1580HOH      O 4925   1.829   3.874   0.612
 1580HOH     H1 4926   1.832   3.887   0.707
 1580HOH     H2 4927   1.914   3.904   0.581
 1581HOH      O 4928   2.300   2.783   2.008
 1581HOH     H1 4929   2.317   2.861   2.060
 1581HOH     H2 4930   2.386   2.758   1.973
 1582HOH      O 4931   3.418   1.246   2.665
 1582HOH     H1 4932   3.384   1.158   2.674
 1582HOH     H2 4933   3.379   1.295   2.737
 1583HOH      O 4934   3.821   3.622   3.579
 1583HOH     H1 4935   3.806   3.704   3.532
 1583HOH     H2 4936   3.760   3.560   3.540
 1584HOH      O 4937   2.727   0.274   2.376
 1584HOH     H1 4938   2.690   0.207   2.318
 1584HOH     H2 4939   2.822   0.263   2.369
 1585HOH      O 4940   1.780   2.414   0.535
 1585HOH     H1 4941   1.757   2.368   0.615
 1585HOH     H2 4942   1.722   2.491   0.534
 1586HOH      O 4943   0.439   2.267   0.429
 1586HOH     H1 4944   0.354   2.224   0.415
 1586HOH     H2 4945   0.461   2.304   0.344
 1587HOH      O 4946   0.943   1.559   2.032
 1587HOH     H1 4947   0.872   1.585   1.974
 1587HOH     H2 4948   0.978   1.641   2.066
 1588HOH      O 4949   3.961   1.795   0.647
 1588HOH     H1 4950   4.009   1.855   0.704
 1588HOH     H2 4951   3.869   1.809   0.669
 1589HOH      O 4952   3.696   1.533   0.586
 1589HOH     H1 4953   3.677   1.610   0.639
 1589HOH     H2 4954   3.781   1.551   0.546
 1590HOH      O 4955   2.117   1.610   1.811
 1590HOH     H1 4956   2.046   1.641   1.866
 1590HOH     H2 4957   2.186   1.676   1.820
 1591HOH      O 4958   0.607   1.684   3.618
 1591HOH     H1 4959   0.534   1.712   3.673
 1591HOH     H2 4960   0.568   1.624   3.554
 1592HOH      O 4961   3.318   0.648   1.647
 1592HOH     H1 4962   3.394   0.638   1.705
 1592HOH     H2 4963   3.279   0.561   1.644
 1593HOH      O 4964   2.513   0.458   1.980
 1593HOH     H1 4965   2.559   0.379   2.010
 1593HOH     H2 4966   2.572   0.498   1.917
 1594HOH      O 4967   1.699   3.461   0.261
 1594HOH     H1 4968   1.610   3.497   0.267
 1594HOH     H2 4969   1.753   3.523   0.311
 1595HOH      O 4970   1.062   3.251   3.775
 1595HOH     H1 4971   0.969   3.265   3.794
 1595HOH     H2 4972   1.094   3.198   3.848
 1596HOH      O 4973   2.193   3.791   0.367
 1596HOH     H1 4974   2.279   3.830   0.373
 1596HOH     H2 4975   2.150   3.814   0.449
 1597HOH      O 4976   3.536   3.507   2.758
 1597HOH     H1 4977   3.556   3.601   2.757
 1597HOH     H2 4978   3.589   3.471   2.686
 1598HOH      O 4979   1.670   1.971   3.445
 1598HOH     H1 4980   1.730   2.001   3.513
 1598HOH     H2 4981   1.586   2.011   3.468
 1599HOH      O 4982   2.394   2.168   3.350
 1599HOH     H1 4983   2.356   2.186   3.436
 1599HOH     H2 4984   2.418   2.254   3.317
 1600HOH      O 4985   3.407   3.896   3.356
 1600HOH     H1 4986   3.402   3.800   3.361
 1600HOH     H2 4987   3.382   3.925   3.444
 1601HOH      O 4988   3.741   0.670   2.211
 1601HOH     H1 4989   3.684   0.708   2.278
 1601HOH     H2 4990   3.819   0.725   2.212
 1602HOH      O 4991   3.140   1.106   0.792
 1602HOH     H1 4992   3.087   1.109   0.872
 1602HOH     H2 4993   3.109   1.181   0.741
 1603HOH      O 4994   3.690   2.984   2.412
 1603HOH     H1 4995   3.633   2.909   2.395
 1603HOH     H2 4996   3.674   3.006   2.504
 1604HOH      O 4997   0.688   0.431   0.052
 1604HOH     H1 4998   0.642   0.506   0.013
 1604HOH     H2 4999   0.781   0.454   0.046
 1605HOH      O 5000   0.636   2.826   1.650
 1605HOH     H1 5001   0.611   2.829   1.558
 1605HOH     H2 5002   0.667   2.737   1.664
 1606HOH      O 5003   0.173   2.128   0.455
 1606HOH     H1 5004   0.214   2.112   0.541
 1606HOH     H2 5005   0.146   2.041   0.426
 1607HOH      O 5006   0.261   0.577   3.746
 1607HOH     H1 5007   0.282   0.670   3.743
 1607HOH     H2 5008   0.207   0.562   3.668
 1608HOH      O 5009   3.626   3.134   0.249
 1608HOH     H1 5010   3.536   3.158   0.269
 1608HOH     H2 5011   3.664   3.213   0.210
 1609HOH      O 5012   2.943   0.388   1.720
 1609HOH     H1 5013   2.919   0.418   1.633
 1609HOH     H2 5014   3.038   0.397   1.724
 1610HOH      O 5015   2.284   1.747   1.483
 1610HOH     H1 5016   2.193   1.723   1.498
 1610HOH     H2 5017   2.333   1.665   1.495
 1611HOH      O 5018   3.451   2.739   2.883
 1611HOH     H1 5019   3.461   2.692   2.800
 1611HOH     H2 5020   3.376   2.797   2.869
 1612HOH      O 5021   2.405   1.879   2.430
 1612HOH     H1 5022   2.373   1.827   2.356
 1612HOH     H2 5023   2.387   1.970   2.405
 1613HOH      O 5024   0.296   1.987   3.763
 1613HOH     H1 5025   0.278   2.068   3.810
 1613HOH     H2 5026   0.264   2.003   3.674
 1614HOH      O 5027   3.467   0.077   0.587
 1614HOH     H1 5028   3.377   0.098   0.562
 1614HOH     H2 5029   3.494   0.150   0.643
 1615HOH      O 5030   0.202   1.512   0.567
 1615HOH     H1 5031   0.226   1.427   0.603
 1615HOH     H2 5032   0.210   1.573   0.641
 1616HOH      O 5033   3.169   0.417   3.137
 1616HOH     H1 5034   3.188   0.471   3.214
 1616HOH     H2 5035   3.085   0.375   3.158
 1617HOH      O 5036   3.626   2.880   3.638
 1617HOH     H1 5037   3.644   2.960   3.588
 1617HOH     H2 5038   3.531   2.868   3.631
 1618HOH      O 5039   2.830   1.513   2.698
 1618HOH     H1 5040   2.847   1.573   2.625
 1618HOH     H2 5041   2.759   1.555   2.746
 1619HOH      O 5042   0.404   0.594   2.050
 1619HOH     H1 5043   0.329   0.539   2.073
 1619HOH     H2 5044   0.472   0.570   2.114
 1620HOH      O 5045   0.298   1.141   2.118
 1620HOH     H1 5046   0.379   1.101   2.151
 1620HOH     H2 5047   0.327   1.211   2.059
 1621HOH      O 5048   2.180   1.638   0.224
 1621HOH     H1 5049   2.090   1.640   0.193
 1621HOH     H2 5050   2.226   1.585   0.160
 1622HOH      O 5051   3.119   2.783   2.209
 1622HOH     H1 5052   3.052   2.744   2.151
 1622HOH     H2 5053   3.084   2.869   2.231
 1623HOH      O 5054   1.830   3.141   2.497
 1623HOH     H1 5055   1.855   3.083   2.426
 1623HOH     H2 5056   1.759   3.095   2.542
 1624HOH      O 5057   0.607   1.775   2.902
 1624HOH     H1 5058   0.579   1.797   2.813
 1624HOH     H2 5059   0.609   1.859   2.948
 1625HOH      O 5060   1.310   1.872   0.748
 1625HOH     H1 5061   1.297   1.789   0.702
 1625HOH     H2 5062   1.271   1.937   0.689
 1626HOH      O 5063   4.048   2.642   0.745
 1626HOH     H1 5064   3.956   2.641   0.718
 1626HOH     H2 5065   4.061   2.732   0.777
 1627HOH      O 5066   3.962   0.485   0.064
 1627HOH     H1 5067   4.053   0.469   0.040
 1627HOH     H2 5068   3.912   0.425   0.009
 1628HOH      O 5069   3.585   2.728   2.333
 1628HOH     H1 5070   3.499   2.687   2.328
 1628HOH     H2 5071   3.624   2.691   2.412
 1629HOH      O 5072   0.811   2.704   3.234
 1629HOH     H1 5073   0.886   2.763   3.241
 1629HOH     H2 5074   0.748   2.736   3.299
 1630HOH      O 5075   3.933   1.445   3.282
 1630HOH     H1 5076   4.008   1.500   3.305
 1630HOH     H2 5077   3.857   1.501   3.298
 1631HOH      O 5078   1.974   0.107   0.095
 1631HOH     H1 5079   1.919   0.116   0.173
 1631HOH     H2 5080   2.015   0.021   0.105
 1632HOH      O 5081   3.883   2.193   2.864
 1632HOH     H1 5082   3.808   2.136   2.844
 1632HOH     H2 5083   3.880   2.204   2.959
 1633HOH      O 5084   2.052   2.369   2.926
 1633HOH     H1 5085   2.108   2.421   2.869
 1633HOH     H2 5086   1.976   2.426   2.944
 1634HOH      O 5087   1.109   2.524   3.221
 1634HOH     H1 5088   1.067   2.562   3.298
 1634HOH     H2 5089   1.180   2.470   3.257
 1635HOH      O 5090   3.131   0.187   1.438
 1635HOH     H1 5091   3.202   0.125   1.455
 1635HOH     H2 5092   3.093   0.158   1.355
 1636HOH      O 5093   2.587   1.965   2.018
 1636HOH     H1 5094   2.603   1.901   2.087
 1636HOH     H2 5095   2.663   2.024   2.021
 1637HOH      O 5096   0.934   0.364   0.593
 1637HOH     H1 5097   0.976   0.353   0.508
 1637HOH     H2 5098   0.874   0.438   0.581
 1638HOH      O 5099   3.231   3.856   0.318
 1638HOH     H1 5100   3.230   3.856   0.414
 1638HOH     H2 5101   3.321   3.876   0.295
 1639HOH      O 5102   0.443   3.616   1.065
 1639HOH     H1 5103   0.405   3.563   0.995
 1639HOH     H2 5104   0.483   3.690   1.020
 1640HOH      O 5105   0.116   1.003   1.270
 1640HOH     H1 5106   0.092   0.915   1.298
 1640HOH     H2 5107   0.038   1.056   1.286
 1641HOH      O 5108   1.471   1.566   0.209
 1641HOH     H1 5109   1.535   1.637   0.205
 1641HOH     H2 5110   1.485   1.518   0.127
 1642HOH      O 5111   1.496   1.010   3.887
 1642HOH     H1 5112   1.456   1.045   3.807
 1642HOH     H2 5113   1.482   0.915   3.881
 1643HOH      O 5114   0.481   0.972   2.269
 1643HOH     H1 5115   0.504   1.025   2.345
 1643HOH     H2 5116   0.565   0.953   2.226
 1644HOH      O 5117   3.471   3.089   3.915
 1644HOH     H1 5118   3.439   3.178   3.932
 1644HOH     H2 5119   3.391   3.036   3.910
 1645HOH      O 5120   0.440   3.927   0.666
 1645HOH     H1 5121   0.511   3.973   0.621
 1645HOH     H2 5122   0.374   3.994   0.682
 1646HOH      O 5123   2.956   1.128   2.519
 1646HOH     H1 5124   2.920   1.044   2.491
 1646HOH     H2 5125   2.889   1.165   2.577
 1647HOH      O 5126   2.500   0.255   2.734
 1647HOH     H1 5127   2.458   0.303   2.806
 1647HOH     H2 5128   2.563   0.317   2.697
 1648HOH      O 5129   1.071   0.939   0.539
 1648HOH     H1 5130   1.029   1.015   0.580
 1648HOH     H2 5131   1.153   0.929   0.588
 1649HOH      O 5132   1.254   2.064   1.606
 1649HOH     H1 5133   1.298   2.146   1.582
 1649HOH     H2 5134   1.198   2.088   1.679
 1650HOH      O 5135   0.562   2.084   3.996
 1650HOH     H1 5136   0.611   2.166   3.999
 1650HOH     H2 5137   0.555   2.063   3.903
 1651HOH      O 5138   2.218   0.716   0.534
 1651HOH     H1 5139   2.160   0.710   0.609
 1651HOH     H2 5140   2.162   0.697   0.459
 1652HOH      O 5141   0.567  -0.001   0.406
 1652HOH     H1 5142   0.660   0.021   0.397
 1652HOH     H2 5143   0.525   0.041   0.332
 1653HOH      O 5144   0.120   3.106   1.215
 1653HOH     H1 5145   0.155   3.150   1.292
 1653HOH     H2 5146   0.027   3.128   1.214
 1654HOH      O 5147   1.853   2.744   1.383
 1654HOH     H1 5148   1.946   2.724   1.393
 1654HOH     H2 5149   1.820   2.749   1.472
 1655HOH      O 5150   1.623   3.033   3.695
 1655HOH     H1 5151   1.635   3.047   3.601
 1655HOH     H2 5152   1.694   2.973   3.719
 1656HOH      O 5153   1.391   3.895   2.602
 1656HOH     H1 5154   1.433   3.980   2.612
 1656HOH     H2 5155   1.449   3.846   2.544
 1657HOH      O 5156   2.995   1.659   0.395
 1657HOH     H1 5157   2.925   1.611   0.351
 1657HOH     H2 5158   2.996   1.744   0.352
 1658HOH      O 5159   1.202   1.243   3.177
 1658HOH     H1 5160   1.237   1.331   3.166
 1658HOH     H2 5161   1.127   1.239   3.118
 1659HOH      O 5162   0.469   1.189   0.847
 1659HOH     H1 5163   0.540   1.174   0.785
 1659HOH     H2 5164   0.458   1.105   0.892
 1660HOH      O 5165   1.232   2.414   0.135
 1660HOH     H1 5166   1.185   2.340   0.097
 1660HOH     H2 5167   1.292   2.373   0.198
 1661HOH      O 5168   1.679   2.337   0.257
 1661HOH     H1 5169   1.703   2.356   0.167
 1661HOH     H2 5170   1.727   2.401   0.309
 1662HOH      O 5171   0.770   1.163   3.748
 1662HOH     H1 5172   0.736   1.249   3.723
 1662HOH     H2 5173   0.848   1.152   3.694
 1663HOH      O 5174   2.845   0.913   2.383
 1663HOH     H1 5175   2.777   0.863   2.427
 1663HOH     H2 5176   2.889   0.850   2.326
 1664HOH      O 5177   2.160   3.116   0.666
 1664HOH     H1 5178   2.067   3.101   0.684
 1664HOH     H2 5179   2.169   3.101   0.572
 1665HOH      O 5180   3.399   1.524   2.218
 1665HOH     H1 5181   3.383   1.544   2.310
 1665HOH     H2 5182   3.453   1.444   2.220
 1666HOH      O 5183   1.914   2.108   1.669
 1666HOH     H1 5184   1.908   2.026   1.620
 1666HOH     H2 5185   1.992   2.151   1.634
 1667HOH      O 5186   3.678   0.902   0.954
 1667HOH     H1 5187   3.706   0.993   0.953
 1667HOH     H2 5188   3.642   0.890   1.042
 1668HOH      O 5189   2.780   2.073   0.974
 1668HOH     H1 5190   2.851   2.083   1.037
 1668HOH     H2 5191   2.711   2.028   1.022
 1669HOH      O 5192   2.945   0.092   0.486
 1669HOH     H1 5193   2.886   0.096   0.410
 1669HOH     H2 5194   2.895   0.048   0.554
 1670HOH      O 5195   0.423   3.430   0.491
 1670HOH     H1 5196   0.463   3.474   0.416
 1670HOH     H2 5197   0.373   3.498   0.536
 1671HOH      O 5198   0.699   0.828   3.574
 1671HOH     H1 5199   0.789   0.817   3.604
 1671HOH     H2 5200   0.691   0.921   3.555
 1672HOH      O 5201   1.541   3.491   0.570
 1672HOH     H1 5202   1.471   3.442   0.613
 1672HOH     H2 5203   1.518   3.489   0.477
 1673HOH      O 5204   0.746   0.618   2.083
 1673HOH     H1 5205   0.722   0.558   2.012
 1673HOH     H2 5206   0.828   0.583   2.117
 1674HOH      O 5207   1.845   3.520   3.107
 1674HOH     H1 5208   1.861   3.612   3.090
 1674HOH     H2 5209   1.790   3.519   3.186
 1675HOH      O 5210   3.768   1.639   1.087
 1675HOH     H1 5211   3.724   1.628   1.002
 1675HOH     H2 5212   3.716   1.705   1.132
 1676HOH      O 5213   3.526   0.995   3.290
 1676HOH     H1 5214   3.465   0.967   3.359
 1676HOH     H2 5215   3.566   0.914   3.259
 1677HOH      O 5216   1.221   0.232   2.576
 1677HOH     H1 5217   1.278   0.159   2.601
 1677HOH     H2 5218   1.134   0.194   2.571
 1678HOH      O 5219   3.267   4.034   3.912
 1678HOH     H1 5220   3.268   3.953   3.963
 1678HOH     H2 5221   3.186   4.030   3.862
 1679HOH      O 5222   2.202   0.528   3.291
 1679HOH     H1 5223   2.255   0.595   3.246
 1679HOH     H2 5224   2.136   0.578   3.337
 1680HOH      O 5225   3.162   2.159   3.362
 1680HOH     H1 5226   3.089   2.101   3.339
 1680HOH     H2 5227   3.210   2.110   3.429
 1681HOH      O 5228   2.614   3.109   1.203
 1681HOH     H1 5229   2.519   3.111   1.212
 1681HOH     H2 5230   2.643   3.196   1.229
 1682HOH      O 5231   1.292   0.672   0.787
 1682HOH     H1 5232   1.204   0.644   0.812
 1682HOH     H2 5233   1.314   0.619   0.711
 1683HOH      O 5234   0.250   2.027   0.963
 1683HOH     H1 5235   0.333   2.074   0.964
 1683HOH     H2 5236   0.232   2.009   1.055
 1684HOH      O 5237   0.233   0.429   3.971
 1684HOH     H1 5238   0.292   0.354   3.961
 1684HOH     H2 5239   0.252   0.484   3.895
 1685HOH      O 5240   3.405   1.477   2.484
 1685HOH     H1 5241   3.451   1.399   2.514
 1685HOH     H2 5242   3.317   1.445   2.461
 1686HOH      O 5243   3.427   3.186   0.901
 1686HOH     H1 5244   3.370   3.171   0.825
 1686HOH     H2 5245   3.516   3.180   0.866
 1687HOH      O 5246   3.183   1.716   2.603
 1687HOH     H1 5247   3.258   1.739   2.658
 1687HOH     H2 5248   3.111   1.704   2.665
 1688HOH      O 5249   3.897   3.564   2.943
 1688HOH     H1 5250   3.819   3.552   2.888
 1688HOH     H2 5251   3.911   3.479   2.983
 1689HOH      O 5252   3.416   3.544   0.201
 1689HOH     H1 5253   3.477   3.491   0.151
 1689HOH     H2 5254   3.330   3.517   0.170
 1690HOH      O 5255   0.218   3.288   0.856
 1690HOH     H1 5256   0.265   3.207   0.876
 1690HOH     H2 5257   0.207   3.287   0.761
 1691HOH      O 5258   3.463   1.335   1.417
 1691HOH     H1 5259   3.398   1.310   1.482
 1691HOH     H2 5260   3.504   1.414   1.453
 1692HOH      O 5261   0.606   3.179   1.766
 1692HOH     H1 5262   0.618   3.215   1.678
 1692HOH     H2 5263   0.661   3.101   1.768
 1693HOH      O 5264   3.235   2.436   2.037
 1693HOH     H1 5265   3.302   2.497   2.003
 1693HOH     H2 5266   3.275   2.350   2.028
 1694HOH      O 5267   2.804   1.404   1.182
 1694HOH     H1 5268   2.832   1.373   1.096
 1694HOH     H2 5269   2.751   1.482   1.164
 1695HOH      O 5270   2.548   1.316   2.039
 1695HOH     H1 5271   2.490   1.343   1.967
 1695HOH     H2 5272   2.511   1.358   2.117
 1696HOH      O 5273   3.706   0.665   3.816
 1696HOH     H1 5274   3.759   0.723   3.870
 1696HOH     H2 5275   3.722   0.695   3.726
 1697HOH      O 5276   0.695   1.054   2.810
 1697HOH     H1 5277   0.616   1.093   2.849
 1697HOH     H2 5278   0.677   1.053   2.716
 1698HOH      O 5279   1.794   2.042   0.935
 1698HOH     H1 5280   1.851   2.004   0.868
 1698HOH     H2 5281   1.718   1.984   0.937
 1699HOH      O 5282   2.305   0.713   3.046
 1699HOH     H1 5283   2.217   0.742   3.068
 1699HOH     H2 5284   2.295   0.662   2.965
 1700HOH      O 5285   0.968   1.159   0.690
 1700HOH     H1 5286   0.990   1.152   0.783
 1700HOH     H2 5287   1.012   1.240   0.662
 1701HOH      O 5288   2.498   3.083   0.048
 1701HOH     H1 5289   2.498   3.034   0.130
 1701HOH     H2 5290   2.572   3.143   0.057
 1702HOH      O 5291   1.824   0.135   1.225
 1702HOH     H1 5292   1.808   0.213   1.173
 1702HOH     H2 5293   1.745   0.082   1.213
 1703HOH      O 5294   0.689   1.081   1.068
 1703HOH     H1 5295   0.595   1.087   1.081
 1703HOH     H2 5296   0.711   1.159   1.016
 1704HOH      O 5297   2.052   0.120   3.692
 1704HOH     H1 5298   2.061   0.209   3.659
 1704HOH     H2 5299   2.130   0.107   3.746
 1705HOH      O 5300   0.627   1.301   3.157
 1705HOH     H1 5301   0.722   1.309   3.168
 1705HOH     H2 5302   0.595   1.391   3.158
 1706HOH      O 5303   2.334   0.091   3.546
 1706HOH     H1 5304   2.403   0.068   3.484
 1706HOH     H2 5305   2.326   0.186   3.538
 1707HOH      O 5306   1.148   1.546   3.214
 1707HOH     H1 5307   1.075   1.608   3.217
 1707HOH     H2 5308   1.177   1.547   3.123
 1708HOH      O 5309   3.306   0.978   2.303
 1708HOH     H1 5310   3.371   0.948   2.238
 1708HOH     H2 5311   3.310   0.912   2.372
 1709HOH      O 5312   1.585   0.290   1.507
 1709HOH     H1 5313   1.610   0.300   1.415
 1709HOH     H2 5314   1.545   0.374   1.530
 1710HOH      O 5315   3.083   1.672   3.862
 1710HOH     H1 5316   3.114   1.582   3.870
 1710HOH     H2 5317   3.151   1.725   3.903
 1711HOH      O 5318   3.536   3.143   3.533
 1711HOH     H1 5319   3.549   3.138   3.438
 1711HOH     H2 5320   3.450   3.184   3.543
 1712HOH      O 5321   2.839   2.158   0.729
 1712HOH     H1 5322   2.823   2.110   0.811
 1712HOH     H2 5323   2.752   2.171   0.692
 1713HOH      O 5324   3.864   3.927   1.186
 1713HOH     H1 5325   3.878   3.919   1.280
 1713HOH     H2 5326   3.858   3.836   1.155
 1714HOH      O 5327   3.638   1.064   1.936
 1714HOH     H1 5328   3.693   1.090   2.010
 1714HOH     H2 5329   3.693   1.080   1.859
 1715HOH      O 5330   0.442   3.619   0.299
 1715HOH     H1 5331   0.533   3.641   0.281
 1715HOH     H2 5332   0.402   3.701   0.328
 1716HOH      O 5333   0.851   2.291   3.273
 1716HOH     H1 5334   0.933   2.241   3.274
 1716HOH     H2 5335   0.863   2.359   3.339
 1717HOH      O 5336   3.482   2.405   1.035
 1717HOH     H1 5337   3.449   2.395   0.946
 1717HOH     H2 5338   3.555   2.343   1.040
 1718HOH      O 5339   3.951   0.533   3.730
 1718HOH     H1 5340   3.962   0.451   3.778
 1718HOH     H2 5341   3.873   0.573   3.768
 1719HOH      O 5342   2.500   3.563   2.329
 1719HOH     H1 5343   2.461   3.585   2.244
 1719HOH     H2 5344   2.527   3.647   2.365
 1720HOH      O 5345   3.140   2.710   4.022
 1720HOH     H1 5346   3.217   2.759   3.993
 1720HOH     H2 5347   3.084   2.704   3.944
 1721HOH      O 5348   3.302   3.328   3.905
 1721HOH     H1 5349   3.254   3.338   3.987
 1721HOH     H2 5350   3.235   3.302   3.841
 1722HOH      O 5351   2.994   2.442   2.692
 1722HOH     H1 5352   3.054   2.483   2.630
 1722HOH     H2 5353   3.040   2.364   2.723
 1723HOH      O 5354   2.017   2.805   2.085
 1723HOH     H1 5355   1.964   2.726   2.087
 1723HOH     H2 5356   2.102   2.776   2.052
 1724HOH      O 5357   0.022   0.999   1.015
 1724HOH     H1 5358   0.047   0.978   1.105
 1724HOH     H2 5359   0.074   0.940   0.962
 1725HOH      O 5360   3.618   1.799   0.658
 1725HOH     H1 5361   3.606   1.824   0.750
 1725HOH     H2 5362   3.546   1.843   0.613
 1726HOH      O 5363   1.308   1.638   1.860
 1726HOH     H1 5364   1.327   1.545   1.874
 1726HOH     H2 5365   1.297   1.646   1.766
 1727HOH      O 5366   2.370   3.643   1.178
 1727HOH     H1 5367   2.399   3.731   1.153
 1727HOH     H2 5368   2.376   3.642   1.273
 1728HOH      O 5369   3.661   1.959   3.186
 1728HOH     H1 5370   3.685   1.918   3.269
 1728HOH     H2 5371   3.654   2.053   3.207
 1729HOH      O 5372   0.415   1.889   3.324
 1729HOH     H1 5373   0.371   1.899   3.240
 1729HOH     H2 5374   0.367   1.946   3.383
 1730HOH      O 5375   1.425   3.638   1.765
 1730HOH     H1 5376   1.456   3.724   1.737
 1730HOH     H2 5377   1.391   3.598   1.685
 1731HOH      O 5378   0.971   1.257   3.022
 1731HOH     H1 5379   0.896   1.316   3.017
 1731HOH     H2 5380   0.936   1.175   3.056
 1732HOH      O 5381   0.463   0.731   3.403
 1732HOH     H1 5382   0.483   0.723   3.310
 1732HOH     H2 5383   0.547   0.749   3.444
 1733HOH      O 5384   1.031   2.678   3.441
 1733HOH     H1 5385   0.971   2.602   3.439
 1733HOH     H2 5386   1.054   2.687   3.534
 1734HOH      O 5387   2.697   2.327  -0.009
 1734HOH     H1 5388   2.720   2.409   0.035
 1734HOH     H2 5389   2.779   2.278  -0.012
 1735HOH      O 5390   1.559   0.508   0.781
 1735HOH     H1 5391   1.545   0.431   0.725
 1735HOH     H2 5392   1.563   0.472   0.870
 1736HOH      O 5393   3.771   1.368   2.052
 1736HOH     H1 5394   3.862   1.386   2.032
 1736HOH     H2 5395   3.771   1.279   2.086
 1737HOH      O 5396   3.603   0.733   0.527
 1737HOH     H1 5397   3.682   0.751   0.475
 1737HOH     H2 5398   3.543   0.692   0.465
 1738HOH      O 5399   0.874   1.644   1.398
 1738HOH     H1 5400   0.853   1.686   1.315
 1738HOH     H2 5401   0.967   1.622   1.392
 1739HOH      O 5402   2.147   0.339   2.454
 1739HOH     H1 5403   2.105   0.407   2.508
 1739HOH     H2 5404   2.194   0.387   2.386
 1740HOH      O 5405   1.712   2.615   3.975
 1740HOH     H1 5406   1.738   2.523   3.977
 1740HOH     H2 5407   1.630   2.616   3.925
 1741HOH      O 5408   1.487   2.613   0.165
 1741HOH     H1 5409   1.397   2.585   0.183
 1741HOH     H2 5410   1.479   2.670   0.088
 1742HOH      O 5411   2.555   0.799   1.745
 1742HOH     H1 5412   2.624   0.837   1.691
 1742HOH     H2 5413   2.596   0.724   1.787
 1743HOH      O 5414   3.906   1.239   3.594
 1743HOH     H1 5415   3.872   1.217   3.507
 1743HOH     H2 5416   3.864   1.176   3.653
 1744HOH      O 5417   2.930   3.516   0.921
 1744HOH     H1 5418   2.937   3.605   0.887
 1744HOH     H2 5419   2.949   3.524   1.014
 1745HOH      O 5420   3.248   3.194   1.576
 1745HOH     H1 5421   3.243   3.210   1.670
 1745HOH     H2 5422   3.256   3.282   1.538
 1746HOH      O 5423   1.404   3.255   1.082
 1746HOH     H1 5424   1.340   3.192   1.114
 1746HOH     H2 5425   1.403   3.326   1.146
 1747HOH      O 5426   0.221   0.675   3.079
 1747HOH     H1 5427   0.171   0.740   3.030
 1747HOH     H2 5428   0.239   0.717   3.163
 1748HOH      O 5429   1.765   2.012   0.124
 1748HOH     H1 5430   1.706   1.937   0.123
 1748HOH     H2 5431   1.709   2.087   0.143
 1749HOH      O 5432   2.010   2.120   3.038
 1749HOH     H1 5433   2.042   2.206   3.013
 1749HOH     H2 5434   1.919   2.118   3.010
 1750HOH      O 5435   3.974   3.920   3.245
 1750HOH     H1 5436   3.992   4.003   3.287
 1750HOH     H2 5437   4.023   3.923   3.163
 1751HOH      O 5438   3.352   0.158   0.208
 1751HOH     H1 5439   3.299   0.145   0.130
 1751HOH     H2 5440   3.289   0.189   0.274
 1752HOH      O 5441   1.932   1.727   3.572
 1752HOH     H1 5442   1.937   1.794   3.504
 1752HOH     H2 5443   2.018   1.726   3.613
 1753HOH      O 5444   0.161   3.068   3.381
 1753HOH     H1 5445   0.071   3.054   3.353
 1753HOH     H2 5446   0.211   3.071   3.299
 1754HOH      O 5447   1.143   2.081   1.223
 1754HOH     H1 5448   1.208   2.073   1.153
 1754HOH     H2 5449   1.190   2.120   1.296
 1755HOH      O 5450   0.691   1.987   0.360
 1755HOH     H1 5451   0.685   2.049   0.433
 1755HOH     H2 5452   0.607   1.995   0.315
 1756HOH      O 5453   3.482   3.371   1.133
 1756HOH     H1 5454   3.547   3.337   1.071
 1756HOH     H2 5455   3.398   3.351   1.092
 1757HOH      O 5456   1.730   0.064   1.679
 1757HOH     H1 5457   1.717   0.039   1.587
 1757HOH     H2 5458   1.822   0.090   1.684
 1758HOH      O 5459   1.278   2.305   3.121
 1758HOH     H1 5460   1.275   2.218   3.083
 1758HOH     H2 5461   1.312   2.361   3.051
 1759HOH      O 5462   3.024   2.096   1.074
 1759HOH     H1 5463   3.099   2.114   1.132
 1759HOH     H2 5464   3.035   2.157   1.001
 1760HOH      O 5465   3.590   2.541   1.606
 1760HOH     H1 5466   3.550   2.612   1.555
 1760HOH     H2 5467   3.643   2.586   1.672
 1761HOH      O 5468   2.734   2.817   0.208
 1761HOH     H1 5469   2.793   2.833   0.282
 1761HOH     H2 5470   2.657   2.870   0.227
 1762HOH      O 5471   3.206   2.682   1.249
 1762HOH     H1 5472   3.214   2.679   1.345
 1762HOH     H2 5473   3.188   2.773   1.229
 1763HOH      O 5474   1.826   2.278   1.185
 1763HOH     H1 5475   1.841   2.346   1.251
 1763HOH     H2 5476   1.913   2.261   1.149
 1764HOH      O 5477   0.871   3.937   0.685
 1764HOH     H1 5478   0.852   4.015   0.737
 1764HOH     H2 5479   0.842   3.960   0.597
 1765HOH      O 5480   1.413   1.408   3.355
 1765HOH     H1 5481   1.476   1.394   3.426
 1765HOH     H2 5482   1.429   1.335   3.294
 1766HOH      O 5483   1.630   1.196   0.008
 1766HOH     H1 5484   1.572   1.159  -0.059
 1766HOH     H2 5485   1.576   1.202   0.086
 1767HOH      O 5486   1.679   2.288   3.265
 1767HOH     H1 5487   1.638   2.357   3.213
 1767HOH     H2 5488   1.622   2.277   3.340
 1768HOH      O 5489   1.832   3.235   0.368
 1768HOH     H1 5490   1.779   3.286   0.308
 1768HOH     H2 5491   1.875   3.300   0.424
 1769HOH      O 5492   3.486   0.829   2.117
 1769HOH     H1 5493   3.522   0.757   2.169
 1769HOH     H2 5494   3.559   0.859   2.063
 1770HOH      O 5495   1.041   3.138   3.208
 1770HOH     H1 5496   0.992   3.169   3.284
 1770HOH     H2 5497   1.120   3.193   3.207
 1771HOH      O 5498   2.915   3.953   3.045
 1771HOH     H1 5499   2.975   3.912   3.108
 1771HOH     H2 5500   2.837   3.898   3.048
 1772HOH      O 5501   2.365   3.504   3.567
 1772HOH     H1 5502   2.317   3.480   3.487
 1772HOH     H2 5503   2.318   3.581   3.601
 1773HOH      O 5504   3.400   0.221   3.503
 1773HOH     H1 5505   3.390   0.218   3.598
 1773HOH     H2 5506   3.318   0.258   3.471
 1774HOH      O 5507   1.737   1.549   3.444
 1774HOH     H1 5508   1.659   1.604   3.455
 1774HOH     H2 5509   1.803   1.590   3.499
 1775HOH      O 5510   0.823   1.117   0.445
 1775HOH     H1 5511   0.895   1.132   0.506
 1775HOH     H2 5512   0.818   1.197   0.394
 1776HOH      O 5513   0.066   2.152   3.933
 1776HOH     H1 5514   0.016   2.233   3.923
 1776HOH     H2 5515   0.011   2.085   3.893
 1777HOH      O 5516   2.927   1.975   3.307
 1777HOH     H1 5517   2.852   2.030   3.285
 1777HOH     H2 5518   2.890   1.906   3.362
 1778HOH      O 5519   2.114   1.925   2.059
 1778HOH     H1 5520   2.054   1.861   2.020
 1778HOH     H2 5521   2.066   2.008   2.054
 1779HOH      O 5522   0.264   0.126   3.860
 1779HOH     H1 5523   0.243   0.089   3.774
 1779HOH     H2 5524   0.337   0.185   3.843
 1780HOH      O 5525   2.890   0.397   0.578
 1780HOH     H1 5526   2.918   0.482   0.543
 1780HOH     H2 5527   2.877   0.343   0.500
 1781HOH      O 5528   0.052   1.607   2.791
 1781HOH     H1 5529  -0.015   1.582   2.728
 1781HOH     H2 5530   0.020   1.573   2.875
 1782HOH      O 5531   1.940   3.296   1.452
 1782HOH     H1 5532   1.917   3.383   1.483
 1782HOH     H2 5533   1.882   3.280   1.378
 1783HOH      O 5534   0.093   1.122   1.563
 1783HOH     H1 5535   0.053   1.037   1.583
 1783HOH     H2 5536   0.045   1.154   1.487
 1784HOH      O 5537   1.107   3.184   1.517
 1784HOH     H1 5538   1.109   3.217   1.607
 1784HOH     H2 5539   1.051   3.107   1.521
 1785HOH      O 5540   1.796   1.554   2.133
 1785HOH     H1 5541   1.805   1.583   2.223
 1785HOH     H2 5542   1.713   1.507   2.131
 1786HOH      O 5543   1.308   2.091   2.760
 1786HOH     H1 5544   1.348   2.155   2.700
 1786HOH     H2 5545   1.370   2.018   2.760
 1787HOH      O 5546   2.507   1.414   1.298
 1787HOH     H1 5547   2.592   1.408   1.253
 1787HOH     H2 5548   2.511   1.347   1.366
 1788HOH      O 5549   2.419   3.611   2.093
 1788HOH     H1 5550   2.455   3.554   2.026
 1788HOH     H2 5551   2.456   3.697   2.074
 1789HOH      O 5552   1.016   2.436   2.949
 1789HOH     H1 5553   1.040   2.476   3.033
 1789HOH     H2 5554   0.936   2.481   2.923
 1790HOH      O 5555   4.004   1.222   3.154
 1790HOH     H1 5556   4.006   1.152   3.219
 1790HOH     H2 5557   3.978   1.300   3.203
 1791HOH      O 5558   0.022  -0.016   0.014
 1791HOH     H1 5559   0.055   0.060  -0.035
 1791HOH     H2 5560  -0.026   0.022   0.088
 1792HOH      O 5561   2.628   3.481   3.180
 1792HOH     H1 5562   2.584   3.562   3.152
 1792HOH     H2 5563   2.646   3.495   3.273
 1793HOH      O 5564   0.542   3.052   0.003
 1793HOH     H1 5565   0.496   3.085   0.079
 1793HOH     H2 5566   0.476   3.050  -0.066
 1794HOH      O 5567   0.988   2.281   2.572
 1794HOH     H1 5568   0.924   2.295   2.641
 1794HOH     H2 5569   1.071   2.308   2.610
 1795HOH      O 5570   0.232   2.554   0.580
 1795HOH     H1 5571   0.152   2.581   0.626
 1795HOH     H2 5572   0.276   2.637   0.558
 1796HOH      O 5573   2.277   1.998   0.843
 1796HOH     H1 5574   2.244   1.953   0.921
 1796HOH     H2 5575   2.260   1.937   0.771
 1797HOH      O 5576   0.791   2.447   0.930
 1797HOH     H1 5577   0.827   2.532   0.904
 1797HOH     H2 5578   0.826   2.385   0.867
 1798HOH      O 5579   2.348   0.830   2.746
 1798HOH     H1 5580   2.323   0.745   2.783
 1798HOH     H2 5581   2.301   0.834   2.663
 1799HOH      O 5582   1.987   2.820   0.347
 1799HOH     H1 5583   1.951   2.800   0.260
 1799HOH     H2 5584   1.933   2.891   0.380
 1800HOH      O 5585   3.035   3.574   0.572
 1800HOH     H1 5586   3.000   3.639   0.632
 1800HOH     H2 5587   3.046   3.621   0.489
 1801HOH      O 5588   0.663   2.005   2.716
 1801HOH     H1 5589   0.604   2.005   2.792
 1801HOH     H2 5590   0.737   2.059   2.743
 1802HOH      O 5591   0.856   0.111   1.499
 1802HOH     H1 5592   0.815   0.128   1.414
 1802HOH     H2 5593   0.941   0.073   1.477
 1803HOH      O 5594   4.002   1.274   1.079
 1803HOH     H1 5595   3.994   1.306   0.989
 1803HOH     H2 5596   4.008   1.179   1.070
 1804HOH      O 5597   0.625   3.735   1.870
 1804HOH     H1 5598   0.551   3.776   1.826
 1804HOH     H2 5599   0.588   3.655   1.909
 1805HOH      O 5600   2.743   0.434   4.054
 1805HOH     H1 5601   2.812   0.435   3.988
 1805HOH     H2 5602   2.693   0.514   4.037
 1806HOH      O 5603   2.977   3.787   0.729
 1806HOH     H1 5604   2.907   3.850   0.710
 1806HOH     H2 5605   3.003   3.807   0.819
 1807HOH      O 5606   0.546   2.575   0.017
 1807HOH     H1 5607   0.602   2.643  -0.021
 1807HOH     H2 5608   0.550   2.591   0.111
 1808HOH      O 5609   3.782   1.096   3.372
 1808HOH     H1 5610   3.731   1.016   3.355
 1808HOH     H2 5611   3.717   1.166   3.371
 1809HOH      O 5612   2.356   2.274   1.687
 1809HOH     H1 5613   2.296   2.232   1.626
 1809HOH     H2 5614   2.341   2.230   1.770
 1810HOH      O 5615   0.371   2.600   0.315
 1810HOH     H1 5616   0.381   2.510   0.285
 1810HOH     H2 5617   0.316   2.595   0.392
 1811HOH      O 5618   0.465   3.244   1.212
 1811HOH     H1 5619   0.541   3.249   1.154
 1811HOH     H2 5620   0.502   3.244   1.300
 1812HOH      O 5621   3.472   3.620   3.861
 1812HOH     H1 5622   3.515   3.534   3.862
 1812HOH     H2 5623   3.535   3.679   3.902
 1813HOH      O 5624   1.558   1.627   1.472
 1813HOH     H1 5625   1.563   1.561   1.542
 1813HOH     H2 5626   1.647   1.661   1.465
 1814HOH      O 5627   4.041   2.622   2.454
 1814HOH     H1 5628   3.946   2.613   2.461
 1814HOH     H2 5629   4.076   2.539   2.488
 1815HOH      O 5630   0.499   2.826   0.739
 1815HOH     H1 5631   0.431   2.850   0.676
 1815HOH     H2 5632   0.514   2.906   0.789
 1816HOH      O 5633   1.949   3.290   3.203
 1816HOH     H1 5634   1.920   3.368   3.155
 1816HOH     H2 5635   1.924   3.308   3.294
 1817HOH      O 5636   0.470   4.001   2.424
 1817HOH     H1 5637   0.563   4.027   2.427
 1817HOH     H2 5638   0.435   4.048   2.349
 1818HOH      O 5639   3.286   3.974   2.965
 1818HOH     H1 5640   3.221   3.937   3.025
 1818HOH     H2 5641   3.262   3.938   2.880
 1819HOH      O 5642   1.355   3.468   2.036
 1819HOH     H1 5643   1.357   3.393   1.976
 1819HOH     H2 5644   1.332   3.542   1.979
 1820HOH      O 5645   3.325   0.703   3.762
 1820HOH     H1 5646   3.284   0.623   3.794
 1820HOH     H2 5647   3.261   0.772   3.783
 1821HOH      O 5648   1.157   2.084   2.995
 1821HOH     H1 5649   1.209   2.080   2.915
 1821HOH     H2 5650   1.070   2.056   2.969
 1822HOH      O 5651   0.891   3.144   2.600
 1822HOH     H1 5652   0.901   3.150   2.696
 1822HOH     H2 5653   0.804   3.179   2.583
 1823HOH      O 5654   3.790   0.386   3.465
 1823HOH     H1 5655   3.710   0.383   3.413
 1823HOH     H2 5656   3.761   0.413   3.552
 1824HOH      O 5657   2.650   3.762   3.955
 1824HOH     H1 5658   2.603   3.694   4.003
 1824HOH     H2 5659   2.738   3.762   3.992
 1825HOH      O 5660   1.257   3.239   3.338
 1825HOH     H1 5661   1.269   3.179   3.412
 1825HOH     H2 5662   1.345   3.257   3.307
 1826HOH      O 5663   3.595   3.274   0.712
 1826HOH     H1 5664   3.560   3.354   0.673
 1826HOH     H2 5665   3.576   3.205   0.648
 1827HOH      O 5666   1.359   1.663   0.594
 1827HOH     H1 5667   1.390   1.572   0.596
 1827HOH     H2 5668   1.433   1.712   0.557
 1828HOH      O 5669   3.676   3.073   3.034
 1828HOH     H1 5670   3.703   3.158   3.068
 1828HOH     H2 5671   3.617   3.094   2.961
 1829HOH      O 5672   1.280   2.325   1.306
 1829HOH     H1 5673   1.362   2.343   1.352
 1829HOH     H2 5674   1.307   2.310   1.215
 1830HOH      O 5675   1.967   0.785   1.754
 1830HOH     H1 5676   1.981   0.878   1.735
 1830HOH     H2 5677   1.938   0.748   1.670
 1831HOH      O 5678   1.349   1.463   3.698
 1831HOH     H1 5679   1.292   1.535   3.673
 1831HOH     H2 5680   1.305   1.421   3.772
 1832HOH      O 5681   0.482   3.581   2.751
 1832HOH     H1 5682   0.568   3.545   2.769
 1832HOH     H2 5683   0.468   3.646   2.819
 1833HOH      O 5684   2.613   2.069   3.022
 1833HOH     H1 5685   2.618   2.120   3.103
 1833HOH     H2 5686   2.608   2.135   2.952
 1834HOH      O 5687   1.152   0.324   1.030
 1834HOH     H1 5688   1.159   0.374   0.949
 1834HOH     H2 5689   1.099   0.248   1.006
 1835HOH      O 5690   1.948   3.021   1.836
 1835HOH     H1 5691   1.894   3.068   1.772
 1835HOH     H2 5692   1.886   2.992   1.903
 1836HOH      O 5693   1.425   0.294   3.968
 1836HOH     H1 5694   1.355   0.341   4.013
 1836HOH     H2 5695   1.479   0.363   3.929
 1837HOH      O 5696   1.585   2.923   0.757
 1837HOH     H1 5697   1.602   2.965   0.673
 1837HOH     H2 5698   1.577   2.995   0.820
 1838HOH      O 5699   3.096   3.591   1.144
 1838HOH     H1 5700   3.133   3.677   1.123
 1838HOH     H2 5701   3.069   3.598   1.236
 1839HOH      O 5702   0.117   3.558   2.821
 1839HOH     H1 5703   0.032   3.573   2.863
 1839HOH     H2 5704   0.135   3.638   2.773
 1840HOH      O 5705   1.775   0.763   3.004
 1840HOH     H1 5706   1.696   0.718   3.035
 1840HOH     H2 5707   1.788   0.729   2.915
 1841HOH      O 5708   2.161   3.638   3.194
 1841HOH     H1 5709   2.081   3.667   3.238
 1841HOH     H2 5710   2.173   3.548   3.222
 1842HOH      O 5711   0.280   0.796   1.724
 1842HOH     H1 5712   0.211   0.807   1.659
 1842HOH     H2 5713   0.303   0.886   1.749
 1843HOH      O 5714   2.700   0.250   1.996
 1843HOH     H1 5715   2.688   0.169   2.045
 1843HOH     H2 5716   2.756   0.225   1.922
 1844HOH      O 5717   0.774   0.711   1.220
 1844HOH     H1 5718   0.826   0.776   1.268
 1844HOH     H2 5719   0.772   0.744   1.130
 1845HOH      O 5720   0.317   3.015   3.857
 1845HOH     H1 5721   0.236   3.064   3.874
 1845HOH     H2 5722   0.291   2.923   3.865
 1846HOH      O 5723   0.678   3.831   3.525
 1846HOH     H1 5724   0.629   3.827   3.607
 1846HOH     H2 5725   0.715   3.920   3.524
 1847HOH      O 5726   1.762   3.698   0.388
 1847HOH     H1 5727   1.682   3.724   0.344
 1847HOH     H2 5728   1.798   3.780   0.423
 1848HOH      O 5729   1.194   0.539   3.280
 1848HOH     H1 5730   1.282   0.576   3.282
 1848HOH     H2 5731   1.203   0.460   3.226
 1849HOH      O 5732   0.012   0.691   2.643
 1849HOH     H1 5733  -0.013   0.625   2.707
 1849HOH     H2 5734   0.073   0.748   2.690
 1850HOH      O 5735   1.714   0.120   1.940
 1850HOH     H1 5736   1.717   0.081   1.852
 1850HOH     H2 5737   1.755   0.206   1.930
 1851HOH      O 5738   2.246   2.879   0.162
 1851HOH     H1 5739   2.202   2.908   0.242
 1851HOH     H2 5740   2.302   2.807   0.190
 1852HOH      O 5741   3.761   3.340   1.003
 1852HOH     H1 5742   3.753   3.246   1.018
 1852HOH     H2 5743   3.845   3.351   0.959
 1853HOH      O 5744   1.625   3.397   2.933
 1853HOH     H1 5745   1.688   3.453   2.979
 1853HOH     H2 5746   1.677   3.323   2.903
 1854HOH      O 5747   0.066   2.114   2.656
 1854HOH     H1 5748   0.012   2.153   2.725
 1854HOH     H2 5749   0.055   2.020   2.667
 1855HOH      O 5750   3.546   2.396   2.392
 1855HOH     H1 5751   3.456   2.363   2.402
 1855HOH     H2 5752   3.570   2.426   2.480
 1856HOH      O 5753   1.600   0.004   3.204
 1856HOH     H1 5754   1.572   0.075   3.147
 1856HOH     H2 5755   1.525  -0.014   3.260
 1857HOH      O 5756   2.791   2.412   2.120
 1857HOH     H1 5757   2.839   2.403   2.202
 1857HOH     H2 5758   2.848   2.466   2.065
 1858HOH      O 5759   0.524   1.579   2.625
 1858HOH     H1 5760   0.488   1.496   2.658
 1858HOH     H2 5761   0.605   1.591   2.674
 1859HOH      O 5762   3.730   3.940   2.566
 1859HOH     H1 5763   3.789   3.887   2.512
 1859HOH     H2 5764   3.788   4.000   2.613
 1860HOH      O 5765   0.064   3.765   0.591
 1860HOH     H1 5766   0.006   3.720   0.652
 1860HOH     H2 5767   0.014   3.840   0.562
 1861HOH      O 5768   1.583   2.643   0.580
 1861HOH     H1 5769   1.584   2.730   0.540
 1861HOH     H2 5770   1.495   2.635   0.617
 1862HOH      O 5771   1.449   3.434   3.779
 1862HOH     H1 5772   1.408   3.436   3.866
 1862HOH     H2 5773   1.541   3.413   3.797
 1863HOH      O 5774   3.174   2.616   0.706
 1863HOH     H1 5775   3.104   2.675   0.735
 1863HOH     H2 5776   3.201   2.651   0.621
 1864HOH      O 5777   3.093   2.138   2.411
 1864HOH     H1 5778   3.023   2.110   2.471
 1864HOH     H2 5779   3.074   2.092   2.329
 1865HOH      O 5780   1.047   1.023   1.622
 1865HOH     H1 5781   1.067   0.966   1.696
 1865HOH     H2 5782   0.951   1.028   1.621
 1866HOH      O 5783   3.527   1.097   2.974
 1866HOH     H1 5784   3.558   1.115   3.063
 1866HOH     H2 5785   3.436   1.071   2.985
 1867HOH      O 5786   1.260   0.025   0.654
 1867HOH     H1 5787   1.226  -0.065   0.660
 1867HOH     H2 5788   1.299   0.041   0.740
 1868HOH      O 5789   2.478   1.171   1.741
 1868HOH     H1 5790   2.448   1.147   1.828
 1868HOH     H2 5791   2.570   1.145   1.739
 1869HOH      O 5792   3.731   1.397   0.839
 1869HOH     H1 5793   3.702   1.456   0.769
 1869HOH     H2 5794   3.824   1.417   0.850
 1870HOH      O 5795   0.511   2.554   3.278
 1870HOH     H1 5796   0.505   2.649   3.268
 1870HOH     H2 5797   0.587   2.530   3.225
 1871HOH      O 5798   2.252   2.182   2.147
 1871HOH     H1 5799   2.285   2.150   2.063
 1871HOH     H2 5800   2.162   2.149   2.152
 1872HOH      O 5801   3.235   0.211   2.232
 1872HOH     H1 5802   3.331   0.201   2.225
 1872HOH     H2 5803   3.222   0.302   2.257
 1873HOH      O 5804   2.868   2.783   3.172
 1873HOH     H1 5805   2.904   2.709   3.221
 1873HOH     H2 5806   2.778   2.757   3.151
 1874HOH      O 5807   3.402   1.234   0.014
 1874HOH     H1 5808   3.477   1.255   0.070
 1874HOH     H2 5809   3.393   1.139   0.022
 1875HOH      O 5810   3.343   0.953   4.008
 1875HOH     H1 5811   3.421   0.903   4.032
 1875HOH     H2 5812   3.272   0.887   4.008
 1876HOH      O 5813   2.748   0.181   3.304
 1876HOH     H1 5814   2.691   0.193   3.228
 1876HOH     H2 5815   2.699   0.120   3.360
 1877HOH      O 5816   1.749   1.553   3.125
 1877HOH     H1 5817   1.843   1.541   3.133
 1877HOH     H2 5818   1.717   1.556   3.215
 1878HOH      O 5819   2.904   3.877   3.725
 1878HOH     H1 5820   2.908   3.911   3.814
 1878HOH     H2 5821   2.972   3.924   3.678
 1879HOH      O 5822   0.984   2.760   0.412
 1879HOH     H1 5823   0.971   2.729   0.502
 1879HOH     H2 5824   0.920   2.831   0.401
 1880HOH      O 5825   3.692   3.904   2.257
 1880HOH     H1 5826   3.756   3.973   2.272
 1880HOH     H2 5827   3.610   3.939   2.293
 1881HOH      O 5828   0.422   2.000   0.186
 1881HOH     H1 5829   0.467   2.041   0.112
 1881HOH     H2 5830   0.341   2.052   0.196
 1882HOH      O 5831   1.389   0.380   2.870
 1882HOH     H1 5832   1.375   0.429   2.951
 1882HOH     H2 5833   1.360   0.291   2.890
 1883HOH      O 5834   2.798   1.879   0.550
 1883HOH     H1 5835   2.766   1.829   0.625
 1883HOH     H2 5836   2.744   1.849   0.476
 1884HOH      O 5837   1.090   3.461   3.389
 1884HOH     H1 5838   1.055   3.531   3.333
 1884HOH     H2 5839   1.129   3.398   3.328
 1885HOH      O 5840   1.917   3.596   2.772
 1885HOH     H1 5841   1.970   3.574   2.696
 1885HOH     H2 5842   1.831   3.617   2.737
 1886HOH      O 5843   3.913   2.469   1.524
 1886HOH     H1 5844   3.845   2.536   1.518
 1886HOH     H2 5845   3.979   2.508   1.582
 1887HOH      O 5846   2.155   3.285   1.071
 1887HOH     H1 5847   2.195   3.369   1.048
 1887HOH     H2 5848   2.085   3.273   1.006
 1888HOH      O 5849   2.085   3.947   0.595
 1888HOH     H1 5850   2.077   4.042   0.590
 1888HOH     H2 5851   2.131   3.931   0.678
 1889HOH      O 5852   2.637   3.539   3.441
 1889HOH     H1 5853   2.692   3.504   3.511
 1889HOH     H2 5854   2.552   3.554   3.482
 1890HOH      O 5855   0.984   3.732   0.832
 1890HOH     H1 5856   0.935   3.729   0.914
 1890HOH     H2 5857   0.965   3.817   0.794
 1891HOH      O 5858   1.522   0.691   1.233
 1891HOH     H1 5859   1.525   0.697   1.137
 1891HOH     H2 5860   1.430   0.675   1.252
 1892HOH      O 5861   3.155   3.632   3.386
 1892HOH     H1 5862   3.065   3.635   3.418
 1892HOH     H2 5863   3.208   3.621   3.465
 1893HOH      O 5864   1.187   0.309   3.146
 1893HOH     H1 5865   1.134   0.289   3.070
 1893HOH     H2 5866   1.196   0.225   3.192
 1894HOH      O 5867   3.387   3.202   0.318
 1894HOH     H1 5868   3.403   3.109   0.300
 1894HOH     H2 5869   3.292   3.210   0.313
 1895HOH      O 5870   2.768   3.214   2.168
 1895HOH     H1 5871   2.854   3.178   2.189
 1895HOH     H2 5872   2.707   3.143   2.186
 1896HOH      O 5873   3.393   3.512   0.507
 1896HOH     H1 5874   3.394   3.574   0.435
 1896HOH     H2 5875   3.356   3.432   0.470
 1897HOH      O 5876   2.498   2.542   1.087
 1897HOH     H1 5877   2.486   2.516   0.995
 1897HOH     H2 5878   2.426   2.500   1.133
 1898HOH      O 5879   1.053   0.241   2.906
 1898HOH     H1 5880   0.976   0.199   2.943
 1898HOH     H2 5881   1.104   0.169   2.869
 1899HOH      O 5882   3.059   0.083   3.312
 1899HOH     H1 5883   3.073  -0.004   3.274
 1899HOH     H2 5884   2.973   0.110   3.278
 1900HOH      O 5885   2.185   2.514   2.726
 1900HOH     H1 5886   2.253   2.529   2.792
 1900HOH     H2 5887   2.187   2.593   2.672
 1901HOH      O 5888   2.902   2.519   3.863
 1901HOH     H1 5889   2.841   2.552   3.929
 1901HOH     H2 5890   2.852   2.452   3.817
 1902HOH      O 5891   3.218   3.809   0.574
 1902HOH     H1 5892   3.159   3.744   0.611
 1902HOH     H2 5893   3.244   3.863   0.648
 1903HOH      O 5894   1.799   3.150   2.985
 1903HOH     H1 5895   1.813   3.166   3.078
 1903HOH     H2 5896   1.877   3.103   2.957
 1904HOH      O 5897   0.901   2.334   1.966
 1904HOH     H1 5898   0.939   2.421   1.977
 1904HOH     H2 5899   0.818   2.338   2.014
 1905HOH      O 5900   1.471   0.583   2.639
 1905HOH     H1 5901   1.514   0.498   2.647
 1905HOH     H2 5902   1.468   0.617   2.729
 1906HOH      O 5903   1.151   0.100   2.268
 1906HOH     H1 5904   1.084   0.069   2.207
 1906HOH     H2 5905   1.117   0.076   2.354
 1907HOH      O 5906   1.617   4.005   1.070
 1907HOH     H1 5907   1.601   3.911   1.082
 1907HOH     H2 5908   1.607   4.019   0.976
 1908HOH      O 5909   1.253   2.760   0.426
 1908HOH     H1 5910   1.266   2.689   0.489
 1908HOH     H2 5911   1.158   2.765   0.415
 1909HOH      O 5912   0.020   0.054   0.734
 1909HOH     H1 5913  -0.025  -0.021   0.697
 1909HOH     H2 5914   0.054   0.022   0.818
 1910HOH      O 5915   3.926   1.609   0.459
 1910HOH     H1 5916   3.926   1.683   0.520
 1910HOH     H2 5917   4.019   1.593   0.441
 1911HOH      O 5918   0.571   3.451   1.805
 1911HOH     H1 5919   0.492   3.481   1.760
 1911HOH     H2 5920   0.575   3.357   1.788
 1912HOH      O 5921   2.604   2.554   3.424
 1912HOH     H1 5922   2.667   2.485   3.446
 1912HOH     H2 5923   2.524   2.529   3.469
 1913HOH      O 5924   1.475   2.279   2.638
 1913HOH     H1 5925   1.536   2.346   2.672
 1913HOH     H2 5926   1.450   2.311   2.552
 1914HOH      O 5927   1.362   2.366   2.381
 1914HOH     H1 5928   1.444   2.345   2.337
 1914HOH     H2 5929   1.294   2.349   2.316
 1915HOH      O 5930   1.430   3.536   3.505
 1915HOH     H1 5931   1.407   3.470   3.570
 1915HOH     H2 5932   1.444   3.616   3.555
 1916HOH      O 5933   1.944   2.466   1.384
 1916HOH     H1 5934   1.995   2.547   1.381
 1916HOH     H2 5935   1.881   2.480   1.455
 1917HOH      O 5936   2.560   3.521   1.704
 1917HOH     H1 5937   2.597   3.542   1.790
 1917HOH     H2 5938   2.600   3.437   1.681
 1918HOH      O 5939   1.791   1.439   1.834
 1918HOH     H1 5940   1.880   1.405   1.848
 1918HOH     H2 5941   1.757   1.450   1.923
 1919HOH      O 5942   3.761   0.452   1.559
 1919HOH     H1 5943   3.843   0.420   1.595
 1919HOH     H2 5944   3.787   0.525   1.502
 1920HOH      O 5945   3.766   0.638   1.258
 1920HOH     H1 5946   3.731   0.568   1.203
 1920HOH     H2 5947   3.692   0.698   1.269
 1921HOH      O 5948   0.593   0.586   0.743
 1921HOH     H1 5949   0.661   0.573   0.678
 1921HOH     H2 5950   0.601   0.512   0.803
 1922HOH      O 5951   0.190   0.464   2.190
 1922HOH     H1 5952   0.150   0.527   2.250
 1922HOH     H2 5953   0.186   0.380   2.236
 1923HOH      O 5954   0.308   0.439   1.479
 1923HOH     H1 5955   0.393   0.475   1.455
 1923HOH     H2 5956   0.299   0.456   1.572
 1924HOH      O 5957   3.030   0.717   0.817
 1924HOH     H1 5958   2.978   0.785   0.774
 1924HOH     H2 5959   3.038   0.746   0.908
 1925HOH      O 5960   3.892   1.181   2.436
 1925HOH     H1 5961   3.957   1.230   2.386
 1925HOH     H2 5962   3.867   1.109   2.378
 1926HOH      O 5963   2.523   0.800   2.265
 1926HOH     H1 5964   2.604   0.753   2.248
 1926HOH     H2 5965   2.528   0.825   2.358
 1927HOH      O 5966   3.341   3.580   2.292
 1927HOH     H1 5967   3.420   3.527   2.287
 1927HOH     H2 5968   3.370   3.664   2.328
 1928HOH      O 5969   3.316   3.132   0.585
 1928HOH     H1 5970   3.275   3.218   0.574
 1928HOH     H2 5971   3.381   3.127   0.515
 1929HOH      O 5972   1.098   2.907   3.695
 1929HOH     H1 5973   1.151   2.923   3.617
 1929HOH     H2 5974   1.009   2.928   3.668
 1930HOH      O 5975   2.921   3.628   1.376
 1930HOH     H1 5976   2.875   3.627   1.460
 1930HOH     H2 5977   2.903   3.715   1.340
 1931HOH      O 5978   1.328   3.331   2.278
 1931HOH     H1 5979   1.372   3.264   2.226
 1931HOH     H2 5980   1.308   3.401   2.215
 1932HOH      O 5981   3.111   1.742   3.367
 1932HOH     H1 5982   3.112   1.779   3.455
 1932HOH     H2 5983   3.203   1.722   3.348
 1933HOH      O 5984   0.690   3.405   2.734
 1933HOH     H1 5985   0.654   3.322   2.765
 1933HOH     H2 5986   0.774   3.413   2.781
 1934HOH      O 5987   2.098   3.385   1.762
 1934HOH     H1 5988   2.094   3.389   1.857
 1934HOH     H2 5989   2.080   3.475   1.734
 1935HOH      O 5990   1.123   2.648   3.730
 1935HOH     H1 5991   1.133   2.743   3.734
 1935HOH     H2 5992   1.152   2.617   3.816
 1936HOH      O 5993   0.670   1.227   2.576
 1936HOH     H1 5994   0.623   1.245   2.495
 1936HOH     H2 5995   0.748   1.178   2.549
 1937HOH      O 5996   3.726   2.835   3.135
 1937HOH     H1 5997   3.635   2.810   3.154
 1937HOH     H2 5998   3.719   2.918   3.088
 1938HOH      O 5999   2.783   2.978   3.351
 1938HOH     H1 6000   2.791   2.919   3.276
 1938HOH     H2 6001   2.789   3.065   3.313
 1939HOH      O 6002   0.242   2.532   2.272
 1939HOH     H1 6003   0.194   2.463   2.227
 1939HOH     H2 6004   0.200   2.539   2.358
 1940HOH      O 6005   2.492   3.001   3.250
 1940HOH     H1 6006   2.585   3.003   3.273
 1940HOH     H2 6007   2.488   3.037   3.161
 1941HOH      O 6008   4.034   2.939   0.460
 1941HOH     H1 6009   3.949   2.898   0.475
 1941HOH     H2 6010   4.065   2.900   0.378
 1942HOH      O 6011   3.226   0.395   1.622
 1942HOH     H1 6012   3.307   0.343   1.623
 1942HOH     H2 6013   3.172   0.352   1.555
 1943HOH      O 6014   1.533   3.762   0.272
 1943HOH     H1 6015   1.492   3.754   0.185
 1943HOH     H2 6016   1.460   3.754   0.333
 1944HOH      O 6017   1.201   2.420   2.731
 1944HOH     H1 6018   1.154   2.413   2.814
 1944HOH     H2 6019   1.289   2.385   2.750
 1945HOH      O 6020   2.014   1.686   1.224
 1945HOH     H1 6021   2.083   1.627   1.253
 1945HOH     H2 6022   1.944   1.629   1.193
 1946HOH      O 6023   0.665   2.338   3.661
 1946HOH     H1 6024   0.606   2.384   3.722
 1946HOH     H2 6025   0.733   2.302   3.716
 1947HOH      O 6026   2.684   3.302   2.986
 1947HOH     H1 6027   2.602   3.251   2.991
 1947HOH     H2 6028   2.675   3.368   3.055
 1948HOH      O 6029   1.840   0.245   2.931
 1948HOH     H1 6030   1.831   0.151   2.944
 1948HOH     H2 6031   1.880   0.277   3.013
 1949HOH      O 6032   3.291   2.279   3.952
 1949HOH     H1 6033   3.261   2.261   4.041
 1949HOH     H2 6034   3.379   2.242   3.947
 1950HOH      O 6035   0.089   0.213   3.501
 1950HOH     H1 6036   0.131   0.131   3.526
 1950HOH     H2 6037   0.030   0.188   3.429
 1951HOH      O 6038   3.570   0.314   0.059
 1951HOH     H1 6039   3.540   0.390   0.011
 1951HOH     H2 6040   3.504   0.301   0.128
 1952HOH      O 6041   3.149   3.220   2.533
 1952HOH     H1 6042   3.184   3.306   2.557
 1952HOH     H2 6043   3.117   3.231   2.443
 1953HOH      O 6044   3.619   3.788   3.128
 1953HOH     H1 6045   3.562   3.831   3.191
 1953HOH     H2 6046   3.594   3.696   3.132
 1954HOH      O 6047   2.087   3.630   0.787
 1954HOH     H1 6048   2.153   3.594   0.846
 1954HOH     H2 6049   2.126   3.620   0.700
 1955HOH      O 6050   1.428   3.408   0.013
 1955HOH     H1 6051   1.503   3.353  -0.009
 1955HOH     H2 6052   1.364   3.348   0.051
 1956HOH      O 6053   1.442   2.053   0.290
 1956HOH     H1 6054   1.366   2.006   0.256
 1956HOH     H2 6055   1.470   2.002   0.366
 1957HOH      O 6056   3.760   1.520   3.650
 1957HOH     H1 6057   3.826   1.572   3.696
 1957HOH     H2 6058   3.802   1.434   3.638
 1958HOH      O 6059   0.242   2.506   1.963
 1958HOH     H1 6060   0.281   2.563   1.897
 1958HOH     H2 6061   0.301   2.510   2.038
 1959HOH      O 6062   2.349   1.639   0.463
 1959HOH     H1 6063   2.435   1.621   0.424
 1959HOH     H2 6064   2.289   1.642   0.388
 1960HOH      O 6065   3.001   1.084   1.590
 1960HOH     H1 6066   2.963   1.063   1.505
 1960HOH     H2 6067   3.053   1.007   1.612
 1961HOH      O 6068   0.517   2.551   0.845
 1961HOH     H1 6069   0.574   2.500   0.902
 1961HOH     H2 6070   0.526   2.641   0.875
 1962HOH      O 6071   0.483   1.550   2.298
 1962HOH     H1 6072   0.515   1.558   2.208
 1962HOH     H2 6073   0.549   1.593   2.351
 1963HOH      O 6074   2.970   3.266   1.508
 1963HOH     H1 6075   3.019   3.306   1.436
 1963HOH     H2 6076   3.036   3.220   1.559
 1964HOH      O 6077   1.152   0.666   3.838
 1964HOH     H1 6078   1.176   0.615   3.761
 1964HOH     H2 6079   1.233   0.670   3.890
 1965HOH      O 6080   0.024   3.660   1.494
 1965HOH     H1 6081   0.026   3.646   1.589
 1965HOH     H2 6082   0.116   3.655   1.467
 1966HOH      O 6083   2.693   2.566   1.778
 1966HOH     H1 6084   2.753   2.544   1.707
 1966HOH     H2 6085   2.718   2.507   1.849
 1967HOH      O 6086   2.218   1.504   1.333
 1967HOH     H1 6087   2.182   1.436   1.390
 1967HOH     H2 6088   2.310   1.482   1.323
 1968HOH      O 6089   1.830   0.394   1.008
 1968HOH     H1 6090   1.918   0.358   0.994
 1968HOH     H2 6091   1.830   0.477   0.962
 1969HOH      O 6092   1.466   2.573   3.824
 1969HOH     H1 6093   1.371   2.561   3.826
 1969HOH     H2 6094   1.484   2.604   3.735
 1970HOH      O 6095   2.457   3.840   3.370
 1970HOH     H1 6096   2.536   3.888   3.398
 1970HOH     H2 6097   2.432   3.789   3.446
 1971HOH      O 6098   1.580   0.031   0.309
 1971HOH     H1 6099   1.536  -0.053   0.318
 1971HOH     H2 6100   1.585   0.066   0.398
 1972HOH      O 6101   2.047   3.070   1.316
 1972HOH     H1 6102   2.123   3.035   1.363
 1972HOH     H2 6103   2.010   3.136   1.374
 1973HOH      O 6104   3.807   3.894   2.937
 1973HOH     H1 6105   3.788   3.844   3.016
 1973HOH     H2 6106   3.894   3.863   2.910
 1974HOH      O 6107   2.805   1.385   2.142
 1974HOH     H1 6108   2.752   1.305   2.141
 1974HOH     H2 6109   2.742   1.455   2.121
 1975HOH      O 6110   1.325   3.211   3.643
 1975HOH     H1 6111   1.361   3.295   3.672
 1975HOH     H2 6112   1.232   3.215   3.667
 1976HOH      O 6113   0.473   3.223   0.228
 1976HOH     H1 6114   0.438   3.179   0.306
 1976HOH     H2 6115   0.414   3.298   0.215
 1977HOH      O 6116   2.137   0.592   2.081
 1977HOH     H1 6117   2.145   0.568   1.989
 1977HOH     H2 6118   2.170   0.682   2.085
 1978HOH      O 6119   3.903   0.115   3.367
 1978HOH     H1 6120   3.831   0.053   3.356
 1978HOH     H2 6121   3.875   0.194   3.321
 1979HOH      O 6122   3.160   2.484   3.450
 1979HOH     H1 6123   3.169   2.488   3.545
 1979HOH     H2 6124   3.092   2.419   3.435
 1980HOH      O 6125   3.612   1.854   0.976
 1980HOH     H1 6126   3.518   1.845   0.994
 1980HOH     H2 6127   3.650   1.873   1.062
 1981HOH      O 6128   0.355   1.504   3.471
 1981HOH     H1 6129   0.284   1.504   3.534
 1981HOH     H2 6130   0.409   1.429   3.494
 1982HOH      O 6131   2.261   2.603   3.227
 1982HOH     H1 6132   2.220   2.517   3.225
 1982HOH     H2 6133   2.355   2.586   3.214
 1983HOH      O 6134   3.641   1.335   3.432
 1983HOH     H1 6135   3.567   1.364   3.486
 1983HOH     H2 6136   3.683   1.417   3.404
 1984HOH      O 6137   0.580   3.321   3.838
 1984HOH     H1 6138   0.670   3.332   3.807
 1984HOH     H2 6139   0.587   3.324   3.933
 1985HOH      O 6140   3.807   0.940   2.351
 1985HOH     H1 6141   3.882   0.885   2.328
 1985HOH     H2 6142   3.792   0.922   2.444
 1986HOH      O 6143   3.554   3.428   2.306
 1986HOH     H1 6144   3.548   3.359   2.240
 1986HOH     H2 6145   3.610   3.495   2.265
 1987HOH      O 6146   2.294   1.571   4.019
 1987HOH     H1 6147   2.356   1.641   4.041
 1987HOH     H2 6148   2.335   1.525   3.946
 1988HOH      O 6149   1.312   1.957   1.021
 1988HOH     H1 6150   1.295   1.934   0.929
 1988HOH     H2 6151   1.316   1.873   1.067
 1989HOH      O 6152   1.065   0.760   1.127
 1989HOH     H1 6153   1.060   0.711   1.045
 1989HOH     H2 6154   0.975   0.763   1.159
 1990HOH      O 6155   1.981   0.535   2.944
 1990HOH     H1 6156   2.022   0.451   2.965
 1990HOH     H2 6157   2.010   0.594   3.013
 1991HOH      O 6158   3.760   2.099   0.739
 1991HOH     H1 6159   3.852   2.088   0.762
 1991HOH     H2 6160   3.757   2.183   0.692
 1992HOH      O 6161   0.305   2.331   2.960
 1992HOH     H1 6162   0.350   2.266   2.906
 1992HOH     H2 6163   0.364   2.406   2.962
 1993HOH      O 6164   1.491   0.627   2.974
 1993HOH     H1 6165   1.421   0.627   3.039
 1993HOH     H2 6166   1.466   0.694   2.911
 1994HOH      O 6167   2.522   3.400   1.943
 1994HOH     H1 6168   2.483   3.332   1.888
 1994HOH     H2 6169   2.548   3.354   2.023
 1995HOH      O 6170   2.740   1.821   3.455
 1995HOH     H1 6171   2.750   1.726   3.455
 1995HOH     H2 6172   2.682   1.839   3.381
 1996HOH      O 6173   2.095   1.196   2.112
 1996HOH     H1 6174   2.078   1.242   2.030
 1996HOH     H2 6175   2.039   1.118   2.107
 1997HOH      O 6176   2.781   3.739   0.419
 1997HOH     H1 6177   2.721   3.667   0.397
 1997HOH     H2 6178   2.730   3.818   0.402
 1998HOH      O 6179   3.379   2.255   1.774
 1998HOH     H1 6180   3.468   2.231   1.747
 1998HOH     H2 6181   3.383   2.255   1.870
 1999HOH      O 6182   1.795   1.517   1.206
 1999HOH     H1 6183   1.717   1.542   1.156
 1999HOH     H2 6184   1.807   1.424   1.185
 2000HOH      O 6185   1.683   1.886   2.617
 2000HOH     H1 6186   1.725   1.968   2.594
 2000HOH     H2 6187   1.751   1.837   2.664
 2001HOH      O 6188   3.227   3.199   2.852
 2001HOH     H1 6189   3.163   3.131   2.832
 2001HOH     H2 6190   3.195   3.276   2.805
 2002HOH      O 6191   3.137   1.190   1.203
 2002HOH     H1 6192   3.102   1.147   1.125
 2002HOH     H2 6193   3.231   1.176   1.197
 2003HOH      O 6194   1.363   2.626   1.159
 2003HOH     H1 6195   1.402   2.653   1.075
 2003HOH     H2 6196   1.437   2.621   1.219
 2004HOH      O 6197   1.005   1.949   2.760
 2004HOH     H1 6198   1.029   1.938   2.668
 2004HOH     H2 6199   0.968   2.037   2.764
 2005HOH      O 6200   0.531   1.025   3.223
 2005HOH     H1 6201   0.604   0.982   3.268
 2005HOH     H2 6202   0.548   1.118   3.235
 2006HOH      O 6203   3.143   0.384   2.426
 2006HOH     H1 6204   3.202   0.356   2.497
 2006HOH     H2 6205   3.073   0.318   2.427
 2007HOH      O 6206   3.705   3.321   1.892
 2007HOH     H1 6207   3.637   3.371   1.936
 2007HOH     H2 6208   3.772   3.308   1.959
 2008HOH      O 6209   3.718   1.572   0.273
 2008HOH     H1 6210   3.800   1.590   0.320
 2008HOH     H2 6211   3.650   1.583   0.340
 2009HOH      O 6212   3.848   2.464   0.391
 2009HOH     H1 6213   3.941   2.442   0.393
 2009HOH     H2 6214   3.817   2.429   0.307
 2010HOH      O 6215   3.842   0.130   1.741
 2010HOH     H1 6216   3.866   0.056   1.797
 2010HOH     H2 6217   3.921   0.183   1.735
 2011HOH      O 6218   2.207   3.907   1.785
 2011HOH     H1 6219   2.151   3.888   1.860
 2011HOH     H2 6220   2.281   3.955   1.823
 2012HOH      O 6221   0.814   1.008   1.934
 2012HOH     H1 6222   0.905   0.984   1.916
 2012HOH     H2 6223   0.818   1.101   1.959
 2013HOH      O 6224   1.100   0.174   0.452
 2013HOH     H1 6225   1.158   0.162   0.378
 2013HOH     H2 6226   1.150   0.141   0.527
 2014HOH      O 6227   3.878   3.963   1.962
 2014HOH     H1 6228   3.948   3.898   1.949
 2014HOH     H2 6229   3.913   4.021   2.030
 2015HOH      O 6230   3.240   0.643   0.152
 2015HOH     H1 6231   3.204   0.676   0.070
 2015HOH     H2 6232   3.169   0.591   0.190
 2016HOH      O 6233   1.184   2.425   0.466
 2016HOH     H1 6234   1.270   2.394   0.436
 2016HOH     H2 6235   1.125   2.352   0.448
 2017HOH      O 6236   1.612   3.244   3.924
 2017HOH     H1 6237   1.590   3.185   3.852
 2017HOH     H2 6238   1.587   3.195   4.003
 2018HOH      O 6239   0.614   3.496   0.749
 2018HOH     H1 6240   0.549   3.430   0.724
 2018HOH     H2 6241   0.662   3.514   0.669
 2019HOH      O 6242   0.259   3.854   0.151
 2019HOH     H1 6243   0.318   3.796   0.103
 2019HOH     H2 6244   0.178   3.852   0.101
 2020HOH      O 6245   3.466   0.600   0.974
 2020HOH     H1 6246   3.418   0.528   0.933
 2020HOH     H2 6247   3.530   0.557   1.031
 2021HOH      O 6248   2.020   2.530   0.386
 2021HOH     H1 6249   1.940   2.583   0.384
 2021HOH     H2 6250   1.990   2.445   0.419
 2022HOH      O 6251   1.750   1.406   3.732
 2022HOH     H1 6252   1.822   1.351   3.702
 2022HOH     H2 6253   1.761   1.409   3.827
 2023HOH      O 6254   3.346   0.493   0.580
 2023HOH     H1 6255   3.317   0.578   0.612
 2023HOH     H2 6256   3.366   0.507   0.488
 2024HOH      O 6257   0.329   1.811   2.733
 2024HOH     H1 6258   0.335   1.828   2.639
 2024HOH     H2 6259   0.263   1.743   2.740
 2025HOH      O 6260   2.828   3.428   0.230
 2025HOH     H1 6261   2.745   3.435   0.278
 2025HOH     H2 6262   2.874   3.509   0.251
 2026HOH      O 6263   3.347   0.716   2.565
 2026HOH     H1 6264   3.282   0.697   2.498
 2026HOH     H2 6265   3.307   0.688   2.647
 2027HOH      O 6266   1.256   1.899   1.948
 2027HOH     H1 6267   1.178   1.890   2.003
 2027HOH     H2 6268   1.278   1.809   1.921
 2028HOH      O 6269   1.406   3.387   0.850
 2028HOH     H1 6270   1.395   3.344   0.935
 2028HOH     H2 6271   1.352   3.336   0.790
 2029HOH      O 6272   3.341   3.940   0.787
 2029HOH     H1 6273   3.423   3.932   0.739
 2029HOH     H2 6274   3.357   4.011   0.850
 2030HOH      O 6275   2.240   2.438   2.015
 2030HOH     H1 6276   2.232   2.380   2.091
 2030HOH     H2 6277   2.327   2.478   2.025
 2031HOH      O 6278   0.486   2.165   0.943
 2031HOH     H1 6279   0.556   2.182   1.007
 2031HOH     H2 6280   0.509   2.219   0.867
 2032HOH      O 6281   2.650   0.627   2.982
 2032HOH     H1 6282   2.681   0.582   2.903
 2032HOH     H2 6283   2.623   0.556   3.040
 2033HOH      O 6284   2.543   1.181   1.438
 2033HOH     H1 6285   2.517   1.195   1.528
 2033HOH     H2 6286   2.607   1.111   1.442
 2034HOH      O 6287   1.332   3.842   0.436
 2034HOH     H1 6288   1.239   3.817   0.430
 2034HOH     H2 6289   1.354   3.830   0.528
 2035HOH      O 6290   3.261   2.216   1.192
 2035HOH     H1 6291   3.344   2.185   1.156
 2035HOH     H2 6292   3.269   2.311   1.191
 2036HOH      O 6293   1.856   2.287   2.357
 2036HOH     H1 6294   1.897   2.347   2.295
 2036HOH     H2 6295   1.921   2.275   2.426
 2037HOH      O 6296   1.806   2.828   0.093
 2037HOH     H1 6297   1.752   2.904   0.075
 2037HOH     H2 6298   1.767   2.758   0.040
 2038HOH      O 6299   2.365   2.151   2.378
 2038HOH     H1 6300   2.285   2.170   2.426
 2038HOH     H2 6301   2.342   2.166   2.286
 2039HOH      O 6302   2.101   2.601   2.437
 2039HOH     H1 6303   2.074   2.592   2.345
 2039HOH     H2 6304   2.157   2.678   2.438
 2040HOH      O 6305   0.788   3.766   1.054
 2040HOH     H1 6306   0.825   3.747   1.140
 2040HOH     H2 6307   0.752   3.854   1.062
 2041HOH      O 6308   2.227   1.855   0.623
 2041HOH     H1 6309   2.287   1.788   0.591
 2041HOH     H2 6310   2.147   1.842   0.573
 2042HOH      O 6311   3.965   3.540   0.375
 2042HOH     H1 6312   3.942   3.627   0.407
 2042HOH     H2 6313   3.998   3.493   0.452
 2043HOH      O 6314   0.862   0.974   2.565
 2043HOH     H1 6315   0.908   1.050   2.529
 2043HOH     H2 6316   0.913   0.948   2.642
 2044HOH      O 6317   3.346   2.261   2.798
 2044HOH     H1 6318   3.371   2.181   2.843
 2044HOH     H2 6319   3.404   2.328   2.834
 2045HOH      O 6320   3.566   1.427   0.115
 2045HOH     H1 6321   3.624   1.429   0.039
 2045HOH     H2 6322   3.604   1.491   0.175
 2046HOH      O 6323   0.596   3.940   3.783
 2046HOH     H1 6324   0.680   3.963   3.823
 2046HOH     H2 6325   0.546   4.021   3.786
 2047HOH      O 6326   2.102   1.472   2.292
 2047HOH     H1 6327   2.036   1.419   2.249
 2047HOH     H2 6328   2.081   1.466   2.385
 2048HOH      O 6329   0.549   3.241   3.563
 2048HOH     H1 6330   0.464   3.277   3.537
 2048HOH     H2 6331   0.583   3.305   3.626
 2049HOH      O 6332   1.795   2.824   2.773
 2049HOH     H1 6333   1.832   2.749   2.725
 2049HOH     H2 6334   1.763   2.882   2.704
 2050HOH      O 6335   1.277   2.022   0.013
 2050HOH     H1 6336   1.189   2.000  -0.016
 2050HOH     H2 6337   1.322   1.937   0.019
 2051HOH      O 6338   1.708   2.552   3.450
 2051HOH     H1 6339   1.688   2.600   3.530
 2051HOH     H2 6340   1.804   2.552   3.445
 2052HOH      O 6341   3.857   0.698   0.896
 2052HOH     H1 6342   3.785   0.761   0.899
 2052HOH     H2 6343   3.879   0.683   0.988
 2053HOH      O 6344   0.841   2.931   2.125
 2053HOH     H1 6345   0.845   2.990   2.049
 2053HOH     H2 6346   0.929   2.893   2.131
 2054HOH      O 6347   0.713   3.743   2.458
 2054HOH     H1 6348   0.684   3.659   2.493
 2054HOH     H2 6349   0.676   3.748   2.370
 2055HOH      O 6350   2.292   0.501   2.280
 2055HOH     H1 6351   2.355   0.567   2.309
 2055HOH     H2 6352   2.242   0.544   2.211
 2056HOH      O 6353   1.376   0.340   2.371
 2056HOH     H1 6354   1.321   0.358   2.294
 2056HOH     H2 6355   1.315   0.301   2.434
 2057HOH      O 6356   2.971   3.593   2.403
 2057HOH     H1 6357   2.943   3.624   2.316
 2057HOH     H2 6358   2.910   3.521   2.423
 2058HOH      O 6359   1.839   0.322   3.193
 2058HOH     H1 6360   1.854   0.241   3.242
 2058HOH     H2 6361   1.816   0.387   3.260
 2059HOH      O 6362   2.812   3.390   1.225
 2059HOH     H1 6363   2.847   3.478   1.233
 2059HOH     H2 6364   2.878   3.334   1.266
 2060HOH      O 6365   0.970   1.312   1.241
 2060HOH     H1 6366   1.053   1.277   1.273
 2060HOH     H2 6367   0.903   1.258   1.283
 2061HOH      O 6368   2.180   3.943   1.245
 2061HOH     H1 6369   2.181   3.996   1.325
 2061HOH     H2 6370   2.268   3.909   1.237
 2062HOH      O 6371   2.903   3.764   2.830
 2062HOH     H1 6372   2.897   3.791   2.922
 2062HOH     H2 6373   2.875   3.672   2.831
 2063HOH      O 6374   1.563   0.542   2.105
 2063HOH     H1 6375   1.533   0.490   2.031
 2063HOH     H2 6376   1.615   0.481   2.158
 2064HOH      O 6377   1.192   0.032   2.859
 2064HOH     H1 6378   1.284   0.054   2.869
 2064HOH     H2 6379   1.189  -0.063   2.859
 2065HOH      O 6380   1.147   2.400   3.669
 2065HOH     H1 6381   1.213   2.408   3.600
 2065HOH     H2 6382   1.130   2.490   3.697
 2066HOH      O 6383   3.158   2.942   3.298
 2066HOH     H1 6384   3.094   2.962   3.230
 2066HOH     H2 6385   3.197   2.859   3.270
 2067HOH      O 6386   1.778   3.511   2.152
 2067HOH     H1 6387   1.781   3.430   2.101
 2067HOH     H2 6388   1.690   3.513   2.189
 2068HOH      O 6389   1.054   3.779   3.614
 2068HOH     H1 6390   1.055   3.684   3.631
 2068HOH     H2 6391   1.051   3.786   3.518
 2069HOH      O 6392   1.760   0.660   2.761
 2069HOH     H1 6393   1.673   0.678   2.726
 2069HOH     H2 6394   1.757   0.567   2.785
 2070HOH      O 6395   3.142   1.948   2.815
 2070HOH     H1 6396   3.120   1.960   2.907
 2070HOH     H2 6397   3.228   1.905   2.816
 2071HOH      O 6398   1.332   1.746   4.020
 2071HOH     H1 6399   1.349   1.658   3.987
 2071HOH     H2 6400   1.237   1.756   4.012
 2072HOH      O 6401   0.973   2.021   2.168
 2072HOH     H1 6402   0.894   1.997   2.215
 2072HOH     H2 6403   0.984   2.115   2.184
 2073HOH      O 6404   0.266   0.760   2.810
 2073HOH     H1 6405   0.339   0.754   2.748
 2073HOH     H2 6406   0.301   0.723   2.891
 2074HOH      O 6407   1.739   3.569   0.001
 2074HOH     H1 6408   1.719   3.562   0.095
 2074HOH     H2 6409   1.780   3.655  -0.008
 2075HOH      O 6410   0.533   3.994   2.076
 2075HOH     H1 6411   0.480   3.968   2.001
 2075HOH     H2 6412   0.550   4.087   2.063
 2076HOH      O 6413   2.596   0.251   1.072
 2076HOH     H1 6414   2.572   0.159   1.064
 2076HOH     H2 6415   2.692   0.250   1.081
 2077HOH      O 6416   1.866   0.248   2.606
 2077HOH     H1 6417   1.786   0.264   2.556
 2077HOH     H2 6418   1.916   0.330   2.598
 2078HOH      O 6419   2.763   2.578   0.076
 2078HOH     H1 6420   2.700   2.651   0.075
 2078HOH     H2 6421   2.781   2.565   0.169
 2079HOH      O 6422   0.725   1.019   1.651
 2079HOH     H1 6423   0.687   0.936   1.624
 2079HOH     H2 6424   0.768   1.001   1.734
 2080HOH      O 6425   1.265   0.527   0.542
 2080HOH     H1 6426   1.194   0.575   0.498
 2080HOH     H2 6427   1.331   0.515   0.474
 2081HOH      O 6428   0.281   2.900   1.238
 2081HOH     H1 6429   0.219   2.972   1.251
 2081HOH     H2 6430   0.366   2.944   1.228
 2082HOH      O 6431   3.514   0.193   2.183
 2082HOH     H1 6432   3.540   0.270   2.234
 2082HOH     H2 6433   3.569   0.195   2.105
 2083HOH      O 6434   2.499   2.762   3.943
 2083HOH     H1 6435   2.506   2.749   3.849
 2083HOH     H2 6436   2.464   2.851   3.953
 2084HOH      O 6437   3.211   3.712   4.016
 2084HOH     H1 6438   3.203   3.639   4.077
 2084HOH     H2 6439   3.286   3.689   3.961
 2085HOH      O 6440   0.677   2.208   1.658
 2085HOH     H1 6441   0.677   2.113   1.648
 2085HOH     H2 6442   0.770   2.232   1.658
 2086HOH      O 6443   2.982   1.622   1.975
 2086HOH     H1 6444   2.957   1.714   1.962
 2086HOH     H2 6445   2.899   1.576   1.980
 2087HOH      O 6446   2.665   2.629   2.771
 2087HOH     H1 6447   2.711   2.615   2.854
 2087HOH     H2 6448   2.688   2.719   2.747
 2088HOH      O 6449   3.362   2.718   0.499
 2088HOH     H1 6450   3.417   2.786   0.538
 2088HOH     H2 6451   3.410   2.637   0.515
 2089HOH      O 6452   3.057   1.454   1.311
 2089HOH     H1 6453   2.963   1.465   1.292
 2089HOH     H2 6454   3.070   1.360   1.314
 2090HOH      O 6455   2.426   2.432   3.610
 2090HOH     H1 6456   2.464   2.350   3.640
 2090HOH     H2 6457   2.341   2.406   3.574
 2091HOH      O 6458   0.774   1.350   2.809
 2091HOH     H1 6459   0.796   1.261   2.838
 2091HOH     H2 6460   0.741   1.338   2.719
 2092HOH      O 6461   1.799   1.150   2.237
 2092HOH     H1 6462   1.723   1.097   2.259
 2092HOH     H2 6463   1.849   1.096   2.176
 2093HOH      O 6464   3.694   1.241   1.244
 2093HOH     H1 6465   3.618   1.295   1.225
 2093HOH     H2 6466   3.747   1.293   1.304
 2094HOH      O 6467   3.330   3.860   2.722
 2094HOH     H1 6468   3.307   3.777   2.679
 2094HOH     H2 6469   3.425   3.855   2.734
 2095HOH      O 6470   1.269   0.441   0.118
 2095HOH     H1 6471   1.189   0.488   0.143
 2095HOH     H2 6472   1.324   0.444   0.196
 2096HOH      O 6473   1.261   4.030   0.252
 2096HOH     H1 6474   1.285   3.972   0.324
 2096HOH     H2 6475   1.343   4.048   0.207
 2097HOH      O 6476   1.047   3.550   1.706
 2097HOH     H1 6477   0.977   3.588   1.759
 2097HOH     H2 6478   1.048   3.603   1.626
 2098HOH      O 6479   1.445   0.421   0.331
 2098HOH     H1 6480   1.535   0.414   0.300
 2098HOH     H2 6481   1.431   0.339   0.380
 2099HOH      O 6482   3.035   0.208   3.810
 2099HOH     H1 6483   2.993   0.135   3.855
 2099HOH     H2 6484   3.028   0.187   3.717
 2100HOH      O 6485   2.306   0.036   1.986
 2100HOH     H1 6486   2.224  -0.005   2.014
 2100HOH     H2 6487   2.293   0.129   2.002
 2101HOH      O 6488  -0.022   0.780   2.205
 2101HOH     H1 6489   0.048   0.777   2.270
 2101HOH     H2 6490   0.022   0.777   2.121
 2102HOH      O 6491   3.536   0.017   2.451
 2102HOH     H1 6492   3.538   0.107   2.483
 2102HOH     H2 6493   3.598  -0.030   2.507
 2103HOH      O 6494   3.118   3.299   3.724
 2103HOH     H1 6495   3.069   3.239   3.669
 2103HOH     H2 6496   3.051   3.351   3.768
 2104HOH      O 6497   0.562   0.245   0.708
 2104HOH     H1 6498   0.571   0.262   0.614
 2104HOH     H2 6499   0.473   0.214   0.718
 2105HOH      O 6500   2.562   1.247   2.959
 2105HOH     H1 6501   2.543   1.154   2.958
 2105HOH     H2 6502   2.623   1.259   3.032
 2106HOH      O 6503   2.814   3.138   0.599
 2106HOH     H1 6504   2.835   3.223   0.639
 2106HOH     H2 6505   2.749   3.099   0.659
 2107HOH      O 6506   1.075   1.169   2.785
 2107HOH     H1 6507   1.038   1.196   2.869
 2107HOH     H2 6508   1.139   1.237   2.764
 2108HOH      O 6509   3.654   1.552   1.471
 2108HOH     H1 6510   3.668   1.603   1.550
 2108HOH     H2 6511   3.640   1.617   1.402
 2109HOH      O 6512   2.540   3.463   2.717
 2109HOH     H1 6513   2.548   3.547   2.760
 2109HOH     H2 6514   2.630   3.436   2.699
 2110HOH      O 6515   1.655   0.389   2.774
 2110HOH     H1 6516   1.575   0.392   2.827
 2110HOH     H2 6517   1.716   0.336   2.825
 2111HOH      O 6518   0.196   1.763   1.720
 2111HOH     H1 6519   0.257   1.695   1.692
 2111HOH     H2 6520   0.229   1.792   1.805
   4.02731   4.02731   4.02731   0.00000   0.00000   0.00000   0.00000   0.00000   0.00000
