Generated with MDTraj, t= 29145.0
 6520
    1MOL     C1    1   0.429   1.220   3.770
    1MOL     C2    2   0.506   1.117   3.705
    1MOL     C3    3   0.643   1.120   3.718
    1MOL     C4    4   0.709   1.226   3.783
    1MOL     C5    5   0.636   1.326   3.843
    1MOL     C6    6   0.496   1.320   3.844
    1MOL     C7    7   0.717   1.009   3.656
    1MOL     N1    8   0.781   0.923   3.611
    1MOL     C8    9   0.425   1.439   3.913
    1MOL     O1   10   0.483   1.511   3.987
    1MOL     O2   11   0.312   1.472   3.876
    1MOL     H1   12   0.320   1.217   3.774
    1MOL     H2   13   0.454   1.040   3.648
    1MOL     H3   14   0.818   1.231   3.778
    1MOL     H4   15   0.678   1.416   3.887
    2OCB     C1   16   1.134   0.036   3.966
    2OCB     C2   17   0.941  -0.007   3.766
    2OCB     C3   18   1.176  -0.011   3.843
    2OCB     C4   19   0.998   0.067   3.988
    2OCB     C5   20   0.906   0.058   3.885
    2OCB     C6   21   1.081  -0.037   3.744
    2OCB     O1   22   0.843   0.006   3.672
    2OCB     C7   23   1.116  -0.082   3.604
    2OCB     C8   24   0.852   0.123   3.586
    2OCB     O2   25   0.930   0.100   3.466
    2OCB     C9   26   1.067   0.123   3.458
    2OCB    C10   27   1.155   0.044   3.527
    2OCB    C11   28   1.289   0.089   3.523
    2OCB    C12   29   1.109   0.239   3.386
    2OCB    C13   30   1.330   0.204   3.454
    2OCB    C14   31   1.234   0.282   3.394
    2OCB     O3   32   1.259   0.404   3.335
    2OCB    C15   33   1.475   0.247   3.446
    2OCB    C16   34   1.519   0.346   3.552
    2OCB    C17   35   1.490   0.480   3.530
    2OCB    C18   36   1.291   0.515   3.417
    2OCB     O4   37   1.431   0.531   3.412
    2OCB     O5   38   0.956   0.126   4.105
    2OCB    C19   39   1.224   0.043   4.084
    2OCB    C20   40   1.285   0.181   4.084
    2OCB     O6   41   1.099   0.273   4.215
    2OCB    C21   42   1.232   0.279   4.168
    2OCB    C22   43   1.513   0.577   3.631
    2OCB    C23   44   1.545   0.535   3.759
    2OCB    C24   45   1.286   0.406   4.155
    2OCB    C25   46   1.399   0.433   4.082
    2OCB     O7   47   1.537   0.625   3.866
    2OCB     O8   48   1.440   0.559   4.076
    2OCB    C26   49   1.418   0.633   3.951
    2OCB    C27   50   1.399   0.206   4.010
    2OCB    C28   51   1.465   0.327   4.008
    2OCB    C29   52   1.550   0.310   3.680
    2OCB    C30   53   1.586   0.348   3.929
    2OCB    C31   54   1.558   0.398   3.785
    2OCB    C32   55   0.996   0.267   4.115
    2OCB    C33   56   1.574   0.128   3.418
    2OCB    C34   57   1.704   0.180   3.357
    2OCB    C35   58   1.816   0.071   3.368
    2OCB     O9   59   1.906   0.091   3.447
    2OCB    C36   60   1.226  -0.195   3.589
    2OCB    C37   61   1.163  -0.322   3.653
    2OCB    C38   62   1.236  -0.446   3.630
    2OCB    O10   63   1.345  -0.465   3.680
    2OCB    C39   64   1.327  -0.076   4.094
    2OCB    C40   65   1.254  -0.208   4.089
    2OCB    C41   66   1.335  -0.336   4.131
    2OCB    O11   67   1.319  -0.379   4.247
    2OCB    C42   68   1.706   0.249   3.956
    2OCB    C43   69   1.837   0.292   3.888
    2OCB    C44   70   1.956   0.194   3.914
    2OCB    O12   71   2.043   0.216   3.997
    2OCB    C45   72   0.719   0.188   3.560
    2OCB    C46   73   0.486   0.325   3.527
    2OCB    C47   74   0.711   0.283   3.456
    2OCB    C48   75   0.613   0.162   3.645
    2OCB    C49   76   0.495   0.231   3.634
    2OCB    C50   77   0.588   0.346   3.435
    2OCB    C51   78   0.882   0.356   4.152
    2OCB    C52   79   0.663   0.511   4.244
    2OCB    C53   80   0.897   0.478   4.210
    2OCB    C54   81   0.749   0.316   4.133
    2OCB    C55   82   0.638   0.392   4.182
    2OCB    C56   83   0.793   0.556   4.268
    2OCB    C57   84   1.387   0.775   3.985
    2OCB    C58   85   1.277   1.029   4.034
    2OCB    C59   86   1.392   0.871   3.890
    2OCB    C60   87   1.323   0.804   4.099
    2OCB    C61   88   1.268   0.928   4.127
    2OCB    C62   89   1.335   0.999   3.907
    2OCB    C63   90   1.223   0.638   3.357
    2OCB    C64   91   1.102   0.868   3.253
    2OCB    C65   92   1.277   0.766   3.383
    2OCB    C66   93   1.111   0.625   3.280
    2OCB    C67   94   1.051   0.744   3.230
    2OCB    C68   95   1.220   0.881   3.328
    2OCB    O13   96   0.503   0.361   4.163
    2OCB    O14   97   1.205   0.953   4.245
    2OCB    O15   98   1.347   1.100   3.811
    2OCB    O16   99   0.391   0.203   3.714
    2OCB    O17  100   0.574   0.444   3.339
    2OCB    O18  101   1.269   1.006   3.358
    2OCB    O19  102   0.925   0.738   3.180
    2OCB    C69  103   1.120   0.880   4.327
    2OCB    C70  104   0.967   0.717   4.498
    2OCB    C71  105   1.000   0.813   4.278
    2OCB    C72  106   1.156   0.862   4.458
    2OCB    C73  107   1.083   0.777   4.545
    2OCB    C74  108   0.933   0.722   4.361
    2OCB    O20  109   0.806   0.676   4.332
    2OCB    C75  110   0.409   0.187   3.855
    2OCB    C76  111   0.425   0.143   4.124
    2OCB    C77  112   0.375   0.065   3.905
    2OCB    C78  113   0.449   0.296   3.938
    2OCB    C79  114   0.464   0.270   4.073
    2OCB    C80  115   0.381   0.040   4.039
    2OCB    C81  116   1.401   1.080   3.687
    2OCB    C82  117   1.494   1.060   3.430
    2OCB    C83  118   1.532   1.094   3.665
    2OCB    C84  119   1.310   1.047   3.582
    2OCB    C85  120   1.358   1.032   3.456
    2OCB    C86  121   1.584   1.092   3.536
    2OCB    C87  122   1.729   1.129   3.513
    2OCB    O21  123   1.769   1.149   3.404
    2OCB    C88  124   0.830   0.337   2.929
    2OCB    O22  125   0.759   0.240   2.904
    2OCB    C89  126   0.337  -0.091   4.094
    2OCB    O23  127   0.359  -0.113   4.210
    2OCB    O24  128   1.814  -0.034   3.308
    2OCB    O25  129   1.947   0.088   3.859
    2OCB    O26  130   1.405  -0.392   4.053
    2OCB    C90  131   1.128   0.768   4.687
    2OCB    O27  132   1.047   0.738   4.771
    2OCB    O28  133   0.922   0.357   2.849
    2OCB    O29  134   1.807   1.142   3.606
    2OCB    O30  135   1.240   0.807   4.716
    2OCB    O31  136   0.259  -0.167   4.044
    2OCB    O32  137   1.200  -0.525   3.543
    2OCB    C91  138   0.673   0.482   3.245
    2OCB    C92  139   0.872   0.539   3.062
    2OCB    C93  140   0.756   0.592   3.268
    2OCB    C94  141   0.697   0.391   3.137
    2OCB    C95  142   0.797   0.425   3.043
    2OCB    C96  143   0.853   0.622   3.170
    2OCB    C97  144   0.736   0.673   3.391
    2OCB    C98  145   0.501   0.425   3.874
    2OCB    C99  146   0.943   0.833   4.142
    2OCB      C  147   1.165   1.019   3.609
    2OCB     H1  148   1.280  -0.033   3.818
    2OCB     H2  149   0.804   0.092   3.901
    2OCB     H3  150   1.020  -0.120   3.568
    2OCB     H4  151   0.906   0.202   3.641
    2OCB     H5  152   1.363   0.034   3.580
    2OCB     H6  153   1.034   0.293   3.329
    2OCB     H7  154   1.479   0.303   3.352
    2OCB     H8  155   1.248   0.507   3.518
    2OCB     H9  156   1.164   0.035   4.175
    2OCB    H10  157   1.485   0.679   3.608
    2OCB    H11  158   1.243   0.494   4.202
    2OCB    H12  159   1.333   0.587   3.898
    2OCB    H13  160   1.438   0.121   3.956
    2OCB    H14  161   1.555   0.204   3.705
    2OCB    H15  162   1.630   0.435   3.977
    2OCB    H16  163   1.039   0.300   4.019
    2OCB    H17  164   1.591   0.083   3.516
    2OCB    H18  165   1.529   0.061   3.345
    2OCB    H19  166   1.683   0.194   3.250
    2OCB    H20  167   1.740   0.276   3.395
    2OCB    H21  168   1.311  -0.170   3.654
    2OCB    H22  169   1.261  -0.207   3.487
    2OCB    H23  170   1.161  -0.307   3.761
    2OCB    H24  171   1.057  -0.328   3.627
    2OCB    H25  172   1.404  -0.066   4.017
    2OCB    H26  173   1.377  -0.061   4.190
    2OCB    H27  174   1.164  -0.212   4.150
    2OCB    H28  175   1.219  -0.221   3.987
    2OCB    H29  176   1.727   0.241   4.062
    2OCB    H30  177   1.675   0.155   3.909
    2OCB    H31  178   1.832   0.306   3.780
    2OCB    H32  179   1.863   0.391   3.928
    2OCB    H33  180   0.391   0.377   3.531
    2OCB    H34  181   0.795   0.295   3.388
    2OCB    H35  182   0.619   0.085   3.722
    2OCB    H36  183   0.582   0.568   4.288
    2OCB    H37  184   0.999   0.511   4.229
    2OCB    H38  185   0.721   0.216   4.101
    2OCB    H39  186   1.235   1.129   4.046
    2OCB    H40  187   1.435   0.844   3.794
    2OCB    H41  188   1.317   0.731   4.179
    2OCB    H42  189   1.053   0.954   3.208
    2OCB    H43  190   1.364   0.775   3.446
    2OCB    H44  191   1.065   0.527   3.273
    2OCB    H45  192   0.907   0.661   4.570
    2OCB    H46  193   1.256   0.889   4.490
    2OCB    H47  194   0.417   0.122   4.230
    2OCB    H48  195   0.347  -0.021   3.844
    2OCB    H49  196   1.526   1.051   3.327
    2OCB    H50  197   1.600   1.115   3.748
    2OCB    H51  198   0.948   0.569   2.990
    2OCB    H52  199   0.637   0.301   3.127
    2OCB    H53  200   0.802   0.758   3.406
    2OCB    H54  201   0.645   0.733   3.385
    2OCB    H55  202   0.754   0.614   3.481
    2OCB    H56  203   0.532   0.506   3.940
    2OCB    H57  204   0.587   0.404   3.809
    2OCB    H58  205   0.428   0.471   3.807
    2OCB    H59  206   0.834   0.845   4.141
    2OCB    H60  207   0.988   0.924   4.102
    2OCB    H61  208   0.977   0.750   4.079
    2OCB    H62  209   1.102   0.999   3.522
    2OCB    H63  210   1.174   0.930   3.672
    2OCB    H64  211   1.121   1.097   3.673
    3Na+    Na+  212   1.488   0.181   0.903
    4Na+    Na+  213   0.287   3.698   0.176
    5Na+    Na+  214   2.869   2.430   0.484
    6Na+    Na+  215   2.327   1.597   3.300
    7Na+    Na+  216   2.017   3.928   3.356
    8Na+    Na+  217   1.124   2.999   2.160
    9Na+    Na+  218   1.715   3.784   3.318
   10Na+    Na+  219   0.856   0.182   2.709
   11Na+    Na+  220   3.708   2.312   1.649
   12HOH      O  221   1.516   0.437   2.251
   12HOH     H1  222   1.497   0.399   2.165
   12HOH     H2  223   1.449   0.505   2.262
   13HOH      O  224   2.234   3.943   0.782
   13HOH     H1  225   2.194   3.957   0.868
   13HOH     H2  226   2.160   3.945   0.721
   14HOH      O  227   0.460   1.137   0.473
   14HOH     H1  228   0.553   1.112   0.480
   14HOH     H2  229   0.459   1.231   0.491
   15HOH      O  230   1.460   0.602   2.721
   15HOH     H1  231   1.528   0.642   2.667
   15HOH     H2  232   1.467   0.508   2.704
   16HOH      O  233   2.792   3.937   2.852
   16HOH     H1  234   2.698   3.954   2.855
   16HOH     H2  235   2.803   3.869   2.785
   17HOH      O  236   3.509   2.411   1.537
   17HOH     H1  237   3.500   2.342   1.472
   17HOH     H2  238   3.453   2.482   1.505
   18HOH      O  239   1.498   1.897   0.434
   18HOH     H1  240   1.539   1.901   0.348
   18HOH     H2  241   1.555   1.950   0.490
   19HOH      O  242   1.173   2.146   1.614
   19HOH     H1  243   1.200   2.137   1.522
   19HOH     H2  244   1.123   2.066   1.632
   20HOH      O  245   1.311   0.636   2.316
   20HOH     H1  246   1.321   0.684   2.398
   20HOH     H2  247   1.225   0.595   2.323
   21HOH      O  248   2.589   3.599   3.500
   21HOH     H1  249   2.576   3.643   3.417
   21HOH     H2  250   2.545   3.654   3.564
   22HOH      O  251   0.741   3.135   0.610
   22HOH     H1  252   0.781   3.073   0.671
   22HOH     H2  253   0.727   3.085   0.530
   23HOH      O  254   3.704   2.272   0.349
   23HOH     H1  255   3.725   2.179   0.358
   23HOH     H2  256   3.787   2.317   0.366
   24HOH      O  257   2.957   2.076   0.086
   24HOH     H1  258   2.992   2.078   0.175
   24HOH     H2  259   3.007   2.143   0.039
   25HOH      O  260   2.466   0.796   1.218
   25HOH     H1  261   2.543   0.760   1.173
   25HOH     H2  262   2.501   0.836   1.297
   26HOH      O  263   0.377   2.901   3.594
   26HOH     H1  264   0.426   2.951   3.660
   26HOH     H2  265   0.395   2.809   3.616
   27HOH      O  266   0.249   1.358   3.271
   27HOH     H1  267   0.306   1.322   3.203
   27HOH     H2  268   0.173   1.391   3.224
   28HOH      O  269   1.133   0.311   2.031
   28HOH     H1  270   1.119   0.217   2.022
   28HOH     H2  271   1.047   0.350   2.014
   29HOH      O  272   0.245   1.623   3.367
   29HOH     H1  273   0.277   1.533   3.362
   29HOH     H2  274   0.159   1.617   3.408
   30HOH      O  275   2.532   1.409   0.989
   30HOH     H1  276   2.625   1.402   1.007
   30HOH     H2  277   2.496   1.460   1.062
   31HOH      O  278   1.629   0.649   0.738
   31HOH     H1  279   1.553   0.663   0.680
   31HOH     H2  280   1.625   0.722   0.799
   32HOH      O  281   0.453   3.582   0.063
   32HOH     H1  282   0.488   3.614  -0.021
   32HOH     H2  283   0.530   3.572   0.118
   33HOH      O  284   3.750   0.610   2.545
   33HOH     H1  285   3.804   0.630   2.622
   33HOH     H2  286   3.752   0.515   2.539
   34HOH      O  287   1.732   0.565   3.353
   34HOH     H1  288   1.640   0.579   3.374
   34HOH     H2  289   1.772   0.536   3.435
   35HOH      O  290   2.259   1.717   3.082
   35HOH     H1  291   2.238   1.789   3.022
   35HOH     H2  292   2.272   1.642   3.025
   36HOH      O  293   2.345   1.780   3.718
   36HOH     H1  294   2.291   1.705   3.694
   36HOH     H2  295   2.391   1.752   3.797
   37HOH      O  296   3.230   0.486   0.372
   37HOH     H1  297   3.283   0.410   0.395
   37HOH     H2  298   3.209   0.527   0.455
   38HOH      O  299   1.214   3.969   3.214
   38HOH     H1  300   1.122   3.943   3.214
   38HOH     H2  301   1.217   4.043   3.275
   39HOH      O  302   2.087   1.002   0.979
   39HOH     H1  303   2.086   0.923   1.032
   39HOH     H2  304   2.147   1.061   1.025
   40HOH      O  305   2.708   2.757   1.845
   40HOH     H1  306   2.715   2.677   1.898
   40HOH     H2  307   2.792   2.762   1.799
   41HOH      O  308   0.120   2.746   1.710
   41HOH     H1  309   0.036   2.729   1.752
   41HOH     H2  310   0.148   2.661   1.678
   42HOH      O  311   3.027   0.723   3.519
   42HOH     H1  312   2.984   0.771   3.590
   42HOH     H2  313   3.095   0.782   3.488
   43HOH      O  314   2.292   1.179   1.066
   43HOH     H1  315   2.288   1.232   0.986
   43HOH     H2  316   2.385   1.156   1.074
   44HOH      O  317   1.488   3.807   3.356
   44HOH     H1  318   1.440   3.725   3.365
   44HOH     H2  319   1.425   3.867   3.317
   45HOH      O  320   2.307   1.248   3.612
   45HOH     H1  321   2.361   1.170   3.619
   45HOH     H2  322   2.221   1.216   3.583
   46HOH      O  323   2.115   3.325   3.130
   46HOH     H1  324   2.056   3.301   3.202
   46HOH     H2  325   2.184   3.259   3.133
   47HOH      O  326   1.549   1.813   1.367
   47HOH     H1  327   1.641   1.801   1.343
   47HOH     H2  328   1.504   1.739   1.327
   48HOH      O  329   2.690   1.867   3.781
   48HOH     H1  330   2.666   1.789   3.830
   48HOH     H2  331   2.667   1.846   3.690
   49HOH      O  332   3.564   0.833   2.889
   49HOH     H1  333   3.616   0.826   2.810
   49HOH     H2  334   3.609   0.777   2.953
   50HOH      O  335   0.413   2.316   2.375
   50HOH     H1  336   0.486   2.350   2.427
   50HOH     H2  337   0.446   2.233   2.340
   51HOH      O  338   1.014   1.722   1.634
   51HOH     H1  339   1.070   1.726   1.556
   51HOH     H2  340   1.035   1.802   1.683
   52HOH      O  341   1.856   3.169   2.105
   52HOH     H1  342   1.845   3.263   2.088
   52HOH     H2  343   1.831   3.159   2.197
   53HOH      O  344   1.345   2.312   3.117
   53HOH     H1  345   1.296   2.229   3.121
   53HOH     H2  346   1.333   2.351   3.203
   54HOH      O  347   3.229   1.852   1.202
   54HOH     H1  348   3.214   1.852   1.296
   54HOH     H2  349   3.237   1.944   1.178
   55HOH      O  350   3.304   2.901   1.562
   55HOH     H1  351   3.384   2.948   1.585
   55HOH     H2  352   3.258   2.961   1.503
   56HOH      O  353   3.233   2.688   1.735
   56HOH     H1  354   3.251   2.769   1.688
   56HOH     H2  355   3.198   2.629   1.669
   57HOH      O  356   1.727   1.341   2.771
   57HOH     H1  357   1.739   1.421   2.822
   57HOH     H2  358   1.809   1.329   2.725
   58HOH      O  359   0.256   1.203   1.343
   58HOH     H1  360   0.203   1.138   1.390
   58HOH     H2  361   0.314   1.151   1.287
   59HOH      O  362   3.686   1.933   3.057
   59HOH     H1  363   3.747   1.895   2.993
   59HOH     H2  364   3.718   1.903   3.142
   60HOH      O  365   1.574   0.974   1.429
   60HOH     H1  366   1.582   1.059   1.385
   60HOH     H2  367   1.583   0.909   1.360
   61HOH      O  368   0.955   2.679   1.865
   61HOH     H1  369   0.957   2.734   1.943
   61HOH     H2  370   1.047   2.668   1.841
   62HOH      O  371   2.594   1.713   2.750
   62HOH     H1  372   2.572   1.693   2.659
   62HOH     H2  373   2.602   1.809   2.752
   63HOH      O  374   2.072   2.057   1.415
   63HOH     H1  375   2.012   2.116   1.369
   63HOH     H2  376   2.128   2.021   1.346
   64HOH      O  377   2.569   1.070   2.016
   64HOH     H1  378   2.619   1.063   1.935
   64HOH     H2  379   2.570   0.981   2.052
   65HOH      O  380   3.473   2.849   3.212
   65HOH     H1  381   3.488   2.786   3.141
   65HOH     H2  382   3.466   2.934   3.167
   66HOH      O  383   0.086   3.737   2.148
   66HOH     H1  384   0.071   3.814   2.093
   66HOH     H2  385   0.095   3.773   2.237
   67HOH      O  386   0.683   2.914   3.668
   67HOH     H1  387   0.638   2.844   3.714
   67HOH     H2  388   0.744   2.870   3.609
   68HOH      O  389   0.171   3.782   2.467
   68HOH     H1  390   0.107   3.792   2.537
   68HOH     H2  391   0.197   3.871   2.444
   69HOH      O  392   3.449   2.894   2.436
   69HOH     H1  393   3.446   2.802   2.464
   69HOH     H2  394   3.438   2.944   2.517
   70HOH      O  395   3.324   1.684   2.469
   70HOH     H1  396   3.350   1.769   2.432
   70HOH     H2  397   3.407   1.638   2.481
   71HOH      O  398   0.778   1.678   2.944
   71HOH     H1  399   0.759   1.770   2.925
   71HOH     H2  400   0.736   1.662   3.029
   72HOH      O  401   3.671   2.743   3.731
   72HOH     H1  402   3.720   2.820   3.704
   72HOH     H2  403   3.676   2.744   3.827
   73HOH      O  404   2.066   0.822   0.245
   73HOH     H1  405   2.158   0.844   0.232
   73HOH     H2  406   2.020   0.905   0.232
   74HOH      O  407   2.250   2.738   3.056
   74HOH     H1  408   2.245   2.828   3.024
   74HOH     H2  409   2.275   2.687   2.979
   75HOH      O  410   0.800   0.547   1.409
   75HOH     H1  411   0.835   0.497   1.335
   75HOH     H2  412   0.773   0.481   1.472
   76HOH      O  413   1.511   1.806   2.070
   76HOH     H1  414   1.590   1.784   2.119
   76HOH     H2  415   1.516   1.751   1.991
   77HOH      O  416   2.441   3.830   1.739
   77HOH     H1  417   2.508   3.894   1.715
   77HOH     H2  418   2.407   3.863   1.823
   78HOH      O  419   3.799   3.952   0.483
   78HOH     H1  420   3.730   3.924   0.542
   78HOH     H2  421   3.864   3.882   0.487
   79HOH      O  422   2.939   3.207   2.822
   79HOH     H1  423   2.903   3.133   2.870
   79HOH     H2  424   2.914   3.191   2.731
   80HOH      O  425   1.976   3.520   3.550
   80HOH     H1  426   2.038   3.513   3.622
   80HOH     H2  427   1.890   3.511   3.591
   81HOH      O  428   1.823   0.462   1.685
   81HOH     H1  429   1.876   0.536   1.714
   81HOH     H2  430   1.864   0.385   1.725
   82HOH      O  431   0.180   3.985   0.717
   82HOH     H1  432   0.139   3.989   0.803
   82HOH     H2  433   0.274   3.993   0.735
   83HOH      O  434   3.611   0.118   2.454
   83HOH     H1  435   3.546   0.047   2.460
   83HOH     H2  436   3.621   0.131   2.359
   84HOH      O  437   0.855   2.701   1.402
   84HOH     H1  438   0.948   2.714   1.419
   84HOH     H2  439   0.811   2.732   1.481
   85HOH      O  440   1.828   1.615   3.756
   85HOH     H1  441   1.810   1.521   3.758
   85HOH     H2  442   1.875   1.628   3.673
   86HOH      O  443   1.178   1.572   2.803
   86HOH     H1  444   1.094   1.534   2.828
   86HOH     H2  445   1.243   1.508   2.832
   87HOH      O  446   1.587   3.500   1.731
   87HOH     H1  447   1.586   3.405   1.746
   87HOH     H2  448   1.501   3.529   1.761
   88HOH      O  449   2.257   2.411   1.785
   88HOH     H1  450   2.330   2.351   1.800
   88HOH     H2  451   2.237   2.401   1.692
   89HOH      O  452   1.407   1.411   1.042
   89HOH     H1  453   1.328   1.436   0.994
   89HOH     H2  454   1.415   1.317   1.027
   90HOH      O  455   3.806   2.019   0.863
   90HOH     H1  456   3.714   1.997   0.873
   90HOH     H2  457   3.853   1.938   0.884
   91HOH      O  458   3.006   1.443   1.947
   91HOH     H1  459   3.091   1.401   1.933
   91HOH     H2  460   3.004   1.461   2.041
   92HOH      O  461   3.610   2.875   1.227
   92HOH     H1  462   3.600   2.936   1.154
   92HOH     H2  463   3.690   2.903   1.271
   93HOH      O  464   0.590   3.879   2.627
   93HOH     H1  465   0.525   3.948   2.641
   93HOH     H2  466   0.550   3.802   2.668
   94HOH      O  467   1.283   3.902   2.051
   94HOH     H1  468   1.245   3.820   2.019
   94HOH     H2  469   1.210   3.964   2.050
   95HOH      O  470   1.837   1.832   1.327
   95HOH     H1  471   1.826   1.870   1.239
   95HOH     H2  472   1.906   1.885   1.367
   96HOH      O  473   0.641   1.425   0.222
   96HOH     H1  474   0.574   1.421   0.154
   96HOH     H2  475   0.627   1.510   0.263
   97HOH      O  476   3.011   0.815   1.068
   97HOH     H1  477   3.041   0.747   1.129
   97HOH     H2  478   2.971   0.766   0.996
   98HOH      O  479   3.349   3.887   2.813
   98HOH     H1  480   3.290   3.960   2.795
   98HOH     H2  481   3.349   3.878   2.908
   99HOH      O  482   1.425   3.191   2.434
   99HOH     H1  483   1.381   3.175   2.350
   99HOH     H2  484   1.510   3.227   2.411
  100HOH      O  485   3.789   2.987   3.722
  100HOH     H1  486   3.828   3.075   3.718
  100HOH     H2  487   3.737   2.988   3.802
  101HOH      O  488   1.978   0.831   2.027
  101HOH     H1  489   1.928   0.803   2.104
  101HOH     H2  490   1.916   0.823   1.954
  102HOH      O  491   2.401   3.538   2.355
  102HOH     H1  492   2.420   3.535   2.261
  102HOH     H2  493   2.336   3.607   2.364
  103HOH      O  494   1.204   1.917   1.775
  103HOH     H1  495   1.277   1.963   1.732
  103HOH     H2  496   1.246   1.862   1.841
  104HOH      O  497   0.772   2.470   3.815
  104HOH     H1  498   0.834   2.461   3.743
  104HOH     H2  499   0.717   2.392   3.810
  105HOH      O  500   2.393   2.539   2.508
  105HOH     H1  501   2.307   2.500   2.521
  105HOH     H2  502   2.375   2.632   2.496
  106HOH      O  503   3.593   2.864   0.297
  106HOH     H1  504   3.519   2.849   0.239
  106HOH     H2  505   3.666   2.884   0.238
  107HOH      O  506   3.861   1.726   2.235
  107HOH     H1  507   3.886   1.818   2.246
  107HOH     H2  508   3.866   1.711   2.141
  108HOH      O  509   0.950   1.967   2.648
  108HOH     H1  510   0.868   1.946   2.694
  108HOH     H2  511   0.998   1.885   2.646
  109HOH      O  512   3.743   3.163   0.457
  109HOH     H1  513   3.674   3.166   0.523
  109HOH     H2  514   3.696   3.162   0.374
  110HOH      O  515   2.783   0.891   3.170
  110HOH     H1  516   2.747   0.930   3.250
  110HOH     H2  517   2.873   0.867   3.193
  111HOH      O  518   2.327   3.949   1.948
  111HOH     H1  519   2.312   3.897   2.028
  111HOH     H2  520   2.242   3.990   1.930
  112HOH      O  521   2.173   0.928   2.208
  112HOH     H1  522   2.145   0.910   2.298
  112HOH     H2  523   2.101   0.897   2.153
  113HOH      O  524   0.959   3.195   3.803
  113HOH     H1  525   0.870   3.199   3.767
  113HOH     H2  526   0.974   3.283   3.839
  114HOH      O  527   0.340   0.673   1.922
  114HOH     H1  528   0.407   0.686   1.855
  114HOH     H2  529   0.388   0.637   1.997
  115HOH      O  530   3.954   2.378   0.398
  115HOH     H1  531   3.991   2.424   0.473
  115HOH     H2  532   4.003   2.412   0.323
  116HOH      O  533   1.985   0.278   1.816
  116HOH     H1  534   2.022   0.291   1.903
  116HOH     H2  535   1.904   0.230   1.830
  117HOH      O  536   0.462   0.049   1.649
  117HOH     H1  537   0.380   0.011   1.681
  117HOH     H2  538   0.525  -0.022   1.655
  118HOH      O  539   3.018   2.867   2.724
  118HOH     H1  540   3.050   2.789   2.769
  118HOH     H2  541   3.043   2.939   2.782
  119HOH      O  542   1.240   2.937   0.943
  119HOH     H1  543   1.244   2.926   0.848
  119HOH     H2  544   1.160   2.987   0.958
  120HOH      O  545   0.022   1.006   2.934
  120HOH     H1  546   0.040   0.915   2.910
  120HOH     H2  547  -0.057   1.002   2.986
  121HOH      O  548   3.722   1.309   0.640
  121HOH     H1  549   3.632   1.299   0.611
  121HOH     H2  550   3.774   1.266   0.572
  122HOH      O  551   3.686   3.712   1.780
  122HOH     H1  552   3.662   3.716   1.688
  122HOH     H2  553   3.734   3.630   1.789
  123HOH      O  554   3.926   3.130   0.139
  123HOH     H1  555   3.905   3.214   0.179
  123HOH     H2  556   3.874   3.127   0.059
  124HOH      O  557   2.192   2.041   0.087
  124HOH     H1  558   2.198   2.006  -0.002
  124HOH     H2  559   2.130   2.114   0.079
  125HOH      O  560   3.443   3.732   4.031
  125HOH     H1  561   3.420   3.696   3.945
  125HOH     H2  562   3.432   3.826   4.021
  126HOH      O  563   0.646   1.112   2.364
  126HOH     H1  564   0.552   1.126   2.360
  126HOH     H2  565   0.684   1.198   2.343
  127HOH      O  566   1.599   2.110   3.404
  127HOH     H1  567   1.535   2.118   3.474
  127HOH     H2  568   1.555   2.145   3.327
  128HOH      O  569   1.193   0.737   1.776
  128HOH     H1  570   1.116   0.792   1.784
  128HOH     H2  571   1.267   0.798   1.777
  129HOH      O  572   3.112   3.394   1.327
  129HOH     H1  573   3.104   3.305   1.293
  129HOH     H2  574   3.197   3.424   1.294
  130HOH      O  575   1.777   0.143   1.835
  130HOH     H1  576   1.698   0.192   1.856
  130HOH     H2  577   1.745   0.065   1.789
  131HOH      O  578   0.630   1.719   3.920
  131HOH     H1  579   0.570   1.655   3.960
  131HOH     H2  580   0.575   1.768   3.859
  132HOH      O  581   2.059   0.838   3.199
  132HOH     H1  582   2.056   0.789   3.281
  132HOH     H2  583   2.104   0.779   3.138
  133HOH      O  584   4.008   2.062   2.752
  133HOH     H1  585   3.999   2.105   2.667
  133HOH     H2  586   4.014   2.135   2.814
  134HOH      O  587   2.338   0.311   3.520
  134HOH     H1  588   2.323   0.403   3.497
  134HOH     H2  589   2.316   0.306   3.613
  135HOH      O  590   1.703   3.249   0.030
  135HOH     H1  591   1.639   3.235  -0.039
  135HOH     H2  592   1.686   3.338   0.061
  136HOH      O  593   0.704   0.293   0.951
  136HOH     H1  594   0.620   0.249   0.938
  136HOH     H2  595   0.721   0.337   0.867
  137HOH      O  596   2.252   0.278   3.808
  137HOH     H1  597   2.235   0.196   3.761
  137HOH     H2  598   2.171   0.295   3.857
  138HOH      O  599   3.771   3.617   1.355
  138HOH     H1  600   3.747   3.601   1.264
  138HOH     H2  601   3.862   3.589   1.361
  139HOH      O  602   2.836   2.179   3.573
  139HOH     H1  603   2.926   2.189   3.606
  139HOH     H2  604   2.824   2.253   3.514
  140HOH      O  605   3.617   3.219   2.145
  140HOH     H1  606   3.546   3.172   2.103
  140HOH     H2  607   3.683   3.230   2.076
  141HOH      O  608   1.470   2.496   2.367
  141HOH     H1  609   1.460   2.499   2.462
  141HOH     H2  610   1.528   2.570   2.346
  142HOH      O  611   0.890   3.575   2.431
  142HOH     H1  612   0.897   3.633   2.507
  142HOH     H2  613   0.800   3.585   2.401
  143HOH      O  614   0.140   2.301   1.903
  143HOH     H1  615   0.106   2.388   1.925
  143HOH     H2  616   0.209   2.285   1.968
  144HOH      O  617   3.220   0.584   0.672
  144HOH     H1  618   3.210   0.670   0.711
  144HOH     H2  619   3.310   0.583   0.639
  145HOH      O  620   1.066   0.369   3.711
  145HOH     H1  621   1.142   0.315   3.691
  145HOH     H2  622   1.100   0.458   3.712
  146HOH      O  623   0.908   2.501   4.044
  146HOH     H1  624   0.985   2.525   3.991
  146HOH     H2  625   0.839   2.486   3.980
  147HOH      O  626   0.809   1.984   2.884
  147HOH     H1  627   0.714   1.982   2.875
  147HOH     H2  628   0.824   2.043   2.958
  148HOH      O  629   0.544   0.078   2.341
  148HOH     H1  630   0.557   0.153   2.282
  148HOH     H2  631   0.631   0.041   2.352
  149HOH      O  632   3.199   2.376   3.779
  149HOH     H1  633   3.167   2.378   3.689
  149HOH     H2  634   3.293   2.390   3.771
  150HOH      O  635   3.105   4.007   1.293
  150HOH     H1  636   3.101   3.916   1.264
  150HOH     H2  637   3.032   4.016   1.354
  151HOH      O  638   0.220   1.769   1.093
  151HOH     H1  639   0.167   1.690   1.102
  151HOH     H2  640   0.224   1.806   1.181
  152HOH      O  641   0.044   1.747   3.808
  152HOH     H1  642   0.134   1.779   3.810
  152HOH     H2  643  -0.010   1.826   3.807
  153HOH      O  644   1.867   2.950   0.084
  153HOH     H1  645   1.804   2.981   0.020
  153HOH     H2  646   1.914   2.879   0.040
  154HOH      O  647   2.136   0.960   3.978
  154HOH     H1  648   2.070   0.902   3.939
  154HOH     H2  649   2.196   0.900   4.024
  155HOH      O  650   3.801   1.878   2.493
  155HOH     H1  651   3.753   1.883   2.576
  155HOH     H2  652   3.817   1.785   2.480
  156HOH      O  653   0.104   0.132   1.514
  156HOH     H1  654   0.011   0.125   1.535
  156HOH     H2  655   0.106   0.134   1.418
  157HOH      O  656   1.204   3.949   0.794
  157HOH     H1  657   1.258   3.941   0.715
  157HOH     H2  658   1.242   3.885   0.855
  158HOH      O  659   2.546   2.867   0.133
  158HOH     H1  660   2.614   2.932   0.148
  158HOH     H2  661   2.493   2.903   0.061
  159HOH      O  662   3.641   2.171   2.796
  159HOH     H1  663   3.702   2.237   2.764
  159HOH     H2  664   3.693   2.091   2.804
  160HOH      O  665   2.387   3.591   2.957
  160HOH     H1  666   2.382   3.641   2.875
  160HOH     H2  667   2.329   3.638   3.017
  161HOH      O  668   2.663   1.167   0.569
  161HOH     H1  669   2.643   1.236   0.632
  161HOH     H2  670   2.643   1.086   0.616
  162HOH      O  671   3.969   0.565   1.215
  162HOH     H1  672   4.015   0.649   1.223
  162HOH     H2  673   3.900   0.583   1.151
  163HOH      O  674   2.262   3.324   2.459
  163HOH     H1  675   2.313   3.396   2.424
  163HOH     H2  676   2.219   3.285   2.383
  164HOH      O  677   3.463   1.794   0.473
  164HOH     H1  678   3.537   1.777   0.531
  164HOH     H2  679   3.487   1.754   0.390
  165HOH      O  680   2.210   1.784   2.078
  165HOH     H1  681   2.240   1.843   2.147
  165HOH     H2  682   2.265   1.807   2.002
  166HOH      O  683   0.670   0.358   1.551
  166HOH     H1  684   0.670   0.290   1.619
  166HOH     H2  685   0.578   0.386   1.546
  167HOH      O  686   2.550   3.604   1.614
  167HOH     H1  687   2.496   3.680   1.634
  167HOH     H2  688   2.506   3.531   1.658
  168HOH      O  689   0.559   3.088   3.273
  168HOH     H1  690   0.637   3.111   3.324
  168HOH     H2  691   0.587   3.013   3.220
  169HOH      O  692   0.203   1.480   1.313
  169HOH     H1  693   0.221   1.387   1.322
  169HOH     H2  694   0.170   1.489   1.223
  170HOH      O  695   0.226   0.979   3.239
  170HOH     H1  696   0.252   1.002   3.149
  170HOH     H2  697   0.214   0.884   3.237
  171HOH      O  698   0.790   3.757   3.801
  171HOH     H1  699   0.758   3.782   3.887
  171HOH     H2  700   0.843   3.832   3.773
  172HOH      O  701   0.428   2.469   1.500
  172HOH     H1  702   0.516   2.433   1.511
  172HOH     H2  703   0.391   2.419   1.427
  173HOH      O  704   2.792   3.168   2.144
  173HOH     H1  705   2.812   3.255   2.179
  173HOH     H2  706   2.699   3.156   2.162
  174HOH      O  707   2.882   3.975   0.217
  174HOH     H1  708   2.818   3.905   0.203
  174HOH     H2  709   2.841   4.032   0.282
  175HOH      O  710   0.581   2.194   1.119
  175HOH     H1  711   0.536   2.276   1.102
  175HOH     H2  712   0.514   2.126   1.106
  176HOH      O  713   0.254   0.650   2.547
  176HOH     H1  714   0.223   0.579   2.603
  176HOH     H2  715   0.346   0.627   2.529
  177HOH      O  716   1.624   1.250   3.144
  177HOH     H1  717   1.584   1.219   3.062
  177HOH     H2  718   1.704   1.199   3.152
  178HOH      O  719   0.603   3.323   2.187
  178HOH     H1  720   0.526   3.266   2.194
  178HOH     H2  721   0.589   3.372   2.106
  179HOH      O  722   0.403   3.771   0.857
  179HOH     H1  723   0.383   3.752   0.949
  179HOH     H2  724   0.498   3.780   0.854
  180HOH      O  725   2.019   3.695   2.301
  180HOH     H1  726   1.958   3.626   2.276
  180HOH     H2  727   1.967   3.775   2.298
  181HOH      O  728   0.276   1.779   1.700
  181HOH     H1  729   0.317   1.791   1.615
  181HOH     H2  730   0.198   1.726   1.682
  182HOH      O  731   2.004   3.246   1.813
  182HOH     H1  732   2.038   3.159   1.794
  182HOH     H2  733   2.059   3.279   1.885
  183HOH      O  734   0.447   4.020   2.953
  183HOH     H1  735   0.354   4.004   2.970
  183HOH     H2  736   0.453   4.030   2.858
  184HOH      O  737   2.609   2.944   1.564
  184HOH     H1  738   2.588   2.895   1.484
  184HOH     H2  739   2.686   2.997   1.539
  185HOH      O  740   3.477   0.141   3.376
  185HOH     H1  741   3.399   0.127   3.322
  185HOH     H2  742   3.450   0.115   3.464
  186HOH      O  743   1.458   3.140   0.172
  186HOH     H1  744   1.459   3.051   0.137
  186HOH     H2  745   1.548   3.170   0.162
  187HOH      O  746   1.145   3.635   2.033
  187HOH     H1  747   1.058   3.609   2.000
  187HOH     H2  748   1.152   3.590   2.117
  188HOH      O  749   0.105   3.641   0.514
  188HOH     H1  750   0.163   3.630   0.589
  188HOH     H2  751   0.155   3.605   0.440
  189HOH      O  752   3.506   1.947   1.380
  189HOH     H1  753   3.412   1.936   1.393
  189HOH     H2  754   3.517   1.942   1.285
  190HOH      O  755   0.563   2.494   3.417
  190HOH     H1  756   0.620   2.417   3.416
  190HOH     H2  757   0.597   2.550   3.347
  191HOH      O  758   0.335   3.324   3.853
  191HOH     H1  759   0.311   3.298   3.764
  191HOH     H2  760   0.415   3.376   3.842
  192HOH      O  761   0.656   0.458   2.411
  192HOH     H1  762   0.682   0.469   2.502
  192HOH     H2  763   0.614   0.541   2.388
  193HOH      O  764   2.814   1.430   0.393
  193HOH     H1  765   2.743   1.368   0.407
  193HOH     H2  766   2.893   1.380   0.413
  194HOH      O  767   3.229   0.186   1.176
  194HOH     H1  768   3.162   0.208   1.111
  194HOH     H2  769   3.186   0.124   1.234
  195HOH      O  770   3.027   1.801   2.021
  195HOH     H1  771   3.096   1.735   2.030
  195HOH     H2  772   2.970   1.766   1.952
  196HOH      O  773   1.434   2.415   1.567
  196HOH     H1  774   1.473   2.488   1.518
  196HOH     H2  775   1.496   2.343   1.555
  197HOH      O  776   2.565   2.246   0.082
  197HOH     H1  777   2.611   2.309   0.026
  197HOH     H2  778   2.527   2.183   0.021
  198HOH      O  779   0.507   3.604   3.829
  198HOH     H1  780   0.501   3.679   3.769
  198HOH     H2  781   0.601   3.589   3.841
  199HOH      O  782   3.756   0.608   1.021
  199HOH     H1  783   3.665   0.639   1.027
  199HOH     H2  784   3.798   0.670   0.963
  200HOH      O  785   2.667   1.772   0.805
  200HOH     H1  786   2.621   1.849   0.838
  200HOH     H2  787   2.724   1.745   0.876
  201HOH      O  788   1.116   0.320   1.743
  201HOH     H1  789   1.023   0.344   1.741
  201HOH     H2  790   1.141   0.329   1.835
  202HOH      O  791   2.524   3.030   1.236
  202HOH     H1  792   2.540   3.122   1.257
  202HOH     H2  793   2.542   3.023   1.142
  203HOH      O  794   2.344   3.212   3.961
  203HOH     H1  795   2.421   3.156   3.948
  203HOH     H2  796   2.274   3.152   3.986
  204HOH      O  797   1.223   0.081   1.160
  204HOH     H1  798   1.192   0.126   1.081
  204HOH     H2  799   1.318   0.076   1.149
  205HOH      O  800   2.643   3.345   1.929
  205HOH     H1  801   2.701   3.408   1.886
  205HOH     H2  802   2.696   3.265   1.936
  206HOH      O  803   3.679   3.809   1.519
  206HOH     H1  804   3.669   3.877   1.453
  206HOH     H2  805   3.739   3.746   1.480
  207HOH      O  806   1.004   1.284   3.980
  207HOH     H1  807   0.991   1.206   3.926
  207HOH     H2  808   1.091   1.314   3.957
  208HOH      O  809   0.371   3.171   0.766
  208HOH     H1  810   0.350   3.249   0.817
  208HOH     H2  811   0.410   3.204   0.685
  209HOH      O  812   3.279   0.873   1.892
  209HOH     H1  813   3.314   0.898   1.806
  209HOH     H2  814   3.324   0.931   1.954
  210HOH      O  815   1.918   2.393   2.199
  210HOH     H1  816   1.855   2.362   2.264
  210HOH     H2  817   1.912   2.489   2.203
  211HOH      O  818   1.472   1.098   2.998
  211HOH     H1  819   1.440   1.008   3.002
  211HOH     H2  820   1.510   1.105   2.910
  212HOH      O  821   2.500   1.590   2.523
  212HOH     H1  822   2.427   1.536   2.551
  212HOH     H2  823   2.460   1.673   2.497
  213HOH      O  824   1.961   3.721   0.906
  213HOH     H1  825   1.912   3.785   0.854
  213HOH     H2  826   2.047   3.717   0.864
  214HOH      O  827   0.527   0.056   0.571
  214HOH     H1  828   0.472  -0.006   0.522
  214HOH     H2  829   0.490   0.142   0.552
  215HOH      O  830   2.413   0.573   1.015
  215HOH     H1  831   2.480   0.582   0.947
  215HOH     H2  832   2.452   0.512   1.078
  216HOH      O  833   2.353   2.977   1.680
  216HOH     H1  834   2.330   2.885   1.690
  216HOH     H2  835   2.437   2.976   1.634
  217HOH      O  836   2.137   1.985   1.832
  217HOH     H1  837   2.112   2.060   1.885
  217HOH     H2  838   2.057   1.934   1.823
  218HOH      O  839   2.337   3.914   1.374
  218HOH     H1  840   2.304   4.001   1.353
  218HOH     H2  841   2.429   3.928   1.398
  219HOH      O  842   3.908   1.298   0.146
  219HOH     H1  843   3.889   1.369   0.208
  219HOH     H2  844   4.003   1.286   0.153
  220HOH      O  845   1.773   1.349   3.759
  220HOH     H1  846   1.807   1.306   3.838
  220HOH     H2  847   1.779   1.281   3.691
  221HOH      O  848   2.230   2.854   0.200
  221HOH     H1  849   2.274   2.920   0.254
  221HOH     H2  850   2.148   2.835   0.246
  222HOH      O  851   2.535   3.381   0.080
  222HOH     H1  852   2.470   3.322   0.040
  222HOH     H2  853   2.601   3.392   0.012
  223HOH      O  854   2.574   2.287   1.224
  223HOH     H1  855   2.485   2.289   1.187
  223HOH     H2  856   2.624   2.235   1.162
  224HOH      O  857   3.247   1.617   2.029
  224HOH     H1  858   3.264   1.573   1.945
  224HOH     H2  859   3.328   1.663   2.049
  225HOH      O  860   0.057   0.429   3.915
  225HOH     H1  861   0.006   0.476   3.980
  225HOH     H2  862   0.148   0.445   3.941
  226HOH      O  863   3.087   3.725   3.135
  226HOH     H1  864   3.121   3.772   3.059
  226HOH     H2  865   3.093   3.632   3.110
  227HOH      O  866   2.823   2.098   2.816
  227HOH     H1  867   2.916   2.088   2.797
  227HOH     H2  868   2.818   2.176   2.871
  228HOH      O  869   2.442   1.608   1.245
  228HOH     H1  870   2.364   1.636   1.199
  228HOH     H2  871   2.414   1.532   1.297
  229HOH      O  872   3.851   2.654   0.680
  229HOH     H1  873   3.914   2.647   0.608
  229HOH     H2  874   3.766   2.663   0.636
  230HOH      O  875   3.166   0.686   3.794
  230HOH     H1  876   3.111   0.764   3.797
  230HOH     H2  877   3.105   0.613   3.794
  231HOH      O  878   0.305   1.413   1.903
  231HOH     H1  879   0.293   1.319   1.919
  231HOH     H2  880   0.345   1.417   1.816
  232HOH      O  881   0.150   0.666   1.524
  232HOH     H1  882   0.224   0.716   1.491
  232HOH     H2  883   0.112   0.624   1.446
  233HOH      O  884   3.761   2.342   0.673
  233HOH     H1  885   3.845   2.387   0.688
  233HOH     H2  886   3.780   2.278   0.604
  234HOH      O  887   0.952   1.256   2.724
  234HOH     H1  888   0.888   1.226   2.789
  234HOH     H2  889   0.983   1.340   2.758
  235HOH      O  890   0.642   1.495   1.439
  235HOH     H1  891   0.692   1.425   1.397
  235HOH     H2  892   0.673   1.495   1.530
  236HOH      O  893   4.023   2.285   3.455
  236HOH     H1  894   3.979   2.349   3.511
  236HOH     H2  895   3.970   2.282   3.375
  237HOH      O  896   3.950   0.816   0.991
  237HOH     H1  897   3.941   0.858   1.077
  237HOH     H2  898   4.042   0.792   0.985
  238HOH      O  899   0.901   2.014   1.967
  238HOH     H1  900   0.893   2.098   2.012
  238HOH     H2  901   0.990   1.985   1.984
  239HOH      O  902   2.212   0.065   3.335
  239HOH     H1  903   2.208   0.033   3.245
  239HOH     H2  904   2.250   0.153   3.327
  240HOH      O  905   0.958   2.322   0.483
  240HOH     H1  906   0.903   2.285   0.414
  240HOH     H2  907   0.899   2.334   0.557
  241HOH      O  908   1.121   1.712   0.780
  241HOH     H1  909   1.160   1.731   0.695
  241HOH     H2  910   1.130   1.794   0.829
  242HOH      O  911   0.401   1.744   1.470
  242HOH     H1  912   0.494   1.750   1.496
  242HOH     H2  913   0.402   1.691   1.391
  243HOH      O  914   3.346   3.966   2.412
  243HOH     H1  915   3.269   3.911   2.397
  243HOH     H2  916   3.355   4.018   2.332
  244HOH      O  917   3.847   3.399   2.984
  244HOH     H1  918   3.892   3.483   2.988
  244HOH     H2  919   3.754   3.421   2.985
  245HOH      O  920   3.561   2.639   2.786
  245HOH     H1  921   3.648   2.618   2.752
  245HOH     H2  922   3.506   2.646   2.707
  246HOH      O  923   0.921   0.328   0.490
  246HOH     H1  924   0.901   0.309   0.398
  246HOH     H2  925   0.954   0.245   0.524
  247HOH      O  926   0.557   2.134   0.062
  247HOH     H1  927   0.591   2.146  -0.026
  247HOH     H2  928   0.620   2.077   0.105
  248HOH      O  929   0.702   0.086   1.417
  248HOH     H1  930   0.670   0.171   1.449
  248HOH     H2  931   0.671   0.023   1.482
  249HOH      O  932   0.147   0.254   2.099
  249HOH     H1  933   0.092   0.254   2.021
  249HOH     H2  934   0.095   0.208   2.165
  250HOH      O  935   3.581   0.125   0.971
  250HOH     H1  936   3.584   0.046   1.026
  250HOH     H2  937   3.671   0.136   0.941
  251HOH      O  938   1.358   1.124   1.012
  251HOH     H1  939   1.274   1.098   1.050
  251HOH     H2  940   1.352   1.097   0.920
  252HOH      O  941   1.808   1.893   2.654
  252HOH     H1  942   1.889   1.936   2.627
  252HOH     H2  943   1.766   1.957   2.712
  253HOH      O  944   1.089   1.898   2.934
  253HOH     H1  945   0.994   1.907   2.928
  253HOH     H2  946   1.117   1.971   2.990
  254HOH      O  947   0.267   0.894   3.492
  254HOH     H1  948   0.359   0.871   3.508
  254HOH     H2  949   0.267   0.928   3.403
  255HOH      O  950   0.466   0.345   0.651
  255HOH     H1  951   0.385   0.383   0.619
  255HOH     H2  952   0.474   0.379   0.741
  256HOH      O  953   2.012   1.323   2.975
  256HOH     H1  954   1.955   1.250   2.950
  256HOH     H2  955   2.069   1.286   3.042
  257HOH      O  956   1.961   3.340   2.905
  257HOH     H1  957   2.018   3.399   2.855
  257HOH     H2  958   2.016   3.309   2.977
  258HOH      O  959   3.459   3.744   3.699
  258HOH     H1  960   3.553   3.731   3.690
  258HOH     H2  961   3.420   3.664   3.664
  259HOH      O  962   3.796   2.175   3.907
  259HOH     H1  963   3.865   2.235   3.877
  259HOH     H2  964   3.790   2.191   4.001
  260HOH      O  965   1.419   1.589   0.413
  260HOH     H1  966   1.507   1.565   0.443
  260HOH     H2  967   1.434   1.641   0.334
  261HOH      O  968   2.681   0.643   1.198
  261HOH     H1  969   2.649   0.553   1.207
  261HOH     H2  970   2.737   0.640   1.121
  262HOH      O  971   2.249   1.672   2.637
  262HOH     H1  972   2.155   1.689   2.631
  262HOH     H2  973   2.257   1.611   2.710
  263HOH      O  974   1.737   2.336   1.922
  263HOH     H1  975   1.810   2.363   1.978
  263HOH     H2  976   1.779   2.308   1.840
  264HOH      O  977   1.867   2.441   1.545
  264HOH     H1  978   1.844   2.389   1.468
  264HOH     H2  979   1.951   2.480   1.523
  265HOH      O  980   2.676   0.240   2.426
  265HOH     H1  981   2.754   0.224   2.372
  265HOH     H2  982   2.709   0.251   2.514
  266HOH      O  983   2.953   3.279   3.997
  266HOH     H1  984   2.952   3.186   3.974
  266HOH     H2  985   3.046   3.302   4.000
  267HOH      O  986   3.545   3.617   2.288
  267HOH     H1  987   3.601   3.621   2.211
  267HOH     H2  988   3.516   3.708   2.302
  268HOH      O  989   2.371   0.632   0.407
  268HOH     H1  990   2.317   0.588   0.472
  268HOH     H2  991   2.398   0.713   0.450
  269HOH      O  992   2.485   2.950   2.727
  269HOH     H1  993   2.548   3.019   2.706
  269HOH     H2  994   2.399   2.991   2.717
  270HOH      O  995   2.910   0.439   2.058
  270HOH     H1  996   2.913   0.533   2.041
  270HOH     H2  997   2.824   0.424   2.095
  271HOH      O  998   1.704   3.422   2.699
  271HOH     H1  999   1.779   3.402   2.643
  271HOH     H2 1000   1.696   3.517   2.695
  272HOH      O 1001   3.010   2.458   1.142
  272HOH     H1 1002   2.937   2.427   1.195
  272HOH     H2 1003   3.088   2.435   1.192
  273HOH      O 1004   3.945   1.919   3.294
  273HOH     H1 1005   3.874   1.860   3.319
  273HOH     H2 1006   3.974   1.959   3.376
  274HOH      O 1007   1.439   3.660   2.821
  274HOH     H1 1008   1.457   3.682   2.913
  274HOH     H2 1009   1.344   3.661   2.815
  275HOH      O 1010   0.925   1.049   2.265
  275HOH     H1 1011   0.929   0.959   2.297
  275HOH     H2 1012   0.841   1.082   2.296
  276HOH      O 1013   0.067   3.590   3.343
  276HOH     H1 1014   0.123   3.518   3.374
  276HOH     H2 1015   0.077   3.658   3.410
  277HOH      O 1016   1.330   2.635   2.037
  277HOH     H1 1017   1.385   2.562   2.007
  277HOH     H2 1018   1.276   2.658   1.961
  278HOH      O 1019   2.431   3.750   3.682
  278HOH     H1 1020   2.401   3.782   3.767
  278HOH     H2 1021   2.439   3.829   3.628
  279HOH      O 1022   3.897   3.793   4.041
  279HOH     H1 1023   3.900   3.711   4.090
  279HOH     H2 1024   3.909   3.767   3.950
  280HOH      O 1025   3.538   1.015   0.806
  280HOH     H1 1026   3.450   0.992   0.777
  280HOH     H2 1027   3.559   1.095   0.758
  281HOH      O 1028   3.047   3.854   0.986
  281HOH     H1 1029   3.023   3.766   1.016
  281HOH     H2 1030   3.135   3.868   1.020
  282HOH      O 1031   2.193  -0.005   2.358
  282HOH     H1 1032   2.234   0.073   2.396
  282HOH     H2 1033   2.148  -0.046   2.432
  283HOH      O 1034   1.741   3.497   3.693
  283HOH     H1 1035   1.706   3.522   3.779
  283HOH     H2 1036   1.667   3.454   3.650
  284HOH      O 1037   0.915   3.612   1.120
  284HOH     H1 1038   0.929   3.702   1.149
  284HOH     H2 1039   1.002   3.571   1.125
  285HOH      O 1040   0.995   0.993   2.608
  285HOH     H1 1041   1.006   1.085   2.629
  285HOH     H2 1042   0.902   0.976   2.618
  286HOH      O 1043   3.878   3.129   2.924
  286HOH     H1 1044   3.839   3.120   2.837
  286HOH     H2 1045   3.850   3.215   2.955
  287HOH      O 1046   0.279   3.867   1.411
  287HOH     H1 1047   0.306   3.958   1.401
  287HOH     H2 1048   0.193   3.872   1.454
  288HOH      O 1049   0.151   1.931   0.855
  288HOH     H1 1050   0.220   1.903   0.796
  288HOH     H2 1051   0.164   1.880   0.935
  289HOH      O 1052   3.600   0.491   1.632
  289HOH     H1 1053   3.571   0.551   1.700
  289HOH     H2 1054   3.694   0.508   1.622
  290HOH      O 1055   1.192   0.935   2.909
  290HOH     H1 1056   1.271   0.881   2.905
  290HOH     H2 1057   1.209   0.998   2.979
  291HOH      O 1058   0.320   3.456   3.159
  291HOH     H1 1059   0.317   3.369   3.119
  291HOH     H2 1060   0.230   3.487   3.154
  292HOH      O 1061   2.534   0.503   2.405
  292HOH     H1 1062   2.566   0.413   2.415
  292HOH     H2 1063   2.458   0.508   2.464
  293HOH      O 1064   0.354   1.461   1.641
  293HOH     H1 1065   0.432   1.512   1.667
  293HOH     H2 1066   0.389   1.394   1.582
  294HOH      O 1067   1.363   3.976   1.523
  294HOH     H1 1068   1.455   3.971   1.500
  294HOH     H2 1069   1.329   4.051   1.474
  295HOH      O 1070   2.157   3.030   3.845
  295HOH     H1 1071   2.084   3.089   3.824
  295HOH     H2 1072   2.228   3.059   3.789
  296HOH      O 1073   2.074   3.734   1.801
  296HOH     H1 1074   2.118   3.812   1.834
  296HOH     H2 1075   1.981   3.755   1.806
  297HOH      O 1076   3.699   2.944   2.004
  297HOH     H1 1077   3.642   2.868   1.989
  297HOH     H2 1078   3.711   2.945   2.099
  298HOH      O 1079   0.906   0.875   1.201
  298HOH     H1 1080   0.870   0.853   1.115
  298HOH     H2 1081   0.998   0.896   1.185
  299HOH      O 1082   0.321   2.014   2.469
  299HOH     H1 1083   0.323   2.059   2.385
  299HOH     H2 1084   0.281   1.929   2.450
  300HOH      O 1085   3.324   0.542   1.805
  300HOH     H1 1086   3.296   0.559   1.715
  300HOH     H2 1087   3.399   0.601   1.818
  301HOH      O 1088   3.491   1.612   2.820
  301HOH     H1 1089   3.427   1.546   2.792
  301HOH     H2 1090   3.530   1.575   2.899
  302HOH      O 1091   1.462   2.657   2.616
  302HOH     H1 1092   1.371   2.649   2.590
  302HOH     H2 1093   1.490   2.742   2.582
  303HOH      O 1094   1.576   2.584   3.369
  303HOH     H1 1095   1.653   2.569   3.315
  303HOH     H2 1096   1.573   2.679   3.381
  304HOH      O 1097   2.208   0.661   0.728
  304HOH     H1 1098   2.264   0.632   0.800
  304HOH     H2 1099   2.225   0.599   0.658
  305HOH      O 1100   1.182   2.231   2.044
  305HOH     H1 1101   1.233   2.185   2.110
  305HOH     H2 1102   1.245   2.252   1.975
  306HOH      O 1103   3.557   0.693   1.809
  306HOH     H1 1104   3.575   0.720   1.899
  306HOH     H2 1105   3.616   0.746   1.756
  307HOH      O 1106   0.257   1.144   2.965
  307HOH     H1 1107   0.163   1.140   2.947
  307HOH     H2 1108   0.297   1.166   2.881
  308HOH      O 1109   0.413   1.761   2.232
  308HOH     H1 1110   0.432   1.854   2.220
  308HOH     H2 1111   0.446   1.719   2.152
  309HOH      O 1112   2.749   0.447   3.118
  309HOH     H1 1113   2.798   0.492   3.187
  309HOH     H2 1114   2.657   0.464   3.139
  310HOH      O 1115   3.670   3.497   0.012
  310HOH     H1 1116   3.616   3.504  -0.067
  310HOH     H2 1117   3.609   3.514   0.084
  311HOH      O 1118   0.268   2.698   0.607
  311HOH     H1 1119   0.345   2.658   0.567
  311HOH     H2 1120   0.281   2.792   0.595
  312HOH      O 1121   2.714   1.094   2.581
  312HOH     H1 1122   2.619   1.106   2.585
  312HOH     H2 1123   2.741   1.138   2.500
  313HOH      O 1124   2.657   0.470   2.139
  313HOH     H1 1125   2.638   0.562   2.124
  313HOH     H2 1126   2.625   0.453   2.228
  314HOH      O 1127   2.617   0.304   0.474
  314HOH     H1 1128   2.685   0.317   0.540
  314HOH     H2 1129   2.642   0.362   0.402
  315HOH      O 1130   1.190   1.323   3.484
  315HOH     H1 1131   1.277   1.319   3.444
  315HOH     H2 1132   1.157   1.410   3.460
  316HOH      O 1133   1.074   1.381   1.162
  316HOH     H1 1134   1.018   1.459   1.167
  316HOH     H2 1135   1.035   1.329   1.091
  317HOH      O 1136   0.601   2.844   0.252
  317HOH     H1 1137   0.563   2.869   0.168
  317HOH     H2 1138   0.692   2.822   0.231
  318HOH      O 1139   1.749   2.540   0.236
  318HOH     H1 1140   1.706   2.622   0.260
  318HOH     H2 1141   1.843   2.558   0.247
  319HOH      O 1142   1.126   1.573   3.370
  319HOH     H1 1143   1.122   1.628   3.292
  319HOH     H2 1144   1.040   1.583   3.411
  320HOH      O 1145   0.694   3.000   1.709
  320HOH     H1 1146   0.771   2.949   1.685
  320HOH     H2 1147   0.662   2.959   1.789
  321HOH      O 1148   0.786   2.875   1.013
  321HOH     H1 1149   0.812   2.787   0.986
  321HOH     H2 1150   0.842   2.933   0.961
  322HOH      O 1151   3.293   1.029   3.033
  322HOH     H1 1152   3.333   1.076   3.107
  322HOH     H2 1153   3.204   1.065   3.029
  323HOH      O 1154   3.389   3.931   0.731
  323HOH     H1 1155   3.324   3.874   0.771
  323HOH     H2 1156   3.384   4.012   0.782
  324HOH      O 1157   3.145   3.059   0.135
  324HOH     H1 1158   3.220   3.002   0.152
  324HOH     H2 1159   3.133   3.055   0.041
  325HOH      O 1160   3.835   3.776   0.892
  325HOH     H1 1161   3.898   3.717   0.934
  325HOH     H2 1162   3.886   3.823   0.826
  326HOH      O 1163   0.525   1.671   0.351
  326HOH     H1 1164   0.461   1.650   0.419
  326HOH     H2 1165   0.540   1.765   0.362
  327HOH      O 1166   2.956   0.485   2.918
  327HOH     H1 1167   2.870   0.480   2.960
  327HOH     H2 1168   3.018   0.492   2.990
  328HOH      O 1169   1.269   3.217   3.108
  328HOH     H1 1170   1.287   3.257   3.193
  328HOH     H2 1171   1.310   3.130   3.114
  329HOH      O 1172   2.222   0.385   2.804
  329HOH     H1 1173   2.143   0.420   2.763
  329HOH     H2 1174   2.188   0.324   2.871
  330HOH      O 1175   2.706   0.829   2.102
  330HOH     H1 1176   2.735   0.785   2.021
  330HOH     H2 1177   2.780   0.817   2.162
  331HOH      O 1178   3.383   1.340   2.166
  331HOH     H1 1179   3.360   1.329   2.258
  331HOH     H2 1180   3.470   1.380   2.168
  332HOH      O 1181   3.005   2.882   2.467
  332HOH     H1 1182   3.035   2.878   2.558
  332HOH     H2 1183   2.911   2.898   2.474
  333HOH      O 1184   0.983   0.686   2.737
  333HOH     H1 1185   0.945   0.689   2.649
  333HOH     H2 1186   0.939   0.757   2.784
  334HOH      O 1187   1.382   0.440   1.969
  334HOH     H1 1188   1.295   0.404   1.983
  334HOH     H2 1189   1.385   0.459   1.876
  335HOH      O 1190   0.572   0.386   1.849
  335HOH     H1 1191   0.518   0.459   1.819
  335HOH     H2 1192   0.508   0.321   1.879
  336HOH      O 1193   3.040   2.334   3.193
  336HOH     H1 1194   3.027   2.368   3.282
  336HOH     H2 1195   3.110   2.388   3.157
  337HOH      O 1196   3.965   2.586   1.219
  337HOH     H1 1197   3.967   2.635   1.137
  337HOH     H2 1198   3.909   2.637   1.277
  338HOH      O 1199   2.815   1.494   2.294
  338HOH     H1 1200   2.792   1.424   2.233
  338HOH     H2 1201   2.910   1.503   2.285
  339HOH      O 1202   3.096   3.330   2.183
  339HOH     H1 1203   3.140   3.246   2.195
  339HOH     H2 1204   3.066   3.329   2.092
  340HOH      O 1205   1.815   0.033   3.021
  340HOH     H1 1206   1.872   0.045   2.946
  340HOH     H2 1207   1.875   0.023   3.095
  341HOH      O 1208   0.679   2.371   1.519
  341HOH     H1 1209   0.743   2.412   1.576
  341HOH     H2 1210   0.722   2.291   1.488
  342HOH      O 1211   1.108   3.488   1.647
  342HOH     H1 1212   1.182   3.548   1.641
  342HOH     H2 1213   1.086   3.467   1.556
  343HOH      O 1214   2.245   1.439   2.309
  343HOH     H1 1215   2.258   1.346   2.327
  343HOH     H2 1216   2.181   1.467   2.374
  344HOH      O 1217   1.553   3.973   3.775
  344HOH     H1 1218   1.530   3.880   3.780
  344HOH     H2 1219   1.625   3.976   3.712
  345HOH      O 1220   1.218   0.162   1.412
  345HOH     H1 1221   1.216   0.132   1.321
  345HOH     H2 1222   1.218   0.257   1.406
  346HOH      O 1223   2.419   2.932   3.639
  346HOH     H1 1224   2.512   2.935   3.616
  346HOH     H2 1225   2.396   2.839   3.634
  347HOH      O 1226   1.719   2.097   1.486
  347HOH     H1 1227   1.671   2.137   1.558
  347HOH     H2 1228   1.730   2.006   1.513
  348HOH      O 1229   0.369   3.137   1.926
  348HOH     H1 1230   0.344   3.195   1.854
  348HOH     H2 1231   0.453   3.099   1.898
  349HOH      O 1232   1.749   3.757   3.567
  349HOH     H1 1233   1.770   3.843   3.602
  349HOH     H2 1234   1.753   3.699   3.643
  350HOH      O 1235   3.840   1.498   0.330
  350HOH     H1 1236   3.750   1.514   0.357
  350HOH     H2 1237   3.860   1.570   0.270
  351HOH      O 1238   3.981   2.331   2.166
  351HOH     H1 1239   4.017   2.360   2.083
  351HOH     H2 1240   4.057   2.323   2.224
  352HOH      O 1241   3.411   1.069   2.066
  352HOH     H1 1242   3.401   1.015   2.144
  352HOH     H2 1243   3.405   1.159   2.098
  353HOH      O 1244  -0.004   2.643   3.059
  353HOH     H1 1245  -0.022   2.737   3.057
  353HOH     H2 1246   0.067   2.633   3.122
  354HOH      O 1247   1.134   3.051   2.386
  354HOH     H1 1248   1.045   3.063   2.418
  354HOH     H2 1249   1.183   3.023   2.464
  355HOH      O 1250   0.621   1.908   1.530
  355HOH     H1 1251   0.655   1.953   1.607
  355HOH     H2 1252   0.665   1.951   1.456
  356HOH      O 1253   1.055   2.804   2.814
  356HOH     H1 1254   1.057   2.785   2.720
  356HOH     H2 1255   1.092   2.725   2.854
  357HOH      O 1256   0.449   0.490   2.683
  357HOH     H1 1257   0.544   0.500   2.683
  357HOH     H2 1258   0.415   0.571   2.722
  358HOH      O 1259   0.056   3.935   1.963
  358HOH     H1 1260   0.149   3.953   1.977
  358HOH     H2 1261   0.035   3.980   1.881
  359HOH      O 1262   2.950   3.033   1.105
  359HOH     H1 1263   2.923   3.078   1.025
  359HOH     H2 1264   3.034   2.992   1.082
  360HOH      O 1265   2.596   2.925   3.064
  360HOH     H1 1266   2.555   2.859   3.007
  360HOH     H2 1267   2.567   3.009   3.027
  361HOH      O 1268   1.408   3.194   0.682
  361HOH     H1 1269   1.464   3.226   0.753
  361HOH     H2 1270   1.356   3.124   0.722
  362HOH      O 1271   0.804   3.248   3.430
  362HOH     H1 1272   0.805   3.251   3.525
  362HOH     H2 1273   0.803   3.340   3.402
  363HOH      O 1274   1.243   1.531   1.938
  363HOH     H1 1275   1.315   1.500   1.993
  363HOH     H2 1276   1.185   1.578   1.998
  364HOH      O 1277   2.236   2.987   1.203
  364HOH     H1 1278   2.330   2.975   1.198
  364HOH     H2 1279   2.223   3.081   1.187
  365HOH      O 1280   3.748   0.374   2.865
  365HOH     H1 1281   3.827   0.335   2.903
  365HOH     H2 1282   3.771   0.465   2.849
  366HOH      O 1283   1.187   2.704   3.355
  366HOH     H1 1284   1.155   2.620   3.322
  366HOH     H2 1285   1.159   2.768   3.290
  367HOH      O 1286   3.473   0.260  -0.026
  367HOH     H1 1287   3.459   0.167  -0.006
  367HOH     H2 1288   3.427   0.306   0.044
  368HOH      O 1289   2.394   1.227   3.894
  368HOH     H1 1290   2.363   1.238   3.804
  368HOH     H2 1291   2.327   1.271   3.947
  369HOH      O 1292   1.765   2.158   0.906
  369HOH     H1 1293   1.682   2.171   0.861
  369HOH     H2 1294   1.774   2.234   0.963
  370HOH      O 1295   1.730   3.047   0.907
  370HOH     H1 1296   1.729   3.004   0.992
  370HOH     H2 1297   1.667   2.998   0.855
  371HOH      O 1298   0.391   3.065   2.879
  371HOH     H1 1299   0.322   3.044   2.816
  371HOH     H2 1300   0.472   3.063   2.827
  372HOH      O 1301   2.970   1.230   3.457
  372HOH     H1 1302   3.043   1.168   3.448
  372HOH     H2 1303   3.001   1.293   3.522
  373HOH      O 1304   2.265   0.082   0.072
  373HOH     H1 1305   2.334   0.106   0.010
  373HOH     H2 1306   2.191   0.137   0.048
  374HOH      O 1307   1.635   2.917   2.017
  374HOH     H1 1308   1.673   2.995   2.058
  374HOH     H2 1309   1.710   2.861   1.997
  375HOH      O 1310   3.520   0.931   2.345
  375HOH     H1 1311   3.495   0.845   2.380
  375HOH     H2 1312   3.444   0.986   2.363
  376HOH      O 1313   2.801   0.341   0.657
  376HOH     H1 1314   2.787   0.297   0.741
  376HOH     H2 1315   2.864   0.411   0.677
  377HOH      O 1316   0.639   0.162   2.604
  377HOH     H1 1317   0.598   0.137   2.521
  377HOH     H2 1318   0.566   0.191   2.659
  378HOH      O 1319   3.885   2.975   1.786
  378HOH     H1 1320   3.831   3.012   1.716
  378HOH     H2 1321   3.826   2.970   1.862
  379HOH      O 1322   3.359   0.967   1.652
  379HOH     H1 1323   3.380   0.938   1.563
  379HOH     H2 1324   3.395   1.056   1.657
  380HOH      O 1325   0.850   1.806   0.049
  380HOH     H1 1326   0.769   1.787   0.002
  380HOH     H2 1327   0.880   1.721   0.082
  381HOH      O 1328   2.638   0.037   0.378
  381HOH     H1 1329   2.599   0.123   0.396
  381HOH     H2 1330   2.679   0.012   0.461
  382HOH      O 1331   2.488   3.780   0.970
  382HOH     H1 1332   2.556   3.825   0.918
  382HOH     H2 1333   2.517   3.791   1.061
  383HOH      O 1334   0.281   3.531   2.085
  383HOH     H1 1335   0.339   3.605   2.070
  383HOH     H2 1336   0.206   3.568   2.132
  384HOH      O 1337   1.208   0.427   1.448
  384HOH     H1 1338   1.233   0.418   1.540
  384HOH     H2 1339   1.150   0.503   1.447
  385HOH      O 1340   0.765   1.186   2.911
  385HOH     H1 1341   0.678   1.153   2.934
  385HOH     H2 1342   0.802   1.216   2.994
  386HOH      O 1343   3.642   0.624   3.075
  386HOH     H1 1344   3.578   0.555   3.059
  386HOH     H2 1345   3.599   0.682   3.138
  387HOH      O 1346   2.162   2.759   2.591
  387HOH     H1 1347   2.173   2.809   2.509
  387HOH     H2 1348   2.068   2.738   2.592
  388HOH      O 1349   2.217   0.219   3.040
  388HOH     H1 1350   2.308   0.200   3.018
  388HOH     H2 1351   2.221   0.256   3.128
  389HOH      O 1352   2.168   2.240   3.321
  389HOH     H1 1353   2.213   2.232   3.236
  389HOH     H2 1354   2.141   2.331   3.325
  390HOH      O 1355  -0.011   3.531   1.459
  390HOH     H1 1356   0.016   3.622   1.475
  390HOH     H2 1357   0.070   3.485   1.439
  391HOH      O 1358   3.060   0.439   3.164
  391HOH     H1 1359   3.012   0.388   3.229
  391HOH     H2 1360   3.133   0.477   3.213
  392HOH      O 1361   3.331   1.662   0.993
  392HOH     H1 1362   3.242   1.659   0.958
  392HOH     H2 1363   3.322   1.710   1.076
  393HOH      O 1364   3.009   2.742   2.227
  393HOH     H1 1365   2.984   2.803   2.297
  393HOH     H2 1366   2.969   2.779   2.148
  394HOH      O 1367   1.456   2.072   1.959
  394HOH     H1 1368   1.398   1.998   1.974
  394HOH     H2 1369   1.544   2.036   1.973
  395HOH      O 1370   2.101   3.390   2.101
  395HOH     H1 1371   2.029   3.454   2.104
  395HOH     H2 1372   2.168   3.432   2.048
  396HOH      O 1373   1.208   2.361   0.089
  396HOH     H1 1374   1.223   2.425   0.019
  396HOH     H2 1375   1.195   2.278   0.044
  397HOH      O 1376   1.503   3.055   3.646
  397HOH     H1 1377   1.506   3.097   3.560
  397HOH     H2 1378   1.438   2.986   3.636
  398HOH      O 1379   2.387   1.383   1.401
  398HOH     H1 1380   2.342   1.305   1.367
  398HOH     H2 1381   2.411   1.359   1.491
  399HOH      O 1382   1.295   2.436   3.379
  399HOH     H1 1383   1.340   2.518   3.361
  399HOH     H2 1384   1.341   2.400   3.456
  400HOH      O 1385   0.379   2.205   2.057
  400HOH     H1 1386   0.404   2.186   1.967
  400HOH     H2 1387   0.447   2.165   2.110
  401HOH      O 1388   3.337   3.583   2.880
  401HOH     H1 1389   3.365   3.637   2.806
  401HOH     H2 1390   3.248   3.613   2.899
  402HOH      O 1391   1.388   2.183   0.583
  402HOH     H1 1392   1.389   2.180   0.488
  402HOH     H2 1393   1.452   2.251   0.606
  403HOH      O 1394   2.779   1.157   3.096
  403HOH     H1 1395   2.707   1.202   3.140
  403HOH     H2 1396   2.765   1.065   3.116
  404HOH      O 1397   3.516   1.093   3.839
  404HOH     H1 1398   3.578   1.148   3.888
  404HOH     H2 1399   3.569   1.054   3.770
  405HOH      O 1400   3.392   2.630   0.136
  405HOH     H1 1401   3.448   2.577   0.079
  405HOH     H2 1402   3.303   2.618   0.100
  406HOH      O 1403   3.371   2.670   2.605
  406HOH     H1 1404   3.293   2.657   2.551
  406HOH     H2 1405   3.339   2.663   2.695
  407HOH      O 1406   3.604   3.995   3.827
  407HOH     H1 1407   3.565   3.920   3.783
  407HOH     H2 1408   3.628   4.054   3.756
  408HOH      O 1409   0.688   0.742   2.908
  408HOH     H1 1410   0.770   0.789   2.897
  408HOH     H2 1411   0.714   0.655   2.939
  409HOH      O 1412   1.858   0.633   1.438
  409HOH     H1 1413   1.776   0.655   1.394
  409HOH     H2 1414   1.843   0.546   1.475
  410HOH      O 1415   2.772   3.107   0.174
  410HOH     H1 1416   2.765   3.096   0.079
  410HOH     H2 1417   2.709   3.177   0.194
  411HOH      O 1418   1.514   1.611   4.005
  411HOH     H1 1419   1.453   1.555   4.054
  411HOH     H2 1420   1.521   1.569   3.919
  412HOH      O 1421   2.713   2.065   0.229
  412HOH     H1 1422   2.664   2.129   0.176
  412HOH     H2 1423   2.782   2.034   0.171
  413HOH      O 1424   3.302   0.751   3.075
  413HOH     H1 1425   3.337   0.825   3.026
  413HOH     H2 1426   3.232   0.716   3.019
  414HOH      O 1427   3.859   2.081   3.540
  414HOH     H1 1428   3.923   2.148   3.514
  414HOH     H2 1429   3.775   2.127   3.539
  415HOH      O 1430   2.821   2.775   0.034
  415HOH     H1 1431   2.791   2.686   0.050
  415HOH     H2 1432   2.883   2.793   0.104
  416HOH      O 1433   1.861   3.099   0.537
  416HOH     H1 1434   1.912   3.115   0.458
  416HOH     H2 1435   1.800   3.173   0.542
  417HOH      O 1436   1.783   1.327   2.163
  417HOH     H1 1437   1.837   1.252   2.136
  417HOH     H2 1438   1.747   1.302   2.248
  418HOH      O 1439   3.238   3.029   0.759
  418HOH     H1 1440   3.152   2.995   0.736
  418HOH     H2 1441   3.280   3.046   0.674
  419HOH      O 1442   1.187   1.203   3.128
  419HOH     H1 1443   1.272   1.226   3.089
  419HOH     H2 1444   1.203   1.206   3.222
  420HOH      O 1445   2.523   3.203   2.982
  420HOH     H1 1446   2.559   3.216   2.895
  420HOH     H2 1447   2.517   3.291   3.019
  421HOH      O 1448   1.144   1.607   2.403
  421HOH     H1 1449   1.193   1.526   2.416
  421HOH     H2 1450   1.075   1.584   2.342
  422HOH      O 1451   2.166   3.024   0.697
  422HOH     H1 1452   2.169   3.022   0.793
  422HOH     H2 1453   2.131   2.939   0.672
  423HOH      O 1454   3.212   2.394   0.402
  423HOH     H1 1455   3.295   2.392   0.451
  423HOH     H2 1456   3.145   2.399   0.470
  424HOH      O 1457   1.492   1.900   1.655
  424HOH     H1 1458   1.491   1.826   1.716
  424HOH     H2 1459   1.525   1.862   1.573
  425HOH      O 1460   0.686   0.831   1.792
  425HOH     H1 1461   0.648   0.879   1.865
  425HOH     H2 1462   0.687   0.894   1.720
  426HOH      O 1463   2.597   0.380   1.826
  426HOH     H1 1464   2.679   0.332   1.839
  426HOH     H2 1465   2.530   0.323   1.865
  427HOH      O 1466   2.030   0.294   3.586
  427HOH     H1 1467   2.112   0.245   3.575
  427HOH     H2 1468   1.970   0.255   3.522
  428HOH      O 1469   2.380   0.677   2.710
  428HOH     H1 1470   2.298   0.690   2.757
  428HOH     H2 1471   2.432   0.622   2.768
  429HOH      O 1472   0.569   3.132   2.592
  429HOH     H1 1473   0.476   3.140   2.574
  429HOH     H2 1474   0.595   3.219   2.624
  430HOH      O 1475   3.246   1.083   1.442
  430HOH     H1 1476   3.240   1.112   1.533
  430HOH     H2 1477   3.184   1.011   1.436
  431HOH      O 1478   1.908   2.810   2.989
  431HOH     H1 1479   1.992   2.798   3.033
  431HOH     H2 1480   1.916   2.895   2.944
  432HOH      O 1481   1.920   1.066   0.228
  432HOH     H1 1482   1.951   1.140   0.176
  432HOH     H2 1483   1.922   1.099   0.318
  433HOH      O 1484   2.959   0.236   1.467
  433HOH     H1 1485   2.988   0.243   1.376
  433HOH     H2 1486   2.929   0.324   1.489
  434HOH      O 1487   2.010   0.714   3.459
  434HOH     H1 1488   1.979   0.789   3.510
  434HOH     H2 1489   1.977   0.638   3.506
  435HOH      O 1490   2.959   2.249   2.469
  435HOH     H1 1491   3.009   2.293   2.537
  435HOH     H2 1492   2.925   2.321   2.415
  436HOH      O 1493   2.876   3.481   1.448
  436HOH     H1 1494   2.950   3.448   1.398
  436HOH     H2 1495   2.861   3.569   1.413
  437HOH      O 1496   2.797   4.005   3.104
  437HOH     H1 1497   2.793   3.924   3.155
  437HOH     H2 1498   2.801   3.976   3.013
  438HOH      O 1499   2.122   0.895   1.677
  438HOH     H1 1500   2.183   0.958   1.716
  438HOH     H2 1501   2.053   0.949   1.639
  439HOH      O 1502   0.864   2.405   2.348
  439HOH     H1 1503   0.947   2.426   2.389
  439HOH     H2 1504   0.823   2.490   2.331
  440HOH      O 1505   1.114   0.934   1.000
  440HOH     H1 1506   1.106   0.970   0.912
  440HOH     H2 1507   1.147   0.845   0.986
  441HOH      O 1508   2.855   2.576   3.177
  441HOH     H1 1509   2.779   2.617   3.217
  441HOH     H2 1510   2.842   2.587   3.083
  442HOH      O 1511   1.887   0.198   1.188
  442HOH     H1 1512   1.793   0.212   1.192
  442HOH     H2 1513   1.910   0.162   1.274
  443HOH      O 1514   3.769   3.338   3.356
  443HOH     H1 1515   3.790   3.405   3.290
  443HOH     H2 1516   3.850   3.328   3.406
  444HOH      O 1517   2.393   1.764   0.212
  444HOH     H1 1518   2.374   1.702   0.282
  444HOH     H2 1519   2.350   1.845   0.239
  445HOH      O 1520   0.706   2.055   1.313
  445HOH     H1 1521   0.669   2.132   1.270
  445HOH     H2 1522   0.756   2.011   1.245
  446HOH      O 1523   3.856   2.882   0.189
  446HOH     H1 1524   3.896   2.965   0.163
  446HOH     H2 1525   3.890   2.864   0.276
  447HOH      O 1526   0.919   2.764   3.203
  447HOH     H1 1527   0.979   2.834   3.227
  447HOH     H2 1528   0.954   2.728   3.122
  448HOH      O 1529   1.620   3.104   2.750
  448HOH     H1 1530   1.595   3.060   2.831
  448HOH     H2 1531   1.642   3.193   2.777
  449HOH      O 1532   3.295   0.151   2.586
  449HOH     H1 1533   3.368   0.177   2.642
  449HOH     H2 1534   3.323   0.069   2.546
  450HOH      O 1535   3.589   0.992   3.383
  450HOH     H1 1536   3.679   0.962   3.370
  450HOH     H2 1537   3.593   1.087   3.367
  451HOH      O 1538   2.175   0.076   3.684
  451HOH     H1 1539   2.172  -0.005   3.633
  451HOH     H2 1540   2.091   0.077   3.730
  452HOH      O 1541   1.853   0.692   2.745
  452HOH     H1 1542   1.793   0.683   2.820
  452HOH     H2 1543   1.796   0.686   2.669
  453HOH      O 1544   1.395   0.461   3.088
  453HOH     H1 1545   1.346   0.528   3.040
  453HOH     H2 1546   1.349   0.452   3.171
  454HOH      O 1547   3.241   0.124   1.701
  454HOH     H1 1548   3.179   0.192   1.676
  454HOH     H2 1549   3.327   0.164   1.694
  455HOH      O 1550   3.050   3.685   2.864
  455HOH     H1 1551   3.011   3.750   2.806
  455HOH     H2 1552   2.987   3.613   2.866
  456HOH      O 1553   3.534   3.665   0.937
  456HOH     H1 1554   3.527   3.611   0.859
  456HOH     H2 1555   3.457   3.722   0.933
  457HOH      O 1556   3.923   3.206   3.719
  457HOH     H1 1557   3.958   3.225   3.632
  457HOH     H2 1558   3.903   3.292   3.756
  458HOH      O 1559   2.963   0.707   1.982
  458HOH     H1 1560   3.045   0.677   2.021
  458HOH     H2 1561   2.977   0.701   1.888
  459HOH      O 1562   2.350   0.668   0.022
  459HOH     H1 1563   2.290   0.622   0.081
  459HOH     H2 1564   2.378   0.601  -0.040
  460HOH      O 1565   2.863   2.736   1.450
  460HOH     H1 1566   2.952   2.734   1.414
  460HOH     H2 1567   2.856   2.821   1.493
  461HOH      O 1568   2.403   1.079   1.404
  461HOH     H1 1569   2.467   1.066   1.473
  461HOH     H2 1570   2.345   1.003   1.410
  462HOH      O 1571   3.997   1.013   0.724
  462HOH     H1 1572   4.036   0.925   0.722
  462HOH     H2 1573   3.907   0.998   0.753
  463HOH      O 1574   2.033   1.975   3.598
  463HOH     H1 1575   2.084   2.056   3.593
  463HOH     H2 1576   1.962   1.996   3.659
  464HOH      O 1577   3.270   3.608   2.608
  464HOH     H1 1578   3.246   3.695   2.578
  464HOH     H2 1579   3.187   3.564   2.623
  465HOH      O 1580   2.249   2.745   1.724
  465HOH     H1 1581   2.255   2.704   1.637
  465HOH     H2 1582   2.311   2.695   1.777
  466HOH      O 1583   0.616   3.525   2.383
  466HOH     H1 1584   0.579   3.458   2.326
  466HOH     H2 1585   0.540   3.567   2.423
  467HOH      O 1586   0.902   0.735   3.767
  467HOH     H1 1587   0.829   0.682   3.799
  467HOH     H2 1588   0.861   0.800   3.710
  468HOH      O 1589   3.347   1.252   3.590
  468HOH     H1 1590   3.337   1.157   3.591
  468HOH     H2 1591   3.371   1.274   3.680
  469HOH      O 1592   0.835   3.297   0.963
  469HOH     H1 1593   0.748   3.261   0.983
  469HOH     H2 1594   0.817   3.381   0.922
  470HOH      O 1595   0.724   1.055   0.477
  470HOH     H1 1596   0.730   1.068   0.382
  470HOH     H2 1597   0.809   1.084   0.510
  471HOH      O 1598   0.734   3.236   1.330
  471HOH     H1 1599   0.798   3.174   1.295
  471HOH     H2 1600   0.665   3.181   1.367
  472HOH      O 1601   0.052   2.781   3.591
  472HOH     H1 1602   0.008   2.788   3.507
  472HOH     H2 1603   0.100   2.863   3.600
  473HOH      O 1604   3.720   3.585   2.539
  473HOH     H1 1605   3.673   3.660   2.577
  473HOH     H2 1606   3.706   3.593   2.445
  474HOH      O 1607   0.971   3.239   1.907
  474HOH     H1 1608   1.034   3.170   1.883
  474HOH     H2 1609   0.945   3.217   1.996
  475HOH      O 1610   0.063   1.084   1.121
  475HOH     H1 1611  -0.020   1.049   1.153
  475HOH     H2 1612   0.050   1.179   1.119
  476HOH      O 1613   1.565   2.916   2.575
  476HOH     H1 1614   1.600   2.978   2.639
  476HOH     H2 1615   1.553   2.967   2.495
  477HOH      O 1616   0.139   0.761   2.953
  477HOH     H1 1617   0.200   0.693   2.980
  477HOH     H2 1618   0.053   0.722   2.965
  478HOH      O 1619   1.618   1.090   2.752
  478HOH     H1 1620   1.651   1.179   2.745
  478HOH     H2 1621   1.679   1.046   2.811
  479HOH      O 1622   2.423   1.691   3.966
  479HOH     H1 1623   2.498   1.645   4.002
  479HOH     H2 1624   2.396   1.751   4.035
  480HOH      O 1625   2.107   0.400   1.327
  480HOH     H1 1626   2.073   0.320   1.368
  480HOH     H2 1627   2.140   0.452   1.401
  481HOH      O 1628   3.154   2.512   1.545
  481HOH     H1 1629   3.177   2.560   1.465
  481HOH     H2 1630   3.192   2.425   1.532
  482HOH      O 1631   0.508   2.468   2.021
  482HOH     H1 1632   0.444   2.400   2.044
  482HOH     H2 1633   0.572   2.423   1.966
  483HOH      O 1634   1.224   2.404   0.490
  483HOH     H1 1635   1.148   2.357   0.525
  483HOH     H2 1636   1.279   2.420   0.567
  484HOH      O 1637   1.984   1.365   0.262
  484HOH     H1 1638   1.901   1.316   0.266
  484HOH     H2 1639   2.004   1.371   0.169
  485HOH      O 1640   2.633   1.781   1.315
  485HOH     H1 1641   2.624   1.746   1.404
  485HOH     H2 1642   2.566   1.735   1.265
  486HOH      O 1643   1.620   0.438   2.947
  486HOH     H1 1644   1.572   0.491   3.010
  486HOH     H2 1645   1.553   0.392   2.897
  487HOH      O 1646   2.997   3.206   0.852
  487HOH     H1 1647   2.942   3.284   0.850
  487HOH     H2 1648   3.072   3.232   0.906
  488HOH      O 1649   1.047   2.222   2.568
  488HOH     H1 1650   1.028   2.167   2.492
  488HOH     H2 1651   1.001   2.181   2.641
  489HOH      O 1652   0.263   0.537   0.020
  489HOH     H1 1653   0.304   0.462   0.061
  489HOH     H2 1654   0.306   0.613   0.059
  490HOH      O 1655   1.715   2.040   0.544
  490HOH     H1 1656   1.704   2.133   0.561
  490HOH     H2 1657   1.763   2.035   0.462
  491HOH      O 1658   2.449   1.051   2.662
  491HOH     H1 1659   2.428   0.981   2.724
  491HOH     H2 1660   2.418   1.018   2.577
  492HOH      O 1661   2.136   2.539   3.272
  492HOH     H1 1662   2.152   2.612   3.332
  492HOH     H2 1663   2.177   2.566   3.190
  493HOH      O 1664   0.621   2.557   2.984
  493HOH     H1 1665   0.686   2.616   2.945
  493HOH     H2 1666   0.631   2.571   3.078
  494HOH      O 1667   2.955   1.751   2.819
  494HOH     H1 1668   2.930   1.781   2.732
  494HOH     H2 1669   2.874   1.719   2.858
  495HOH      O 1670   2.911   3.369   2.383
  495HOH     H1 1671   2.976   3.349   2.316
  495HOH     H2 1672   2.842   3.416   2.337
  496HOH      O 1673   1.985   0.933   2.408
  496HOH     H1 1674   1.991   0.993   2.483
  496HOH     H2 1675   1.901   0.954   2.368
  497HOH      O 1676   2.462   0.333   0.141
  497HOH     H1 1677   2.516   0.294   0.073
  497HOH     H2 1678   2.401   0.389   0.094
  498HOH      O 1679   0.311   1.968   0.604
  498HOH     H1 1680   0.357   1.992   0.523
  498HOH     H2 1681   0.219   1.987   0.585
  499HOH      O 1682   3.398   3.197   3.473
  499HOH     H1 1683   3.379   3.104   3.460
  499HOH     H2 1684   3.433   3.226   3.389
  500HOH      O 1685   2.445   3.360   1.722
  500HOH     H1 1686   2.491   3.309   1.656
  500HOH     H2 1687   2.490   3.340   1.804
  501HOH      O 1688   0.433   2.361   0.647
  501HOH     H1 1689   0.415   2.386   0.556
  501HOH     H2 1690   0.411   2.439   0.698
  502HOH      O 1691   1.240   1.893   3.940
  502HOH     H1 1692   1.203   1.805   3.938
  502HOH     H2 1693   1.317   1.888   3.883
  503HOH      O 1694   1.605   0.848   2.025
  503HOH     H1 1695   1.616   0.781   1.957
  503HOH     H2 1696   1.570   0.924   1.979
  504HOH      O 1697   1.874   1.585   1.253
  504HOH     H1 1698   1.879   1.537   1.335
  504HOH     H2 1699   1.873   1.677   1.280
  505HOH      O 1700   0.083   1.799   1.384
  505HOH     H1 1701   0.103   1.712   1.417
  505HOH     H2 1702   0.042   1.844   1.458
  506HOH      O 1703   1.098   2.572   0.756
  506HOH     H1 1704   1.087   2.604   0.666
  506HOH     H2 1705   1.034   2.502   0.765
  507HOH      O 1706   3.575   0.544   0.314
  507HOH     H1 1707   3.583   0.587   0.229
  507HOH     H2 1708   3.550   0.615   0.374
  508HOH      O 1709   0.226   0.468   0.588
  508HOH     H1 1710   0.148   0.520   0.567
  508HOH     H2 1711   0.191   0.382   0.609
  509HOH      O 1712   0.782   2.443   2.698
  509HOH     H1 1713   0.763   2.516   2.756
  509HOH     H2 1714   0.715   2.448   2.630
  510HOH      O 1715   3.830   0.980   3.078
  510HOH     H1 1716   3.811   1.057   3.131
  510HOH     H2 1717   3.830   0.907   3.140
  511HOH      O 1718   1.923   3.275   1.081
  511HOH     H1 1719   2.003   3.322   1.104
  511HOH     H2 1720   1.943   3.233   0.998
  512HOH      O 1721   3.190   2.016   2.995
  512HOH     H1 1722   3.175   1.948   2.929
  512HOH     H2 1723   3.205   2.096   2.944
  513HOH      O 1724   2.984   3.488   0.152
  513HOH     H1 1725   3.027   3.431   0.216
  513HOH     H2 1726   2.957   3.429   0.081
  514HOH      O 1727   3.132   3.798   2.435
  514HOH     H1 1728   3.039   3.804   2.411
  514HOH     H2 1729   3.162   3.719   2.390
  515HOH      O 1730   3.494   2.379   0.514
  515HOH     H1 1731   3.561   2.393   0.581
  515HOH     H2 1732   3.540   2.332   0.444
  516HOH      O 1733   3.076   1.958   1.686
  516HOH     H1 1734   3.029   1.991   1.762
  516HOH     H2 1735   3.008   1.922   1.629
  517HOH      O 1736   4.040   1.219   2.460
  517HOH     H1 1737   4.061   1.280   2.531
  517HOH     H2 1738   3.945   1.228   2.449
  518HOH      O 1739   2.126   1.493   3.299
  518HOH     H1 1740   2.052   1.495   3.359
  518HOH     H2 1741   2.119   1.408   3.255
  519HOH      O 1742   0.051   2.782   2.767
  519HOH     H1 1743   0.079   2.838   2.694
  519HOH     H2 1744   0.131   2.767   2.817
  520HOH      O 1745   3.268   2.230   2.266
  520HOH     H1 1746   3.199   2.286   2.231
  520HOH     H2 1747   3.233   2.141   2.258
  521HOH      O 1748   4.007   2.514   2.822
  521HOH     H1 1749   4.008   2.599   2.777
  521HOH     H2 1750   4.019   2.535   2.914
  522HOH      O 1751   3.209   3.504   3.723
  522HOH     H1 1752   3.162   3.447   3.663
  522HOH     H2 1753   3.152   3.580   3.734
  523HOH      O 1754   1.517   3.699   3.819
  523HOH     H1 1755   1.467   3.677   3.897
  523HOH     H2 1756   1.473   3.652   3.748
  524HOH      O 1757   3.440   0.324   0.432
  524HOH     H1 1758   3.487   0.256   0.478
  524HOH     H2 1759   3.502   0.396   0.424
  525HOH      O 1760   3.725   3.231   2.705
  525HOH     H1 1761   3.636   3.268   2.702
  525HOH     H2 1762   3.772   3.277   2.635
  526HOH      O 1763   0.382   0.097   1.353
  526HOH     H1 1764   0.467   0.102   1.310
  526HOH     H2 1765   0.396   0.139   1.438
  527HOH      O 1766   0.929   3.901   3.233
  527HOH     H1 1767   0.886   3.936   3.155
  527HOH     H2 1768   0.886   3.945   3.306
  528HOH      O 1769   3.130   2.146   0.295
  528HOH     H1 1770   3.194   2.090   0.252
  528HOH     H2 1771   3.174   2.231   0.303
  529HOH      O 1772   2.298   3.123   3.149
  529HOH     H1 1773   2.337   3.100   3.234
  529HOH     H2 1774   2.371   3.120   3.087
  530HOH      O 1775   3.574   1.236   3.171
  530HOH     H1 1776   3.668   1.225   3.190
  530HOH     H2 1777   3.565   1.204   3.081
  531HOH      O 1778   3.513   3.199   2.952
  531HOH     H1 1779   3.454   3.188   2.878
  531HOH     H2 1780   3.559   3.115   2.959
  532HOH      O 1781   2.598   1.682   1.836
  532HOH     H1 1782   2.525   1.730   1.876
  532HOH     H2 1783   2.598   1.711   1.745
  533HOH      O 1784   2.899   1.110   1.218
  533HOH     H1 1785   2.827   1.123   1.280
  533HOH     H2 1786   2.951   1.040   1.256
  534HOH      O 1787   3.061   0.036   0.042
  534HOH     H1 1788   2.995   0.021   0.110
  534HOH     H2 1789   3.012   0.030  -0.040
  535HOH      O 1790   0.561   3.335   0.622
  535HOH     H1 1791   0.580   3.394   0.549
  535HOH     H2 1792   0.627   3.265   0.614
  536HOH      O 1793   2.434   2.236   3.243
  536HOH     H1 1794   2.522   2.220   3.210
  536HOH     H2 1795   2.396   2.148   3.253
  537HOH      O 1796   1.277   3.023   2.629
  537HOH     H1 1797   1.356   2.976   2.656
  537HOH     H2 1798   1.310   3.106   2.593
  538HOH      O 1799   0.225   1.752   2.418
  538HOH     H1 1800   0.277   1.737   2.339
  538HOH     H2 1801   0.261   1.691   2.482
  539HOH      O 1802   3.059   0.026   2.830
  539HOH     H1 1803   2.978   0.001   2.875
  539HOH     H2 1804   3.031   0.052   2.742
  540HOH      O 1805   2.926   1.602   3.684
  540HOH     H1 1806   2.917   1.588   3.778
  540HOH     H2 1807   2.998   1.664   3.676
  541HOH      O 1808   1.315   2.945   0.297
  541HOH     H1 1809   1.385   2.935   0.361
  541HOH     H2 1810   1.281   3.034   0.312
  542HOH      O 1811   2.653   3.898   0.797
  542HOH     H1 1812   2.592   3.945   0.740
  542HOH     H2 1813   2.734   3.949   0.792
  543HOH      O 1814   1.963   2.632   0.931
  543HOH     H1 1815   1.961   2.720   0.967
  543HOH     H2 1816   1.993   2.643   0.841
  544HOH      O 1817   1.207   1.465   0.877
  544HOH     H1 1818   1.122   1.421   0.883
  544HOH     H2 1819   1.189   1.544   0.825
  545HOH      O 1820   0.907   2.627   0.980
  545HOH     H1 1821   0.941   2.595   0.897
  545HOH     H2 1822   0.920   2.555   1.041
  546HOH      O 1823   2.822   2.840   0.458
  546HOH     H1 1824   2.833   2.759   0.508
  546HOH     H2 1825   2.881   2.831   0.384
  547HOH      O 1826   3.888   1.504   3.287
  547HOH     H1 1827   3.954   1.468   3.228
  547HOH     H2 1828   3.934   1.517   3.370
  548HOH      O 1829   0.191   3.253   1.722
  548HOH     H1 1830   0.106   3.284   1.691
  548HOH     H2 1831   0.182   3.158   1.728
  549HOH      O 1832   3.027   2.430   3.438
  549HOH     H1 1833   3.113   2.459   3.470
  549HOH     H2 1834   2.966   2.495   3.473
  550HOH      O 1835   1.321   3.734   0.924
  550HOH     H1 1836   1.416   3.725   0.937
  550HOH     H2 1837   1.283   3.728   1.011
  551HOH      O 1838   3.543   3.212   3.256
  551HOH     H1 1839   3.625   3.253   3.284
  551HOH     H2 1840   3.541   3.226   3.161
  552HOH      O 1841   1.418   0.349   2.767
  552HOH     H1 1842   1.337   0.358   2.816
  552HOH     H2 1843   1.390   0.343   2.675
  553HOH      O 1844   2.587   0.842   2.342
  553HOH     H1 1845   2.670   0.826   2.386
  553HOH     H2 1846   2.607   0.833   2.248
  554HOH      O 1847   2.276   2.013   3.815
  554HOH     H1 1848   2.230   2.064   3.748
  554HOH     H2 1849   2.310   1.937   3.768
  555HOH      O 1850   3.431   0.326   1.066
  555HOH     H1 1851   3.363   0.261   1.082
  555HOH     H2 1852   3.504   0.276   1.028
  556HOH      O 1853   2.086   1.233   0.039
  556HOH     H1 1854   2.136   1.163  -0.004
  556HOH     H2 1855   2.114   1.312  -0.006
  557HOH      O 1856   0.960   2.015   1.497
  557HOH     H1 1857   0.964   1.922   1.473
  557HOH     H2 1858   0.936   2.059   1.415
  558HOH      O 1859   0.961   1.669   2.109
  558HOH     H1 1860   0.922   1.711   2.186
  558HOH     H2 1861   1.043   1.718   2.094
  559HOH      O 1862   1.093   0.168   3.033
  559HOH     H1 1863   1.117   0.207   2.949
  559HOH     H2 1864   1.176   0.136   3.069
  560HOH      O 1865   2.447   0.456   3.888
  560HOH     H1 1866   2.370   0.405   3.864
  560HOH     H2 1867   2.520   0.396   3.877
  561HOH      O 1868   2.689   1.253   3.630
  561HOH     H1 1869   2.628   1.306   3.681
  561HOH     H2 1870   2.733   1.316   3.572
  562HOH      O 1871   3.442   0.972   0.296
  562HOH     H1 1872   3.408   0.986   0.208
  562HOH     H2 1873   3.513   1.035   0.305
  563HOH      O 1874   3.430   0.549   1.226
  563HOH     H1 1875   3.427   0.495   1.146
  563HOH     H2 1876   3.523   0.562   1.242
  564HOH      O 1877  -0.022   2.334   1.281
  564HOH     H1 1878  -0.036   2.415   1.232
  564HOH     H2 1879   0.062   2.300   1.248
  565HOH      O 1880   0.852   1.662   3.404
  565HOH     H1 1881   0.889   1.746   3.430
  565HOH     H2 1882   0.797   1.636   3.478
  566HOH      O 1883   1.518   3.553   0.612
  566HOH     H1 1884   1.588   3.551   0.677
  566HOH     H2 1885   1.563   3.563   0.528
  567HOH      O 1886   2.036   2.590   1.834
  567HOH     H1 1887   2.108   2.631   1.787
  567HOH     H2 1888   2.064   2.500   1.848
  568HOH      O 1889   0.853   4.041   1.846
  568HOH     H1 1890   0.774   3.989   1.863
  568HOH     H2 1891   0.887   4.005   1.764
  569HOH      O 1892   2.572   3.350   0.351
  569HOH     H1 1893   2.562   3.348   0.256
  569HOH     H2 1894   2.572   3.443   0.373
  570HOH      O 1895   2.304   2.023   0.332
  570HOH     H1 1896   2.265   2.029   0.245
  570HOH     H2 1897   2.305   2.114   0.364
  571HOH      O 1898   0.193   3.343   0.297
  571HOH     H1 1899   0.279   3.308   0.273
  571HOH     H2 1900   0.178   3.414   0.234
  572HOH      O 1901   2.765   2.502   1.987
  572HOH     H1 1902   2.823   2.471   1.918
  572HOH     H2 1903   2.765   2.432   2.052
  573HOH      O 1904   2.095   2.074   2.482
  573HOH     H1 1905   2.002   2.085   2.497
  573HOH     H2 1906   2.135   2.154   2.517
  574HOH      O 1907   1.950   1.777   2.015
  574HOH     H1 1908   2.036   1.769   2.054
  574HOH     H2 1909   1.914   1.858   2.050
  575HOH      O 1910   0.366   0.132   3.337
  575HOH     H1 1911   0.437   0.185   3.373
  575HOH     H2 1912   0.398   0.042   3.345
  576HOH      O 1913   3.069   2.221   1.924
  576HOH     H1 1914   2.978   2.190   1.923
  576HOH     H2 1915   3.079   2.262   2.010
  577HOH      O 1916   2.953   0.103   3.842
  577HOH     H1 1917   3.047   0.121   3.833
  577HOH     H2 1918   2.913   0.153   3.772
  578HOH      O 1919   1.064   3.080   2.828
  578HOH     H1 1920   1.068   2.985   2.826
  578HOH     H2 1921   1.128   3.108   2.763
  579HOH      O 1922   0.121   1.559   2.043
  579HOH     H1 1923   0.160   1.521   1.964
  579HOH     H2 1924   0.052   1.498   2.067
  580HOH      O 1925   3.109   2.723   1.328
  580HOH     H1 1926   3.195   2.763   1.312
  580HOH     H2 1927   3.070   2.715   1.241
  581HOH      O 1928   2.982   0.778   2.300
  581HOH     H1 1929   3.030   0.695   2.302
  581HOH     H2 1930   2.938   0.782   2.385
  582HOH      O 1931   0.752   2.556   1.748
  582HOH     H1 1932   0.831   2.590   1.791
  582HOH     H2 1933   0.721   2.488   1.808
  583HOH      O 1934   2.249   0.401   3.222
  583HOH     H1 1935   2.195   0.444   3.156
  583HOH     H2 1936   2.251   0.463   3.295
  584HOH      O 1937   0.835   0.821   1.452
  584HOH     H1 1938   0.840   0.852   1.361
  584HOH     H2 1939   0.814   0.728   1.444
  585HOH      O 1940   3.662   1.077   1.025
  585HOH     H1 1941   3.690   1.168   1.013
  585HOH     H2 1942   3.611   1.057   0.947
  586HOH      O 1943   1.508   0.948   2.541
  586HOH     H1 1944   1.422   0.987   2.557
  586HOH     H2 1945   1.561   0.976   2.616
  587HOH      O 1946   1.922   1.346   1.137
  587HOH     H1 1947   1.909   1.434   1.171
  587HOH     H2 1948   1.981   1.357   1.063
  588HOH      O 1949   0.902   2.354   0.799
  588HOH     H1 1950   0.938   2.268   0.778
  588HOH     H2 1951   0.884   2.349   0.893
  589HOH      O 1952   2.050   1.394   2.575
  589HOH     H1 1953   2.143   1.404   2.592
  589HOH     H2 1954   2.012   1.477   2.603
  590HOH      O 1955   2.861   3.452   0.932
  590HOH     H1 1956   2.814   3.506   0.869
  590HOH     H2 1957   2.796   3.387   0.962
  591HOH      O 1958   2.811   3.766   3.251
  591HOH     H1 1959   2.834   3.791   3.341
  591HOH     H2 1960   2.876   3.700   3.227
  592HOH      O 1961   3.068   1.598   0.834
  592HOH     H1 1962   3.108   1.661   0.775
  592HOH     H2 1963   3.066   1.516   0.785
  593HOH      O 1964   1.001   0.869   2.075
  593HOH     H1 1965   0.973   0.896   1.987
  593HOH     H2 1966   0.999   0.950   2.126
  594HOH      O 1967   0.473   2.581   0.838
  594HOH     H1 1968   0.522   2.662   0.823
  594HOH     H2 1969   0.506   2.548   0.921
  595HOH      O 1970   2.242   3.509   1.870
  595HOH     H1 1971   2.253   3.440   1.805
  595HOH     H2 1972   2.196   3.579   1.824
  596HOH      O 1973   0.466   1.420   2.696
  596HOH     H1 1974   0.371   1.412   2.698
  596HOH     H2 1975   0.488   1.426   2.603
  597HOH      O 1976   0.562   0.781   0.409
  597HOH     H1 1977   0.652   0.765   0.381
  597HOH     H2 1978   0.544   0.871   0.382
  598HOH      O 1979   1.667   0.121   2.646
  598HOH     H1 1980   1.758   0.114   2.618
  598HOH     H2 1981   1.616   0.118   2.565
  599HOH      O 1982   1.993   3.252   0.336
  599HOH     H1 1983   2.010   3.240   0.242
  599HOH     H2 1984   1.945   3.335   0.340
  600HOH      O 1985   3.227   0.157   2.983
  600HOH     H1 1986   3.255   0.219   2.916
  600HOH     H2 1987   3.163   0.101   2.938
  601HOH      O 1988   3.245   0.630   2.650
  601HOH     H1 1989   3.199   0.558   2.693
  601HOH     H2 1990   3.310   0.587   2.595
  602HOH      O 1991   0.259   3.469   0.679
  602HOH     H1 1992   0.283   3.476   0.772
  602HOH     H2 1993   0.337   3.432   0.638
  603HOH      O 1994   3.895   2.706   1.823
  603HOH     H1 1995   3.911   2.800   1.826
  603HOH     H2 1996   3.902   2.678   1.915
  604HOH      O 1997   2.581   0.282   3.309
  604HOH     H1 1998   2.664   0.328   3.316
  604HOH     H2 1999   2.534   0.304   3.389
  605HOH      O 2000   1.740   2.392   2.450
  605HOH     H1 2001   1.700   2.456   2.392
  605HOH     H2 2002   1.676   2.322   2.457
  606HOH      O 2003   2.275   3.160   0.941
  606HOH     H1 2004   2.315   3.178   0.856
  606HOH     H2 2005   2.260   3.247   0.979
  607HOH      O 2006   3.141   0.486   3.571
  607HOH     H1 2007   3.087   0.458   3.646
  607HOH     H2 2008   3.101   0.567   3.541
  608HOH      O 2009   1.678   1.552   1.011
  608HOH     H1 2010   1.645   1.463   0.997
  608HOH     H2 2011   1.732   1.546   1.089
  609HOH      O 2012   2.500   0.120   0.978
  609HOH     H1 2013   2.418   0.076   1.001
  609HOH     H2 2014   2.475   0.180   0.908
  610HOH      O 2015   2.651   2.381   0.560
  610HOH     H1 2016   2.584   2.402   0.624
  610HOH     H2 2017   2.627   2.293   0.529
  611HOH      O 2018   0.837   0.288   1.815
  611HOH     H1 2019   0.750   0.328   1.813
  611HOH     H2 2020   0.821   0.194   1.809
  612HOH      O 2021   2.344   2.269   0.534
  612HOH     H1 2022   2.419   2.209   0.537
  612HOH     H2 2023   2.336   2.291   0.441
  613HOH      O 2024   0.539   0.105   0.850
  613HOH     H1 2025   0.483   0.030   0.869
  613HOH     H2 2026   0.562   0.095   0.757
  614HOH      O 2027   3.455   0.253   1.643
  614HOH     H1 2028   3.499   0.338   1.634
  614HOH     H2 2029   3.475   0.207   1.562
  615HOH      O 2030   3.785   1.219   2.392
  615HOH     H1 2031   3.708   1.221   2.448
  615HOH     H2 2032   3.779   1.299   2.339
  616HOH      O 2033   0.512   1.479   2.419
  616HOH     H1 2034   0.559   1.422   2.359
  616HOH     H2 2035   0.568   1.555   2.429
  617HOH      O 2036   2.525   0.403   1.522
  617HOH     H1 2037   2.496   0.399   1.613
  617HOH     H2 2038   2.510   0.493   1.496
  618HOH      O 2039   3.967   1.174   0.513
  618HOH     H1 2040   4.062   1.171   0.503
  618HOH     H2 2041   3.948   1.111   0.583
  619HOH      O 2042   3.459   1.919   2.140
  619HOH     H1 2043   3.391   1.955   2.083
  619HOH     H2 2044   3.428   1.937   2.229
  620HOH      O 2045   0.596   2.119   0.645
  620HOH     H1 2046   0.532   2.077   0.702
  620HOH     H2 2047   0.583   2.213   0.660
  621HOH      O 2048   3.230   2.556   1.978
  621HOH     H1 2049   3.286   2.481   1.954
  621HOH     H2 2050   3.224   2.608   1.899
  622HOH      O 2051   1.914   2.421   3.373
  622HOH     H1 2052   1.857   2.435   3.297
  622HOH     H2 2053   1.997   2.462   3.347
  623HOH      O 2054   2.505   3.892   2.807
  623HOH     H1 2055   2.481   3.811   2.762
  623HOH     H2 2056   2.479   3.962   2.747
  624HOH      O 2057   3.201   1.022   1.110
  624HOH     H1 2058   3.255   0.949   1.142
  624HOH     H2 2059   3.111   0.990   1.116
  625HOH      O 2060   2.670   0.473   3.525
  625HOH     H1 2061   2.730   0.517   3.464
  625HOH     H2 2062   2.634   0.544   3.579
  626HOH      O 2063   1.223   0.429   0.535
  626HOH     H1 2064   1.277   0.350   0.536
  626HOH     H2 2065   1.135   0.397   0.514
  627HOH      O 2066   1.219   1.261   1.333
  627HOH     H1 2067   1.180   1.311   1.261
  627HOH     H2 2068   1.194   1.309   1.412
  628HOH      O 2069   1.886   3.542   2.091
  628HOH     H1 2070   1.796   3.512   2.090
  628HOH     H2 2071   1.890   3.611   2.025
  629HOH      O 2072   3.705   3.541   1.116
  629HOH     H1 2073   3.789   3.538   1.072
  629HOH     H2 2074   3.646   3.583   1.053
  630HOH      O 2075   3.061   3.272   0.299
  630HOH     H1 2076   3.053   3.203   0.233
  630HOH     H2 2077   3.038   3.229   0.381
  631HOH      O 2078   0.987   3.894   1.657
  631HOH     H1 2079   0.938   3.820   1.621
  631HOH     H2 2080   0.996   3.955   1.583
  632HOH      O 2081   2.712   1.438   2.546
  632HOH     H1 2082   2.772   1.463   2.477
  632HOH     H2 2083   2.658   1.516   2.560
  633HOH      O 2084   1.240   3.216   0.466
  633HOH     H1 2085   1.310   3.235   0.529
  633HOH     H2 2086   1.242   3.289   0.404
  634HOH      O 2087   3.747   2.426   1.085
  634HOH     H1 2088   3.689   2.456   1.016
  634HOH     H2 2089   3.821   2.487   1.083
  635HOH      O 2090   2.605   4.013   0.102
  635HOH     H1 2091   2.630   4.034   0.192
  635HOH     H2 2092   2.581   3.920   0.106
  636HOH      O 2093   3.681   3.437   1.816
  636HOH     H1 2094   3.759   3.387   1.840
  636HOH     H2 2095   3.641   3.461   1.899
  637HOH      O 2096   0.723   0.357   0.692
  637HOH     H1 2097   0.638   0.343   0.652
  637HOH     H2 2098   0.783   0.369   0.617
  638HOH      O 2099   2.701   4.019   1.153
  638HOH     H1 2100   2.719   3.927   1.134
  638HOH     H2 2101   2.639   4.047   1.085
  639HOH      O 2102   0.079   3.797   0.217
  639HOH     H1 2103   0.114   3.875   0.173
  639HOH     H2 2104  -0.006   3.782   0.175
  640HOH      O 2105   2.734   0.223   2.961
  640HOH     H1 2106   2.779   0.152   3.009
  640HOH     H2 2107   2.739   0.298   3.020
  641HOH      O 2108   2.743   2.449   0.294
  641HOH     H1 2109   2.673   2.397   0.253
  641HOH     H2 2110   2.794   2.483   0.221
  642HOH      O 2111   1.851   2.168   2.600
  642HOH     H1 2112   1.794   2.209   2.535
  642HOH     H2 2113   1.798   2.167   2.680
  643HOH      O 2114   0.406   3.151   2.218
  643HOH     H1 2115   0.361   3.179   2.297
  643HOH     H2 2116   0.340   3.161   2.149
  644HOH      O 2117   2.029   0.564   0.188
  644HOH     H1 2118   1.949   0.583   0.140
  644HOH     H2 2119   2.056   0.648   0.225
  645HOH      O 2120   3.626   2.551   0.825
  645HOH     H1 2121   3.707   2.570   0.778
  645HOH     H2 2122   3.557   2.561   0.759
  646HOH      O 2123   2.582   0.053   2.255
  646HOH     H1 2124   2.595  -0.035   2.290
  646HOH     H2 2125   2.611   0.111   2.325
  647HOH      O 2126   2.859   3.151   1.334
  647HOH     H1 2127   2.902   3.096   1.268
  647HOH     H2 2128   2.820   3.223   1.283
  648HOH      O 2129   2.109   3.766   1.349
  648HOH     H1 2130   2.194   3.809   1.359
  648HOH     H2 2131   2.116   3.687   1.404
  649HOH      O 2132   2.552   3.490   3.153
  649HOH     H1 2133   2.618   3.442   3.102
  649HOH     H2 2134   2.481   3.506   3.090
  650HOH      O 2135   3.405   3.011   2.156
  650HOH     H1 2136   3.466   2.981   2.224
  650HOH     H2 2137   3.346   2.937   2.143
  651HOH      O 2138   0.334   0.020   2.675
  651HOH     H1 2139   0.268   0.006   2.607
  651HOH     H2 2140   0.289   0.001   2.757
  652HOH      O 2141   1.550   2.298   2.800
  652HOH     H1 2142   1.535   2.242   2.723
  652HOH     H2 2143   1.582   2.237   2.867
  653HOH      O 2144   1.910   0.139   2.490
  653HOH     H1 2145   1.927   0.106   2.401
  653HOH     H2 2146   1.885   0.230   2.478
  654HOH      O 2147   1.811   0.551   3.101
  654HOH     H1 2148   1.782   0.553   3.192
  654HOH     H2 2149   1.740   0.508   3.053
  655HOH      O 2150   2.170   0.470   1.676
  655HOH     H1 2151   2.225   0.498   1.749
  655HOH     H2 2152   2.120   0.395   1.710
  656HOH      O 2153   2.606   0.661   1.862
  656HOH     H1 2154   2.528   0.695   1.818
  656HOH     H2 2155   2.595   0.566   1.858
  657HOH      O 2156   2.892   0.443   1.216
  657HOH     H1 2157   2.886   0.352   1.188
  657HOH     H2 2158   2.877   0.493   1.136
  658HOH      O 2159   3.001   0.401   0.249
  658HOH     H1 2160   3.045   0.354   0.178
  658HOH     H2 2161   3.067   0.463   0.281
  659HOH      O 2162   3.932   1.254   2.778
  659HOH     H1 2163   3.930   1.348   2.800
  659HOH     H2 2164   3.959   1.211   2.860
  660HOH      O 2165   2.587   2.117   0.470
  660HOH     H1 2166   2.618   2.042   0.522
  660HOH     H2 2167   2.626   2.103   0.383
  661HOH      O 2168   0.905   0.900   2.883
  661HOH     H1 2169   1.000   0.914   2.883
  661HOH     H2 2170   0.869   0.984   2.911
  662HOH      O 2171   2.913   1.064   2.775
  662HOH     H1 2172   2.888   0.977   2.805
  662HOH     H2 2173   2.847   1.086   2.709
  663HOH      O 2174   3.247   2.442   1.258
  663HOH     H1 2175   3.321   2.487   1.218
  663HOH     H2 2176   3.257   2.351   1.232
  664HOH      O 2177   3.845   1.939   1.170
  664HOH     H1 2178   3.830   1.855   1.215
  664HOH     H2 2179   3.868   1.999   1.241
  665HOH      O 2180   2.843   1.044   0.948
  665HOH     H1 2181   2.844   1.110   1.016
  665HOH     H2 2182   2.852   0.961   0.995
  666HOH      O 2183   1.846   1.016   3.169
  666HOH     H1 2184   1.919   0.971   3.211
  666HOH     H2 2185   1.794   1.050   3.241
  667HOH      O 2186   3.807   1.645   3.788
  667HOH     H1 2187   3.807   1.740   3.780
  667HOH     H2 2188   3.895   1.624   3.821
  668HOH      O 2189   3.595   0.154   0.605
  668HOH     H1 2190   3.654   0.217   0.647
  668HOH     H2 2191   3.648   0.114   0.536
  669HOH      O 2192   1.608   0.182   1.321
  669HOH     H1 2193   1.562   0.260   1.289
  669HOH     H2 2194   1.632   0.204   1.411
  670HOH      O 2195   3.652   2.071   0.592
  670HOH     H1 2196   3.699   2.049   0.673
  670HOH     H2 2197   3.709   2.040   0.522
  671HOH      O 2198   2.953   2.923   0.241
  671HOH     H1 2199   3.031   2.945   0.190
  671HOH     H2 2200   2.897   3.000   0.232
  672HOH      O 2201   1.590   2.605   1.421
  672HOH     H1 2202   1.581   2.677   1.359
  672HOH     H2 2203   1.633   2.536   1.370
  673HOH      O 2204   3.539   3.754   2.640
  673HOH     H1 2205   3.466   3.692   2.644
  673HOH     H2 2206   3.498   3.840   2.651
  674HOH      O 2207   0.065   2.099   0.636
  674HOH     H1 2208   0.063   2.194   0.623
  674HOH     H2 2209   0.097   2.088   0.726
  675HOH      O 2210   0.293   0.920   0.711
  675HOH     H1 2211   0.368   0.974   0.684
  675HOH     H2 2212   0.322   0.830   0.697
  676HOH      O 2213   3.100   2.029   2.399
  676HOH     H1 2214   3.024   1.980   2.366
  676HOH     H2 2215   3.063   2.111   2.432
  677HOH      O 2216   3.090   1.374   3.649
  677HOH     H1 2217   3.178   1.401   3.624
  677HOH     H2 2218   3.041   1.456   3.654
  678HOH      O 2219   1.551   2.927   0.762
  678HOH     H1 2220   1.534   2.834   0.777
  678HOH     H2 2221   1.532   2.940   0.669
  679HOH      O 2222   1.488   2.433   1.933
  679HOH     H1 2223   1.432   2.367   1.893
  679HOH     H2 2224   1.576   2.412   1.900
  680HOH      O 2225   2.554   3.748   3.236
  680HOH     H1 2226   2.527   3.656   3.233
  680HOH     H2 2227   2.650   3.746   3.229
  681HOH      O 2228   0.525   0.636   1.381
  681HOH     H1 2229   0.619   0.616   1.380
  681HOH     H2 2230   0.483   0.557   1.345
  682HOH      O 2231   3.299   2.840   0.308
  682HOH     H1 2232   3.327   2.771   0.248
  682HOH     H2 2233   3.288   2.797   0.392
  683HOH      O 2234   3.742   0.341   0.749
  683HOH     H1 2235   3.798   0.419   0.756
  683HOH     H2 2236   3.787   0.275   0.801
  684HOH      O 2237   2.057   3.697   0.379
  684HOH     H1 2238   2.147   3.664   0.385
  684HOH     H2 2239   2.049   3.729   0.289
  685HOH      O 2240   1.702   0.275   0.918
  685HOH     H1 2241   1.793   0.282   0.949
  685HOH     H2 2242   1.707   0.297   0.825
  686HOH      O 2243   2.287   1.977   2.919
  686HOH     H1 2244   2.383   1.975   2.917
  686HOH     H2 2245   2.261   1.971   2.827
  687HOH      O 2246   1.832   1.194   3.952
  687HOH     H1 2247   1.927   1.186   3.959
  687HOH     H2 2248   1.798   1.113   3.991
  688HOH      O 2249   0.399   2.635   3.621
  688HOH     H1 2250   0.320   2.590   3.649
  688HOH     H2 2251   0.443   2.574   3.562
  689HOH      O 2252   3.660   1.802   2.726
  689HOH     H1 2253   3.713   1.807   2.806
  689HOH     H2 2254   3.594   1.735   2.746
  690HOH      O 2255   1.413   3.956   2.524
  690HOH     H1 2256   1.430   4.033   2.469
  690HOH     H2 2257   1.333   3.919   2.487
  691HOH      O 2258   1.980   0.675   1.777
  691HOH     H1 2259   2.022   0.759   1.757
  691HOH     H2 2260   2.029   0.641   1.852
  692HOH      O 2261   2.054   1.144   3.643
  692HOH     H1 2262   2.060   1.085   3.718
  692HOH     H2 2263   1.961   1.167   3.638
  693HOH      O 2264   0.257   0.651   3.638
  693HOH     H1 2265   0.343   0.676   3.671
  693HOH     H2 2266   0.237   0.717   3.571
  694HOH      O 2267   2.895   3.800   1.717
  694HOH     H1 2268   2.844   3.770   1.792
  694HOH     H2 2269   2.984   3.807   1.749
  695HOH      O 2270   1.730   1.283   0.368
  695HOH     H1 2271   1.683   1.260   0.449
  695HOH     H2 2272   1.724   1.378   0.364
  696HOH      O 2273   0.293   0.459   1.262
  696HOH     H1 2274   0.323   0.518   1.193
  696HOH     H2 2275   0.260   0.382   1.215
  697HOH      O 2276   3.280   2.476   3.086
  697HOH     H1 2277   3.339   2.547   3.061
  697HOH     H2 2278   3.313   2.399   3.040
  698HOH      O 2279   1.471   1.404   2.867
  698HOH     H1 2280   1.538   1.394   2.800
  698HOH     H2 2281   1.399   1.348   2.837
  699HOH      O 2282   0.879   0.690   2.493
  699HOH     H1 2283   0.815   0.761   2.492
  699HOH     H2 2284   0.878   0.656   2.404
  700HOH      O 2285   2.919   1.197   0.487
  700HOH     H1 2286   2.946   1.135   0.420
  700HOH     H2 2287   2.829   1.173   0.507
  701HOH      O 2288   3.281   3.811   1.143
  701HOH     H1 2289   3.286   3.901   1.177
  701HOH     H2 2290   3.333   3.760   1.204
  702HOH      O 2291   0.131   2.036   1.239
  702HOH     H1 2292   0.173   2.054   1.323
  702HOH     H2 2293   0.072   1.963   1.256
  703HOH      O 2294   0.950   1.495   0.698
  703HOH     H1 2295   0.953   1.584   0.735
  703HOH     H2 2296   1.005   1.500   0.620
  704HOH      O 2297   2.582   0.587   0.798
  704HOH     H1 2298   2.564   0.496   0.774
  704HOH     H2 2299   2.564   0.637   0.719
  705HOH      O 2300   1.487   3.170   3.399
  705HOH     H1 2301   1.464   3.256   3.433
  705HOH     H2 2302   1.506   3.184   3.307
  706HOH      O 2303   1.539   1.470   3.506
  706HOH     H1 2304   1.496   1.412   3.445
  706HOH     H2 2305   1.612   1.508   3.456
  707HOH      O 2306   0.588   1.021   2.006
  707HOH     H1 2307   0.648   1.094   2.022
  707HOH     H2 2308   0.502   1.062   1.997
  708HOH      O 2309   3.170   3.442   3.108
  708HOH     H1 2310   3.230   3.399   3.169
  708HOH     H2 2311   3.199   3.415   3.021
  709HOH      O 2312   1.866   3.108   3.179
  709HOH     H1 2313   1.907   3.164   3.245
  709HOH     H2 2314   1.876   3.019   3.213
  710HOH      O 2315   2.372   1.961   3.222
  710HOH     H1 2316   2.423   1.881   3.212
  710HOH     H2 2317   2.312   1.961   3.147
  711HOH      O 2318   0.074   0.145   1.254
  711HOH     H1 2319  -0.020   0.134   1.260
  711HOH     H2 2320   0.086   0.222   1.198
  712HOH      O 2321   2.109   3.940   3.972
  712HOH     H1 2322   2.053   4.002   3.926
  712HOH     H2 2323   2.183   3.992   4.003
  713HOH      O 2324   0.045   1.175   3.338
  713HOH     H1 2325   0.086   1.091   3.319
  713HOH     H2 2326   0.112   1.240   3.320
  714HOH      O 2327   2.558   0.391   1.178
  714HOH     H1 2328   2.582   0.322   1.116
  714HOH     H2 2329   2.586   0.358   1.263
  715HOH      O 2330   1.286   3.717   1.196
  715HOH     H1 2331   1.270   3.641   1.253
  715HOH     H2 2332   1.214   3.777   1.216
  716HOH      O 2333   0.724   3.492   2.915
  716HOH     H1 2334   0.733   3.585   2.892
  716HOH     H2 2335   0.812   3.465   2.942
  717HOH      O 2336   0.444   3.301   0.141
  717HOH     H1 2337   0.388   3.306   0.064
  717HOH     H2 2338   0.527   3.268   0.108
  718HOH      O 2339   1.631   0.318   1.578
  718HOH     H1 2340   1.543   0.345   1.605
  718HOH     H2 2341   1.689   0.357   1.643
  719HOH      O 2342   3.423   0.688   3.710
  719HOH     H1 2343   3.328   0.676   3.717
  719HOH     H2 2344   3.439   0.702   3.617
  720HOH      O 2345   0.638   2.230   3.855
  720HOH     H1 2346   0.572   2.212   3.788
  720HOH     H2 2347   0.707   2.165   3.839
  721HOH      O 2348   2.410   0.888   0.531
  721HOH     H1 2349   2.323   0.928   0.532
  721HOH     H2 2350   2.463   0.945   0.586
  722HOH      O 2351   3.549   3.243   0.273
  722HOH     H1 2352   3.540   3.338   0.281
  722HOH     H2 2353   3.508   3.222   0.189
  723HOH      O 2354   0.152   2.579   0.821
  723HOH     H1 2355   0.234   2.530   0.834
  723HOH     H2 2356   0.175   2.646   0.756
  724HOH      O 2357   1.188   3.456   1.067
  724HOH     H1 2358   1.175   3.443   0.973
  724HOH     H2 2359   1.278   3.430   1.083
  725HOH      O 2360   3.790   0.955   1.246
  725HOH     H1 2361   3.795   1.023   1.314
  725HOH     H2 2362   3.760   1.001   1.168
  726HOH      O 2363   1.785   2.434   1.025
  726HOH     H1 2364   1.716   2.483   1.070
  726HOH     H2 2365   1.854   2.498   1.009
  727HOH      O 2366   3.910   0.684   1.832
  727HOH     H1 2367   3.852   0.617   1.868
  727HOH     H2 2368   3.984   0.688   1.893
  728HOH      O 2369   0.515   1.164   3.073
  728HOH     H1 2370   0.420   1.178   3.065
  728HOH     H2 2371   0.524   1.070   3.088
  729HOH      O 2372   0.427   1.389   0.630
  729HOH     H1 2373   0.467   1.464   0.673
  729HOH     H2 2374   0.360   1.426   0.573
  730HOH      O 2375   3.845   0.154   0.949
  730HOH     H1 2376   3.847   0.200   1.033
  730HOH     H2 2377   3.934   0.121   0.938
  731HOH      O 2378   0.314   3.358   2.732
  731HOH     H1 2379   0.351   3.417   2.798
  731HOH     H2 2380   0.220   3.372   2.737
  732HOH      O 2381   2.247   2.437   3.765
  732HOH     H1 2382   2.155   2.464   3.770
  732HOH     H2 2383   2.243   2.349   3.728
  733HOH      O 2384   2.863   2.035   1.877
  733HOH     H1 2385   2.826   1.963   1.928
  733HOH     H2 2386   2.787   2.085   1.847
  734HOH      O 2387   3.193   2.573   3.991
  734HOH     H1 2388   3.210   2.497   3.935
  734HOH     H2 2389   3.100   2.569   4.010
  735HOH      O 2390   0.867   3.067   2.460
  735HOH     H1 2391   0.778   3.038   2.483
  735HOH     H2 2392   0.856   3.158   2.434
  736HOH      O 2393   0.343   0.828   1.423
  736HOH     H1 2394   0.366   0.905   1.369
  736HOH     H2 2395   0.412   0.765   1.404
  737HOH      O 2396   3.137   2.066   3.245
  737HOH     H1 2397   3.166   2.075   3.155
  737HOH     H2 2398   3.113   2.155   3.272
  738HOH      O 2399   0.695   1.370   2.253
  738HOH     H1 2400   0.666   1.342   2.167
  738HOH     H2 2401   0.790   1.377   2.245
  739HOH      O 2402   2.451   3.519   2.076
  739HOH     H1 2403   2.370   3.553   2.038
  739HOH     H2 2404   2.474   3.445   2.020
  740HOH      O 2405   2.092   2.167   2.028
  740HOH     H1 2406   2.052   2.252   2.041
  740HOH     H2 2407   2.056   2.111   2.097
  741HOH      O 2408   2.600   0.629   3.730
  741HOH     H1 2409   2.679   0.653   3.778
  741HOH     H2 2410   2.551   0.572   3.790
  742HOH      O 2411   0.012   0.564   2.407
  742HOH     H1 2412   0.062   0.636   2.445
  742HOH     H2 2413   0.060   0.540   2.328
  743HOH      O 2414   1.694   2.785   1.223
  743HOH     H1 2415   1.652   2.857   1.270
  743HOH     H2 2416   1.784   2.783   1.256
  744HOH      O 2417   2.332   2.802   3.339
  744HOH     H1 2418   2.296   2.800   3.251
  744HOH     H2 2419   2.372   2.889   3.347
  745HOH      O 2420   2.046   0.996   2.946
  745HOH     H1 2421   2.023   0.990   3.039
  745HOH     H2 2422   2.140   1.010   2.946
  746HOH      O 2423   1.078   0.113   2.708
  746HOH     H1 2424   1.141   0.044   2.727
  746HOH     H2 2425   1.118   0.162   2.636
  747HOH      O 2426   2.399   0.622   1.418
  747HOH     H1 2427   2.304   0.612   1.422
  747HOH     H2 2428   2.414   0.674   1.339
  748HOH      O 2429   2.493   1.878   1.561
  748HOH     H1 2430   2.399   1.871   1.545
  748HOH     H2 2431   2.525   1.938   1.493
  749HOH      O 2432   3.357   2.562   0.758
  749HOH     H1 2433   3.385   2.515   0.679
  749HOH     H2 2434   3.293   2.504   0.799
  750HOH      O 2435   2.704   2.303   2.625
  750HOH     H1 2436   2.627   2.248   2.608
  750HOH     H2 2437   2.773   2.241   2.650
  751HOH      O 2438   0.808   3.726   0.588
  751HOH     H1 2439   0.791   3.643   0.633
  751HOH     H2 2440   0.848   3.782   0.654
  752HOH      O 2441   3.063   3.590   1.057
  752HOH     H1 2442   3.067   3.541   1.139
  752HOH     H2 2443   2.994   3.548   1.006
  753HOH      O 2444   2.723   1.270   2.152
  753HOH     H1 2445   2.699   1.181   2.126
  753HOH     H2 2446   2.679   1.326   2.088
  754HOH      O 2447   2.748   3.622   0.206
  754HOH     H1 2448   2.825   3.567   0.190
  754HOH     H2 2449   2.777   3.687   0.270
  755HOH      O 2450   3.318   3.801   1.533
  755HOH     H1 2451   3.245   3.744   1.556
  755HOH     H2 2452   3.306   3.879   1.587
  756HOH      O 2453   2.014   2.804   1.314
  756HOH     H1 2454   2.079   2.867   1.284
  756HOH     H2 2455   2.057   2.719   1.307
  757HOH      O 2456   3.640   3.906   1.064
  757HOH     H1 2457   3.609   3.817   1.046
  757HOH     H2 2458   3.731   3.906   1.037
  758HOH      O 2459   0.998   3.419   3.987
  758HOH     H1 2460   1.066   3.356   4.007
  758HOH     H2 2461   0.980   3.463   4.070
  759HOH      O 2462   0.153   2.363   2.611
  759HOH     H1 2463   0.089   2.375   2.681
  759HOH     H2 2464   0.238   2.369   2.655
  760HOH      O 2465   2.163   3.616   0.745
  760HOH     H1 2466   2.251   3.624   0.708
  760HOH     H2 2467   2.124   3.542   0.698
  761HOH      O 2468   0.552   2.572   2.267
  761HOH     H1 2469   0.476   2.580   2.325
  761HOH     H2 2470   0.519   2.529   2.189
  762HOH      O 2471   3.111   0.284   2.116
  762HOH     H1 2472   3.189   0.310   2.067
  762HOH     H2 2473   3.039   0.326   2.069
  763HOH      O 2474   0.529   2.468   2.576
  763HOH     H1 2475   0.445   2.445   2.616
  763HOH     H2 2476   0.526   2.563   2.567
  764HOH      O 2477   0.467   3.225   3.584
  764HOH     H1 2478   0.424   3.285   3.522
  764HOH     H2 2479   0.458   3.139   3.543
  765HOH      O 2480   3.159   0.317   0.800
  765HOH     H1 2481   3.252   0.299   0.788
  765HOH     H2 2482   3.154   0.412   0.814
  766HOH      O 2483   3.978   0.844   1.644
  766HOH     H1 2484   3.937   0.794   1.715
  766HOH     H2 2485   4.036   0.781   1.601
  767HOH      O 2486   3.371   1.773   1.749
  767HOH     H1 2487   3.281   1.768   1.717
  767HOH     H2 2488   3.392   1.683   1.774
  768HOH      O 2489   2.291   2.247   1.512
  768HOH     H1 2490   2.277   2.337   1.483
  768HOH     H2 2491   2.224   2.196   1.467
  769HOH      O 2492   3.871   1.940   3.779
  769HOH     H1 2493   3.871   1.978   3.691
  769HOH     H2 2494   3.843   2.011   3.836
  770HOH      O 2495   0.398   3.773   1.164
  770HOH     H1 2496   0.464   3.842   1.167
  770HOH     H2 2497   0.351   3.781   1.247
  771HOH      O 2498   1.023   2.873   3.890
  771HOH     H1 2499   1.010   2.967   3.899
  771HOH     H2 2500   0.938   2.834   3.911
  772HOH      O 2501   2.442   0.851   0.922
  772HOH     H1 2502   2.394   0.770   0.939
  772HOH     H2 2503   2.394   0.918   0.970
  773HOH      O 2504   0.065   3.997   0.970
  773HOH     H1 2505   0.037   3.923   1.024
  773HOH     H2 2506   0.136   4.038   1.021
  774HOH      O 2507   0.028   0.160   2.604
  774HOH     H1 2508   0.039   0.183   2.696
  774HOH     H2 2509  -0.018   0.235   2.565
  775HOH      O 2510   1.132   3.014   1.905
  775HOH     H1 2511   1.209   3.071   1.908
  775HOH     H2 2512   1.143   2.963   1.825
  776HOH      O 2513   1.071   0.408   2.305
  776HOH     H1 2514   1.109   0.339   2.250
  776HOH     H2 2515   1.035   0.471   2.243
  777HOH      O 2516   2.570   1.035   1.652
  777HOH     H1 2517   2.651   0.993   1.677
  777HOH     H2 2518   2.577   1.124   1.687
  778HOH      O 2519   2.763   3.053   0.769
  778HOH     H1 2520   2.739   3.121   0.705
  778HOH     H2 2521   2.850   3.079   0.800
  779HOH      O 2522   0.860   0.019   3.002
  779HOH     H1 2523   0.794   0.083   2.975
  779HOH     H2 2524   0.939   0.070   3.015
  780HOH      O 2525   3.729   3.741   3.665
  780HOH     H1 2526   3.787   3.685   3.612
  780HOH     H2 2527   3.788   3.786   3.725
  781HOH      O 2528   0.391   2.111   3.559
  781HOH     H1 2529   0.358   2.093   3.647
  781HOH     H2 2530   0.315   2.141   3.510
  782HOH      O 2531   1.732   0.539   1.104
  782HOH     H1 2532   1.729   0.447   1.077
  782HOH     H2 2533   1.820   0.567   1.083
  783HOH      O 2534   1.127   3.979   0.478
  783HOH     H1 2535   1.040   3.991   0.516
  783HOH     H2 2536   1.125   3.891   0.440
  784HOH      O 2537   0.457   3.814   2.346
  784HOH     H1 2538   0.515   3.835   2.420
  784HOH     H2 2539   0.379   3.866   2.363
  785HOH      O 2540   1.146   2.935   3.198
  785HOH     H1 2541   1.241   2.942   3.185
  785HOH     H2 2542   1.124   3.008   3.255
  786HOH      O 2543   2.107   0.769   2.790
  786HOH     H1 2544   2.098   0.853   2.834
  786HOH     H2 2545   2.017   0.738   2.777
  787HOH      O 2546   2.279   3.598   1.008
  787HOH     H1 2547   2.217   3.607   0.937
  787HOH     H2 2548   2.349   3.661   0.988
  788HOH      O 2549   2.622   1.323   2.870
  788HOH     H1 2550   2.692   1.324   2.935
  788HOH     H2 2551   2.664   1.347   2.788
  789HOH      O 2552   2.415   2.688   0.338
  789HOH     H1 2553   2.368   2.764   0.303
  789HOH     H2 2554   2.480   2.667   0.271
  790HOH      O 2555   0.253   2.052   2.929
  790HOH     H1 2556   0.190   1.981   2.943
  790HOH     H2 2557   0.201   2.132   2.943
  791HOH      O 2558   0.550   1.462   3.532
  791HOH     H1 2559   0.616   1.432   3.594
  791HOH     H2 2560   0.561   1.405   3.455
  792HOH      O 2561   1.321   2.837   1.209
  792HOH     H1 2562   1.256   2.767   1.207
  792HOH     H2 2563   1.326   2.867   1.118
  793HOH      O 2564   1.819   2.724   1.914
  793HOH     H1 2565   1.895   2.668   1.897
  793HOH     H2 2566   1.758   2.702   1.844
  794HOH      O 2567   1.500   2.224   0.852
  794HOH     H1 2568   1.444   2.298   0.834
  794HOH     H2 2569   1.451   2.148   0.822
  795HOH      O 2570   3.150   1.846   0.100
  795HOH     H1 2571   3.201   1.918   0.062
  795HOH     H2 2572   3.066   1.850   0.053
  796HOH      O 2573   3.017   0.886   1.405
  796HOH     H1 2574   2.938   0.885   1.459
  796HOH     H2 2575   3.028   0.796   1.376
  797HOH      O 2576   0.337   1.751   3.831
  797HOH     H1 2577   0.365   1.746   3.740
  797HOH     H2 2578   0.330   1.659   3.859
  798HOH      O 2579   1.264   1.066   2.574
  798HOH     H1 2580   1.186   1.012   2.575
  798HOH     H2 2581   1.266   1.102   2.485
  799HOH      O 2582   1.184   0.777   1.272
  799HOH     H1 2583   1.165   0.717   1.199
  799HOH     H2 2584   1.145   0.735   1.348
  800HOH      O 2585   1.429   1.218   0.281
  800HOH     H1 2586   1.421   1.122   0.280
  800HOH     H2 2587   1.523   1.234   0.280
  801HOH      O 2588   3.006   2.609   0.394
  801HOH     H1 2589   3.057   2.592   0.315
  801HOH     H2 2590   3.060   2.670   0.444
  802HOH      O 2591   2.021   3.726   2.899
  802HOH     H1 2592   1.990   3.684   2.819
  802HOH     H2 2593   1.972   3.809   2.902
  803HOH      O 2594   1.714   2.932   1.594
  803HOH     H1 2595   1.709   2.846   1.636
  803HOH     H2 2596   1.640   2.933   1.533
  804HOH      O 2597   3.272   2.250   1.534
  804HOH     H1 2598   3.322   2.215   1.461
  804HOH     H2 2599   3.322   2.223   1.612
  805HOH      O 2600   2.994   1.273   2.493
  805HOH     H1 2601   2.920   1.330   2.516
  805HOH     H2 2602   2.954   1.200   2.445
  806HOH      O 2603   3.223   0.600   2.036
  806HOH     H1 2604   3.264   0.567   1.956
  806HOH     H2 2605   3.254   0.691   2.043
  807HOH      O 2606   0.981   3.540   3.419
  807HOH     H1 2607   0.908   3.570   3.472
  807HOH     H2 2608   1.056   3.540   3.478
  808HOH      O 2609   0.698   2.336   1.889
  808HOH     H1 2610   0.769   2.311   1.949
  808HOH     H2 2611   0.689   2.261   1.830
  809HOH      O 2612   3.331   1.816   2.711
  809HOH     H1 2613   3.382   1.751   2.758
  809HOH     H2 2614   3.281   1.766   2.646
  810HOH      O 2615   1.769   1.602   2.848
  810HOH     H1 2616   1.813   1.606   2.933
  810HOH     H2 2617   1.687   1.649   2.862
  811HOH      O 2618   0.344   2.524   2.999
  811HOH     H1 2619   0.435   2.537   2.973
  811HOH     H2 2620   0.341   2.432   3.026
  812HOH      O 2621   2.781   0.274   3.650
  812HOH     H1 2622   2.728   0.336   3.601
  812HOH     H2 2623   2.724   0.198   3.664
  813HOH      O 2624   3.907   3.474   0.712
  813HOH     H1 2625   3.951   3.407   0.661
  813HOH     H2 2626   3.927   3.556   0.667
  814HOH      O 2627   3.752   0.179   3.373
  814HOH     H1 2628   3.656   0.188   3.369
  814HOH     H2 2629   3.767   0.084   3.367
  815HOH      O 2630   4.004   2.572   3.379
  815HOH     H1 2631   4.061   2.645   3.357
  815HOH     H2 2632   4.016   2.509   3.307
  816HOH      O 2633   0.632   2.998   2.256
  816HOH     H1 2634   0.631   2.972   2.348
  816HOH     H2 2635   0.551   3.047   2.244
  817HOH      O 2636   2.838   3.305   3.115
  817HOH     H1 2637   2.795   3.230   3.155
  817HOH     H2 2638   2.912   3.268   3.067
  818HOH      O 2639   0.014   0.711   2.137
  818HOH     H1 2640   0.054   0.630   2.168
  818HOH     H2 2641  -0.052   0.732   2.204
  819HOH      O 2642   0.330   1.850   3.193
  819HOH     H1 2643   0.386   1.927   3.197
  819HOH     H2 2644   0.343   1.806   3.277
  820HOH      O 2645   2.597   1.627   3.002
  820HOH     H1 2646   2.558   1.663   2.922
  820HOH     H2 2647   2.618   1.537   2.979
  821HOH      O 2648   1.641   0.720   2.538
  821HOH     H1 2649   1.667   0.686   2.453
  821HOH     H2 2650   1.591   0.799   2.519
  822HOH      O 2651   0.114   0.153   0.196
  822HOH     H1 2652   0.205   0.132   0.217
  822HOH     H2 2653   0.092   0.092   0.125
  823HOH      O 2654   3.181   0.591   2.312
  823HOH     H1 2655   3.185   0.590   2.216
  823HOH     H2 2656   3.169   0.499   2.336
  824HOH      O 2657   0.791   3.132   2.861
  824HOH     H1 2658   0.885   3.116   2.850
  824HOH     H2 2659   0.773   3.207   2.804
  825HOH      O 2660   2.148   2.557   1.173
  825HOH     H1 2661   2.235   2.555   1.131
  825HOH     H2 2662   2.087   2.565   1.100
  826HOH      O 2663   0.928   2.861   1.659
  826HOH     H1 2664   1.008   2.913   1.669
  826HOH     H2 2665   0.941   2.786   1.718
  827HOH      O 2666   3.224   2.893   1.115
  827HOH     H1 2667   3.285   2.889   1.189
  827HOH     H2 2668   3.277   2.869   1.039
  828HOH      O 2669   1.370   3.903   2.994
  828HOH     H1 2670   1.439   3.969   2.982
  828HOH     H2 2671   1.320   3.935   3.070
  829HOH      O 2672   2.630   1.724   2.200
  829HOH     H1 2673   2.716   1.680   2.202
  829HOH     H2 2674   2.567   1.653   2.210
  830HOH      O 2675   0.197   1.028   0.479
  830HOH     H1 2676   0.286   1.043   0.445
  830HOH     H2 2677   0.211   0.987   0.565
  831HOH      O 2678   2.215   0.768   1.140
  831HOH     H1 2679   2.212   0.673   1.144
  831HOH     H2 2680   2.305   0.790   1.164
  832HOH      O 2681   0.642   3.276   3.972
  832HOH     H1 2682   0.661   3.367   3.949
  832HOH     H2 2683   0.661   3.227   3.893
  833HOH      O 2684   0.351   3.610   0.376
  833HOH     H1 2685   0.420   3.546   0.359
  833HOH     H2 2686   0.385   3.664   0.447
  834HOH      O 2687   3.872   2.930   0.471
  834HOH     H1 2688   3.838   3.013   0.437
  834HOH     H2 2689   3.796   2.890   0.514
  835HOH      O 2690   4.008   0.414   0.841
  835HOH     H1 2691   4.031   0.370   0.759
  835HOH     H2 2692   3.954   0.488   0.814
  836HOH      O 2693   0.934   2.278   1.702
  836HOH     H1 2694   1.007   2.235   1.657
  836HOH     H2 2695   0.975   2.346   1.755
  837HOH      O 2696   3.070   1.275   0.113
  837HOH     H1 2697   2.975   1.287   0.106
  837HOH     H2 2698   3.089   1.204   0.051
  838HOH      O 2699   1.275   0.839   2.141
  838HOH     H1 2700   1.182   0.822   2.129
  838HOH     H2 2701   1.304   0.773   2.204
  839HOH      O 2702   1.870   1.558   0.693
  839HOH     H1 2703   1.837   1.489   0.751
  839HOH     H2 2704   1.893   1.629   0.753
  840HOH      O 2705   0.023   3.200   1.254
  840HOH     H1 2706  -0.024   3.135   1.201
  840HOH     H2 2707   0.104   3.156   1.280
  841HOH      O 2708   0.856   2.089   3.183
  841HOH     H1 2709   0.805   2.008   3.188
  841HOH     H2 2710   0.815   2.147   3.247
  842HOH      O 2711   3.053   0.980   2.086
  842HOH     H1 2712   3.096   0.973   2.001
  842HOH     H2 2713   3.057   0.892   2.122
  843HOH      O 2714   3.409   3.201   4.035
  843HOH     H1 2715   3.371   3.279   4.076
  843HOH     H2 2716   3.357   3.188   3.955
  844HOH      O 2717   3.531   1.256   2.480
  844HOH     H1 2718   3.520   1.217   2.567
  844HOH     H2 2719   3.444   1.290   2.459
  845HOH      O 2720   1.221   3.268   4.015
  845HOH     H1 2721   1.259   3.330   3.953
  845HOH     H2 2722   1.293   3.206   4.034
  846HOH      O 2723   3.044   0.142   0.950
  846HOH     H1 2724   3.079   0.210   0.893
  846HOH     H2 2725   2.984   0.092   0.895
  847HOH      O 2726   2.355   2.125   1.741
  847HOH     H1 2727   2.283   2.065   1.762
  847HOH     H2 2728   2.346   2.142   1.647
  848HOH      O 2729   3.908   3.366   0.318
  848HOH     H1 2730   3.851   3.309   0.370
  848HOH     H2 2731   3.997   3.343   0.347
  849HOH      O 2732   3.977   1.604   0.746
  849HOH     H1 2733   3.989   1.682   0.692
  849HOH     H2 2734   3.923   1.633   0.820
  850HOH      O 2735   1.969   1.147   0.480
  850HOH     H1 2736   1.958   1.235   0.517
  850HOH     H2 2737   2.019   1.099   0.545
  851HOH      O 2738   1.149   0.492   0.789
  851HOH     H1 2739   1.196   0.468   0.709
  851HOH     H2 2740   1.126   0.584   0.776
  852HOH      O 2741   0.303   2.827   1.081
  852HOH     H1 2742   0.359   2.755   1.053
  852HOH     H2 2743   0.271   2.866   1.000
  853HOH      O 2744   0.736   3.773   1.889
  853HOH     H1 2745   0.812   3.717   1.872
  853HOH     H2 2746   0.730   3.777   1.985
  854HOH      O 2747   0.342   0.350   0.959
  854HOH     H1 2748   0.362   0.256   0.955
  854HOH     H2 2749   0.258   0.355   1.003
  855HOH      O 2750   3.908   0.537   0.113
  855HOH     H1 2751   3.865   0.454   0.132
  855HOH     H2 2752   3.841   0.603   0.128
  856HOH      O 2753   3.665   1.898   1.824
  856HOH     H1 2754   3.597   1.832   1.833
  856HOH     H2 2755   3.685   1.924   1.914
  857HOH      O 2756   0.886   1.904   3.522
  857HOH     H1 2757   0.909   1.909   3.614
  857HOH     H2 2758   0.796   1.934   3.517
  858HOH      O 2759   3.081   3.268   1.576
  858HOH     H1 2760   3.126   3.200   1.526
  858HOH     H2 2761   3.061   3.335   1.511
  859HOH      O 2762   1.150   1.567   0.201
  859HOH     H1 2763   1.064   1.534   0.177
  859HOH     H2 2764   1.139   1.662   0.205
  860HOH      O 2765   0.341   2.344   3.342
  860HOH     H1 2766   0.403   2.387   3.401
  860HOH     H2 2767   0.271   2.408   3.331
  861HOH      O 2768   1.386   2.130   3.581
  861HOH     H1 2769   1.389   2.037   3.603
  861HOH     H2 2770   1.390   2.175   3.665
  862HOH      O 2771   1.965   0.732   3.900
  862HOH     H1 2772   1.930   0.808   3.852
  862HOH     H2 2773   1.888   0.690   3.937
  863HOH      O 2774   0.393   0.679   0.624
  863HOH     H1 2775   0.445   0.714   0.551
  863HOH     H2 2776   0.361   0.595   0.593
  864HOH      O 2777   2.556   1.717   3.251
  864HOH     H1 2778   2.645   1.744   3.275
  864HOH     H2 2779   2.565   1.684   3.161
  865HOH      O 2780   2.909   0.146   2.329
  865HOH     H1 2781   2.974   0.199   2.285
  865HOH     H2 2782   2.889   0.075   2.267
  866HOH      O 2783   1.134   1.840   0.187
  866HOH     H1 2784   1.058   1.891   0.157
  866HOH     H2 2785   1.177   1.897   0.251
  867HOH      O 2786   2.498   2.143   2.576
  867HOH     H1 2787   2.504   2.155   2.481
  867HOH     H2 2788   2.417   2.093   2.588
  868HOH      O 2789   2.209   1.453   3.940
  868HOH     H1 2790   2.229   1.529   3.995
  868HOH     H2 2791   2.195   1.490   3.853
  869HOH      O 2792   0.717   2.298   2.970
  869HOH     H1 2793   0.687   2.389   2.961
  869HOH     H2 2794   0.642   2.252   3.009
  870HOH      O 2795   0.443   2.718   2.592
  870HOH     H1 2796   0.425   2.747   2.681
  870HOH     H2 2797   0.357   2.700   2.554
  871HOH      O 2798   2.471   0.490   2.878
  871HOH     H1 2799   2.476   0.515   2.970
  871HOH     H2 2800   2.392   0.436   2.872
  872HOH      O 2801   0.081   1.830   2.028
  872HOH     H1 2802   0.099   1.737   2.038
  872HOH     H2 2803   0.164   1.868   2.001
  873HOH      O 2804   3.834   1.641   1.623
  873HOH     H1 2805   3.906   1.602   1.573
  873HOH     H2 2806   3.859   1.733   1.633
  874HOH      O 2807   2.028   2.972   1.759
  874HOH     H1 2808   2.063   2.883   1.765
  874HOH     H2 2809   1.999   2.980   1.668
  875HOH      O 2810   1.351   3.608   3.221
  875HOH     H1 2811   1.329   3.515   3.222
  875HOH     H2 2812   1.283   3.647   3.166
  876HOH      O 2813   0.612   1.338   3.284
  876HOH     H1 2814   0.675   1.271   3.309
  876HOH     H2 2815   0.562   1.298   3.212
  877HOH      O 2816   1.093   2.047   0.614
  877HOH     H1 2817   1.128   1.963   0.585
  877HOH     H2 2818   1.163   2.110   0.597
  878HOH      O 2819   0.097   1.574   1.637
  878HOH     H1 2820   0.047   1.515   1.694
  878HOH     H2 2821   0.185   1.536   1.634
  879HOH      O 2822   2.615   1.283   1.730
  879HOH     H1 2823   2.606   1.338   1.808
  879HOH     H2 2824   2.679   1.329   1.675
  880HOH      O 2825   3.907   3.548   0.127
  880HOH     H1 2826   3.913   3.501   0.210
  880HOH     H2 2827   3.829   3.512   0.084
  881HOH      O 2828   2.919   3.149   2.549
  881HOH     H1 2829   2.970   3.095   2.489
  881HOH     H2 2830   2.905   3.231   2.501
  882HOH      O 2831   0.968   3.321   1.467
  882HOH     H1 2832   0.934   3.294   1.552
  882HOH     H2 2833   0.891   3.328   1.411
  883HOH      O 2834   2.568   2.434   1.601
  883HOH     H1 2835   2.612   2.360   1.559
  883HOH     H2 2836   2.584   2.422   1.695
  884HOH      O 2837   2.456   0.763   3.320
  884HOH     H1 2838   2.506   0.795   3.395
  884HOH     H2 2839   2.402   0.837   3.294
  885HOH      O 2840   0.867   0.584   1.701
  885HOH     H1 2841   0.917   0.581   1.619
  885HOH     H2 2842   0.789   0.635   1.679
  886HOH      O 2843   0.166   1.323   2.750
  886HOH     H1 2844   0.084   1.286   2.718
  886HOH     H2 2845   0.162   1.415   2.725
  887HOH      O 2846   0.625   0.278   2.205
  887HOH     H1 2847   0.635   0.333   2.282
  887HOH     H2 2848   0.670   0.326   2.135
  888HOH      O 2849   1.622   2.113   1.248
  888HOH     H1 2850   1.652   2.039   1.194
  888HOH     H2 2851   1.643   2.087   1.337
  889HOH      O 2852   3.527   2.960   0.745
  889HOH     H1 2853   3.467   2.902   0.791
  889HOH     H2 2854   3.497   2.959   0.654
  890HOH      O 2855   0.924   0.639   2.199
  890HOH     H1 2856   0.958   0.722   2.166
  890HOH     H2 2857   0.893   0.593   2.120
  891HOH      O 2858   3.891   1.094   3.528
  891HOH     H1 2859   3.918   1.144   3.451
  891HOH     H2 2860   3.973   1.055   3.561
  892HOH      O 2861   3.969   3.655   2.973
  892HOH     H1 2862   4.035   3.629   2.908
  892HOH     H2 2863   4.007   3.732   3.016
  893HOH      O 2864   0.043   2.520   0.180
  893HOH     H1 2865   0.105   2.517   0.107
  893HOH     H2 2866  -0.043   2.530   0.139
  894HOH      O 2867   2.132   3.501   0.056
  894HOH     H1 2868   2.095   3.589   0.061
  894HOH     H2 2869   2.057   3.444   0.039
  895HOH      O 2870   1.026   2.481   2.601
  895HOH     H1 2871   0.935   2.476   2.631
  895HOH     H2 2872   1.060   2.393   2.614
  896HOH      O 2873   0.996   3.192   1.192
  896HOH     H1 2874   0.967   3.233   1.110
  896HOH     H2 2875   0.973   3.099   1.181
  897HOH      O 2876   2.297   1.159   2.089
  897HOH     H1 2877   2.274   1.081   2.139
  897HOH     H2 2878   2.380   1.189   2.127
  898HOH      O 2879   3.208   2.745   0.554
  898HOH     H1 2880   3.273   2.728   0.621
  898HOH     H2 2881   3.132   2.779   0.602
  899HOH      O 2882   0.849   2.740   3.518
  899HOH     H1 2883   0.914   2.743   3.447
  899HOH     H2 2884   0.895   2.697   3.590
  900HOH      O 2885   2.804   2.555   3.611
  900HOH     H1 2886   2.778   2.622   3.675
  900HOH     H2 2887   2.769   2.473   3.646
  901HOH      O 2888   3.606   2.271   0.906
  901HOH     H1 2889   3.625   2.335   0.837
  901HOH     H2 2890   3.686   2.268   0.958
  902HOH      O 2891   0.258   0.930   2.549
  902HOH     H1 2892   0.238   0.837   2.537
  902HOH     H2 2893   0.291   0.935   2.638
  903HOH      O 2894   3.723   0.992   1.746
  903HOH     H1 2895   3.799   0.958   1.794
  903HOH     H2 2896   3.691   1.065   1.799
  904HOH      O 2897   1.326   1.042   0.763
  904HOH     H1 2898   1.323   0.952   0.730
  904HOH     H2 2899   1.285   1.094   0.694
  905HOH      O 2900   0.563  -0.006   1.115
  905HOH     H1 2901   0.597   0.061   1.055
  905HOH     H2 2902   0.641  -0.042   1.157
  906HOH      O 2903   2.596   0.025   1.402
  906HOH     H1 2904   2.641  -0.001   1.321
  906HOH     H2 2905   2.665   0.024   1.469
  907HOH      O 2906   0.103   0.074   3.339
  907HOH     H1 2907   0.189   0.115   3.343
  907HOH     H2 2908   0.043   0.141   3.372
  908HOH      O 2909   2.167   3.316   3.733
  908HOH     H1 2910   2.073   3.302   3.746
  908HOH     H2 2911   2.205   3.306   3.821
  909HOH      O 2912   3.956   0.368   3.086
  909HOH     H1 2913   3.971   0.274   3.077
  909HOH     H2 2914   3.975   0.387   3.178
  910HOH      O 2915   1.321   1.653   3.549
  910HOH     H1 2916   1.270   1.646   3.468
  910HOH     H2 2917   1.407   1.618   3.526
  911HOH      O 2918  -0.017   3.072   2.033
  911HOH     H1 2919   0.021   2.996   1.990
  911HOH     H2 2920   0.055   3.136   2.037
  912HOH      O 2921   3.851   1.220   3.191
  912HOH     H1 2922   3.935   1.208   3.235
  912HOH     H2 2923   3.830   1.312   3.205
  913HOH      O 2924   1.395   0.655   0.526
  913HOH     H1 2925   1.342   0.575   0.527
  913HOH     H2 2926   1.346   0.716   0.581
  914HOH      O 2927   1.526   0.249   0.317
  914HOH     H1 2928   1.566   0.335   0.332
  914HOH     H2 2929   1.474   0.260   0.238
  915HOH      O 2930   3.492   3.385   1.596
  915HOH     H1 2931   3.567   3.396   1.656
  915HOH     H2 2932   3.444   3.311   1.633
  916HOH      O 2933   2.440   4.047   0.664
  916HOH     H1 2934   2.411   4.016   0.578
  916HOH     H2 2935   2.378   4.008   0.726
  917HOH      O 2936   3.899   2.282   1.772
  917HOH     H1 2937   3.990   2.309   1.785
  917HOH     H2 2938   3.885   2.211   1.835
  918HOH      O 2939   2.601   3.600   0.495
  918HOH     H1 2940   2.668   3.645   0.546
  918HOH     H2 2941   2.520   3.611   0.545
  919HOH      O 2942   3.406   0.776   3.326
  919HOH     H1 2943   3.442   0.865   3.321
  919HOH     H2 2944   3.365   0.763   3.240
  920HOH      O 2945   3.009   1.052   0.715
  920HOH     H1 2946   2.981   1.132   0.672
  920HOH     H2 2947   2.972   1.058   0.804
  921HOH      O 2948   3.187   2.416   0.879
  921HOH     H1 2949   3.114   2.368   0.917
  921HOH     H2 2950   3.265   2.381   0.923
  922HOH      O 2951   2.681   3.265   1.001
  922HOH     H1 2952   2.614   3.322   0.963
  922HOH     H2 2953   2.640   3.179   1.007
  923HOH      O 2954   2.533   0.872   0.034
  923HOH     H1 2955   2.487   0.922   0.101
  923HOH     H2 2956   2.479   0.794   0.022
  924HOH      O 2957   1.380   1.438   0.140
  924HOH     H1 2958   1.296   1.474   0.169
  924HOH     H2 2959   1.390   1.356   0.189
  925HOH      O 2960   1.097   1.724   1.156
  925HOH     H1 2961   1.009   1.687   1.159
  925HOH     H2 2962   1.117   1.733   1.063
  926HOH      O 2963   1.641   3.820   3.088
  926HOH     H1 2964   1.565   3.810   3.030
  926HOH     H2 2965   1.683   3.900   3.057
  927HOH      O 2966   3.981   2.940   2.320
  927HOH     H1 2967   3.951   2.852   2.299
  927HOH     H2 2968   3.992   2.982   2.235
  928HOH      O 2969   2.846   0.261   1.807
  928HOH     H1 2970   2.835   0.285   1.715
  928HOH     H2 2971   2.893   0.335   1.845
  929HOH      O 2972   2.340   1.033   3.004
  929HOH     H1 2973   2.356   1.022   3.098
  929HOH     H2 2974   2.395   0.968   2.962
  930HOH      O 2975   0.575   3.448   0.382
  930HOH     H1 2976   0.642   3.477   0.320
  930HOH     H2 2977   0.537   3.370   0.341
  931HOH      O 2978   2.283   1.980   2.647
  931HOH     H1 2979   2.218   2.014   2.586
  931HOH     H2 2980   2.292   1.888   2.624
  932HOH      O 2981   3.253   1.873   3.726
  932HOH     H1 2982   3.319   1.820   3.769
  932HOH     H2 2983   3.250   1.839   3.636
  933HOH      O 2984   0.056   1.816   3.080
  933HOH     H1 2985   0.001   1.838   3.155
  933HOH     H2 2986   0.143   1.802   3.117
  934HOH      O 2987   2.121   3.566   1.550
  934HOH     H1 2988   2.103   3.639   1.609
  934HOH     H2 2989   2.035   3.527   1.532
  935HOH      O 2990   0.583   2.700   3.805
  935HOH     H1 2991   0.647   2.629   3.808
  935HOH     H2 2992   0.515   2.667   3.747
  936HOH      O 2993   0.473   3.729   2.103
  936HOH     H1 2994   0.488   3.744   2.197
  936HOH     H2 2995   0.428   3.808   2.073
  937HOH      O 2996   1.924   1.589   3.514
  937HOH     H1 2997   1.896   1.508   3.472
  937HOH     H2 2998   1.917   1.656   3.445
  938HOH      O 2999   0.905   3.690   1.492
  938HOH     H1 3000   0.852   3.632   1.438
  938HOH     H2 3001   0.980   3.637   1.518
  939HOH      O 3002   3.005   1.653   0.304
  939HOH     H1 3003   3.061   1.683   0.232
  939HOH     H2 3004   2.948   1.587   0.265
  940HOH      O 3005   0.897   2.905   0.740
  940HOH     H1 3006   0.953   2.982   0.728
  940HOH     H2 3007   0.936   2.839   0.683
  941HOH      O 3008   1.487   1.197   1.244
  941HOH     H1 3009   1.403   1.230   1.276
  941HOH     H2 3010   1.469   1.167   1.155
  942HOH      O 3011   1.032   2.110   1.113
  942HOH     H1 3012   0.961   2.046   1.111
  942HOH     H2 3013   0.991   2.193   1.090
  943HOH      O 3014   0.605   1.287   1.762
  943HOH     H1 3015   0.563   1.301   1.677
  943HOH     H2 3016   0.677   1.227   1.743
  944HOH      O 3017   3.643   3.284   1.344
  944HOH     H1 3018   3.658   3.341   1.269
  944HOH     H2 3019   3.615   3.343   1.414
  945HOH      O 3020   0.586   3.643   1.495
  945HOH     H1 3021   0.653   3.629   1.429
  945HOH     H2 3022   0.584   3.561   1.545
  946HOH      O 3023   3.717   3.264   0.886
  946HOH     H1 3024   3.779   3.329   0.851
  946HOH     H2 3025   3.772   3.200   0.929
  947HOH      O 3026   4.005   3.271   1.502
  947HOH     H1 3027   3.975   3.361   1.495
  947HOH     H2 3028   4.027   3.246   1.413
  948HOH      O 3029   2.611   0.959   0.740
  948HOH     H1 3030   2.688   0.965   0.797
  948HOH     H2 3031   2.551   0.901   0.788
  949HOH      O 3032   0.611   2.824   0.755
  949HOH     H1 3033   0.702   2.850   0.746
  949HOH     H2 3034   0.574   2.833   0.668
  950HOH      O 3035   2.050   0.288   2.116
  950HOH     H1 3036   2.143   0.308   2.117
  950HOH     H2 3037   2.008   0.368   2.149
  951HOH      O 3038   1.920   3.710   2.633
  951HOH     H1 3039   1.840   3.731   2.585
  951HOH     H2 3040   1.968   3.793   2.638
  952HOH      O 3041   1.409   1.075   2.065
  952HOH     H1 3042   1.373   0.991   2.094
  952HOH     H2 3043   1.457   1.108   2.142
  953HOH      O 3044   2.572   1.835   3.523
  953HOH     H1 3045   2.503   1.811   3.585
  953HOH     H2 3046   2.534   1.815   3.437
  954HOH      O 3047   3.743   1.725   1.286
  954HOH     H1 3048   3.654   1.730   1.319
  954HOH     H2 3049   3.781   1.649   1.329
  955HOH      O 3050   1.423   2.962   3.091
  955HOH     H1 3051   1.374   2.928   3.016
  955HOH     H2 3052   1.515   2.951   3.067
  956HOH      O 3053   1.248   1.170   0.547
  956HOH     H1 3054   1.242   1.252   0.596
  956HOH     H2 3055   1.279   1.196   0.460
  957HOH      O 3056   2.399   1.414   3.170
  957HOH     H1 3057   2.493   1.409   3.186
  957HOH     H2 3058   2.388   1.376   3.083
  958HOH      O 3059   2.807   1.403   1.104
  958HOH     H1 3060   2.776   1.391   1.194
  958HOH     H2 3061   2.874   1.336   1.092
  959HOH      O 3062   1.825   0.898   1.184
  959HOH     H1 3063   1.794   0.988   1.198
  959HOH     H2 3064   1.754   0.843   1.217
  960HOH      O 3065   3.495   2.639   2.268
  960HOH     H1 3066   3.483   2.544   2.255
  960HOH     H2 3067   3.407   2.675   2.257
  961HOH      O 3068   3.237   3.580   1.832
  961HOH     H1 3069   3.220   3.488   1.852
  961HOH     H2 3070   3.240   3.584   1.737
  962HOH      O 3071   3.560   0.866   1.257
  962HOH     H1 3072   3.534   0.887   1.167
  962HOH     H2 3073   3.652   0.890   1.261
  963HOH      O 3074   3.905   2.065   1.922
  963HOH     H1 3075   3.851   2.029   1.992
  963HOH     H2 3076   3.944   1.988   1.880
  964HOH      O 3077   3.999   3.247   3.456
  964HOH     H1 3078   4.003   3.279   3.366
  964HOH     H2 3079   4.065   3.178   3.459
  965HOH      O 3080   0.970   0.892   1.776
  965HOH     H1 3081   0.883   0.860   1.751
  965HOH     H2 3082   1.012   0.915   1.694
  966HOH      O 3083   0.248  -0.014   2.380
  966HOH     H1 3084   0.178   0.028   2.331
  966HOH     H2 3085   0.324   0.043   2.368
  967HOH      O 3086   2.706   1.085   1.412
  967HOH     H1 3087   2.710   1.118   1.502
  967HOH     H2 3088   2.668   0.998   1.421
  968HOH      O 3089   2.274   2.605   2.806
  968HOH     H1 3090   2.255   2.648   2.723
  968HOH     H2 3091   2.291   2.514   2.783
  969HOH      O 3092   0.938   1.467   2.529
  969HOH     H1 3093   0.944   1.373   2.549
  969HOH     H2 3094   0.849   1.491   2.556
  970HOH      O 3095   0.979   3.893   2.207
  970HOH     H1 3096   0.931   3.812   2.189
  970HOH     H2 3097   0.914   3.952   2.246
  971HOH      O 3098   2.553   1.980   2.867
  971HOH     H1 3099   2.566   2.031   2.787
  971HOH     H2 3100   2.613   2.020   2.931
  972HOH      O 3101   1.242   2.911   1.679
  972HOH     H1 3102   1.329   2.897   1.714
  972HOH     H2 3103   1.256   2.932   1.587
  973HOH      O 3104   3.340   0.877   2.734
  973HOH     H1 3105   3.431   0.880   2.763
  973HOH     H2 3106   3.327   0.786   2.707
  974HOH      O 3107   1.144   0.625   3.708
  974HOH     H1 3108   1.066   0.654   3.755
  974HOH     H2 3109   1.141   0.670   3.624
  975HOH      O 3110   3.521   2.701   1.613
  975HOH     H1 3111   3.586   2.647   1.657
  975HOH     H2 3112   3.443   2.693   1.668
  976HOH      O 3113   0.744   0.926   2.522
  976HOH     H1 3114   0.693   0.980   2.461
  976HOH     H2 3115   0.695   0.930   2.604
  977HOH      O 3116   0.317   2.462   0.378
  977HOH     H1 3117   0.235   2.510   0.370
  977HOH     H2 3118   0.340   2.438   0.288
  978HOH      O 3119   1.231   2.107   0.334
  978HOH     H1 3120   1.259   2.199   0.338
  978HOH     H2 3121   1.136   2.112   0.323
  979HOH      O 3122   0.355   3.429   3.423
  979HOH     H1 3123   0.356   3.449   3.329
  979HOH     H2 3124   0.365   3.514   3.465
  980HOH      O 3125   1.011   2.141   0.201
  980HOH     H1 3126   0.939   2.203   0.190
  980HOH     H2 3127   1.057   2.141   0.117
  981HOH      O 3128   2.478   2.165   3.523
  981HOH     H1 3129   2.514   2.080   3.499
  981HOH     H2 3130   2.509   2.224   3.455
  982HOH      O 3131   0.195   1.597   2.754
  982HOH     H1 3132   0.224   1.638   2.835
  982HOH     H2 3133   0.151   1.667   2.705
  983HOH      O 3134   0.329   3.234   2.495
  983HOH     H1 3135   0.309   3.281   2.576
  983HOH     H2 3136   0.252   3.248   2.440
  984HOH      O 3137   1.039   2.497   0.294
  984HOH     H1 3138   1.048   2.449   0.212
  984HOH     H2 3139   1.051   2.430   0.362
  985HOH      O 3140   3.657   2.551   3.538
  985HOH     H1 3141   3.665   2.627   3.480
  985HOH     H2 3142   3.632   2.589   3.622
  986HOH      O 3143   2.975   2.120   0.703
  986HOH     H1 3144   3.037   2.062   0.747
  986HOH     H2 3145   2.950   2.073   0.624
  987HOH      O 3146   1.871   3.510   0.375
  987HOH     H1 3147   1.804   3.566   0.338
  987HOH     H2 3148   1.942   3.570   0.400
  988HOH      O 3149   0.241   2.918   2.056
  988HOH     H1 3150   0.271   3.008   2.045
  988HOH     H2 3151   0.297   2.867   1.998
  989HOH      O 3152   1.615   0.708   1.278
  989HOH     H1 3153   1.639   0.637   1.219
  989HOH     H2 3154   1.530   0.738   1.245
  990HOH      O 3155   3.811   0.016   2.063
  990HOH     H1 3156   3.849   0.083   2.005
  990HOH     H2 3157   3.875  -0.055   2.064
  991HOH      O 3158   1.975   0.092   0.954
  991HOH     H1 3159   1.936   0.032   0.890
  991HOH     H2 3160   1.920   0.083   1.032
  992HOH      O 3161   0.288   1.596   0.473
  992HOH     H1 3162   0.201   1.563   0.497
  992HOH     H2 3163   0.292   1.587   0.378
  993HOH      O 3164   3.807   0.731   2.306
  993HOH     H1 3165   3.818   0.817   2.346
  993HOH     H2 3166   3.777   0.675   2.378
  994HOH      O 3167   3.913   0.693   3.528
  994HOH     H1 3168   3.938   0.647   3.608
  994HOH     H2 3169   3.818   0.698   3.532
  995HOH      O 3170   2.224   1.649   0.822
  995HOH     H1 3171   2.306   1.626   0.779
  995HOH     H2 3172   2.162   1.663   0.751
  996HOH      O 3173   0.835   2.302   1.061
  996HOH     H1 3174   0.832   2.369   1.129
  996HOH     H2 3175   0.751   2.255   1.069
  997HOH      O 3176   1.746   3.121   1.193
  997HOH     H1 3177   1.735   3.171   1.274
  997HOH     H2 3178   1.815   3.167   1.145
  998HOH      O 3179   3.234   2.292   2.568
  998HOH     H1 3180   3.225   2.310   2.474
  998HOH     H2 3181   3.304   2.227   2.573
  999HOH      O 3182   2.130   3.879   3.159
  999HOH     H1 3183   2.216   3.908   3.129
  999HOH     H2 3184   2.131   3.784   3.148
 1000HOH      O 3185   3.760   1.986   0.348
 1000HOH     H1 3186   3.851   1.959   0.340
 1000HOH     H2 3187   3.711   1.915   0.306
 1001HOH      O 3188   2.545   2.679   0.573
 1001HOH     H1 3189   2.504   2.683   0.487
 1001HOH     H2 3190   2.519   2.760   0.616
 1002HOH      O 3191   3.442   0.661   2.337
 1002HOH     H1 3192   3.454   0.575   2.378
 1002HOH     H2 3193   3.347   0.672   2.332
 1003HOH      O 3194   3.885   1.496   2.890
 1003HOH     H1 3195   3.805   1.505   2.942
 1003HOH     H2 3196   3.897   1.581   2.848
 1004HOH      O 3197   0.915   1.408   1.923
 1004HOH     H1 3198   0.994   1.371   1.882
 1004HOH     H2 3199   0.949   1.476   1.982
 1005HOH      O 3200   3.105   2.062   2.741
 1005HOH     H1 3201   3.104   1.986   2.683
 1005HOH     H2 3202   3.160   2.125   2.695
 1006HOH      O 3203   1.143   1.732   3.156
 1006HOH     H1 3204   1.111   1.768   3.073
 1006HOH     H2 3205   1.238   1.748   3.154
 1007HOH      O 3206   2.349   1.310   2.933
 1007HOH     H1 3207   2.334   1.216   2.947
 1007HOH     H2 3208   2.441   1.316   2.909
 1008HOH      O 3209   0.966   2.025   2.355
 1008HOH     H1 3210   0.917   1.944   2.342
 1008HOH     H2 3211   1.058   1.999   2.349
 1009HOH      O 3212   0.216   2.230   3.970
 1009HOH     H1 3213   0.137   2.281   3.949
 1009HOH     H2 3214   0.225   2.237   4.065
 1010HOH      O 3215   1.988   1.141   1.512
 1010HOH     H1 3216   2.049   1.159   1.441
 1010HOH     H2 3217   1.955   1.053   1.493
 1011HOH      O 3218   2.652   3.027   1.896
 1011HOH     H1 3219   2.694   3.063   1.818
 1011HOH     H2 3220   2.635   2.935   1.874
 1012HOH      O 3221   0.887   0.275   2.487
 1012HOH     H1 3222   0.829   0.347   2.461
 1012HOH     H2 3223   0.964   0.284   2.431
 1013HOH      O 3224   3.613   1.503   3.033
 1013HOH     H1 3225   3.595   1.567   3.102
 1013HOH     H2 3226   3.605   1.418   3.077
 1014HOH      O 3227   1.706   1.459   1.936
 1014HOH     H1 3228   1.788   1.422   1.904
 1014HOH     H2 3229   1.691   1.416   2.020
 1015HOH      O 3230   1.616   3.243   3.188
 1015HOH     H1 3231   1.701   3.199   3.196
 1015HOH     H2 3232   1.609   3.265   3.095
 1016HOH      O 3233   1.066   3.649   3.184
 1016HOH     H1 3234   1.041   3.602   3.263
 1016HOH     H2 3235   1.037   3.739   3.200
 1017HOH      O 3236   2.794   3.061   3.250
 1017HOH     H1 3237   2.788   3.041   3.343
 1017HOH     H2 3238   2.764   2.981   3.206
 1018HOH      O 3239   3.245   3.245   0.959
 1018HOH     H1 3240   3.309   3.247   1.030
 1018HOH     H2 3241   3.274   3.171   0.904
 1019HOH      O 3242   2.021   1.585   0.448
 1019HOH     H1 3243   2.001   1.510   0.392
 1019HOH     H2 3244   1.982   1.563   0.533
 1020HOH      O 3245   2.283   3.150   1.895
 1020HOH     H1 3246   2.290   3.062   1.858
 1020HOH     H2 3247   2.335   3.205   1.836
 1021HOH      O 3248   0.474   2.402   0.082
 1021HOH     H1 3249   0.542   2.467   0.100
 1021HOH     H2 3250   0.522   2.322   0.059
 1022HOH      O 3251   3.484   3.398   2.626
 1022HOH     H1 3252   3.541   3.439   2.561
 1022HOH     H2 3253   3.414   3.462   2.641
 1023HOH      O 3254   0.388   1.144   2.407
 1023HOH     H1 3255   0.323   1.138   2.478
 1023HOH     H2 3256   0.351   1.091   2.336
 1024HOH      O 3257   1.899   0.511   2.257
 1024HOH     H1 3258   1.964   0.557   2.309
 1024HOH     H2 3259   1.834   0.578   2.235
 1025HOH      O 3260   3.873   2.119   1.371
 1025HOH     H1 3261   3.782   2.148   1.362
 1025HOH     H2 3262   3.924   2.199   1.360
 1026HOH      O 3263   1.355   3.595   1.856
 1026HOH     H1 3264   1.295   3.637   1.917
 1026HOH     H2 3265   1.330   3.629   1.770
 1027HOH      O 3266   1.778   1.086   0.939
 1027HOH     H1 3267   1.774   1.128   1.025
 1027HOH     H2 3268   1.853   1.027   0.944
 1028HOH      O 3269   3.352   3.971   3.587
 1028HOH     H1 3270   3.318   3.948   3.500
 1028HOH     H2 3271   3.384   3.888   3.623
 1029HOH      O 3272   3.040   2.373   0.635
 1029HOH     H1 3273   3.086   2.402   0.713
 1029HOH     H2 3274   3.024   2.280   0.650
 1030HOH      O 3275   2.151   0.564   1.979
 1030HOH     H1 3276   2.233   0.523   2.005
 1030HOH     H2 3277   2.167   0.658   1.989
 1031HOH      O 3278   3.090   3.116   3.334
 1031HOH     H1 3279   3.072   3.049   3.401
 1031HOH     H2 3280   3.014   3.112   3.275
 1032HOH      O 3281   2.120   4.020   2.871
 1032HOH     H1 3282   2.194   3.963   2.893
 1032HOH     H2 3283   2.126   4.092   2.934
 1033HOH      O 3284   0.287   4.005   0.425
 1033HOH     H1 3285   0.211   3.955   0.456
 1033HOH     H2 3286   0.312   3.962   0.344
 1034HOH      O 3287   3.940   2.252   0.915
 1034HOH     H1 3288   3.890   2.170   0.907
 1034HOH     H2 3289   3.954   2.263   1.009
 1035HOH      O 3290   0.834   3.303   2.323
 1035HOH     H1 3291   0.748   3.284   2.285
 1035HOH     H2 3292   0.825   3.391   2.359
 1036HOH      O 3293   2.342   2.714   0.893
 1036HOH     H1 3294   2.274   2.771   0.930
 1036HOH     H2 3295   2.366   2.756   0.811
 1037HOH      O 3296   3.375   1.698   0.134
 1037HOH     H1 3297   3.344   1.608   0.123
 1037HOH     H2 3298   3.296   1.751   0.143
 1038HOH      O 3299   0.442   1.706   3.582
 1038HOH     H1 3300   0.383   1.695   3.507
 1038HOH     H2 3301   0.488   1.623   3.589
 1039HOH      O 3302   3.736   1.743   3.287
 1039HOH     H1 3303   3.792   1.670   3.261
 1039HOH     H2 3304   3.648   1.706   3.291
 1040HOH      O 3305   0.154   1.001   1.484
 1040HOH     H1 3306   0.209   0.922   1.482
 1040HOH     H2 3307   0.109   0.997   1.568
 1041HOH      O 3308   1.597   2.229   3.117
 1041HOH     H1 3309   1.505   2.254   3.126
 1041HOH     H2 3310   1.602   2.187   3.031
 1042HOH      O 3311   3.277   0.449   0.121
 1042HOH     H1 3312   3.273   0.457   0.216
 1042HOH     H2 3313   3.285   0.540   0.090
 1043HOH      O 3314   2.063  -0.013   1.831
 1043HOH     H1 3315   1.982   0.003   1.879
 1043HOH     H2 3316   2.068   0.059   1.767
 1044HOH      O 3317   3.490   2.354   2.276
 1044HOH     H1 3318   3.537   2.303   2.343
 1044HOH     H2 3319   3.404   2.312   2.270
 1045HOH      O 3320   3.616   1.110   2.916
 1045HOH     H1 3321   3.599   1.017   2.932
 1045HOH     H2 3322   3.708   1.113   2.892
 1046HOH      O 3323   3.489   3.441   0.780
 1046HOH     H1 3324   3.557   3.382   0.812
 1046HOH     H2 3325   3.525   3.478   0.699
 1047HOH      O 3326   3.702   1.109   1.456
 1047HOH     H1 3327   3.618   1.155   1.449
 1047HOH     H2 3328   3.699   1.067   1.542
 1048HOH      O 3329   1.668   3.319   2.942
 1048HOH     H1 3330   1.668   3.373   2.863
 1048HOH     H2 3331   1.750   3.341   2.987
 1049HOH      O 3332   3.635   0.833   2.627
 1049HOH     H1 3333   3.670   0.762   2.572
 1049HOH     H2 3334   3.626   0.907   2.567
 1050HOH      O 3335   0.025   1.726   0.086
 1050HOH     H1 3336   0.104   1.686   0.125
 1050HOH     H2 3337   0.046   1.736  -0.006
 1051HOH      O 3338   1.715   3.280   2.312
 1051HOH     H1 3339   1.794   3.288   2.366
 1051HOH     H2 3340   1.690   3.370   2.291
 1052HOH      O 3341   2.920   1.468   2.897
 1052HOH     H1 3342   2.978   1.528   2.850
 1052HOH     H2 3343   2.972   1.387   2.905
 1053HOH      O 3344   2.819   0.582   0.118
 1053HOH     H1 3345   2.892   0.524   0.137
 1053HOH     H2 3346   2.743   0.539   0.159
 1054HOH      O 3347   0.724   1.995   0.224
 1054HOH     H1 3348   0.756   1.954   0.304
 1054HOH     H2 3349   0.803   2.012   0.172
 1055HOH      O 3350   3.999   0.891   2.640
 1055HOH     H1 3351   3.949   0.958   2.686
 1055HOH     H2 3352   4.083   0.888   2.685
 1056HOH      O 3353   3.161   1.674   3.491
 1056HOH     H1 3354   3.089   1.737   3.491
 1056HOH     H2 3355   3.192   1.672   3.401
 1057HOH      O 3356   2.263   1.183   0.372
 1057HOH     H1 3357   2.194   1.238   0.410
 1057HOH     H2 3358   2.296   1.234   0.298
 1058HOH      O 3359   2.360   2.592   1.485
 1058HOH     H1 3360   2.402   2.648   1.420
 1058HOH     H2 3361   2.430   2.537   1.520
 1059HOH      O 3362   1.525   0.146   2.382
 1059HOH     H1 3363   1.558   0.234   2.400
 1059HOH     H2 3364   1.569   0.120   2.301
 1060HOH      O 3365   3.527   1.952   3.472
 1060HOH     H1 3366   3.598   1.911   3.423
 1060HOH     H2 3367   3.512   1.894   3.547
 1061HOH      O 3368   2.502   3.493   1.126
 1061HOH     H1 3369   2.411   3.522   1.114
 1061HOH     H2 3370   2.537   3.487   1.037
 1062HOH      O 3371   0.404   1.727   0.701
 1062HOH     H1 3372   0.355   1.672   0.640
 1062HOH     H2 3373   0.394   1.816   0.667
 1063HOH      O 3374   0.248   2.516   4.016
 1063HOH     H1 3375   0.335   2.486   4.044
 1063HOH     H2 3376   0.242   2.488   3.925
 1064HOH      O 3377   3.837   0.316   2.210
 1064HOH     H1 3378   3.785   0.256   2.156
 1064HOH     H2 3379   3.810   0.403   2.180
 1065HOH      O 3380   0.297   0.971   0.992
 1065HOH     H1 3381   0.213   1.016   0.999
 1065HOH     H2 3382   0.307   0.953   0.898
 1066HOH      O 3383   2.239   1.294   0.796
 1066HOH     H1 3384   2.202   1.236   0.730
 1066HOH     H2 3385   2.331   1.305   0.771
 1067HOH      O 3386   0.873   3.045   3.273
 1067HOH     H1 3387   0.906   3.084   3.192
 1067HOH     H2 3388   0.839   3.119   3.324
 1068HOH      O 3389   0.302   0.900   2.820
 1068HOH     H1 3390   0.300   0.993   2.845
 1068HOH     H2 3391   0.252   0.856   2.889
 1069HOH      O 3392   1.497   0.037   1.109
 1069HOH     H1 3393   1.524   0.074   1.193
 1069HOH     H2 3394   1.527  -0.054   1.112
 1070HOH      O 3395   1.679   1.817   3.667
 1070HOH     H1 3396   1.740   1.881   3.705
 1070HOH     H2 3397   1.706   1.734   3.705
 1071HOH      O 3398   0.065   3.314   0.548
 1071HOH     H1 3399   0.115   3.379   0.596
 1071HOH     H2 3400   0.105   3.313   0.461
 1072HOH      O 3401   3.155   0.396   2.765
 1072HOH     H1 3402   3.104   0.352   2.697
 1072HOH     H2 3403   3.090   0.428   2.827
 1073HOH      O 3404   1.324   2.901   2.133
 1073HOH     H1 3405   1.394   2.928   2.074
 1073HOH     H2 3406   1.336   2.806   2.142
 1074HOH      O 3407   2.030   2.549   0.274
 1074HOH     H1 3408   2.085   2.533   0.351
 1074HOH     H2 3409   2.071   2.496   0.205
 1075HOH      O 3410   2.748   1.884   0.576
 1075HOH     H1 3411   2.734   1.845   0.662
 1075HOH     H2 3412   2.676   1.852   0.523
 1076HOH      O 3413   3.313   0.309   1.945
 1076HOH     H1 3414   3.334   0.384   1.889
 1076HOH     H2 3415   3.290   0.239   1.885
 1077HOH      O 3416   3.876   1.732   1.958
 1077HOH     H1 3417   3.884   1.678   1.880
 1077HOH     H2 3418   3.962   1.774   1.967
 1078HOH      O 3419   2.348   0.936   0.232
 1078HOH     H1 3420   2.379   0.863   0.284
 1078HOH     H2 3421   2.339   1.008   0.295
 1079HOH      O 3422   0.178   2.446   2.358
 1079HOH     H1 3423   0.265   2.415   2.333
 1079HOH     H2 3424   0.168   2.423   2.450
 1080HOH      O 3425   3.921   1.323   1.582
 1080HOH     H1 3426   3.883   1.239   1.554
 1080HOH     H2 3427   3.914   1.379   1.504
 1081HOH      O 3428   3.726   1.964   2.083
 1081HOH     H1 3429   3.784   1.960   2.159
 1081HOH     H2 3430   3.639   1.948   2.118
 1082HOH      O 3431   1.037   2.699   0.515
 1082HOH     H1 3432   1.015   2.647   0.437
 1082HOH     H2 3433   1.077   2.779   0.480
 1083HOH      O 3434   0.853   2.725   0.174
 1083HOH     H1 3435   0.887   2.637   0.165
 1083HOH     H2 3436   0.820   2.747   0.087
 1084HOH      O 3437   2.747   2.788   2.387
 1084HOH     H1 3438   2.656   2.811   2.409
 1084HOH     H2 3439   2.754   2.803   2.293
 1085HOH      O 3440   0.487   3.724   0.570
 1085HOH     H1 3441   0.446   3.740   0.655
 1085HOH     H2 3442   0.581   3.726   0.587
 1086HOH      O 3443   0.824   3.230   1.679
 1086HOH     H1 3444   0.880   3.255   1.753
 1086HOH     H2 3445   0.777   3.153   1.710
 1087HOH      O 3446   2.161   2.360   2.455
 1087HOH     H1 3447   2.209   2.365   2.372
 1087HOH     H2 3448   2.069   2.367   2.429
 1088HOH      O 3449   0.270   2.042   1.474
 1088HOH     H1 3450   0.301   1.954   1.494
 1088HOH     H2 3451   0.240   2.076   1.558
 1089HOH      O 3452   0.707   3.197   3.726
 1089HOH     H1 3453   0.695   3.102   3.731
 1089HOH     H2 3454   0.647   3.225   3.657
 1090HOH      O 3455   2.395   0.576   2.195
 1090HOH     H1 3456   2.451   0.598   2.269
 1090HOH     H2 3457   2.347   0.657   2.176
 1091HOH      O 3458   2.480   0.323   0.793
 1091HOH     H1 3459   2.521   0.244   0.758
 1091HOH     H2 3460   2.407   0.341   0.733
 1092HOH      O 3461   3.675   4.014   1.330
 1092HOH     H1 3462   3.596   4.068   1.335
 1092HOH     H2 3463   3.662   3.960   1.252
 1093HOH      O 3464   3.386   2.064   2.652
 1093HOH     H1 3465   3.469   2.075   2.698
 1093HOH     H2 3466   3.354   1.978   2.680
 1094HOH      O 3467   1.618   0.085   2.117
 1094HOH     H1 3468   1.607  -0.007   2.091
 1094HOH     H2 3469   1.592   0.134   2.040
 1095HOH      O 3470   0.111   0.910   1.988
 1095HOH     H1 3471   0.182   0.861   1.947
 1095HOH     H2 3472   0.071   0.847   2.048
 1096HOH      O 3473   1.609   3.492   0.090
 1096HOH     H1 3474   1.540   3.546   0.052
 1096HOH     H2 3475   1.608   3.514   0.184
 1097HOH      O 3476   1.571   3.779   1.214
 1097HOH     H1 3477   1.476   3.768   1.206
 1097HOH     H2 3478   1.604   3.689   1.221
 1098HOH      O 3479   1.458   0.845   1.671
 1098HOH     H1 3480   1.484   0.878   1.585
 1098HOH     H2 3481   1.460   0.923   1.728
 1099HOH      O 3482   3.096   0.320   3.996
 1099HOH     H1 3483   3.094   0.234   4.039
 1099HOH     H2 3484   3.170   0.365   4.036
 1100HOH      O 3485   2.856   0.934   0.344
 1100HOH     H1 3486   2.875   0.846   0.377
 1100HOH     H2 3487   2.874   0.928   0.250
 1101HOH      O 3488   0.429   1.002   1.232
 1101HOH     H1 3489   0.390   0.982   1.146
 1101HOH     H2 3490   0.521   1.020   1.213
 1102HOH      O 3491   1.957   2.986   1.485
 1102HOH     H1 3492   1.956   2.928   1.409
 1102HOH     H2 3493   1.868   2.981   1.520
 1103HOH      O 3494   2.795   0.551   2.637
 1103HOH     H1 3495   2.790   0.457   2.652
 1103HOH     H2 3496   2.793   0.589   2.725
 1104HOH      O 3497   1.771   0.688   0.407
 1104HOH     H1 3498   1.851   0.678   0.356
 1104HOH     H2 3499   1.800   0.687   0.498
 1105HOH      O 3500   1.256   3.337   3.346
 1105HOH     H1 3501   1.224   3.408   3.402
 1105HOH     H2 3502   1.259   3.261   3.404
 1106HOH      O 3503   3.405   0.833   0.991
 1106HOH     H1 3504   3.394   0.738   0.997
 1106HOH     H2 3505   3.382   0.854   0.900
 1107HOH      O 3506   0.894   2.261   2.106
 1107HOH     H1 3507   0.989   2.254   2.093
 1107HOH     H2 3508   0.885   2.317   2.183
 1108HOH      O 3509   0.538   1.636   1.750
 1108HOH     H1 3510   0.627   1.655   1.778
 1108HOH     H2 3511   0.495   1.722   1.750
 1109HOH      O 3512   2.676   2.528   1.296
 1109HOH     H1 3513   2.744   2.518   1.362
 1109HOH     H2 3514   2.642   2.439   1.282
 1110HOH      O 3515   2.890   4.000   0.778
 1110HOH     H1 3516   2.949   4.032   0.710
 1110HOH     H2 3517   2.936   3.925   0.816
 1111HOH      O 3518   1.451   3.381   1.155
 1111HOH     H1 3519   1.486   3.315   1.095
 1111HOH     H2 3520   1.524   3.440   1.172
 1112HOH      O 3521   2.895   2.487   2.305
 1112HOH     H1 3522   2.806   2.483   2.339
 1112HOH     H2 3523   2.903   2.575   2.269
 1113HOH      O 3524   0.268   2.968   0.474
 1113HOH     H1 3525   0.217   3.011   0.542
 1113HOH     H2 3526   0.225   2.994   0.392
 1114HOH      O 3527   3.263   2.520   3.523
 1114HOH     H1 3528   3.316   2.597   3.543
 1114HOH     H2 3529   3.326   2.457   3.488
 1115HOH      O 3530   1.412   1.960   0.843
 1115HOH     H1 3531   1.472   1.886   0.840
 1115HOH     H2 3532   1.392   1.979   0.751
 1116HOH      O 3533   2.414   2.089   2.037
 1116HOH     H1 3534   2.343   2.129   2.087
 1116HOH     H2 3535   2.375   2.070   1.952
 1117HOH      O 3536   0.265   3.521   1.381
 1117HOH     H1 3537   0.338   3.460   1.391
 1117HOH     H2 3538   0.274   3.582   1.455
 1118HOH      O 3539   2.109   3.472   2.672
 1118HOH     H1 3540   2.180   3.435   2.620
 1118HOH     H2 3541   2.088   3.554   2.629
 1119HOH      O 3542   3.105   3.853   0.338
 1119HOH     H1 3543   3.044   3.906   0.287
 1119HOH     H2 3544   3.171   3.915   0.368
 1120HOH      O 3545   1.022   3.751   2.638
 1120HOH     H1 3546   0.996   3.694   2.711
 1120HOH     H2 3547   1.093   3.805   2.673
 1121HOH      O 3548   0.821   1.181   3.335
 1121HOH     H1 3549   0.856   1.202   3.421
 1121HOH     H2 3550   0.807   1.087   3.337
 1122HOH      O 3551   0.969   3.517   1.880
 1122HOH     H1 3552   1.009   3.506   1.794
 1122HOH     H2 3553   0.951   3.427   1.910
 1123HOH      O 3554   3.258   3.725   0.856
 1123HOH     H1 3555   3.253   3.657   0.789
 1123HOH     H2 3556   3.193   3.699   0.921
 1124HOH      O 3557   3.186   1.323   1.314
 1124HOH     H1 3558   3.135   1.326   1.233
 1124HOH     H2 3559   3.205   1.230   1.326
 1125HOH      O 3560   2.898   1.914   2.240
 1125HOH     H1 3561   2.952   1.864   2.178
 1125HOH     H2 3562   2.815   1.926   2.196
 1126HOH      O 3563   3.901   3.290   2.299
 1126HOH     H1 3564   3.855   3.238   2.364
 1126HOH     H2 3565   3.848   3.282   2.220
 1127HOH      O 3566   0.171   2.858   2.504
 1127HOH     H1 3567   0.204   2.936   2.548
 1127HOH     H2 3568   0.100   2.890   2.448
 1128HOH      O 3569   1.267   1.903   2.716
 1128HOH     H1 3570   1.205   1.862   2.656
 1128HOH     H2 3571   1.217   1.915   2.797
 1129HOH      O 3572   3.224   3.188   3.824
 1129HOH     H1 3573   3.198   3.109   3.775
 1129HOH     H2 3574   3.201   3.261   3.767
 1130HOH      O 3575   1.639   2.586   3.798
 1130HOH     H1 3576   1.727   2.606   3.830
 1130HOH     H2 3577   1.581   2.612   3.870
 1131HOH      O 3578   1.417   2.775   0.484
 1131HOH     H1 3579   1.477   2.707   0.516
 1131HOH     H2 3580   1.362   2.730   0.420
 1132HOH      O 3581   2.366   0.731   2.463
 1132HOH     H1 3582   2.384   0.730   2.557
 1132HOH     H2 3583   2.440   0.776   2.424
 1133HOH      O 3584   1.171   2.157   3.942
 1133HOH     H1 3585   1.165   2.062   3.944
 1133HOH     H2 3586   1.244   2.175   3.883
 1134HOH      O 3587   3.404   2.048   0.295
 1134HOH     H1 3588   3.401   2.094   0.379
 1134HOH     H2 3589   3.448   1.965   0.315
 1135HOH      O 3590   1.081   2.156   3.542
 1135HOH     H1 3591   1.172   2.177   3.564
 1135HOH     H2 3592   1.088   2.097   3.466
 1136HOH      O 3593   0.620   2.933   1.974
 1136HOH     H1 3594   0.570   2.852   1.964
 1136HOH     H2 3595   0.630   2.943   2.069
 1137HOH      O 3596   3.229   0.712   4.053
 1137HOH     H1 3597   3.319   0.727   4.026
 1137HOH     H2 3598   3.184   0.685   3.973
 1138HOH      O 3599   1.899   2.725   2.185
 1138HOH     H1 3600   1.955   2.793   2.223
 1138HOH     H2 3601   1.889   2.751   2.093
 1139HOH      O 3602   1.219   2.780   0.091
 1139HOH     H1 3603   1.267   2.848   0.137
 1139HOH     H2 3604   1.158   2.827   0.035
 1140HOH      O 3605   1.800   0.976   2.195
 1140HOH     H1 3606   1.872   1.013   2.143
 1140HOH     H2 3607   1.753   0.920   2.133
 1141HOH      O 3608   1.604   2.160   2.455
 1141HOH     H1 3609   1.647   2.076   2.439
 1141HOH     H2 3610   1.521   2.137   2.497
 1142HOH      O 3611   3.107   1.571   1.644
 1142HOH     H1 3612   3.052   1.626   1.699
 1142HOH     H2 3613   3.059   1.566   1.561
 1143HOH      O 3614   0.658   2.176   2.699
 1143HOH     H1 3615   0.696   2.179   2.611
 1143HOH     H2 3616   0.721   2.223   2.754
 1144HOH      O 3617   3.637   1.465   3.693
 1144HOH     H1 3618   3.690   1.542   3.713
 1144HOH     H2 3619   3.701   1.394   3.684
 1145HOH      O 3620   1.174   0.382   2.880
 1145HOH     H1 3621   1.080   0.366   2.883
 1145HOH     H2 3622   1.181   0.478   2.885
 1146HOH      O 3623   3.806   3.468   3.772
 1146HOH     H1 3624   3.724   3.474   3.723
 1146HOH     H2 3625   3.780   3.477   3.863
 1147HOH      O 3626  -0.005   1.567   3.533
 1147HOH     H1 3627  -0.031   1.615   3.611
 1147HOH     H2 3628   0.043   1.491   3.565
 1148HOH      O 3629   3.909   2.675   2.091
 1148HOH     H1 3630   3.861   2.596   2.116
 1148HOH     H2 3631   3.884   2.740   2.157
 1149HOH      O 3632   2.753   3.476   2.178
 1149HOH     H1 3633   2.806   3.501   2.102
 1149HOH     H2 3634   2.663   3.483   2.147
 1150HOH      O 3635   2.247   0.426   0.588
 1150HOH     H1 3636   2.213   0.372   0.659
 1150HOH     H2 3637   2.267   0.364   0.518
 1151HOH      O 3638   3.076   1.048   3.960
 1151HOH     H1 3639   3.052   0.963   3.999
 1151HOH     H2 3640   3.004   1.067   3.900
 1152HOH      O 3641   2.354   2.446   3.457
 1152HOH     H1 3642   2.338   2.413   3.545
 1152HOH     H2 3643   2.366   2.367   3.403
 1153HOH      O 3644   0.208   1.417   3.613
 1153HOH     H1 3645   0.235   1.434   3.703
 1153HOH     H2 3646   0.289   1.420   3.563
 1154HOH      O 3647   1.311   2.881   3.535
 1154HOH     H1 3648   1.285   2.807   3.481
 1154HOH     H2 3649   1.255   2.953   3.506
 1155HOH      O 3650   2.949   3.482   1.703
 1155HOH     H1 3651   3.040   3.461   1.683
 1155HOH     H2 3652   2.909   3.502   1.618
 1156HOH      O 3653   1.651   1.607   2.314
 1156HOH     H1 3654   1.722   1.544   2.303
 1156HOH     H2 3655   1.648   1.625   2.407
 1157HOH      O 3656   1.663   0.912   0.229
 1157HOH     H1 3657   1.714   0.981   0.273
 1157HOH     H2 3658   1.626   0.860   0.301
 1158HOH      O 3659   1.229   0.699   2.555
 1158HOH     H1 3660   1.276   0.699   2.638
 1158HOH     H2 3661   1.137   0.705   2.580
 1159HOH      O 3662   1.371   1.402   0.672
 1159HOH     H1 3663   1.423   1.470   0.629
 1159HOH     H2 3664   1.325   1.448   0.742
 1160HOH      O 3665   1.288   1.043   1.756
 1160HOH     H1 3666   1.286   1.063   1.850
 1160HOH     H2 3667   1.319   1.124   1.716
 1161HOH      O 3668   1.477   3.193   0.962
 1161HOH     H1 3669   1.556   3.141   0.975
 1161HOH     H2 3670   1.406   3.129   0.970
 1162HOH      O 3671   1.087   1.646   3.686
 1162HOH     H1 3672   1.161   1.633   3.626
 1162HOH     H2 3673   1.112   1.599   3.765
 1163HOH      O 3674   3.642   1.155   1.940
 1163HOH     H1 3675   3.689   1.110   2.010
 1163HOH     H2 3676   3.554   1.117   1.941
 1164HOH      O 3677   2.815   3.812   2.364
 1164HOH     H1 3678   2.720   3.813   2.371
 1164HOH     H2 3679   2.833   3.856   2.281
 1165HOH      O 3680   0.173   2.996   0.875
 1165HOH     H1 3681   0.124   3.001   0.793
 1165HOH     H2 3682   0.246   3.056   0.863
 1166HOH      O 3683   0.694   2.921   3.096
 1166HOH     H1 3684   0.731   2.975   3.026
 1166HOH     H2 3685   0.764   2.915   3.161
 1167HOH      O 3686   2.884   0.176   1.174
 1167HOH     H1 3687   2.956   0.130   1.130
 1167HOH     H2 3688   2.813   0.112   1.178
 1168HOH      O 3689   3.860   0.221   0.126
 1168HOH     H1 3690   3.820   0.136   0.108
 1168HOH     H2 3691   3.948   0.201   0.156
 1169HOH      O 3692   3.499   1.665   3.258
 1169HOH     H1 3693   3.431   1.732   3.262
 1169HOH     H2 3694   3.468   1.595   3.315
 1170HOH      O 3695   2.315   2.681   3.626
 1170HOH     H1 3696   2.316   2.596   3.669
 1170HOH     H2 3697   2.349   2.665   3.538
 1171HOH      O 3698   2.569   1.976   1.002
 1171HOH     H1 3699   2.562   2.069   0.981
 1171HOH     H2 3700   2.641   1.972   1.066
 1172HOH      O 3701   0.852   1.620   1.189
 1172HOH     H1 3702   0.822   1.608   1.279
 1172HOH     H2 3703   0.779   1.663   1.145
 1173HOH      O 3704   0.653   2.869   2.532
 1173HOH     H1 3705   0.598   2.937   2.571
 1173HOH     H2 3706   0.618   2.787   2.568
 1174HOH      O 3707   1.546   3.215   3.857
 1174HOH     H1 3708   1.496   3.296   3.855
 1174HOH     H2 3709   1.517   3.167   3.780
 1175HOH      O 3710   1.442   1.680   2.701
 1175HOH     H1 3711   1.407   1.756   2.747
 1175HOH     H2 3712   1.379   1.610   2.719
 1176HOH      O 3713   1.271   2.051   2.239
 1176HOH     H1 3714   1.316   2.135   2.248
 1176HOH     H2 3715   1.300   2.000   2.315
 1177HOH      O 3716   1.400   1.877   3.705
 1177HOH     H1 3717   1.493   1.856   3.705
 1177HOH     H2 3718   1.358   1.801   3.666
 1178HOH      O 3719   0.522   2.013   2.972
 1178HOH     H1 3720   0.428   2.024   2.960
 1178HOH     H2 3721   0.540   2.049   3.059
 1179HOH      O 3722   2.852   2.205   1.168
 1179HOH     H1 3723   2.908   2.222   1.243
 1179HOH     H2 3724   2.873   2.116   1.141
 1180HOH      O 3725   0.051   4.039   3.998
 1180HOH     H1 3726   0.116   4.005   3.937
 1180HOH     H2 3727  -0.016   3.970   4.003
 1181HOH      O 3728   2.133   0.290   0.780
 1181HOH     H1 3729   2.078   0.360   0.815
 1181HOH     H2 3730   2.116   0.215   0.838
 1182HOH      O 3731   0.498   1.586   2.038
 1182HOH     H1 3732   0.408   1.572   2.009
 1182HOH     H2 3733   0.551   1.559   1.963
 1183HOH      O 3734   2.250   1.954   2.295
 1183HOH     H1 3735   2.195   2.010   2.350
 1183HOH     H2 3736   2.339   1.971   2.326
 1184HOH      O 3737   3.696   1.722   0.651
 1184HOH     H1 3738   3.786   1.751   0.638
 1184HOH     H2 3739   3.703   1.629   0.671
 1185HOH      O 3740   1.714   0.792   2.983
 1185HOH     H1 3741   1.770   0.723   3.019
 1185HOH     H2 3742   1.733   0.869   3.038
 1186HOH      O 3743   3.200   0.002   2.106
 1186HOH     H1 3744   3.154   0.082   2.132
 1186HOH     H2 3745   3.129  -0.061   2.088
 1187HOH      O 3746   0.682   1.862   3.151
 1187HOH     H1 3747   0.634   1.897   3.077
 1187HOH     H2 3748   0.633   1.783   3.176
 1188HOH      O 3749   2.801   2.280   0.914
 1188HOH     H1 3750   2.841   2.279   1.001
 1188HOH     H2 3751   2.851   2.215   0.864
 1189HOH      O 3752   0.939   1.837   3.793
 1189HOH     H1 3753   0.986   1.762   3.756
 1189HOH     H2 3754   0.939   1.821   3.887
 1190HOH      O 3755   3.693   3.966   3.185
 1190HOH     H1 3756   3.654   3.891   3.139
 1190HOH     H2 3757   3.646   4.042   3.150
 1191HOH      O 3758   3.885   1.745   0.973
 1191HOH     H1 3759   3.877   1.817   1.036
 1191HOH     H2 3760   3.873   1.666   1.026
 1192HOH      O 3761   1.122   1.567   0.510
 1192HOH     H1 3762   1.201   1.620   0.517
 1192HOH     H2 3763   1.130   1.522   0.426
 1193HOH      O 3764   3.850   0.122   1.539
 1193HOH     H1 3765   3.813   0.204   1.569
 1193HOH     H2 3766   3.782   0.084   1.483
 1194HOH      O 3767   1.446   3.365   2.688
 1194HOH     H1 3768   1.425   3.320   2.607
 1194HOH     H2 3769   1.541   3.380   2.683
 1195HOH      O 3770   3.392   0.747   1.427
 1195HOH     H1 3771   3.442   0.805   1.371
 1195HOH     H2 3772   3.390   0.663   1.381
 1196HOH      O 3773   0.775   3.903   1.254
 1196HOH     H1 3774   0.864   3.931   1.234
 1196HOH     H2 3775   0.747   3.960   1.326
 1197HOH      O 3776   1.183   2.968   1.419
 1197HOH     H1 3777   1.236   2.943   1.344
 1197HOH     H2 3778   1.110   3.018   1.382
 1198HOH      O 3779   3.577   4.040   0.284
 1198HOH     H1 3780   3.652   3.985   0.308
 1198HOH     H2 3781   3.574   4.034   0.188
 1199HOH      O 3782   3.439   2.707   3.619
 1199HOH     H1 3783   3.509   2.731   3.680
 1199HOH     H2 3784   3.436   2.781   3.558
 1200HOH      O 3785   1.252   0.164   0.877
 1200HOH     H1 3786   1.167   0.209   0.873
 1200HOH     H2 3787   1.234   0.076   0.846
 1201HOH      O 3788   2.895   1.659   1.799
 1201HOH     H1 3789   2.903   1.573   1.840
 1201HOH     H2 3790   2.801   1.676   1.796
 1202HOH      O 3791   0.902   2.125   3.832
 1202HOH     H1 3792   0.922   2.031   3.830
 1202HOH     H2 3793   0.985   2.166   3.856
 1203HOH      O 3794   3.644   2.163   2.381
 1203HOH     H1 3795   3.576   2.110   2.422
 1203HOH     H2 3796   3.724   2.111   2.389
 1204HOH      O 3797   1.140   2.580   3.930
 1204HOH     H1 3798   1.125   2.623   3.846
 1204HOH     H2 3799   1.181   2.648   3.984
 1205HOH      O 3800   2.391   2.915   3.952
 1205HOH     H1 3801   2.314   2.889   4.003
 1205HOH     H2 3802   2.366   2.902   3.861
 1206HOH      O 3803   1.176   3.852   2.407
 1206HOH     H1 3804   1.109   3.866   2.340
 1206HOH     H2 3805   1.129   3.814   2.481
 1207HOH      O 3806   1.400   3.195   1.793
 1207HOH     H1 3807   1.481   3.177   1.746
 1207HOH     H2 3808   1.332   3.199   1.725
 1208HOH      O 3809   3.379   3.041   0.485
 1208HOH     H1 3810   3.383   3.120   0.431
 1208HOH     H2 3811   3.379   2.969   0.421
 1209HOH      O 3812   3.424   3.115   1.898
 1209HOH     H1 3813   3.423   3.075   1.985
 1209HOH     H2 3814   3.347   3.172   1.897
 1210HOH      O 3815   2.613   3.487   2.542
 1210HOH     H1 3816   2.594   3.531   2.460
 1210HOH     H2 3817   2.618   3.394   2.519
 1211HOH      O 3818   1.410   2.281   2.218
 1211HOH     H1 3819   1.453   2.346   2.274
 1211HOH     H2 3820   1.411   2.320   2.131
 1212HOH      O 3821   3.210   1.488   0.028
 1212HOH     H1 3822   3.166   1.406   0.049
 1212HOH     H2 3823   3.276   1.464  -0.038
 1213HOH      O 3824   3.501   1.242   1.626
 1213HOH     H1 3825   3.436   1.309   1.604
 1213HOH     H2 3826   3.582   1.291   1.640
 1214HOH      O 3827   3.852   2.332   2.705
 1214HOH     H1 3828   3.855   2.354   2.612
 1214HOH     H2 3829   3.906   2.400   2.746
 1215HOH      O 3830   0.150   0.286   2.846
 1215HOH     H1 3831   0.233   0.255   2.809
 1215HOH     H2 3832   0.168   0.296   2.940
 1216HOH      O 3833   2.509   0.110   3.686
 1216HOH     H1 3834   2.415   0.099   3.668
 1216HOH     H2 3835   2.552   0.045   3.631
 1217HOH      O 3836   0.046   1.456   3.085
 1217HOH     H1 3837   0.107   1.529   3.072
 1217HOH     H2 3838   0.002   1.447   3.000
 1218HOH      O 3839   1.382   2.020   0.103
 1218HOH     H1 3840   1.329   2.060   0.172
 1218HOH     H2 3841   1.320   1.967   0.053
 1219HOH      O 3842   2.639   3.093   3.931
 1219HOH     H1 3843   2.595   3.009   3.915
 1219HOH     H2 3844   2.648   3.132   3.844
 1220HOH      O 3845   3.447   0.282   3.663
 1220HOH     H1 3846   3.441   0.315   3.752
 1220HOH     H2 3847   3.525   0.227   3.663
 1221HOH      O 3848   3.464   1.204   0.582
 1221HOH     H1 3849   3.422   1.169   0.503
 1221HOH     H2 3850   3.397   1.259   0.622
 1222HOH      O 3851   2.220   3.181   2.222
 1222HOH     H1 3852   2.193   3.110   2.163
 1222HOH     H2 3853   2.185   3.260   2.183
 1223HOH      O 3854   2.659   1.416   3.248
 1223HOH     H1 3855   2.616   1.478   3.307
 1223HOH     H2 3856   2.750   1.444   3.246
 1224HOH      O 3857   3.069   0.089   0.611
 1224HOH     H1 3858   3.135   0.146   0.649
 1224HOH     H2 3859   3.055   0.124   0.522
 1225HOH      O 3860   3.245   1.792   3.230
 1225HOH     H1 3861   3.205   1.760   3.150
 1225HOH     H2 3862   3.221   1.885   3.233
 1226HOH      O 3863   2.276   2.597   3.971
 1226HOH     H1 3864   2.233   2.682   3.960
 1226HOH     H2 3865   2.294   2.567   3.882
 1227HOH      O 3866   3.636   0.651   3.405
 1227HOH     H1 3867   3.608   0.559   3.407
 1227HOH     H2 3868   3.556   0.699   3.384
 1228HOH      O 3869   1.293   1.374   2.390
 1228HOH     H1 3870   1.307   1.285   2.357
 1228HOH     H2 3871   1.380   1.403   2.418
 1229HOH      O 3872   1.245   2.657   0.950
 1229HOH     H1 3873   1.238   2.752   0.947
 1229HOH     H2 3874   1.193   2.626   0.876
 1230HOH      O 3875   2.449   2.921   0.642
 1230HOH     H1 3876   2.518   2.968   0.595
 1230HOH     H2 3877   2.375   2.983   0.644
 1231HOH      O 3878   1.934   1.451   1.489
 1231HOH     H1 3879   2.017   1.483   1.525
 1231HOH     H2 3880   1.926   1.361   1.522
 1232HOH      O 3881   1.272   1.239   2.812
 1232HOH     H1 3882   1.192   1.223   2.862
 1232HOH     H2 3883   1.277   1.166   2.750
 1233HOH      O 3884   2.760   3.203   3.604
 1233HOH     H1 3885   2.707   3.261   3.548
 1233HOH     H2 3886   2.830   3.260   3.638
 1234HOH      O 3887   0.704   3.602   0.185
 1234HOH     H1 3888   0.739   3.688   0.208
 1234HOH     H2 3889   0.778   3.542   0.198
 1235HOH      O 3890   0.372   2.857   1.462
 1235HOH     H1 3891   0.394   2.815   1.545
 1235HOH     H2 3892   0.345   2.784   1.405
 1236HOH      O 3893   1.979   3.768   0.094
 1236HOH     H1 3894   1.900   3.816   0.118
 1236HOH     H2 3895   2.016   3.818   0.021
 1237HOH      O 3896   3.034   0.769   1.726
 1237HOH     H1 3897   3.106   0.830   1.739
 1237HOH     H2 3898   3.069   0.702   1.668
 1238HOH      O 3899   1.063   3.163   0.870
 1238HOH     H1 3900   0.977   3.200   0.889
 1238HOH     H2 3901   1.122   3.238   0.864
 1239HOH      O 3902   0.582   3.243   3.005
 1239HOH     H1 3903   0.642   3.201   2.943
 1239HOH     H2 3904   0.520   3.175   3.029
 1240HOH      O 3905   3.285   3.653   0.304
 1240HOH     H1 3906   3.247   3.738   0.327
 1240HOH     H2 3907   3.247   3.592   0.367
 1241HOH      O 3908   0.200   3.095   3.495
 1241HOH     H1 3909   0.243   3.124   3.415
 1241HOH     H2 3910   0.260   3.032   3.534
 1242HOH      O 3911   3.188   3.098   1.346
 1242HOH     H1 3912   3.269   3.123   1.302
 1242HOH     H2 3913   3.151   3.029   1.291
 1243HOH      O 3914   0.288   2.739   2.863
 1243HOH     H1 3915   0.318   2.808   2.924
 1243HOH     H2 3916   0.299   2.658   2.913
 1244HOH      O 3917   1.665   3.937   0.572
 1244HOH     H1 3918   1.593   3.915   0.513
 1244HOH     H2 3919   1.724   3.991   0.520
 1245HOH      O 3920   0.678   1.694   2.523
 1245HOH     H1 3921   0.673   1.629   2.592
 1245HOH     H2 3922   0.632   1.770   2.558
 1246HOH      O 3923   1.913   1.174   1.770
 1246HOH     H1 3924   1.936   1.170   1.677
 1246HOH     H2 3925   1.914   1.268   1.790
 1247HOH      O 3926   2.222   2.542   0.475
 1247HOH     H1 3927   2.283   2.598   0.425
 1247HOH     H2 3928   2.280   2.483   0.524
 1248HOH      O 3929   0.086   0.981   3.671
 1248HOH     H1 3930   0.067   0.900   3.718
 1248HOH     H2 3931   0.155   0.958   3.609
 1249HOH      O 3932   3.876   1.294   1.135
 1249HOH     H1 3933   3.878   1.322   1.043
 1249HOH     H2 3934   3.803   1.341   1.173
 1250HOH      O 3935   0.147   0.540   2.764
 1250HOH     H1 3936   0.191   0.586   2.836
 1250HOH     H2 3937   0.156   0.447   2.786
 1251HOH      O 3938   1.758   3.534   0.789
 1251HOH     H1 3939   1.826   3.534   0.856
 1251HOH     H2 3940   1.787   3.598   0.724
 1252HOH      O 3941   3.022   0.151   2.594
 1252HOH     H1 3942   3.117   0.152   2.586
 1252HOH     H2 3943   2.991   0.155   2.503
 1253HOH      O 3944   0.313   3.171   3.259
 1253HOH     H1 3945   0.404   3.141   3.255
 1253HOH     H2 3946   0.316   3.248   3.315
 1254HOH      O 3947   3.763   0.466   1.925
 1254HOH     H1 3948   3.780   0.391   1.867
 1254HOH     H2 3949   3.687   0.440   1.976
 1255HOH      O 3950   3.370   2.818   1.333
 1255HOH     H1 3951   3.348   2.826   1.426
 1255HOH     H2 3952   3.460   2.851   1.326
 1256HOH      O 3953   2.585   1.415   1.971
 1256HOH     H1 3954   2.519   1.444   2.033
 1256HOH     H2 3955   2.590   1.485   1.906
 1257HOH      O 3956   0.979   2.364   3.000
 1257HOH     H1 3957   1.007   2.274   2.985
 1257HOH     H2 3958   0.883   2.362   2.990
 1258HOH      O 3959   2.876   1.984   1.458
 1258HOH     H1 3960   2.838   1.936   1.385
 1258HOH     H2 3961   2.924   2.056   1.418
 1259HOH      O 3962   1.448   3.924   1.831
 1259HOH     H1 3963   1.401   3.881   1.902
 1259HOH     H2 3964   1.400   4.006   1.817
 1260HOH      O 3965   2.231   0.066   1.026
 1260HOH     H1 3966   2.230   0.059   1.121
 1260HOH     H2 3967   2.138   0.067   1.001
 1261HOH      O 3968   0.141   2.082   1.706
 1261HOH     H1 3969   0.142   2.138   1.784
 1261HOH     H2 3970   0.060   2.030   1.715
 1262HOH      O 3971   1.905   3.224   0.777
 1262HOH     H1 3972   1.837   3.180   0.828
 1262HOH     H2 3973   1.913   3.172   0.697
 1263HOH      O 3974   2.889   3.470   2.842
 1263HOH     H1 3975   2.796   3.487   2.856
 1263HOH     H2 3976   2.899   3.377   2.862
 1264HOH      O 3977   3.585   3.053   0.999
 1264HOH     H1 3978   3.614   3.144   0.985
 1264HOH     H2 3979   3.551   3.027   0.913
 1265HOH      O 3980   1.887   0.524   3.606
 1265HOH     H1 3981   1.849   0.529   3.694
 1265HOH     H2 3982   1.925   0.436   3.601
 1266HOH      O 3983   2.446   2.625   1.867
 1266HOH     H1 3984   2.522   2.669   1.830
 1266HOH     H2 3985   2.465   2.532   1.856
 1267HOH      O 3986   2.018   2.711   3.665
 1267HOH     H1 3987   1.981   2.625   3.687
 1267HOH     H2 3988   2.111   2.695   3.653
 1268HOH      O 3989   0.803   2.339   0.227
 1268HOH     H1 3990   0.853   2.404   0.177
 1268HOH     H2 3991   0.735   2.390   0.271
 1269HOH      O 3992   2.757   1.041   3.398
 1269HOH     H1 3993   2.719   1.108   3.456
 1269HOH     H2 3994   2.850   1.060   3.397
 1270HOH      O 3995   3.630   3.823   0.660
 1270HOH     H1 3996   3.552   3.879   0.660
 1270HOH     H2 3997   3.656   3.819   0.752
 1271HOH      O 3998   2.666   3.141   2.638
 1271HOH     H1 3999   2.612   3.183   2.571
 1271HOH     H2 4000   2.748   3.121   2.593
 1272HOH      O 4001   0.291   0.279   3.090
 1272HOH     H1 4002   0.298   0.228   3.171
 1272HOH     H2 4003   0.347   0.233   3.028
 1273HOH      O 4004   1.180   1.627   3.958
 1273HOH     H1 4005   1.248   1.568   3.925
 1273HOH     H2 4006   1.173   1.606   4.051
 1274HOH      O 4007   2.155   3.163   1.516
 1274HOH     H1 4008   2.222   3.116   1.565
 1274HOH     H2 4009   2.086   3.097   1.501
 1275HOH      O 4010   2.790   0.411   1.548
 1275HOH     H1 4011   2.699   0.397   1.524
 1275HOH     H2 4012   2.790   0.495   1.595
 1276HOH      O 4013   3.820   2.898   2.697
 1276HOH     H1 4014   3.866   2.961   2.641
 1276HOH     H2 4015   3.820   2.816   2.647
 1277HOH      O 4016   3.099   1.569   2.559
 1277HOH     H1 4017   3.011   1.604   2.543
 1277HOH     H2 4018   3.155   1.619   2.500
 1278HOH      O 4019   2.260   3.456   0.290
 1278HOH     H1 4020   2.341   3.410   0.267
 1278HOH     H2 4021   2.210   3.460   0.208
 1279HOH      O 4022   1.334   2.441   0.771
 1279HOH     H1 4023   1.291   2.376   0.826
 1279HOH     H2 4024   1.273   2.515   0.768
 1280HOH      O 4025   1.378   2.116   2.585
 1280HOH     H1 4026   1.304   2.172   2.560
 1280HOH     H2 4027   1.340   2.029   2.597
 1281HOH      O 4028   0.142   2.980   0.226
 1281HOH     H1 4029   0.182   2.931   0.154
 1281HOH     H2 4030   0.071   3.030   0.185
 1282HOH      O 4031   1.734   1.895   1.064
 1282HOH     H1 4032   1.660   1.858   1.016
 1282HOH     H2 4033   1.754   1.976   1.018
 1283HOH      O 4034   3.137   3.501   0.478
 1283HOH     H1 4035   3.157   3.462   0.563
 1283HOH     H2 4036   3.116   3.426   0.422
 1284HOH      O 4037   0.352   1.142   1.798
 1284HOH     H1 4038   0.438   1.182   1.786
 1284HOH     H2 4039   0.341   1.085   1.722
 1285HOH      O 4040   0.309   2.165   0.798
 1285HOH     H1 4041   0.358   2.230   0.747
 1285HOH     H2 4042   0.305   2.088   0.741
 1286HOH      O 4043   3.558   1.295   0.087
 1286HOH     H1 4044   3.562   1.277   0.181
 1286HOH     H2 4045   3.619   1.233   0.047
 1287HOH      O 4046   0.528   1.897   2.696
 1287HOH     H1 4047   0.498   1.964   2.636
 1287HOH     H2 4048   0.505   1.930   2.783
 1288HOH      O 4049   2.291   0.219   2.517
 1288HOH     H1 4050   2.246   0.285   2.464
 1288HOH     H2 4051   2.314   0.265   2.598
 1289HOH      O 4052   3.200   1.991   2.037
 1289HOH     H1 4053   3.139   1.917   2.030
 1289HOH     H2 4054   3.153   2.064   1.998
 1290HOH      O 4055   1.932   0.123   0.184
 1290HOH     H1 4056   2.009   0.105   0.239
 1290HOH     H2 4057   1.968   0.144   0.098
 1291HOH      O 4058   3.449   3.006   2.677
 1291HOH     H1 4059   3.365   3.027   2.718
 1291HOH     H2 4060   3.506   2.982   2.751
 1292HOH      O 4061   3.583   1.543   1.436
 1292HOH     H1 4062   3.504   1.511   1.478
 1292HOH     H2 4063   3.646   1.554   1.507
 1293HOH      O 4064   1.667   3.287   0.485
 1293HOH     H1 4065   1.623   3.339   0.552
 1293HOH     H2 4066   1.723   3.349   0.438
 1294HOH      O 4067   1.066   0.049   2.010
 1294HOH     H1 4068   1.043  -0.019   2.073
 1294HOH     H2 4069   1.004   0.037   1.938
 1295HOH      O 4070   1.866   0.191   0.518
 1295HOH     H1 4071   1.853   0.262   0.580
 1295HOH     H2 4072   1.858   0.232   0.432
 1296HOH      O 4073   0.205   0.964   2.243
 1296HOH     H1 4074   0.145   0.914   2.188
 1296HOH     H2 4075   0.169   0.957   2.331
 1297HOH      O 4076   0.607   0.978   0.722
 1297HOH     H1 4077   0.545   1.044   0.750
 1297HOH     H2 4078   0.660   1.021   0.654
 1298HOH      O 4079   2.547   3.830   2.393
 1298HOH     H1 4080   2.472   3.831   2.333
 1298HOH     H2 4081   2.510   3.859   2.477
 1299HOH      O 4082   3.538   3.470   3.004
 1299HOH     H1 4083   3.517   3.377   2.991
 1299HOH     H2 4084   3.482   3.516   2.942
 1300HOH      O 4085   1.728   2.072   2.845
 1300HOH     H1 4086   1.792   2.063   2.916
 1300HOH     H2 4087   1.656   2.016   2.872
 1301HOH      O 4088   1.862   0.950   3.779
 1301HOH     H1 4089   1.797   0.945   3.849
 1301HOH     H2 4090   1.835   1.025   3.727
 1302HOH      O 4091   0.473   0.556   2.152
 1302HOH     H1 4092   0.549   0.500   2.172
 1302HOH     H2 4093   0.500   0.643   2.181
 1303HOH      O 4094   0.977   1.121   1.375
 1303HOH     H1 4095   1.040   1.087   1.438
 1303HOH     H2 4096   1.020   1.111   1.290
 1304HOH      O 4097   1.001   0.557   1.927
 1304HOH     H1 4098   1.056   0.635   1.916
 1304HOH     H2 4099   0.937   0.563   1.856
 1305HOH      O 4100   2.993   2.859   0.720
 1305HOH     H1 4101   2.899   2.877   0.720
 1305HOH     H2 4102   3.006   2.800   0.794
 1306HOH      O 4103   3.546   1.989   3.992
 1306HOH     H1 4104   3.587   2.031   4.067
 1306HOH     H2 4105   3.594   2.023   3.916
 1307HOH      O 4106   0.135   3.286   2.323
 1307HOH     H1 4107   0.040   3.299   2.327
 1307HOH     H2 4108   0.157   3.299   2.231
 1308HOH      O 4109   1.428   1.855   3.162
 1308HOH     H1 4110   1.429   1.760   3.155
 1308HOH     H2 4111   1.458   1.873   3.251
 1309HOH      O 4112   2.198   2.193   3.028
 1309HOH     H1 4113   2.253   2.256   2.981
 1309HOH     H2 4114   2.216   2.109   2.986
 1310HOH      O 4115   1.761   3.705   1.880
 1310HOH     H1 4116   1.753   3.788   1.832
 1310HOH     H2 4117   1.681   3.658   1.858
 1311HOH      O 4118   2.020   2.813   3.922
 1311HOH     H1 4119   1.987   2.780   3.839
 1311HOH     H2 4120   2.066   2.895   3.899
 1312HOH      O 4121   2.502   3.298   1.284
 1312HOH     H1 4122   2.500   3.372   1.223
 1312HOH     H2 4123   2.410   3.281   1.303
 1313HOH      O 4124   1.312   2.307   1.788
 1313HOH     H1 4125   1.335   2.362   1.713
 1313HOH     H2 4126   1.262   2.235   1.749
 1314HOH      O 4127   2.649   1.969   2.110
 1314HOH     H1 4128   2.569   2.008   2.076
 1314HOH     H2 4129   2.625   1.880   2.134
 1315HOH      O 4130   1.934   0.281   2.830
 1315HOH     H1 4131   1.893   0.268   2.744
 1315HOH     H2 4132   1.865   0.320   2.884
 1316HOH      O 4133   2.519   1.875   2.462
 1316HOH     H1 4134   2.551   1.847   2.376
 1316HOH     H2 4135   2.592   1.922   2.502
 1317HOH      O 4136   1.417   1.577   3.113
 1317HOH     H1 4137   1.508   1.572   3.141
 1317HOH     H2 4138   1.417   1.535   3.027
 1318HOH      O 4139   0.919   3.896   0.788
 1318HOH     H1 4140   0.895   3.985   0.763
 1318HOH     H2 4141   1.015   3.896   0.787
 1319HOH      O 4142   0.057   1.453   0.517
 1319HOH     H1 4143  -0.027   1.437   0.474
 1319HOH     H2 4144   0.033   1.476   0.607
 1320HOH      O 4145   0.275   1.617   3.043
 1320HOH     H1 4146   0.313   1.633   3.129
 1320HOH     H2 4147   0.345   1.638   2.981
 1321HOH      O 4148   2.159   2.402   0.086
 1321HOH     H1 4149   2.099   2.348   0.035
 1321HOH     H2 4150   2.203   2.458   0.021
 1322HOH      O 4151   2.200   1.530   2.857
 1322HOH     H1 4152   2.105   1.526   2.850
 1322HOH     H2 4153   2.226   1.439   2.874
 1323HOH      O 4154   3.299   2.055   4.002
 1323HOH     H1 4155   3.269   2.029   3.915
 1323HOH     H2 4156   3.392   2.035   4.002
 1324HOH      O 4157  -0.010   2.666   2.374
 1324HOH     H1 4158   0.047   2.706   2.440
 1324HOH     H2 4159   0.044   2.597   2.335
 1325HOH      O 4160   0.154   3.520   0.087
 1325HOH     H1 4161   0.065   3.529   0.055
 1325HOH     H2 4162   0.203   3.483   0.014
 1326HOH      O 4163   0.339   3.973   1.993
 1326HOH     H1 4164   0.327   3.924   1.912
 1326HOH     H2 4165   0.339   4.065   1.966
 1327HOH      O 4166   2.044   1.702   2.347
 1327HOH     H1 4167   2.122   1.757   2.342
 1327HOH     H2 4168   2.051   1.643   2.273
 1328HOH      O 4169   4.037   3.907   2.633
 1328HOH     H1 4170   4.066   3.997   2.620
 1328HOH     H2 4171   3.942   3.910   2.621
 1329HOH      O 4172   1.415   1.633   1.193
 1329HOH     H1 4173   1.328   1.638   1.153
 1329HOH     H2 4174   1.458   1.560   1.148
 1330HOH      O 4175   3.222   3.426   0.726
 1330HOH     H1 4176   3.317   3.439   0.726
 1330HOH     H2 4177   3.206   3.374   0.805
 1331HOH      O 4178   0.098   1.240   0.839
 1331HOH     H1 4179   0.012   1.280   0.827
 1331HOH     H2 4180   0.100   1.169   0.775
 1332HOH      O 4181   2.998   3.669   3.755
 1332HOH     H1 4182   2.981   3.669   3.849
 1332HOH     H2 4183   2.986   3.760   3.728
 1333HOH      O 4184   3.232   0.404   1.343
 1333HOH     H1 4185   3.228   0.319   1.300
 1333HOH     H2 4186   3.306   0.449   1.302
 1334HOH      O 4187   0.777   3.844   0.046
 1334HOH     H1 4188   0.727   3.885   0.117
 1334HOH     H2 4189   0.865   3.833   0.082
 1335HOH      O 4190   0.026   3.797   1.135
 1335HOH     H1 4191   0.103   3.790   1.192
 1335HOH     H2 4192   0.005   3.707   1.111
 1336HOH      O 4193   0.069   0.763   0.147
 1336HOH     H1 4194   0.164   0.775   0.148
 1336HOH     H2 4195   0.057   0.673   0.115
 1337HOH      O 4196   0.736   0.440   2.047
 1337HOH     H1 4197   0.828   0.454   2.024
 1337HOH     H2 4198   0.689   0.452   1.965
 1338HOH      O 4199   3.724   2.352   2.045
 1338HOH     H1 4200   3.665   2.351   2.121
 1338HOH     H2 4201   3.810   2.329   2.081
 1339HOH      O 4202   2.783   3.874   3.504
 1339HOH     H1 4203   2.708   3.843   3.555
 1339HOH     H2 4204   2.853   3.882   3.568
 1340HOH      O 4205   2.969   2.778   1.764
 1340HOH     H1 4206   3.059   2.745   1.762
 1340HOH     H2 4207   2.968   2.850   1.701
 1341HOH      O 4208   1.767   3.199   3.542
 1341HOH     H1 4209   1.748   3.107   3.559
 1341HOH     H2 4210   1.687   3.233   3.503
 1342HOH      O 4211   1.568   4.007   0.814
 1342HOH     H1 4212   1.576   3.913   0.830
 1342HOH     H2 4213   1.598   4.019   0.724
 1343HOH      O 4214   3.125   1.236   1.679
 1343HOH     H1 4215   3.156   1.325   1.663
 1343HOH     H2 4216   3.148   1.219   1.770
 1344HOH      O 4217   1.913   3.330   2.528
 1344HOH     H1 4218   1.969   3.357   2.602
 1344HOH     H2 4219   1.929   3.236   2.520
 1345HOH      O 4220   0.670   1.188   0.912
 1345HOH     H1 4221   0.581   1.162   0.890
 1345HOH     H2 4222   0.694   1.252   0.845
 1346HOH      O 4223   0.781   3.501   1.332
 1346HOH     H1 4224   0.758   3.414   1.298
 1346HOH     H2 4225   0.823   3.546   1.258
 1347HOH      O 4226   0.177   2.965   1.273
 1347HOH     H1 4227   0.230   2.934   1.347
 1347HOH     H2 4228   0.217   2.924   1.197
 1348HOH      O 4229   3.390   0.178   0.784
 1348HOH     H1 4230   3.433   0.166   0.869
 1348HOH     H2 4231   3.461   0.172   0.720
 1349HOH      O 4232   1.874   0.066   2.183
 1349HOH     H1 4233   1.786   0.078   2.146
 1349HOH     H2 4234   1.925   0.139   2.148
 1350HOH      O 4235   1.900   1.780   0.213
 1350HOH     H1 4236   1.922   1.751   0.301
 1350HOH     H2 4237   1.838   1.714   0.181
 1351HOH      O 4238   0.032   3.872   3.151
 1351HOH     H1 4239  -0.012   3.839   3.229
 1351HOH     H2 4240   0.036   3.967   3.164
 1352HOH      O 4241   1.557   1.861   3.413
 1352HOH     H1 4242   1.596   1.831   3.495
 1352HOH     H2 4243   1.569   1.956   3.413
 1353HOH      O 4244   1.970   1.528   2.130
 1353HOH     H1 4245   1.908   1.462   2.099
 1353HOH     H2 4246   1.952   1.605   2.076
 1354HOH      O 4247   3.229   0.094   3.251
 1354HOH     H1 4248   3.168   0.157   3.289
 1354HOH     H2 4249   3.224   0.109   3.157
 1355HOH      O 4250   3.150   0.975   0.475
 1355HOH     H1 4251   3.098   0.930   0.409
 1355HOH     H2 4252   3.099   0.967   0.556
 1356HOH      O 4253   2.182   1.556   3.649
 1356HOH     H1 4254   2.103   1.577   3.599
 1356HOH     H2 4255   2.226   1.488   3.598
 1357HOH      O 4256   2.343   1.006   3.285
 1357HOH     H1 4257   2.249   0.994   3.298
 1357HOH     H2 4258   2.373   1.044   3.367
 1358HOH      O 4259   3.327   2.318   1.889
 1358HOH     H1 4260   3.403   2.283   1.842
 1358HOH     H2 4261   3.263   2.246   1.886
 1359HOH      O 4262   3.132   0.791   0.268
 1359HOH     H1 4263   3.123   0.787   0.172
 1359HOH     H2 4264   3.214   0.836   0.283
 1360HOH      O 4265   3.798   2.993   3.434
 1360HOH     H1 4266   3.753   3.074   3.409
 1360HOH     H2 4267   3.804   2.997   3.529
 1361HOH      O 4268   3.488   2.944   0.049
 1361HOH     H1 4269   3.403   2.902   0.033
 1361HOH     H2 4270   3.468   3.038   0.047
 1362HOH      O 4271   3.596   0.758   2.059
 1362HOH     H1 4272   3.665   0.823   2.071
 1362HOH     H2 4273   3.576   0.727   2.148
 1363HOH      O 4274   1.958   2.463   3.737
 1363HOH     H1 4275   1.898   2.486   3.807
 1363HOH     H2 4276   1.910   2.399   3.684
 1364HOH      O 4277   2.487   1.353   0.736
 1364HOH     H1 4278   2.492   1.444   0.707
 1364HOH     H2 4279   2.516   1.356   0.827
 1365HOH      O 4280   3.550   2.235   0.132
 1365HOH     H1 4281   3.609   2.264   0.201
 1365HOH     H2 4282   3.489   2.175   0.177
 1366HOH      O 4283   0.821   3.171   0.127
 1366HOH     H1 4284   0.853   3.255   0.162
 1366HOH     H2 4285   0.785   3.194   0.041
 1367HOH      O 4286   1.753   2.473   0.756
 1367HOH     H1 4287   1.825   2.529   0.785
 1367HOH     H2 4288   1.726   2.426   0.835
 1368HOH      O 4289   1.025   1.708   2.626
 1368HOH     H1 4290   1.071   1.676   2.703
 1368HOH     H2 4291   1.033   1.638   2.561
 1369HOH      O 4292   3.595   3.670   3.162
 1369HOH     H1 4293   3.562   3.592   3.117
 1369HOH     H2 4294   3.670   3.638   3.213
 1370HOH      O 4295   0.845   2.959   1.260
 1370HOH     H1 4296   0.840   2.912   1.176
 1370HOH     H2 4297   0.800   2.902   1.322
 1371HOH      O 4298   0.226   2.807   4.042
 1371HOH     H1 4299   0.149   2.822   3.987
 1371HOH     H2 4300   0.233   2.711   4.046
 1372HOH      O 4301   2.705   1.632   3.980
 1372HOH     H1 4302   2.790   1.594   3.961
 1372HOH     H2 4303   2.699   1.631   4.076
 1373HOH      O 4304   1.158   1.901   0.954
 1373HOH     H1 4305   1.245   1.938   0.939
 1373HOH     H2 4306   1.121   1.954   1.024
 1374HOH      O 4307   3.259   2.759   2.160
 1374HOH     H1 4308   3.173   2.784   2.191
 1374HOH     H2 4309   3.243   2.686   2.100
 1375HOH      O 4310   2.329   3.339   0.623
 1375HOH     H1 4311   2.234   3.338   0.625
 1375HOH     H2 4312   2.350   3.354   0.530
 1376HOH      O 4313   1.413   0.167   3.089
 1376HOH     H1 4314   1.391   0.255   3.058
 1376HOH     H2 4315   1.501   0.150   3.054
 1377HOH      O 4316   2.579   0.199   3.964
 1377HOH     H1 4317   2.567   0.153   3.881
 1377HOH     H2 4318   2.597   0.129   4.027
 1378HOH      O 4319   0.415   0.229   2.008
 1378HOH     H1 4320   0.324   0.241   2.034
 1378HOH     H2 4321   0.462   0.219   2.091
 1379HOH      O 4322   2.847   2.899   2.078
 1379HOH     H1 4323   2.822   2.990   2.093
 1379HOH     H2 4324   2.788   2.869   2.009
 1380HOH      O 4325   3.109   0.909   2.510
 1380HOH     H1 4326   3.133   0.870   2.594
 1380HOH     H2 4327   3.139   0.846   2.444
 1381HOH      O 4328   2.515   2.423   2.967
 1381HOH     H1 4329   2.598   2.469   2.976
 1381HOH     H2 4330   2.524   2.344   3.020
 1382HOH      O 4331   3.876   3.913   1.724
 1382HOH     H1 4332   3.838   3.989   1.679
 1382HOH     H2 4333   3.801   3.857   1.743
 1383HOH      O 4334   1.180   2.600   2.257
 1383HOH     H1 4335   1.254   2.610   2.197
 1383HOH     H2 4336   1.205   2.528   2.315
 1384HOH      O 4337   1.857   2.776   2.599
 1384HOH     H1 4338   1.771   2.816   2.611
 1384HOH     H2 4339   1.845   2.684   2.623
 1385HOH      O 4340   2.834   0.076   3.365
 1385HOH     H1 4341   2.791   0.070   3.280
 1385HOH     H2 4342   2.791   0.009   3.419
 1386HOH      O 4343   0.108   3.053   2.762
 1386HOH     H1 4344   0.069   3.121   2.708
 1386HOH     H2 4345   0.049   3.045   2.837
 1387HOH      O 4346   0.759   3.502   3.868
 1387HOH     H1 4347   0.832   3.468   3.919
 1387HOH     H2 4348   0.780   3.595   3.856
 1388HOH      O 4349   0.499   2.025   0.413
 1388HOH     H1 4350   0.541   2.073   0.484
 1388HOH     H2 4351   0.571   1.999   0.355
 1389HOH      O 4352   1.032   2.408   3.305
 1389HOH     H1 4353   1.036   2.392   3.210
 1389HOH     H2 4354   1.118   2.383   3.337
 1390HOH      O 4355   1.306   0.114   1.738
 1390HOH     H1 4356   1.306   0.056   1.663
 1390HOH     H2 4357   1.226   0.166   1.729
 1391HOH      O 4358   1.356   0.685   0.967
 1391HOH     H1 4359   1.365   0.734   1.049
 1391HOH     H2 4360   1.412   0.730   0.905
 1392HOH      O 4361   0.747   1.163   0.195
 1392HOH     H1 4362   0.831   1.181   0.153
 1392HOH     H2 4363   0.710   1.250   0.212
 1393HOH      O 4364   2.866   1.689   1.003
 1393HOH     H1 4365   2.948   1.666   0.958
 1393HOH     H2 4366   2.829   1.605   1.030
 1394HOH      O 4367   3.466   3.676   1.348
 1394HOH     H1 4368   3.556   3.650   1.370
 1394HOH     H2 4369   3.440   3.734   1.420
 1395HOH      O 4370   1.621   3.848   2.082
 1395HOH     H1 4371   1.644   3.784   2.014
 1395HOH     H2 4372   1.550   3.806   2.131
 1396HOH      O 4373   2.479   3.768   0.210
 1396HOH     H1 4374   2.440   3.701   0.154
 1396HOH     H2 4375   2.554   3.725   0.251
 1397HOH      O 4376   3.526   0.133   3.027
 1397HOH     H1 4377   3.513   0.220   3.063
 1397HOH     H2 4378   3.438   0.097   3.017
 1398HOH      O 4379   0.319   3.681   3.537
 1398HOH     H1 4380   0.313   3.755   3.476
 1398HOH     H2 4381   0.227   3.662   3.559
 1399HOH      O 4382   0.390   2.118   1.808
 1399HOH     H1 4383   0.320   2.102   1.745
 1399HOH     H2 4384   0.461   2.156   1.757
 1400HOH      O 4385   3.831   0.862   3.308
 1400HOH     H1 4386   3.922   0.836   3.324
 1400HOH     H2 4387   3.779   0.789   3.341
 1401HOH      O 4388   1.513   3.062   0.442
 1401HOH     H1 4389   1.501   3.121   0.516
 1401HOH     H2 4390   1.521   3.120   0.366
 1402HOH      O 4391   0.281   2.733   2.252
 1402HOH     H1 4392   0.256   2.781   2.331
 1402HOH     H2 4393   0.265   2.796   2.181
 1403HOH      O 4394   3.059   0.627   1.296
 1403HOH     H1 4395   2.985   0.567   1.302
 1403HOH     H2 4396   3.136   0.571   1.295
 1404HOH      O 4397   2.385   3.600  -0.004
 1404HOH     H1 4398   2.290   3.596   0.010
 1404HOH     H2 4399   2.416   3.512   0.019
 1405HOH      O 4400   1.709   2.796   0.281
 1405HOH     H1 4401   1.636   2.858   0.278
 1405HOH     H2 4402   1.776   2.836   0.225
 1406HOH      O 4403   3.918   0.652   3.070
 1406HOH     H1 4404   3.943   0.574   3.019
 1406HOH     H2 4405   3.823   0.649   3.074
 1407HOH      O 4406   3.611   3.560   0.572
 1407HOH     H1 4407   3.599   3.652   0.595
 1407HOH     H2 4408   3.702   3.554   0.543
 1408HOH      O 4409   2.625   3.284   1.539
 1408HOH     H1 4410   2.568   3.265   1.465
 1408HOH     H2 4411   2.653   3.375   1.524
 1409HOH      O 4412   3.580   1.998   1.137
 1409HOH     H1 4413   3.561   1.950   1.057
 1409HOH     H2 4414   3.675   1.995   1.145
 1410HOH      O 4415   3.673   0.712   1.479
 1410HOH     H1 4416   3.594   0.761   1.459
 1410HOH     H2 4417   3.738   0.778   1.503
 1411HOH      O 4418   3.738   4.008   0.037
 1411HOH     H1 4419   3.714   3.987  -0.054
 1411HOH     H2 4420   3.789   3.933   0.066
 1412HOH      O 4421   2.549   0.842   2.957
 1412HOH     H1 4422   2.586   0.783   2.892
 1412HOH     H2 4423   2.620   0.859   3.018
 1413HOH      O 4424   1.512   2.880   4.041
 1413HOH     H1 4425   1.554   2.898   3.957
 1413HOH     H2 4426   1.535   2.790   4.062
 1414HOH      O 4427   3.984   0.946   2.378
 1414HOH     H1 4428   4.001   1.040   2.375
 1414HOH     H2 4429   3.997   0.922   2.469
 1415HOH      O 4430   3.606   2.230   1.847
 1415HOH     H1 4431   3.663   2.288   1.897
 1415HOH     H2 4432   3.606   2.147   1.896
 1416HOH      O 4433   1.678   0.687   2.247
 1416HOH     H1 4434   1.626   0.764   2.227
 1416HOH     H2 4435   1.632   0.615   2.203
 1417HOH      O 4436   2.852   2.049   3.181
 1417HOH     H1 4437   2.946   2.055   3.162
 1417HOH     H2 4438   2.845   1.983   3.249
 1418HOH      O 4439   3.244   1.358   2.421
 1418HOH     H1 4440   3.255   1.443   2.463
 1418HOH     H2 4441   3.157   1.328   2.450
 1419HOH      O 4442   3.070   2.395   2.131
 1419HOH     H1 4443   3.017   2.428   2.204
 1419HOH     H2 4444   3.083   2.471   2.075
 1420HOH      O 4445   3.259   1.442   2.785
 1420HOH     H1 4446   3.202   1.441   2.708
 1420HOH     H2 4447   3.300   1.355   2.785
 1421HOH      O 4448   1.173   0.337   2.534
 1421HOH     H1 4449   1.132   0.382   2.460
 1421HOH     H2 4450   1.157   0.395   2.608
 1422HOH      O 4451   3.762   0.873   0.726
 1422HOH     H1 4452   3.750   0.898   0.635
 1422HOH     H2 4453   3.695   0.922   0.774
 1423HOH      O 4454   0.755   1.311   0.654
 1423HOH     H1 4455   0.796   1.268   0.579
 1423HOH     H2 4456   0.805   1.392   0.665
 1424HOH      O 4457   3.692   2.746   3.351
 1424HOH     H1 4458   3.600   2.773   3.346
 1424HOH     H2 4459   3.736   2.820   3.391
 1425HOH      O 4460   2.731   2.799   1.137
 1425HOH     H1 4461   2.762   2.741   1.206
 1425HOH     H2 4462   2.777   2.882   1.154
 1426HOH      O 4463   0.720   3.410   3.207
 1426HOH     H1 4464   0.669   3.361   3.143
 1426HOH     H2 4465   0.810   3.403   3.177
 1427HOH      O 4466   0.593   1.706   1.056
 1427HOH     H1 4467   0.548   1.666   0.981
 1427HOH     H2 4468   0.579   1.644   1.127
 1428HOH      O 4469   0.092   0.364   1.085
 1428HOH     H1 4470   0.048   0.381   1.002
 1428HOH     H2 4471   0.056   0.429   1.145
 1429HOH      O 4472   3.476   2.566   1.178
 1429HOH     H1 4473   3.539   2.503   1.214
 1429HOH     H2 4474   3.497   2.649   1.222
 1430HOH      O 4475   1.903   3.073   2.871
 1430HOH     H1 4476   1.846   3.062   2.947
 1430HOH     H2 4477   1.923   3.167   2.869
 1431HOH      O 4478   1.883   1.807   3.361
 1431HOH     H1 4479   1.844   1.869   3.422
 1431HOH     H2 4480   1.963   1.849   3.331
 1432HOH      O 4481   3.528   3.590   0.207
 1432HOH     H1 4482   3.493   3.654   0.144
 1432HOH     H2 4483   3.471   3.598   0.283
 1433HOH      O 4484   3.657   3.148   3.920
 1433HOH     H1 4485   3.650   3.199   3.839
 1433HOH     H2 4486   3.573   3.163   3.964
 1434HOH      O 4487   1.904   2.138   3.025
 1434HOH     H1 4488   1.890   2.136   3.120
 1434HOH     H2 4489   1.970   2.206   3.012
 1435HOH      O 4490   3.729   0.428   1.348
 1435HOH     H1 4491   3.711   0.485   1.422
 1435HOH     H2 4492   3.796   0.475   1.297
 1436HOH      O 4493   0.399   3.679   2.719
 1436HOH     H1 4494   0.427   3.611   2.780
 1436HOH     H2 4495   0.384   3.633   2.637
 1437HOH      O 4496  -0.014   0.925   0.358
 1437HOH     H1 4497   0.064   0.967   0.395
 1437HOH     H2 4498   0.015   0.888   0.275
 1438HOH      O 4499   1.398   1.335   1.664
 1438HOH     H1 4500   1.489   1.364   1.673
 1438HOH     H2 4501   1.360   1.393   1.598
 1439HOH      O 4502  -0.006   1.899   0.322
 1439HOH     H1 4503   0.033   1.987   0.319
 1439HOH     H2 4504   0.017   1.861   0.237
 1440HOH      O 4505   3.162   3.880   3.366
 1440HOH     H1 4506   3.140   3.964   3.325
 1440HOH     H2 4507   3.129   3.814   3.305
 1441HOH      O 4508   1.890   1.692   1.756
 1441HOH     H1 4509   1.905   1.768   1.700
 1441HOH     H2 4510   1.891   1.727   1.845
 1442HOH      O 4511   0.063   0.736   3.800
 1442HOH     H1 4512  -0.002   0.665   3.804
 1442HOH     H2 4513   0.130   0.704   3.741
 1443HOH      O 4514   4.008   2.849   3.343
 1443HOH     H1 4515   4.032   2.880   3.256
 1443HOH     H2 4516   3.926   2.894   3.362
 1444HOH      O 4517   1.579   0.051   2.884
 1444HOH     H1 4518   1.659   0.081   2.929
 1444HOH     H2 4519   1.586   0.087   2.796
 1445HOH      O 4520   3.681   1.414   1.752
 1445HOH     H1 4521   3.747   1.368   1.805
 1445HOH     H2 4522   3.728   1.489   1.715
 1446HOH      O 4523   1.776   3.941   4.007
 1446HOH     H1 4524   1.836   3.997   3.958
 1446HOH     H2 4525   1.715   3.908   3.941
 1447HOH      O 4526   3.277   3.420   0.078
 1447HOH     H1 4527   3.191   3.438   0.117
 1447HOH     H2 4528   3.323   3.504   0.082
 1448HOH      O 4529   2.485   0.538   3.148
 1448HOH     H1 4530   2.412   0.495   3.194
 1448HOH     H2 4531   2.485   0.627   3.182
 1449HOH      O 4532   0.043   1.804   2.658
 1449HOH     H1 4533   0.062   1.815   2.565
 1449HOH     H2 4534   0.071   1.886   2.698
 1450HOH      O 4535   0.706   2.181   3.423
 1450HOH     H1 4536   0.753   2.231   3.489
 1450HOH     H2 4537   0.677   2.102   3.469
 1451HOH      O 4538   3.050   3.757   2.071
 1451HOH     H1 4539   3.095   3.711   2.142
 1451HOH     H2 4540   3.112   3.757   1.999
 1452HOH      O 4541   1.527   1.804   0.154
 1452HOH     H1 4542   1.503   1.742   0.086
 1452HOH     H2 4543   1.466   1.877   0.143
 1453HOH      O 4544   1.223   3.246   3.608
 1453HOH     H1 4545   1.185   3.238   3.696
 1453HOH     H2 4546   1.220   3.340   3.590
 1454HOH      O 4547   1.084   2.727   3.680
 1454HOH     H1 4548   1.149   2.780   3.634
 1454HOH     H2 4549   1.040   2.788   3.739
 1455HOH      O 4550   1.983   1.152   2.069
 1455HOH     H1 4551   1.984   1.117   1.980
 1455HOH     H2 4552   2.076   1.153   2.095
 1456HOH      O 4553   2.534   3.326   3.428
 1456HOH     H1 4554   2.522   3.410   3.472
 1456HOH     H2 4555   2.557   3.349   3.338
 1457HOH      O 4556   3.448   1.762   3.876
 1457HOH     H1 4557   3.475   1.837   3.929
 1457HOH     H2 4558   3.422   1.696   3.940
 1458HOH      O 4559   0.341   2.283   1.325
 1458HOH     H1 4560   0.325   2.203   1.375
 1458HOH     H2 4561   0.279   2.278   1.251
 1459HOH      O 4562   0.163   2.096   2.254
 1459HOH     H1 4563   0.235   2.133   2.203
 1459HOH     H2 4564   0.132   2.022   2.202
 1460HOH      O 4565   2.854   0.000   1.540
 1460HOH     H1 4566   2.866  -0.049   1.621
 1460HOH     H2 4567   2.895   0.085   1.557
 1461HOH      O 4568   0.335   1.897   1.948
 1461HOH     H1 4569   0.412   1.953   1.943
 1461HOH     H2 4570   0.320   1.868   1.858
 1462HOH      O 4571   2.656   3.734   1.199
 1462HOH     H1 4572   2.690   3.728   1.288
 1462HOH     H2 4573   2.620   3.647   1.181
 1463HOH      O 4574   0.900   1.513   0.083
 1463HOH     H1 4575   0.815   1.482   0.115
 1463HOH     H2 4576   0.931   1.444   0.026
 1464HOH      O 4577   3.958   2.690   0.959
 1464HOH     H1 4578   4.048   2.675   0.930
 1464HOH     H2 4579   3.910   2.711   0.879
 1465HOH      O 4580   0.044   3.767   1.593
 1465HOH     H1 4581  -0.023   3.817   1.640
 1465HOH     H2 4582   0.068   3.697   1.654
 1466HOH      O 4583   1.540   1.132   2.307
 1466HOH     H1 4584   1.617   1.156   2.358
 1466HOH     H2 4585   1.517   1.045   2.338
 1467HOH      O 4586   3.945   0.157   0.452
 1467HOH     H1 4587   3.912   0.067   0.450
 1467HOH     H2 4588   4.003   0.163   0.376
 1468HOH      O 4589   0.346   3.867   3.309
 1468HOH     H1 4590   0.416   3.853   3.246
 1468HOH     H2 4591   0.276   3.909   3.259
 1469HOH      O 4592   3.392   2.190   3.519
 1469HOH     H1 4593   3.422   2.099   3.516
 1469HOH     H2 4594   3.402   2.221   3.429
 1470HOH      O 4595   3.305   2.138   1.230
 1470HOH     H1 4596   3.326   2.175   1.144
 1470HOH     H2 4597   3.385   2.092   1.256
 1471HOH      O 4598   3.202   0.591   1.584
 1471HOH     H1 4599   3.173   0.530   1.516
 1471HOH     H2 4600   3.260   0.652   1.538
 1472HOH      O 4601   1.611   1.258   0.621
 1472HOH     H1 4602   1.670   1.281   0.693
 1472HOH     H2 4603   1.524   1.277   0.654
 1473HOH      O 4604   0.439   1.970   1.055
 1473HOH     H1 4605   0.352   1.931   1.066
 1473HOH     H2 4606   0.492   1.932   1.125
 1474HOH      O 4607   2.490   0.025   2.570
 1474HOH     H1 4608   2.441   0.079   2.508
 1474HOH     H2 4609   2.571   0.074   2.585
 1475HOH      O 4610   1.924   1.945   1.622
 1475HOH     H1 4611   1.990   1.968   1.557
 1475HOH     H2 4612   1.884   2.028   1.646
 1476HOH      O 4613   3.983   0.303   3.360
 1476HOH     H1 4614   3.894   0.270   3.363
 1476HOH     H2 4615   3.992   0.356   3.439
 1477HOH      O 4616   3.943   3.079   2.529
 1477HOH     H1 4617   3.849   3.087   2.513
 1477HOH     H2 4618   3.978   3.050   2.445
 1478HOH      O 4619   1.933   0.617   0.676
 1478HOH     H1 4620   2.018   0.645   0.709
 1478HOH     H2 4621   1.877   0.614   0.753
 1479HOH      O 4622   3.594   2.275   1.270
 1479HOH     H1 4623   3.662   2.322   1.221
 1479HOH     H2 4624   3.554   2.217   1.206
 1480HOH      O 4625   3.887   1.371   0.873
 1480HOH     H1 4626   3.942   1.435   0.829
 1480HOH     H2 4627   3.822   1.346   0.807
 1481HOH      O 4628   3.325   1.067   0.045
 1481HOH     H1 4629   3.244   1.057  -0.005
 1481HOH     H2 4630   3.394   1.068  -0.021
 1482HOH      O 4631   2.889   0.876   0.081
 1482HOH     H1 4632   2.805   0.893   0.038
 1482HOH     H2 4633   2.895   0.781   0.086
 1483HOH      O 4634   3.168   1.363   0.704
 1483HOH     H1 4635   3.216   1.353   0.786
 1483HOH     H2 4636   3.113   1.285   0.698
 1484HOH      O 4637   1.132   2.094   3.158
 1484HOH     H1 4638   1.158   2.041   3.234
 1484HOH     H2 4639   1.037   2.084   3.153
 1485HOH      O 4640   1.257   2.274   1.226
 1485HOH     H1 4641   1.340   2.284   1.273
 1485HOH     H2 4642   1.229   2.184   1.244
 1486HOH      O 4643   2.341   2.338   2.787
 1486HOH     H1 4644   2.393   2.271   2.742
 1486HOH     H2 4645   2.399   2.371   2.855
 1487HOH      O 4646   1.139   2.688   1.441
 1487HOH     H1 4647   1.152   2.782   1.428
 1487HOH     H2 4648   1.180   2.648   1.365
 1488HOH      O 4649   0.455   1.569   1.273
 1488HOH     H1 4650   0.516   1.535   1.338
 1488HOH     H2 4651   0.372   1.527   1.293
 1489HOH      O 4652   2.124   0.855   0.543
 1489HOH     H1 4653   2.143   0.769   0.579
 1489HOH     H2 4654   2.081   0.837   0.459
 1490HOH      O 4655   2.642   2.191   3.096
 1490HOH     H1 4656   2.691   2.130   3.151
 1490HOH     H2 4657   2.708   2.255   3.068
 1491HOH      O 4658   1.408   2.287   3.795
 1491HOH     H1 4659   1.449   2.314   3.877
 1491HOH     H2 4660   1.468   2.318   3.727
 1492HOH      O 4661   1.447   2.328   0.304
 1492HOH     H1 4662   1.458   2.312   0.210
 1492HOH     H2 4663   1.386   2.402   0.309
 1493HOH      O 4664   2.530   1.312   2.353
 1493HOH     H1 4665   2.610   1.320   2.301
 1493HOH     H2 4666   2.545   1.371   2.427
 1494HOH      O 4667   3.808   2.653   2.545
 1494HOH     H1 4668   3.878   2.652   2.480
 1494HOH     H2 4669   3.761   2.570   2.530
 1495HOH      O 4670   3.184   1.637   2.972
 1495HOH     H1 4671   3.219   1.605   2.890
 1495HOH     H2 4672   3.103   1.683   2.947
 1496HOH      O 4673   0.798   1.694   1.869
 1496HOH     H1 4674   0.842   1.768   1.829
 1496HOH     H2 4675   0.850   1.673   1.947
 1497HOH      O 4676   2.142   2.247   0.759
 1497HOH     H1 4677   2.064   2.242   0.704
 1497HOH     H2 4678   2.215   2.251   0.697
 1498HOH      O 4679   2.608   3.477   2.837
 1498HOH     H1 4680   2.590   3.471   2.743
 1498HOH     H2 4681   2.541   3.538   2.869
 1499HOH      O 4682   3.321   3.974   0.422
 1499HOH     H1 4683   3.379   4.020   0.362
 1499HOH     H2 4684   3.329   4.020   0.505
 1500HOH      O 4685   1.437   1.468   2.126
 1500HOH     H1 4686   1.494   1.530   2.172
 1500HOH     H2 4687   1.455   1.384   2.168
 1501HOH      O 4688   3.977   3.548   2.028
 1501HOH     H1 4689   4.020   3.552   1.943
 1501HOH     H2 4690   4.027   3.608   2.083
 1502HOH      O 4691   0.365   1.181   2.136
 1502HOH     H1 4692   0.273   1.154   2.142
 1502HOH     H2 4693   0.372   1.254   2.197
 1503HOH      O 4694   0.744   2.179   2.443
 1503HOH     H1 4695   0.781   2.265   2.422
 1503HOH     H2 4696   0.808   2.116   2.410
 1504HOH      O 4697   0.027   2.131   2.505
 1504HOH     H1 4698   0.103   2.103   2.454
 1504HOH     H2 4699   0.051   2.218   2.538
 1505HOH      O 4700   2.758   0.238   0.901
 1505HOH     H1 4701   2.830   0.232   0.965
 1505HOH     H2 4702   2.699   0.167   0.926
 1506HOH      O 4703   1.675   3.533   1.223
 1506HOH     H1 4704   1.694   3.477   1.298
 1506HOH     H2 4705   1.760   3.553   1.185
 1507HOH      O 4706   3.431   1.173   1.246
 1507HOH     H1 4707   3.370   1.147   1.315
 1507HOH     H2 4708   3.441   1.094   1.192
 1508HOH      O 4709   3.926   2.004   2.291
 1508HOH     H1 4710   3.990   2.074   2.299
 1508HOH     H2 4711   3.911   1.974   2.381
 1509HOH      O 4712   0.892   1.222   1.687
 1509HOH     H1 4713   0.976   1.186   1.716
 1509HOH     H2 4714   0.913   1.310   1.658
 1510HOH      O 4715   0.162   1.487   1.042
 1510HOH     H1 4716   0.195   1.534   0.966
 1510HOH     H2 4717   0.171   1.395   1.019
 1511HOH      O 4718   1.958   1.756   0.907
 1511HOH     H1 4719   1.894   1.785   0.972
 1511HOH     H2 4720   1.963   1.829   0.844
 1512HOH      O 4721   2.252   2.794   2.185
 1512HOH     H1 4722   2.326   2.735   2.199
 1512HOH     H2 4723   2.215   2.767   2.101
 1513HOH      O 4724   1.836   3.549   3.934
 1513HOH     H1 4725   1.748   3.536   3.972
 1513HOH     H2 4726   1.875   3.618   3.988
 1514HOH      O 4727   0.480   2.110   3.232
 1514HOH     H1 4728   0.415   2.177   3.251
 1514HOH     H2 4729   0.550   2.125   3.296
 1515HOH      O 4730   0.982   1.153   0.545
 1515HOH     H1 4731   1.070   1.142   0.510
 1515HOH     H2 4732   0.992   1.140   0.640
 1516HOH      O 4733   2.242   3.827   2.189
 1516HOH     H1 4734   2.172   3.764   2.201
 1516HOH     H2 4735   2.216   3.902   2.242
 1517HOH      O 4736   2.230   1.997   1.193
 1517HOH     H1 4737   2.280   1.936   1.138
 1517HOH     H2 4738   2.227   2.078   1.143
 1518HOH      O 4739   2.544   2.601   0.078
 1518HOH     H1 4740   2.457   2.602   0.037
 1518HOH     H2 4741   2.566   2.694   0.088
 1519HOH      O 4742   0.640   3.688   3.191
 1519HOH     H1 4743   0.661   3.595   3.203
 1519HOH     H2 4744   0.683   3.711   3.109
 1520HOH      O 4745   1.764   1.156   1.246
 1520HOH     H1 4746   1.673   1.184   1.252
 1520HOH     H2 4747   1.811   1.234   1.217
 1521HOH      O 4748   2.802   2.623   0.637
 1521HOH     H1 4749   2.713   2.625   0.601
 1521HOH     H2 4750   2.790   2.631   0.732
 1522HOH      O 4751   1.881   0.374   0.313
 1522HOH     H1 4752   1.951   0.431   0.282
 1522HOH     H2 4753   1.874   0.305   0.246
 1523HOH      O 4754   1.826   2.909   3.622
 1523HOH     H1 4755   1.761   2.869   3.564
 1523HOH     H2 4756   1.904   2.854   3.613
 1524HOH      O 4757   0.486   1.239   1.515
 1524HOH     H1 4758   0.428   1.225   1.440
 1524HOH     H2 4759   0.565   1.188   1.494
 1525HOH      O 4760   3.508   0.190   1.348
 1525HOH     H1 4761   3.577   0.257   1.353
 1525HOH     H2 4762   3.439   0.231   1.297
 1526HOH      O 4763   1.919   3.236   3.785
 1526HOH     H1 4764   1.850   3.249   3.850
 1526HOH     H2 4765   1.875   3.242   3.701
 1527HOH      O 4766   3.423   0.424   2.480
 1527HOH     H1 4767   3.480   0.399   2.553
 1527HOH     H2 4768   3.375   0.343   2.459
 1528HOH      O 4769   2.278   0.585   3.413
 1528HOH     H1 4770   2.205   0.642   3.434
 1528HOH     H2 4771   2.348   0.645   3.386
 1529HOH      O 4772   3.708   2.789   3.993
 1529HOH     H1 4773   3.774   2.814   4.058
 1529HOH     H2 4774   3.629   2.836   4.019
 1530HOH      O 4775   0.248   2.244   1.055
 1530HOH     H1 4776   0.213   2.165   1.096
 1530HOH     H2 4777   0.271   2.216   0.966
 1531HOH      O 4778   2.325   1.559   0.374
 1531HOH     H1 4779   2.235   1.537   0.400
 1531HOH     H2 4780   2.378   1.486   0.406
 1532HOH      O 4781   2.027   3.986   0.523
 1532HOH     H1 4782   1.986   4.073   0.525
 1532HOH     H2 4783   2.054   3.975   0.432
 1533HOH      O 4784   2.303   0.793   2.015
 1533HOH     H1 4785   2.262   0.851   2.080
 1533HOH     H2 4786   2.343   0.853   1.952
 1534HOH      O 4787   2.469   1.626   0.698
 1534HOH     H1 4788   2.536   1.669   0.751
 1534HOH     H2 4789   2.462   1.680   0.620
 1535HOH      O 4790   3.276   1.240   0.320
 1535HOH     H1 4791   3.240   1.157   0.350
 1535HOH     H2 4792   3.255   1.242   0.226
 1536HOH      O 4793   3.152   3.895   1.829
 1536HOH     H1 4794   3.173   3.979   1.788
 1536HOH     H2 4795   3.234   3.866   1.869
 1537HOH      O 4796   3.611   2.691   0.501
 1537HOH     H1 4797   3.602   2.622   0.435
 1537HOH     H2 4798   3.592   2.772   0.453
 1538HOH      O 4799   1.336   3.566   2.496
 1538HOH     H1 4800   1.254   3.575   2.545
 1538HOH     H2 4801   1.404   3.583   2.561
 1539HOH      O 4802   1.826   1.322   0.803
 1539HOH     H1 4803   1.822   1.228   0.822
 1539HOH     H2 4804   1.908   1.351   0.843
 1540HOH      O 4805   3.311   1.216   3.260
 1540HOH     H1 4806   3.404   1.240   3.267
 1540HOH     H2 4807   3.268   1.297   3.230
 1541HOH      O 4808   0.624   0.022   3.176
 1541HOH     H1 4809   0.709  -0.001   3.137
 1541HOH     H2 4810   0.566   0.034   3.101
 1542HOH      O 4811   1.917   3.640   1.172
 1542HOH     H1 4812   1.934   3.678   1.086
 1542HOH     H2 4813   1.981   3.682   1.230
 1543HOH      O 4814   2.093   1.730   3.894
 1543HOH     H1 4815   2.154   1.798   3.919
 1543HOH     H2 4816   2.069   1.751   3.803
 1544HOH      O 4817   0.133   2.999   1.713
 1544HOH     H1 4818   0.038   2.995   1.724
 1544HOH     H2 4819   0.158   2.911   1.686
 1545HOH      O 4820   0.826   0.017   2.396
 1545HOH     H1 4821   0.867   0.101   2.416
 1545HOH     H2 4822   0.828  -0.031   2.478
 1546HOH      O 4823   1.333   1.981   1.320
 1546HOH     H1 4824   1.290   1.928   1.387
 1546HOH     H2 4825   1.421   1.943   1.312
 1547HOH      O 4826   2.485   2.163   2.293
 1547HOH     H1 4827   2.459   2.255   2.287
 1547HOH     H2 4828   2.492   2.134   2.202
 1548HOH      O 4829   1.946   2.254   1.241
 1548HOH     H1 4830   1.864   2.289   1.206
 1548HOH     H2 4831   2.012   2.281   1.177
 1549HOH      O 4832   1.354   3.353   2.004
 1549HOH     H1 4833   1.395   3.301   1.935
 1549HOH     H2 4834   1.352   3.442   1.970
 1550HOH      O 4835   3.009   1.862   0.473
 1550HOH     H1 4836   3.014   1.808   0.394
 1550HOH     H2 4837   2.915   1.865   0.493
 1551HOH      O 4838   0.658   3.890   1.628
 1551HOH     H1 4839   0.614   3.811   1.597
 1551HOH     H2 4840   0.710   3.860   1.703
 1552HOH      O 4841   1.364   2.847   2.834
 1552HOH     H1 4842   1.356   2.754   2.854
 1552HOH     H2 4843   1.274   2.875   2.816
 1553HOH      O 4844   2.934   0.673   0.407
 1553HOH     H1 4845   2.879   0.616   0.353
 1553HOH     H2 4846   3.011   0.690   0.353
 1554HOH      O 4847   1.534   1.445   3.799
 1554HOH     H1 4848   1.619   1.401   3.800
 1554HOH     H2 4849   1.512   1.452   3.706
 1555HOH      O 4850   1.242   3.883   2.746
 1555HOH     H1 4851   1.313   3.892   2.682
 1555HOH     H2 4852   1.285   3.893   2.831
 1556HOH      O 4853   1.713   0.983   1.776
 1556HOH     H1 4854   1.712   0.986   1.680
 1556HOH     H2 4855   1.786   1.039   1.802
 1557HOH      O 4856   3.984   1.216   3.786
 1557HOH     H1 4857   3.945   1.216   3.699
 1557HOH     H2 4858   4.050   1.146   3.782
 1558HOH      O 4859   3.077   3.330   3.571
 1558HOH     H1 4860   3.146   3.304   3.510
 1558HOH     H2 4861   2.999   3.339   3.516
 1559HOH      O 4862   0.503   0.757   3.638
 1559HOH     H1 4863   0.594   0.762   3.609
 1559HOH     H2 4864   0.508   0.758   3.734
 1560HOH      O 4865   3.721   2.359   3.052
 1560HOH     H1 4866   3.653   2.374   2.985
 1560HOH     H2 4867   3.752   2.447   3.074
 1561HOH      O 4868   2.628   0.830   3.526
 1561HOH     H1 4869   2.715   0.860   3.499
 1561HOH     H2 4870   2.645   0.750   3.575
 1562HOH      O 4871   1.009   0.284   0.929
 1562HOH     H1 4872   0.956   0.316   1.002
 1562HOH     H2 4873   1.032   0.363   0.880
 1563HOH      O 4874   1.205   0.647   2.945
 1563HOH     H1 4875   1.288   0.693   2.946
 1563HOH     H2 4876   1.145   0.706   2.899
 1564HOH      O 4877   2.436   2.506   1.010
 1564HOH     H1 4878   2.388   2.579   0.971
 1564HOH     H2 4879   2.522   2.541   1.030
 1565HOH      O 4880   3.239   3.525   1.552
 1565HOH     H1 4881   3.326   3.484   1.543
 1565HOH     H2 4882   3.209   3.536   1.462
 1566HOH      O 4883   0.969   0.044   1.433
 1566HOH     H1 4884   0.885   0.090   1.426
 1566HOH     H2 4885   1.032   0.114   1.451
 1567HOH      O 4886   0.425   2.793   3.295
 1567HOH     H1 4887   0.385   2.843   3.366
 1567HOH     H2 4888   0.519   2.804   3.307
 1568HOH      O 4889   3.633   1.427   2.177
 1568HOH     H1 4890   3.657   1.413   2.268
 1568HOH     H2 4891   3.692   1.370   2.128
 1569HOH      O 4892   2.724   3.788   1.454
 1569HOH     H1 4893   2.772   3.865   1.483
 1569HOH     H2 4894   2.697   3.744   1.534
 1570HOH      O 4895   0.366   1.863   0.120
 1570HOH     H1 4896   0.446   1.880   0.070
 1570HOH     H2 4897   0.334   1.951   0.143
 1571HOH      O 4898   2.951   3.719   0.541
 1571HOH     H1 4899   3.014   3.769   0.489
 1571HOH     H2 4900   2.978   3.628   0.532
 1572HOH      O 4901   2.939   2.491   0.052
 1572HOH     H1 4902   2.855   2.459   0.018
 1572HOH     H2 4903   2.995   2.414   0.053
 1573HOH      O 4904   1.025   2.774   2.113
 1573HOH     H1 4905   0.943   2.743   2.150
 1573HOH     H2 4906   1.092   2.723   2.157
 1574HOH      O 4907   1.449   2.832   1.829
 1574HOH     H1 4908   1.448   2.744   1.867
 1574HOH     H2 4909   1.519   2.877   1.875
 1575HOH      O 4910   3.710   3.645   2.064
 1575HOH     H1 4911   3.803   3.621   2.067
 1575HOH     H2 4912   3.699   3.688   1.980
 1576HOH      O 4913   2.761   0.274   2.691
 1576HOH     H1 4914   2.731   0.266   2.781
 1576HOH     H2 4915   2.850   0.238   2.692
 1577HOH      O 4916   2.842   3.009   2.961
 1577HOH     H1 4917   2.811   3.008   3.051
 1577HOH     H2 4918   2.834   2.918   2.932
 1578HOH      O 4919   0.951   3.493   0.233
 1578HOH     H1 4920   1.029   3.451   0.269
 1578HOH     H2 4921   0.951   3.581   0.270
 1579HOH      O 4922   3.507   0.598   0.622
 1579HOH     H1 4923   3.519   0.682   0.579
 1579HOH     H2 4924   3.578   0.543   0.587
 1580HOH      O 4925   0.343   0.642   1.037
 1580HOH     H1 4926   0.366   0.717   0.982
 1580HOH     H2 4927   0.384   0.567   0.994
 1581HOH      O 4928   3.828   0.186   1.226
 1581HOH     H1 4929   3.796   0.109   1.272
 1581HOH     H2 4930   3.777   0.258   1.261
 1582HOH      O 4931   0.745   1.868   0.493
 1582HOH     H1 4932   0.797   1.793   0.519
 1582HOH     H2 4933   0.738   1.921   0.572
 1583HOH      O 4934   2.089   1.077   0.699
 1583HOH     H1 4935   2.049   1.067   0.786
 1583HOH     H2 4936   2.108   0.988   0.671
 1584HOH      O 4937   2.165   1.244   3.182
 1584HOH     H1 4938   2.260   1.241   3.169
 1584HOH     H2 4939   2.146   1.167   3.235
 1585HOH      O 4940   3.960   3.553   0.993
 1585HOH     H1 4941   4.044   3.535   1.036
 1585HOH     H2 4942   3.962   3.501   0.913
 1586HOH      O 4943   2.439   3.663   2.684
 1586HOH     H1 4944   2.507   3.620   2.632
 1586HOH     H2 4945   2.364   3.668   2.626
 1587HOH      O 4946   2.998   2.238   1.408
 1587HOH     H1 4947   2.940   2.291   1.464
 1587HOH     H2 4948   3.086   2.261   1.437
 1588HOH      O 4949   1.779   2.271   0.175
 1588HOH     H1 4950   1.785   2.350   0.228
 1588HOH     H2 4951   1.791   2.199   0.238
 1589HOH      O 4952   2.408   0.748   1.668
 1589HOH     H1 4953   2.397   0.699   1.586
 1589HOH     H2 4954   2.326   0.797   1.677
 1590HOH      O 4955   2.355   1.825   1.842
 1590HOH     H1 4956   2.395   1.822   1.755
 1590HOH     H2 4957   2.268   1.862   1.826
 1591HOH      O 4958   0.210   2.894   3.131
 1591HOH     H1 4959   0.260   2.860   3.205
 1591HOH     H2 4960   0.216   2.989   3.139
 1592HOH      O 4961   0.560   0.713   2.408
 1592HOH     H1 4962   0.546   0.759   2.491
 1592HOH     H2 4963   0.539   0.777   2.341
 1593HOH      O 4964   2.541   2.256   0.940
 1593HOH     H1 4965   2.634   2.269   0.923
 1593HOH     H2 4966   2.503   2.344   0.937
 1594HOH      O 4967   3.537   2.455   3.984
 1594HOH     H1 4968   3.507   2.431   3.896
 1594HOH     H2 4969   3.541   2.371   4.031
 1595HOH      O 4970   3.904   0.927   3.896
 1595HOH     H1 4971   3.851   0.947   3.819
 1595HOH     H2 4972   3.941   0.841   3.877
 1596HOH      O 4973   1.921   3.043   2.590
 1596HOH     H1 4974   1.928   2.951   2.566
 1596HOH     H2 4975   1.893   3.042   2.681
 1597HOH      O 4976   0.190   3.999   1.713
 1597HOH     H1 4977   0.131   3.926   1.696
 1597HOH     H2 4978   0.176   4.058   1.639
 1598HOH      O 4979   2.752   0.047   1.937
 1598HOH     H1 4980   2.659   0.069   1.945
 1598HOH     H2 4981   2.791   0.122   1.892
 1599HOH      O 4982   1.529   2.940   1.373
 1599HOH     H1 4983   1.495   3.027   1.354
 1599HOH     H2 4984   1.457   2.881   1.351
 1600HOH      O 4985   3.616   1.767   0.217
 1600HOH     H1 4986   3.676   1.750   0.144
 1600HOH     H2 4987   3.532   1.735   0.187
 1601HOH      O 4988   1.126   3.490   1.328
 1601HOH     H1 4989   1.058   3.431   1.363
 1601HOH     H2 4990   1.162   3.443   1.253
 1602HOH      O 4991   3.775   3.942   2.580
 1602HOH     H1 4992   3.737   4.013   2.529
 1602HOH     H2 4993   3.755   3.963   2.671
 1603HOH      O 4994   0.218   2.596   3.247
 1603HOH     H1 4995   0.251   2.571   3.160
 1603HOH     H2 4996   0.290   2.646   3.286
 1604HOH      O 4997   3.924   3.422   2.547
 1604HOH     H1 4998   3.930   3.381   2.461
 1604HOH     H2 4999   3.846   3.477   2.542
 1605HOH      O 5000   2.086   1.977   3.292
 1605HOH     H1 5001   2.145   2.048   3.319
 1605HOH     H2 5002   2.000   2.019   3.288
 1606HOH      O 5003   3.763   3.146   1.563
 1606HOH     H1 5004   3.730   3.172   1.477
 1606HOH     H2 5005   3.850   3.184   1.568
 1607HOH      O 5006   3.919   2.471   3.630
 1607HOH     H1 5007   3.964   2.514   3.558
 1607HOH     H2 5008   3.827   2.493   3.618
 1608HOH      O 5009   3.729   0.331   3.920
 1608HOH     H1 5010   3.787   0.280   3.976
 1608HOH     H2 5011   3.642   0.292   3.932
 1609HOH      O 5012   2.074   3.865   3.585
 1609HOH     H1 5013   2.014   3.844   3.656
 1609HOH     H2 5014   2.151   3.810   3.602
 1610HOH      O 5015   0.532   0.964   0.149
 1610HOH     H1 5016   0.607   1.023   0.153
 1610HOH     H2 5017   0.456   1.021   0.159
 1611HOH      O 5018   0.069   1.507   2.453
 1611HOH     H1 5019   0.086   1.597   2.425
 1611HOH     H2 5020   0.133   1.455   2.405
 1612HOH      O 5021   3.355   1.955   2.391
 1612HOH     H1 5022   3.375   1.999   2.473
 1612HOH     H2 5023   3.264   1.977   2.373
 1613HOH      O 5024   1.859   2.146   3.307
 1613HOH     H1 5025   1.786   2.140   3.369
 1613HOH     H2 5026   1.905   2.225   3.333
 1614HOH      O 5027   1.736   2.979   3.859
 1614HOH     H1 5028   1.756   2.941   3.774
 1614HOH     H2 5029   1.664   3.039   3.843
 1615HOH      O 5030   2.420   3.137   0.228
 1615HOH     H1 5031   2.461   3.123   0.313
 1615HOH     H2 5032   2.327   3.116   0.242
 1616HOH      O 5033   0.346   2.031   3.845
 1616HOH     H1 5034   0.299   2.099   3.893
 1616HOH     H2 5035   0.306   1.949   3.874
 1617HOH      O 5036   3.291   0.888   0.725
 1617HOH     H1 5037   3.197   0.891   0.742
 1617HOH     H2 5038   3.299   0.905   0.631
 1618HOH      O 5039   3.823   1.538   2.434
 1618HOH     H1 5040   3.913   1.505   2.445
 1618HOH     H2 5041   3.825   1.586   2.352
 1619HOH      O 5042   1.542   2.419   3.588
 1619HOH     H1 5043   1.550   2.456   3.500
 1619HOH     H2 5044   1.551   2.495   3.646
 1620HOH      O 5045   3.048   3.460   2.634
 1620HOH     H1 5046   3.004   3.432   2.554
 1620HOH     H2 5047   2.981   3.454   2.702
 1621HOH      O 5048   2.766   3.638   0.743
 1621HOH     H1 5049   2.837   3.662   0.683
 1621HOH     H2 5050   2.727   3.721   0.768
 1622HOH      O 5051   0.927   3.764   0.348
 1622HOH     H1 5052   1.016   3.753   0.381
 1622HOH     H2 5053   0.871   3.736   0.420
 1623HOH      O 5054   2.695   1.539   3.517
 1623HOH     H1 5055   2.779   1.532   3.561
 1623HOH     H2 5056   2.689   1.631   3.491
 1624HOH      O 5057   3.944   0.396   1.613
 1624HOH     H1 5058   4.001   0.359   1.547
 1624HOH     H2 5059   3.998   0.461   1.658
 1625HOH      O 5060   0.054   2.240   2.987
 1625HOH     H1 5061   0.028   2.226   3.079
 1625HOH     H2 5062  -0.006   2.308   2.956
 1626HOH      O 5063   2.145   0.647   1.485
 1626HOH     H1 5064   2.149   0.592   1.563
 1626HOH     H2 5065   2.053   0.645   1.459
 1627HOH      O 5066   1.819   1.975  -0.006
 1627HOH     H1 5067   1.734   1.931   0.003
 1627HOH     H2 5068   1.874   1.935   0.061
 1628HOH      O 5069   0.119   2.551   2.087
 1628HOH     H1 5070   0.174   2.578   2.161
 1628HOH     H2 5071   0.051   2.619   2.082
 1629HOH      O 5072   3.949   2.930   1.379
 1629HOH     H1 5073   4.035   2.924   1.337
 1629HOH     H2 5074   3.963   2.987   1.455
 1630HOH      O 5075   1.686   3.828   0.213
 1630HOH     H1 5076   1.706   3.907   0.264
 1630HOH     H2 5077   1.701   3.854   0.123
 1631HOH      O 5078   1.171   3.235   2.172
 1631HOH     H1 5079   1.135   3.309   2.221
 1631HOH     H2 5080   1.226   3.276   2.105
 1632HOH      O 5081   3.257   3.281   2.523
 1632HOH     H1 5082   3.184   3.339   2.547
 1632HOH     H2 5083   3.333   3.319   2.567
 1633HOH      O 5084   2.488   2.855   2.437
 1633HOH     H1 5085   2.433   2.895   2.369
 1633HOH     H2 5086   2.445   2.878   2.519
 1634HOH      O 5087   3.218   2.016   0.833
 1634HOH     H1 5088   3.199   1.926   0.808
 1634HOH     H2 5089   3.279   2.048   0.766
 1635HOH      O 5090   1.290   1.837   2.416
 1635HOH     H1 5091   1.371   1.805   2.454
 1635HOH     H2 5092   1.233   1.760   2.413
 1636HOH      O 5093   1.191   3.725   0.415
 1636HOH     H1 5094   1.212   3.674   0.493
 1636HOH     H2 5095   1.248   3.691   0.347
 1637HOH      O 5096   2.551   3.479   0.843
 1637HOH     H1 5097   2.497   3.438   0.775
 1637HOH     H2 5098   2.550   3.572   0.821
 1638HOH      O 5099   1.518   0.213   1.905
 1638HOH     H1 5100   1.445   0.171   1.860
 1638HOH     H2 5101   1.483   0.296   1.935
 1639HOH      O 5102   3.495   2.650   3.049
 1639HOH     H1 5103   3.578   2.622   3.088
 1639HOH     H2 5104   3.514   2.660   2.956
 1640HOH      O 5105   2.887   1.786   2.519
 1640HOH     H1 5106   2.910   1.785   2.426
 1640HOH     H2 5107   2.820   1.854   2.527
 1641HOH      O 5108   2.520   2.723   2.873
 1641HOH     H1 5109   2.518   2.781   2.797
 1641HOH     H2 5110   2.442   2.669   2.865
 1642HOH      O 5111   1.739   0.357   2.379
 1642HOH     H1 5112   1.810   0.406   2.338
 1642HOH     H2 5113   1.663   0.375   2.323
 1643HOH      O 5114   2.887   0.858   3.747
 1643HOH     H1 5115   2.884   0.954   3.742
 1643HOH     H2 5116   2.820   0.836   3.813
 1644HOH      O 5117   1.215   3.236   1.593
 1644HOH     H1 5118   1.205   3.318   1.643
 1644HOH     H2 5119   1.140   3.235   1.534
 1645HOH      O 5120   3.006   3.212   0.551
 1645HOH     H1 5121   2.921   3.244   0.580
 1645HOH     H2 5122   3.055   3.197   0.632
 1646HOH      O 5123   3.195   3.120   2.719
 1646HOH     H1 5124   3.217   3.184   2.651
 1646HOH     H2 5125   3.119   3.158   2.763
 1647HOH      O 5126   0.804   2.686   2.849
 1647HOH     H1 5127   0.850   2.711   2.929
 1647HOH     H2 5128   0.840   2.745   2.782
 1648HOH      O 5129   2.906   1.066   2.325
 1648HOH     H1 5130   2.946   1.039   2.243
 1648HOH     H2 5131   2.912   0.989   2.381
 1649HOH      O 5132   3.679   0.994   3.649
 1649HOH     H1 5133   3.762   1.031   3.617
 1649HOH     H2 5134   3.638   0.956   3.572
 1650HOH      O 5135   3.870   1.917   1.620
 1650HOH     H1 5136   3.794   1.936   1.675
 1650HOH     H2 5137   3.854   1.968   1.540
 1651HOH      O 5138   0.964   2.811   2.467
 1651HOH     H1 5139   0.903   2.778   2.401
 1651HOH     H2 5140   0.938   2.902   2.479
 1652HOH      O 5141   1.041   3.019   0.525
 1652HOH     H1 5142   1.094   3.085   0.480
 1652HOH     H2 5143   0.974   2.994   0.462
 1653HOH      O 5144   1.680   3.810   1.488
 1653HOH     H1 5145   1.703   3.719   1.501
 1653HOH     H2 5146   1.648   3.815   1.398
 1654HOH      O 5147   2.427   3.701   0.665
 1654HOH     H1 5148   2.396   3.748   0.588
 1654HOH     H2 5149   2.436   3.768   0.732
 1655HOH      O 5150   3.337   2.058   1.740
 1655HOH     H1 5151   3.365   1.970   1.765
 1655HOH     H2 5152   3.242   2.054   1.736
 1656HOH      O 5153   3.421   1.195   2.731
 1656HOH     H1 5154   3.492   1.187   2.794
 1656HOH     H2 5155   3.364   1.120   2.749
 1657HOH      O 5156   2.753   2.600   0.901
 1657HOH     H1 5157   2.802   2.668   0.947
 1657HOH     H2 5158   2.785   2.518   0.938
 1658HOH      O 5159   3.179   1.025   3.427
 1658HOH     H1 5160   3.239   0.985   3.491
 1658HOH     H2 5161   3.237   1.077   3.370
 1659HOH      O 5162   2.917   0.192   0.401
 1659HOH     H1 5163   2.938   0.261   0.338
 1659HOH     H2 5164   2.878   0.240   0.476
 1660HOH      O 5165   2.388   2.052   0.772
 1660HOH     H1 5166   2.325   2.030   0.841
 1660HOH     H2 5167   2.423   2.137   0.798
 1661HOH      O 5168   2.375   3.954   3.087
 1661HOH     H1 5169   2.414   4.041   3.092
 1661HOH     H2 5170   2.444   3.898   3.051
 1662HOH      O 5171   1.416   0.841   1.171
 1662HOH     H1 5172   1.347   0.818   1.233
 1662HOH     H2 5173   1.397   0.932   1.146
 1663HOH      O 5174   0.033   0.829   1.284
 1663HOH     H1 5175   0.089   0.905   1.271
 1663HOH     H2 5176  -0.047   0.864   1.322
 1664HOH      O 5177   2.184   3.370   1.106
 1664HOH     H1 5178   2.220   3.445   1.060
 1664HOH     H2 5179   2.207   3.385   1.198
 1665HOH      O 5180   3.717   0.038   2.873
 1665HOH     H1 5181   3.692  -0.054   2.881
 1665HOH     H2 5182   3.652   0.085   2.926
 1666HOH      O 5183   3.221   1.951   1.462
 1666HOH     H1 5184   3.224   1.931   1.555
 1666HOH     H2 5185   3.185   2.040   1.459
 1667HOH      O 5186   0.187   3.273   3.000
 1667HOH     H1 5187   0.249   3.202   2.986
 1667HOH     H2 5188   0.143   3.284   2.916
 1668HOH      O 5189   1.757   0.652   0.046
 1668HOH     H1 5190   1.747   0.709   0.122
 1668HOH     H2 5191   1.668   0.633   0.019
 1669HOH      O 5192   3.192   3.270   1.828
 1669HOH     H1 5193   3.134   3.212   1.878
 1669HOH     H2 5194   3.160   3.263   1.738
 1670HOH      O 5195  -0.009   0.235   3.743
 1670HOH     H1 5196  -0.015   0.311   3.801
 1670HOH     H2 5197   0.039   0.170   3.794
 1671HOH      O 5198   1.243   2.560   1.215
 1671HOH     H1 5199   1.268   2.470   1.237
 1671HOH     H2 5200   1.258   2.566   1.121
 1672HOH      O 5201   1.064   3.545   2.824
 1672HOH     H1 5202   1.018   3.471   2.784
 1672HOH     H2 5203   1.151   3.511   2.845
 1673HOH      O 5204   1.827   2.045   3.764
 1673HOH     H1 5205   1.800   2.052   3.856
 1673HOH     H2 5206   1.779   2.115   3.720
 1674HOH      O 5207   1.925   3.942   1.444
 1674HOH     H1 5208   1.995   3.881   1.421
 1674HOH     H2 5209   1.851   3.885   1.468
 1675HOH      O 5210   1.698   1.885   2.387
 1675HOH     H1 5211   1.643   1.810   2.364
 1675HOH     H2 5212   1.705   1.881   2.482
 1676HOH      O 5213   0.939   1.204   0.978
 1676HOH     H1 5214   0.978   1.152   0.907
 1676HOH     H2 5215   0.845   1.186   0.972
 1677HOH      O 5216   0.434   1.137   2.729
 1677HOH     H1 5217   0.439   1.122   2.634
 1677HOH     H2 5218   0.488   1.215   2.743
 1678HOH      O 5219   3.673   3.097   2.441
 1678HOH     H1 5220   3.623   3.166   2.397
 1678HOH     H2 5221   3.609   3.055   2.500
 1679HOH      O 5222   2.502   3.217   2.401
 1679HOH     H1 5223   2.410   3.244   2.396
 1679HOH     H2 5224   2.513   3.157   2.327
 1680HOH      O 5225   1.705   0.032   0.322
 1680HOH     H1 5226   1.748   0.057   0.241
 1680HOH     H2 5227   1.634   0.095   0.332
 1681HOH      O 5228   3.249   2.832   3.859
 1681HOH     H1 5229   3.242   2.748   3.905
 1681HOH     H2 5230   3.308   2.814   3.786
 1682HOH      O 5231   1.992   0.412   1.008
 1682HOH     H1 5232   1.996   0.460   1.091
 1682HOH     H2 5233   2.022   0.324   1.030
 1683HOH      O 5234   2.206   2.187   3.618
 1683HOH     H1 5235   2.288   2.164   3.575
 1683HOH     H2 5236   2.151   2.223   3.547
 1684HOH      O 5237   0.697   3.519   0.792
 1684HOH     H1 5238   0.648   3.583   0.844
 1684HOH     H2 5239   0.632   3.480   0.734
 1685HOH      O 5240   1.857   2.832   0.510
 1685HOH     H1 5241   1.786   2.795   0.457
 1685HOH     H2 5242   1.842   2.927   0.506
 1686HOH      O 5243   2.314   1.320   2.638
 1686HOH     H1 5244   2.343   1.357   2.722
 1686HOH     H2 5245   2.360   1.237   2.631
 1687HOH      O 5246   0.174   3.534   1.782
 1687HOH     H1 5247   0.244   3.590   1.748
 1687HOH     H2 5248   0.204   3.445   1.765
 1688HOH      O 5249   3.538   1.514   0.409
 1688HOH     H1 5250   3.452   1.523   0.368
 1688HOH     H2 5251   3.519   1.503   0.502
 1689HOH      O 5252   2.189   0.386   0.096
 1689HOH     H1 5253   2.136   0.450   0.144
 1689HOH     H2 5254   2.124   0.326   0.058
 1690HOH      O 5255   1.312   2.613   0.291
 1690HOH     H1 5256   1.281   2.668   0.218
 1690HOH     H2 5257   1.234   2.565   0.319
 1691HOH      O 5258   0.597   1.890   0.828
 1691HOH     H1 5259   0.552   1.907   0.910
 1691HOH     H2 5260   0.547   1.820   0.786
 1692HOH      O 5261   0.918   0.135   0.724
 1692HOH     H1 5262   0.840   0.183   0.697
 1692HOH     H2 5263   0.943   0.175   0.807
 1693HOH      O 5264  -0.024   3.781   3.768
 1693HOH     H1 5265   0.050   3.724   3.791
 1693HOH     H2 5266   0.004   3.824   3.687
 1694HOH      O 5267   1.396   1.348   3.292
 1694HOH     H1 5268   1.450   1.280   3.252
 1694HOH     H2 5269   1.387   1.415   3.225
 1695HOH      O 5270   3.409   3.136   1.225
 1695HOH     H1 5271   3.468   3.190   1.278
 1695HOH     H2 5272   3.467   3.077   1.176
 1696HOH      O 5273   3.849   3.319   2.000
 1696HOH     H1 5274   3.912   3.388   2.021
 1696HOH     H2 5275   3.901   3.239   1.999
 1697HOH      O 5276   2.395   1.071   2.354
 1697HOH     H1 5277   2.446   1.151   2.354
 1697HOH     H2 5278   2.459   1.001   2.337
 1698HOH      O 5279   1.993   3.200   0.053
 1698HOH     H1 5280   1.960   3.118   0.090
 1698HOH     H2 5281   1.924   3.229  -0.006
 1699HOH      O 5282   0.457   3.516   2.926
 1699HOH     H1 5283   0.413   3.508   3.011
 1699HOH     H2 5284   0.548   3.494   2.945
 1700HOH      O 5285   2.334   0.275   0.379
 1700HOH     H1 5286   2.411   0.247   0.428
 1700HOH     H2 5287   2.366   0.287   0.290
 1701HOH      O 5288   1.573   2.591   1.085
 1701HOH     H1 5289   1.599   2.668   1.136
 1701HOH     H2 5290   1.543   2.627   1.001
 1702HOH      O 5291   0.669   1.088   1.158
 1702HOH     H1 5292   0.670   1.140   1.078
 1702HOH     H2 5293   0.761   1.067   1.175
 1703HOH      O 5294   2.043   1.444   0.909
 1703HOH     H1 5295   2.064   1.536   0.893
 1703HOH     H2 5296   2.122   1.397   0.882
 1704HOH      O 5297   3.412   3.802   1.867
 1704HOH     H1 5298   3.502   3.773   1.874
 1704HOH     H2 5299   3.360   3.722   1.866
 1705HOH      O 5300   2.365   0.339   2.016
 1705HOH     H1 5301   2.415   0.396   2.074
 1705HOH     H2 5302   2.417   0.259   2.011
 1706HOH      O 5303   1.563   3.641   0.343
 1706HOH     H1 5304   1.470   3.642   0.320
 1706HOH     H2 5305   1.598   3.722   0.308
 1707HOH      O 5306   3.709   2.845   2.266
 1707HOH     H1 5307   3.710   2.915   2.331
 1707HOH     H2 5308   3.625   2.801   2.280
 1708HOH      O 5309   2.804   3.770   2.640
 1708HOH     H1 5310   2.818   3.807   2.552
 1708HOH     H2 5311   2.784   3.678   2.624
 1709HOH      O 5312   0.219   3.662   3.845
 1709HOH     H1 5313   0.304   3.620   3.842
 1709HOH     H2 5314   0.229   3.734   3.907
 1710HOH      O 5315   2.724   0.725   3.934
 1710HOH     H1 5316   2.748   0.662   4.001
 1710HOH     H2 5317   2.655   0.778   3.975
 1711HOH      O 5318   2.494   0.188   3.084
 1711HOH     H1 5319   2.523   0.226   3.167
 1711HOH     H2 5320   2.568   0.201   3.025
 1712HOH      O 5321   1.685   0.401   0.629
 1712HOH     H1 5322   1.686   0.416   0.535
 1712HOH     H2 5323   1.690   0.489   0.667
 1713HOH      O 5324   0.271   1.604   0.166
 1713HOH     H1 5325   0.310   1.692   0.168
 1713HOH     H2 5326   0.327   1.555   0.106
 1714HOH      O 5327   3.580   1.830   0.866
 1714HOH     H1 5328   3.613   1.779   0.792
 1714HOH     H2 5329   3.485   1.831   0.854
 1715HOH      O 5330   3.451   1.497   0.676
 1715HOH     H1 5331   3.483   1.471   0.763
 1715HOH     H2 5332   3.358   1.472   0.676
 1716HOH      O 5333   0.071   3.831   3.473
 1716HOH     H1 5334   0.114   3.915   3.460
 1716HOH     H2 5335  -0.021   3.848   3.453
 1717HOH      O 5336   1.098   2.595   3.008
 1717HOH     H1 5337   1.056   2.510   2.995
 1717HOH     H2 5338   1.191   2.578   2.992
 1718HOH      O 5339   2.632   2.442   2.368
 1718HOH     H1 5340   2.667   2.367   2.415
 1718HOH     H2 5341   2.580   2.489   2.433
 1719HOH      O 5342   3.498   2.242   3.283
 1719HOH     H1 5343   3.579   2.266   3.238
 1719HOH     H2 5344   3.463   2.170   3.232
 1720HOH      O 5345   0.722   0.519   2.680
 1720HOH     H1 5346   0.764   0.589   2.630
 1720HOH     H2 5347   0.795   0.475   2.724
 1721HOH      O 5348   0.596   0.788   3.903
 1721HOH     H1 5349   0.503   0.801   3.921
 1721HOH     H2 5350   0.641   0.855   3.954
 1722HOH      O 5351   3.703   0.202   1.827
 1722HOH     H1 5352   3.627   0.224   1.772
 1722HOH     H2 5353   3.686   0.113   1.857
 1723HOH      O 5354   0.862   0.409   1.123
 1723HOH     H1 5355   0.857   0.493   1.078
 1723HOH     H2 5356   0.790   0.358   1.087
 1724HOH      O 5357   1.726   3.209   1.777
 1724HOH     H1 5358   1.723   3.127   1.826
 1724HOH     H2 5359   1.818   3.237   1.783
 1725HOH      O 5360   2.263   0.136   1.290
 1725HOH     H1 5361   2.352   0.165   1.309
 1725HOH     H2 5362   2.211   0.217   1.287
 1726HOH      O 5363   3.350   0.011   4.023
 1726HOH     H1 5364   3.256   0.006   4.042
 1726HOH     H2 5365   3.354   0.049   3.935
 1727HOH      O 5366   0.814   1.958   1.054
 1727HOH     H1 5367   0.766   1.881   1.023
 1727HOH     H2 5368   0.833   2.008   0.975
 1728HOH      O 5369   2.906   3.965   2.134
 1728HOH     H1 5370   2.939   3.881   2.101
 1728HOH     H2 5371   2.871   4.009   2.057
 1729HOH      O 5372   2.654   1.256   0.178
 1729HOH     H1 5373   2.663   1.215   0.092
 1729HOH     H2 5374   2.675   1.186   0.240
 1730HOH      O 5375   2.733   3.897   3.797
 1730HOH     H1 5376   2.775   3.973   3.838
 1730HOH     H2 5377   2.706   3.842   3.870
 1731HOH      O 5378   2.661   2.751   3.265
 1731HOH     H1 5379   2.642   2.815   3.196
 1731HOH     H2 5380   2.599   2.680   3.249
 1732HOH      O 5381   1.125   1.323   1.766
 1732HOH     H1 5382   1.194   1.291   1.707
 1732HOH     H2 5383   1.156   1.410   1.792
 1733HOH      O 5384   3.858   3.576   3.213
 1733HOH     H1 5385   3.877   3.613   3.126
 1733HOH     H2 5386   3.938   3.593   3.263
 1734HOH      O 5387   2.841   0.975   1.671
 1734HOH     H1 5388   2.866   1.036   1.740
 1734HOH     H2 5389   2.889   0.895   1.691
 1735HOH      O 5390   3.288   1.248   0.926
 1735HOH     H1 5391   3.363   1.297   0.960
 1735HOH     H2 5392   3.276   1.176   0.989
 1736HOH      O 5393   1.845   3.712   0.601
 1736HOH     H1 5394   1.783   3.782   0.583
 1736HOH     H2 5395   1.914   3.724   0.535
 1737HOH      O 5396   2.909   1.589   1.427
 1737HOH     H1 5397   2.830   1.542   1.401
 1737HOH     H2 5398   2.907   1.670   1.376
 1738HOH      O 5399   1.379   0.531   1.690
 1738HOH     H1 5400   1.458   0.580   1.714
 1738HOH     H2 5401   1.307   0.592   1.704
 1739HOH      O 5402   0.325   2.133   0.251
 1739HOH     H1 5403   0.396   2.151   0.189
 1739HOH     H2 5404   0.367   2.082   0.321
 1740HOH      O 5405   3.025   3.109   1.967
 1740HOH     H1 5406   2.969   3.126   2.043
 1740HOH     H2 5407   2.977   3.043   1.916
 1741HOH      O 5408   2.118   2.510   1.431
 1741HOH     H1 5409   2.203   2.544   1.459
 1741HOH     H2 5410   2.126   2.503   1.336
 1742HOH      O 5411   0.811   1.564   3.682
 1742HOH     H1 5412   0.892   1.616   3.683
 1742HOH     H2 5413   0.756   1.605   3.750
 1743HOH      O 5414   2.442   1.875   0.524
 1743HOH     H1 5415   2.430   1.932   0.600
 1743HOH     H2 5416   2.386   1.913   0.457
 1744HOH      O 5417   0.359   3.377   0.933
 1744HOH     H1 5418   0.415   3.344   1.004
 1744HOH     H2 5419   0.281   3.409   0.977
 1745HOH      O 5420   1.875   1.985   2.191
 1745HOH     H1 5421   1.843   1.932   2.264
 1745HOH     H2 5422   1.802   2.045   2.172
 1746HOH      O 5423   3.489   3.452   3.768
 1746HOH     H1 5424   3.398   3.472   3.748
 1746HOH     H2 5425   3.502   3.363   3.736
 1747HOH      O 5426   1.222   3.412   0.275
 1747HOH     H1 5427   1.252   3.498   0.246
 1747HOH     H2 5428   1.250   3.352   0.206
 1748HOH      O 5429   3.456   2.042   3.110
 1748HOH     H1 5430   3.403   1.962   3.118
 1748HOH     H2 5431   3.545   2.010   3.097
 1749HOH      O 5432   1.826   2.813   3.255
 1749HOH     H1 5433   1.849   2.760   3.179
 1749HOH     H2 5434   1.731   2.815   3.256
 1750HOH      O 5435   3.532   1.742   3.620
 1750HOH     H1 5436   3.545   1.648   3.604
 1750HOH     H2 5437   3.515   1.748   3.714
 1751HOH      O 5438   0.916   3.378   2.663
 1751HOH     H1 5439   0.821   3.371   2.661
 1751HOH     H2 5440   0.941   3.402   2.573
 1752HOH      O 5441   2.703   3.384   3.886
 1752HOH     H1 5442   2.730   3.409   3.797
 1752HOH     H2 5443   2.784   3.357   3.929
 1753HOH      O 5444   1.782   2.285   3.615
 1753HOH     H1 5445   1.803   2.327   3.532
 1753HOH     H2 5446   1.692   2.313   3.634
 1754HOH      O 5447   0.338   3.701   1.603
 1754HOH     H1 5448   0.425   3.681   1.570
 1754HOH     H2 5449   0.308   3.774   1.549
 1755HOH      O 5450   0.899   2.976   0.308
 1755HOH     H1 5451   0.873   3.049   0.252
 1755HOH     H2 5452   0.886   2.899   0.253
 1756HOH      O 5453   3.111   2.269   4.006
 1756HOH     H1 5454   3.192   2.219   4.007
 1756HOH     H2 5455   3.108   2.307   3.918
 1757HOH      O 5456   1.538   2.269   0.049
 1757HOH     H1 5457   1.527   2.174   0.060
 1757HOH     H2 5458   1.627   2.286   0.077
 1758HOH      O 5459   2.427   3.922   3.893
 1758HOH     H1 5460   2.407   3.891   3.981
 1758HOH     H2 5461   2.522   3.932   3.892
 1759HOH      O 5462   2.231   3.614   3.592
 1759HOH     H1 5463   2.247   3.520   3.602
 1759HOH     H2 5464   2.315   3.655   3.608
 1760HOH      O 5465   2.013   3.250   3.377
 1760HOH     H1 5466   2.047   3.327   3.422
 1760HOH     H2 5467   1.987   3.191   3.448
 1761HOH      O 5468   1.415   3.685   2.244
 1761HOH     H1 5469   1.348   3.720   2.184
 1761HOH     H2 5470   1.372   3.684   2.329
 1762HOH      O 5471   1.654   3.793   2.557
 1762HOH     H1 5472   1.702   3.803   2.475
 1762HOH     H2 5473   1.586   3.860   2.554
 1763HOH      O 5474   3.239   1.310   1.918
 1763HOH     H1 5475   3.262   1.322   2.010
 1763HOH     H2 5476   3.318   1.335   1.869
 1764HOH      O 5477   2.349   1.413   1.705
 1764HOH     H1 5478   2.443   1.413   1.724
 1764HOH     H2 5479   2.307   1.400   1.790
 1765HOH      O 5480   0.771   2.756   2.250
 1765HOH     H1 5481   0.722   2.837   2.236
 1765HOH     H2 5482   0.705   2.688   2.253
 1766HOH      O 5483   0.068   0.214   0.661
 1766HOH     H1 5484   0.096   0.123   0.669
 1766HOH     H2 5485   0.002   0.213   0.592
 1767HOH      O 5486   3.362   3.476   1.207
 1767HOH     H1 5487   3.369   3.487   1.112
 1767HOH     H2 5488   3.406   3.553   1.243
 1768HOH      O 5489   3.911   0.639   2.764
 1768HOH     H1 5490   3.986   0.580   2.764
 1768HOH     H2 5491   3.948   0.726   2.749
 1769HOH      O 5492   3.621   2.925   2.898
 1769HOH     H1 5493   3.660   2.861   2.957
 1769HOH     H2 5494   3.673   2.918   2.818
 1770HOH      O 5495   0.190   0.496   2.203
 1770HOH     H1 5496   0.205   0.416   2.154
 1770HOH     H2 5497   0.275   0.542   2.199
 1771HOH      O 5498   0.779   3.655   2.131
 1771HOH     H1 5499   0.742   3.668   2.218
 1771HOH     H2 5500   0.739   3.574   2.099
 1772HOH      O 5501   3.508   1.455   0.947
 1772HOH     H1 5502   3.452   1.530   0.968
 1772HOH     H2 5503   3.541   1.425   1.032
 1773HOH      O 5504   3.735   1.007   2.163
 1773HOH     H1 5505   3.797   1.042   2.228
 1773HOH     H2 5506   3.666   0.967   2.216
 1774HOH      O 5507   1.941   3.689   3.335
 1774HOH     H1 5508   1.960   3.645   3.418
 1774HOH     H2 5509   2.001   3.648   3.273
 1775HOH      O 5510   0.656   1.596   3.193
 1775HOH     H1 5511   0.718   1.617   3.262
 1775HOH     H2 5512   0.631   1.505   3.209
 1776HOH      O 5513   0.592   3.410   1.692
 1776HOH     H1 5514   0.664   3.346   1.696
 1776HOH     H2 5515   0.518   3.359   1.659
 1777HOH      O 5516   3.432   1.512   1.817
 1777HOH     H1 5517   3.499   1.447   1.797
 1777HOH     H2 5518   3.469   1.563   1.889
 1778HOH      O 5519   1.500   1.656   1.837
 1778HOH     H1 5520   1.424   1.599   1.828
 1778HOH     H2 5521   1.575   1.599   1.822
 1779HOH      O 5522   2.202   3.086   0.399
 1779HOH     H1 5523   2.197   3.071   0.494
 1779HOH     H2 5524   2.133   3.148   0.381
 1780HOH      O 5525   0.551   2.060   2.215
 1780HOH     H1 5526   0.602   2.003   2.158
 1780HOH     H2 5527   0.616   2.096   2.276
 1781HOH      O 5528   1.622   2.369   1.271
 1781HOH     H1 5529   1.609   2.282   1.234
 1781HOH     H2 5530   1.588   2.429   1.205
 1782HOH      O 5531   4.032   2.828   3.865
 1782HOH     H1 5532   4.076   2.821   3.780
 1782HOH     H2 5533   3.959   2.887   3.850
 1783HOH      O 5534   0.458   0.856   2.181
 1783HOH     H1 5535   0.371   0.892   2.196
 1783HOH     H2 5536   0.505   0.923   2.131
 1784HOH      O 5537   2.136   1.261   1.306
 1784HOH     H1 5538   2.179   1.232   1.226
 1784HOH     H2 5539   2.056   1.305   1.276
 1785HOH      O 5540   2.197   1.526   1.523
 1785HOH     H1 5541   2.256   1.479   1.581
 1785HOH     H2 5542   2.202   1.478   1.440
 1786HOH      O 5543   1.410   3.178   1.330
 1786HOH     H1 5544   1.399   3.245   1.264
 1786HOH     H2 5545   1.355   3.206   1.403
 1787HOH      O 5546   2.654   3.750   3.990
 1787HOH     H1 5547   2.561   3.731   3.988
 1787HOH     H2 5548   2.690   3.688   4.054
 1788HOH      O 5549   3.056   2.849   3.444
 1788HOH     H1 5550   2.974   2.822   3.484
 1788HOH     H2 5551   3.072   2.785   3.375
 1789HOH      O 5552   1.676   1.622   2.595
 1789HOH     H1 5553   1.597   1.647   2.644
 1789HOH     H2 5554   1.744   1.614   2.663
 1790HOH      O 5555   1.685   2.335   0.530
 1790HOH     H1 5556   1.688   2.404   0.597
 1790HOH     H2 5557   1.689   2.383   0.447
 1791HOH      O 5558   2.936   1.888   3.516
 1791HOH     H1 5559   2.998   1.960   3.525
 1791HOH     H2 5560   2.852   1.925   3.541
 1792HOH      O 5561   1.197   2.273   0.920
 1792HOH     H1 5562   1.147   2.193   0.927
 1792HOH     H2 5563   1.230   2.288   1.009
 1793HOH      O 5564   2.676   2.965   3.682
 1793HOH     H1 5565   2.734   2.926   3.616
 1793HOH     H2 5566   2.679   3.059   3.665
 1794HOH      O 5567   2.464   2.594   3.225
 1794HOH     H1 5568   2.398   2.647   3.269
 1794HOH     H2 5569   2.442   2.504   3.248
 1795HOH      O 5570   0.703   1.268   2.009
 1795HOH     H1 5571   0.646   1.266   1.933
 1795HOH     H2 5572   0.771   1.332   1.987
 1796HOH      O 5573   0.924   1.008   0.770
 1796HOH     H1 5574   0.833   0.980   0.769
 1796HOH     H2 5575   0.974   0.928   0.757
 1797HOH      O 5576   1.363   0.418   0.991
 1797HOH     H1 5577   1.320   0.397   0.908
 1797HOH     H2 5578   1.362   0.514   0.995
 1798HOH      O 5579   1.101   3.053   3.455
 1798HOH     H1 5580   1.113   3.127   3.515
 1798HOH     H2 5581   1.019   3.073   3.410
 1799HOH      O 5582   2.659   2.324   3.701
 1799HOH     H1 5583   2.568   2.300   3.681
 1799HOH     H2 5584   2.711   2.251   3.666
 1800HOH      O 5585   1.660   1.445   1.656
 1800HOH     H1 5586   1.681   1.479   1.743
 1800HOH     H2 5587   1.745   1.441   1.611
 1801HOH      O 5588   2.103   2.901   0.977
 1801HOH     H1 5589   2.176   2.919   1.036
 1801HOH     H2 5590   2.048   2.979   0.983
 1802HOH      O 5591   3.041   1.176   2.997
 1802HOH     H1 5592   2.959   1.215   3.027
 1802HOH     H2 5593   3.018   1.126   2.919
 1803HOH      O 5594   1.228   3.613   0.652
 1803HOH     H1 5595   1.227   3.629   0.747
 1803HOH     H2 5596   1.306   3.560   0.637
 1804HOH      O 5597   2.218   0.902   1.393
 1804HOH     H1 5598   2.206   0.883   1.300
 1804HOH     H2 5599   2.174   0.829   1.438
 1805HOH      O 5600   3.049   2.735   0.976
 1805HOH     H1 5601   3.123   2.774   1.022
 1805HOH     H2 5602   3.059   2.641   0.990
 1806HOH      O 5603   4.058   1.059   0.048
 1806HOH     H1 5604   3.974   1.095   0.077
 1806HOH     H2 5605   4.035   0.994  -0.018
 1807HOH      O 5606   1.422   0.367   1.251
 1807HOH     H1 5607   1.406   0.375   1.157
 1807HOH     H2 5608   1.343   0.403   1.291
 1808HOH      O 5609   1.258   1.812   0.487
 1808HOH     H1 5610   1.342   1.857   0.498
 1808HOH     H2 5611   1.274   1.748   0.418
 1809HOH      O 5612   2.123   3.609   3.130
 1809HOH     H1 5613   2.080   3.630   3.047
 1809HOH     H2 5614   2.131   3.513   3.130
 1810HOH      O 5615   0.421   3.283   1.491
 1810HOH     H1 5616   0.334   3.265   1.526
 1810HOH     H2 5617   0.453   3.198   1.462
 1811HOH      O 5618   3.957   1.371   1.827
 1811HOH     H1 5619   3.938   1.360   1.734
 1811HOH     H2 5620   3.987   1.284   1.856
 1812HOH      O 5621   1.238   1.865   2.050
 1812HOH     H1 5622   1.240   1.929   2.121
 1812HOH     H2 5623   1.325   1.826   2.050
 1813HOH      O 5624   2.241   1.823   1.508
 1813HOH     H1 5625   2.234   1.728   1.515
 1813HOH     H2 5626   2.165   1.849   1.456
 1814HOH      O 5627   0.466   1.683   2.864
 1814HOH     H1 5628   0.463   1.598   2.821
 1814HOH     H2 5629   0.494   1.743   2.795
 1815HOH      O 5630   0.390   0.366   1.586
 1815HOH     H1 5631   0.354   0.436   1.532
 1815HOH     H2 5632   0.331   0.292   1.572
 1816HOH      O 5633   0.949   3.422   3.071
 1816HOH     H1 5634   1.023   3.478   3.096
 1816HOH     H2 5635   0.985   3.334   3.073
 1817HOH      O 5636   0.584   3.475   1.959
 1817HOH     H1 5637   0.606   3.463   1.867
 1817HOH     H2 5638   0.566   3.569   1.967
 1818HOH      O 5639   3.958   1.844   0.612
 1818HOH     H1 5640   3.990   1.924   0.653
 1818HOH     H2 5641   3.997   1.843   0.525
 1819HOH      O 5642   1.959   0.735   1.038
 1819HOH     H1 5643   2.054   0.739   1.051
 1819HOH     H2 5644   1.924   0.807   1.090
 1820HOH      O 5645   2.594   2.986   0.958
 1820HOH     H1 5646   2.623   2.996   0.868
 1820HOH     H2 5647   2.615   2.895   0.980
 1821HOH      O 5648   0.324   0.867   3.900
 1821HOH     H1 5649   0.279   0.919   3.968
 1821HOH     H2 5650   0.269   0.789   3.890
 1822HOH      O 5651   0.408   1.182   0.812
 1822HOH     H1 5652   0.322   1.207   0.844
 1822HOH     H2 5653   0.428   1.247   0.744
 1823HOH      O 5654   1.818   3.999   3.665
 1823HOH     H1 5655   1.855   4.046   3.590
 1823HOH     H2 5656   1.870   4.028   3.740
 1824HOH      O 5657   1.695   3.931   1.722
 1824HOH     H1 5658   1.685   3.893   1.634
 1824HOH     H2 5659   1.609   3.921   1.762
 1825HOH      O 5660   1.461   0.283   0.708
 1825HOH     H1 5661   1.540   0.317   0.665
 1825HOH     H2 5662   1.413   0.240   0.637
 1826HOH      O 5663   1.606   3.746   0.939
 1826HOH     H1 5664   1.631   3.747   1.032
 1826HOH     H2 5665   1.678   3.699   0.896
 1827HOH      O 5666   2.346   2.394   2.244
 1827HOH     H1 5667   2.393   2.475   2.261
 1827HOH     H2 5668   2.331   2.394   2.150
 1828HOH      O 5669   1.589   2.835   3.435
 1828HOH     H1 5670   1.540   2.829   3.517
 1828HOH     H2 5671   1.566   2.921   3.399
 1829HOH      O 5672   3.264   1.505   0.343
 1829HOH     H1 5673   3.260   1.409   0.334
 1829HOH     H2 5674   3.174   1.531   0.360
 1830HOH      O 5675   1.947   1.429   1.801
 1830HOH     H1 5676   1.920   1.521   1.794
 1830HOH     H2 5677   2.038   1.433   1.830
 1831HOH      O 5678   2.983   0.804   0.626
 1831HOH     H1 5679   2.956   0.896   0.621
 1831HOH     H2 5680   2.952   0.766   0.544
 1832HOH      O 5681   1.926   3.365   1.533
 1832HOH     H1 5682   1.967   3.309   1.599
 1832HOH     H2 5683   1.929   3.313   1.453
 1833HOH      O 5684   3.640   0.628   3.869
 1833HOH     H1 5685   3.622   0.539   3.897
 1833HOH     H2 5686   3.564   0.653   3.816
 1834HOH      O 5687   2.089   2.750   0.638
 1834HOH     H1 5688   2.016   2.769   0.579
 1834HOH     H2 5689   2.142   2.686   0.590
 1835HOH      O 5690   1.194   1.124   2.322
 1835HOH     H1 5691   1.214   1.075   2.242
 1835HOH     H2 5692   1.098   1.125   2.326
 1836HOH      O 5693   3.561   2.684   1.996
 1836HOH     H1 5694   3.586   2.676   2.088
 1836HOH     H2 5695   3.467   2.664   1.994
 1837HOH      O 5696   1.648   3.550   3.293
 1837HOH     H1 5697   1.651   3.454   3.292
 1837HOH     H2 5698   1.570   3.572   3.241
 1838HOH      O 5699   3.873   0.610   0.738
 1838HOH     H1 5700   3.925   0.640   0.663
 1838HOH     H2 5701   3.834   0.690   0.774
 1839HOH      O 5702   1.371   3.436   3.884
 1839HOH     H1 5703   1.361   3.474   3.797
 1839HOH     H2 5704   1.377   3.511   3.943
 1840HOH      O 5705   0.489   0.301   2.878
 1840HOH     H1 5706   0.473   0.365   2.808
 1840HOH     H2 5707   0.584   0.294   2.883
 1841HOH      O 5708   3.071   1.508   2.226
 1841HOH     H1 5709   3.126   1.475   2.297
 1841HOH     H2 5710   3.130   1.556   2.169
 1842HOH      O 5711   3.870   0.354   2.464
 1842HOH     H1 5712   3.915   0.438   2.453
 1842HOH     H2 5713   3.855   0.323   2.375
 1843HOH      O 5714   0.606   2.534   0.280
 1843HOH     H1 5715   0.620   2.628   0.293
 1843HOH     H2 5716   0.523   2.516   0.325
 1844HOH      O 5717   2.054   1.078   3.372
 1844HOH     H1 5718   2.085   1.094   3.462
 1844HOH     H2 5719   1.959   1.087   3.378
 1845HOH      O 5720   3.883   1.812   2.891
 1845HOH     H1 5721   3.961   1.788   2.940
 1845HOH     H2 5722   3.907   1.893   2.846
 1846HOH      O 5723   4.033   0.117   2.286
 1846HOH     H1 5724   4.039   0.105   2.381
 1846HOH     H2 5725   3.971   0.189   2.275
 1847HOH      O 5726   3.114   2.655   3.256
 1847HOH     H1 5727   3.167   2.585   3.218
 1847HOH     H2 5728   3.024   2.630   3.238
 1848HOH      O 5729   1.667   0.958   3.989
 1848HOH     H1 5730   1.577   0.975   3.960
 1848HOH     H2 5731   1.657   0.911   4.071
 1849HOH      O 5732   0.519   0.800   2.694
 1849HOH     H1 5733   0.443   0.840   2.738
 1849HOH     H2 5734   0.578   0.778   2.766
 1850HOH      O 5735   2.911   3.435   3.370
 1850HOH     H1 5736   2.906   3.529   3.388
 1850HOH     H2 5737   2.870   3.425   3.284
 1851HOH      O 5738   0.564   3.049   1.475
 1851HOH     H1 5739   0.497   2.980   1.475
 1851HOH     H2 5740   0.616   3.032   1.554
 1852HOH      O 5741   1.197   2.657   2.544
 1852HOH     H1 5742   1.131   2.589   2.560
 1852HOH     H2 5743   1.154   2.719   2.486
 1853HOH      O 5744   0.034   1.457   3.874
 1853HOH     H1 5745   0.126   1.476   3.893
 1853HOH     H2 5746   0.028   1.362   3.878
 1854HOH      O 5747   0.106   1.171   1.951
 1854HOH     H1 5748   0.170   1.182   1.880
 1854HOH     H2 5749   0.088   1.077   1.952
 1855HOH      O 5750   3.149   3.101   2.334
 1855HOH     H1 5751   3.185   3.172   2.388
 1855HOH     H2 5752   3.163   3.022   2.385
 1856HOH      O 5753   3.401   0.429   3.415
 1856HOH     H1 5754   3.349   0.460   3.489
 1856HOH     H2 5755   3.428   0.341   3.440
 1857HOH      O 5756   2.045   3.000   2.051
 1857HOH     H1 5757   1.985   3.073   2.067
 1857HOH     H2 5758   2.052   2.994   1.956
 1858HOH      O 5759   2.875   2.480   1.523
 1858HOH     H1 5760   2.832   2.565   1.523
 1858HOH     H2 5761   2.968   2.499   1.526
 1859HOH      O 5762   3.568   1.573   2.517
 1859HOH     H1 5763   3.651   1.565   2.468
 1859HOH     H2 5764   3.594   1.603   2.604
 1860HOH      O 5765   0.668   3.784   0.878
 1860HOH     H1 5766   0.746   3.824   0.839
 1860HOH     H2 5767   0.693   3.768   0.969
 1861HOH      O 5768   3.115   0.776   2.855
 1861HOH     H1 5769   3.151   0.864   2.842
 1861HOH     H2 5770   3.154   0.724   2.785
 1862HOH      O 5771   2.220   0.433   2.379
 1862HOH     H1 5772   2.174   0.513   2.405
 1862HOH     H2 5773   2.291   0.464   2.322
 1863HOH      O 5774   0.362   3.550   2.468
 1863HOH     H1 5775   0.320   3.634   2.453
 1863HOH     H2 5776   0.306   3.487   2.422
 1864HOH      O 5777   2.902   2.405   1.775
 1864HOH     H1 5778   2.988   2.361   1.768
 1864HOH     H2 5779   2.881   2.431   1.685
 1865HOH      O 5780   2.794   2.804   3.486
 1865HOH     H1 5781   2.820   2.719   3.522
 1865HOH     H2 5782   2.743   2.782   3.408
 1866HOH      O 5783   3.332   1.437   1.529
 1866HOH     H1 5784   3.263   1.478   1.582
 1866HOH     H2 5785   3.294   1.431   1.442
 1867HOH      O 5786   1.734   3.542   1.516
 1867HOH     H1 5787   1.670   3.528   1.586
 1867HOH     H2 5788   1.793   3.467   1.523
 1868HOH      O 5789   1.618   2.161   1.731
 1868HOH     H1 5790   1.619   2.187   1.824
 1868HOH     H2 5791   1.545   2.100   1.724
 1869HOH      O 5792   0.912   3.111   2.138
 1869HOH     H1 5793   0.910   3.181   2.203
 1869HOH     H2 5794   0.819   3.091   2.121
 1870HOH      O 5795   3.136   2.670   2.885
 1870HOH     H1 5796   3.171   2.654   2.973
 1870HOH     H2 5797   3.149   2.587   2.839
 1871HOH      O 5798   2.750   2.012   2.527
 1871HOH     H1 5799   2.800   2.065   2.465
 1871HOH     H2 5800   2.782   2.039   2.613
 1872HOH      O 5801   3.229   2.449   2.790
 1872HOH     H1 5802   3.284   2.395   2.848
 1872HOH     H2 5803   3.231   2.404   2.706
 1873HOH      O 5804   2.700   2.292   2.133
 1873HOH     H1 5805   2.741   2.209   2.109
 1873HOH     H2 5806   2.693   2.288   2.229
 1874HOH      O 5807   2.508   1.359   0.413
 1874HOH     H1 5808   2.498   1.267   0.435
 1874HOH     H2 5809   2.558   1.359   0.332
 1875HOH      O 5810   4.031   0.628   0.501
 1875HOH     H1 5811   3.964   0.580   0.452
 1875HOH     H2 5812   4.050   0.705   0.446
 1876HOH      O 5813   2.978   0.489   3.801
 1876HOH     H1 5814   3.012   0.432   3.871
 1876HOH     H2 5815   2.903   0.440   3.766
 1877HOH      O 5816   2.698   1.413   1.354
 1877HOH     H1 5817   2.728   1.353   1.422
 1877HOH     H2 5818   2.619   1.372   1.319
 1878HOH      O 5819   2.201   0.051   0.322
 1878HOH     H1 5820   2.234   0.041   0.232
 1878HOH     H2 5821   2.236   0.135   0.351
 1879HOH      O 5822   2.693   2.432   3.956
 1879HOH     H1 5823   2.667   2.410   3.867
 1879HOH     H2 5824   2.627   2.495   3.986
 1880HOH      O 5825   1.989   0.172   1.451
 1880HOH     H1 5826   1.936   0.204   1.524
 1880HOH     H2 5827   1.987   0.076   1.459
 1881HOH      O 5828   0.838   3.757   2.971
 1881HOH     H1 5829   0.898   3.712   3.030
 1881HOH     H2 5830   0.889   3.830   2.937
 1882HOH      O 5831   0.526   2.930   0.508
 1882HOH     H1 5832   0.533   2.931   0.412
 1882HOH     H2 5833   0.434   2.949   0.525
 1883HOH      O 5834   0.977   1.400   2.264
 1883HOH     H1 5835   1.068   1.372   2.251
 1883HOH     H2 5836   0.973   1.424   2.357
 1884HOH      O 5837   1.024   3.179   3.067
 1884HOH     H1 5838   1.115   3.206   3.083
 1884HOH     H2 5839   1.028   3.127   2.987
 1885HOH      O 5840   2.606   0.503   0.261
 1885HOH     H1 5841   2.551   0.431   0.231
 1885HOH     H2 5842   2.544   0.567   0.296
 1886HOH      O 5843   1.661   2.689   2.338
 1886HOH     H1 5844   1.685   2.756   2.401
 1886HOH     H2 5845   1.733   2.689   2.274
 1887HOH      O 5846   1.787   1.200   2.429
 1887HOH     H1 5847   1.795   1.131   2.363
 1887HOH     H2 5848   1.864   1.190   2.484
 1888HOH      O 5849   2.520   2.125   3.856
 1888HOH     H1 5850   2.586   2.060   3.832
 1888HOH     H2 5851   2.437   2.080   3.841
 1889HOH      O 5852   0.623   3.381   2.697
 1889HOH     H1 5853   0.654   3.432   2.771
 1889HOH     H2 5854   0.530   3.367   2.714
 1890HOH      O 5855   0.084   0.435   3.570
 1890HOH     H1 5856   0.150   0.489   3.613
 1890HOH     H2 5857   0.080   0.355   3.623
 1891HOH      O 5858   2.518   2.142   1.438
 1891HOH     H1 5859   2.548   2.196   1.365
 1891HOH     H2 5860   2.437   2.183   1.467
 1892HOH      O 5861   3.098   2.086   3.598
 1892HOH     H1 5862   3.121   2.052   3.684
 1892HOH     H2 5863   3.182   2.107   3.557
 1893HOH      O 5864   3.461   0.570   0.935
 1893HOH     H1 5865   3.478   0.573   0.841
 1893HOH     H2 5866   3.475   0.479   0.959
 1894HOH      O 5867   3.402   2.269   2.920
 1894HOH     H1 5868   3.477   2.257   2.863
 1894HOH     H2 5869   3.403   2.193   2.978
 1895HOH      O 5870   2.336   2.308   0.281
 1895HOH     H1 5871   2.256   2.326   0.231
 1895HOH     H2 5872   2.406   2.312   0.216
 1896HOH      O 5873   2.942   1.477   3.307
 1896HOH     H1 5874   2.928   1.386   3.334
 1896HOH     H2 5875   3.025   1.476   3.261
 1897HOH      O 5876   1.993   2.208   4.022
 1897HOH     H1 5877   1.979   2.138   3.958
 1897HOH     H2 5878   1.915   2.206   4.077
 1898HOH      O 5879   1.431   0.782   2.917
 1898HOH     H1 5880   1.469   0.720   2.855
 1898HOH     H2 5881   1.505   0.817   2.966
 1899HOH      O 5882   2.932   3.510   1.974
 1899HOH     H1 5883   2.935   3.502   1.879
 1899HOH     H2 5884   3.008   3.563   1.996
 1900HOH      O 5885   3.865   2.383   2.421
 1900HOH     H1 5886   3.792   2.329   2.392
 1900HOH     H2 5887   3.934   2.366   2.357
 1901HOH      O 5888   2.831   2.610   2.642
 1901HOH     H1 5889   2.781   2.529   2.650
 1901HOH     H2 5890   2.793   2.654   2.566
 1902HOH      O 5891   3.486   2.377   3.732
 1902HOH     H1 5892   3.452   2.316   3.667
 1902HOH     H2 5893   3.516   2.452   3.682
 1903HOH      O 5894   1.504   2.660   0.827
 1903HOH     H1 5895   1.429   2.601   0.840
 1903HOH     H2 5896   1.569   2.605   0.783
 1904HOH      O 5897   3.820   2.427   1.485
 1904HOH     H1 5898   3.793   2.516   1.465
 1904HOH     H2 5899   3.882   2.404   1.415
 1905HOH      O 5900   0.446   2.728   1.912
 1905HOH     H1 5901   0.471   2.736   1.820
 1905HOH     H2 5902   0.458   2.635   1.932
 1906HOH      O 5903   2.205   2.959   2.396
 1906HOH     H1 5904   2.205   3.045   2.354
 1906HOH     H2 5905   2.201   2.897   2.324
 1907HOH      O 5906   0.166   3.305   2.018
 1907HOH     H1 5907   0.198   3.395   2.016
 1907HOH     H2 5908   0.223   3.258   1.957
 1908HOH      O 5909   3.898   2.206   3.204
 1908HOH     H1 5910   3.821   2.218   3.148
 1908HOH     H2 5911   3.892   2.115   3.233
 1909HOH      O 5912   1.842   1.381   3.329
 1909HOH     H1 5913   1.774   1.406   3.267
 1909HOH     H2 5914   1.823   1.290   3.351
 1910HOH      O 5915   1.134   0.961   1.551
 1910HOH     H1 5916   1.197   0.962   1.623
 1910HOH     H2 5917   1.186   0.981   1.473
 1911HOH      O 5918   3.672   1.195   0.335
 1911HOH     H1 5919   3.642   1.275   0.379
 1911HOH     H2 5920   3.765   1.209   0.322
 1912HOH      O 5921   0.021   2.624   0.493
 1912HOH     H1 5922  -0.002   2.698   0.436
 1912HOH     H2 5923   0.110   2.644   0.523
 1913HOH      O 5924   0.847   3.970   2.660
 1913HOH     H1 5925   0.896   3.888   2.660
 1913HOH     H2 5926   0.756   3.944   2.645
 1914HOH      O 5927   3.692   2.543   1.769
 1914HOH     H1 5928   3.775   2.584   1.744
 1914HOH     H2 5929   3.672   2.580   1.855
 1915HOH      O 5930   0.178   2.473   1.655
 1915HOH     H1 5931   0.174   2.378   1.666
 1915HOH     H2 5932   0.251   2.487   1.595
 1916HOH      O 5933   0.599   1.935   3.541
 1916HOH     H1 5934   0.577   1.844   3.522
 1916HOH     H2 5935   0.517   1.974   3.570
 1917HOH      O 5936   0.188   3.999   2.893
 1917HOH     H1 5937   0.111   4.027   2.943
 1917HOH     H2 5938   0.186   3.903   2.897
 1918HOH      O 5939   1.171   1.716   1.423
 1918HOH     H1 5940   1.239   1.650   1.439
 1918HOH     H2 5941   1.153   1.710   1.330
 1919HOH      O 5942   0.077   0.711   3.274
 1919HOH     H1 5943   0.001   0.684   3.222
 1919HOH     H2 5944   0.060   0.675   3.361
 1920HOH      O 5945   1.682   2.172   2.152
 1920HOH     H1 5946   1.610   2.217   2.197
 1920HOH     H2 5947   1.704   2.231   2.079
 1921HOH      O 5948   2.631   0.818   1.450
 1921HOH     H1 5949   2.654   0.736   1.407
 1921HOH     H2 5950   2.638   0.798   1.544
 1922HOH      O 5951   2.228   3.100   2.644
 1922HOH     H1 5952   2.256   3.178   2.596
 1922HOH     H2 5953   2.168   3.055   2.585
 1923HOH      O 5954   2.232   1.711   1.102
 1923HOH     H1 5955   2.141   1.737   1.115
 1923HOH     H2 5956   2.237   1.688   1.009
 1924HOH      O 5957   2.229   3.713   2.510
 1924HOH     H1 5958   2.192   3.773   2.575
 1924HOH     H2 5959   2.168   3.718   2.437
 1925HOH      O 5960   1.711   1.573   0.205
 1925HOH     H1 5961   1.783   1.526   0.163
 1925HOH     H2 5962   1.644   1.578   0.137
 1926HOH      O 5963   2.500   0.124   1.995
 1926HOH     H1 5964   2.520   0.112   2.088
 1926HOH     H2 5965   2.433   0.059   1.976
 1927HOH      O 5966   2.520   2.350   1.870
 1927HOH     H1 5967   2.558   2.380   1.953
 1927HOH     H2 5968   2.573   2.273   1.847
 1928HOH      O 5969   0.634   3.864   3.391
 1928HOH     H1 5970   0.651   3.949   3.350
 1928HOH     H2 5971   0.654   3.800   3.322
 1929HOH      O 5972   1.086   3.910   1.253
 1929HOH     H1 5973   1.123   3.981   1.200
 1929HOH     H2 5974   1.070   3.951   1.339
 1930HOH      O 5975   0.170   3.519   1.093
 1930HOH     H1 5976   0.170   3.464   1.171
 1930HOH     H2 5977   0.248   3.574   1.101
 1931HOH      O 5978   1.935   1.558   3.070
 1931HOH     H1 5979   1.976   1.554   3.156
 1931HOH     H2 5980   1.967   1.480   3.025
 1932HOH      O 5981   2.804   3.472   3.647
 1932HOH     H1 5982   2.751   3.540   3.605
 1932HOH     H2 5983   2.885   3.517   3.672
 1933HOH      O 5984   0.634   3.904   0.268
 1933HOH     H1 5985   0.621   3.918   0.361
 1933HOH     H2 5986   0.549   3.921   0.228
 1934HOH      O 5987   3.772   0.964   0.470
 1934HOH     H1 5988   3.754   1.025   0.400
 1934HOH     H2 5989   3.854   0.921   0.444
 1935HOH      O 5990   2.049   2.096   0.498
 1935HOH     H1 5991   2.025   2.027   0.560
 1935HOH     H2 5992   2.135   2.126   0.527
 1936HOH      O 5993   1.623   3.508   2.148
 1936HOH     H1 5994   1.572   3.437   2.110
 1936HOH     H2 5995   1.558   3.569   2.184
 1937HOH      O 5996   2.429   1.008   3.559
 1937HOH     H1 5997   2.508   0.972   3.520
 1937HOH     H2 5998   2.388   0.934   3.604
 1938HOH      O 5999   1.638   0.650   1.801
 1938HOH     H1 6000   1.719   0.615   1.762
 1938HOH     H2 6001   1.623   0.732   1.755
 1939HOH      O 6002   2.849   0.793   2.859
 1939HOH     H1 6003   2.930   0.744   2.843
 1939HOH     H2 6004   2.841   0.795   2.954
 1940HOH      O 6005   0.683   0.713   0.751
 1940HOH     H1 6006   0.611   0.679   0.698
 1940HOH     H2 6007   0.670   0.808   0.752
 1941HOH      O 6008   0.173   1.340   0.246
 1941HOH     H1 6009   0.147   1.369   0.333
 1941HOH     H2 6010   0.212   1.418   0.205
 1942HOH      O 6011   3.733   1.227   3.924
 1942HOH     H1 6012   3.740   1.313   3.965
 1942HOH     H2 6013   3.816   1.215   3.878
 1943HOH      O 6014   3.803   0.845   0.123
 1943HOH     H1 6015   3.803   0.902   0.047
 1943HOH     H2 6016   3.895   0.824   0.138
 1944HOH      O 6017   3.928   2.880   3.014
 1944HOH     H1 6018   3.969   2.861   2.930
 1944HOH     H2 6019   3.908   2.974   3.011
 1945HOH      O 6020   2.426   1.475   3.471
 1945HOH     H1 6021   2.389   1.395   3.510
 1945HOH     H2 6022   2.500   1.496   3.527
 1946HOH      O 6023   3.001   3.724   0.003
 1946HOH     H1 6024   2.990   3.649   0.062
 1946HOH     H2 6025   3.063   3.781   0.049
 1947HOH      O 6026   1.695   1.626   3.230
 1947HOH     H1 6027   1.766   1.588   3.177
 1947HOH     H2 6028   1.736   1.701   3.272
 1948HOH      O 6029   0.283   1.101   0.174
 1948HOH     H1 6030   0.262   1.177   0.228
 1948HOH     H2 6031   0.215   1.100   0.107
 1949HOH      O 6032   1.128   0.594   1.088
 1949HOH     H1 6033   1.201   0.614   1.029
 1949HOH     H2 6034   1.054   0.578   1.031
 1950HOH      O 6035   3.414   2.761   0.953
 1950HOH     H1 6036   3.470   2.710   1.011
 1950HOH     H2 6037   3.383   2.699   0.888
 1951HOH      O 6038   3.942   0.085   3.014
 1951HOH     H1 6039   3.909   0.021   3.076
 1951HOH     H2 6040   3.873   0.093   2.948
 1952HOH      O 6041   1.099   1.907   3.366
 1952HOH     H1 6042   1.021   1.907   3.421
 1952HOH     H2 6043   1.082   1.838   3.301
 1953HOH      O 6044   2.805   0.646   1.674
 1953HOH     H1 6045   2.751   0.671   1.749
 1953HOH     H2 6046   2.881   0.705   1.678
 1954HOH      O 6047   0.924   1.293   3.549
 1954HOH     H1 6048   0.911   1.370   3.604
 1954HOH     H2 6049   1.018   1.287   3.537
 1955HOH      O 6050   0.765   3.635   3.545
 1955HOH     H1 6051   0.770   3.668   3.634
 1955HOH     H2 6052   0.694   3.685   3.504
 1956HOH      O 6053   3.823   3.906   3.401
 1956HOH     H1 6054   3.747   3.916   3.458
 1956HOH     H2 6055   3.789   3.923   3.313
 1957HOH      O 6056   0.475   0.714   1.675
 1957HOH     H1 6057   0.454   0.768   1.599
 1957HOH     H2 6058   0.565   0.738   1.697
 1958HOH      O 6059   3.387   3.846   3.076
 1958HOH     H1 6060   3.467   3.811   3.114
 1958HOH     H2 6061   3.323   3.841   3.147
 1959HOH      O 6062   3.198   3.568   2.275
 1959HOH     H1 6063   3.293   3.582   2.273
 1959HOH     H2 6064   3.187   3.474   2.263
 1960HOH      O 6065   3.598   2.137   1.556
 1960HOH     H1 6066   3.602   2.053   1.509
 1960HOH     H2 6067   3.542   2.119   1.632
 1961HOH      O 6068   0.618   3.131   0.989
 1961HOH     H1 6069   0.534   3.121   0.944
 1961HOH     H2 6070   0.664   3.049   0.972
 1962HOH      O 6071   2.461   2.638   2.157
 1962HOH     H1 6072   2.547   2.614   2.191
 1962HOH     H2 6073   2.476   2.655   2.063
 1963HOH      O 6074   3.953   1.500   1.372
 1963HOH     H1 6075   3.966   1.444   1.295
 1963HOH     H2 6076   4.041   1.534   1.391
 1964HOH      O 6077   1.615   2.861   2.934
 1964HOH     H1 6078   1.532   2.857   2.887
 1964HOH     H2 6079   1.646   2.770   2.937
 1965HOH      O 6080   2.819   1.753   3.308
 1965HOH     H1 6081   2.863   1.670   3.290
 1965HOH     H2 6082   2.872   1.795   3.376
 1966HOH      O 6083   0.724   2.079   1.759
 1966HOH     H1 6084   0.757   2.019   1.825
 1966HOH     H2 6085   0.800   2.132   1.734
 1967HOH      O 6086   0.937   1.312   3.123
 1967HOH     H1 6087   1.020   1.264   3.124
 1967HOH     H2 6088   0.889   1.278   3.198
 1968HOH      O 6089   2.825   1.386   1.596
 1968HOH     H1 6090   2.862   1.467   1.562
 1968HOH     H2 6091   2.901   1.333   1.621
 1969HOH      O 6092   2.961   0.553   0.730
 1969HOH     H1 6093   2.914   0.614   0.672
 1969HOH     H2 6094   3.052   0.558   0.700
 1970HOH      O 6095   3.040   0.264   3.377
 1970HOH     H1 6096   2.972   0.200   3.397
 1970HOH     H2 6097   3.029   0.332   3.443
 1971HOH      O 6098   2.825   3.208   1.722
 1971HOH     H1 6099   2.750   3.225   1.665
 1971HOH     H2 6100   2.892   3.270   1.693
 1972HOH      O 6101   3.508   0.031   1.915
 1972HOH     H1 6102   3.469  -0.054   1.892
 1972HOH     H2 6103   3.515   0.029   2.010
 1973HOH      O 6104   0.062   3.036   0.625
 1973HOH     H1 6105  -0.003   2.994   0.569
 1973HOH     H2 6106   0.045   3.130   0.615
 1974HOH      O 6107   3.554   0.701   0.096
 1974HOH     H1 6108   3.578   0.679   0.006
 1974HOH     H2 6109   3.612   0.774   0.119
 1975HOH      O 6110   1.509   3.426   3.522
 1975HOH     H1 6111   1.552   3.500   3.480
 1975HOH     H2 6112   1.447   3.465   3.582
 1976HOH      O 6113   1.915   1.547   4.050
 1976HOH     H1 6114   1.882   1.526   3.962
 1976HOH     H2 6115   1.955   1.633   4.039
 1977HOH      O 6116   0.723   1.005   1.609
 1977HOH     H1 6117   0.762   0.951   1.541
 1977HOH     H2 6118   0.781   1.081   1.615
 1978HOH      O 6119   1.731   2.651   1.672
 1978HOH     H1 6120   1.678   2.636   1.593
 1978HOH     H2 6121   1.787   2.574   1.678
 1979HOH      O 6122   0.861   1.511   1.651
 1979HOH     H1 6123   0.839   1.511   1.744
 1979HOH     H2 6124   0.908   1.594   1.637
 1980HOH      O 6125   3.607   3.228   3.627
 1980HOH     H1 6126   3.540   3.206   3.563
 1980HOH     H2 6127   3.679   3.265   3.576
 1981HOH      O 6128   3.788   1.637   4.050
 1981HOH     H1 6129   3.770   1.643   3.956
 1981HOH     H2 6130   3.881   1.659   4.058
 1982HOH      O 6131   3.037   0.867   3.224
 1982HOH     H1 6132   3.105   0.839   3.162
 1982HOH     H2 6133   3.082   0.929   3.282
 1983HOH      O 6134   0.188   2.658   1.342
 1983HOH     H1 6135   0.185   2.637   1.249
 1983HOH     H2 6136   0.120   2.602   1.381
 1984HOH      O 6137   0.297   0.071   1.043
 1984HOH     H1 6138   0.388   0.044   1.038
 1984HOH     H2 6139   0.279   0.077   1.137
 1985HOH      O 6140   3.244   0.083   3.782
 1985HOH     H1 6141   3.278   0.016   3.722
 1985HOH     H2 6142   3.272   0.165   3.743
 1986HOH      O 6143   4.018   3.310   3.195
 1986HOH     H1 6144   4.089   3.287   3.136
 1986HOH     H2 6145   3.951   3.349   3.138
 1987HOH      O 6146   2.911   2.215   0.404
 1987HOH     H1 6147   2.857   2.136   0.395
 1987HOH     H2 6148   2.999   2.185   0.384
 1988HOH      O 6149   2.645   1.078   3.931
 1988HOH     H1 6150   2.588   1.131   3.875
 1988HOH     H2 6151   2.587   1.011   3.967
 1989HOH      O 6152   3.761   0.099   3.641
 1989HOH     H1 6153   3.837   0.142   3.680
 1989HOH     H2 6154   3.754   0.139   3.554
 1990HOH      O 6155   0.038   0.292   1.879
 1990HOH     H1 6156  -0.013   0.259   1.805
 1990HOH     H2 6157   0.037   0.387   1.868
 1991HOH      O 6158   1.739   2.483   3.181
 1991HOH     H1 6159   1.722   2.390   3.166
 1991HOH     H2 6160   1.733   2.523   3.095
 1992HOH      O 6161   2.339   0.791   3.677
 1992HOH     H1 6162   2.416   0.747   3.713
 1992HOH     H2 6163   2.267   0.731   3.697
 1993HOH      O 6164   0.362   0.570   3.007
 1993HOH     H1 6165   0.346   0.477   3.023
 1993HOH     H2 6166   0.382   0.606   3.093
 1994HOH      O 6167   1.349   2.520   2.932
 1994HOH     H1 6168   1.403   2.501   2.856
 1994HOH     H2 6169   1.359   2.444   2.989
 1995HOH      O 6170   1.900   1.953   0.740
 1995HOH     H1 6171   1.883   2.033   0.790
 1995HOH     H2 6172   1.844   1.961   0.663
 1996HOH      O 6173   1.345   1.493   1.440
 1996HOH     H1 6174   1.336   1.464   1.350
 1996HOH     H2 6175   1.439   1.507   1.452
 1997HOH      O 6176   2.823   0.790   2.526
 1997HOH     H1 6177   2.829   0.837   2.609
 1997HOH     H2 6178   2.800   0.700   2.551
 1998HOH      O 6179   1.746   2.612   2.950
 1998HOH     H1 6180   1.768   2.575   2.865
 1998HOH     H2 6181   1.804   2.687   2.960
 1999HOH      O 6182   2.338   3.872   0.454
 1999HOH     H1 6183   2.258   3.921   0.434
 1999HOH     H2 6184   2.378   3.857   0.368
 2000HOH      O 6185   0.913   2.385   3.546
 2000HOH     H1 6186   0.957   2.300   3.558
 2000HOH     H2 6187   0.954   2.423   3.469
 2001HOH      O 6188   2.803   1.927   1.156
 2001HOH     H1 6189   2.816   1.884   1.072
 2001HOH     H2 6190   2.735   1.876   1.200
 2002HOH      O 6191   2.741   3.297   0.568
 2002HOH     H1 6192   2.684   3.275   0.494
 2002HOH     H2 6193   2.744   3.393   0.568
 2003HOH      O 6194   3.348   0.991   3.651
 2003HOH     H1 6195   3.386   1.030   3.730
 2003HOH     H2 6196   3.362   0.897   3.661
 2004HOH      O 6197   0.520   0.888   3.125
 2004HOH     H1 6198   0.558   0.848   3.047
 2004HOH     H2 6199   0.524   0.819   3.192
 2005HOH      O 6200   2.064   3.971   2.599
 2005HOH     H1 6201   2.103   3.990   2.685
 2005HOH     H2 6202   1.995   4.035   2.589
 2006HOH      O 6203   0.718   2.826   4.000
 2006HOH     H1 6204   0.669   2.780   3.933
 2006HOH     H2 6205   0.666   2.904   4.020
 2007HOH      O 6206   0.494   2.949   0.027
 2007HOH     H1 6207   0.453   3.035   0.028
 2007HOH     H2 6208   0.425   2.890  -0.003
 2008HOH      O 6209   0.249   1.437   2.261
 2008HOH     H1 6210   0.344   1.427   2.258
 2008HOH     H2 6211   0.224   1.450   2.169
 2009HOH      O 6212   2.894   2.974   1.567
 2009HOH     H1 6213   2.887   3.020   1.484
 2009HOH     H2 6214   2.898   3.043   1.633
 2010HOH      O 6215   3.880   0.579   3.779
 2010HOH     H1 6216   3.790   0.580   3.812
 2010HOH     H2 6217   3.911   0.491   3.799
 2011HOH      O 6218   1.267   3.690   1.619
 2011HOH     H1 6219   1.223   3.760   1.668
 2011HOH     H2 6220   1.338   3.734   1.572
 2012HOH      O 6221   1.853   0.898   1.505
 2012HOH     H1 6222   1.759   0.899   1.489
 2012HOH     H2 6223   1.878   0.806   1.489
 2013HOH      O 6224   0.376   0.715   0.172
 2013HOH     H1 6225   0.436   0.789   0.164
 2013HOH     H2 6226   0.404   0.670   0.252
 2014HOH      O 6227   2.754   2.621   2.922
 2014HOH     H1 6228   2.802   2.636   2.840
 2014HOH     H2 6229   2.678   2.679   2.916
 2015HOH      O 6230   2.203   2.912   2.853
 2015HOH     H1 6231   2.175   2.865   2.774
 2015HOH     H2 6232   2.197   3.004   2.829
 2016HOH      O 6233   2.585   1.424   3.823
 2016HOH     H1 6234   2.615   1.490   3.885
 2016HOH     H2 6235   2.505   1.388   3.862
 2017HOH      O 6236   2.097   0.586   3.072
 2017HOH     H1 6237   2.081   0.636   2.992
 2017HOH     H2 6238   2.011   0.550   3.095
 2018HOH      O 6239   2.957   1.860   3.928
 2018HOH     H1 6240   2.865   1.868   3.906
 2018HOH     H2 6241   2.982   1.948   3.957
 2019HOH      O 6242   3.533   0.822   0.484
 2019HOH     H1 6243   3.486   0.877   0.421
 2019HOH     H2 6244   3.613   0.870   0.504
 2020HOH      O 6245   3.413   1.475   3.420
 2020HOH     H1 6246   3.426   1.407   3.486
 2020HOH     H2 6247   3.324   1.507   3.436
 2021HOH      O 6248   1.793   3.858   2.304
 2021HOH     H1 6249   1.752   3.833   2.221
 2021HOH     H2 6250   1.820   3.949   2.292
 2022HOH      O 6251   3.602   0.138   2.182
 2022HOH     H1 6252   3.672   0.084   2.144
 2022HOH     H2 6253   3.574   0.195   2.110
 2023HOH      O 6254   0.865   0.635   0.941
 2023HOH     H1 6255   0.787   0.638   0.886
 2023HOH     H2 6256   0.935   0.666   0.885
 2024HOH      O 6257   3.351   2.211   0.985
 2024HOH     H1 6258   3.312   2.139   0.935
 2024HOH     H2 6259   3.443   2.211   0.960
 2025HOH      O 6260   1.552   0.881   0.863
 2025HOH     H1 6261   1.481   0.929   0.820
 2025HOH     H2 6262   1.629   0.936   0.851
 2026HOH      O 6263   2.212   1.417   1.984
 2026HOH     H1 6264   2.152   1.455   2.048
 2026HOH     H2 6265   2.222   1.326   2.012
 2027HOH      O 6266   2.820   0.562   0.979
 2027HOH     H1 6267   2.898   0.543   0.926
 2027HOH     H2 6268   2.751   0.579   0.915
 2028HOH      O 6269   0.029   2.372   0.703
 2028HOH     H1 6270  -0.011   2.330   0.779
 2028HOH     H2 6271   0.053   2.460   0.733
 2029HOH      O 6272   0.142   3.724   2.795
 2029HOH     H1 6273   0.106   3.802   2.752
 2029HOH     H2 6274   0.227   3.710   2.753
 2030HOH      O 6275   2.646   3.035   0.455
 2030HOH     H1 6276   2.690   2.951   0.462
 2030HOH     H2 6277   2.697   3.083   0.390
 2031HOH      O 6278   3.913   3.071   0.982
 2031HOH     H1 6279   3.863   3.013   0.924
 2031HOH     H2 6280   4.004   3.044   0.970
 2032HOH      O 6281   2.855   2.333   2.979
 2032HOH     H1 6282   2.916   2.325   3.052
 2032HOH     H2 6283   2.860   2.424   2.953
 2033HOH      O 6284   0.382   2.243   2.754
 2033HOH     H1 6285   0.348   2.168   2.803
 2033HOH     H2 6286   0.470   2.216   2.727
 2034HOH      O 6287   1.892   3.983   0.751
 2034HOH     H1 6288   1.946   3.979   0.672
 2034HOH     H2 6289   1.805   4.007   0.720
 2035HOH      O 6290   3.795   2.696   1.477
 2035HOH     H1 6291   3.722   2.739   1.521
 2035HOH     H2 6292   3.855   2.767   1.453
 2036HOH      O 6293   1.880   2.048   0.286
 2036HOH     H1 6294   1.962   2.062   0.334
 2036HOH     H2 6295   1.874   1.954   0.275
 2037HOH      O 6296   3.659   3.780   2.895
 2037HOH     H1 6297   3.641   3.721   2.968
 2037HOH     H2 6298   3.592   3.758   2.830
 2038HOH      O 6299   1.849   2.588  -0.035
 2038HOH     H1 6300   1.827   2.530   0.039
 2038HOH     H2 6301   1.867   2.672   0.006
 2039HOH      O 6302   2.418   1.554   2.133
 2039HOH     H1 6303   2.371   1.514   2.207
 2039HOH     H2 6304   2.352   1.605   2.087
 2040HOH      O 6305   0.048   3.364   2.749
 2040HOH     H1 6306   0.009   3.386   2.664
 2040HOH     H2 6307  -0.027   3.353   2.807
 2041HOH      O 6308   3.251   1.042   2.323
 2041HOH     H1 6309   3.200   1.095   2.261
 2041HOH     H2 6310   3.193   1.032   2.399
 2042HOH      O 6311   3.529   0.246   2.678
 2042HOH     H1 6312   3.589   0.200   2.619
 2042HOH     H2 6313   3.580   0.261   2.757
 2043HOH      O 6314   2.236   1.776   3.422
 2043HOH     H1 6315   2.199   1.821   3.346
 2043HOH     H2 6316   2.180   1.802   3.495
 2044HOH      O 6317   2.902   1.125   3.754
 2044HOH     H1 6318   2.968   1.187   3.722
 2044HOH     H2 6319   2.819   1.163   3.725
 2045HOH      O 6320   0.500   3.830   3.686
 2045HOH     H1 6321   0.433   3.797   3.626
 2045HOH     H2 6322   0.579   3.836   3.631
 2046HOH      O 6323   1.591   1.721   0.810
 2046HOH     H1 6324   1.587   1.649   0.747
 2046HOH     H2 6325   1.628   1.682   0.889
 2047HOH      O 6326   2.983   1.592   3.946
 2047HOH     H1 6327   3.074   1.582   3.973
 2047HOH     H2 6328   2.970   1.687   3.940
 2048HOH      O 6329   1.087   0.666   1.512
 2048HOH     H1 6330   1.124   0.660   1.600
 2048HOH     H2 6331   1.058   0.757   1.504
 2049HOH      O 6332   1.291   3.430   2.911
 2049HOH     H1 6333   1.291   3.340   2.944
 2049HOH     H2 6334   1.361   3.431   2.845
 2050HOH      O 6335   0.713   1.515   2.717
 2050HOH     H1 6336   0.744   1.560   2.796
 2050HOH     H2 6337   0.639   1.463   2.748
 2051HOH      O 6338   0.538   2.707   1.631
 2051HOH     H1 6339   0.518   2.638   1.567
 2051HOH     H2 6340   0.620   2.677   1.672
 2052HOH      O 6341   2.364   3.086   3.412
 2052HOH     H1 6342   2.343   3.027   3.484
 2052HOH     H2 6343   2.390   3.168   3.454
 2053HOH      O 6344  -0.030   3.842   0.626
 2053HOH     H1 6345   0.036   3.894   0.672
 2053HOH     H2 6346   0.021   3.784   0.569
 2054HOH      O 6347   3.004   2.962   3.943
 2054HOH     H1 6348   2.954   2.882   3.958
 2054HOH     H2 6349   3.085   2.932   3.900
 2055HOH      O 6350  -0.012   1.318   2.153
 2055HOH     H1 6351   0.029   1.269   2.082
 2055HOH     H2 6352   0.026   1.281   2.233
 2056HOH      O 6353   0.961   1.476   2.916
 2056HOH     H1 6354   0.895   1.541   2.941
 2056HOH     H2 6355   0.957   1.410   2.985
 2057HOH      O 6356   1.737   2.528   2.693
 2057HOH     H1 6357   1.752   2.464   2.623
 2057HOH     H2 6358   1.643   2.546   2.689
 2058HOH      O 6359   1.992   1.121   2.607
 2058HOH     H1 6360   2.041   1.204   2.600
 2058HOH     H2 6361   2.023   1.083   2.689
 2059HOH      O 6362   1.570   0.493   0.371
 2059HOH     H1 6363   1.494   0.539   0.406
 2059HOH     H2 6364   1.639   0.560   0.368
 2060HOH      O 6365   2.338   1.006   1.812
 2060HOH     H1 6366   2.388   1.059   1.874
 2060HOH     H2 6367   2.400   0.986   1.742
 2061HOH      O 6368   3.534   1.659   2.023
 2061HOH     H1 6369   3.583   1.581   2.050
 2061HOH     H2 6370   3.557   1.726   2.088
 2062HOH      O 6371   1.223   1.390   3.821
 2062HOH     H1 6372   1.209   1.312   3.766
 2062HOH     H2 6373   1.311   1.419   3.799
 2063HOH      O 6374   3.116   2.603   2.529
 2063HOH     H1 6375   3.095   2.657   2.453
 2063HOH     H2 6376   3.035   2.600   2.580
 2064HOH      O 6377   0.783   2.510   1.215
 2064HOH     H1 6378   0.803   2.567   1.290
 2064HOH     H2 6379   0.694   2.534   1.191
 2065HOH      O 6380   2.812   0.633   3.343
 2065HOH     H1 6381   2.805   0.727   3.325
 2065HOH     H2 6382   2.895   0.623   3.389
 2066HOH      O 6383   1.309   0.184   0.511
 2066HOH     H1 6384   1.386   0.179   0.454
 2066HOH     H2 6385   1.264   0.101   0.497
 2067HOH      O 6386   2.708   2.729   3.822
 2067HOH     H1 6387   2.677   2.816   3.796
 2067HOH     H2 6388   2.730   2.739   3.914
 2068HOH      O 6389   2.172   0.607   3.779
 2068HOH     H1 6390   2.113   0.540   3.745
 2068HOH     H2 6391   2.115   0.664   3.830
 2069HOH      O 6392   0.738   1.246   1.373
 2069HOH     H1 6393   0.701   1.181   1.313
 2069HOH     H2 6394   0.828   1.217   1.388
 2070HOH      O 6395   1.515   2.586   0.087
 2070HOH     H1 6396   1.435   2.565   0.135
 2070HOH     H2 6397   1.584   2.535   0.131
 2071HOH      O 6398   0.381   0.658   3.268
 2071HOH     H1 6399   0.289   0.674   3.290
 2071HOH     H2 6400   0.404   0.578   3.315
 2072HOH      O 6401   2.528   1.125   1.165
 2072HOH     H1 6402   2.465   1.124   1.237
 2072HOH     H2 6403   2.606   1.085   1.201
 2073HOH      O 6404   4.005   2.354   3.889
 2073HOH     H1 6405   3.984   2.402   3.969
 2073HOH     H2 6406   3.949   2.392   3.822
 2074HOH      O 6407   0.777   2.542   3.231
 2074HOH     H1 6408   0.834   2.619   3.229
 2074HOH     H2 6409   0.832   2.472   3.266
 2075HOH      O 6410   3.821   2.522   0.018
 2075HOH     H1 6411   3.746   2.475  -0.017
 2075HOH     H2 6412   3.799   2.615   0.004
 2076HOH      O 6413   2.155   2.231   1.027
 2076HOH     H1 6414   2.169   2.272   0.941
 2076HOH     H2 6415   2.068   2.193   1.021
 2077HOH      O 6416   1.677   1.599   0.516
 2077HOH     H1 6417   1.722   1.634   0.439
 2077HOH     H2 6418   1.746   1.592   0.583
 2078HOH      O 6419   2.684   1.595   0.234
 2078HOH     H1 6420   2.596   1.603   0.272
 2078HOH     H2 6421   2.733   1.544   0.299
 2079HOH      O 6422   0.461   3.285   1.174
 2079HOH     H1 6423   0.459   3.294   1.269
 2079HOH     H2 6424   0.532   3.224   1.156
 2080HOH      O 6425   2.888   1.138   1.917
 2080HOH     H1 6426   2.908   1.229   1.940
 2080HOH     H2 6427   2.918   1.088   1.993
 2081HOH      O 6428   2.647   2.126   1.711
 2081HOH     H1 6429   2.661   2.106   1.619
 2081HOH     H2 6430   2.559   2.095   1.730
 2082HOH      O 6431   0.135   0.566   1.774
 2082HOH     H1 6432   0.203   0.576   1.841
 2082HOH     H2 6433   0.168   0.615   1.699
 2083HOH      O 6434   3.429   1.440   3.872
 2083HOH     H1 6435   3.502   1.428   3.811
 2083HOH     H2 6436   3.463   1.409   3.956
 2084HOH      O 6437   2.240   3.380   1.370
 2084HOH     H1 6438   2.241   3.452   1.433
 2084HOH     H2 6439   2.201   3.307   1.416
 2085HOH      O 6440   2.093   0.684   2.387
 2085HOH     H1 6441   2.053   0.767   2.410
 2085HOH     H2 6442   2.186   0.694   2.409
 2086HOH      O 6443   1.917   2.221   1.751
 2086HOH     H1 6444   1.914   2.266   1.666
 2086HOH     H2 6445   2.007   2.235   1.781
 2087HOH      O 6446   3.583   1.399   1.189
 2087HOH     H1 6447   3.531   1.321   1.205
 2087HOH     H2 6448   3.601   1.434   1.277
 2088HOH      O 6449   2.528   2.763   1.348
 2088HOH     H1 6450   2.584   2.700   1.300
 2088HOH     H2 6451   2.536   2.844   1.298
 2089HOH      O 6452   3.488   3.081   1.633
 2089HOH     H1 6453   3.474   3.106   1.725
 2089HOH     H2 6454   3.577   3.112   1.614
 2090HOH      O 6455   3.478   0.388   3.146
 2090HOH     H1 6456   3.388   0.420   3.137
 2090HOH     H2 6457   3.491   0.379   3.241
 2091HOH      O 6458   0.052   2.154   0.242
 2091HOH     H1 6459   0.014   2.219   0.301
 2091HOH     H2 6460   0.146   2.159   0.260
 2092HOH      O 6461   3.684   2.284   3.473
 2092HOH     H1 6462   3.608   2.258   3.420
 2092HOH     H2 6463   3.666   2.375   3.495
 2093HOH      O 6464   1.212   2.641   1.782
 2093HOH     H1 6465   1.198   2.569   1.719
 2093HOH     H2 6466   1.234   2.716   1.727
 2094HOH      O 6467   3.197   1.781   0.643
 2094HOH     H1 6468   3.128   1.797   0.578
 2094HOH     H2 6469   3.276   1.768   0.591
 2095HOH      O 6470   3.169   1.423   3.154
 2095HOH     H1 6471   3.117   1.361   3.103
 2095HOH     H2 6472   3.166   1.504   3.103
 2096HOH      O 6473   3.551   0.378   2.062
 2096HOH     H1 6474   3.476   0.354   2.008
 2096HOH     H2 6475   3.513   0.426   2.136
 2097HOH      O 6476   2.500   3.123   2.115
 2097HOH     H1 6477   2.409   3.145   2.093
 2097HOH     H2 6478   2.534   3.081   2.036
 2098HOH      O 6479   1.489   1.970   2.930
 2098HOH     H1 6480   1.470   1.927   3.013
 2098HOH     H2 6481   1.411   1.957   2.877
 2099HOH      O 6482   1.983   1.680   2.622
 2099HOH     H1 6483   1.980   1.681   2.526
 2099HOH     H2 6484   1.910   1.736   2.649
 2100HOH      O 6485   0.698   1.886   2.081
 2100HOH     H1 6486   0.782   1.917   2.049
 2100HOH     H2 6487   0.694   1.794   2.052
 2101HOH      O 6488   0.173   2.520   3.701
 2101HOH     H1 6489   0.130   2.436   3.711
 2101HOH     H2 6490   0.106   2.578   3.665
 2102HOH      O 6491   2.434   3.919   3.450
 2102HOH     H1 6492   2.478   3.867   3.383
 2102HOH     H2 6493   2.369   3.971   3.402
 2103HOH      O 6494   2.058   3.414   0.622
 2103HOH     H1 6495   2.026   3.369   0.544
 2103HOH     H2 6496   2.021   3.364   0.695
 2104HOH      O 6497   1.261   2.930   0.667
 2104HOH     H1 6498   1.191   2.972   0.617
 2104HOH     H2 6499   1.325   2.905   0.600
 2105HOH      O 6500   3.057   3.911   3.609
 2105HOH     H1 6501   3.102   3.895   3.527
 2105HOH     H2 6502   3.038   4.005   3.608
 2106HOH      O 6503   1.132   3.528   2.271
 2106HOH     H1 6504   1.060   3.536   2.334
 2106HOH     H2 6505   1.212   3.535   2.325
 2107HOH      O 6506   3.345   2.899   3.462
 2107HOH     H1 6507   3.380   2.895   3.373
 2107HOH     H2 6508   3.250   2.890   3.451
 2108HOH      O 6509   3.390   2.069   0.633
 2108HOH     H1 6510   3.482   2.094   0.626
 2108HOH     H2 6511   3.378   2.003   0.564
 2109HOH      O 6512   0.868   1.771   2.339
 2109HOH     H1 6513   0.921   1.742   2.413
 2109HOH     H2 6514   0.777   1.756   2.366
 2110HOH      O 6515   3.756   2.604   3.129
 2110HOH     H1 6516   3.755   2.657   3.209
 2110HOH     H2 6517   3.846   2.611   3.097
 2111HOH      O 6518   0.873   2.059   0.756
 2111HOH     H1 6519   0.954   2.060   0.706
 2111HOH     H2 6520   0.807   2.093   0.696
   4.02731   4.02731   4.02731   0.00000   0.00000   0.00000   0.00000   0.00000   0.00000
