Generated with MDTraj, t= 29252.0
 6520
    1MOL     C1    1   0.305   2.178   0.948
    1MOL     C2    2   0.415   2.130   0.879
    1MOL     C3    3   0.405   2.030   0.781
    1MOL     C4    4   0.279   1.983   0.744
    1MOL     C5    5   0.171   2.036   0.814
    1MOL     C6    6   0.180   2.127   0.914
    1MOL     C7    7   0.516   1.967   0.720
    1MOL     N1    8   0.603   1.918   0.668
    1MOL     C8    9   0.055   2.187   0.964
    1MOL     O1   10  -0.056   2.152   0.929
    1MOL     O2   11   0.069   2.266   1.053
    1MOL     H1   12   0.324   2.250   1.027
    1MOL     H2   13   0.515   2.159   0.910
    1MOL     H3   14   0.258   1.908   0.668
    1MOL     H4   15   0.071   2.008   0.783
    2OCB     C1   16   0.899   0.488   0.437
    2OCB     C2   17   0.616   0.494   0.422
    2OCB     C3   18   0.829   0.443   0.323
    2OCB     C4   19   0.820   0.536   0.543
    2OCB     C5   20   0.682   0.535   0.537
    2OCB     C6   21   0.689   0.451   0.310
    2OCB     O1   22   0.481   0.520   0.415
    2OCB     C7   23   0.616   0.405   0.179
    2OCB     C8   24   0.443   0.645   0.339
    2OCB     O2   25   0.388   0.604   0.209
    2OCB     C9   26   0.482   0.610   0.106
    2OCB    C10   27   0.590   0.521   0.087
    2OCB    C11   28   0.689   0.552  -0.008
    2OCB    C12   29   0.472   0.726   0.032
    2OCB    C13   30   0.675   0.673  -0.082
    2OCB    C14   31   0.565   0.754  -0.067
    2OCB     O3   32   0.563   0.869  -0.136
    2OCB    C15   33   0.782   0.714  -0.192
    2OCB    C16   34   0.885   0.816  -0.135
    2OCB    C17   35   0.860   0.953  -0.134
    2OCB    C18   36   0.631   0.987  -0.086
    2OCB     O4   37   0.739   1.010  -0.171
    2OCB     O5   38   0.881   0.593   0.656
    2OCB    C19   39   1.053   0.481   0.447
    2OCB    C20   40   1.118   0.609   0.392
    2OCB     O6   41   1.091   0.701   0.621
    2OCB    C21   42   1.131   0.714   0.484
    2OCB    C22   43   0.954   1.039  -0.075
    2OCB    C23   44   1.067   0.986  -0.009
    2OCB    C24   45   1.181   0.835   0.437
    2OCB    C25   46   1.209   0.857   0.304
    2OCB     O7   47   1.154   1.070   0.059
    2OCB     O8   48   1.240   0.985   0.276
    2OCB    C26   49   1.140   1.075   0.208
    2OCB    C27   50   1.142   0.633   0.257
    2OCB    C28   51   1.188   0.756   0.206
    2OCB    C29   52   0.999   0.761  -0.062
    2OCB    C30   53   1.214   0.778   0.059
    2OCB    C31   54   1.096   0.846  -0.011
    2OCB    C32   55   0.949   0.722   0.642
    2OCB    C33   56   0.851   0.595  -0.265
    2OCB    C34   57   0.762   0.525  -0.370
    2OCB    C35   58   0.825   0.395  -0.415
    2OCB     O9   59   0.777   0.289  -0.383
    2OCB    C36   60   0.684   0.281   0.119
    2OCB    C37   61   0.702   0.170   0.228
    2OCB    C38   62   0.576   0.110   0.284
    2OCB    O10   63   0.560   0.092   0.403
    2OCB    C39   64   1.111   0.352   0.376
    2OCB    C40   65   1.069   0.215   0.432
    2OCB    C41   66   1.170   0.107   0.394
    2OCB    O11   67   1.132   0.013   0.321
    2OCB    C42   68   1.271   0.658  -0.015
    2OCB    C43   69   1.305   0.683  -0.166
    2OCB    C44   70   1.381   0.558  -0.203
    2OCB    O12   71   1.314   0.462  -0.244
    2OCB    C45   72   0.340   0.733   0.412
    2OCB    C46   73   0.188   0.919   0.549
    2OCB    C47   74   0.280   0.840   0.343
    2OCB    C48   75   0.331   0.728   0.552
    2OCB    C49   76   0.251   0.823   0.621
    2OCB    C50   77   0.200   0.929   0.411
    2OCB    C51   78   0.928   0.812   0.767
    2OCB    C52   79   0.870   0.988   0.986
    2OCB    C53   80   1.026   0.899   0.817
    2OCB    C54   81   0.800   0.819   0.827
    2OCB    C55   82   0.777   0.894   0.939
    2OCB    C56   83   0.992   0.999   0.917
    2OCB    C57   84   1.144   1.223   0.253
    2OCB    C58   85   1.102   1.481   0.341
    2OCB    C59   86   1.106   1.321   0.162
    2OCB    C60   87   1.153   1.252   0.387
    2OCB    C61   88   1.141   1.381   0.432
    2OCB    C62   89   1.080   1.447   0.209
    2OCB    C63   90   0.545   1.114  -0.094
    2OCB    C64   91   0.398   1.355  -0.101
    2OCB    C65   92   0.605   1.240  -0.091
    2OCB    C66   93   0.406   1.109  -0.095
    2OCB    C67   94   0.336   1.229  -0.103
    2OCB    C68   95   0.534   1.362  -0.105
    2OCB    O13   96   0.655   0.887   1.011
    2OCB    O14   97   1.141   1.412   0.567
    2OCB    O15   98   1.029   1.544   0.121
    2OCB    O16   99   0.243   0.824   0.757
    2OCB    O17  100   0.141   1.031   0.346
    2OCB    O18  101   0.600   1.484  -0.095
    2OCB    O19  102   0.200   1.222  -0.096
    2OCB    C69  103   1.187   1.322   0.661
    2OCB    C70  104   1.286   1.138   0.850
    2OCB    C71  105   1.095   1.256   0.748
    2OCB    C72  106   1.321   1.281   0.661
    2OCB    C73  107   1.374   1.190   0.761
    2OCB    C74  108   1.150   1.170   0.843
    2OCB    O20  109   1.080   1.103   0.941
    2OCB    C75  110   0.346   0.782   0.844
    2OCB    C76  111   0.550   0.674   1.008
    2OCB    C77  112   0.343   0.648   0.887
    2OCB    C78  113   0.454   0.866   0.884
    2OCB    C79  114   0.550   0.808   0.965
    2OCB    C80  115   0.442   0.596   0.969
    2OCB    C81  116   0.956   1.514   0.011
    2OCB    C82  117   0.806   1.492  -0.226
    2OCB    C83  118   1.023   1.508  -0.114
    2OCB    C84  119   0.814   1.501   0.016
    2OCB    C85  120   0.736   1.494  -0.101
    2OCB    C86  121   0.945   1.500  -0.233
    2OCB    C87  122   1.015   1.510  -0.367
    2OCB    O21  123   0.953   1.516  -0.472
    2OCB    C88  124  -0.085   0.826  -0.045
    2OCB    O22  125  -0.131   0.740   0.032
    2OCB    C89  126   0.440   0.457   1.016
    2OCB    O23  127   0.509   0.421   1.110
    2OCB    O24  128   0.932   0.390  -0.469
    2OCB    O25  129   1.504   0.558  -0.188
    2OCB    O26  130   1.274   0.111   0.455
    2OCB    C90  131   1.521   1.155   0.755
    2OCB    O27  132   1.566   1.085   0.843
    2OCB    O28  133  -0.127   0.837  -0.156
    2OCB    O29  134   1.138   1.518  -0.372
    2OCB    O30  135   1.583   1.188   0.661
    2OCB    O31  136   0.378   0.373   0.963
    2OCB    O32  137   0.491   0.077   0.198
    2OCB    C91  138   0.122   1.030   0.206
    2OCB    C92  139   0.044   1.045  -0.057
    2OCB    C93  140   0.167   1.137   0.132
    2OCB    C94  141   0.046   0.924   0.149
    2OCB    C95  142   0.005   0.932   0.016
    2OCB    C96  143   0.139   1.135  -0.003
    2OCB    C97  144   0.257   1.247   0.190
    2OCB    C98  145   0.467   1.007   0.840
    2OCB    C99  146   0.946   1.297   0.747
    2OCB      C  147   0.743   1.507   0.155
    2OCB     H1  148   0.883   0.410   0.234
    2OCB     H2  149   0.622   0.581   0.614
    2OCB     H3  150   0.515   0.366   0.192
    2OCB     H4  151   0.528   0.713   0.323
    2OCB     H5  152   0.778   0.492  -0.025
    2OCB     H6  153   0.400   0.804   0.055
    2OCB     H7  154   0.723   0.771  -0.265
    2OCB     H8  155   0.670   0.969   0.015
    2OCB     H9  156   1.079   0.477   0.553
    2OCB    H10  157   0.928   1.145  -0.081
    2OCB    H11  158   1.199   0.910   0.513
    2OCB    H12  159   1.045   1.046   0.254
    2OCB    H13  160   1.110   0.558   0.186
    2OCB    H14  161   1.019   0.654  -0.063
    2OCB    H15  162   1.299   0.847   0.053
    2OCB    H16  163   0.907   0.778   0.557
    2OCB    H17  164   0.943   0.620  -0.319
    2OCB    H18  165   0.880   0.520  -0.191
    2OCB    H19  166   0.659   0.501  -0.344
    2OCB    H20  167   0.762   0.600  -0.450
    2OCB    H21  168   0.782   0.304   0.079
    2OCB    H22  169   0.625   0.247   0.033
    2OCB    H23  170   0.769   0.111   0.164
    2OCB    H24  171   0.766   0.199   0.311
    2OCB    H25  172   1.088   0.344   0.269
    2OCB    H26  173   1.220   0.351   0.384
    2OCB    H27  174   1.066   0.223   0.540
    2OCB    H28  175   0.972   0.174   0.401
    2OCB    H29  176   1.357   0.635   0.049
    2OCB    H30  177   1.198   0.576  -0.005
    2OCB    H31  178   1.209   0.704  -0.215
    2OCB    H32  179   1.359   0.776  -0.182
    2OCB    H33  180   0.127   0.988   0.607
    2OCB    H34  181   0.287   0.846   0.235
    2OCB    H35  182   0.372   0.650   0.616
    2OCB    H36  183   0.844   1.047   1.073
    2OCB    H37  184   1.118   0.911   0.761
    2OCB    H38  185   0.726   0.749   0.789
    2OCB    H39  186   1.074   1.579   0.377
    2OCB    H40  187   1.097   1.296   0.056
    2OCB    H41  188   1.167   1.166   0.453
    2OCB    H42  189   0.348   1.451  -0.107
    2OCB    H43  190   0.712   1.245  -0.073
    2OCB    H44  191   0.347   1.018  -0.090
    2OCB    H45  192   1.316   1.065   0.925
    2OCB    H46  193   1.388   1.326   0.588
    2OCB    H47  194   0.630   0.634   1.070
    2OCB    H48  195   0.260   0.583   0.859
    2OCB    H49  196   0.747   1.490  -0.318
    2OCB    H50  197   1.131   1.515  -0.117
    2OCB    H51  198   0.018   1.058  -0.162
    2OCB    H52  199   0.015   0.840   0.210
    2OCB    H53  200   0.229   1.257   0.295
    2OCB    H54  201   0.360   1.216   0.174
    2OCB    H55  202   0.251   1.349   0.151
    2OCB    H56  203   0.384   1.047   0.782
    2OCB    H57  204   0.470   1.062   0.935
    2OCB    H58  205   0.556   1.024   0.780
    2OCB    H59  206   0.901   1.297   0.648
    2OCB    H60  207   0.877   1.250   0.818
    2OCB    H61  208   0.952   1.399   0.785
    2OCB    H62  209   0.786   1.424   0.212
    2OCB    H63  210   0.757   1.606   0.198
    2OCB    H64  211   0.637   1.479   0.145
    3Na+    Na+  212   0.505   0.201   1.060
    4Na+    Na+  213   0.302   1.895   1.340
    5Na+    Na+  214   3.423   2.324   0.701
    6Na+    Na+  215   1.772   2.049   3.758
    7Na+    Na+  216   0.202   3.233   0.168
    8Na+    Na+  217   3.777   0.440   3.481
    9Na+    Na+  218   1.007   0.196   3.627
   10Na+    Na+  219   3.403   0.796   0.406
   11Na+    Na+  220   3.339   1.348   1.244
   12HOH      O  221   2.967   0.264   1.843
   12HOH     H1  222   3.008   0.202   1.783
   12HOH     H2  223   3.015   0.254   1.925
   13HOH      O  224   3.234   0.694   3.325
   13HOH     H1  225   3.285   0.613   3.328
   13HOH     H2  226   3.300   0.764   3.328
   14HOH      O  227   1.737   2.140   2.731
   14HOH     H1  228   1.720   2.234   2.737
   14HOH     H2  229   1.832   2.133   2.737
   15HOH      O  230   1.603   3.888   3.595
   15HOH     H1  231   1.683   3.836   3.592
   15HOH     H2  232   1.557   3.858   3.672
   16HOH      O  233   2.659   2.425   0.678
   16HOH     H1  234   2.675   2.433   0.772
   16HOH     H2  235   2.604   2.500   0.656
   17HOH      O  236   3.811   0.805   2.261
   17HOH     H1  237   3.814   0.876   2.325
   17HOH     H2  238   3.839   0.846   2.179
   18HOH      O  239   2.922   1.616   0.647
   18HOH     H1  240   2.990   1.576   0.593
   18HOH     H2  241   2.852   1.550   0.649
   19HOH      O  242   3.583   3.286   0.508
   19HOH     H1  243   3.558   3.262   0.597
   19HOH     H2  244   3.630   3.209   0.476
   20HOH      O  245   1.054   0.862   1.964
   20HOH     H1  246   1.035   0.768   1.968
   20HOH     H2  247   0.980   0.903   2.008
   21HOH      O  248   3.640   0.622   2.653
   21HOH     H1  249   3.650   0.528   2.668
   21HOH     H2  250   3.547   0.634   2.637
   22HOH      O  251   3.330   3.246   3.867
   22HOH     H1  252   3.344   3.215   3.778
   22HOH     H2  253   3.367   3.335   3.867
   23HOH      O  254   0.586   3.132   1.497
   23HOH     H1  255   0.504   3.173   1.525
   23HOH     H2  256   0.610   3.179   1.417
   24HOH      O  257   0.660   3.953   1.500
   24HOH     H1  258   0.727   3.972   1.434
   24HOH     H2  259   0.590   3.910   1.451
   25HOH      O  260   2.973   0.387   3.119
   25HOH     H1  261   2.935   0.475   3.113
   25HOH     H2  262   3.016   0.374   3.035
   26HOH      O  263   3.837   3.037   3.994
   26HOH     H1  264   3.782   3.115   3.986
   26HOH     H2  265   3.785   2.966   3.955
   27HOH      O  266   0.683   0.891   1.312
   27HOH     H1  267   0.739   0.927   1.381
   27HOH     H2  268   0.744   0.850   1.251
   28HOH      O  269   2.409   0.062   0.194
   28HOH     H1  270   2.361   0.145   0.199
   28HOH     H2  271   2.455   0.066   0.110
   29HOH      O  272   1.004   1.449   2.933
   29HOH     H1  273   1.013   1.356   2.910
   29HOH     H2  274   1.066   1.494   2.877
   30HOH      O  275   1.755   3.676   3.662
   30HOH     H1  276   1.691   3.616   3.623
   30HOH     H2  277   1.748   3.661   3.756
   31HOH      O  278   3.049   3.625   1.673
   31HOH     H1  279   2.990   3.584   1.737
   31HOH     H2  280   3.025   3.585   1.590
   32HOH      O  281   3.545   2.896   2.765
   32HOH     H1  282   3.624   2.904   2.819
   32HOH     H2  283   3.480   2.951   2.810
   33HOH      O  284   2.617   2.435   3.992
   33HOH     H1  285   2.635   2.413   4.083
   33HOH     H2  286   2.686   2.497   3.968
   34HOH      O  287   2.486   1.711   0.998
   34HOH     H1  288   2.411   1.687   0.944
   34HOH     H2  289   2.561   1.672   0.953
   35HOH      O  290   3.866   1.380   1.402
   35HOH     H1  291   3.878   1.444   1.473
   35HOH     H2  292   3.772   1.367   1.396
   36HOH      O  293   2.635   0.918   1.848
   36HOH     H1  294   2.688   0.890   1.922
   36HOH     H2  295   2.696   0.922   1.774
   37HOH      O  296   0.942   3.751   0.112
   37HOH     H1  297   0.957   3.839   0.078
   37HOH     H2  298   0.875   3.763   0.180
   38HOH      O  299   1.771   3.232   1.331
   38HOH     H1  300   1.823   3.312   1.332
   38HOH     H2  301   1.680   3.261   1.335
   39HOH      O  302   2.431   0.734   0.505
   39HOH     H1  303   2.371   0.685   0.560
   39HOH     H2  304   2.395   0.823   0.505
   40HOH      O  305   2.980   0.296   0.890
   40HOH     H1  306   3.049   0.259   0.835
   40HOH     H2  307   2.905   0.307   0.831
   41HOH      O  308   1.418   1.380   2.915
   41HOH     H1  309   1.505   1.350   2.942
   41HOH     H2  310   1.435   1.455   2.858
   42HOH      O  311   3.569   1.097   3.614
   42HOH     H1  312   3.635   1.078   3.680
   42HOH     H2  313   3.504   1.027   3.624
   43HOH      O  314   3.155   0.292   3.912
   43HOH     H1  315   3.200   0.376   3.902
   43HOH     H2  316   3.168   0.249   3.827
   44HOH      O  317   1.228   3.738   0.490
   44HOH     H1  318   1.142   3.780   0.483
   44HOH     H2  319   1.232   3.679   0.414
   45HOH      O  320   3.540   2.443   3.950
   45HOH     H1  321   3.538   2.426   3.856
   45HOH     H2  322   3.622   2.404   3.980
   46HOH      O  323   2.114   2.768   3.545
   46HOH     H1  324   2.094   2.689   3.494
   46HOH     H2  325   2.184   2.811   3.496
   47HOH      O  326   2.898   3.335   1.053
   47HOH     H1  327   2.891   3.303   1.143
   47HOH     H2  328   2.857   3.421   1.054
   48HOH      O  329   0.101   2.376   1.277
   48HOH     H1  330   0.084   2.308   1.212
   48HOH     H2  331   0.174   2.426   1.242
   49HOH      O  332   0.411   2.063   2.219
   49HOH     H1  333   0.439   2.015   2.297
   49HOH     H2  334   0.493   2.086   2.174
   50HOH      O  335   2.759   3.205   2.770
   50HOH     H1  336   2.704   3.145   2.820
   50HOH     H2  337   2.836   3.153   2.746
   51HOH      O  338   3.922   1.776   1.873
   51HOH     H1  339   4.000   1.783   1.819
   51HOH     H2  340   3.873   1.703   1.835
   52HOH      O  341   3.117   1.800   0.215
   52HOH     H1  342   3.079   1.858   0.281
   52HOH     H2  343   3.042   1.772   0.162
   53HOH      O  344   1.639   2.386   2.792
   53HOH     H1  345   1.616   2.425   2.707
   53HOH     H2  346   1.560   2.395   2.845
   54HOH      O  347   1.380   2.978   3.347
   54HOH     H1  348   1.379   3.016   3.259
   54HOH     H2  349   1.388   3.053   3.406
   55HOH      O  350   2.253   2.454   1.666
   55HOH     H1  351   2.243   2.524   1.729
   55HOH     H2  352   2.281   2.497   1.585
   56HOH      O  353   3.133   0.968   2.049
   56HOH     H1  354   3.079   1.037   2.087
   56HOH     H2  355   3.133   0.986   1.955
   57HOH      O  356   3.725   0.464   1.431
   57HOH     H1  357   3.777   0.531   1.386
   57HOH     H2  358   3.769   0.454   1.516
   58HOH      O  359   4.006   1.983   3.152
   58HOH     H1  360   3.988   1.972   3.246
   58HOH     H2  361   3.968   1.905   3.112
   59HOH      O  362   1.938   2.378   3.059
   59HOH     H1  363   1.844   2.396   3.060
   59HOH     H2  364   1.977   2.454   3.103
   60HOH      O  365   1.184   3.051   2.088
   60HOH     H1  366   1.135   2.969   2.085
   60HOH     H2  367   1.266   3.031   2.043
   61HOH      O  368   3.377   1.545   1.110
   61HOH     H1  369   3.439   1.510   1.046
   61HOH     H2  370   3.402   1.637   1.119
   62HOH      O  371   3.365   1.760   3.204
   62HOH     H1  372   3.394   1.793   3.289
   62HOH     H2  373   3.282   1.805   3.188
   63HOH      O  374   3.194   2.403   0.154
   63HOH     H1  375   3.111   2.360   0.171
   63HOH     H2  376   3.197   2.477   0.215
   64HOH      O  377   2.421   1.080   1.795
   64HOH     H1  378   2.356   1.011   1.782
   64HOH     H2  379   2.501   1.033   1.820
   65HOH      O  380   0.627   3.711   2.522
   65HOH     H1  381   0.608   3.743   2.434
   65HOH     H2  382   0.572   3.633   2.532
   66HOH      O  383   0.654   2.917   2.653
   66HOH     H1  384   0.702   2.985   2.700
   66HOH     H2  385   0.709   2.839   2.660
   67HOH      O  386   2.059   0.373   0.922
   67HOH     H1  387   2.023   0.462   0.916
   67HOH     H2  388   1.982   0.318   0.937
   68HOH      O  389   1.057   2.565   1.749
   68HOH     H1  390   1.003   2.637   1.715
   68HOH     H2  391   1.125   2.609   1.801
   69HOH      O  392   0.710   0.468   3.256
   69HOH     H1  393   0.659   0.395   3.292
   69HOH     H2  394   0.783   0.478   3.317
   70HOH      O  395   1.860   3.536   3.256
   70HOH     H1  396   1.835   3.622   3.222
   70HOH     H2  397   1.928   3.554   3.321
   71HOH      O  398   2.290   3.728   3.805
   71HOH     H1  399   2.278   3.677   3.725
   71HOH     H2  400   2.384   3.748   3.806
   72HOH      O  401   1.191   3.806   1.313
   72HOH     H1  402   1.151   3.855   1.240
   72HOH     H2  403   1.116   3.777   1.365
   73HOH      O  404   2.568   0.020   2.064
   73HOH     H1  405   2.556  -0.019   1.978
   73HOH     H2  406   2.607   0.106   2.047
   74HOH      O  407   0.139   1.361   0.674
   74HOH     H1  408   0.094   1.328   0.597
   74HOH     H2  409   0.088   1.438   0.700
   75HOH      O  410   3.849   3.747   2.649
   75HOH     H1  411   3.788   3.675   2.664
   75HOH     H2  412   3.874   3.738   2.557
   76HOH      O  413   2.753   2.821   0.882
   76HOH     H1  414   2.692   2.816   0.808
   76HOH     H2  415   2.725   2.898   0.931
   77HOH      O  416   3.808   2.085   0.403
   77HOH     H1  417   3.837   2.076   0.493
   77HOH     H2  418   3.748   2.011   0.389
   78HOH      O  419   4.021   3.824   3.974
   78HOH     H1  420   3.939   3.800   3.930
   78HOH     H2  421   4.089   3.808   3.908
   79HOH      O  422   3.728   0.169   0.700
   79HOH     H1  423   3.760   0.197   0.786
   79HOH     H2  424   3.761   0.080   0.690
   80HOH      O  425   1.845   0.801   0.209
   80HOH     H1  426   1.757   0.768   0.192
   80HOH     H2  427   1.833   0.870   0.274
   81HOH      O  428   0.295   0.058   0.460
   81HOH     H1  429   0.380   0.069   0.418
   81HOH     H2  430   0.315   0.028   0.548
   82HOH      O  431   3.947   3.032   0.463
   82HOH     H1  432   3.921   3.000   0.550
   82HOH     H2  433   3.879   3.096   0.441
   83HOH      O  434   0.650   3.528   2.845
   83HOH     H1  435   0.610   3.565   2.766
   83HOH     H2  436   0.740   3.560   2.844
   84HOH      O  437   2.495   2.179   1.786
   84HOH     H1  438   2.558   2.214   1.724
   84HOH     H2  439   2.436   2.125   1.734
   85HOH      O  440   1.685   3.598   1.822
   85HOH     H1  441   1.643   3.517   1.793
   85HOH     H2  442   1.770   3.598   1.778
   86HOH      O  443   0.527   1.521   0.910
   86HOH     H1  444   0.584   1.455   0.949
   86HOH     H2  445   0.444   1.512   0.958
   87HOH      O  446   3.639   2.466   2.227
   87HOH     H1  447   3.606   2.423   2.149
   87HOH     H2  448   3.701   2.531   2.194
   88HOH      O  449   2.236   2.788   0.692
   88HOH     H1  450   2.279   2.791   0.777
   88HOH     H2  451   2.150   2.751   0.709
   89HOH      O  452   3.742   2.306   1.041
   89HOH     H1  453   3.816   2.253   1.014
   89HOH     H2  454   3.766   2.339   1.127
   90HOH      O  455   0.064   3.459   0.886
   90HOH     H1  456   0.034   3.393   0.823
   90HOH     H2  457  -0.010   3.519   0.896
   91HOH      O  458   0.406   1.038   1.515
   91HOH     H1  459   0.410   0.964   1.455
   91HOH     H2  460   0.313   1.056   1.525
   92HOH      O  461   3.582   3.720   1.377
   92HOH     H1  462   3.547   3.746   1.462
   92HOH     H2  463   3.516   3.660   1.342
   93HOH      O  464   2.647   3.505   1.437
   93HOH     H1  465   2.590   3.565   1.388
   93HOH     H2  466   2.594   3.426   1.449
   94HOH      O  467   2.019   1.223   3.037
   94HOH     H1  468   2.107   1.186   3.045
   94HOH     H2  469   1.980   1.210   3.124
   95HOH      O  470   3.832   1.079   3.407
   95HOH     H1  471   3.746   1.087   3.449
   95HOH     H2  472   3.881   1.156   3.435
   96HOH      O  473   3.572   2.771   2.149
   96HOH     H1  474   3.501   2.791   2.089
   96HOH     H2  475   3.627   2.849   2.149
   97HOH      O  476   0.031   3.497   1.258
   97HOH     H1  477   0.032   3.463   1.347
   97HOH     H2  478  -0.049   3.550   1.253
   98HOH      O  479   1.211   2.757   0.676
   98HOH     H1  480   1.132   2.794   0.635
   98HOH     H2  481   1.226   2.676   0.628
   99HOH      O  482   2.059   2.127   3.093
   99HOH     H1  483   2.021   2.058   3.037
   99HOH     H2  484   1.998   2.200   3.087
  100HOH      O  485   4.033   2.257   3.603
  100HOH     H1  486   3.957   2.284   3.552
  100HOH     H2  487   3.997   2.217   3.682
  101HOH      O  488   0.474   1.748   0.074
  101HOH     H1  489   0.427   1.716  -0.003
  101HOH     H2  490   0.563   1.715   0.062
  102HOH      O  491   3.613   3.928   2.997
  102HOH     H1  492   3.616   3.848   2.944
  102HOH     H2  493   3.685   3.982   2.963
  103HOH      O  494   3.305   0.151   3.683
  103HOH     H1  495   3.273   0.067   3.651
  103HOH     H2  496   3.266   0.216   3.625
  104HOH      O  497   0.528   3.952   2.654
  104HOH     H1  498   0.511   3.938   2.747
  104HOH     H2  499   0.616   3.917   2.640
  105HOH      O  500   2.626   0.625   3.413
  105HOH     H1  501   2.548   0.660   3.456
  105HOH     H2  502   2.687   0.607   3.485
  106HOH      O  503   1.361   3.522   3.997
  106HOH     H1  504   1.273   3.509   4.033
  106HOH     H2  505   1.367   3.617   3.984
  107HOH      O  506   1.572   1.008   2.393
  107HOH     H1  507   1.604   1.057   2.469
  107HOH     H2  508   1.645   0.950   2.370
  108HOH      O  509   2.430   0.989   1.241
  108HOH     H1  510   2.470   0.988   1.154
  108HOH     H2  511   2.338   1.013   1.225
  109HOH      O  512   2.857   1.876   0.553
  109HOH     H1  513   2.884   1.786   0.569
  109HOH     H2  514   2.828   1.908   0.639
  110HOH      O  515   2.864   2.988   4.010
  110HOH     H1  516   2.944   3.035   3.988
  110HOH     H2  517   2.796   3.055   4.009
  111HOH      O  518   2.954   4.002   2.037
  111HOH     H1  519   2.865   3.988   2.005
  111HOH     H2  520   3.007   3.937   1.991
  112HOH      O  521   0.929   0.434   1.497
  112HOH     H1  522   0.900   0.453   1.408
  112HOH     H2  523   0.874   0.360   1.524
  113HOH      O  524   0.494   1.694   2.911
  113HOH     H1  525   0.561   1.640   2.953
  113HOH     H2  526   0.452   1.740   2.984
  114HOH      O  527   2.726   1.527   1.565
  114HOH     H1  528   2.708   1.553   1.656
  114HOH     H2  529   2.663   1.457   1.548
  115HOH      O  530   3.811   1.827   2.124
  115HOH     H1  531   3.851   1.818   2.038
  115HOH     H2  532   3.797   1.922   2.134
  116HOH      O  533   0.914   3.699   2.514
  116HOH     H1  534   0.822   3.723   2.522
  116HOH     H2  535   0.919   3.611   2.551
  117HOH      O  536   1.127   2.367   2.620
  117HOH     H1  537   1.117   2.458   2.647
  117HOH     H2  538   1.070   2.359   2.543
  118HOH      O  539   3.030   0.351   2.851
  118HOH     H1  540   2.965   0.416   2.823
  118HOH     H2  541   2.980   0.271   2.866
  119HOH      O  542   0.793   3.905   2.804
  119HOH     H1  543   0.830   3.829   2.849
  119HOH     H2  544   0.859   3.928   2.739
  120HOH      O  545   3.180   2.290   1.400
  120HOH     H1  546   3.133   2.299   1.483
  120HOH     H2  547   3.113   2.303   1.333
  121HOH      O  548   1.594   2.588   2.028
  121HOH     H1  549   1.682   2.623   2.017
  121HOH     H2  550   1.565   2.567   1.938
  122HOH      O  551   3.184   2.138   3.600
  122HOH     H1  552   3.218   2.059   3.643
  122HOH     H2  553   3.199   2.123   3.507
  123HOH      O  554   3.605   3.495   3.616
  123HOH     H1  555   3.570   3.470   3.530
  123HOH     H2  556   3.530   3.492   3.675
  124HOH      O  557   1.872   1.047   2.121
  124HOH     H1  558   1.783   1.033   2.089
  124HOH     H2  559   1.888   1.141   2.106
  125HOH      O  560   2.155   3.350   0.549
  125HOH     H1  561   2.094   3.285   0.585
  125HOH     H2  562   2.242   3.317   0.572
  126HOH      O  563   3.072   0.059   1.674
  126HOH     H1  564   2.986   0.025   1.651
  126HOH     H2  565   3.105   0.099   1.594
  127HOH      O  566   0.172   3.952   2.827
  127HOH     H1  567   0.105   3.894   2.861
  127HOH     H2  568   0.246   3.941   2.886
  128HOH      O  569   2.208   1.324   1.272
  128HOH     H1  570   2.209   1.256   1.204
  128HOH     H2  571   2.158   1.396   1.233
  129HOH      O  572   1.832   3.685   2.768
  129HOH     H1  573   1.743   3.681   2.802
  129HOH     H2  574   1.873   3.757   2.815
  130HOH      O  575   2.589   0.285   3.562
  130HOH     H1  576   2.516   0.331   3.603
  130HOH     H2  577   2.550   0.240   3.487
  131HOH      O  578   3.386   0.522   3.565
  131HOH     H1  579   3.300   0.481   3.558
  131HOH     H2  580   3.448   0.455   3.537
  132HOH      O  581   2.813   3.538   1.804
  132HOH     H1  582   2.766   3.614   1.769
  132HOH     H2  583   2.778   3.464   1.755
  133HOH      O  584   3.066   3.020   2.933
  133HOH     H1  585   3.049   3.111   2.957
  133HOH     H2  586   2.979   2.982   2.918
  134HOH      O  587   3.517   0.663   2.238
  134HOH     H1  588   3.437   0.715   2.229
  134HOH     H2  589   3.585   0.718   2.200
  135HOH      O  590   2.836   1.468   3.142
  135HOH     H1  591   2.870   1.419   3.067
  135HOH     H2  592   2.846   1.560   3.117
  136HOH      O  593   2.502   2.203   0.378
  136HOH     H1  594   2.589   2.219   0.342
  136HOH     H2  595   2.508   2.231   0.469
  137HOH      O  596   1.492   3.336   2.995
  137HOH     H1  597   1.439   3.415   2.983
  137HOH     H2  598   1.543   3.328   2.915
  138HOH      O  599   0.687   3.268   2.984
  138HOH     H1  600   0.648   3.355   2.980
  138HOH     H2  601   0.695   3.249   3.077
  139HOH      O  602   0.487   2.151   3.303
  139HOH     H1  603   0.410   2.094   3.305
  139HOH     H2  604   0.454   2.237   3.332
  140HOH      O  605   3.402   3.097   3.621
  140HOH     H1  606   3.375   3.140   3.541
  140HOH     H2  607   3.483   3.050   3.598
  141HOH      O  608   2.727   0.085   3.874
  141HOH     H1  609   2.750   0.125   3.790
  141HOH     H2  610   2.809   0.085   3.923
  142HOH      O  611   3.088   1.776   3.123
  142HOH     H1  612   3.093   1.829   3.044
  142HOH     H2  613   2.995   1.772   3.144
  143HOH      O  614   3.989   0.039   1.075
  143HOH     H1  615   4.045   0.056   1.150
  143HOH     H2  616   3.911   0.093   1.090
  144HOH      O  617   1.206   3.065   3.102
  144HOH     H1  618   1.246   3.047   3.017
  144HOH     H2  619   1.152   3.142   3.087
  145HOH      O  620   3.907   1.422   3.199
  145HOH     H1  621   3.993   1.427   3.241
  145HOH     H2  622   3.848   1.392   3.268
  146HOH      O  623   3.977   3.276   0.707
  146HOH     H1  624   4.034   3.202   0.728
  146HOH     H2  625   3.911   3.275   0.776
  147HOH      O  626   0.051   2.562   3.571
  147HOH     H1  627   0.055   2.648   3.530
  147HOH     H2  628  -0.018   2.570   3.637
  148HOH      O  629   0.480   3.448   2.347
  148HOH     H1  630   0.565   3.410   2.327
  148HOH     H2  631   0.432   3.445   2.264
  149HOH      O  632   0.767   0.905   1.626
  149HOH     H1  633   0.751   0.921   1.719
  149HOH     H2  634   0.750   0.812   1.614
  150HOH      O  635   4.024   1.098   2.722
  150HOH     H1  636   4.070   1.061   2.646
  150HOH     H2  637   3.958   1.033   2.745
  151HOH      O  638   3.257   3.084   0.971
  151HOH     H1  639   3.184   3.100   0.912
  151HOH     H2  640   3.268   2.989   0.970
  152HOH      O  641   3.423   2.122   0.807
  152HOH     H1  642   3.499   2.065   0.809
  152HOH     H2  643   3.352   2.068   0.775
  153HOH      O  644   3.664   0.378   3.723
  153HOH     H1  645   3.640   0.435   3.796
  153HOH     H2  646   3.626   0.293   3.746
  154HOH      O  647   3.691   1.742   2.580
  154HOH     H1  648   3.654   1.815   2.529
  154HOH     H2  649   3.773   1.722   2.536
  155HOH      O  650   0.647   0.112   1.219
  155HOH     H1  651   0.617   0.135   1.307
  155HOH     H2  652   0.734   0.074   1.233
  156HOH      O  653   1.907   3.639   2.426
  156HOH     H1  654   1.889   3.652   2.519
  156HOH     H2  655   1.832   3.676   2.381
  157HOH      O  656   3.943   0.655   1.883
  157HOH     H1  657   3.852   0.643   1.912
  157HOH     H2  658   3.987   0.573   1.906
  158HOH      O  659   3.402   2.475   3.491
  158HOH     H1  660   3.312   2.462   3.462
  158HOH     H2  661   3.415   2.408   3.559
  159HOH      O  662   2.486   0.214   0.984
  159HOH     H1  663   2.469   0.306   0.963
  159HOH     H2  664   2.400   0.179   1.010
  160HOH      O  665   2.863   2.421   1.204
  160HOH     H1  666   2.825   2.352   1.259
  160HOH     H2  667   2.928   2.375   1.151
  161HOH      O  668   1.689   3.431   1.093
  161HOH     H1  669   1.748   3.496   1.131
  161HOH     H2  670   1.658   3.472   1.012
  162HOH      O  671   2.402   1.781   0.326
  162HOH     H1  672   2.400   1.862   0.276
  162HOH     H2  673   2.494   1.767   0.346
  163HOH      O  674   2.424   1.953   3.831
  163HOH     H1  675   2.399   1.897   3.757
  163HOH     H2  676   2.487   2.015   3.795
  164HOH      O  677   1.549   0.111   3.444
  164HOH     H1  678   1.574   0.024   3.475
  164HOH     H2  679   1.539   0.163   3.524
  165HOH      O  680   0.154   3.160   1.834
  165HOH     H1  681   0.246   3.164   1.863
  165HOH     H2  682   0.106   3.205   1.903
  166HOH      O  683   0.077   3.150   3.754
  166HOH     H1  684   0.127   3.221   3.794
  166HOH     H2  685   0.139   3.107   3.696
  167HOH      O  686   0.963   1.601   1.045
  167HOH     H1  687   0.877   1.622   1.007
  167HOH     H2  688   0.960   1.506   1.058
  168HOH      O  689   0.647   3.167   2.158
  168HOH     H1  690   0.700   3.165   2.237
  168HOH     H2  691   0.699   3.122   2.092
  169HOH      O  692   0.956   0.712   3.355
  169HOH     H1  693   1.022   0.758   3.302
  169HOH     H2  694   0.917   0.781   3.409
  170HOH      O  695   2.249   0.618   0.657
  170HOH     H1  696   2.201   0.541   0.626
  170HOH     H2  697   2.181   0.683   0.674
  171HOH      O  698   0.210   1.802   2.240
  171HOH     H1  699   0.255   1.812   2.156
  171HOH     H2  700   0.263   1.852   2.302
  172HOH      O  701   0.172   0.360   1.446
  172HOH     H1  702   0.267   0.371   1.449
  172HOH     H2  703   0.139   0.435   1.496
  173HOH      O  704   0.330   0.073   0.010
  173HOH     H1  705   0.276   0.150   0.027
  173HOH     H2  706   0.401   0.079   0.073
  174HOH      O  707   0.862   2.409   1.870
  174HOH     H1  708   0.925   2.461   1.819
  174HOH     H2  709   0.916   2.359   1.932
  175HOH      O  710   1.341   3.123   2.314
  175HOH     H1  711   1.270   3.065   2.285
  175HOH     H2  712   1.355   3.100   2.406
  176HOH      O  713   0.162   2.464   2.864
  176HOH     H1  714   0.171   2.379   2.908
  176HOH     H2  715   0.244   2.475   2.816
  177HOH      O  716   3.916   1.319   3.512
  177HOH     H1  717   3.843   1.379   3.522
  177HOH     H2  718   3.994   1.372   3.526
  178HOH      O  719   3.865   3.078   3.665
  178HOH     H1  720   3.804   3.147   3.694
  178HOH     H2  721   3.952   3.112   3.688
  179HOH      O  722   0.151   3.566   1.933
  179HOH     H1  723   0.128   3.653   1.901
  179HOH     H2  724   0.115   3.506   1.868
  180HOH      O  725   1.243   2.261   1.440
  180HOH     H1  726   1.288   2.249   1.357
  180HOH     H2  727   1.303   2.226   1.506
  181HOH      O  728   0.732   0.271   2.887
  181HOH     H1  729   0.784   0.263   2.807
  181HOH     H2  730   0.681   0.351   2.875
  182HOH      O  731   2.930   2.256   1.987
  182HOH     H1  732   3.008   2.313   1.986
  182HOH     H2  733   2.952   2.185   1.927
  183HOH      O  734   2.208   0.273   3.950
  183HOH     H1  735   2.130   0.219   3.937
  183HOH     H2  736   2.281   0.211   3.945
  184HOH      O  737   1.019   3.322   2.719
  184HOH     H1  738   0.940   3.274   2.696
  184HOH     H2  739   1.051   3.279   2.798
  185HOH      O  740   2.491   0.467   1.926
  185HOH     H1  741   2.431   0.540   1.940
  185HOH     H2  742   2.509   0.434   2.014
  186HOH      O  743   3.516   0.121   2.447
  186HOH     H1  744   3.570   0.132   2.369
  186HOH     H2  745   3.574   0.078   2.510
  187HOH      O  746   1.065   1.635   3.110
  187HOH     H1  747   1.050   1.555   3.060
  187HOH     H2  748   0.979   1.661   3.141
  188HOH      O  749   3.255   2.135   2.135
  188HOH     H1  750   3.286   2.225   2.146
  188HOH     H2  751   3.169   2.134   2.176
  189HOH      O  752   2.616   3.071   3.770
  189HOH     H1  753   2.545   3.057   3.833
  189HOH     H2  754   2.694   3.083   3.823
  190HOH      O  755   2.699   1.215   3.461
  190HOH     H1  756   2.683   1.239   3.552
  190HOH     H2  757   2.786   1.174   3.463
  191HOH      O  758   0.196   0.291   0.124
  191HOH     H1  759   0.115   0.244   0.143
  191HOH     H2  760   0.229   0.319   0.210
  192HOH      O  761   0.857   3.391   1.619
  192HOH     H1  762   0.910   3.421   1.693
  192HOH     H2  763   0.920   3.347   1.562
  193HOH      O  764   0.278   2.244   3.509
  193HOH     H1  765   0.253   2.320   3.457
  193HOH     H2  766   0.199   2.222   3.558
  194HOH      O  767   3.378   2.634   2.275
  194HOH     H1  768   3.456   2.673   2.234
  194HOH     H2  769   3.399   2.633   2.368
  195HOH      O  770   3.724   1.804   2.834
  195HOH     H1  771   3.711   1.769   2.746
  195HOH     H2  772   3.786   1.743   2.875
  196HOH      O  773   2.770   1.657   0.929
  196HOH     H1  774   2.794   1.747   0.908
  196HOH     H2  775   2.816   1.638   1.010
  197HOH      O  776   3.265   2.956   1.823
  197HOH     H1  777   3.330   2.985   1.887
  197HOH     H2  778   3.314   2.947   1.742
  198HOH      O  779   1.726   1.144   2.590
  198HOH     H1  780   1.795   1.144   2.657
  198HOH     H2  781   1.737   1.227   2.544
  199HOH      O  782   2.707   1.236   1.113
  199HOH     H1  783   2.715   1.164   1.050
  199HOH     H2  784   2.620   1.273   1.096
  200HOH      O  785   1.521   2.819   0.123
  200HOH     H1  786   1.592   2.768   0.162
  200HOH     H2  787   1.540   2.818   0.029
  201HOH      O  788   3.237   2.920   2.540
  201HOH     H1  789   3.152   2.883   2.563
  201HOH     H2  790   3.296   2.845   2.533
  202HOH      O  791   1.094   3.130   0.676
  202HOH     H1  792   1.161   3.189   0.643
  202HOH     H2  793   1.048   3.100   0.597
  203HOH      O  794   2.558   2.707   3.309
  203HOH     H1  795   2.610   2.778   3.270
  203HOH     H2  796   2.567   2.635   3.247
  204HOH      O  797   0.256   0.216   2.975
  204HOH     H1  798   0.289   0.163   2.902
  204HOH     H2  799   0.256   0.155   3.049
  205HOH      O  800   1.323   0.345   1.372
  205HOH     H1  801   1.363   0.422   1.330
  205HOH     H2  802   1.247   0.325   1.316
  206HOH      O  803   2.024   0.582   1.412
  206HOH     H1  804   1.999   0.674   1.408
  206HOH     H2  805   2.106   0.576   1.363
  207HOH      O  806   2.921   1.257   2.636
  207HOH     H1  807   3.006   1.219   2.656
  207HOH     H2  808   2.871   1.186   2.596
  208HOH      O  809   3.268   1.839   2.391
  208HOH     H1  810   3.184   1.840   2.437
  208HOH     H2  811   3.322   1.902   2.440
  209HOH      O  812   1.069   2.338   0.162
  209HOH     H1  813   1.061   2.407   0.227
  209HOH     H2  814   0.980   2.323   0.131
  210HOH      O  815   3.561   1.931   0.393
  210HOH     H1  816   3.547   1.948   0.300
  210HOH     H2  817   3.474   1.912   0.427
  211HOH      O  818   3.398   3.970   0.948
  211HOH     H1  819   3.360   3.949   1.033
  211HOH     H2  820   3.366   4.059   0.929
  212HOH      O  821   0.849   0.656   1.281
  212HOH     H1  822   0.939   0.687   1.273
  212HOH     H2  823   0.845   0.580   1.223
  213HOH      O  824   2.280   1.529   3.574
  213HOH     H1  825   2.215   1.479   3.524
  213HOH     H2  826   2.320   1.464   3.633
  214HOH      O  827   1.495   3.308   0.403
  214HOH     H1  828   1.563   3.250   0.368
  214HOH     H2  829   1.428   3.248   0.435
  215HOH      O  830   3.887   2.315   1.873
  215HOH     H1  831   3.836   2.297   1.794
  215HOH     H2  832   3.875   2.409   1.888
  216HOH      O  833   1.478   3.382   2.681
  216HOH     H1  834   1.429   3.454   2.719
  216HOH     H2  835   1.563   3.419   2.658
  217HOH      O  836   1.381   0.239   3.282
  217HOH     H1  837   1.420   0.197   3.359
  217HOH     H2  838   1.329   0.310   3.318
  218HOH      O  839   1.155   0.181   2.977
  218HOH     H1  840   1.227   0.232   3.012
  218HOH     H2  841   1.082   0.197   3.038
  219HOH      O  842   3.708   1.314   0.742
  219HOH     H1  843   3.637   1.338   0.683
  219HOH     H2  844   3.743   1.232   0.707
  220HOH      O  845   3.529   0.041   1.616
  220HOH     H1  846   3.621   0.067   1.625
  220HOH     H2  847   3.484   0.087   1.687
  221HOH      O  848   0.560   0.103   0.842
  221HOH     H1  849   0.629   0.044   0.870
  221HOH     H2  850   0.577   0.117   0.748
  222HOH      O  851   3.878   2.980   2.602
  222HOH     H1  852   3.800   2.996   2.550
  222HOH     H2  853   3.929   3.061   2.595
  223HOH      O  854   1.280   1.804   2.606
  223HOH     H1  855   1.259   1.890   2.569
  223HOH     H2  856   1.247   1.807   2.696
  224HOH      O  857   0.439   0.673   2.039
  224HOH     H1  858   0.428   0.622   2.120
  224HOH     H2  859   0.459   0.761   2.070
  225HOH      O  860   0.246   3.658   0.014
  225HOH     H1  861   0.161   3.684   0.051
  225HOH     H2  862   0.310   3.693   0.076
  226HOH      O  863   1.870   3.841   1.366
  226HOH     H1  864   1.810   3.770   1.342
  226HOH     H2  865   1.858   3.905   1.296
  227HOH      O  866   3.559   1.492   0.504
  227HOH     H1  867   3.465   1.483   0.519
  227HOH     H2  868   3.577   1.433   0.431
  228HOH      O  869   3.635   2.573   2.778
  228HOH     H1  870   3.634   2.480   2.753
  228HOH     H2  871   3.715   2.608   2.737
  229HOH      O  872   1.308   3.670   2.455
  229HOH     H1  873   1.397   3.636   2.465
  229HOH     H2  874   1.253   3.591   2.455
  230HOH      O  875   0.425   0.015   2.176
  230HOH     H1  876   0.485   0.037   2.248
  230HOH     H2  877   0.479   0.021   2.098
  231HOH      O  878   3.404   0.386   0.560
  231HOH     H1  879   3.450   0.303   0.572
  231HOH     H2  880   3.462   0.451   0.598
  232HOH      O  881   0.638   3.294   3.965
  232HOH     H1  882   0.693   3.358   4.011
  232HOH     H2  883   0.697   3.222   3.944
  233HOH      O  884   3.049   4.018   0.476
  233HOH     H1  885   3.137   3.987   0.452
  233HOH     H2  886   2.989   3.954   0.438
  234HOH      O  887   0.610   0.102   3.724
  234HOH     H1  888   0.672   0.162   3.683
  234HOH     H2  889   0.529   0.153   3.731
  235HOH      O  890   3.610   1.370   3.054
  235HOH     H1  891   3.606   1.450   3.001
  235HOH     H2  892   3.557   1.307   3.005
  236HOH      O  893   2.861   0.601   2.625
  236HOH     H1  894   2.784   0.650   2.654
  236HOH     H2  895   2.932   0.633   2.681
  237HOH      O  896   1.994   1.164   4.027
  237HOH     H1  897   1.990   1.113   3.946
  237HOH     H2  898   1.924   1.229   4.018
  238HOH      O  899   2.762   3.559   1.054
  238HOH     H1  900   2.705   3.584   0.981
  238HOH     H2  901   2.812   3.638   1.073
  239HOH      O  902   1.131   0.506   1.181
  239HOH     H1  903   1.202   0.519   1.119
  239HOH     H2  904   1.136   0.581   1.240
  240HOH      O  905   1.532   3.391   1.697
  240HOH     H1  906   1.481   3.442   1.634
  240HOH     H2  907   1.580   3.328   1.642
  241HOH      O  908   2.134   2.089   0.074
  241HOH     H1  909   2.226   2.061   0.078
  241HOH     H2  910   2.129   2.141  -0.006
  242HOH      O  911   3.436  -0.005   3.994
  242HOH     H1  912   3.345   0.015   3.973
  242HOH     H2  913   3.486   0.053   3.937
  243HOH      O  914   0.503   2.302   0.642
  243HOH     H1  915   0.597   2.312   0.651
  243HOH     H2  916   0.468   2.329   0.728
  244HOH      O  917   0.443   1.449   2.349
  244HOH     H1  918   0.371   1.480   2.404
  244HOH     H2  919   0.474   1.370   2.392
  245HOH      O  920   3.074   3.411   2.719
  245HOH     H1  921   3.149   3.468   2.696
  245HOH     H2  922   3.078   3.341   2.654
  246HOH      O  923   0.515   3.481   3.469
  246HOH     H1  924   0.551   3.399   3.504
  246HOH     H2  925   0.581   3.547   3.490
  247HOH      O  926   3.097   3.171   2.597
  247HOH     H1  927   3.084   3.078   2.612
  247HOH     H2  928   3.101   3.180   2.502
  248HOH      O  929   3.783   0.137   1.624
  248HOH     H1  930   3.872   0.108   1.606
  248HOH     H2  931   3.794   0.223   1.663
  249HOH      O  932   3.566   3.306   1.606
  249HOH     H1  933   3.617   3.231   1.638
  249HOH     H2  934   3.482   3.298   1.651
  250HOH      O  935   2.043   1.037   0.942
  250HOH     H1  936   1.958   0.994   0.953
  250HOH     H2  937   2.102   0.967   0.915
  251HOH      O  938   2.806   0.467   2.038
  251HOH     H1  939   2.732   0.528   2.041
  251HOH     H2  940   2.766   0.382   2.018
  252HOH      O  941   3.324   0.865   0.820
  252HOH     H1  942   3.345   0.939   0.877
  252HOH     H2  943   3.238   0.836   0.851
  253HOH      O  944   1.125   3.853   2.394
  253HOH     H1  945   1.206   3.812   2.426
  253HOH     H2  946   1.056   3.792   2.420
  254HOH      O  947   1.696   2.952   1.288
  254HOH     H1  948   1.698   2.964   1.193
  254HOH     H2  949   1.727   3.036   1.324
  255HOH      O  950   0.231   3.446   0.297
  255HOH     H1  951   0.304   3.464   0.357
  255HOH     H2  952   0.164   3.509   0.322
  256HOH      O  953   2.274   3.338   2.223
  256HOH     H1  954   2.332   3.327   2.147
  256HOH     H2  955   2.206   3.397   2.192
  257HOH      O  956   3.649   0.476   0.260
  257HOH     H1  957   3.691   0.406   0.310
  257HOH     H2  958   3.711   0.549   0.265
  258HOH      O  959   2.279   0.602   1.677
  258HOH     H1  960   2.287   0.508   1.659
  258HOH     H2  961   2.186   0.615   1.695
  259HOH      O  962   1.099   3.111   0.987
  259HOH     H1  963   1.066   3.192   0.950
  259HOH     H2  964   1.192   3.128   1.004
  260HOH      O  965   3.963   0.028   1.890
  260HOH     H1  966   3.940   0.118   1.915
  260HOH     H2  967   4.007   0.037   1.806
  261HOH      O  968   2.269   3.078   1.551
  261HOH     H1  969   2.287   2.987   1.577
  261HOH     H2  970   2.219   3.070   1.470
  262HOH      O  971   1.338   0.815   2.944
  262HOH     H1  972   1.386   0.898   2.936
  262HOH     H2  973   1.320   0.789   2.854
  263HOH      O  974   1.445   1.658   2.838
  263HOH     H1  975   1.487   1.690   2.918
  263HOH     H2  976   1.360   1.703   2.836
  264HOH      O  977   1.751   3.078   3.007
  264HOH     H1  978   1.760   3.163   3.051
  264HOH     H2  979   1.762   3.014   3.077
  265HOH      O  980   0.954   1.728   2.704
  265HOH     H1  981   1.029   1.670   2.721
  265HOH     H2  982   0.880   1.668   2.690
  266HOH      O  983   3.736   1.464   0.067
  266HOH     H1  984   3.687   1.481   0.148
  266HOH     H2  985   3.749   1.551   0.028
  267HOH      O  986   0.897   1.890   2.492
  267HOH     H1  987   0.830   1.948   2.527
  267HOH     H2  988   0.927   1.840   2.568
  268HOH      O  989   1.735   3.056   2.454
  268HOH     H1  990   1.818   3.012   2.475
  268HOH     H2  991   1.696   3.076   2.539
  269HOH      O  992   0.958   1.723   2.094
  269HOH     H1  993   0.869   1.720   2.128
  269HOH     H2  994   0.981   1.632   2.077
  270HOH      O  995   0.989   2.292   2.050
  270HOH     H1  996   0.975   2.250   2.135
  270HOH     H2  997   1.083   2.283   2.035
  271HOH      O  998   1.588   1.699   2.593
  271HOH     H1  999   1.545   1.656   2.519
  271HOH     H2 1000   1.528   1.687   2.666
  272HOH      O 1001   0.873   1.819   0.382
  272HOH     H1 1002   0.833   1.754   0.440
  272HOH     H2 1003   0.967   1.812   0.400
  273HOH      O 1004   0.809   0.218   1.906
  273HOH     H1 1005   0.783   0.303   1.870
  273HOH     H2 1006   0.845   0.171   1.830
  274HOH      O 1007   1.170   1.904   1.799
  274HOH     H1 1008   1.241   1.874   1.857
  274HOH     H2 1009   1.121   1.825   1.779
  275HOH      O 1010   1.358   3.946   0.203
  275HOH     H1 1011   1.273   3.973   0.239
  275HOH     H2 1012   1.409   3.920   0.280
  276HOH      O 1013   2.314   1.105   3.321
  276HOH     H1 1014   2.355   1.168   3.380
  276HOH     H2 1015   2.338   1.019   3.357
  277HOH      O 1016   2.813   1.069   2.404
  277HOH     H1 1017   2.785   1.156   2.375
  277HOH     H2 1018   2.732   1.018   2.409
  278HOH      O 1019   1.881   2.070   1.609
  278HOH     H1 1020   1.917   2.139   1.665
  278HOH     H2 1021   1.892   2.103   1.520
  279HOH      O 1022   2.211   3.056   1.818
  279HOH     H1 1023   2.220   3.093   1.730
  279HOH     H2 1024   2.272   3.106   1.872
  280HOH      O 1025   1.140   3.436   3.662
  280HOH     H1 1026   1.097   3.497   3.602
  280HOH     H2 1027   1.075   3.420   3.730
  281HOH      O 1028   2.340   1.372   3.763
  281HOH     H1 1029   2.277   1.404   3.828
  281HOH     H2 1030   2.384   1.299   3.807
  282HOH      O 1031   2.151   1.107   2.187
  282HOH     H1 1032   2.165   1.201   2.181
  282HOH     H2 1033   2.057   1.096   2.196
  283HOH      O 1034   2.554   0.834   2.946
  283HOH     H1 1035   2.623   0.877   2.896
  283HOH     H2 1036   2.590   0.829   3.035
  284HOH      O 1037   2.756   0.212   2.263
  284HOH     H1 1038   2.680   0.224   2.206
  284HOH     H2 1039   2.805   0.294   2.255
  285HOH      O 1040   0.934   0.113   2.153
  285HOH     H1 1041   0.909   0.021   2.151
  285HOH     H2 1042   0.882   0.153   2.083
  286HOH      O 1043   1.514   0.435   2.310
  286HOH     H1 1044   1.576   0.404   2.244
  286HOH     H2 1045   1.569   0.471   2.380
  287HOH      O 1046   3.459   3.003   3.948
  287HOH     H1 1047   3.425   3.091   3.962
  287HOH     H2 1048   3.383   2.946   3.958
  288HOH      O 1049   3.783   1.158   0.335
  288HOH     H1 1050   3.849   1.197   0.392
  288HOH     H2 1051   3.785   1.065   0.356
  289HOH      O 1052   1.742   2.903   3.224
  289HOH     H1 1053   1.698   2.818   3.236
  289HOH     H2 1054   1.827   2.892   3.265
  290HOH      O 1055   0.799   0.847   0.255
  290HOH     H1 1056   0.815   0.780   0.189
  290HOH     H2 1057   0.715   0.885   0.231
  291HOH      O 1058   0.328   3.251   2.623
  291HOH     H1 1059   0.280   3.331   2.643
  291HOH     H2 1060   0.332   3.204   2.707
  292HOH      O 1061   0.705   1.381   1.064
  292HOH     H1 1062   0.745   1.330   0.994
  292HOH     H2 1063   0.749   1.353   1.143
  293HOH      O 1064   2.901   3.153   3.522
  293HOH     H1 1065   2.816   3.123   3.553
  293HOH     H2 1066   2.943   3.074   3.487
  294HOH      O 1067   0.500   3.293   1.064
  294HOH     H1 1068   0.528   3.243   0.987
  294HOH     H2 1069   0.415   3.329   1.039
  295HOH      O 1070   3.766   2.277   1.323
  295HOH     H1 1071   3.837   2.286   1.386
  295HOH     H2 1072   3.689   2.310   1.370
  296HOH      O 1073   3.593   3.545   0.056
  296HOH     H1 1074   3.548   3.520   0.136
  296HOH     H2 1075   3.578   3.639   0.047
  297HOH      O 1076   0.328   3.883   0.182
  297HOH     H1 1077   0.387   3.958   0.184
  297HOH     H2 1078   0.244   3.920   0.152
  298HOH      O 1079   3.082   3.256   2.321
  298HOH     H1 1080   3.156   3.313   2.301
  298HOH     H2 1081   3.005   3.312   2.312
  299HOH      O 1082   1.920   2.879   2.548
  299HOH     H1 1083   1.910   2.881   2.643
  299HOH     H2 1084   1.998   2.825   2.534
  300HOH      O 1085   3.348   0.502   1.440
  300HOH     H1 1086   3.381   0.522   1.528
  300HOH     H2 1087   3.365   0.408   1.429
  301HOH      O 1088   1.387   3.569   2.148
  301HOH     H1 1089   1.475   3.543   2.176
  301HOH     H2 1090   1.377   3.529   2.062
  302HOH      O 1091   2.424   1.385   0.038
  302HOH     H1 1092   2.474   1.305   0.022
  302HOH     H2 1093   2.445   1.409   0.128
  303HOH      O 1094   2.755   2.672   1.841
  303HOH     H1 1095   2.668   2.664   1.881
  303HOH     H2 1096   2.781   2.582   1.821
  304HOH      O 1097   0.037   0.024   0.365
  304HOH     H1 1098  -0.017   0.097   0.332
  304HOH     H2 1099   0.117   0.066   0.396
  305HOH      O 1100  -0.002   0.293   2.417
  305HOH     H1 1101  -0.041   0.211   2.446
  305HOH     H2 1102   0.086   0.269   2.388
  306HOH      O 1103   3.253   3.989   1.868
  306HOH     H1 1104   3.322   4.055   1.856
  306HOH     H2 1105   3.182   4.019   1.811
  307HOH      O 1106   2.401   1.486   0.352
  307HOH     H1 1107   2.384   1.580   0.343
  307HOH     H2 1108   2.453   1.479   0.432
  308HOH      O 1109   1.558   0.207   1.165
  308HOH     H1 1110   1.482   0.161   1.202
  308HOH     H2 1111   1.626   0.199   1.232
  309HOH      O 1112   3.732   0.251   0.427
  309HOH     H1 1113   3.678   0.188   0.381
  309HOH     H2 1114   3.718   0.232   0.520
  310HOH      O 1115   2.506   3.100   1.252
  310HOH     H1 1116   2.411   3.088   1.246
  310HOH     H2 1117   2.518   3.164   1.323
  311HOH      O 1118   0.976   2.179   2.337
  311HOH     H1 1119   0.961   2.251   2.399
  311HOH     H2 1120   0.901   2.121   2.348
  312HOH      O 1121   3.763   1.890   3.506
  312HOH     H1 1122   3.731   1.967   3.553
  312HOH     H2 1123   3.695   1.825   3.519
  313HOH      O 1124   1.322   0.313   4.021
  313HOH     H1 1125   1.249   0.250   4.025
  313HOH     H2 1126   1.326   0.339   3.929
  314HOH      O 1127   3.314   3.081   2.770
  314HOH     H1 1128   3.295   3.036   2.687
  314HOH     H2 1129   3.233   3.073   2.820
  315HOH      O 1130   3.004   0.875   0.641
  315HOH     H1 1131   2.988   0.792   0.596
  315HOH     H2 1132   2.997   0.854   0.734
  316HOH      O 1133   1.173   1.088   1.437
  316HOH     H1 1134   1.080   1.073   1.453
  316HOH     H2 1135   1.179   1.101   1.342
  317HOH      O 1136   3.828   3.536   1.444
  317HOH     H1 1137   3.835   3.624   1.480
  317HOH     H2 1138   3.763   3.492   1.499
  318HOH      O 1139   0.893   1.094   1.476
  318HOH     H1 1140   0.861   1.013   1.516
  318HOH     H2 1141   0.862   1.163   1.534
  319HOH      O 1142   1.827   1.275   3.602
  319HOH     H1 1143   1.733   1.278   3.619
  319HOH     H2 1144   1.862   1.214   3.668
  320HOH      O 1145   2.339   0.090   1.223
  320HOH     H1 1146   2.278   0.055   1.289
  320HOH     H2 1147   2.284   0.105   1.146
  321HOH      O 1148   3.969   0.650   0.715
  321HOH     H1 1149   4.033   0.692   0.772
  321HOH     H2 1150   4.011   0.568   0.688
  322HOH      O 1151   3.231   0.535   2.924
  322HOH     H1 1152   3.197   0.459   2.877
  322HOH     H2 1153   3.164   0.603   2.914
  323HOH      O 1154   2.474   0.716   1.291
  323HOH     H1 1155   2.456   0.807   1.267
  323HOH     H2 1156   2.556   0.695   1.245
  324HOH      O 1157   1.781   1.777   1.771
  324HOH     H1 1158   1.809   1.835   1.842
  324HOH     H2 1159   1.844   1.706   1.771
  325HOH      O 1160   1.128   3.473   2.492
  325HOH     H1 1161   1.130   3.405   2.425
  325HOH     H2 1162   1.096   3.429   2.570
  326HOH      O 1163   3.751   2.087   2.178
  326HOH     H1 1164   3.801   2.093   2.260
  326HOH     H2 1165   3.659   2.096   2.206
  327HOH      O 1166   0.503   1.512   3.581
  327HOH     H1 1167   0.438   1.538   3.515
  327HOH     H2 1168   0.501   1.417   3.580
  328HOH      O 1169   0.459   2.391   1.616
  328HOH     H1 1170   0.405   2.319   1.647
  328HOH     H2 1171   0.519   2.352   1.553
  329HOH      O 1172   0.490   2.923   2.240
  329HOH     H1 1173   0.500   3.007   2.195
  329HOH     H2 1174   0.461   2.947   2.329
  330HOH      O 1175   3.596   2.623   3.662
  330HOH     H1 1176   3.560   2.541   3.628
  330HOH     H2 1177   3.588   2.685   3.590
  331HOH      O 1178   2.535   3.147   0.421
  331HOH     H1 1179   2.473   3.100   0.478
  331HOH     H2 1180   2.593   3.193   0.481
  332HOH      O 1181   1.900   1.776   1.496
  332HOH     H1 1182   1.874   1.846   1.556
  332HOH     H2 1183   1.996   1.777   1.498
  333HOH      O 1184   3.903   2.608   2.233
  333HOH     H1 1185   3.960   2.670   2.278
  333HOH     H2 1186   3.954   2.528   2.227
  334HOH      O 1187   0.719   3.955   0.945
  334HOH     H1 1188   0.807   3.927   0.969
  334HOH     H2 1189   0.663   3.920   1.014
  335HOH      O 1190   2.412   2.406   0.923
  335HOH     H1 1191   2.374   2.437   0.841
  335HOH     H2 1192   2.341   2.358   0.966
  336HOH      O 1193   2.061   3.788   3.096
  336HOH     H1 1194   1.973   3.804   3.061
  336HOH     H2 1195   2.112   3.756   3.022
  337HOH      O 1196   2.704   2.514   0.921
  337HOH     H1 1197   2.720   2.604   0.949
  337HOH     H2 1198   2.680   2.468   1.002
  338HOH      O 1199   1.833   1.395   1.145
  338HOH     H1 1200   1.809   1.360   1.059
  338HOH     H2 1201   1.869   1.320   1.192
  339HOH      O 1202   3.639   4.060   3.376
  339HOH     H1 1203   3.583   4.045   3.300
  339HOH     H2 1204   3.679   3.975   3.394
  340HOH      O 1205   0.041   0.100   1.651
  340HOH     H1 1206   0.117   0.158   1.659
  340HOH     H2 1207   0.067   0.036   1.585
  341HOH      O 1208   0.623   2.989   3.455
  341HOH     H1 1209   0.657   2.966   3.541
  341HOH     H2 1210   0.578   2.910   3.424
  342HOH      O 1211   3.171   1.403   3.856
  342HOH     H1 1212   3.262   1.376   3.842
  342HOH     H2 1213   3.128   1.324   3.888
  343HOH      O 1214   3.508   3.761   2.446
  343HOH     H1 1215   3.496   3.670   2.470
  343HOH     H2 1216   3.529   3.758   2.352
  344HOH      O 1217   1.432   0.817   1.200
  344HOH     H1 1218   1.488   0.814   1.122
  344HOH     H2 1219   1.360   0.875   1.175
  345HOH      O 1220   3.769   0.165   1.300
  345HOH     H1 1221   3.801   0.171   1.390
  345HOH     H2 1222   3.778   0.254   1.266
  346HOH      O 1223   3.873   0.426   1.179
  346HOH     H1 1224   3.966   0.427   1.201
  346HOH     H2 1225   3.851   0.518   1.166
  347HOH      O 1226   2.401   3.976   0.623
  347HOH     H1 1227   2.402   3.929   0.540
  347HOH     H2 1228   2.407   3.908   0.690
  348HOH      O 1229   2.505   0.261   2.465
  348HOH     H1 1230   2.544   0.329   2.410
  348HOH     H2 1231   2.576   0.233   2.522
  349HOH      O 1232   1.672   0.146   2.862
  349HOH     H1 1233   1.588   0.149   2.817
  349HOH     H2 1234   1.718   0.224   2.833
  350HOH      O 1235   1.779   3.381   2.638
  350HOH     H1 1236   1.871   3.368   2.615
  350HOH     H2 1237   1.761   3.472   2.615
  351HOH      O 1238   2.149   3.945   1.355
  351HOH     H1 1239   2.055   3.932   1.346
  351HOH     H2 1240   2.162   3.962   1.449
  352HOH      O 1241   3.837   0.250   2.722
  352HOH     H1 1242   3.918   0.199   2.719
  352HOH     H2 1243   3.852   0.316   2.789
  353HOH      O 1244   1.990   2.682   3.066
  353HOH     H1 1245   2.048   2.749   3.030
  353HOH     H2 1246   1.915   2.681   3.007
  354HOH      O 1247   2.349   2.439   2.125
  354HOH     H1 1248   2.288   2.389   2.070
  354HOH     H2 1249   2.368   2.381   2.199
  355HOH      O 1250   0.187   2.077   1.257
  355HOH     H1 1251   0.099   2.054   1.286
  355HOH     H2 1252   0.176   2.159   1.209
  356HOH      O 1253   1.008   0.096   3.402
  356HOH     H1 1254   0.965   0.135   3.326
  356HOH     H2 1255   1.087   0.055   3.368
  357HOH      O 1256   1.522   1.787   1.727
  357HOH     H1 1257   1.610   1.759   1.754
  357HOH     H2 1258   1.483   1.824   1.806
  358HOH      O 1259   0.279   2.290   2.310
  358HOH     H1 1260   0.205   2.328   2.262
  358HOH     H2 1261   0.325   2.237   2.245
  359HOH      O 1262   2.480   3.538   1.762
  359HOH     H1 1263   2.483   3.589   1.843
  359HOH     H2 1264   2.489   3.603   1.692
  360HOH      O 1265   3.198   1.924   1.979
  360HOH     H1 1266   3.104   1.936   1.965
  360HOH     H2 1267   3.231   2.012   1.999
  361HOH      O 1268   2.468   2.699   3.639
  361HOH     H1 1269   2.427   2.743   3.565
  361HOH     H2 1270   2.558   2.682   3.611
  362HOH      O 1271   1.471   1.914   1.286
  362HOH     H1 1272   1.498   1.928   1.377
  362HOH     H2 1273   1.436   1.825   1.286
  363HOH      O 1274   2.122   1.363   0.589
  363HOH     H1 1275   2.042   1.357   0.535
  363HOH     H2 1276   2.134   1.457   0.602
  364HOH      O 1277   3.515   0.687   1.293
  364HOH     H1 1278   3.600   0.678   1.251
  364HOH     H2 1279   3.486   0.597   1.307
  365HOH      O 1280   0.664   2.133   2.093
  365HOH     H1 1281   0.710   2.079   2.157
  365HOH     H2 1282   0.733   2.175   2.042
  366HOH      O 1283   3.753   2.089   2.660
  366HOH     H1 1284   3.806   2.073   2.738
  366HOH     H2 1285   3.682   2.025   2.665
  367HOH      O 1286   0.707   1.973   3.299
  367HOH     H1 1287   0.764   2.018   3.237
  367HOH     H2 1288   0.624   2.020   3.295
  368HOH      O 1289   2.224   1.702   0.551
  368HOH     H1 1290   2.288   1.732   0.486
  368HOH     H2 1291   2.142   1.745   0.526
  369HOH      O 1292   1.399   2.600   2.588
  369HOH     H1 1293   1.316   2.564   2.620
  369HOH     H2 1294   1.403   2.688   2.625
  370HOH      O 1295   0.207   2.058   1.989
  370HOH     H1 1296   0.280   2.026   2.042
  370HOH     H2 1297   0.133   2.063   2.050
  371HOH      O 1298   2.964   3.060   1.825
  371HOH     H1 1299   2.916   3.057   1.908
  371HOH     H2 1300   3.051   3.026   1.848
  372HOH      O 1301   2.661   0.055   0.594
  372HOH     H1 1302   2.568   0.033   0.594
  372HOH     H2 1303   2.698   0.002   0.523
  373HOH      O 1304   4.007   3.785   2.908
  373HOH     H1 1305   3.951   3.745   2.975
  373HOH     H2 1306   3.957   3.777   2.827
  374HOH      O 1307   2.821   1.796   3.199
  374HOH     H1 1308   2.768   1.865   3.160
  374HOH     H2 1309   2.780   1.779   3.284
  375HOH      O 1310   3.997   2.803   3.769
  375HOH     H1 1311   3.927   2.857   3.732
  375HOH     H2 1312   3.959   2.765   3.847
  376HOH      O 1313   3.669   3.948   0.868
  376HOH     H1 1314   3.703   3.871   0.914
  376HOH     H2 1315   3.577   3.952   0.892
  377HOH      O 1316   3.376   2.868   0.201
  377HOH     H1 1317   3.468   2.878   0.226
  377HOH     H2 1318   3.378   2.819   0.119
  378HOH      O 1319   1.294   3.490   1.901
  378HOH     H1 1320   1.282   3.582   1.878
  378HOH     H2 1321   1.353   3.456   1.835
  379HOH      O 1322   1.858   1.859   2.252
  379HOH     H1 1323   1.920   1.790   2.278
  379HOH     H2 1324   1.863   1.923   2.322
  380HOH      O 1325   1.303   0.703   2.671
  380HOH     H1 1326   1.303   0.762   2.596
  380HOH     H2 1327   1.381   0.649   2.660
  381HOH      O 1328   3.353   3.181   3.364
  381HOH     H1 1329   3.411   3.256   3.351
  381HOH     H2 1330   3.277   3.200   3.309
  382HOH      O 1331   1.546   1.982   2.572
  382HOH     H1 1332   1.554   1.892   2.602
  382HOH     H2 1333   1.621   2.027   2.610
  383HOH      O 1334   0.908   0.577   3.023
  383HOH     H1 1335   0.839   0.511   3.018
  383HOH     H2 1336   0.921   0.605   2.932
  384HOH      O 1337   2.285   1.414   3.206
  384HOH     H1 1338   2.237   1.372   3.277
  384HOH     H2 1339   2.377   1.407   3.232
  385HOH      O 1340   3.703   2.695   1.741
  385HOH     H1 1341   3.715   2.745   1.660
  385HOH     H2 1342   3.689   2.762   1.808
  386HOH      O 1343   1.645   3.117   2.726
  386HOH     H1 1344   1.698   3.190   2.694
  386HOH     H2 1345   1.681   3.097   2.813
  387HOH      O 1346   0.505   2.257   1.359
  387HOH     H1 1347   0.510   2.172   1.315
  387HOH     H2 1348   0.426   2.297   1.324
  388HOH      O 1349   2.944   1.364   1.137
  388HOH     H1 1350   2.912   1.453   1.122
  388HOH     H2 1351   2.865   1.310   1.141
  389HOH      O 1352   0.285   2.857   0.705
  389HOH     H1 1353   0.261   2.802   0.631
  389HOH     H2 1354   0.324   2.797   0.768
  390HOH      O 1355   0.486   1.912   3.663
  390HOH     H1 1356   0.575   1.946   3.654
  390HOH     H2 1357   0.437   1.983   3.703
  391HOH      O 1358   2.251   2.849   3.923
  391HOH     H1 1359   2.333   2.803   3.911
  391HOH     H2 1360   2.249   2.871   4.017
  392HOH      O 1361   3.701   1.628   1.125
  392HOH     H1 1362   3.716   1.713   1.165
  392HOH     H2 1363   3.788   1.588   1.120
  393HOH      O 1364   1.620   1.648   0.598
  393HOH     H1 1365   1.591   1.652   0.689
  393HOH     H2 1366   1.541   1.627   0.548
  394HOH      O 1367   0.815   2.350   3.101
  394HOH     H1 1368   0.892   2.406   3.114
  394HOH     H2 1369   0.849   2.261   3.112
  395HOH      O 1370   2.463   2.404   3.564
  395HOH     H1 1371   2.447   2.392   3.470
  395HOH     H2 1372   2.387   2.454   3.594
  396HOH      O 1373   1.957   1.315   2.093
  396HOH     H1 1374   2.016   1.313   2.017
  396HOH     H2 1375   1.920   1.403   2.092
  397HOH      O 1376   2.677   1.217   1.671
  397HOH     H1 1377   2.582   1.219   1.669
  397HOH     H2 1378   2.703   1.215   1.578
  398HOH      O 1379   1.060   2.716   2.382
  398HOH     H1 1380   1.125   2.787   2.380
  398HOH     H2 1381   1.086   2.658   2.311
  399HOH      O 1382   1.214   3.936   1.653
  399HOH     H1 1383   1.158   3.901   1.584
  399HOH     H2 1384   1.257   3.859   1.691
  400HOH      O 1385   1.807   0.600   3.226
  400HOH     H1 1386   1.881   0.551   3.189
  400HOH     H2 1387   1.774   0.543   3.296
  401HOH      O 1388   3.119   2.059   1.149
  401HOH     H1 1389   3.074   2.140   1.127
  401HOH     H2 1390   3.212   2.082   1.148
  402HOH      O 1391   3.565   2.710   3.250
  402HOH     H1 1392   3.616   2.630   3.254
  402HOH     H2 1393   3.588   2.749   3.165
  403HOH      O 1394   0.710   2.243   1.680
  403HOH     H1 1395   0.691   2.294   1.759
  403HOH     H2 1396   0.803   2.261   1.661
  404HOH      O 1397   2.194   2.265   1.987
  404HOH     H1 1398   2.179   2.238   1.896
  404HOH     H2 1399   2.202   2.183   2.036
  405HOH      O 1400   0.160   3.791   0.448
  405HOH     H1 1401   0.112   3.725   0.398
  405HOH     H2 1402   0.141   3.874   0.403
  406HOH      O 1403   2.179   3.705   1.744
  406HOH     H1 1404   2.258   3.694   1.691
  406HOH     H2 1405   2.195   3.785   1.794
  407HOH      O 1406   1.776   2.284   0.662
  407HOH     H1 1407   1.695   2.304   0.710
  407HOH     H2 1408   1.800   2.196   0.692
  408HOH      O 1409   3.852   2.625   2.641
  408HOH     H1 1410   3.818   2.686   2.575
  408HOH     H2 1411   3.903   2.680   2.701
  409HOH      O 1412   3.477   3.787   2.156
  409HOH     H1 1413   3.404   3.800   2.095
  409HOH     H2 1414   3.521   3.871   2.159
  410HOH      O 1415   1.176   2.921   3.597
  410HOH     H1 1416   1.165   3.015   3.615
  410HOH     H2 1417   1.266   2.902   3.625
  411HOH      O 1418   1.037   3.759   2.054
  411HOH     H1 1419   0.966   3.816   2.084
  411HOH     H2 1420   1.035   3.685   2.114
  412HOH      O 1421   0.316   2.102   3.732
  412HOH     H1 1422   0.311   2.155   3.652
  412HOH     H2 1423   0.345   2.163   3.799
  413HOH      O 1424   1.149   0.826   3.542
  413HOH     H1 1425   1.151   0.730   3.551
  413HOH     H2 1426   1.222   0.856   3.597
  414HOH      O 1427   0.911   3.361   1.171
  414HOH     H1 1428   0.859   3.401   1.102
  414HOH     H2 1429   0.977   3.309   1.124
  415HOH      O 1430   1.271   2.718   1.863
  415HOH     H1 1431   1.306   2.787   1.919
  415HOH     H2 1432   1.321   2.725   1.781
  416HOH      O 1433   1.910   1.448   3.875
  416HOH     H1 1434   1.992   1.426   3.831
  416HOH     H2 1435   1.860   1.496   3.809
  417HOH      O 1436   2.535   3.363   0.254
  417HOH     H1 1437   2.445   3.382   0.228
  417HOH     H2 1438   2.531   3.276   0.294
  418HOH      O 1439   3.168   3.028   0.279
  418HOH     H1 1440   3.151   3.090   0.209
  418HOH     H2 1441   3.249   2.984   0.252
  419HOH      O 1442   2.999   1.708   1.413
  419HOH     H1 1443   2.975   1.641   1.477
  419HOH     H2 1444   3.094   1.712   1.415
  420HOH      O 1445   3.922   1.809   2.405
  420HOH     H1 1446   3.934   1.901   2.425
  420HOH     H2 1447   3.960   1.798   2.318
  421HOH      O 1448   3.762   3.889   1.938
  421HOH     H1 1449   3.704   3.936   1.997
  421HOH     H2 1450   3.835   3.948   1.922
  422HOH      O 1451   1.125   2.496   3.731
  422HOH     H1 1452   1.159   2.477   3.819
  422HOH     H2 1453   1.035   2.463   3.733
  423HOH      O 1454   1.614   1.463   0.175
  423HOH     H1 1455   1.541   1.493   0.120
  423HOH     H2 1456   1.635   1.539   0.230
  424HOH      O 1457   0.715   0.657   2.197
  424HOH     H1 1458   0.796   0.652   2.249
  424HOH     H2 1459   0.704   0.569   2.162
  425HOH      O 1460   0.221   1.914   2.733
  425HOH     H1 1461   0.139   1.964   2.731
  425HOH     H2 1462   0.279   1.966   2.789
  426HOH      O 1463   0.418   0.740   3.392
  426HOH     H1 1464   0.499   0.756   3.343
  426HOH     H2 1465   0.410   0.817   3.450
  427HOH      O 1466   3.080   1.034   1.773
  427HOH     H1 1467   3.147   0.985   1.725
  427HOH     H2 1468   2.998   0.991   1.750
  428HOH      O 1469   0.806   3.048   2.843
  428HOH     H1 1470   0.846   2.991   2.908
  428HOH     H2 1471   0.777   3.125   2.893
  429HOH      O 1472   0.117   3.012   3.061
  429HOH     H1 1473   0.194   2.992   3.114
  429HOH     H2 1474   0.050   2.951   3.093
  430HOH      O 1475   3.573   1.041   1.728
  430HOH     H1 1476   3.553   0.975   1.661
  430HOH     H2 1477   3.499   1.102   1.725
  431HOH      O 1478   2.612   1.262   3.731
  431HOH     H1 1479   2.617   1.354   3.756
  431HOH     H2 1480   2.585   1.217   3.811
  432HOH      O 1481   3.499   2.497   1.789
  432HOH     H1 1482   3.510   2.459   1.877
  432HOH     H2 1483   3.559   2.571   1.787
  433HOH      O 1484   2.076   1.908   0.902
  433HOH     H1 1485   2.163   1.902   0.864
  433HOH     H2 1486   2.056   1.819   0.931
  434HOH      O 1487   3.300   1.743   2.135
  434HOH     H1 1488   3.309   1.780   2.223
  434HOH     H2 1489   3.240   1.804   2.091
  435HOH      O 1490   1.594   2.205   3.756
  435HOH     H1 1491   1.554   2.290   3.775
  435HOH     H2 1492   1.520   2.147   3.738
  436HOH      O 1493   0.294   3.538   1.164
  436HOH     H1 1494   0.212   3.519   1.208
  436HOH     H2 1495   0.285   3.499   1.077
  437HOH      O 1496   3.429   3.492   3.854
  437HOH     H1 1497   3.479   3.485   3.935
  437HOH     H2 1498   3.418   3.587   3.841
  438HOH      O 1499   3.247   1.539   0.550
  438HOH     H1 1500   3.186   1.472   0.518
  438HOH     H2 1501   3.263   1.514   0.641
  439HOH      O 1502   0.646   2.292   0.382
  439HOH     H1 1503   0.614   2.305   0.471
  439HOH     H2 1504   0.672   2.200   0.379
  440HOH      O 1505   1.066   1.389   1.632
  440HOH     H1 1506   1.020   1.329   1.691
  440HOH     H2 1507   1.154   1.353   1.625
  441HOH      O 1508   0.550   3.306   0.399
  441HOH     H1 1509   0.636   3.276   0.427
  441HOH     H2 1510   0.493   3.288   0.473
  442HOH      O 1511   3.202   0.372   0.348
  442HOH     H1 1512   3.125   0.314   0.349
  442HOH     H2 1513   3.249   0.350   0.428
  443HOH      O 1514   3.657   1.468   3.631
  443HOH     H1 1515   3.629   1.415   3.555
  443HOH     H2 1516   3.623   1.555   3.612
  444HOH      O 1517   0.598   2.726   0.650
  444HOH     H1 1518   0.616   2.694   0.561
  444HOH     H2 1519   0.672   2.783   0.669
  445HOH      O 1520   2.643   3.617   0.808
  445HOH     H1 1521   2.645   3.607   0.713
  445HOH     H2 1522   2.708   3.684   0.827
  446HOH      O 1523   1.649   2.973   2.030
  446HOH     H1 1524   1.654   3.061   1.994
  446HOH     H2 1525   1.738   2.955   2.062
  447HOH      O 1526   2.006   3.099   1.406
  447HOH     H1 1527   1.994   3.092   1.501
  447HOH     H2 1528   1.927   3.143   1.375
  448HOH      O 1529   1.402   2.118   0.384
  448HOH     H1 1530   1.437   2.148   0.468
  448HOH     H2 1531   1.439   2.179   0.319
  449HOH      O 1532   1.203   3.414   0.605
  449HOH     H1 1533   1.281   3.381   0.649
  449HOH     H2 1534   1.164   3.476   0.667
  450HOH      O 1535   2.983   2.893   2.626
  450HOH     H1 1536   2.956   2.895   2.717
  450HOH     H2 1537   2.906   2.862   2.579
  451HOH      O 1538   1.591   3.173   2.248
  451HOH     H1 1539   1.503   3.146   2.272
  451HOH     H2 1540   1.648   3.111   2.294
  452HOH      O 1541   1.431   0.212   2.738
  452HOH     H1 1542   1.386   0.238   2.657
  452HOH     H2 1543   1.413   0.283   2.799
  453HOH      O 1544   2.953   3.772   1.109
  453HOH     H1 1545   3.048   3.780   1.104
  453HOH     H2 1546   2.933   3.776   1.203
  454HOH      O 1547   1.602   2.463   0.049
  454HOH     H1 1548   1.676   2.523   0.051
  454HOH     H2 1549   1.568   2.470  -0.040
  455HOH      O 1550   1.468   0.431   0.205
  455HOH     H1 1551   1.382   0.398   0.181
  455HOH     H2 1552   1.508   0.360   0.255
  456HOH      O 1553   1.728   0.640   0.567
  456HOH     H1 1554   1.727   0.568   0.504
  456HOH     H2 1555   1.808   0.688   0.546
  457HOH      O 1556   2.356   0.080   2.261
  457HOH     H1 1557   2.363   0.175   2.264
  457HOH     H2 1558   2.419   0.053   2.194
  458HOH      O 1559   1.735   2.657   0.260
  458HOH     H1 1560   1.796   2.599   0.216
  458HOH     H2 1561   1.787   2.735   0.280
  459HOH      O 1562   0.719   3.788   3.239
  459HOH     H1 1563   0.699   3.756   3.328
  459HOH     H2 1564   0.706   3.882   3.244
  460HOH      O 1565   0.249   0.783   1.673
  460HOH     H1 1566   0.200   0.773   1.591
  460HOH     H2 1567   0.227   0.872   1.702
  461HOH      O 1568   3.173   1.765   3.487
  461HOH     H1 1569   3.107   1.767   3.417
  461HOH     H2 1570   3.148   1.690   3.541
  462HOH      O 1571   3.507   2.654   0.949
  462HOH     H1 1572   3.420   2.691   0.961
  462HOH     H2 1573   3.558   2.689   1.022
  463HOH      O 1574   2.437   2.541   0.521
  463HOH     H1 1575   2.395   2.522   0.437
  463HOH     H2 1576   2.365   2.542   0.584
  464HOH      O 1577   0.439   1.613   2.660
  464HOH     H1 1578   0.435   1.653   2.747
  464HOH     H2 1579   0.347   1.597   2.637
  465HOH      O 1580   1.936   2.871   0.246
  465HOH     H1 1581   2.005   2.812   0.214
  465HOH     H2 1582   1.930   2.939   0.179
  466HOH      O 1583   2.038   3.543   0.929
  466HOH     H1 1584   2.094   3.568   0.855
  466HOH     H2 1585   1.949   3.547   0.894
  467HOH      O 1586   2.156   1.421   2.695
  467HOH     H1 1587   2.235   1.449   2.648
  467HOH     H2 1588   2.186   1.405   2.784
  468HOH      O 1589   0.014   0.014   3.373
  468HOH     H1 1590   0.088   0.015   3.312
  468HOH     H2 1591  -0.048   0.077   3.335
  469HOH      O 1592   3.034   1.386   0.484
  469HOH     H1 1593   3.044   1.292   0.497
  469HOH     H2 1594   2.999   1.394   0.395
  470HOH      O 1595   1.762   1.502   3.365
  470HOH     H1 1596   1.773   1.410   3.388
  470HOH     H2 1597   1.667   1.513   3.355
  471HOH      O 1598   2.371   0.673   3.866
  471HOH     H1 1599   2.446   0.698   3.921
  471HOH     H2 1600   2.314   0.750   3.869
  472HOH      O 1601   0.335   0.180   2.627
  472HOH     H1 1602   0.374   0.267   2.623
  472HOH     H2 1603   0.398   0.124   2.582
  473HOH      O 1604   3.228   0.820   0.224
  473HOH     H1 1605   3.177   0.739   0.215
  473HOH     H2 1606   3.163   0.886   0.246
  474HOH      O 1607   1.269   2.307   0.788
  474HOH     H1 1608   1.229   2.383   0.830
  474HOH     H2 1609   1.280   2.244   0.859
  475HOH      O 1610   1.930   1.496   2.564
  475HOH     H1 1611   1.970   1.551   2.497
  475HOH     H2 1612   2.002   1.470   2.621
  476HOH      O 1613   1.661   1.207   2.930
  476HOH     H1 1614   1.704   1.126   2.903
  476HOH     H2 1615   1.570   1.182   2.944
  477HOH      O 1616   3.703   2.535   1.504
  477HOH     H1 1617   3.787   2.559   1.464
  477HOH     H2 1618   3.687   2.603   1.569
  478HOH      O 1619   3.502   1.878   1.494
  478HOH     H1 1620   3.467   1.967   1.496
  478HOH     H2 1621   3.556   1.871   1.573
  479HOH      O 1622   3.057   0.758   2.736
  479HOH     H1 1623   3.037   0.790   2.648
  479HOH     H2 1624   3.049   0.835   2.792
  480HOH      O 1625   3.129   2.393   3.533
  480HOH     H1 1626   3.052   2.396   3.476
  480HOH     H2 1627   3.154   2.300   3.535
  481HOH      O 1628   3.303   1.436   1.763
  481HOH     H1 1629   3.311   1.530   1.779
  481HOH     H2 1630   3.386   1.399   1.792
  482HOH      O 1631   0.059   0.142   2.672
  482HOH     H1 1632   0.102   0.072   2.722
  482HOH     H2 1633   0.129   0.203   2.651
  483HOH      O 1634   1.598   3.308   3.253
  483HOH     H1 1635   1.690   3.306   3.227
  483HOH     H2 1636   1.550   3.314   3.170
  484HOH      O 1637   0.607   0.247   3.409
  484HOH     H1 1638   0.535   0.265   3.469
  484HOH     H2 1639   0.684   0.239   3.465
  485HOH      O 1640   2.848   2.112   0.045
  485HOH     H1 1641   2.887   2.150  -0.034
  485HOH     H2 1642   2.915   2.053   0.079
  486HOH      O 1643   0.595   2.537   1.827
  486HOH     H1 1644   0.542   2.473   1.778
  486HOH     H2 1645   0.680   2.495   1.836
  487HOH      O 1646   3.950   0.504   0.086
  487HOH     H1 1647   3.940   0.597   0.068
  487HOH     H2 1648   4.036   0.481   0.052
  488HOH      O 1649   2.843   3.410   2.299
  488HOH     H1 1650   2.798   3.368   2.372
  488HOH     H2 1651   2.831   3.503   2.313
  489HOH      O 1652   2.784   3.201   0.836
  489HOH     H1 1653   2.845   3.264   0.874
  489HOH     H2 1654   2.756   3.147   0.910
  490HOH      O 1655   2.166   0.258   3.656
  490HOH     H1 1656   2.198   0.169   3.643
  490HOH     H2 1657   2.182   0.276   3.749
  491HOH      O 1658   2.737   1.024   0.955
  491HOH     H1 1659   2.813   1.069   0.917
  491HOH     H2 1660   2.678   1.010   0.882
  492HOH      O 1661   1.224   0.108   3.658
  492HOH     H1 1662   1.257   0.028   3.699
  492HOH     H2 1663   1.303   0.154   3.628
  493HOH      O 1664   3.614   2.260   0.291
  493HOH     H1 1665   3.680   2.210   0.341
  493HOH     H2 1666   3.665   2.323   0.241
  494HOH      O 1667   2.531   2.669   0.181
  494HOH     H1 1668   2.605   2.728   0.191
  494HOH     H2 1669   2.454   2.726   0.180
  495HOH      O 1670   3.426   2.707   3.975
  495HOH     H1 1671   3.365   2.711   3.901
  495HOH     H2 1672   3.486   2.636   3.953
  496HOH      O 1673   2.274   3.382   3.354
  496HOH     H1 1674   2.186   3.389   3.389
  496HOH     H2 1675   2.266   3.414   3.264
  497HOH      O 1676   1.061   2.507   0.399
  497HOH     H1 1677   1.006   2.558   0.459
  497HOH     H2 1678   1.149   2.511   0.438
  498HOH      O 1679   0.884   2.598   0.585
  498HOH     H1 1680   0.789   2.592   0.595
  498HOH     H2 1681   0.914   2.635   0.668
  499HOH      O 1682   1.321   3.117   2.853
  499HOH     H1 1683   1.364   3.195   2.888
  499HOH     H2 1684   1.345   3.116   2.760
  500HOH      O 1685   1.886   0.683   1.126
  500HOH     H1 1686   1.929   0.650   1.047
  500HOH     H2 1687   1.831   0.611   1.156
  501HOH      O 1688   3.925   4.001   0.613
  501HOH     H1 1689   3.990   4.021   0.681
  501HOH     H2 1690   3.966   4.028   0.531
  502HOH      O 1691   0.011   2.773   2.442
  502HOH     H1 1692  -0.058   2.819   2.490
  502HOH     H2 1693   0.064   2.843   2.403
  503HOH      O 1694   1.358   3.239   3.626
  503HOH     H1 1695   1.282   3.291   3.597
  503HOH     H2 1696   1.332   3.207   3.712
  504HOH      O 1697   1.988   1.223   2.398
  504HOH     H1 1698   2.051   1.295   2.396
  504HOH     H2 1699   1.908   1.261   2.362
  505HOH      O 1700   1.725   0.430   0.397
  505HOH     H1 1701   1.726   0.442   0.302
  505HOH     H2 1702   1.680   0.346   0.410
  506HOH      O 1703   2.006   0.591   2.145
  506HOH     H1 1704   2.064   0.666   2.160
  506HOH     H2 1705   1.918   0.628   2.145
  507HOH      O 1706   0.786   1.360   3.183
  507HOH     H1 1707   0.863   1.317   3.144
  507HOH     H2 1708   0.789   1.334   3.275
  508HOH      O 1709   2.350   2.835   3.424
  508HOH     H1 1710   2.421   2.804   3.368
  508HOH     H2 1711   2.356   2.930   3.421
  509HOH      O 1712   1.522   3.395   0.841
  509HOH     H1 1713   1.572   3.335   0.787
  509HOH     H2 1714   1.529   3.479   0.797
  510HOH      O 1715   2.982   3.688   0.325
  510HOH     H1 1716   2.969   3.714   0.416
  510HOH     H2 1717   2.910   3.627   0.307
  511HOH      O 1718   1.600   0.665   0.191
  511HOH     H1 1719   1.590   0.695   0.101
  511HOH     H2 1720   1.562   0.577   0.192
  512HOH      O 1721   3.128   2.637   1.368
  512HOH     H1 1722   3.084   2.560   1.403
  512HOH     H2 1723   3.094   2.645   1.278
  513HOH      O 1724   3.221   2.913   3.779
  513HOH     H1 1725   3.217   2.821   3.752
  513HOH     H2 1726   3.287   2.952   3.722
  514HOH      O 1727   1.878   1.061   1.258
  514HOH     H1 1728   1.906   0.970   1.264
  514HOH     H2 1729   1.787   1.060   1.287
  515HOH      O 1730   0.610   0.246   0.622
  515HOH     H1 1731   0.587   0.194   0.545
  515HOH     H2 1732   0.702   0.225   0.638
  516HOH      O 1733   3.478   3.851   3.590
  516HOH     H1 1734   3.399   3.855   3.535
  516HOH     H2 1735   3.550   3.867   3.529
  517HOH      O 1736   2.861   1.879   2.763
  517HOH     H1 1737   2.936   1.892   2.820
  517HOH     H2 1738   2.785   1.898   2.818
  518HOH      O 1739   1.738   0.128   0.500
  518HOH     H1 1740   1.794   0.165   0.432
  518HOH     H2 1741   1.758   0.034   0.500
  519HOH      O 1742   0.784   0.884   3.544
  519HOH     H1 1743   0.714   0.947   3.527
  519HOH     H2 1744   0.839   0.927   3.610
  520HOH      O 1745   0.472   0.635   1.757
  520HOH     H1 1746   0.400   0.686   1.719
  520HOH     H2 1747   0.473   0.662   1.849
  521HOH      O 1748   0.784   1.920   3.591
  521HOH     H1 1749   0.770   1.827   3.575
  521HOH     H2 1750   0.757   1.963   3.510
  522HOH      O 1751   0.777   2.831   0.379
  522HOH     H1 1752   0.751   2.740   0.367
  522HOH     H2 1753   0.804   2.860   0.291
  523HOH      O 1754   3.489   1.125   3.267
  523HOH     H1 1755   3.475   1.128   3.173
  523HOH     H2 1756   3.572   1.172   3.281
  524HOH      O 1757   3.929   0.830   3.609
  524HOH     H1 1758   3.915   0.812   3.702
  524HOH     H2 1759   3.977   0.913   3.607
  525HOH      O 1760   1.994   1.649   0.893
  525HOH     H1 1761   1.914   1.624   0.940
  525HOH     H2 1762   1.963   1.694   0.815
  526HOH      O 1763   1.020   3.341   3.388
  526HOH     H1 1764   1.047   3.432   3.401
  526HOH     H2 1765   1.100   3.290   3.403
  527HOH      O 1766   3.043   1.339   1.806
  527HOH     H1 1767   3.124   1.373   1.843
  527HOH     H2 1768   3.066   1.253   1.771
  528HOH      O 1769   1.995   0.982   2.717
  528HOH     H1 1770   1.964   1.070   2.739
  528HOH     H2 1771   2.027   0.946   2.800
  529HOH      O 1772   2.739   2.639   2.257
  529HOH     H1 1773   2.804   2.703   2.228
  529HOH     H2 1774   2.727   2.581   2.182
  530HOH      O 1775   1.240   2.444   3.976
  530HOH     H1 1776   1.175   2.398   4.028
  530HOH     H2 1777   1.277   2.509   4.036
  531HOH      O 1778   2.475   3.653   3.043
  531HOH     H1 1779   2.483   3.671   2.949
  531HOH     H2 1780   2.563   3.668   3.077
  532HOH      O 1781   2.846   2.584   3.952
  532HOH     H1 1782   2.858   2.635   3.871
  532HOH     H2 1783   2.877   2.642   4.021
  533HOH      O 1784   1.026   2.510   3.120
  533HOH     H1 1785   0.993   2.540   3.204
  533HOH     H2 1786   1.096   2.448   3.141
  534HOH      O 1787   3.779   3.448   2.634
  534HOH     H1 1788   3.830   3.456   2.553
  534HOH     H2 1789   3.845   3.453   2.703
  535HOH      O 1790  -0.016   0.440   3.549
  535HOH     H1 1791  -0.007   0.354   3.589
  535HOH     H2 1792   0.072   0.462   3.518
  536HOH      O 1793   1.339   2.738   1.106
  536HOH     H1 1794   1.358   2.760   1.015
  536HOH     H2 1795   1.360   2.645   1.114
  537HOH      O 1796   1.108   0.840   3.097
  537HOH     H1 1797   1.043   0.850   3.027
  537HOH     H2 1798   1.193   0.847   3.052
  538HOH      O 1799   0.291   3.037   3.573
  538HOH     H1 1800   0.335   2.963   3.530
  538HOH     H2 1801   0.273   3.098   3.501
  539HOH      O 1802   1.978   3.487   0.381
  539HOH     H1 1803   1.972   3.580   0.361
  539HOH     H2 1804   2.072   3.470   0.388
  540HOH      O 1805   1.530   2.526   0.367
  540HOH     H1 1806   1.599   2.575   0.322
  540HOH     H2 1807   1.537   2.437   0.332
  541HOH      O 1808   1.918   2.064   2.462
  541HOH     H1 1809   2.011   2.065   2.484
  541HOH     H2 1810   1.880   1.997   2.519
  542HOH      O 1811   2.221   2.236   1.110
  542HOH     H1 1812   2.249   2.175   1.041
  542HOH     H2 1813   2.207   2.181   1.187
  543HOH      O 1814   1.580   3.392   3.851
  543HOH     H1 1815   1.621   3.474   3.877
  543HOH     H2 1816   1.487   3.406   3.867
  544HOH      O 1817   2.996   3.538   0.641
  544HOH     H1 1818   3.076   3.522   0.592
  544HOH     H2 1819   2.946   3.457   0.633
  545HOH      O 1820   3.965   1.587   2.570
  545HOH     H1 1821   4.009   1.615   2.650
  545HOH     H2 1822   3.951   1.667   2.520
  546HOH      O 1823   3.305   1.130   1.324
  546HOH     H1 1824   3.213   1.118   1.347
  546HOH     H2 1825   3.352   1.120   1.407
  547HOH      O 1826   2.562   3.728   1.303
  547HOH     H1 1827   2.558   3.822   1.283
  547HOH     H2 1828   2.484   3.692   1.261
  548HOH      O 1829   0.364   1.416   0.483
  548HOH     H1 1830   0.437   1.355   0.488
  548HOH     H2 1831   0.327   1.417   0.571
  549HOH      O 1832   0.741   1.685   0.562
  549HOH     H1 1833   0.691   1.758   0.598
  549HOH     H2 1834   0.820   1.681   0.616
  550HOH      O 1835   2.491   1.129   3.960
  550HOH     H1 1836   2.417   1.101   4.014
  550HOH     H2 1837   2.527   1.047   3.926
  551HOH      O 1838   1.991   1.558   2.285
  551HOH     H1 1839   2.069   1.523   2.242
  551HOH     H2 1840   1.924   1.556   2.218
  552HOH      O 1841   2.008   2.689   0.812
  552HOH     H1 1842   2.005   2.741   0.893
  552HOH     H2 1843   1.933   2.630   0.819
  553HOH      O 1844   3.025   1.176   2.190
  553HOH     H1 1845   2.948   1.145   2.237
  553HOH     H2 1846   3.091   1.192   2.258
  554HOH      O 1847   3.128   2.648   2.348
  554HOH     H1 1848   3.220   2.637   2.325
  554HOH     H2 1849   3.092   2.559   2.349
  555HOH      O 1850   1.131   0.479   2.554
  555HOH     H1 1851   1.223   0.496   2.532
  555HOH     H2 1852   1.135   0.413   2.623
  556HOH      O 1853   2.855   2.572   2.778
  556HOH     H1 1854   2.944   2.580   2.743
  556HOH     H2 1855   2.798   2.601   2.707
  557HOH      O 1856   3.177   2.718   1.931
  557HOH     H1 1857   3.140   2.747   2.015
  557HOH     H2 1858   3.178   2.797   1.877
  558HOH      O 1859   1.265   3.112   0.256
  558HOH     H1 1860   1.333   3.146   0.197
  558HOH     H2 1861   1.203   3.068   0.198
  559HOH      O 1862   3.819   2.652   0.467
  559HOH     H1 1863   3.745   2.669   0.526
  559HOH     H2 1864   3.876   2.593   0.516
  560HOH      O 1865   1.118   2.062   3.235
  560HOH     H1 1866   1.167   1.981   3.247
  560HOH     H2 1867   1.169   2.113   3.172
  561HOH      O 1868   3.465   3.680   0.346
  561HOH     H1 1869   3.533   3.723   0.397
  561HOH     H2 1870   3.469   3.722   0.260
  562HOH      O 1871   2.069   0.828   1.267
  562HOH     H1 1872   2.016   0.788   1.199
  562HOH     H2 1873   2.131   0.759   1.292
  563HOH      O 1874   1.653   2.913   3.590
  563HOH     H1 1875   1.633   2.995   3.546
  563HOH     H2 1876   1.611   2.846   3.537
  564HOH      O 1877   2.837   0.974   1.638
  564HOH     H1 1878   2.837   0.933   1.552
  564HOH     H2 1879   2.805   1.063   1.623
  565HOH      O 1880   1.382   4.025   1.908
  565HOH     H1 1881   1.349   3.968   1.978
  565HOH     H2 1882   1.316   4.017   1.839
  566HOH      O 1883   1.040   3.937   2.996
  566HOH     H1 1884   1.083   3.998   3.056
  566HOH     H2 1885   1.103   3.927   2.924
  567HOH      O 1886   2.242   3.706   1.250
  567HOH     H1 1887   2.276   3.726   1.163
  567HOH     H2 1888   2.213   3.791   1.285
  568HOH      O 1889   0.768   0.919   2.007
  568HOH     H1 1890   0.745   0.866   2.083
  568HOH     H2 1891   0.702   0.898   1.942
  569HOH      O 1892   1.381   3.178   1.017
  569HOH     H1 1893   1.437   3.106   0.988
  569HOH     H2 1894   1.439   3.255   1.018
  570HOH      O 1895   1.184   0.045   0.718
  570HOH     H1 1896   1.227   0.062   0.634
  570HOH     H2 1897   1.208   0.120   0.772
  571HOH      O 1898   0.076   1.691   2.783
  571HOH     H1 1899   0.127   1.770   2.768
  571HOH     H2 1900   0.112   1.654   2.864
  572HOH      O 1901   2.639   2.117   2.786
  572HOH     H1 1902   2.559   2.168   2.795
  572HOH     H2 1903   2.700   2.176   2.742
  573HOH      O 1904   1.892   3.352   0.148
  573HOH     H1 1905   1.925   3.405   0.220
  573HOH     H2 1906   1.805   3.389   0.129
  574HOH      O 1907   0.024   0.652   3.350
  574HOH     H1 1908  -0.027   0.651   3.431
  574HOH     H2 1909   0.027   0.744   3.324
  575HOH      O 1910   3.315   3.045   2.292
  575HOH     H1 1911   3.391   3.102   2.305
  575HOH     H2 1912   3.282   3.027   2.380
  576HOH      O 1913   2.281   3.361   1.825
  576HOH     H1 1914   2.345   3.419   1.784
  576HOH     H2 1915   2.284   3.385   1.918
  577HOH      O 1916   3.202   1.261   2.389
  577HOH     H1 1917   3.233   1.223   2.471
  577HOH     H2 1918   3.279   1.305   2.353
  578HOH      O 1919   0.204   2.346   0.116
  578HOH     H1 1920   0.163   2.262   0.136
  578HOH     H2 1921   0.136   2.397   0.072
  579HOH      O 1922   1.708   3.043   3.944
  579HOH     H1 1923   1.639   2.983   3.916
  579HOH     H2 1924   1.724   3.098   3.868
  580HOH      O 1925   0.215   0.136   3.787
  580HOH     H1 1926   0.180   0.061   3.739
  580HOH     H2 1927   0.242   0.101   3.872
  581HOH      O 1928   1.319   0.487   2.110
  581HOH     H1 1929   1.383   0.475   2.181
  581HOH     H2 1930   1.330   0.410   2.055
  582HOH      O 1931   0.553   2.291   2.443
  582HOH     H1 1932   0.476   2.257   2.398
  582HOH     H2 1933   0.537   2.385   2.451
  583HOH      O 1934   1.469   0.638   3.182
  583HOH     H1 1935   1.502   0.555   3.148
  583HOH     H2 1936   1.389   0.654   3.133
  584HOH      O 1937   3.719   0.437   2.302
  584HOH     H1 1938   3.630   0.427   2.334
  584HOH     H2 1939   3.726   0.530   2.278
  585HOH      O 1940   1.864   1.530   0.325
  585HOH     H1 1941   1.816   1.547   0.406
  585HOH     H2 1942   1.884   1.437   0.328
  586HOH      O 1943   2.652   1.359   2.782
  586HOH     H1 1944   2.642   1.296   2.711
  586HOH     H2 1945   2.695   1.435   2.741
  587HOH      O 1946   1.087   1.622   1.807
  587HOH     H1 1947   1.103   1.553   1.742
  587HOH     H2 1948   0.991   1.626   1.814
  588HOH      O 1949   2.486   0.189   3.327
  588HOH     H1 1950   2.493   0.095   3.343
  588HOH     H2 1951   2.393   0.204   3.309
  589HOH      O 1952   3.156   0.221   1.455
  589HOH     H1 1953   3.250   0.232   1.444
  589HOH     H2 1954   3.131   0.161   1.384
  590HOH      O 1955   2.452   1.326   2.036
  590HOH     H1 1956   2.492   1.402   2.079
  590HOH     H2 1957   2.460   1.346   1.943
  591HOH      O 1958   3.611   3.645   3.273
  591HOH     H1 1959   3.660   3.704   3.330
  591HOH     H2 1960   3.522   3.680   3.273
  592HOH      O 1961   1.320   1.559   0.030
  592HOH     H1 1962   1.260   1.585   0.100
  592HOH     H2 1963   1.317   1.631  -0.032
  593HOH      O 1964   0.919   3.716   1.134
  593HOH     H1 1965   0.994   3.657   1.142
  593HOH     H2 1966   0.846   3.659   1.112
  594HOH      O 1967   1.617   3.933   0.819
  594HOH     H1 1968   1.530   3.896   0.839
  594HOH     H2 1969   1.610   4.025   0.846
  595HOH      O 1970   2.342   0.864   2.522
  595HOH     H1 1971   2.340   0.878   2.617
  595HOH     H2 1972   2.253   0.883   2.493
  596HOH      O 1973   2.085   0.667   3.307
  596HOH     H1 1974   2.028   0.600   3.269
  596HOH     H2 1975   2.170   0.624   3.314
  597HOH      O 1976   0.425   0.140   1.382
  597HOH     H1 1977   0.398   0.157   1.472
  597HOH     H2 1978   0.386   0.211   1.331
  598HOH      O 1979   1.222   1.793   0.190
  598HOH     H1 1980   1.185   1.881   0.200
  598HOH     H2 1981   1.304   1.807   0.141
  599HOH      O 1982   1.792   0.989   3.093
  599HOH     H1 1983   1.747   0.918   3.139
  599HOH     H2 1984   1.866   1.011   3.150
  600HOH      O 1985   3.578   2.305   2.707
  600HOH     H1 1986   3.483   2.295   2.706
  600HOH     H2 1987   3.612   2.217   2.687
  601HOH      O 1988   2.101   1.355   3.394
  601HOH     H1 1989   2.018   1.321   3.360
  601HOH     H2 1990   2.147   1.278   3.427
  602HOH      O 1991   3.444   3.450   0.841
  602HOH     H1 1992   3.417   3.444   0.932
  602HOH     H2 1993   3.363   3.466   0.793
  603HOH      O 1994   0.264   2.938   2.827
  603HOH     H1 1995   0.223   2.873   2.770
  603HOH     H2 1996   0.199   2.955   2.896
  604HOH      O 1997   3.400   2.146   1.563
  604HOH     H1 1998   3.323   2.165   1.618
  604HOH     H2 1999   3.420   2.230   1.522
  605HOH      O 2000   2.827   0.182   3.592
  605HOH     H1 2001   2.873   0.221   3.518
  605HOH     H2 2002   2.739   0.219   3.590
  606HOH      O 2003   2.043   0.144   1.818
  606HOH     H1 2004   2.081   0.227   1.849
  606HOH     H2 2005   1.975   0.124   1.882
  607HOH      O 2006   1.394   2.134   2.345
  607HOH     H1 2007   1.314   2.124   2.396
  607HOH     H2 2008   1.465   2.119   2.407
  608HOH      O 2009   3.010   3.320   3.723
  608HOH     H1 2010   3.044   3.390   3.667
  608HOH     H2 2011   2.966   3.261   3.662
  609HOH      O 2012   0.697   2.931   3.696
  609HOH     H1 2013   0.764   2.863   3.683
  609HOH     H2 2014   0.642   2.897   3.766
  610HOH      O 2015  -0.019   1.252   0.453
  610HOH     H1 2016   0.044   1.200   0.404
  610HOH     H2 2017  -0.014   1.339   0.413
  611HOH      O 2018   0.099   2.658   3.082
  611HOH     H1 2019   0.064   2.587   3.136
  611HOH     H2 2020   0.113   2.618   2.996
  612HOH      O 2021   3.371   2.238  -0.007
  612HOH     H1 2022   3.425   2.312  -0.035
  612HOH     H2 2023   3.317   2.272   0.064
  613HOH      O 2024   2.377   2.265   2.345
  613HOH     H1 2025   2.325   2.235   2.419
  613HOH     H2 2026   2.452   2.206   2.341
  614HOH      O 2027   3.314   0.437   0.976
  614HOH     H1 2028   3.265   0.445   1.058
  614HOH     H2 2029   3.388   0.496   0.987
  615HOH      O 2030   1.541   1.448   1.868
  615HOH     H1 2031   1.542   1.488   1.781
  615HOH     H2 2032   1.451   1.418   1.880
  616HOH      O 2033   1.812   2.527   0.856
  616HOH     H1 2034   1.744   2.462   0.839
  616HOH     H2 2035   1.882   2.478   0.899
  617HOH      O 2036   2.548   0.982   2.393
  617HOH     H1 2037   2.463   0.942   2.411
  617HOH     H2 2038   2.543   1.008   2.301
  618HOH      O 2039   2.303   2.846   0.972
  618HOH     H1 2040   2.367   2.775   0.973
  618HOH     H2 2041   2.289   2.867   1.065
  619HOH      O 2042   3.021   3.511   3.933
  619HOH     H1 2043   3.111   3.496   3.960
  619HOH     H2 2044   3.004   3.443   3.867
  620HOH      O 2045   3.491   3.268   1.351
  620HOH     H1 2046   3.443   3.185   1.349
  620HOH     H2 2047   3.513   3.281   1.444
  621HOH      O 2048   2.847   3.474   3.079
  621HOH     H1 2049   2.898   3.446   3.155
  621HOH     H2 2050   2.809   3.558   3.105
  622HOH      O 2051   2.701   3.635   3.871
  622HOH     H1 2052   2.710   3.593   3.956
  622HOH     H2 2053   2.665   3.567   3.814
  623HOH      O 2054   0.289   1.812   1.119
  623HOH     H1 2055   0.257   1.852   1.039
  623HOH     H2 2056   0.311   1.722   1.094
  624HOH      O 2057   2.539   3.836   3.906
  624HOH     H1 2058   2.593   3.913   3.887
  624HOH     H2 2059   2.598   3.762   3.892
  625HOH      O 2060   0.210   3.623   2.497
  625HOH     H1 2061   0.295   3.597   2.462
  625HOH     H2 2062   0.229   3.702   2.548
  626HOH      O 2063   1.637   1.598   3.061
  626HOH     H1 2064   1.564   1.573   3.117
  626HOH     H2 2065   1.616   1.559   2.976
  627HOH      O 2066   3.206   3.926   3.609
  627HOH     H1 2067   3.188   3.857   3.673
  627HOH     H2 2068   3.127   3.931   3.556
  628HOH      O 2069   3.630   3.064   2.541
  628HOH     H1 2070   3.586   2.984   2.572
  628HOH     H2 2071   3.658   3.108   2.622
  629HOH      O 2072   1.027   1.195   3.159
  629HOH     H1 2073   1.092   1.155   3.216
  629HOH     H2 2074   1.066   1.192   3.071
  630HOH      O 2075   1.414   0.315   3.600
  630HOH     H1 2076   1.384   0.354   3.682
  630HOH     H2 2077   1.439   0.390   3.545
  631HOH      O 2078   1.299   1.323   1.909
  631HOH     H1 2079   1.328   1.305   1.999
  631HOH     H2 2080   1.272   1.238   1.875
  632HOH      O 2081   2.689   0.768   3.189
  632HOH     H1 2082   2.759   0.811   3.238
  632HOH     H2 2083   2.655   0.701   3.248
  633HOH      O 2084   2.660   0.750   3.998
  633HOH     H1 2085   2.648   0.812   3.926
  633HOH     H2 2086   2.752   0.723   3.991
  634HOH      O 2087   1.488   1.041   3.937
  634HOH     H1 2088   1.485   1.067   4.029
  634HOH     H2 2089   1.510   0.948   3.939
  635HOH      O 2090   0.748   2.761   1.092
  635HOH     H1 2091   0.690   2.810   1.150
  635HOH     H2 2092   0.780   2.688   1.145
  636HOH      O 2093   0.940   3.185   1.473
  636HOH     H1 2094   0.873   3.220   1.415
  636HOH     H2 2095   0.892   3.134   1.538
  637HOH      O 2096   2.531   3.442   2.628
  637HOH     H1 2097   2.604   3.492   2.664
  637HOH     H2 2098   2.569   3.394   2.554
  638HOH      O 2099   3.853   0.685   2.507
  638HOH     H1 2100   3.768   0.677   2.550
  638HOH     H2 2101   3.831   0.712   2.417
  639HOH      O 2102   1.144   3.325   3.094
  639HOH     H1 2103   1.201   3.327   3.170
  639HOH     H2 2104   1.066   3.373   3.121
  640HOH      O 2105   3.062   3.976   3.031
  640HOH     H1 2106   3.137   4.035   3.021
  640HOH     H2 2107   2.987   4.028   3.002
  641HOH      O 2108   1.927   3.106   0.108
  641HOH     H1 2109   1.902   3.197   0.122
  641HOH     H2 2110   1.870   3.075   0.038
  642HOH      O 2111   1.138   3.842   3.513
  642HOH     H1 2112   1.188   3.859   3.593
  642HOH     H2 2113   1.155   3.917   3.457
  643HOH      O 2114   2.920   2.342   0.614
  643HOH     H1 2115   2.985   2.411   0.605
  643HOH     H2 2116   2.840   2.388   0.641
  644HOH      O 2117   2.921   1.991   0.312
  644HOH     H1 2118   2.897   2.083   0.308
  644HOH     H2 2119   2.891   1.962   0.398
  645HOH      O 2120   1.630   3.457   0.148
  645HOH     H1 2121   1.544   3.498   0.136
  645HOH     H2 2122   1.614   3.387   0.211
  646HOH      O 2123   2.132   0.786   0.214
  646HOH     H1 2124   2.038   0.797   0.233
  646HOH     H2 2125   2.164   0.876   0.206
  647HOH      O 2126   1.459   1.058   2.739
  647HOH     H1 2127   1.516   1.124   2.701
  647HOH     H2 2128   1.517   0.986   2.762
  648HOH      O 2129   1.729   0.643   2.010
  648HOH     H1 2130   1.645   0.688   2.008
  648HOH     H2 2131   1.767   0.660   1.924
  649HOH      O 2132   3.311   0.129   1.175
  649HOH     H1 2133   3.355   0.209   1.146
  649HOH     H2 2134   3.367   0.094   1.243
  650HOH      O 2135   1.074   0.602   2.033
  650HOH     H1 2136   1.068   0.614   2.128
  650HOH     H2 2137   1.162   0.567   2.019
  651HOH      O 2138   3.684   3.768   1.080
  651HOH     H1 2139   3.616   3.812   1.131
  651HOH     H2 2140   3.675   3.675   1.102
  652HOH      O 2141   0.237   3.508   1.607
  652HOH     H1 2142   0.170   3.487   1.673
  652HOH     H2 2143   0.307   3.549   1.657
  653HOH      O 2144   2.217   0.794   0.952
  653HOH     H1 2145   2.251   0.735   1.020
  653HOH     H2 2146   2.287   0.858   0.939
  654HOH      O 2147   1.516   1.936   0.794
  654HOH     H1 2148   1.462   1.884   0.735
  654HOH     H2 2149   1.605   1.904   0.780
  655HOH      O 2150   3.550   0.141   3.796
  655HOH     H1 2151   3.583   0.089   3.723
  655HOH     H2 2152   3.456   0.152   3.777
  656HOH      O 2153   4.013   3.453   1.744
  656HOH     H1 2154   3.972   3.533   1.711
  656HOH     H2 2155   3.943   3.409   1.792
  657HOH      O 2156   2.522   1.920   2.631
  657HOH     H1 2157   2.435   1.914   2.671
  657HOH     H2 2158   2.575   1.967   2.696
  658HOH      O 2159   1.545   0.816   0.448
  658HOH     H1 2160   1.523   0.760   0.373
  658HOH     H2 2161   1.617   0.771   0.491
  659HOH      O 2162   2.029   3.896   3.729
  659HOH     H1 2163   2.124   3.884   3.727
  659HOH     H2 2164   1.994   3.807   3.735
  660HOH      O 2165  -0.001   3.623   3.364
  660HOH     H1 2166   0.075   3.565   3.354
  660HOH     H2 2167   0.035   3.705   3.399
  661HOH      O 2168   1.813   3.174   1.982
  661HOH     H1 2169   1.872   3.226   1.927
  661HOH     H2 2170   1.829   3.205   2.071
  662HOH      O 2171   2.650   1.729   0.397
  662HOH     H1 2172   2.707   1.796   0.435
  662HOH     H2 2173   2.710   1.658   0.371
  663HOH      O 2174   0.961   0.241   2.409
  663HOH     H1 2175   0.953   0.206   2.320
  663HOH     H2 2176   1.050   0.276   2.414
  664HOH      O 2177   0.944   1.756   0.713
  664HOH     H1 2178   1.027   1.733   0.755
  664HOH     H2 2179   0.957   1.846   0.681
  665HOH      O 2180   2.319   1.752   1.221
  665HOH     H1 2181   2.341   1.762   1.128
  665HOH     H2 2182   2.281   1.836   1.246
  666HOH      O 2183   2.540   3.654   2.246
  666HOH     H1 2184   2.572   3.744   2.239
  666HOH     H2 2185   2.595   3.614   2.313
  667HOH      O 2186   1.943   0.206   0.643
  667HOH     H1 2187   1.895   0.235   0.721
  667HOH     H2 2188   1.879   0.158   0.591
  668HOH      O 2189   1.711   2.680   2.328
  668HOH     H1 2190   1.629   2.703   2.284
  668HOH     H2 2191   1.748   2.765   2.353
  669HOH      O 2192   3.441   0.471   2.046
  669HOH     H1 2193   3.458   0.495   2.137
  669HOH     H2 2194   3.385   0.541   2.013
  670HOH      O 2195   1.705   0.613   0.855
  670HOH     H1 2196   1.646   0.548   0.893
  670HOH     H2 2197   1.687   0.609   0.761
  671HOH      O 2198   2.296   2.852   0.237
  671HOH     H1 2199   2.312   2.925   0.297
  671HOH     H2 2200   2.277   2.778   0.294
  672HOH      O 2201   1.733   0.678   3.676
  672HOH     H1 2202   1.660   0.628   3.712
  672HOH     H2 2203   1.796   0.684   3.748
  673HOH      O 2204   0.508   1.213   2.593
  673HOH     H1 2205   0.416   1.211   2.620
  673HOH     H2 2206   0.557   1.184   2.670
  674HOH      O 2207   3.669   2.844   3.853
  674HOH     H1 2208   3.632   2.796   3.778
  674HOH     H2 2209   3.598   2.903   3.880
  675HOH      O 2210   3.182   0.333   3.528
  675HOH     H1 2211   3.241   0.328   3.453
  675HOH     H2 2212   3.095   0.339   3.489
  676HOH      O 2213   0.398   2.985   0.393
  676HOH     H1 2214   0.368   2.914   0.336
  676HOH     H2 2215   0.324   3.045   0.397
  677HOH      O 2216   3.023   2.801   0.875
  677HOH     H1 2217   2.928   2.817   0.868
  677HOH     H2 2218   3.062   2.885   0.850
  678HOH      O 2219   2.323   2.058   3.102
  678HOH     H1 2220   2.315   1.976   3.151
  678HOH     H2 2221   2.236   2.097   3.107
  679HOH      O 2222   2.187   0.866   1.568
  679HOH     H1 2223   2.265   0.822   1.601
  679HOH     H2 2224   2.221   0.936   1.512
  680HOH      O 2225   2.095   3.442   3.974
  680HOH     H1 2226   2.039   3.412   3.902
  680HOH     H2 2227   2.050   3.411   4.053
  681HOH      O 2228   0.725   1.570   3.003
  681HOH     H1 2229   0.748   1.631   3.072
  681HOH     H2 2230   0.775   1.491   3.023
  682HOH      O 2231   0.471   0.424   2.536
  682HOH     H1 2232   0.469   0.498   2.595
  682HOH     H2 2233   0.563   0.417   2.509
  683HOH      O 2234   1.915   3.052   1.661
  683HOH     H1 2235   1.891   2.959   1.660
  683HOH     H2 2236   1.835   3.098   1.639
  684HOH      O 2237   3.231   2.659   3.719
  684HOH     H1 2238   3.199   2.599   3.787
  684HOH     H2 2239   3.281   2.604   3.660
  685HOH      O 2240   1.623   2.056   1.088
  685HOH     H1 2241   1.650   1.980   1.037
  685HOH     H2 2242   1.564   2.021   1.155
  686HOH      O 2243   0.078   1.833   1.372
  686HOH     H1 2244   0.047   1.747   1.341
  686HOH     H2 2245  -0.001   1.876   1.404
  687HOH      O 2246   3.213   2.216   1.747
  687HOH     H1 2247   3.201   2.300   1.793
  687HOH     H2 2248   3.295   2.181   1.783
  688HOH      O 2249   2.497   3.999   2.509
  688HOH     H1 2250   2.489   4.087   2.470
  688HOH     H2 2251   2.524   3.944   2.436
  689HOH      O 2252   3.845   2.821   1.502
  689HOH     H1 2253   3.922   2.767   1.486
  689HOH     H2 2254   3.871   2.880   1.573
  690HOH      O 2255   3.860   3.401   0.473
  690HOH     H1 2256   3.915   3.378   0.547
  690HOH     H2 2257   3.780   3.350   0.485
  691HOH      O 2258   2.737   2.662   2.542
  691HOH     H1 2259   2.692   2.745   2.558
  691HOH     H2 2260   2.727   2.648   2.448
  692HOH      O 2261   2.679   0.272   1.616
  692HOH     H1 2262   2.722   0.329   1.552
  692HOH     H2 2263   2.589   0.266   1.586
  693HOH      O 2264   3.816   3.225   0.931
  693HOH     H1 2265   3.814   3.307   0.981
  693HOH     H2 2266   3.839   3.158   0.996
  694HOH      O 2267   1.452   1.840   0.060
  694HOH     H1 2268   1.482   1.909   0.002
  694HOH     H2 2269   1.515   1.769   0.047
  695HOH      O 2270   2.708   3.063   1.056
  695HOH     H1 2271   2.636   3.067   1.119
  695HOH     H2 2272   2.787   3.075   1.108
  696HOH      O 2273   1.666   3.138   1.639
  696HOH     H1 2274   1.587   3.142   1.585
  696HOH     H2 2275   1.637   3.103   1.723
  697HOH      O 2276   1.155   2.813   1.306
  697HOH     H1 2277   1.189   2.774   1.225
  697HOH     H2 2278   1.091   2.878   1.276
  698HOH      O 2279   2.939   0.199   0.027
  698HOH     H1 2280   2.943   0.192   0.122
  698HOH     H2 2281   3.027   0.224   0.001
  699HOH      O 2282   1.193   2.923   2.617
  699HOH     H1 2283   1.270   2.909   2.561
  699HOH     H2 2284   1.224   2.906   2.706
  700HOH      O 2285   3.465   2.121   1.823
  700HOH     H1 2286   3.475   2.123   1.728
  700HOH     H2 2287   3.499   2.036   1.849
  701HOH      O 2288   0.109   0.512   1.693
  701HOH     H1 2289   0.162   0.492   1.771
  701HOH     H2 2290   0.085   0.604   1.705
  702HOH      O 2291   1.309   1.281   1.557
  702HOH     H1 2292   1.392   1.246   1.591
  702HOH     H2 2293   1.261   1.205   1.526
  703HOH      O 2294   0.505   2.020   1.217
  703HOH     H1 2295   0.584   1.965   1.224
  703HOH     H2 2296   0.492   2.030   1.123
  704HOH      O 2297   2.972   1.192   3.525
  704HOH     H1 2298   3.001   1.277   3.493
  704HOH     H2 2299   3.042   1.162   3.582
  705HOH      O 2300   1.465   3.897   3.002
  705HOH     H1 2301   1.464   3.992   2.993
  705HOH     H2 2302   1.532   3.879   3.069
  706HOH      O 2303   0.761   0.410   1.191
  706HOH     H1 2304   0.665   0.407   1.182
  706HOH     H2 2305   0.793   0.363   1.115
  707HOH      O 2306   3.499   2.035   2.213
  707HOH     H1 2307   3.466   2.048   2.302
  707HOH     H2 2308   3.425   2.055   2.156
  708HOH      O 2309   2.826   0.079   1.351
  708HOH     H1 2310   2.912   0.051   1.318
  708HOH     H2 2311   2.803   0.154   1.297
  709HOH      O 2312   1.108   1.136   2.105
  709HOH     H1 2313   1.055   1.180   2.172
  709HOH     H2 2314   1.190   1.114   2.149
  710HOH      O 2315   0.455   2.422   3.340
  710HOH     H1 2316   0.362   2.441   3.332
  710HOH     H2 2317   0.473   2.425   3.434
  711HOH      O 2318   3.485   0.261   1.423
  711HOH     H1 2319   3.549   0.331   1.433
  711HOH     H2 2320   3.517   0.191   1.480
  712HOH      O 2321   2.727   0.542   1.498
  712HOH     H1 2322   2.724   0.575   1.588
  712HOH     H2 2323   2.820   0.525   1.482
  713HOH      O 2324   3.429   0.256   1.815
  713HOH     H1 2325   3.401   0.279   1.904
  713HOH     H2 2326   3.416   0.337   1.765
  714HOH      O 2327   0.621   2.347   0.111
  714HOH     H1 2328   0.698   2.310   0.069
  714HOH     H2 2329   0.639   2.343   0.205
  715HOH      O 2330   0.772   2.999   2.007
  715HOH     H1 2331   0.848   2.967   2.055
  715HOH     H2 2332   0.725   2.920   1.979
  716HOH      O 2333   2.215   2.876   2.093
  716HOH     H1 2334   2.144   2.870   2.029
  716HOH     H2 2335   2.192   2.950   2.149
  717HOH      O 2336   2.250   1.252   0.278
  717HOH     H1 2337   2.156   1.244   0.295
  717HOH     H2 2338   2.271   1.343   0.297
  718HOH      O 2339   3.953   1.519   0.754
  718HOH     H1 2340   3.861   1.494   0.761
  718HOH     H2 2341   3.975   1.554   0.840
  719HOH      O 2342   0.065   3.560   2.187
  719HOH     H1 2343  -0.018   3.592   2.152
  719HOH     H2 2344   0.123   3.554   2.111
  720HOH      O 2345   1.063   1.854   0.996
  720HOH     H1 2346   1.000   1.913   1.039
  720HOH     H2 2347   1.019   1.769   0.997
  721HOH      O 2348   1.668   0.344   3.835
  721HOH     H1 2349   1.604   0.414   3.851
  721HOH     H2 2350   1.615   0.265   3.824
  722HOH      O 2351   1.771   1.262   0.107
  722HOH     H1 2352   1.724   1.341   0.135
  722HOH     H2 2353   1.703   1.202   0.077
  723HOH      O 2354   1.483   0.139   3.060
  723HOH     H1 2355   1.447   0.169   3.143
  723HOH     H2 2356   1.556   0.198   3.042
  724HOH      O 2357   3.151   3.873   1.435
  724HOH     H1 2358   3.241   3.869   1.404
  724HOH     H2 2359   3.149   3.813   1.509
  725HOH      O 2360   1.264   1.035   1.168
  725HOH     H1 2361   1.199   1.039   1.097
  725HOH     H2 2362   1.320   1.111   1.153
  726HOH      O 2363   0.743   3.682   3.554
  726HOH     H1 2364   0.724   3.773   3.530
  726HOH     H2 2365   0.747   3.684   3.650
  727HOH      O 2366   3.931   1.059   1.598
  727HOH     H1 2367   3.865   1.102   1.543
  727HOH     H2 2368   3.912   1.089   1.687
  728HOH      O 2369   0.363   2.461   1.208
  728HOH     H1 2370   0.432   2.471   1.142
  728HOH     H2 2371   0.382   2.528   1.273
  729HOH      O 2372   3.106   3.747   2.883
  729HOH     H1 2373   3.073   3.827   2.924
  729HOH     H2 2374   3.051   3.735   2.806
  730HOH      O 2375   0.772   1.716   1.403
  730HOH     H1 2376   0.712   1.719   1.329
  730HOH     H2 2377   0.859   1.712   1.364
  731HOH      O 2378   2.697   1.415   0.799
  731HOH     H1 2379   2.764   1.347   0.811
  731HOH     H2 2380   2.724   1.486   0.857
  732HOH      O 2381   3.829   1.150   1.870
  732HOH     H1 2382   3.787   1.179   1.952
  732HOH     H2 2383   3.762   1.098   1.827
  733HOH      O 2384   3.521   2.858   3.509
  733HOH     H1 2385   3.427   2.872   3.511
  733HOH     H2 2386   3.534   2.789   3.443
  734HOH      O 2387   3.274   0.962   2.507
  734HOH     H1 2388   3.313   0.925   2.428
  734HOH     H2 2389   3.179   0.949   2.495
  735HOH      O 2390   1.793   3.871   0.609
  735HOH     H1 2391   1.729   3.906   0.671
  735HOH     H2 2392   1.872   3.858   0.661
  736HOH      O 2393   1.913   1.528   2.993
  736HOH     H1 2394   1.924   1.488   3.080
  736HOH     H2 2395   1.818   1.530   2.980
  737HOH      O 2396   3.064   3.057   0.785
  737HOH     H1 2397   3.099   3.146   0.788
  737HOH     H2 2398   2.970   3.069   0.770
  738HOH      O 2399   2.776   2.347   2.180
  738HOH     H1 2400   2.857   2.334   2.131
  738HOH     H2 2401   2.707   2.322   2.119
  739HOH      O 2402   1.829   0.819   2.292
  739HOH     H1 2403   1.758   0.773   2.248
  739HOH     H2 2404   1.849   0.893   2.235
  740HOH      O 2405   0.440   3.573   0.697
  740HOH     H1 2406   0.382   3.647   0.675
  740HOH     H2 2407   0.516   3.614   0.738
  741HOH      O 2408   3.373   3.801   3.311
  741HOH     H1 2409   3.278   3.796   3.299
  741HOH     H2 2410   3.398   3.882   3.265
  742HOH      O 2411   3.407   3.064   2.034
  742HOH     H1 2412   3.406   3.160   2.028
  742HOH     H2 2413   3.370   3.045   2.120
  743HOH      O 2414   0.023   1.567   2.127
  743HOH     H1 2415   0.104   1.584   2.176
  743HOH     H2 2416   0.032   1.619   2.047
  744HOH      O 2417   1.105   1.518   3.342
  744HOH     H1 2418   1.062   1.529   3.426
  744HOH     H2 2419   1.037   1.538   3.277
  745HOH      O 2420   2.923   1.967   1.923
  745HOH     H1 2421   2.938   1.874   1.909
  745HOH     H2 2422   2.850   1.971   1.985
  746HOH      O 2423   1.431   3.098   1.527
  746HOH     H1 2424   1.337   3.090   1.542
  746HOH     H2 2425   1.448   3.041   1.452
  747HOH      O 2426   2.946   0.710   3.931
  747HOH     H1 2427   2.991   0.712   3.847
  747HOH     H2 2428   2.942   0.617   3.955
  748HOH      O 2429   3.715   3.137   0.310
  748HOH     H1 2430   3.793   3.135   0.254
  748HOH     H2 2431   3.681   3.048   0.306
  749HOH      O 2432   0.249   1.672   0.426
  749HOH     H1 2433   0.298   1.590   0.435
  749HOH     H2 2434   0.316   1.740   0.428
  750HOH      O 2435   2.771   0.413   0.742
  750HOH     H1 2436   2.695   0.375   0.697
  750HOH     H2 2437   2.734   0.470   0.808
  751HOH      O 2438   1.209   1.813   3.329
  751HOH     H1 2439   1.213   1.785   3.421
  751HOH     H2 2440   1.174   1.736   3.283
  752HOH      O 2441   2.270   2.250   1.460
  752HOH     H1 2442   2.338   2.318   1.470
  752HOH     H2 2443   2.188   2.298   1.464
  753HOH      O 2444   1.355   1.638   1.564
  753HOH     H1 2445   1.418   1.677   1.624
  753HOH     H2 2446   1.360   1.544   1.582
  754HOH      O 2447   1.351   0.958   3.658
  754HOH     H1 2448   1.433   0.940   3.613
  754HOH     H2 2449   1.364   1.044   3.698
  755HOH      O 2450   3.152   2.162   0.366
  755HOH     H1 2451   3.127   2.070   0.368
  755HOH     H2 2452   3.074   2.208   0.335
  756HOH      O 2453   0.329   4.050   1.079
  756HOH     H1 2454   0.326   3.960   1.046
  756HOH     H2 2455   0.270   4.050   1.155
  757HOH      O 2456   3.996   3.300   0.240
  757HOH     H1 2457   3.948   3.362   0.186
  757HOH     H2 2458   3.974   3.326   0.330
  758HOH      O 2459   4.001   0.207   3.710
  758HOH     H1 2460   3.955   0.235   3.789
  758HOH     H2 2461   4.086   0.176   3.742
  759HOH      O 2462   2.727   3.760   3.446
  759HOH     H1 2463   2.676   3.682   3.466
  759HOH     H2 2464   2.782   3.773   3.524
  760HOH      O 2465   2.146   2.686   2.504
  760HOH     H1 2466   2.111   2.601   2.477
  760HOH     H2 2467   2.241   2.676   2.497
  761HOH      O 2468   0.884   2.025   1.932
  761HOH     H1 2469   0.935   2.081   1.874
  761HOH     H2 2470   0.931   1.942   1.934
  762HOH      O 2471   0.592   2.630   2.850
  762HOH     H1 2472   0.589   2.611   2.944
  762HOH     H2 2473   0.602   2.725   2.845
  763HOH      O 2474   1.478   1.333   3.990
  763HOH     H1 2475   1.507   1.277   4.063
  763HOH     H2 2476   1.412   1.390   4.029
  764HOH      O 2477   2.369   2.559   1.438
  764HOH     H1 2478   2.389   2.512   1.357
  764HOH     H2 2479   2.444   2.617   1.451
  765HOH      O 2480   3.459   3.763   3.844
  765HOH     H1 2481   3.440   3.827   3.913
  765HOH     H2 2482   3.461   3.815   3.763
  766HOH      O 2483   1.664   2.586   1.333
  766HOH     H1 2484   1.679   2.504   1.380
  766HOH     H2 2485   1.751   2.626   1.327
  767HOH      O 2486   2.220   0.172   3.327
  767HOH     H1 2487   2.147   0.211   3.375
  767HOH     H2 2488   2.188   0.163   3.237
  768HOH      O 2489   3.690   0.989   2.656
  768HOH     H1 2490   3.729   0.940   2.729
  768HOH     H2 2491   3.596   0.983   2.671
  769HOH      O 2492   3.457   0.651   0.973
  769HOH     H1 2493   3.395   0.714   0.937
  769HOH     H2 2494   3.476   0.683   1.061
  770HOH      O 2495   1.267   0.262   0.928
  770HOH     H1 2496   1.203   0.234   0.994
  770HOH     H2 2497   1.240   0.350   0.904
  771HOH      O 2498   3.267   1.781   1.386
  771HOH     H1 2499   3.342   1.799   1.444
  771HOH     H2 2500   3.307   1.759   1.302
  772HOH      O 2501   3.616   3.669   2.857
  772HOH     H1 2502   3.524   3.696   2.861
  772HOH     H2 2503   3.615   3.576   2.881
  773HOH      O 2504   2.636   0.260   0.270
  773HOH     H1 2505   2.606   0.334   0.217
  773HOH     H2 2506   2.557   0.210   0.289
  774HOH      O 2507   3.656   3.896   0.597
  774HOH     H1 2508   3.637   3.888   0.691
  774HOH     H2 2509   3.751   3.908   0.594
  775HOH      O 2510   1.495   2.197   0.625
  775HOH     H1 2511   1.530   2.110   0.646
  775HOH     H2 2512   1.424   2.210   0.688
  776HOH      O 2513   3.918   1.593   1.557
  776HOH     H1 2514   3.905   1.687   1.560
  776HOH     H2 2515   4.009   1.580   1.583
  777HOH      O 2516   3.360   3.816   2.855
  777HOH     H1 2517   3.365   3.908   2.883
  777HOH     H2 2518   3.267   3.794   2.862
  778HOH      O 2519   0.760   2.058   1.397
  778HOH     H1 2520   0.669   2.060   1.428
  778HOH     H2 2521   0.812   2.069   1.476
  779HOH      O 2522   3.332   2.371   2.205
  779HOH     H1 2523   3.361   2.460   2.228
  779HOH     H2 2524   3.351   2.319   2.282
  780HOH      O 2525   1.447   2.618   0.798
  780HOH     H1 2526   1.367   2.666   0.821
  780HOH     H2 2527   1.486   2.669   0.727
  781HOH      O 2528   0.378   1.691   3.797
  781HOH     H1 2529   0.433   1.615   3.775
  781HOH     H2 2530   0.399   1.756   3.730
  782HOH      O 2531   3.039   0.669   3.140
  782HOH     H1 2532   3.106   0.649   3.205
  782HOH     H2 2533   3.029   0.765   3.144
  783HOH      O 2534   1.806   2.245   3.367
  783HOH     H1 2535   1.856   2.282   3.440
  783HOH     H2 2536   1.779   2.321   3.316
  784HOH      O 2537   0.935   1.334   2.648
  784HOH     H1 2538   0.890   1.264   2.695
  784HOH     H2 2539   0.880   1.411   2.660
  785HOH      O 2540   0.376   3.242   1.315
  785HOH     H1 2541   0.408   3.284   1.235
  785HOH     H2 2542   0.282   3.230   1.300
  786HOH      O 2543   1.304   0.905   2.041
  786HOH     H1 2544   1.214   0.903   2.009
  786HOH     H2 2545   1.315   0.994   2.075
  787HOH      O 2546   0.380   3.465   2.088
  787HOH     H1 2547   0.426   3.435   2.010
  787HOH     H2 2548   0.310   3.522   2.055
  788HOH      O 2549   1.774   3.813   3.246
  788HOH     H1 2550   1.761   3.867   3.168
  788HOH     H2 2551   1.831   3.867   3.302
  789HOH      O 2552   1.428   1.402   2.533
  789HOH     H1 2553   1.493   1.367   2.472
  789HOH     H2 2554   1.418   1.494   2.508
  790HOH      O 2555   1.106   3.541   0.044
  790HOH     H1 2556   1.054   3.620   0.030
  790HOH     H2 2557   1.113   3.533   0.139
  791HOH      O 2558   2.879   2.672   3.659
  791HOH     H1 2559   2.821   2.642   3.590
  791HOH     H2 2560   2.967   2.668   3.620
  792HOH      O 2561   2.053   1.890   3.459
  792HOH     H1 2562   2.120   1.883   3.391
  792HOH     H2 2563   1.994   1.817   3.441
  793HOH      O 2564   3.585   0.322   2.644
  793HOH     H1 2565   3.667   0.276   2.663
  793HOH     H2 2566   3.592   0.346   2.552
  794HOH      O 2567   0.649   1.443   0.655
  794HOH     H1 2568   0.689   1.518   0.611
  794HOH     H2 2569   0.611   1.479   0.735
  795HOH      O 2570   3.982   2.400   2.720
  795HOH     H1 2571   4.027   2.451   2.787
  795HOH     H2 2572   3.923   2.462   2.678
  796HOH      O 2573   3.348   2.213   2.420
  796HOH     H1 2574   3.353   2.237   2.512
  796HOH     H2 2575   3.257   2.186   2.406
  797HOH      O 2576   3.138   0.170   2.045
  797HOH     H1 2577   3.205   0.148   2.110
  797HOH     H2 2578   3.089   0.089   2.033
  798HOH      O 2579   2.434   0.417   3.794
  798HOH     H1 2580   2.436   0.372   3.878
  798HOH     H2 2581   2.390   0.500   3.812
  799HOH      O 2582   1.367   3.801   0.769
  799HOH     H1 2583   1.312   3.752   0.707
  799HOH     H2 2584   1.313   3.876   0.793
  800HOH      O 2585   1.092   0.769   2.276
  800HOH     H1 2586   1.160   0.807   2.333
  800HOH     H2 2587   1.105   0.812   2.191
  801HOH      O 2588   0.155   1.506   1.629
  801HOH     H1 2589   0.224   1.509   1.695
  801HOH     H2 2590   0.094   1.440   1.661
  802HOH      O 2591   3.070   2.484   3.165
  802HOH     H1 2592   3.159   2.510   3.188
  802HOH     H2 2593   3.032   2.456   3.248
  803HOH      O 2594   1.595   3.624   1.320
  803HOH     H1 2595   1.570   3.573   1.243
  803HOH     H2 2596   1.595   3.561   1.391
  804HOH      O 2597   3.130   3.084   3.961
  804HOH     H1 2598   3.156   3.021   3.894
  804HOH     H2 2599   3.187   3.160   3.946
  805HOH      O 2600   3.062   2.156   2.365
  805HOH     H1 2601   2.976   2.119   2.344
  805HOH     H2 2602   3.044   2.247   2.388
  806HOH      O 2603   0.286   0.330   0.378
  806HOH     H1 2604   0.275   0.241   0.411
  806HOH     H2 2605   0.365   0.362   0.420
  807HOH      O 2606   2.405   0.244   1.786
  807HOH     H1 2607   2.431   0.326   1.828
  807HOH     H2 2608   2.343   0.271   1.718
  808HOH      O 2609   0.943   2.883   3.063
  808HOH     H1 2610   0.855   2.859   3.093
  808HOH     H2 2611   0.993   2.897   3.144
  809HOH      O 2612   3.223   1.925   0.694
  809HOH     H1 2613   3.256   1.892   0.610
  809HOH     H2 2614   3.199   1.846   0.742
  810HOH      O 2615   0.215   3.034   2.130
  810HOH     H1 2616   0.236   3.045   2.223
  810HOH     H2 2617   0.250   2.947   2.108
  811HOH      O 2618   4.023   2.220   3.012
  811HOH     H1 2619   3.995   2.143   3.062
  811HOH     H2 2620   4.058   2.184   2.931
  812HOH      O 2621   2.177   2.007   2.538
  812HOH     H1 2622   2.217   1.944   2.597
  812HOH     H2 2623   2.205   2.093   2.571
  813HOH      O 2624   1.162   3.004   1.514
  813HOH     H1 2625   1.081   3.052   1.494
  813HOH     H2 2626   1.164   2.933   1.451
  814HOH      O 2627   3.464   1.333   2.322
  814HOH     H1 2628   3.438   1.388   2.249
  814HOH     H2 2629   3.519   1.389   2.377
  815HOH      O 2630   1.843   1.445   0.666
  815HOH     H1 2631   1.810   1.393   0.593
  815HOH     H2 2632   1.786   1.521   0.670
  816HOH      O 2633   0.963   2.833   1.628
  816HOH     H1 2634   0.908   2.911   1.617
  816HOH     H2 2635   1.052   2.867   1.632
  817HOH      O 2636   3.860   1.107   0.687
  817HOH     H1 2637   3.911   1.153   0.620
  817HOH     H2 2638   3.873   1.015   0.668
  818HOH      O 2639   2.548   3.067   2.888
  818HOH     H1 2640   2.522   3.102   2.973
  818HOH     H2 2641   2.563   2.974   2.904
  819HOH      O 2642   1.320   1.828   0.613
  819HOH     H1 2643   1.293   1.755   0.668
  819HOH     H2 2644   1.245   1.887   0.613
  820HOH      O 2645   0.068   0.852   3.013
  820HOH     H1 2646   0.125   0.776   3.003
  820HOH     H2 2647   0.051   0.857   3.107
  821HOH      O 2648   0.280   4.014   1.843
  821HOH     H1 2649   0.225   3.999   1.920
  821HOH     H2 2650   0.370   4.001   1.875
  822HOH      O 2651   3.459   0.520   1.696
  822HOH     H1 2652   3.554   0.532   1.694
  822HOH     H2 2653   3.427   0.586   1.758
  823HOH      O 2654   3.122   3.704   2.161
  823HOH     H1 2655   3.143   3.788   2.203
  823HOH     H2 2656   3.028   3.695   2.172
  824HOH      O 2657   3.705   2.734   3.017
  824HOH     H1 2658   3.694   2.669   2.948
  824HOH     H2 2659   3.765   2.799   2.981
  825HOH      O 2660   2.490   2.448   2.537
  825HOH     H1 2661   2.436   2.392   2.483
  825HOH     H2 2662   2.468   2.537   2.511
  826HOH      O 2663   0.305   3.777   0.996
  826HOH     H1 2664   0.283   3.722   1.071
  826HOH     H2 2665   0.256   3.739   0.923
  827HOH      O 2666   2.944   3.274   0.404
  827HOH     H1 2667   2.954   3.265   0.309
  827HOH     H2 2668   3.022   3.232   0.440
  828HOH      O 2669   2.908   0.958   3.336
  828HOH     H1 2670   2.936   1.049   3.342
  828HOH     H2 2671   2.826   0.954   3.384
  829HOH      O 2672   0.673  -0.007   3.959
  829HOH     H1 2673   0.599   0.017   4.014
  829HOH     H2 2674   0.654   0.034   3.874
  830HOH      O 2675   1.382   3.590   3.681
  830HOH     H1 2676   1.398   3.583   3.587
  830HOH     H2 2677   1.293   3.556   3.692
  831HOH      O 2678   1.514   1.686   3.612
  831HOH     H1 2679   1.436   1.656   3.658
  831HOH     H2 2680   1.517   1.634   3.532
  832HOH      O 2681   1.773   3.198   0.942
  832HOH     H1 2682   1.729   3.255   1.005
  832HOH     H2 2683   1.866   3.210   0.959
  833HOH      O 2684   1.728   0.395   2.146
  833HOH     H1 2685   1.718   0.342   2.067
  833HOH     H2 2686   1.749   0.483   2.114
  834HOH      O 2687   3.875   0.432   2.917
  834HOH     H1 2688   3.906   0.502   2.859
  834HOH     H2 2689   3.950   0.413   2.973
  835HOH      O 2690   2.237   2.459   0.680
  835HOH     H1 2691   2.171   2.527   0.692
  835HOH     H2 2692   2.186   2.380   0.663
  836HOH      O 2693   1.931   2.376   3.586
  836HOH     H1 2694   2.017   2.418   3.586
  836HOH     H2 2695   1.898   2.389   3.675
  837HOH      O 2696   1.832   1.678   1.147
  837HOH     H1 2697   1.849   1.584   1.139
  837HOH     H2 2698   1.868   1.702   1.233
  838HOH      O 2699   3.289   3.377   3.020
  838HOH     H1 2700   3.215   3.341   2.971
  838HOH     H2 2701   3.250   3.436   3.084
  839HOH      O 2702   0.454   0.306   2.132
  839HOH     H1 2703   0.433   0.214   2.149
  839HOH     H2 2704   0.408   0.354   2.201
  840HOH      O 2705   0.903   0.902   2.452
  840HOH     H1 2706   0.969   0.872   2.390
  840HOH     H2 2707   0.918   0.996   2.461
  841HOH      O 2708   0.362   2.834   1.043
  841HOH     H1 2709   0.444   2.883   1.048
  841HOH     H2 2710   0.385   2.756   0.992
  842HOH      O 2711   2.977   2.120   0.769
  842HOH     H1 2712   3.052   2.089   0.718
  842HOH     H2 2713   2.937   2.188   0.714
  843HOH      O 2714   0.698   2.274   1.147
  843HOH     H1 2715   0.646   2.242   1.221
  843HOH     H2 2716   0.789   2.258   1.172
  844HOH      O 2717   0.717   0.229   1.543
  844HOH     H1 2718   0.740   0.142   1.577
  844HOH     H2 2719   0.623   0.224   1.525
  845HOH      O 2720   2.561   3.366   0.886
  845HOH     H1 2721   2.641   3.322   0.856
  845HOH     H2 2722   2.573   3.458   0.861
  846HOH      O 2723   1.395   0.417   0.617
  846HOH     H1 2724   1.340   0.354   0.570
  846HOH     H2 2725   1.458   0.447   0.551
  847HOH      O 2726   1.843   0.378   0.057
  847HOH     H1 2727   1.929   0.416   0.038
  847HOH     H2 2728   1.799   0.373  -0.028
  848HOH      O 2729   1.612   1.554   1.248
  848HOH     H1 2730   1.656   1.568   1.164
  848HOH     H2 2731   1.679   1.511   1.302
  849HOH      O 2732   0.198   2.450   3.367
  849HOH     H1 2733   0.139   2.424   3.296
  849HOH     H2 2734   0.150   2.516   3.416
  850HOH      O 2735   3.445   1.337   2.786
  850HOH     H1 2736   3.530   1.333   2.743
  850HOH     H2 2737   3.442   1.423   2.828
  851HOH      O 2738   2.860   3.770   0.591
  851HOH     H1 2739   2.880   3.677   0.603
  851HOH     H2 2740   2.844   3.803   0.680
  852HOH      O 2741   2.328   0.941   2.056
  852HOH     H1 2742   2.274   1.003   2.106
  852HOH     H2 2743   2.413   0.984   2.048
  853HOH      O 2744   0.590   2.157   2.996
  853HOH     H1 2745   0.676   2.139   2.958
  853HOH     H2 2746   0.607   2.170   3.089
  854HOH      O 2747   0.664   1.200   0.498
  854HOH     H1 2748   0.682   1.123   0.552
  854HOH     H2 2749   0.681   1.274   0.555
  855HOH      O 2750   0.996   2.853   2.032
  855HOH     H1 2751   0.981   2.772   2.082
  855HOH     H2 2752   1.035   2.824   1.950
  856HOH      O 2753   2.785   2.407   1.799
  856HOH     H1 2754   2.808   2.354   1.876
  856HOH     H2 2755   2.756   2.344   1.734
  857HOH      O 2756   1.400   2.983   1.924
  857HOH     H1 2757   1.391   3.077   1.911
  857HOH     H2 2758   1.483   2.973   1.972
  858HOH      O 2759   3.014   0.903   2.497
  858HOH     H1 2760   2.936   0.957   2.482
  858HOH     H2 2761   3.003   0.828   2.439
  859HOH      O 2762   3.314   2.927   3.021
  859HOH     H1 2763   3.220   2.935   3.008
  859HOH     H2 2764   3.347   3.017   3.017
  860HOH      O 2765   2.847   0.449  -0.002
  860HOH     H1 2766   2.757   0.450   0.031
  860HOH     H2 2767   2.870   0.356  -0.006
  861HOH      O 2768   3.562   2.304   2.016
  861HOH     H1 2769   3.629   2.249   2.058
  861HOH     H2 2770   3.515   2.244   1.959
  862HOH      O 2771   1.375   1.907   1.978
  862HOH     H1 2772   1.385   1.997   1.947
  862HOH     H2 2773   1.419   1.906   2.063
  863HOH      O 2774   2.370   3.884   3.131
  863HOH     H1 2775   2.442   3.895   3.194
  863HOH     H2 2776   2.388   3.800   3.089
  864HOH      O 2777   1.790   3.216   0.411
  864HOH     H1 2778   1.833   3.140   0.449
  864HOH     H2 2779   1.861   3.265   0.370
  865HOH      O 2780   0.577   0.131   2.363
  865HOH     H1 2781   0.620   0.214   2.380
  865HOH     H2 2782   0.609   0.072   2.432
  866HOH      O 2783   2.295   3.876   1.051
  866HOH     H1 2784   2.320   3.845   0.964
  866HOH     H2 2785   2.365   3.936   1.076
  867HOH      O 2786   1.288   3.497   2.896
  867HOH     H1 2787   1.224   3.434   2.927
  867HOH     H2 2788   1.236   3.573   2.870
  868HOH      O 2789   2.048   0.065   0.396
  868HOH     H1 2790   2.105   0.132   0.435
  868HOH     H2 2791   1.982   0.115   0.349
  869HOH      O 2792   1.873   2.681   2.013
  869HOH     H1 2793   1.927   2.632   2.075
  869HOH     H2 2794   1.865   2.768   2.052
  870HOH      O 2795   1.514   2.267   0.199
  870HOH     H1 2796   1.451   2.221   0.142
  870HOH     H2 2797   1.550   2.336   0.144
  871HOH      O 2798   2.710   0.680   1.143
  871HOH     H1 2799   2.776   0.620   1.178
  871HOH     H2 2800   2.706   0.660   1.050
  872HOH      O 2801   0.216   0.514   1.943
  872HOH     H1 2802   0.293   0.569   1.956
  872HOH     H2 2803   0.178   0.505   2.031
  873HOH      O 2804   2.772   3.490   2.756
  873HOH     H1 2805   2.801   3.399   2.748
  873HOH     H2 2806   2.794   3.514   2.846
  874HOH      O 2807   4.036   2.773   0.312
  874HOH     H1 2808   3.952   2.743   0.345
  874HOH     H2 2809   4.040   2.866   0.336
  875HOH      O 2810   2.595   2.522   3.090
  875HOH     H1 2811   2.684   2.552   3.072
  875HOH     H2 2812   2.565   2.485   3.008
  876HOH      O 2813   3.947   1.801   3.342
  876HOH     H1 2814   3.880   1.827   3.405
  876HOH     H2 2815   3.963   1.709   3.361
  877HOH      O 2816   2.956   3.930   3.469
  877HOH     H1 2817   2.865   3.901   3.471
  877HOH     H2 2818   2.951   4.025   3.482
  878HOH      O 2819   3.001   0.364   0.561
  878HOH     H1 2820   3.056   0.432   0.599
  878HOH     H2 2821   2.914   0.380   0.596
  879HOH      O 2822   2.602   2.274   1.042
  879HOH     H1 2823   2.594   2.191   0.995
  879HOH     H2 2824   2.545   2.334   0.994
  880HOH      O 2825   3.579  -0.010   1.185
  880HOH     H1 2826   3.636   0.049   1.234
  880HOH     H2 2827   3.577   0.027   1.097
  881HOH      O 2828   1.761   2.337   0.361
  881HOH     H1 2829   1.760   2.303   0.451
  881HOH     H2 2830   1.704   2.277   0.313
  882HOH      O 2831   0.418   2.224   3.966
  882HOH     H1 2832   0.511   2.245   3.975
  882HOH     H2 2833   0.373   2.306   3.986
  883HOH      O 2834   0.900   1.253   1.235
  883HOH     H1 2835   0.848   1.199   1.295
  883HOH     H2 2836   0.925   1.330   1.287
  884HOH      O 2837   2.230   1.380   2.274
  884HOH     H1 2838   2.272   1.366   2.359
  884HOH     H2 2839   2.300   1.366   2.210
  885HOH      O 2840   3.239   3.728   1.135
  885HOH     H1 2841   3.263   3.719   1.043
  885HOH     H2 2842   3.291   3.661   1.180
  886HOH      O 2843   2.371   0.465   0.900
  886HOH     H1 2844   2.286   0.480   0.942
  886HOH     H2 2845   2.358   0.493   0.810
  887HOH      O 2846   1.984   1.038   3.764
  887HOH     H1 2847   1.900   1.003   3.796
  887HOH     H2 2848   1.986   1.013   3.672
  888HOH      O 2849   0.573   2.849   1.551
  888HOH     H1 2850   0.595   2.936   1.518
  888HOH     H2 2851   0.539   2.865   1.639
  889HOH      O 2852   2.827   0.912   2.029
  889HOH     H1 2853   2.922   0.904   2.028
  889HOH     H2 2854   2.811   1.005   2.008
  890HOH      O 2855   2.968   1.108   0.510
  890HOH     H1 2856   2.960   1.074   0.421
  890HOH     H2 2857   2.997   1.033   0.562
  891HOH      O 2858   0.130   1.723   3.850
  891HOH     H1 2859   0.222   1.726   3.821
  891HOH     H2 2860   0.119   1.634   3.883
  892HOH      O 2861   1.576   1.175   1.565
  892HOH     H1 2862   1.618   1.142   1.644
  892HOH     H2 2863   1.580   1.101   1.504
  893HOH      O 2864   2.305   2.209   3.907
  893HOH     H1 2865   2.378   2.269   3.893
  893HOH     H2 2866   2.336   2.125   3.874
  894HOH      O 2867   1.037   1.066   3.495
  894HOH     H1 2868   1.093   0.988   3.495
  894HOH     H2 2869   1.093   1.137   3.466
  895HOH      O 2870   3.774   2.947   3.427
  895HOH     H1 2871   3.809   2.978   3.510
  895HOH     H2 2872   3.683   2.923   3.447
  896HOH      O 2873   0.745   1.665   3.492
  896HOH     H1 2874   0.822   1.611   3.509
  896HOH     H2 2875   0.679   1.632   3.553
  897HOH      O 2876   3.391   1.167   3.927
  897HOH     H1 2877   3.449   1.121   3.989
  897HOH     H2 2878   3.435   1.250   3.910
  898HOH      O 2879   2.603   0.190   3.051
  898HOH     H1 2880   2.535   0.216   2.988
  898HOH     H2 2881   2.560   0.199   3.136
  899HOH      O 2882   2.108   3.573   2.837
  899HOH     H1 2883   2.142   3.631   2.769
  899HOH     H2 2884   2.013   3.580   2.829
  900HOH      O 2885   0.828   0.115   0.730
  900HOH     H1 2886   0.902   0.095   0.673
  900HOH     H2 2887   0.833   0.049   0.800
  901HOH      O 2888   0.269   1.960   0.018
  901HOH     H1 2889   0.333   2.026  -0.009
  901HOH     H2 2890   0.318   1.901   0.076
  902HOH      O 2891   1.495   0.213   0.374
  902HOH     H1 2892   1.417   0.173   0.410
  902HOH     H2 2893   1.567   0.178   0.426
  903HOH      O 2894   1.603   3.554   2.489
  903HOH     H1 2895   1.620   3.496   2.415
  903HOH     H2 2896   1.616   3.642   2.454
  904HOH      O 2897   0.147   2.777   1.204
  904HOH     H1 2898   0.217   2.791   1.141
  904HOH     H2 2899   0.104   2.697   1.174
  905HOH      O 2900   0.513   2.466   3.629
  905HOH     H1 2901   0.506   2.457   3.724
  905HOH     H2 2902   0.444   2.528   3.605
  906HOH      O 2903   0.980   0.682   1.592
  906HOH     H1 2904   0.973   0.610   1.529
  906HOH     H2 2905   0.896   0.680   1.639
  907HOH      O 2906   2.897   2.401   3.396
  907HOH     H1 2907   2.836   2.472   3.375
  907HOH     H2 2908   2.858   2.323   3.357
  908HOH      O 2909   2.698   2.223   1.584
  908HOH     H1 2910   2.747   2.143   1.603
  908HOH     H2 2911   2.700   2.230   1.489
  909HOH      O 2912   0.607   1.048   0.238
  909HOH     H1 2913   0.626   1.097   0.319
  909HOH     H2 2914   0.566   1.113   0.181
  910HOH      O 2915   0.762   1.952   2.280
  910HOH     H1 2916   0.750   1.870   2.233
  910HOH     H2 2917   0.811   1.928   2.359
  911HOH      O 2918   3.279   3.355   1.651
  911HOH     H1 2919   3.245   3.443   1.633
  911HOH     H2 2920   3.237   3.299   1.585
  912HOH      O 2921   3.215   0.630   2.005
  912HOH     H1 2922   3.190   0.552   2.054
  912HOH     H2 2923   3.166   0.701   2.046
  913HOH      O 2924   2.460   1.885   2.149
  913HOH     H1 2925   2.387   1.839   2.190
  913HOH     H2 2926   2.424   1.916   2.065
  914HOH      O 2927   1.714   0.987   3.811
  914HOH     H1 2928   1.632   0.997   3.859
  914HOH     H2 2929   1.686   0.966   3.721
  915HOH      O 2930   1.315   1.399   2.192
  915HOH     H1 2931   1.283   1.436   2.273
  915HOH     H2 2932   1.292   1.463   2.125
  916HOH      O 2933   2.426   3.297   1.477
  916HOH     H1 2934   2.372   3.234   1.524
  916HOH     H2 2935   2.364   3.361   1.443
  917HOH      O 2936   2.134   1.003   0.665
  917HOH     H1 2937   2.096   1.057   0.735
  917HOH     H2 2938   2.170   1.066   0.603
  918HOH      O 2939   1.197   1.204   2.942
  918HOH     H1 2940   1.281   1.242   2.968
  918HOH     H2 2941   1.198   1.206   2.847
  919HOH      O 2942   3.853   3.319   1.903
  919HOH     H1 2943   3.797   3.338   1.978
  919HOH     H2 2944   3.936   3.291   1.942
  920HOH      O 2945   3.392   0.602   0.302
  920HOH     H1 2946   3.310   0.561   0.330
  920HOH     H2 2947   3.447   0.529   0.273
  921HOH      O 2948   2.262   3.287   0.994
  921HOH     H1 2949   2.228   3.370   1.029
  921HOH     H2 2950   2.311   3.250   1.067
  922HOH      O 2951   1.538   0.100   3.815
  922HOH     H1 2952   1.532   0.004   3.811
  922HOH     H2 2953   1.537   0.120   3.908
  923HOH      O 2954   1.625   1.741   2.162
  923HOH     H1 2955   1.550   1.788   2.199
  923HOH     H2 2956   1.701   1.775   2.209
  924HOH      O 2957   2.739   2.659   0.464
  924HOH     H1 2958   2.755   2.677   0.557
  924HOH     H2 2959   2.761   2.741   0.420
  925HOH      O 2960   2.207   2.034   2.098
  925HOH     H1 2961   2.237   1.994   2.180
  925HOH     H2 2962   2.151   1.967   2.059
  926HOH      O 2963   1.641   1.839   0.285
  926HOH     H1 2964   1.567   1.805   0.335
  926HOH     H2 2965   1.604   1.908   0.230
  927HOH      O 2966   1.960   2.317   0.941
  927HOH     H1 2967   1.922   2.250   0.998
  927HOH     H2 2968   2.055   2.308   0.953
  928HOH      O 2969   3.399   2.663   2.960
  928HOH     H1 2970   3.355   2.743   2.987
  928HOH     H2 2971   3.477   2.693   2.914
  929HOH      O 2972   4.028   0.916   3.318
  929HOH     H1 2973   4.099   0.974   3.344
  929HOH     H2 2974   3.948   0.963   3.343
  930HOH      O 2975   0.743   1.530   2.697
  930HOH     H1 2976   0.649   1.541   2.688
  930HOH     H2 2977   0.757   1.512   2.790
  931HOH      O 2978   0.946   2.714   0.913
  931HOH     H1 2979   0.923   2.781   0.848
  931HOH     H2 2980   0.879   2.723   0.981
  932HOH      O 2981   2.097   0.385   1.967
  932HOH     H1 2982   2.120   0.465   1.920
  932HOH     H2 2983   2.011   0.403   2.005
  933HOH      O 2984   1.036   0.449   3.301
  933HOH     H1 2985   0.981   0.527   3.295
  933HOH     H2 2986   1.033   0.426   3.394
  934HOH      O 2987   2.920   0.887   1.143
  934HOH     H1 2988   2.876   0.806   1.168
  934HOH     H2 2989   2.852   0.940   1.102
  935HOH      O 2990   1.592   0.713   1.741
  935HOH     H1 2991   1.541   0.662   1.678
  935HOH     H2 2992   1.538   0.716   1.820
  936HOH      O 2993   0.244   2.220   0.524
  936HOH     H1 2994   0.251   2.139   0.474
  936HOH     H2 2995   0.330   2.232   0.564
  937HOH      O 2996   0.476   2.633   1.384
  937HOH     H1 2997   0.483   2.723   1.352
  937HOH     H2 2998   0.540   2.628   1.455
  938HOH      O 2999   3.541   2.484   2.489
  938HOH     H1 3000   3.590   2.414   2.532
  938HOH     H2 3001   3.567   2.478   2.397
  939HOH      O 3002   2.927   1.849   3.792
  939HOH     H1 3003   2.952   1.940   3.805
  939HOH     H2 3004   3.010   1.801   3.786
  940HOH      O 3005   1.421   1.869   3.057
  940HOH     H1 3006   1.486   1.932   3.026
  940HOH     H2 3007   1.411   1.890   3.150
  941HOH      O 3008   2.606   3.299   1.690
  941HOH     H1 3009   2.560   3.293   1.606
  941HOH     H2 3010   2.576   3.382   1.727
  942HOH      O 3011   1.776   2.621   3.407
  942HOH     H1 3012   1.704   2.573   3.366
  942HOH     H2 3013   1.735   2.697   3.448
  943HOH      O 3014   3.065   0.596   0.228
  943HOH     H1 3015   2.990   0.558   0.182
  943HOH     H2 3016   3.111   0.521   0.265
  944HOH      O 3017   3.628   1.650   2.108
  944HOH     H1 3018   3.561   1.713   2.083
  944HOH     H2 3019   3.704   1.702   2.131
  945HOH      O 3020   3.905   1.373   0.998
  945HOH     H1 3021   3.925   1.344   0.909
  945HOH     H2 3022   3.946   1.459   1.005
  946HOH      O 3023   3.488   1.792   3.849
  946HOH     H1 3024   3.440   1.802   3.931
  946HOH     H2 3025   3.577   1.768   3.876
  947HOH      O 3026   1.413   0.591   1.336
  947HOH     H1 3027   1.410   0.582   1.431
  947HOH     H2 3028   1.433   0.683   1.321
  948HOH      O 3029   2.396   0.972   0.908
  948HOH     H1 3030   2.361   1.061   0.904
  948HOH     H2 3031   2.445   0.962   0.827
  949HOH      O 3032   0.852   1.037   3.275
  949HOH     H1 3033   0.896   1.073   3.198
  949HOH     H2 3034   0.912   1.052   3.347
  950HOH      O 3035   1.808   2.361   2.135
  950HOH     H1 3036   1.733   2.415   2.114
  950HOH     H2 3037   1.792   2.333   2.225
  951HOH      O 3038   3.537   3.820   0.112
  951HOH     H1 3039   3.623   3.856   0.135
  951HOH     H2 3040   3.489   3.895   0.076
  952HOH      O 3041   3.030   2.301   1.046
  952HOH     H1 3042   2.996   2.243   0.977
  952HOH     H2 3043   3.122   2.315   1.023
  953HOH      O 3044   2.391   3.209   2.738
  953HOH     H1 3045   2.463   3.153   2.767
  953HOH     H2 3046   2.434   3.287   2.703
  954HOH      O 3047   2.478   3.458   1.142
  954HOH     H1 3048   2.492   3.392   1.074
  954HOH     H2 3049   2.566   3.491   1.162
  955HOH      O 3050   1.618   2.475   2.539
  955HOH     H1 3051   1.535   2.516   2.566
  955HOH     H2 3052   1.635   2.512   2.452
  956HOH      O 3053   2.684   2.541   3.514
  956HOH     H1 3054   2.663   2.577   3.428
  956HOH     H2 3055   2.605   2.493   3.539
  957HOH      O 3056   2.267   1.704   2.516
  957HOH     H1 3057   2.288   1.765   2.587
  957HOH     H2 3058   2.237   1.625   2.560
  958HOH      O 3059   3.055   1.459   2.088
  958HOH     H1 3060   3.142   1.424   2.107
  958HOH     H2 3061   2.996   1.385   2.096
  959HOH      O 3062   2.345   0.962   2.782
  959HOH     H1 3063   2.382   0.973   2.869
  959HOH     H2 3064   2.252   0.943   2.798
  960HOH      O 3065   0.877   2.380   2.480
  960HOH     H1 3066   0.806   2.353   2.539
  960HOH     H2 3067   0.847   2.462   2.442
  961HOH      O 3068   0.050   1.483   3.976
  961HOH     H1 3069   0.100   1.402   3.967
  961HOH     H2 3070  -0.016   1.478   3.907
  962HOH      O 3071   1.624   3.828   0.151
  962HOH     H1 3072   1.594   3.765   0.216
  962HOH     H2 3073   1.711   3.855   0.182
  963HOH      O 3074   1.010   0.092   1.715
  963HOH     H1 3075   1.091   0.043   1.707
  963HOH     H2 3076   1.031   0.179   1.680
  964HOH      O 3077   0.926   1.988   1.187
  964HOH     H1 3078   0.858   2.003   1.252
  964HOH     H2 3079   0.937   2.072   1.144
  965HOH      O 3080   1.903   1.851   0.293
  965HOH     H1 3081   1.910   1.782   0.227
  965HOH     H2 3082   1.809   1.860   0.308
  966HOH      O 3083   3.988   3.432   2.834
  966HOH     H1 3084   3.982   3.358   2.894
  966HOH     H2 3085   3.942   3.503   2.878
  967HOH      O 3086   0.974   3.538   2.231
  967HOH     H1 3087   0.974   3.575   2.319
  967HOH     H2 3088   1.033   3.463   2.236
  968HOH      O 3089   4.008   3.760   1.174
  968HOH     H1 3090   4.000   3.822   1.102
  968HOH     H2 3091   3.934   3.779   1.231
  969HOH      O 3092   0.933   2.019   0.668
  969HOH     H1 3093   0.999   2.061   0.614
  969HOH     H2 3094   0.858   2.079   0.666
  970HOH      O 3095   3.949   2.551   1.367
  970HOH     H1 3096   4.015   2.503   1.317
  970HOH     H2 3097   3.986   2.559   1.455
  971HOH      O 3098   1.421   2.510   1.250
  971HOH     H1 3099   1.496   2.451   1.256
  971HOH     H2 3100   1.449   2.590   1.295
  972HOH      O 3101   0.425   2.168   2.769
  972HOH     H1 3102   0.419   2.261   2.752
  972HOH     H2 3103   0.498   2.159   2.830
  973HOH      O 3104   1.534   2.740   0.560
  973HOH     H1 3105   1.566   2.673   0.500
  973HOH     H2 3106   1.471   2.790   0.509
  974HOH      O 3107   3.469   3.411   0.267
  974HOH     H1 3108   3.471   3.482   0.331
  974HOH     H2 3109   3.520   3.341   0.307
  975HOH      O 3110   0.426   3.607   1.764
  975HOH     H1 3111   0.476   3.526   1.766
  975HOH     H2 3112   0.492   3.676   1.768
  976HOH      O 3113   0.957   2.556   3.367
  976HOH     H1 3114   0.922   2.642   3.388
  976HOH     H2 3115   0.894   2.494   3.405
  977HOH      O 3116   2.409   0.667   3.589
  977HOH     H1 3117   2.409   0.665   3.685
  977HOH     H2 3118   2.357   0.591   3.564
  978HOH      O 3119   2.729   3.723   3.146
  978HOH     H1 3120   2.714   3.749   3.237
  978HOH     H2 3121   2.754   3.804   3.101
  979HOH      O 3122   1.198   0.787   1.735
  979HOH     H1 3123   1.156   0.819   1.814
  979HOH     H2 3124   1.135   0.726   1.697
  980HOH      O 3125   1.627   1.975   1.534
  980HOH     H1 3126   1.598   1.924   1.609
  980HOH     H2 3127   1.722   1.966   1.534
  981HOH      O 3128   3.382   2.246   0.469
  981HOH     H1 3129   3.294   2.231   0.435
  981HOH     H2 3130   3.438   2.195   0.410
  982HOH      O 3131   0.583   0.011   1.951
  982HOH     H1 3132   0.626  -0.070   1.922
  982HOH     H2 3133   0.646   0.080   1.933
  983HOH      O 3134   0.324   0.166   1.632
  983HOH     H1 3135   0.361   0.234   1.689
  983HOH     H2 3136   0.323   0.088   1.687
  984HOH      O 3137   0.820   1.297   3.464
  984HOH     H1 3138   0.879   1.221   3.463
  984HOH     H2 3139   0.871   1.367   3.504
  985HOH      O 3140   0.884   2.795   0.120
  985HOH     H1 3141   0.975   2.799   0.148
  985HOH     H2 3142   0.888   2.767   0.029
  986HOH      O 3143   3.851   3.658   3.121
  986HOH     H1 3144   3.758   3.641   3.139
  986HOH     H2 3145   3.896   3.632   3.202
  987HOH      O 3146   2.069   0.131   3.113
  987HOH     H1 3147   2.027   0.046   3.107
  987HOH     H2 3148   2.079   0.160   3.022
  988HOH      O 3149   3.665   1.751   0.558
  988HOH     H1 3150   3.636   1.824   0.502
  988HOH     H2 3151   3.598   1.683   0.545
  989HOH      O 3152   0.514   1.571   1.632
  989HOH     H1 3153   0.471   1.507   1.689
  989HOH     H2 3154   0.595   1.593   1.678
  990HOH      O 3155   1.914   0.867   1.568
  990HOH     H1 3156   1.909   0.951   1.522
  990HOH     H2 3157   2.008   0.846   1.568
  991HOH      O 3158   3.353   1.179   1.626
  991HOH     H1 3159   3.332   1.265   1.663
  991HOH     H2 3160   3.271   1.131   1.630
  992HOH      O 3161   2.382   2.789   3.007
  992HOH     H1 3162   2.333   2.709   3.025
  992HOH     H2 3163   2.334   2.858   3.053
  993HOH      O 3164   1.072   2.074   3.964
  993HOH     H1 3165   1.049   2.072   3.871
  993HOH     H2 3166   1.003   2.022   4.006
  994HOH      O 3167   1.377   1.863   2.261
  994HOH     H1 3168   1.283   1.850   2.246
  994HOH     H2 3169   1.384   1.955   2.289
  995HOH      O 3170   2.267   0.359   1.575
  995HOH     H1 3171   2.345   0.372   1.521
  995HOH     H2 3172   2.203   0.322   1.515
  996HOH      O 3173   1.508   1.175   1.103
  996HOH     H1 3174   1.520   1.134   1.017
  996HOH     H2 3175   1.568   1.250   1.103
  997HOH      O 3176   1.876   0.727   3.948
  997HOH     H1 3177   1.946   0.663   3.963
  997HOH     H2 3178   1.872   0.777   4.030
  998HOH      O 3179   1.816   0.192   0.245
  998HOH     H1 3180   1.825   0.259   0.177
  998HOH     H2 3181   1.810   0.109   0.197
  999HOH      O 3182   1.815   2.032   3.531
  999HOH     H1 3183   1.901   1.997   3.508
  999HOH     H2 3184   1.799   2.100   3.465
 1000HOH      O 3185   0.411   2.708   0.188
 1000HOH     H1 3186   0.445   2.684   0.274
 1000HOH     H2 3187   0.488   2.708   0.131
 1001HOH      O 3188   0.609   2.554   3.174
 1001HOH     H1 3189   0.552   2.500   3.229
 1001HOH     H2 3190   0.685   2.498   3.156
 1002HOH      O 3191   1.914   1.238   2.759
 1002HOH     H1 3192   1.924   1.248   2.853
 1002HOH     H2 3193   1.959   1.315   2.722
 1003HOH      O 3194   0.889   3.553   0.756
 1003HOH     H1 3195   0.872   3.564   0.663
 1003HOH     H2 3196   0.815   3.598   0.799
 1004HOH      O 3197   2.752   3.746   1.645
 1004HOH     H1 3198   2.730   3.714   1.558
 1004HOH     H2 3199   2.788   3.833   1.631
 1005HOH      O 3200   2.254   2.201   0.816
 1005HOH     H1 3201   2.170   2.234   0.785
 1005HOH     H2 3202   2.262   2.114   0.775
 1006HOH      O 3203   2.524   3.644   0.132
 1006HOH     H1 3204   2.513   3.692   0.050
 1006HOH     H2 3205   2.477   3.562   0.119
 1007HOH      O 3206   1.637   3.165   0.195
 1007HOH     H1 3207   1.660   3.094   0.135
 1007HOH     H2 3208   1.704   3.161   0.263
 1008HOH      O 3209   0.150   0.293   0.855
 1008HOH     H1 3210   0.189   0.312   0.769
 1008HOH     H2 3211   0.217   0.321   0.917
 1009HOH      O 3212   1.458   0.069   2.181
 1009HOH     H1 3213   1.448  -0.002   2.117
 1009HOH     H2 3214   1.372   0.076   2.221
 1010HOH      O 3215   3.144   1.456   3.555
 1010HOH     H1 3216   3.062   1.466   3.508
 1010HOH     H2 3217   3.119   1.439   3.646
 1011HOH      O 3218   0.298   2.268   2.998
 1011HOH     H1 3219   0.317   2.196   2.939
 1011HOH     H2 3220   0.384   2.305   3.019
 1012HOH      O 3221   0.155   3.066   2.425
 1012HOH     H1 3222   0.107   3.095   2.503
 1012HOH     H2 3223   0.245   3.053   2.455
 1013HOH      O 3224   3.165   3.529   3.203
 1013HOH     H1 3225   3.125   3.614   3.185
 1013HOH     H2 3226   3.203   3.539   3.290
 1014HOH      O 3227   3.379   1.910   3.436
 1014HOH     H1 3228   3.341   1.988   3.397
 1014HOH     H2 3229   3.304   1.854   3.456
 1015HOH      O 3230   3.414   2.711   2.547
 1015HOH     H1 3231   3.484   2.765   2.585
 1015HOH     H2 3232   3.447   2.621   2.556
 1016HOH      O 3233   0.172   2.730   1.762
 1016HOH     H1 3234   0.201   2.680   1.686
 1016HOH     H2 3235   0.099   2.783   1.731
 1017HOH      O 3236   3.345   2.725   1.697
 1017HOH     H1 3237   3.329   2.762   1.783
 1017HOH     H2 3238   3.374   2.635   1.714
 1018HOH      O 3239   1.349   2.143   1.227
 1018HOH     H1 3240   1.373   2.053   1.246
 1018HOH     H2 3241   1.310   2.139   1.140
 1019HOH      O 3242   3.523   0.724   3.675
 1019HOH     H1 3243   3.471   0.646   3.653
 1019HOH     H2 3244   3.604   0.713   3.625
 1020HOH      O 3245   1.372   3.119   0.571
 1020HOH     H1 3246   1.409   3.117   0.659
 1020HOH     H2 3247   1.353   3.027   0.551
 1021HOH      O 3248   0.461   2.725   3.411
 1021HOH     H1 3249   0.416   2.709   3.493
 1021HOH     H2 3250   0.504   2.642   3.391
 1022HOH      O 3251   2.141   3.048   2.272
 1022HOH     H1 3252   2.099   3.072   2.355
 1022HOH     H2 3253   2.232   3.074   2.284
 1023HOH      O 3254   0.649   3.689   2.015
 1023HOH     H1 3255   0.643   3.726   1.927
 1023HOH     H2 3256   0.694   3.605   2.003
 1024HOH      O 3257   0.296   1.364   2.983
 1024HOH     H1 3258   0.249   1.314   3.050
 1024HOH     H2 3259   0.381   1.383   3.023
 1025HOH      O 3260   3.361   0.744   4.000
 1025HOH     H1 3261   3.341   0.771   4.090
 1025HOH     H2 3262   3.454   0.761   3.990
 1026HOH      O 3263   0.009   1.787   0.326
 1026HOH     H1 3264   0.097   1.753   0.342
 1026HOH     H2 3265  -0.041   1.762   0.403
 1027HOH      O 3266   1.993   3.075   3.283
 1027HOH     H1 3267   1.933   3.113   3.219
 1027HOH     H2 3268   1.989   3.134   3.358
 1028HOH      O 3269   2.125   3.669   3.333
 1028HOH     H1 3270   2.191   3.726   3.373
 1028HOH     H2 3271   2.099   3.713   3.252
 1029HOH      O 3272   2.866   1.832   1.644
 1029HOH     H1 3273   2.913   1.837   1.561
 1029HOH     H2 3274   2.880   1.917   1.684
 1030HOH      O 3275   0.327   3.447   0.919
 1030HOH     H1 3276   0.362   3.483   0.838
 1030HOH     H2 3277   0.232   3.446   0.906
 1031HOH      O 3278   3.652   2.044   3.255
 1031HOH     H1 3279   3.684   1.978   3.193
 1031HOH     H2 3280   3.664   2.004   3.341
 1032HOH      O 3281   0.340   0.943   2.042
 1032HOH     H1 3282   0.343   1.012   2.109
 1032HOH     H2 3283   0.264   0.966   1.988
 1033HOH      O 3284   0.071   2.397   2.155
 1033HOH     H1 3285   0.098   2.424   2.067
 1033HOH     H2 3286   0.040   2.307   2.143
 1034HOH      O 3287   2.562   0.335   0.595
 1034HOH     H1 3288   2.609   0.255   0.575
 1034HOH     H2 3289   2.470   0.309   0.600
 1035HOH      O 3290   3.194   0.748   1.750
 1035HOH     H1 3291   3.108   0.709   1.762
 1035HOH     H2 3292   3.231   0.754   1.838
 1036HOH      O 3293   0.742   1.581   1.765
 1036HOH     H1 3294   0.718   1.561   1.855
 1036HOH     H2 3295   0.777   1.671   1.769
 1037HOH      O 3296   2.416   3.318   0.623
 1037HOH     H1 3297   2.419   3.324   0.718
 1037HOH     H2 3298   2.437   3.406   0.592
 1038HOH      O 3299   0.878   0.555   2.424
 1038HOH     H1 3300   0.946   0.493   2.449
 1038HOH     H2 3301   0.908   0.639   2.460
 1039HOH      O 3302   0.122   0.127   1.317
 1039HOH     H1 3303   0.074   0.059   1.364
 1039HOH     H2 3304   0.150   0.188   1.385
 1040HOH      O 3305   3.851   3.213   3.275
 1040HOH     H1 3306   3.834   3.261   3.356
 1040HOH     H2 3307   3.862   3.122   3.303
 1041HOH      O 3308   2.714   0.224   1.913
 1041HOH     H1 3309   2.803   0.239   1.882
 1041HOH     H2 3310   2.658   0.242   1.837
 1042HOH      O 3311   3.470   2.124   1.240
 1042HOH     H1 3312   3.561   2.124   1.208
 1042HOH     H2 3313   3.474   2.176   1.321
 1043HOH      O 3314   2.401   2.649   2.373
 1043HOH     H1 3315   2.412   2.582   2.305
 1043HOH     H2 3316   2.442   2.727   2.337
 1044HOH      O 3317   1.015   3.951   0.900
 1044HOH     H1 3318   1.038   3.858   0.901
 1044HOH     H2 3319   1.062   3.986   0.824
 1045HOH      O 3320   2.267   0.063   1.569
 1045HOH     H1 3321   2.356   0.070   1.537
 1045HOH     H2 3322   2.244   0.152   1.596
 1046HOH      O 3323   1.029   0.255   1.153
 1046HOH     H1 3324   0.951   0.265   1.098
 1046HOH     H2 3325   1.039   0.340   1.195
 1047HOH      O 3326   1.932   2.543   0.568
 1047HOH     H1 3327   1.927   2.611   0.635
 1047HOH     H2 3328   1.888   2.468   0.607
 1048HOH      O 3329   1.380   1.111   2.211
 1048HOH     H1 3330   1.456   1.078   2.259
 1048HOH     H2 3331   1.383   1.206   2.224
 1049HOH      O 3332   3.552   1.312   0.304
 1049HOH     H1 3333   3.639   1.274   0.309
 1049HOH     H2 3334   3.517   1.280   0.220
 1050HOH      O 3335   3.073   3.286   0.125
 1050HOH     H1 3336   3.132   3.361   0.114
 1050HOH     H2 3337   3.069   3.246   0.038
 1051HOH      O 3338   1.840   0.025   1.964
 1051HOH     H1 3339   1.867  -0.001   2.052
 1051HOH     H2 3340   1.761   0.076   1.977
 1052HOH      O 3341   0.142   4.033   2.147
 1052HOH     H1 3342   0.236   4.048   2.153
 1052HOH     H2 3343   0.127   3.953   2.198
 1053HOH      O 3344   3.387   2.053   3.789
 1053HOH     H1 3345   3.363   2.098   3.870
 1053HOH     H2 3346   3.406   1.964   3.816
 1054HOH      O 3347   2.297   2.832   1.622
 1054HOH     H1 3348   2.278   2.805   1.712
 1054HOH     H2 3349   2.381   2.789   1.602
 1055HOH      O 3350   1.101   0.144   0.077
 1055HOH     H1 3351   1.054   0.086   0.018
 1055HOH     H2 3352   1.108   0.094   0.159
 1056HOH      O 3353   1.919   1.916   1.974
 1056HOH     H1 3354   1.888   2.007   1.983
 1056HOH     H2 3355   1.901   1.876   2.059
 1057HOH      O 3356   0.627   1.154   2.321
 1057HOH     H1 3357   0.602   1.147   2.413
 1057HOH     H2 3358   0.651   1.065   2.296
 1058HOH      O 3359   1.295   2.041   0.967
 1058HOH     H1 3360   1.368   1.998   0.923
 1058HOH     H2 3361   1.217   1.997   0.934
 1059HOH      O 3362   1.816   0.642   1.644
 1059HOH     H1 3363   1.736   0.680   1.680
 1059HOH     H2 3364   1.862   0.716   1.604
 1060HOH      O 3365   1.105   0.260   2.723
 1060HOH     H1 3366   1.135   0.223   2.805
 1060HOH     H2 3367   1.080   0.185   2.669
 1061HOH      O 3368   0.735   1.707   0.940
 1061HOH     H1 3369   0.762   1.738   0.853
 1061HOH     H2 3370   0.670   1.639   0.921
 1062HOH      O 3371   1.367   0.559   1.621
 1062HOH     H1 3372   1.349   0.622   1.691
 1062HOH     H2 3373   1.294   0.497   1.625
 1063HOH      O 3374   1.112   1.856   3.625
 1063HOH     H1 3375   1.066   1.831   3.545
 1063HOH     H2 3376   1.043   1.892   3.681
 1064HOH      O 3377   0.927   2.092   3.729
 1064HOH     H1 3378   0.950   2.126   3.642
 1064HOH     H2 3379   0.878   2.012   3.711
 1065HOH      O 3380   3.626   2.895   0.339
 1065HOH     H1 3381   3.668   2.814   0.366
 1065HOH     H2 3382   3.579   2.925   0.417
 1066HOH      O 3383   3.987   2.588   1.622
 1066HOH     H1 3384   4.035   2.506   1.635
 1066HOH     H2 3385   3.950   2.607   1.708
 1067HOH      O 3386   2.734   3.277   0.567
 1067HOH     H1 3387   2.810   3.261   0.512
 1067HOH     H2 3388   2.747   3.220   0.643
 1068HOH      O 3389   3.345   0.202   0.855
 1068HOH     H1 3390   3.269   0.201   0.796
 1068HOH     H2 3391   3.336   0.284   0.904
 1069HOH      O 3392   0.646   3.036   0.478
 1069HOH     H1 3393   0.568   3.039   0.422
 1069HOH     H2 3394   0.695   2.960   0.446
 1070HOH      O 3395   1.539   0.495   1.108
 1070HOH     H1 3396   1.541   0.401   1.125
 1070HOH     H2 3397   1.505   0.533   1.189
 1071HOH      O 3398   1.246   1.602   2.025
 1071HOH     H1 3399   1.251   1.696   2.043
 1071HOH     H2 3400   1.194   1.597   1.944
 1072HOH      O 3401   1.349   2.346   2.800
 1072HOH     H1 3402   1.377   2.255   2.798
 1072HOH     H2 3403   1.271   2.348   2.745
 1073HOH      O 3404   0.372   3.297   0.602
 1073HOH     H1 3405   0.370   3.247   0.684
 1073HOH     H2 3406   0.375   3.389   0.631
 1074HOH      O 3407   2.577   3.994   1.119
 1074HOH     H1 3408   2.599   4.009   1.027
 1074HOH     H2 3409   2.509   4.059   1.138
 1075HOH      O 3410   3.958   2.843   2.043
 1075HOH     H1 3411   3.863   2.836   2.032
 1075HOH     H2 3412   3.970   2.928   2.087
 1076HOH      O 3413   3.657   2.281   0.632
 1076HOH     H1 3414   3.708   2.325   0.564
 1076HOH     H2 3415   3.709   2.206   0.657
 1077HOH      O 3416   0.665   1.977   0.383
 1077HOH     H1 3417   0.722   1.902   0.369
 1077HOH     H2 3418   0.669   1.994   0.478
 1078HOH      O 3419   2.857   2.849   1.665
 1078HOH     H1 3420   2.882   2.929   1.711
 1078HOH     H2 3421   2.807   2.799   1.729
 1079HOH      O 3422  -0.002   0.240   2.123
 1079HOH     H1 3423  -0.020   0.250   2.216
 1079HOH     H2 3424   0.058   0.166   2.117
 1080HOH      O 3425   0.714   3.231   1.293
 1080HOH     H1 3426   0.795   3.256   1.248
 1080HOH     H2 3427   0.644   3.253   1.232
 1081HOH      O 3428   3.791   2.444   3.744
 1081HOH     H1 3429   3.736   2.522   3.750
 1081HOH     H2 3430   3.826   2.432   3.832
 1082HOH      O 3431   0.434   0.351   1.809
 1082HOH     H1 3432   0.444   0.442   1.782
 1082HOH     H2 3433   0.398   0.357   1.898
 1083HOH      O 3434   3.160   3.602   0.851
 1083HOH     H1 3435   3.081   3.620   0.801
 1083HOH     H2 3436   3.226   3.660   0.813
 1084HOH      O 3437   2.972   2.391   1.568
 1084HOH     H1 3438   2.946   2.307   1.606
 1084HOH     H2 3439   2.951   2.456   1.636
 1085HOH      O 3440   0.658   3.923   0.548
 1085HOH     H1 3441   0.622   3.995   0.496
 1085HOH     H2 3442   0.753   3.930   0.536
 1086HOH      O 3443   1.560   0.591   2.684
 1086HOH     H1 3444   1.607   0.631   2.757
 1086HOH     H2 3445   1.624   0.532   2.644
 1087HOH      O 3446   3.060   3.245   2.037
 1087HOH     H1 3447   3.144   3.263   1.996
 1087HOH     H2 3448   3.081   3.235   2.130
 1088HOH      O 3449   1.321   2.141   0.042
 1088HOH     H1 3450   1.315   2.208  -0.025
 1088HOH     H2 3451   1.230   2.119   0.062
 1089HOH      O 3452   1.280   3.964   2.765
 1089HOH     H1 3453   1.353   3.962   2.704
 1089HOH     H2 3454   1.308   4.024   2.834
 1090HOH      O 3455   0.313   2.452   0.383
 1090HOH     H1 3456   0.320   2.445   0.288
 1090HOH     H2 3457   0.278   2.367   0.411
 1091HOH      O 3458   2.418   2.643   1.075
 1091HOH     H1 3459   2.509   2.648   1.106
 1091HOH     H2 3460   2.408   2.553   1.043
 1092HOH      O 3461   1.467   1.936   3.318
 1092HOH     H1 3462   1.434   1.898   3.399
 1092HOH     H2 3463   1.561   1.922   3.322
 1093HOH      O 3464   3.438   1.822   1.180
 1093HOH     H1 3465   3.408   1.912   1.166
 1093HOH     H2 3466   3.521   1.832   1.226
 1094HOH      O 3467   0.700   3.542   1.077
 1094HOH     H1 3468   0.656   3.620   1.112
 1094HOH     H2 3469   0.635   3.472   1.088
 1095HOH      O 3470   3.946   0.244   0.199
 1095HOH     H1 3471   3.856   0.222   0.222
 1095HOH     H2 3472   3.947   0.340   0.199
 1096HOH      O 3473   0.960   1.827   0.072
 1096HOH     H1 3474   0.975   1.741   0.033
 1096HOH     H2 3475   0.966   1.811   0.166
 1097HOH      O 3476   0.546   0.879   2.288
 1097HOH     H1 3477   0.590   0.798   2.258
 1097HOH     H2 3478   0.462   0.849   2.320
 1098HOH      O 3479   2.246   0.276   2.536
 1098HOH     H1 3480   2.341   0.263   2.528
 1098HOH     H2 3481   2.231   0.366   2.507
 1099HOH      O 3482   1.035   1.739   1.328
 1099HOH     H1 3483   1.129   1.736   1.347
 1099HOH     H2 3484   1.026   1.800   1.255
 1100HOH      O 3485   1.741   2.076   3.992
 1100HOH     H1 3486   1.835   2.072   4.008
 1100HOH     H2 3487   1.704   2.110   4.073
 1101HOH      O 3488   2.382   2.004   1.566
 1101HOH     H1 3489   2.368   2.074   1.502
 1101HOH     H2 3490   2.469   1.969   1.544
 1102HOH      O 3491   2.485   0.205   3.998
 1102HOH     H1 3492   2.522   0.283   4.040
 1102HOH     H2 3493   2.558   0.168   3.949
 1103HOH      O 3494   1.532   0.117   0.054
 1103HOH     H1 3495   1.482   0.198   0.061
 1103HOH     H2 3496   1.507   0.067   0.132
 1104HOH      O 3497   3.071   0.041   1.262
 1104HOH     H1 3498   3.152   0.077   1.226
 1104HOH     H2 3499   3.098  -0.042   1.302
 1105HOH      O 3500   0.780   2.685   1.476
 1105HOH     H1 3501   0.703   2.731   1.508
 1105HOH     H2 3502   0.853   2.727   1.522
 1106HOH      O 3503   0.859   0.282   0.942
 1106HOH     H1 3504   0.828   0.253   0.856
 1106HOH     H2 3505   0.930   0.343   0.923
 1107HOH      O 3506   1.385   2.571   3.196
 1107HOH     H1 3507   1.335   2.491   3.185
 1107HOH     H2 3508   1.364   2.624   3.119
 1108HOH      O 3509   2.654   2.593   1.254
 1108HOH     H1 3510   2.677   2.663   1.315
 1108HOH     H2 3511   2.730   2.535   1.255
 1109HOH      O 3512   2.564   2.345   3.310
 1109HOH     H1 3513   2.597   2.255   3.311
 1109HOH     H2 3514   2.575   2.374   3.220
 1110HOH      O 3515   1.897   1.930   3.002
 1110HOH     H1 3516   1.901   1.866   3.073
 1110HOH     H2 3517   1.805   1.959   3.001
 1111HOH      O 3518   1.190   1.092   1.821
 1111HOH     H1 3519   1.131   1.038   1.768
 1111HOH     H2 3520   1.144   1.102   1.904
 1112HOH      O 3521   2.254   2.072   0.393
 1112HOH     H1 3522   2.217   2.079   0.304
 1112HOH     H2 3523   2.348   2.070   0.380
 1113HOH      O 3524   2.183   3.214   0.170
 1113HOH     H1 3525   2.191   3.179   0.259
 1113HOH     H2 3526   2.097   3.185   0.141
 1114HOH      O 3527   1.167   1.516   2.717
 1114HOH     H1 3528   1.134   1.458   2.648
 1114HOH     H2 3529   1.259   1.491   2.727
 1115HOH      O 3530   3.435   1.952   2.630
 1115HOH     H1 3531   3.425   2.046   2.646
 1115HOH     H2 3532   3.434   1.913   2.717
 1116HOH      O 3533   3.903   1.504   3.761
 1116HOH     H1 3534   3.911   1.598   3.743
 1116HOH     H2 3535   3.815   1.482   3.734
 1117HOH      O 3536   2.159   2.476   0.030
 1117HOH     H1 3537   2.215   2.516  -0.037
 1117HOH     H2 3538   2.220   2.447   0.098
 1118HOH      O 3539   0.510   1.382   3.161
 1118HOH     H1 3540   0.595   1.425   3.153
 1118HOH     H2 3541   0.531   1.293   3.189
 1119HOH      O 3542   2.870   1.077   4.031
 1119HOH     H1 3543   2.829   1.054   3.948
 1119HOH     H2 3544   2.906   1.165   4.017
 1120HOH      O 3545   0.163   2.697   0.087
 1120HOH     H1 3546   0.246   2.684   0.134
 1120HOH     H2 3547   0.107   2.742   0.151
 1121HOH      O 3548   0.868   2.594   3.899
 1121HOH     H1 3549   0.898   2.648   3.826
 1121HOH     H2 3550   0.891   2.504   3.874
 1122HOH      O 3551   1.294   3.584   3.348
 1122HOH     H1 3552   1.339   3.664   3.319
 1122HOH     H2 3553   1.201   3.607   3.345
 1123HOH      O 3554   0.579   0.865   3.064
 1123HOH     H1 3555   0.663   0.865   3.111
 1123HOH     H2 3556   0.551   0.773   3.065
 1124HOH      O 3557   2.393   1.904   1.890
 1124HOH     H1 3558   2.305   1.920   1.855
 1124HOH     H2 3559   2.450   1.963   1.841
 1125HOH      O 3560   2.789   3.459   0.022
 1125HOH     H1 3561   2.864   3.474  -0.037
 1125HOH     H2 3562   2.826   3.470   0.110
 1126HOH      O 3563   2.908   3.088   1.262
 1126HOH     H1 3564   2.897   3.091   1.357
 1126HOH     H2 3565   2.931   2.997   1.244
 1127HOH      O 3566   0.561   2.014   1.594
 1127HOH     H1 3567   0.615   1.959   1.652
 1127HOH     H2 3568   0.591   2.103   1.611
 1128HOH      O 3569   0.155   2.482   1.901
 1128HOH     H1 3570   0.197   2.439   1.827
 1128HOH     H2 3571   0.192   2.571   1.901
 1129HOH      O 3572   2.048   0.649   1.820
 1129HOH     H1 3573   1.989   0.639   1.745
 1129HOH     H2 3574   2.036   0.740   1.848
 1130HOH      O 3575   2.016   0.081   3.904
 1130HOH     H1 3576   2.005   0.021   3.830
 1130HOH     H2 3577   1.942   0.062   3.962
 1131HOH      O 3578   3.612   1.503   2.496
 1131HOH     H1 3579   3.618   1.586   2.544
 1131HOH     H2 3580   3.618   1.436   2.564
 1132HOH      O 3581   2.531   2.465   2.818
 1132HOH     H1 3582   2.441   2.465   2.852
 1132HOH     H2 3583   2.524   2.426   2.731
 1133HOH      O 3584   0.348   1.544   3.290
 1133HOH     H1 3585   0.416   1.491   3.249
 1133HOH     H2 3586   0.351   1.627   3.243
 1134HOH      O 3587   2.929   0.320   3.401
 1134HOH     H1 3588   2.926   0.416   3.393
 1134HOH     H2 3589   2.923   0.288   3.311
 1135HOH      O 3590   3.745   2.758   2.426
 1135HOH     H1 3591   3.773   2.697   2.358
 1135HOH     H2 3592   3.697   2.826   2.379
 1136HOH      O 3593   1.315   2.631   0.154
 1136HOH     H1 3594   1.372   2.596   0.222
 1136HOH     H2 3595   1.369   2.698   0.110
 1137HOH      O 3596   2.541   3.937   3.352
 1137HOH     H1 3597   2.481   3.938   3.427
 1137HOH     H2 3598   2.622   3.901   3.388
 1138HOH      O 3599   1.712   2.921   0.648
 1138HOH     H1 3600   1.648   2.851   0.631
 1138HOH     H2 3601   1.672   2.974   0.716
 1139HOH      O 3602   2.144   2.162   3.671
 1139HOH     H1 3603   2.075   2.218   3.633
 1139HOH     H2 3604   2.172   2.209   3.749
 1140HOH      O 3605   0.712   0.372   2.157
 1140HOH     H1 3606   0.626   0.341   2.131
 1140HOH     H2 3607   0.742   0.308   2.222
 1141HOH      O 3608   2.478   3.346   2.065
 1141HOH     H1 3609   2.568   3.319   2.045
 1141HOH     H2 3610   2.483   3.441   2.072
 1142HOH      O 3611   3.371   0.689   2.624
 1142HOH     H1 3612   3.371   0.777   2.588
 1142HOH     H2 3613   3.289   0.683   2.674
 1143HOH      O 3614   3.861   3.676   2.064
 1143HOH     H1 3615   3.815   3.747   2.020
 1143HOH     H2 3616   3.846   3.599   2.009
 1144HOH      O 3617   1.798   0.096   1.598
 1144HOH     H1 3618   1.867   0.053   1.650
 1144HOH     H2 3619   1.772   0.171   1.651
 1145HOH      O 3620   3.102   1.700   0.827
 1145HOH     H1 3621   3.044   1.676   0.755
 1145HOH     H2 3622   3.048   1.757   0.883
 1146HOH      O 3623   2.153   0.373   0.556
 1146HOH     H1 3624   2.232   0.339   0.598
 1146HOH     H2 3625   2.084   0.311   0.578
 1147HOH      O 3626   3.818   3.978   3.726
 1147HOH     H1 3627   3.856   4.051   3.775
 1147HOH     H2 3628   3.807   3.909   3.791
 1148HOH      O 3629   1.590   3.876   1.640
 1148HOH     H1 3630   1.685   3.866   1.630
 1148HOH     H2 3631   1.581   3.943   1.708
 1149HOH      O 3632   2.038   3.335   2.619
 1149HOH     H1 3633   2.094   3.257   2.614
 1149HOH     H2 3634   2.095   3.407   2.592
 1150HOH      O 3635   1.787   0.342   2.725
 1150HOH     H1 3636   1.779   0.398   2.647
 1150HOH     H2 3637   1.872   0.298   2.714
 1151HOH      O 3638   3.232   2.438   0.758
 1151HOH     H1 3639   3.163   2.454   0.694
 1151HOH     H2 3640   3.203   2.486   0.836
 1152HOH      O 3641   3.734   3.200   2.772
 1152HOH     H1 3642   3.699   3.289   2.764
 1152HOH     H2 3643   3.809   3.209   2.830
 1153HOH      O 3644   0.558   3.800   1.099
 1153HOH     H1 3645   0.475   3.794   1.053
 1153HOH     H2 3646   0.535   3.830   1.187
 1154HOH      O 3647   3.650   0.109   0.210
 1154HOH     H1 3648   3.696   0.030   0.180
 1154HOH     H2 3649   3.571   0.113   0.156
 1155HOH      O 3650   3.012   2.444   2.470
 1155HOH     H1 3651   3.052   2.489   2.545
 1155HOH     H2 3652   2.923   2.480   2.466
 1156HOH      O 3653   1.637   3.466   3.550
 1156HOH     H1 3654   1.565   3.423   3.597
 1156HOH     H2 3655   1.617   3.452   3.458
 1157HOH      O 3656   0.595   2.559   0.416
 1157HOH     H1 3657   0.645   2.486   0.381
 1157HOH     H2 3658   0.504   2.528   0.417
 1158HOH      O 3659   2.231   3.201   2.972
 1158HOH     H1 3660   2.275   3.209   2.888
 1158HOH     H2 3661   2.241   3.287   3.013
 1159HOH      O 3662   3.332   1.818   0.049
 1159HOH     H1 3663   3.401   1.868   0.091
 1159HOH     H2 3664   3.256   1.826   0.108
 1160HOH      O 3665   1.501   2.201   3.197
 1160HOH     H1 3666   1.492   2.234   3.287
 1160HOH     H2 3667   1.534   2.112   3.207
 1161HOH      O 3668   1.264   2.332   3.129
 1161HOH     H1 3669   1.345   2.288   3.153
 1161HOH     H2 3670   1.256   2.317   3.035
 1162HOH      O 3671   0.924   2.156   2.754
 1162HOH     H1 3672   0.845   2.139   2.703
 1162HOH     H2 3673   0.973   2.219   2.703
 1163HOH      O 3674   0.556   1.748   2.450
 1163HOH     H1 3675   0.502   1.670   2.463
 1163HOH     H2 3676   0.598   1.763   2.535
 1164HOH      O 3677   0.462   0.658   2.690
 1164HOH     H1 3678   0.374   0.681   2.659
 1164HOH     H2 3679   0.519   0.723   2.650
 1165HOH      O 3680   2.009   3.866   2.260
 1165HOH     H1 3681   2.021   3.797   2.325
 1165HOH     H2 3682   1.972   3.939   2.310
 1166HOH      O 3683   2.514   2.013   1.030
 1166HOH     H1 3684   2.563   1.984   1.107
 1166HOH     H2 3685   2.458   1.939   1.008
 1167HOH      O 3686   3.194   1.212   2.705
 1167HOH     H1 3687   3.224   1.293   2.747
 1167HOH     H2 3688   3.258   1.146   2.731
 1168HOH      O 3689   3.899   2.000   1.463
 1168HOH     H1 3690   3.842   2.011   1.539
 1168HOH     H2 3691   3.956   2.077   1.465
 1169HOH      O 3692   3.491   1.894   1.980
 1169HOH     H1 3693   3.422   1.829   1.993
 1169HOH     H2 3694   3.508   1.929   2.068
 1170HOH      O 3695   2.462   2.735   2.729
 1170HOH     H1 3696   2.491   2.646   2.749
 1170HOH     H2 3697   2.419   2.765   2.809
 1171HOH      O 3698   1.832   1.504   1.421
 1171HOH     H1 3699   1.910   1.451   1.405
 1171HOH     H2 3700   1.867   1.590   1.446
 1172HOH      O 3701   2.268   0.461   3.496
 1172HOH     H1 3702   2.209   0.405   3.546
 1172HOH     H2 3703   2.291   0.409   3.420
 1173HOH      O 3704   2.584   3.070   3.494
 1173HOH     H1 3705   2.598   3.033   3.581
 1173HOH     H2 3706   2.495   3.105   3.496
 1174HOH      O 3707   1.829   1.560   2.075
 1174HOH     H1 3708   1.745   1.607   2.081
 1174HOH     H2 3709   1.851   1.563   1.982
 1175HOH      O 3710   3.514   3.398   3.384
 1175HOH     H1 3711   3.436   3.444   3.413
 1175HOH     H2 3712   3.569   3.467   3.346
 1176HOH      O 3713   1.170   0.538   3.588
 1176HOH     H1 3714   1.212   0.515   3.671
 1176HOH     H2 3715   1.096   0.478   3.580
 1177HOH      O 3716   3.477   1.881   2.878
 1177HOH     H1 3717   3.573   1.887   2.879
 1177HOH     H2 3718   3.453   1.865   2.969
 1178HOH      O 3719   3.686   1.102   1.043
 1178HOH     H1 3720   3.766   1.147   1.069
 1178HOH     H2 3721   3.702   1.011   1.064
 1179HOH      O 3722   0.825   3.124   0.208
 1179HOH     H1 3723   0.908   3.165   0.232
 1179HOH     H2 3724   0.775   3.123   0.290
 1180HOH      O 3725   3.005   1.977   1.422
 1180HOH     H1 3726   3.047   2.017   1.346
 1180HOH     H2 3727   3.007   1.883   1.405
 1181HOH      O 3728   0.893   3.691   1.811
 1181HOH     H1 3729   0.919   3.599   1.814
 1181HOH     H2 3730   0.927   3.728   1.893
 1182HOH      O 3731   2.653   2.948   0.219
 1182HOH     H1 3732   2.584   3.014   0.232
 1182HOH     H2 3733   2.728   2.998   0.185
 1183HOH      O 3734   0.667   0.035   2.997
 1183HOH     H1 3735   0.703  -0.024   2.930
 1183HOH     H2 3736   0.691   0.123   2.967
 1184HOH      O 3737   0.951   3.825   1.540
 1184HOH     H1 3738   0.951   3.840   1.634
 1184HOH     H2 3739   0.884   3.757   1.526
 1185HOH      O 3740   3.624   1.410   3.329
 1185HOH     H1 3741   3.612   1.402   3.234
 1185HOH     H2 3742   3.535   1.415   3.364
 1186HOH      O 3743   2.982   1.365   0.190
 1186HOH     H1 3744   2.907   1.397   0.139
 1186HOH     H2 3745   3.046   1.337   0.124
 1187HOH      O 3746   0.327   1.450   1.842
 1187HOH     H1 3747   0.314   1.456   1.936
 1187HOH     H2 3748   0.368   1.364   1.828
 1188HOH      O 3749   3.453   0.302   2.877
 1188HOH     H1 3750   3.518   0.286   2.809
 1188HOH     H2 3751   3.415   0.387   2.854
 1189HOH      O 3752   1.884   2.125   0.206
 1189HOH     H1 3753   1.884   2.036   0.241
 1189HOH     H2 3754   1.972   2.136   0.169
 1190HOH      O 3755   2.527   2.759   0.686
 1190HOH     H1 3756   2.504   2.703   0.612
 1190HOH     H2 3757   2.486   2.844   0.666
 1191HOH      O 3758   0.635   1.911   2.796
 1191HOH     H1 3759   0.709   1.891   2.853
 1191HOH     H2 3760   0.563   1.858   2.831
 1192HOH      O 3761   1.181   2.067   2.566
 1192HOH     H1 3762   1.243   2.095   2.633
 1192HOH     H2 3763   1.096   2.099   2.597
 1193HOH      O 3764   2.265   1.227   0.915
 1193HOH     H1 3765   2.171   1.211   0.923
 1193HOH     H2 3766   2.279   1.238   0.821
 1194HOH      O 3767   0.146   3.804   2.287
 1194HOH     H1 3768   0.202   3.823   2.362
 1194HOH     H2 3769   0.153   3.709   2.277
 1195HOH      O 3770   0.047   3.320   1.491
 1195HOH     H1 3771  -0.034   3.309   1.541
 1195HOH     H2 3772   0.094   3.390   1.536
 1196HOH      O 3773   3.730   1.884   1.278
 1196HOH     H1 3774   3.791   1.938   1.328
 1196HOH     H2 3775   3.671   1.847   1.344
 1197HOH      O 3776   3.319   0.082   2.226
 1197HOH     H1 3777   3.332   0.126   2.311
 1197HOH     H2 3778   3.260   0.009   2.246
 1198HOH      O 3779   0.640   2.799   1.894
 1198HOH     H1 3780   0.569   2.839   1.844
 1198HOH     H2 3781   0.622   2.705   1.889
 1199HOH      O 3782   3.098   3.807   3.238
 1199HOH     H1 3783   3.083   3.867   3.165
 1199HOH     H2 3784   3.055   3.849   3.313
 1200HOH      O 3785   0.506   0.978   3.613
 1200HOH     H1 3786   0.525   0.948   3.702
 1200HOH     H2 3787   0.413   0.958   3.601
 1201HOH      O 3788   0.466   2.464   2.158
 1201HOH     H1 3789   0.532   2.475   2.226
 1201HOH     H2 3790   0.384   2.489   2.199
 1202HOH      O 3791   1.143   2.530   0.917
 1202HOH     H1 3792   1.082   2.603   0.906
 1202HOH     H2 3793   1.147   2.516   1.011
 1203HOH      O 3794   0.817   3.308   0.502
 1203HOH     H1 3795   0.902   3.292   0.461
 1203HOH     H2 3796   0.807   3.403   0.499
 1204HOH      O 3797   0.204   3.468   2.733
 1204HOH     H1 3798   0.185   3.531   2.664
 1204HOH     H2 3799   0.118   3.448   2.771
 1205HOH      O 3800   3.058   2.623   1.081
 1205HOH     H1 3801   2.981   2.584   1.121
 1205HOH     H2 3802   3.023   2.683   1.015
 1206HOH      O 3803   1.593   2.993   0.997
 1206HOH     H1 3804   1.637   2.910   0.977
 1206HOH     H2 3805   1.652   3.060   0.964
 1207HOH      O 3806   0.835   1.169   2.841
 1207HOH     H1 3807   0.748   1.137   2.864
 1207HOH     H2 3808   0.893   1.096   2.859
 1208HOH      O 3809   2.407   1.243   3.521
 1208HOH     H1 3810   2.500   1.217   3.523
 1208HOH     H2 3811   2.399   1.309   3.590
 1209HOH      O 3812   1.722   0.246   3.253
 1209HOH     H1 3813   1.807   0.237   3.297
 1209HOH     H2 3814   1.660   0.203   3.312
 1210HOH      O 3815   0.458   2.558   2.471
 1210HOH     H1 3816   0.381   2.557   2.414
 1210HOH     H2 3817   0.495   2.646   2.460
 1211HOH      O 3818   3.938   1.670   0.537
 1211HOH     H1 3819   3.972   1.622   0.613
 1211HOH     H2 3820   3.852   1.702   0.566
 1212HOH      O 3821   3.988   3.001   1.672
 1212HOH     H1 3822   4.031   3.010   1.757
 1212HOH     H2 3823   4.060   2.993   1.610
 1213HOH      O 3824   2.948   0.219   0.330
 1213HOH     H1 3825   2.963   0.131   0.365
 1213HOH     H2 3826   2.925   0.272   0.406
 1214HOH      O 3827   3.682   2.291   1.664
 1214HOH     H1 3828   3.608   2.309   1.722
 1214HOH     H2 3829   3.681   2.363   1.601
 1215HOH      O 3830   3.006   0.505   3.703
 1215HOH     H1 3831   3.035   0.544   3.621
 1215HOH     H2 3832   3.041   0.416   3.701
 1216HOH      O 3833   0.872   2.389   3.710
 1216HOH     H1 3834   0.811   2.393   3.637
 1216HOH     H2 3835   0.884   2.295   3.727
 1217HOH      O 3836   0.295   2.846   3.185
 1217HOH     H1 3837   0.322   2.826   3.275
 1217HOH     H2 3838   0.237   2.774   3.160
 1218HOH      O 3839   2.690   3.181   0.010
 1218HOH     H1 3840   2.698   3.269   0.045
 1218HOH     H2 3841   2.596   3.169  -0.005
 1219HOH      O 3842   2.767   1.613   2.661
 1219HOH     H1 3843   2.844   1.558   2.651
 1219HOH     H2 3844   2.800   1.696   2.694
 1220HOH      O 3845   3.270   3.847   2.560
 1220HOH     H1 3846   3.311   3.828   2.645
 1220HOH     H2 3847   3.344   3.854   2.499
 1221HOH      O 3848   2.281   1.843   2.740
 1221HOH     H1 3849   2.325   1.791   2.807
 1221HOH     H2 3850   2.191   1.810   2.740
 1222HOH      O 3851   3.335   3.781   0.748
 1222HOH     H1 3852   3.417   3.736   0.768
 1222HOH     H2 3853   3.346   3.868   0.787
 1223HOH      O 3854   2.360   3.677   3.453
 1223HOH     H1 3855   2.308   3.597   3.460
 1223HOH     H2 3856   2.451   3.647   3.453
 1224HOH      O 3857   0.406   2.457   2.729
 1224HOH     H1 3858   0.464   2.515   2.777
 1224HOH     H2 3859   0.418   2.480   2.637
 1225HOH      O 3860   2.390   2.215   2.890
 1225HOH     H1 3861   2.383   2.163   2.969
 1225HOH     H2 3862   2.348   2.298   2.912
 1226HOH      O 3863   0.756   3.224   3.286
 1226HOH     H1 3864   0.839   3.258   3.319
 1226HOH     H2 3865   0.740   3.144   3.336
 1227HOH      O 3866   2.287   2.216   2.638
 1227HOH     H1 3867   2.342   2.183   2.710
 1227HOH     H2 3868   2.206   2.243   2.680
 1228HOH      O 3869   3.050   0.881   3.668
 1228HOH     H1 3870   3.077   0.928   3.746
 1228HOH     H2 3871   3.119   0.897   3.604
 1229HOH      O 3872   3.122   0.173   0.690
 1229HOH     H1 3873   3.069   0.100   0.658
 1229HOH     H2 3874   3.090   0.249   0.641
 1230HOH      O 3875   3.286   2.917   3.363
 1230HOH     H1 3876   3.324   2.999   3.332
 1230HOH     H2 3877   3.301   2.855   3.292
 1231HOH      O 3878   0.763   3.524   0.072
 1231HOH     H1 3879   0.717   3.563   0.146
 1231HOH     H2 3880   0.843   3.576   0.065
 1232HOH      O 3881   3.309   2.253   2.725
 1232HOH     H1 3882   3.293   2.311   2.799
 1232HOH     H2 3883   3.221   2.224   2.699
 1233HOH      O 3884   3.695   2.959   1.309
 1233HOH     H1 3885   3.742   2.975   1.227
 1233HOH     H2 3886   3.762   2.924   1.368
 1234HOH      O 3887   2.761   1.187   1.943
 1234HOH     H1 3888   2.712   1.166   1.864
 1234HOH     H2 3889   2.795   1.275   1.927
 1235HOH      O 3890   1.965   0.607   0.870
 1235HOH     H1 3891   1.873   0.608   0.845
 1235HOH     H2 3892   2.010   0.655   0.800
 1236HOH      O 3893   0.193   3.730   1.424
 1236HOH     H1 3894   0.213   3.657   1.482
 1236HOH     H2 3895   0.150   3.690   1.348
 1237HOH      O 3896   2.131   2.615   2.193
 1237HOH     H1 3897   2.155   2.707   2.190
 1237HOH     H2 3898   2.209   2.569   2.161
 1238HOH      O 3899   1.890   1.759   0.681
 1238HOH     H1 3900   1.959   1.816   0.646
 1238HOH     H2 3901   1.822   1.760   0.613
 1239HOH      O 3902   3.270   0.867   2.966
 1239HOH     H1 3903   3.322   0.804   3.017
 1239HOH     H2 3904   3.201   0.895   3.026
 1240HOH      O 3905   3.249   1.412   1.455
 1240HOH     H1 3906   3.273   1.458   1.535
 1240HOH     H2 3907   3.153   1.411   1.457
 1241HOH      O 3908   3.270   0.098   2.949
 1241HOH     H1 3909   3.262   0.069   2.858
 1241HOH     H2 3910   3.330   0.172   2.946
 1242HOH      O 3911   3.231   3.474   2.230
 1242HOH     H1 3912   3.311   3.477   2.178
 1242HOH     H2 3913   3.180   3.550   2.200
 1243HOH      O 3914   0.282   1.202   2.751
 1243HOH     H1 3915   0.268   1.112   2.782
 1243HOH     H2 3916   0.322   1.247   2.825
 1244HOH      O 3917   0.140   1.591   3.029
 1244HOH     H1 3918   0.084   1.556   3.098
 1244HOH     H2 3919   0.190   1.515   2.998
 1245HOH      O 3920   0.691   3.951   3.523
 1245HOH     H1 3921   0.679   3.997   3.440
 1245HOH     H2 3922   0.640   4.001   3.586
 1246HOH      O 3923   1.671   2.705   1.013
 1246HOH     H1 3924   1.724   2.641   0.964
 1246HOH     H2 3925   1.588   2.660   1.029
 1247HOH      O 3926   3.275   0.415   3.277
 1247HOH     H1 3927   3.361   0.427   3.236
 1247HOH     H2 3928   3.219   0.382   3.206
 1248HOH      O 3929   1.743   0.006   3.090
 1248HOH     H1 3930   1.695   0.050   3.019
 1248HOH     H2 3931   1.761   0.076   3.153
 1249HOH      O 3932   0.288   3.575   3.385
 1249HOH     H1 3933   0.368   3.545   3.428
 1249HOH     H2 3934   0.284   3.526   3.303
 1250HOH      O 3935   0.800   3.033   1.649
 1250HOH     H1 3936   0.732   3.066   1.590
 1250HOH     H2 3937   0.751   2.994   1.722
 1251HOH      O 3938   3.896   2.895   3.158
 1251HOH     H1 3939   3.856   2.821   3.113
 1251HOH     H2 3940   3.856   2.895   3.245
 1252HOH      O 3941   0.272   0.941   2.853
 1252HOH     H1 3942   0.198   0.932   2.914
 1252HOH     H2 3943   0.259   0.872   2.789
 1253HOH      O 3944   1.309   3.842   3.727
 1253HOH     H1 3945   1.323   3.861   3.820
 1253HOH     H2 3946   1.339   3.752   3.716
 1254HOH      O 3947   0.602   1.877   1.985
 1254HOH     H1 3948   0.660   1.851   1.914
 1254HOH     H2 3949   0.620   1.971   1.998
 1255HOH      O 3950   3.540   2.398   3.024
 1255HOH     H1 3951   3.566   2.347   2.947
 1255HOH     H2 3952   3.511   2.482   2.988
 1256HOH      O 3953   1.984   1.245   0.282
 1256HOH     H1 3954   1.943   1.225   0.197
 1256HOH     H2 3955   1.951   1.177   0.340
 1257HOH      O 3956   2.387   1.784   3.634
 1257HOH     H1 3957   2.335   1.706   3.613
 1257HOH     H2 3958   2.385   1.836   3.554
 1258HOH      O 3959   3.876   2.973   0.717
 1258HOH     H1 3960   3.961   2.986   0.760
 1258HOH     H2 3961   3.819   3.038   0.757
 1259HOH      O 3962   2.135   3.085   3.705
 1259HOH     H1 3963   2.046   3.054   3.688
 1259HOH     H2 3964   2.179   3.010   3.745
 1260HOH      O 3965   2.272   3.447   1.333
 1260HOH     H1 3966   2.332   3.441   1.259
 1260HOH     H2 3967   2.236   3.535   1.328
 1261HOH      O 3968   3.274   3.492   0.521
 1261HOH     H1 3969   3.296   3.576   0.482
 1261HOH     H2 3970   3.276   3.430   0.449
 1262HOH      O 3971   2.223   1.800   2.267
 1262HOH     H1 3972   2.253   1.780   2.355
 1262HOH     H2 3973   2.204   1.715   2.228
 1263HOH      O 3974   1.324   2.795   2.381
 1263HOH     H1 3975   1.339   2.706   2.413
 1263HOH     H2 3976   1.381   2.803   2.304
 1264HOH      O 3977   0.657   0.019   3.263
 1264HOH     H1 3978   0.658   0.045   3.170
 1264HOH     H2 3979   0.656   0.102   3.310
 1265HOH      O 3980   2.867   0.686   0.470
 1265HOH     H1 3981   2.860   0.732   0.386
 1265HOH     H2 3982   2.853   0.594   0.449
 1266HOH      O 3983   2.645   1.030   0.709
 1266HOH     H1 3984   2.660   1.089   0.635
 1266HOH     H2 3985   2.664   0.943   0.675
 1267HOH      O 3986   3.398   3.305   1.109
 1267HOH     H1 3987   3.362   3.233   1.058
 1267HOH     H2 3988   3.446   3.263   1.180
 1268HOH      O 3989   3.897   0.379   1.662
 1268HOH     H1 3990   3.991   0.385   1.646
 1268HOH     H2 3991   3.890   0.361   1.756
 1269HOH      O 3992   0.831   0.497   1.931
 1269HOH     H1 3993   0.813   0.443   2.008
 1269HOH     H2 3994   0.923   0.522   1.940
 1270HOH      O 3995   1.936   3.583   1.714
 1270HOH     H1 3996   2.007   3.646   1.702
 1270HOH     H2 3997   1.980   3.499   1.728
 1271HOH      O 3998   2.747   1.388   0.025
 1271HOH     H1 3999   2.679   1.382   0.091
 1271HOH     H2 4000   2.711   1.447  -0.042
 1272HOH      O 4001   2.758   3.099   1.520
 1272HOH     H1 4002   2.809   3.065   1.594
 1272HOH     H2 4003   2.689   3.151   1.561
 1273HOH      O 4004   0.763   3.623   1.503
 1273HOH     H1 4005   0.685   3.601   1.451
 1273HOH     H2 4006   0.784   3.542   1.549
 1274HOH      O 4007   3.356   0.901   3.575
 1274HOH     H1 4008   3.392   0.903   3.486
 1274HOH     H2 4009   3.403   0.831   3.618
 1275HOH      O 4010   1.499   3.352   1.365
 1275HOH     H1 4011   1.464   3.270   1.399
 1275HOH     H2 4012   1.432   3.384   1.305
 1276HOH      O 4013   1.000   3.522   1.374
 1276HOH     H1 4014   0.907   3.545   1.372
 1276HOH     H2 4015   1.007   3.447   1.315
 1277HOH      O 4016   3.295   3.529   3.479
 1277HOH     H1 4017   3.204   3.500   3.489
 1277HOH     H2 4018   3.297   3.616   3.521
 1278HOH      O 4019   0.121   1.507   3.551
 1278HOH     H1 4020   0.159   1.580   3.502
 1278HOH     H2 4021   0.109   1.541   3.640
 1279HOH      O 4022   3.925   2.583   1.919
 1279HOH     H1 4023   4.005   2.540   1.947
 1279HOH     H2 4024   3.913   2.655   1.980
 1280HOH      O 4025   2.945   2.849   0.378
 1280HOH     H1 4026   3.022   2.904   0.392
 1280HOH     H2 4027   2.951   2.821   0.286
 1281HOH      O 4028   0.044   3.265   2.076
 1281HOH     H1 4029   0.070   3.341   2.128
 1281HOH     H2 4030   0.106   3.197   2.102
 1282HOH      O 4031   0.139   0.687   3.779
 1282HOH     H1 4032   0.163   0.624   3.847
 1282HOH     H2 4033   0.044   0.695   3.785
 1283HOH      O 4034   2.191   1.224   1.528
 1283HOH     H1 4035   2.256   1.154   1.527
 1283HOH     H2 4036   2.204   1.269   1.444
 1284HOH      O 4037   2.400   0.364   2.929
 1284HOH     H1 4038   2.333   0.347   2.863
 1284HOH     H2 4039   2.478   0.388   2.879
 1285HOH      O 4040   2.793   1.603   3.555
 1285HOH     H1 4041   2.727   1.600   3.625
 1285HOH     H2 4042   2.807   1.696   3.540
 1286HOH      O 4043   3.558   1.299   1.237
 1286HOH     H1 4044   3.613   1.280   1.161
 1286HOH     H2 4045   3.584   1.233   1.302
 1287HOH      O 4046   0.221   1.443   0.935
 1287HOH     H1 4047   0.206   1.380   0.865
 1287HOH     H2 4048   0.227   1.389   1.014
 1288HOH      O 4049   2.129   0.864   2.969
 1288HOH     H1 4050   2.062   0.817   3.019
 1288HOH     H2 4051   2.193   0.796   2.946
 1289HOH      O 4052   1.314   2.887   0.865
 1289HOH     H1 4053   1.283   2.832   0.793
 1289HOH     H2 4054   1.241   2.947   0.882
 1290HOH      O 4055   1.912   2.063   1.089
 1290HOH     H1 4056   1.968   2.010   1.033
 1290HOH     H2 4057   1.823   2.042   1.060
 1291HOH      O 4058   3.810   2.065   0.708
 1291HOH     H1 4059   3.815   1.983   0.758
 1291HOH     H2 4060   3.849   2.131   0.766
 1292HOH      O 4061   1.712   0.402   1.722
 1292HOH     H1 4062   1.665   0.371   1.645
 1292HOH     H2 4063   1.753   0.484   1.694
 1293HOH      O 4064   2.524   2.026   2.387
 1293HOH     H1 4065   2.538   1.992   2.475
 1293HOH     H2 4066   2.487   1.952   2.338
 1294HOH      O 4067   2.638   0.580   0.898
 1294HOH     H1 4068   2.548   0.550   0.884
 1294HOH     H2 4069   2.651   0.646   0.829
 1295HOH      O 4070   0.813   3.886   2.194
 1295HOH     H1 4071   0.810   3.930   2.279
 1295HOH     H2 4072   0.729   3.841   2.187
 1296HOH      O 4073   0.278   2.231   1.770
 1296HOH     H1 4074   0.198   2.226   1.824
 1296HOH     H2 4075   0.349   2.236   1.833
 1297HOH      O 4076   1.767   2.176   1.939
 1297HOH     H1 4077   1.782   2.224   1.857
 1297HOH     H2 4078   1.787   2.239   2.007
 1298HOH      O 4079   0.332   0.527   3.592
 1298HOH     H1 4080   0.286   0.584   3.653
 1298HOH     H2 4081   0.379   0.588   3.533
 1299HOH      O 4082   0.780   2.317   0.668
 1299HOH     H1 4083   0.861   2.334   0.619
 1299HOH     H2 4084   0.797   2.350   0.756
 1300HOH      O 4085   2.454   1.314   1.113
 1300HOH     H1 4086   2.398   1.345   1.184
 1300HOH     H2 4087   2.393   1.290   1.043
 1301HOH      O 4088   4.041   0.909   2.514
 1301HOH     H1 4089   4.038   0.958   2.432
 1301HOH     H2 4090   3.970   0.845   2.506
 1302HOH      O 4091   3.799   2.015   0.085
 1302HOH     H1 4092   3.869   1.962   0.048
 1302HOH     H2 4093   3.835   2.046   0.168
 1303HOH      O 4094   2.318   4.039   2.918
 1303HOH     H1 4095   2.381   3.996   2.861
 1303HOH     H2 4096   2.335   4.003   3.005
 1304HOH      O 4097   0.846   1.534   2.419
 1304HOH     H1 4098   0.941   1.536   2.429
 1304HOH     H2 4099   0.813   1.550   2.507
 1305HOH      O 4100   1.929   3.817   0.905
 1305HOH     H1 4101   1.935   3.771   0.989
 1305HOH     H2 4102   1.838   3.846   0.900
 1306HOH      O 4103   0.426   2.602   0.809
 1306HOH     H1 4104   0.467   2.534   0.862
 1306HOH     H2 4105   0.498   2.639   0.758
 1307HOH      O 4106   2.489   0.406   1.446
 1307HOH     H1 4107   2.549   0.480   1.456
 1307HOH     H2 4108   2.508   0.372   1.359
 1308HOH      O 4109   1.696   1.727   3.967
 1308HOH     H1 4110   1.685   1.633   3.952
 1308HOH     H2 4111   1.748   1.733   4.046
 1309HOH      O 4112   2.925   2.839   2.281
 1309HOH     H1 4113   2.984   2.792   2.340
 1309HOH     H2 4114   2.981   2.869   2.209
 1310HOH      O 4115   3.187   1.444   2.902
 1310HOH     H1 4116   3.242   1.460   2.978
 1310HOH     H2 4117   3.147   1.530   2.883
 1311HOH      O 4118   0.058   0.884   1.958
 1311HOH     H1 4119   0.094   0.897   1.870
 1311HOH     H2 4120   0.015   0.798   1.953
 1312HOH      O 4121   0.972   1.481   1.371
 1312HOH     H1 4122   1.016   1.564   1.353
 1312HOH     H2 4123   1.016   1.448   1.449
 1313HOH      O 4124   1.186   3.375   2.237
 1313HOH     H1 4125   1.237   3.294   2.238
 1313HOH     H2 4126   1.240   3.438   2.190
 1314HOH      O 4127   1.198   2.405   3.470
 1314HOH     H1 4128   1.188   2.430   3.562
 1314HOH     H2 4129   1.141   2.465   3.423
 1315HOH      O 4130   3.434   0.987   2.713
 1315HOH     H1 4131   3.369   1.009   2.647
 1315HOH     H2 4132   3.388   0.928   2.773
 1316HOH      O 4133   0.020   0.333   3.114
 1316HOH     H1 4134   0.101   0.328   3.063
 1316HOH     H2 4135   0.000   0.242   3.136
 1317HOH      O 4136   2.581   3.549   3.522
 1317HOH     H1 4137   2.583   3.470   3.469
 1317HOH     H2 4138   2.598   3.519   3.611
 1318HOH      O 4139   2.892   1.590   2.341
 1318HOH     H1 4140   2.886   1.680   2.374
 1318HOH     H2 4141   2.924   1.601   2.251
 1319HOH      O 4142   2.374   1.414   2.514
 1319HOH     H1 4143   2.449   1.458   2.475
 1319HOH     H2 4144   2.409   1.333   2.549
 1320HOH      O 4145   1.481   1.074   3.256
 1320HOH     H1 4146   1.401   1.035   3.290
 1320HOH     H2 4147   1.548   1.007   3.269
 1321HOH      O 4148   0.383   0.354   0.682
 1321HOH     H1 4149   0.393   0.358   0.778
 1321HOH     H2 4150   0.465   0.317   0.651
 1322HOH      O 4151   1.704   2.370   1.495
 1322HOH     H1 4152   1.641   2.310   1.455
 1322HOH     H2 4153   1.783   2.361   1.441
 1323HOH      O 4154   3.950   1.716   0.074
 1323HOH     H1 4155   4.004   1.637   0.072
 1323HOH     H2 4156   3.960   1.751   0.162
 1324HOH      O 4157   2.048   1.721   2.816
 1324HOH     H1 4158   2.015   1.642   2.859
 1324HOH     H2 4159   1.997   1.792   2.855
 1325HOH      O 4160   3.588   2.908   1.889
 1325HOH     H1 4161   3.517   2.957   1.930
 1325HOH     H2 4162   3.614   2.962   1.815
 1326HOH      O 4163   1.789   1.278   1.810
 1326HOH     H1 4164   1.763   1.366   1.782
 1326HOH     H2 4165   1.707   1.235   1.833
 1327HOH      O 4166   1.303   2.516   0.514
 1327HOH     H1 4167   1.380   2.520   0.457
 1327HOH     H2 4168   1.333   2.471   0.593
 1328HOH      O 4169   3.832   3.650   1.714
 1328HOH     H1 4170   3.878   3.720   1.761
 1328HOH     H2 4171   3.739   3.675   1.720
 1329HOH      O 4172   2.034   2.449   2.416
 1329HOH     H1 4173   1.984   2.369   2.434
 1329HOH     H2 4174   2.010   2.472   2.326
 1330HOH      O 4175   0.181   0.513  -0.011
 1330HOH     H1 4176   0.261   0.560   0.015
 1330HOH     H2 4177   0.187   0.428   0.033
 1331HOH      O 4178   4.014   1.319   1.775
 1331HOH     H1 4179   3.931   1.299   1.819
 1331HOH     H2 4180   4.070   1.352   1.845
 1332HOH      O 4181   1.934   2.627   1.754
 1332HOH     H1 4182   1.860   2.658   1.702
 1332HOH     H2 4183   1.909   2.644   1.844
 1333HOH      O 4184   2.520   1.589   1.304
 1333HOH     H1 4185   2.549   1.526   1.237
 1333HOH     H2 4186   2.459   1.646   1.258
 1334HOH      O 4187   1.542   2.840   3.849
 1334HOH     H1 4188   1.457   2.816   3.812
 1334HOH     H2 4189   1.591   2.875   3.775
 1335HOH      O 4190   2.499   0.065   1.430
 1335HOH     H1 4191   2.458   0.098   1.350
 1335HOH     H2 4192   2.588   0.043   1.405
 1336HOH      O 4193   2.101   0.255   1.399
 1336HOH     H1 4194   2.082   0.162   1.415
 1336HOH     H2 4195   2.016   0.294   1.380
 1337HOH      O 4196   3.110   3.247   3.229
 1337HOH     H1 4197   3.023   3.262   3.266
 1337HOH     H2 4198   3.119   3.314   3.161
 1338HOH      O 4199   1.700   0.994   1.722
 1338HOH     H1 4200   1.786   0.953   1.720
 1338HOH     H2 4201   1.642   0.930   1.682
 1339HOH      O 4202   3.969   3.193   2.994
 1339HOH     H1 4203   3.934   3.222   3.078
 1339HOH     H2 4204   4.038   3.131   3.016
 1340HOH      O 4205   2.730   1.219   1.414
 1340HOH     H1 4206   2.666   1.290   1.423
 1340HOH     H2 4207   2.727   1.197   1.320
 1341HOH      O 4208   0.860   2.814   3.384
 1341HOH     H1 4209   0.929   2.872   3.352
 1341HOH     H2 4210   0.786   2.830   3.326
 1342HOH      O 4211   1.339   2.748   3.706
 1342HOH     H1 4212   1.360   2.660   3.673
 1342HOH     H2 4213   1.244   2.748   3.717
 1343HOH      O 4214   0.281   1.120   3.310
 1343HOH     H1 4215   0.363   1.088   3.273
 1343HOH     H2 4216   0.307   1.169   3.387
 1344HOH      O 4217   0.238   2.597   2.288
 1344HOH     H1 4218   0.221   2.657   2.216
 1344HOH     H2 4219   0.151   2.572   2.320
 1345HOH      O 4220   1.643   3.806   2.062
 1345HOH     H1 4221   1.714   3.824   2.000
 1345HOH     H2 4222   1.601   3.727   2.027
 1346HOH      O 4223   0.286   2.059   1.535
 1346HOH     H1 4224   0.376   2.057   1.567
 1346HOH     H2 4225   0.242   2.125   1.589
 1347HOH      O 4226   0.475   3.563   1.379
 1347HOH     H1 4227   0.440   3.490   1.429
 1347HOH     H2 4228   0.418   3.569   1.302
 1348HOH      O 4229   1.305   3.848   2.096
 1348HOH     H1 4230   1.221   3.817   2.064
 1348HOH     H2 4231   1.354   3.769   2.117
 1349HOH      O 4232   2.346   1.028   0.450
 1349HOH     H1 4233   2.351   1.099   0.513
 1349HOH     H2 4234   2.309   1.068   0.371
 1350HOH      O 4235   0.645   3.731   0.768
 1350HOH     H1 4236   0.602   3.788   0.833
 1350HOH     H2 4237   0.651   3.785   0.689
 1351HOH      O 4238   0.692   1.189   1.983
 1351HOH     H1 4239   0.715   1.236   2.063
 1351HOH     H2 4240   0.706   1.097   2.004
 1352HOH      O 4241   2.046   0.941   3.241
 1352HOH     H1 4242   2.133   0.977   3.255
 1352HOH     H2 4243   2.052   0.850   3.272
 1353HOH      O 4244   0.956   2.320   1.508
 1353HOH     H1 4245   1.047   2.312   1.479
 1353HOH     H2 4246   0.916   2.379   1.445
 1354HOH      O 4247   1.072   0.307   3.835
 1354HOH     H1 4248   1.084   0.270   3.923
 1354HOH     H2 4249   1.154   0.354   3.817
 1355HOH      O 4250   0.835   3.948   1.286
 1355HOH     H1 4251   0.887   3.908   1.216
 1355HOH     H2 4252   0.889   3.938   1.365
 1356HOH      O 4253   3.442   4.008   3.171
 1356HOH     H1 4254   3.512   3.979   3.112
 1356HOH     H2 4255   3.383   4.059   3.116
 1357HOH      O 4256   3.875   3.707   2.357
 1357HOH     H1 4257   3.847   3.680   2.269
 1357HOH     H2 4258   3.942   3.774   2.341
 1358HOH      O 4259   3.975   3.438   3.845
 1358HOH     H1 4260   4.066   3.411   3.858
 1358HOH     H2 4261   3.927   3.356   3.835
 1359HOH      O 4262   0.833   1.300   2.256
 1359HOH     H1 4263   0.826   1.387   2.294
 1359HOH     H2 4264   0.763   1.250   2.298
 1360HOH      O 4265   0.009   2.348   0.597
 1360HOH     H1 4266   0.015   2.359   0.692
 1360HOH     H2 4267   0.087   2.299   0.574
 1361HOH      O 4268   0.084   0.572   2.468
 1361HOH     H1 4269  -0.001   0.614   2.480
 1361HOH     H2 4270   0.065   0.479   2.469
 1362HOH      O 4271   0.183   1.086   1.791
 1362HOH     H1 4272   0.158   1.130   1.872
 1362HOH     H2 4273   0.140   1.136   1.722
 1363HOH      O 4274   2.631   1.739   4.028
 1363HOH     H1 4275   2.542   1.749   4.062
 1363HOH     H2 4276   2.645   1.815   3.972
 1364HOH      O 4277   2.727   2.278   2.460
 1364HOH     H1 4278   2.760   2.285   2.370
 1364HOH     H2 4279   2.642   2.321   2.458
 1365HOH      O 4280   2.803   3.669   2.365
 1365HOH     H1 4281   2.807   3.699   2.455
 1365HOH     H2 4282   2.782   3.747   2.314
 1366HOH      O 4283   1.363   0.772   0.729
 1366HOH     H1 4284   1.425   0.728   0.670
 1366HOH     H2 4285   1.348   0.857   0.689
 1367HOH      O 4286   3.930   1.166   1.188
 1367HOH     H1 4287   3.935   1.225   1.263
 1367HOH     H2 4288   3.950   1.221   1.112
 1368HOH      O 4289   3.811   0.574   0.438
 1368HOH     H1 4290   3.776   0.557   0.525
 1368HOH     H2 4291   3.877   0.505   0.425
 1369HOH      O 4292   2.992   2.747   0.089
 1369HOH     H1 4293   2.934   2.823   0.083
 1369HOH     H2 4294   3.080   2.783   0.079
 1370HOH      O 4295   1.996   0.912   3.523
 1370HOH     H1 4296   1.986   0.899   3.428
 1370HOH     H2 4297   1.971   0.828   3.561
 1371HOH      O 4298   1.808   0.906   0.959
 1371HOH     H1 4299   1.823   0.840   1.026
 1371HOH     H2 4300   1.719   0.888   0.928
 1372HOH      O 4301   2.013   1.118   1.761
 1372HOH     H1 4302   1.933   1.169   1.770
 1372HOH     H2 4303   2.043   1.137   1.672
 1373HOH      O 4304   2.379   1.619   2.926
 1373HOH     H1 4305   2.389   1.524   2.924
 1373HOH     H2 4306   2.320   1.635   2.999
 1374HOH      O 4307   0.027   3.949   1.442
 1374HOH     H1 4308   0.071   3.866   1.457
 1374HOH     H2 4309  -0.064   3.925   1.422
 1375HOH      O 4310   3.730   2.996   2.159
 1375HOH     H1 4311   3.792   3.051   2.208
 1375HOH     H2 4312   3.648   3.044   2.161
 1376HOH      O 4313   0.516   3.334   3.224
 1376HOH     H1 4314   0.591   3.282   3.252
 1376HOH     H2 4315   0.495   3.389   3.299
 1377HOH      O 4316   1.354   0.131   1.580
 1377HOH     H1 4317   1.340   0.126   1.486
 1377HOH     H2 4318   1.358   0.040   1.609
 1378HOH      O 4319   3.504   0.766   0.625
 1378HOH     H1 4320   3.456   0.793   0.704
 1378HOH     H2 4321   3.577   0.715   0.659
 1379HOH      O 4322   3.665   0.598   2.964
 1379HOH     H1 4323   3.742   0.548   2.937
 1379HOH     H2 4324   3.654   0.664   2.896
 1380HOH      O 4325   1.122   2.585   1.451
 1380HOH     H1 4326   1.127   2.678   1.431
 1380HOH     H2 4327   1.117   2.581   1.547
 1381HOH      O 4328   0.228   2.775   3.839
 1381HOH     H1 4329   0.136   2.795   3.819
 1381HOH     H2 4330   0.225   2.735   3.925
 1382HOH      O 4331   3.989   2.160   2.078
 1382HOH     H1 4332   3.964   2.208   1.998
 1382HOH     H2 4333   3.906   2.123   2.109
 1383HOH      O 4334   3.012   1.512   2.597
 1383HOH     H1 4335   3.025   1.521   2.502
 1383HOH     H2 4336   2.989   1.420   2.609
 1384HOH      O 4337   2.906   0.066   2.615
 1384HOH     H1 4338   2.921   0.071   2.709
 1384HOH     H2 4339   2.869   0.151   2.591
 1385HOH      O 4340   3.171   1.232   0.784
 1385HOH     H1 4341   3.252   1.181   0.779
 1385HOH     H2 4342   3.197   1.321   0.761
 1386HOH      O 4343   2.735   3.565   0.298
 1386HOH     H1 4344   2.703   3.474   0.294
 1386HOH     H2 4345   2.685   3.610   0.230
 1387HOH      O 4346   1.915   2.362   3.850
 1387HOH     H1 4347   1.867   2.348   3.932
 1387HOH     H2 4348   2.003   2.386   3.878
 1388HOH      O 4349   3.195   1.296   1.056
 1388HOH     H1 4350   3.187   1.278   0.963
 1388HOH     H2 4351   3.106   1.316   1.085
 1389HOH      O 4352   1.547   3.930   2.662
 1389HOH     H1 4353   1.633   3.968   2.681
 1389HOH     H2 4354   1.536   3.945   2.568
 1390HOH      O 4355   1.801   0.528   2.537
 1390HOH     H1 4356   1.843   0.615   2.535
 1390HOH     H2 4357   1.852   0.476   2.476
 1391HOH      O 4358   3.754   0.792   0.278
 1391HOH     H1 4359   3.773   0.720   0.339
 1391HOH     H2 4360   3.800   0.767   0.197
 1392HOH      O 4361   0.476   2.991   1.765
 1392HOH     H1 4362   0.480   3.060   1.831
 1392HOH     H2 4363   0.408   3.019   1.704
 1393HOH      O 4364   3.699   0.655   1.685
 1393HOH     H1 4365   3.793   0.644   1.691
 1393HOH     H2 4366   3.687   0.722   1.617
 1394HOH      O 4367   1.488   3.237   1.944
 1394HOH     H1 4368   1.524   3.301   1.882
 1394HOH     H2 4369   1.506   3.274   2.030
 1395HOH      O 4370   3.648   3.249   0.019
 1395HOH     H1 4371   3.601   3.206   0.090
 1395HOH     H2 4372   3.651   3.341   0.045
 1396HOH      O 4373   3.148   2.929   2.116
 1396HOH     H1 4374   3.189   2.964   2.195
 1396HOH     H2 4375   3.170   2.992   2.048
 1397HOH      O 4376   0.192   2.689   0.525
 1397HOH     H1 4377   0.136   2.722   0.454
 1397HOH     H2 4378   0.249   2.625   0.482
 1398HOH      O 4379   3.057   0.426   2.089
 1398HOH     H1 4380   2.968   0.441   2.057
 1398HOH     H2 4381   3.073   0.333   2.072
 1399HOH      O 4382   0.939   3.882   0.421
 1399HOH     H1 4383   0.862   3.893   0.365
 1399HOH     H2 4384   1.008   3.932   0.378
 1400HOH      O 4385   2.435   3.666   2.746
 1400HOH     H1 4386   2.345   3.690   2.725
 1400HOH     H2 4387   2.449   3.585   2.697
 1401HOH      O 4388   3.306   1.004   0.538
 1401HOH     H1 4389   3.327   0.951   0.615
 1401HOH     H2 4390   3.211   1.013   0.540
 1402HOH      O 4391   1.990   2.002   3.833
 1402HOH     H1 4392   2.066   2.039   3.787
 1402HOH     H2 4393   1.987   1.911   3.805
 1403HOH      O 4394   1.112   2.176   1.799
 1403HOH     H1 4395   1.067   2.172   1.714
 1403HOH     H2 4396   1.144   2.087   1.813
 1404HOH      O 4397   1.614   1.460   1.594
 1404HOH     H1 4398   1.606   1.372   1.557
 1404HOH     H2 4399   1.680   1.502   1.540
 1405HOH      O 4400   2.947   2.108   1.647
 1405HOH     H1 4401   3.013   2.106   1.716
 1405HOH     H2 4402   2.990   2.066   1.572
 1406HOH      O 4403   2.550   3.339   3.359
 1406HOH     H1 4404   2.540   3.244   3.367
 1406HOH     H2 4405   2.460   3.373   3.360
 1407HOH      O 4406   1.025   3.597   3.482
 1407HOH     H1 4407   0.930   3.597   3.468
 1407HOH     H2 4408   1.046   3.689   3.498
 1408HOH      O 4409   2.843   3.343   3.342
 1408HOH     H1 4410   2.862   3.278   3.410
 1408HOH     H2 4411   2.751   3.328   3.322
 1409HOH      O 4412   3.306   2.803   1.028
 1409HOH     H1 4413   3.314   2.868   1.098
 1409HOH     H2 4414   3.258   2.731   1.068
 1410HOH      O 4415   2.219   3.097   1.224
 1410HOH     H1 4416   2.140   3.129   1.266
 1410HOH     H2 4417   2.202   3.004   1.209
 1411HOH      O 4418   2.419   1.042   1.493
 1411HOH     H1 4419   2.453   0.957   1.522
 1411HOH     H2 4420   2.434   1.043   1.398
 1412HOH      O 4421   0.069   3.812   1.816
 1412HOH     H1 4422   0.139   3.851   1.764
 1412HOH     H2 4423   0.059   3.870   1.891
 1413HOH      O 4424   2.357   1.354   2.897
 1413HOH     H1 4425   2.353   1.286   2.965
 1413HOH     H2 4426   2.435   1.333   2.847
 1414HOH      O 4427   3.327   1.794   0.435
 1414HOH     H1 4428   3.295   1.712   0.473
 1414HOH     H2 4429   3.284   1.799   0.349
 1415HOH      O 4430   2.727   0.624   2.365
 1415HOH     H1 4431   2.816   0.619   2.330
 1415HOH     H2 4432   2.738   0.665   2.451
 1416HOH      O 4433   1.899   3.921   2.905
 1416HOH     H1 4434   1.832   3.967   2.956
 1416HOH     H2 4435   1.921   3.981   2.834
 1417HOH      O 4436   0.426   3.216   0.145
 1417HOH     H1 4437   0.474   3.222   0.062
 1417HOH     H2 4438   0.492   3.234   0.212
 1418HOH      O 4439   0.138   2.555   0.774
 1418HOH     H1 4440   0.234   2.550   0.780
 1418HOH     H2 4441   0.121   2.604   0.693
 1419HOH      O 4442   1.657   0.824   3.281
 1419HOH     H1 4443   1.719   0.751   3.291
 1419HOH     H2 4444   1.577   0.783   3.247
 1420HOH      O 4445   3.754   2.312   3.487
 1420HOH     H1 4446   3.706   2.234   3.514
 1420HOH     H2 4447   3.757   2.367   3.565
 1421HOH      O 4448   2.673   0.041   0.857
 1421HOH     H1 4449   2.634   0.126   0.872
 1421HOH     H2 4450   2.676   0.033   0.761
 1422HOH      O 4451   3.229   2.465   2.905
 1422HOH     H1 4452   3.290   2.537   2.922
 1422HOH     H2 4453   3.170   2.465   2.980
 1423HOH      O 4454   2.640   3.882   2.259
 1423HOH     H1 4455   2.617   3.934   2.182
 1423HOH     H2 4456   2.704   3.935   2.306
 1424HOH      O 4457   3.106   3.792   3.843
 1424HOH     H1 4458   3.086   3.707   3.881
 1424HOH     H2 4459   3.111   3.851   3.918
 1425HOH      O 4460   2.658   0.979   0.392
 1425HOH     H1 4461   2.568   0.988   0.424
 1425HOH     H2 4462   2.708   1.041   0.445
 1426HOH      O 4463   2.224   1.570   1.982
 1426HOH     H1 4464   2.229   1.477   1.960
 1426HOH     H2 4465   2.304   1.607   1.945
 1427HOH      O 4466   2.825   2.163   3.279
 1427HOH     H1 4467   2.765   2.103   3.325
 1427HOH     H2 4468   2.849   2.115   3.200
 1428HOH      O 4469   1.352   2.067   3.636
 1428HOH     H1 4470   1.396   2.027   3.711
 1428HOH     H2 4471   1.301   1.996   3.597
 1429HOH      O 4472   0.913   0.908   2.873
 1429HOH     H1 4473   0.954   0.860   2.801
 1429HOH     H2 4474   0.819   0.898   2.857
 1430HOH      O 4475   2.431   2.374   1.249
 1430HOH     H1 4476   2.355   2.325   1.216
 1430HOH     H2 4477   2.507   2.325   1.216
 1431HOH      O 4478   2.037   2.354   0.292
 1431HOH     H1 4479   1.945   2.351   0.317
 1431HOH     H2 4480   2.036   2.368   0.197
 1432HOH      O 4481   2.028   0.421   3.181
 1432HOH     H1 4482   2.115   0.439   3.146
 1432HOH     H2 4483   2.014   0.328   3.166
 1433HOH      O 4484   1.100   2.745   0.261
 1433HOH     H1 4485   1.180   2.708   0.225
 1433HOH     H2 4486   1.058   2.672   0.307
 1434HOH      O 4487   1.537   2.486   1.784
 1434HOH     H1 4488   1.578   2.422   1.727
 1434HOH     H2 4489   1.446   2.457   1.791
 1435HOH      O 4490   3.762   1.056   3.808
 1435HOH     H1 4491   3.829   0.988   3.813
 1435HOH     H2 4492   3.788   1.119   3.875
 1436HOH      O 4493   3.148   3.947   0.014
 1436HOH     H1 4494   3.183   3.889   0.081
 1436HOH     H2 4495   3.143   4.033   0.056
 1437HOH      O 4496   2.028   1.935   0.531
 1437HOH     H1 4497   1.994   1.922   0.442
 1437HOH     H2 4498   2.091   2.007   0.522
 1438HOH      O 4499   3.546   0.793   1.866
 1438HOH     H1 4500   3.538   0.878   1.823
 1438HOH     H2 4501   3.616   0.749   1.819
 1439HOH      O 4502   3.462   3.001   1.439
 1439HOH     H1 4503   3.415   2.954   1.370
 1439HOH     H2 4504   3.552   3.008   1.406
 1440HOH      O 4505   2.495   2.671   1.959
 1440HOH     H1 4506   2.466   2.588   1.995
 1440HOH     H2 4507   2.439   2.736   2.000
 1441HOH      O 4508   2.554   1.438   0.568
 1441HOH     H1 4509   2.603   1.518   0.548
 1441HOH     H2 4510   2.562   1.429   0.663
 1442HOH      O 4511   2.903   1.731   4.059
 1442HOH     H1 4512   2.917   1.798   3.992
 1442HOH     H2 4513   2.860   1.659   4.013
 1443HOH      O 4514   0.509   0.582   3.101
 1443HOH     H1 4515   0.563   0.545   3.171
 1443HOH     H2 4516   0.419   0.578   3.135
 1444HOH      O 4517   0.537   3.623   3.061
 1444HOH     H1 4518   0.586   3.587   2.987
 1444HOH     H2 4519   0.598   3.683   3.103
 1445HOH      O 4520   2.915   0.947   2.967
 1445HOH     H1 4521   2.997   0.971   3.009
 1445HOH     H2 4522   2.849   1.003   3.009
 1446HOH      O 4523   2.189   0.803   2.277
 1446HOH     H1 4524   2.176   0.891   2.311
 1446HOH     H2 4525   2.232   0.816   2.193
 1447HOH      O 4526   3.203   1.675   2.711
 1447HOH     H1 4527   3.130   1.643   2.659
 1447HOH     H2 4528   3.276   1.618   2.687
 1448HOH      O 4529   3.705   2.487   3.265
 1448HOH     H1 4530   3.721   2.441   3.347
 1448HOH     H2 4531   3.671   2.420   3.206
 1449HOH      O 4532   1.554   3.140   3.486
 1449HOH     H1 4533   1.561   3.195   3.408
 1449HOH     H2 4534   1.482   3.178   3.536
 1450HOH      O 4535   3.823   2.716   1.049
 1450HOH     H1 4536   3.892   2.651   1.058
 1450HOH     H2 4537   3.750   2.681   1.100
 1451HOH      O 4538   2.396   1.016   3.696
 1451HOH     H1 4539   2.321   0.971   3.736
 1451HOH     H2 4540   2.358   1.096   3.659
 1452HOH      O 4541   3.808   3.839   1.329
 1452HOH     H1 4542   3.740   3.775   1.350
 1452HOH     H2 4543   3.773   3.889   1.256
 1453HOH      O 4544   3.060   0.789   0.900
 1453HOH     H1 4545   3.033   0.705   0.937
 1453HOH     H2 4546   3.032   0.854   0.964
 1454HOH      O 4547   3.319   1.729   1.802
 1454HOH     H1 4548   3.290   1.796   1.863
 1454HOH     H2 4549   3.400   1.763   1.764
 1455HOH      O 4550   0.131   0.449   1.196
 1455HOH     H1 4551   0.149   0.439   1.289
 1455HOH     H2 4552   0.186   0.384   1.153
 1456HOH      O 4553   1.151   2.489   1.193
 1456HOH     H1 4554   1.124   2.521   1.280
 1456HOH     H2 4555   1.244   2.469   1.203
 1457HOH      O 4556   1.190   0.090   2.285
 1457HOH     H1 4557   1.187  -0.003   2.305
 1457HOH     H2 4558   1.118   0.104   2.224
 1458HOH      O 4559   3.834   1.225   0.008
 1458HOH     H1 4560   3.897   1.179   0.063
 1458HOH     H2 4561   3.830   1.314   0.044
 1459HOH      O 4562   1.193   0.504   3.067
 1459HOH     H1 4563   1.137   0.539   2.998
 1459HOH     H2 4564   1.140   0.512   3.147
 1460HOH      O 4565   1.225   3.240   1.283
 1460HOH     H1 4566   1.181   3.165   1.323
 1460HOH     H2 4567   1.226   3.220   1.189
 1461HOH      O 4568   3.507   2.015   0.112
 1461HOH     H1 4569   3.479   2.101   0.081
 1461HOH     H2 4570   3.601   2.014   0.098
 1462HOH      O 4571   3.799   1.054   2.423
 1462HOH     H1 4572   3.773   1.034   2.513
 1462HOH     H2 4573   3.838   1.141   2.428
 1463HOH      O 4574   0.717   0.344   2.441
 1463HOH     H1 4575   0.798   0.292   2.445
 1463HOH     H2 4576   0.748   0.433   2.427
 1464HOH      O 4577   0.351   1.920   2.473
 1464HOH     H1 4578   0.330   1.902   2.565
 1464HOH     H2 4579   0.420   1.857   2.451
 1465HOH      O 4580   2.452   3.885   0.375
 1465HOH     H1 4581   2.433   3.957   0.316
 1465HOH     H2 4582   2.467   3.810   0.317
 1466HOH      O 4583   2.424   1.684   3.330
 1466HOH     H1 4584   2.355   1.641   3.381
 1466HOH     H2 4585   2.461   1.615   3.276
 1467HOH      O 4586   1.590   1.878   3.778
 1467HOH     H1 4587   1.554   1.816   3.714
 1467HOH     H2 4588   1.638   1.823   3.840
 1468HOH      O 4589   2.913   3.432   1.486
 1468HOH     H1 4590   2.819   3.437   1.502
 1468HOH     H2 4591   2.931   3.338   1.482
 1469HOH      O 4592   3.685   1.234   2.108
 1469HOH     H1 4593   3.751   1.279   2.161
 1469HOH     H2 4594   3.652   1.164   2.164
 1470HOH      O 4595   2.937   1.307   2.926
 1470HOH     H1 4596   2.902   1.316   2.838
 1470HOH     H2 4597   3.032   1.314   2.916
 1471HOH      O 4598   1.654   0.234   1.924
 1471HOH     H1 4599   1.563   0.205   1.921
 1471HOH     H2 4600   1.663   0.295   1.851
 1472HOH      O 4601   0.976   3.200   1.978
 1472HOH     H1 4602   0.908   3.132   1.981
 1472HOH     H2 4603   1.047   3.164   2.031
 1473HOH      O 4604   2.228   1.094   0.070
 1473HOH     H1 4605   2.143   1.124   0.037
 1473HOH     H2 4606   2.253   1.160   0.135
 1474HOH      O 4607   0.303   1.250   1.145
 1474HOH     H1 4608   0.385   1.211   1.175
 1474HOH     H2 4609   0.287   1.321   1.207
 1475HOH      O 4610   3.108   1.898   2.863
 1475HOH     H1 4611   3.137   1.973   2.810
 1475HOH     H2 4612   3.161   1.825   2.832
 1476HOH      O 4613   3.643   3.968   2.597
 1476HOH     H1 4614   3.601   3.899   2.545
 1476HOH     H2 4615   3.722   3.927   2.631
 1477HOH      O 4616   3.803   3.906   0.110
 1477HOH     H1 4617   3.805   3.815   0.079
 1477HOH     H2 4618   3.895   3.932   0.113
 1478HOH      O 4619   0.261   3.254   3.008
 1478HOH     H1 4620   0.203   3.179   2.993
 1478HOH     H2 4621   0.334   3.239   2.948
 1479HOH      O 4622   0.406   1.862   0.337
 1479HOH     H1 4623   0.475   1.928   0.331
 1479HOH     H2 4624   0.426   1.800   0.267
 1480HOH      O 4625   3.718   3.300   3.775
 1480HOH     H1 4626   3.679   3.365   3.717
 1480HOH     H2 4627   3.665   3.304   3.855
 1481HOH      O 4628   1.457   1.106   0.177
 1481HOH     H1 4629   1.382   1.047   0.174
 1481HOH     H2 4630   1.490   1.099   0.267
 1482HOH      O 4631   2.070   3.895   0.604
 1482HOH     H1 4632   2.053   3.982   0.566
 1482HOH     H2 4633   2.151   3.906   0.653
 1483HOH      O 4634   0.039   2.189   1.451
 1483HOH     H1 4635   0.126   2.149   1.456
 1483HOH     H2 4636   0.049   2.261   1.388
 1484HOH      O 4637   3.751   3.822   3.468
 1484HOH     H1 4638   3.795   3.876   3.534
 1484HOH     H2 4639   3.804   3.742   3.464
 1485HOH      O 4640   0.685   0.774   3.318
 1485HOH     H1 4641   0.716   0.806   3.403
 1485HOH     H2 4642   0.761   0.732   3.279
 1486HOH      O 4643   3.821   3.572   0.845
 1486HOH     H1 4644   3.882   3.643   0.825
 1486HOH     H2 4645   3.735   3.611   0.836
 1487HOH      O 4646   3.210   0.683   0.508
 1487HOH     H1 4647   3.137   0.690   0.446
 1487HOH     H2 4648   3.171   0.643   0.586
 1488HOH      O 4649   2.822   3.703   1.350
 1488HOH     H1 4650   2.807   3.616   1.387
 1488HOH     H2 4651   2.738   3.727   1.311
 1489HOH      O 4652   1.835   1.827   2.661
 1489HOH     H1 4653   1.905   1.766   2.638
 1489HOH     H2 4654   1.758   1.771   2.675
 1490HOH      O 4655   1.355   2.283   2.095
 1490HOH     H1 4656   1.352   2.219   2.166
 1490HOH     H2 4657   1.408   2.355   2.129
 1491HOH      O 4658   3.903   0.032   2.474
 1491HOH     H1 4659   3.818   0.031   2.519
 1491HOH     H2 4660   3.966   0.051   2.542
 1492HOH      O 4661   2.325   2.999   0.537
 1492HOH     H1 4662   2.327   3.057   0.613
 1492HOH     H2 4663   2.280   2.921   0.568
 1493HOH      O 4664   0.645   2.687   2.194
 1493HOH     H1 4665   0.610   2.669   2.107
 1493HOH     H2 4666   0.595   2.763   2.225
 1494HOH      O 4667   3.692   0.589   0.707
 1494HOH     H1 4668   3.658   0.539   0.782
 1494HOH     H2 4669   3.783   0.607   0.730
 1495HOH      O 4670   1.368   0.257   2.467
 1495HOH     H1 4671   1.413   0.326   2.418
 1495HOH     H2 4672   1.314   0.213   2.401
 1496HOH      O 4673   2.196   2.955   3.112
 1496HOH     H1 4674   2.190   3.038   3.066
 1496HOH     H2 4675   2.132   2.962   3.183
 1497HOH      O 4676   3.781   2.294   0.023
 1497HOH     H1 4677   3.804   2.201   0.017
 1497HOH     H2 4678   3.863   2.337   0.045
 1498HOH      O 4679   1.772   0.638   2.873
 1498HOH     H1 4680   1.774   0.543   2.865
 1498HOH     H2 4681   1.842   0.669   2.815
 1499HOH      O 4682   2.165   3.512   3.662
 1499HOH     H1 4683   2.114   3.558   3.596
 1499HOH     H2 4684   2.103   3.451   3.702
 1500HOH      O 4685   2.740   0.776   0.231
 1500HOH     H1 4686   2.700   0.783   0.145
 1500HOH     H2 4687   2.697   0.845   0.283
 1501HOH      O 4688   0.939   3.980   3.953
 1501HOH     H1 4689   0.857   4.024   3.971
 1501HOH     H2 4690   0.935   3.958   3.860
 1502HOH      O 4691   3.540   0.955   0.323
 1502HOH     H1 4692   3.545   1.006   0.242
 1502HOH     H2 4693   3.615   0.894   0.317
 1503HOH      O 4694   3.949   3.132   2.300
 1503HOH     H1 4695   4.021   3.133   2.363
 1503HOH     H2 4696   3.987   3.167   2.220
 1504HOH      O 4697   1.896   2.550   0.058
 1504HOH     H1 4698   1.987   2.534   0.083
 1504HOH     H2 4699   1.902   2.584  -0.031
 1505HOH      O 4700   0.740   2.368   3.449
 1505HOH     H1 4701   0.722   2.319   3.369
 1505HOH     H2 4702   0.654   2.391   3.483
 1506HOH      O 4703   2.211   0.197   1.010
 1506HOH     H1 4704   2.160   0.277   0.997
 1506HOH     H2 4705   2.158   0.127   0.972
 1507HOH      O 4706   1.410   2.868   0.371
 1507HOH     H1 4707   1.354   2.941   0.344
 1507HOH     H2 4708   1.456   2.843   0.291
 1508HOH      O 4709   3.012   0.601   3.448
 1508HOH     H1 4710   3.093   0.638   3.414
 1508HOH     H2 4711   2.943   0.656   3.411
 1509HOH      O 4712   3.145   3.620   2.522
 1509HOH     H1 4713   3.186   3.701   2.553
 1509HOH     H2 4714   3.169   3.614   2.430
 1510HOH      O 4715   2.117   4.003   0.878
 1510HOH     H1 4716   2.033   3.959   0.872
 1510HOH     H2 4717   2.171   3.943   0.931
 1511HOH      O 4718   3.580   3.651   0.726
 1511HOH     H1 4719   3.557   3.564   0.758
 1511HOH     H2 4720   3.609   3.637   0.636
 1512HOH      O 4721   0.458   1.227   1.720
 1512HOH     H1 4722   0.412   1.167   1.662
 1512HOH     H2 4723   0.549   1.201   1.715
 1513HOH      O 4724   0.314   1.778   3.157
 1513HOH     H1 4725   0.254   1.739   3.092
 1513HOH     H2 4726   0.276   1.864   3.175
 1514HOH      O 4727   1.207   3.485   0.328
 1514HOH     H1 4728   1.191   3.490   0.422
 1514HOH     H2 4729   1.302   3.475   0.319
 1515HOH      O 4730   3.511   2.398   0.906
 1515HOH     H1 4731   3.505   2.491   0.929
 1515HOH     H2 4732   3.597   2.371   0.940
 1516HOH      O 4733   2.927   1.907   0.952
 1516HOH     H1 4734   2.936   1.982   0.893
 1516HOH     H2 4735   3.000   1.916   1.013
 1517HOH      O 4736   3.963   1.335   2.832
 1517HOH     H1 4737   3.956   1.241   2.849
 1517HOH     H2 4738   4.046   1.345   2.786
 1518HOH      O 4739   1.017   3.269   3.912
 1518HOH     H1 4740   1.004   3.334   3.982
 1518HOH     H2 4741   0.951   3.202   3.930
 1519HOH      O 4742   2.633   2.044   3.472
 1519HOH     H1 4743   2.557   1.998   3.437
 1519HOH     H2 4744   2.600   2.092   3.547
 1520HOH      O 4745   2.797   2.337   3.817
 1520HOH     H1 4746   2.842   2.403   3.764
 1520HOH     H2 4747   2.722   2.384   3.855
 1521HOH      O 4748   2.268   0.668   2.010
 1521HOH     H1 4749   2.301   0.755   2.031
 1521HOH     H2 4750   2.197   0.683   1.948
 1522HOH      O 4751   2.848   1.623   1.190
 1522HOH     H1 4752   2.924   1.649   1.242
 1522HOH     H2 4753   2.779   1.608   1.255
 1523HOH      O 4754   0.307   1.157   2.243
 1523HOH     H1 4755   0.266   1.152   2.329
 1523HOH     H2 4756   0.398   1.179   2.261
 1524HOH      O 4757   0.304   1.403   1.393
 1524HOH     H1 4758   0.248   1.437   1.463
 1524HOH     H2 4759   0.365   1.344   1.437
 1525HOH      O 4760   0.058   0.704   1.119
 1525HOH     H1 4761   0.128   0.750   1.164
 1525HOH     H2 4762   0.083   0.611   1.125
 1526HOH      O 4763   1.884   0.311   2.346
 1526HOH     H1 4764   1.944   0.250   2.302
 1526HOH     H2 4765   1.830   0.345   2.275
 1527HOH      O 4766   3.576   0.329   3.391
 1527HOH     H1 4767   3.542   0.352   3.304
 1527HOH     H2 4768   3.583   0.233   3.389
 1528HOH      O 4769   0.438   0.424   1.369
 1528HOH     H1 4770   0.504   0.471   1.419
 1528HOH     H2 4771   0.451   0.452   1.279
 1529HOH      O 4772   0.897   3.618   2.808
 1529HOH     H1 4773   0.979   3.614   2.758
 1529HOH     H2 4774   0.925   3.629   2.899
 1530HOH      O 4775   0.614   0.954   2.802
 1530HOH     H1 4776   0.567   0.912   2.874
 1530HOH     H2 4777   0.587   0.905   2.724
 1531HOH      O 4778   1.938   2.987   0.506
 1531HOH     H1 4779   1.865   2.956   0.559
 1531HOH     H2 4780   1.937   2.931   0.428
 1532HOH      O 4781   2.953   0.996   0.261
 1532HOH     H1 4782   2.888   0.927   0.250
 1532HOH     H2 4783   2.942   1.052   0.184
 1533HOH      O 4784   1.656   3.793   2.332
 1533HOH     H1 4785   1.647   3.782   2.237
 1533HOH     H2 4786   1.618   3.878   2.351
 1534HOH      O 4787   1.280   3.492   1.551
 1534HOH     H1 4788   1.191   3.525   1.558
 1534HOH     H2 4789   1.275   3.422   1.485
 1535HOH      O 4790   3.177   3.550   1.391
 1535HOH     H1 4791   3.142   3.625   1.344
 1535HOH     H2 4792   3.099   3.499   1.416
 1536HOH      O 4793   1.666   2.668   3.047
 1536HOH     H1 4794   1.570   2.670   3.041
 1536HOH     H2 4795   1.696   2.698   2.962
 1537HOH      O 4796   0.429   3.878   1.337
 1537HOH     H1 4797   0.415   3.971   1.353
 1537HOH     H2 4798   0.353   3.835   1.376
 1538HOH      O 4799   0.050   2.123   2.730
 1538HOH     H1 4800   0.103   2.119   2.650
 1538HOH     H2 4801   0.008   2.208   2.726
 1539HOH      O 4802   1.463   2.863   1.361
 1539HOH     H1 4803   1.415   2.841   1.282
 1539HOH     H2 4804   1.551   2.884   1.330
 1540HOH      O 4805   2.748   1.330   2.320
 1540HOH     H1 4806   2.758   1.422   2.344
 1540HOH     H2 4807   2.673   1.329   2.259
 1541HOH      O 4808   3.076   2.117   2.687
 1541HOH     H1 4809   3.039   2.046   2.635
 1541HOH     H2 4810   3.003   2.176   2.704
 1542HOH      O 4811   0.637   3.810   1.766
 1542HOH     H1 4812   0.720   3.764   1.755
 1542HOH     H2 4813   0.622   3.852   1.681
 1543HOH      O 4814   1.586   2.348   0.872
 1543HOH     H1 4815   1.533   2.294   0.933
 1543HOH     H2 4816   1.527   2.419   0.847
 1544HOH      O 4817   3.687   0.584   2.006
 1544HOH     H1 4818   3.625   0.655   1.991
 1544HOH     H2 4819   3.634   0.505   2.012
 1545HOH      O 4820   3.167   0.516   1.236
 1545HOH     H1 4821   3.235   0.544   1.298
 1545HOH     H2 4822   3.096   0.483   1.291
 1546HOH      O 4823   1.705   2.429   3.190
 1546HOH     H1 4824   1.632   2.369   3.176
 1546HOH     H2 4825   1.676   2.512   3.152
 1547HOH      O 4826   3.978   0.053   3.081
 1547HOH     H1 4827   4.071   0.035   3.076
 1547HOH     H2 4828   3.945   0.037   2.993
 1548HOH      O 4829   2.830   2.022   2.334
 1548HOH     H1 4830   2.760   2.080   2.364
 1548HOH     H2 4831   2.800   1.990   2.249
 1549HOH      O 4832   2.330   3.082   0.792
 1549HOH     H1 4833   2.339   3.160   0.847
 1549HOH     H2 4834   2.323   3.010   0.855
 1550HOH      O 4835   3.004   2.942   3.393
 1550HOH     H1 4836   3.095   2.960   3.369
 1550HOH     H2 4837   3.006   2.852   3.427
 1551HOH      O 4838   1.895   3.633   1.159
 1551HOH     H1 4839   1.966   3.610   1.098
 1551HOH     H2 4840   1.919   3.591   1.241
 1552HOH      O 4841   1.734   3.208   3.742
 1552HOH     H1 4842   1.707   3.288   3.787
 1552HOH     H2 4843   1.661   3.186   3.684
 1553HOH      O 4844   0.648   1.791   1.162
 1553HOH     H1 4845   0.581   1.723   1.154
 1553HOH     H2 4846   0.709   1.773   1.091
 1554HOH      O 4847   0.650   3.044   0.977
 1554HOH     H1 4848   0.738   3.067   0.946
 1554HOH     H2 4849   0.600   3.030   0.897
 1555HOH      O 4850   0.755   1.273   1.729
 1555HOH     H1 4851   0.761   1.246   1.821
 1555HOH     H2 4852   0.756   1.368   1.733
 1556HOH      O 4853   2.681   2.478   0.259
 1556HOH     H1 4854   2.695   2.535   0.335
 1556HOH     H2 4855   2.607   2.518   0.213
 1557HOH      O 4856   1.868   0.042   2.428
 1557HOH     H1 4857   1.783   0.006   2.404
 1557HOH     H2 4858   1.855   0.136   2.431
 1558HOH      O 4859   3.348   0.487   3.874
 1558HOH     H1 4860   3.348   0.576   3.907
 1558HOH     H2 4861   3.345   0.496   3.779
 1559HOH      O 4862   2.437   3.658   2.006
 1559HOH     H1 4863   2.481   3.663   2.091
 1559HOH     H2 4864   2.356   3.709   2.018
 1560HOH      O 4865   2.190   1.067   1.176
 1560HOH     H1 4866   2.128   1.051   1.106
 1560HOH     H2 4867   2.152   1.023   1.252
 1561HOH      O 4868   2.142   0.211   2.852
 1561HOH     H1 4869   2.216   0.157   2.878
 1561HOH     H2 4870   2.113   0.173   2.768
 1562HOH      O 4871   0.241   2.047   3.156
 1562HOH     H1 4872   0.273   2.124   3.109
 1562HOH     H2 4873   0.146   2.055   3.155
 1563HOH      O 4874   1.543   3.676   0.373
 1563HOH     H1 4875   1.586   3.739   0.431
 1563HOH     H2 4876   1.565   3.590   0.412
 1564HOH      O 4877   1.385   2.076   2.760
 1564HOH     H1 4878   1.435   2.039   2.687
 1564HOH     H2 4879   1.443   2.068   2.836
 1565HOH      O 4880   1.087   3.695   0.869
 1565HOH     H1 4881   1.007   3.646   0.852
 1565HOH     H2 4882   1.152   3.629   0.891
 1566HOH      O 4883   0.115   2.108   2.458
 1566HOH     H1 4884   0.178   2.043   2.489
 1566HOH     H2 4885   0.168   2.176   2.416
 1567HOH      O 4886   0.698   2.816   3.137
 1567HOH     H1 4887   0.672   2.728   3.162
 1567HOH     H2 4888   0.638   2.840   3.066
 1568HOH      O 4889   1.114  -0.018   1.140
 1568HOH     H1 4890   1.073  -0.055   1.062
 1568HOH     H2 4891   1.088   0.074   1.139
 1569HOH      O 4892   0.144   3.972   3.625
 1569HOH     H1 4893   0.089   3.992   3.549
 1569HOH     H2 4894   0.210   3.912   3.592
 1570HOH      O 4895   0.534   1.248   3.539
 1570HOH     H1 4896   0.627   1.257   3.519
 1570HOH     H2 4897   0.524   1.156   3.566
 1571HOH      O 4898   1.599   1.004   1.321
 1571HOH     H1 4899   1.574   1.082   1.271
 1571HOH     H2 4900   1.548   0.933   1.280
 1572HOH      O 4901   2.636   2.855   3.027
 1572HOH     H1 4902   2.677   2.864   3.113
 1572HOH     H2 4903   2.578   2.780   3.037
 1573HOH      O 4904   2.622   1.323   0.278
 1573HOH     H1 4905   2.565   1.396   0.302
 1573HOH     H2 4906   2.586   1.248   0.326
 1574HOH      O 4907   1.005   2.257   1.156
 1574HOH     H1 4908   1.059   2.336   1.152
 1574HOH     H2 4909   1.052   2.198   1.214
 1575HOH      O 4910   1.861   2.543   2.629
 1575HOH     H1 4911   1.923   2.538   2.556
 1575HOH     H2 4912   1.781   2.503   2.595
 1576HOH      O 4913   3.412   0.052   2.702
 1576HOH     H1 4914   3.478   0.001   2.655
 1576HOH     H2 4915   3.445   0.142   2.698
 1577HOH      O 4916   1.945   3.800   0.080
 1577HOH     H1 4917   2.036   3.821   0.059
 1577HOH     H2 4918   1.945   3.785   0.175
 1578HOH      O 4919   2.121   0.996   2.463
 1578HOH     H1 4920   2.062   0.968   2.533
 1578HOH     H2 4921   2.095   1.086   2.444
 1579HOH      O 4922   0.552   2.429   0.980
 1579HOH     H1 4923   0.639   2.469   0.970
 1579HOH     H2 4924   0.565   2.361   1.046
 1580HOH      O 4925   0.261   0.899   3.589
 1580HOH     H1 4926   0.193   0.966   3.584
 1580HOH     H2 4927   0.221   0.828   3.639
 1581HOH      O 4928   0.183   3.059   1.029
 1581HOH     H1 4929   0.145   3.106   1.103
 1581HOH     H2 4930   0.244   2.998   1.068
 1582HOH      O 4931   2.829   1.875   3.516
 1582HOH     H1 4932   2.752   1.932   3.524
 1582HOH     H2 4933   2.882   1.896   3.594
 1583HOH      O 4934   1.614   0.891   3.544
 1583HOH     H1 4935   1.623   0.907   3.450
 1583HOH     H2 4936   1.648   0.803   3.557
 1584HOH      O 4937   0.238   1.760   3.495
 1584HOH     H1 4938   0.259   1.782   3.404
 1584HOH     H2 4939   0.176   1.827   3.523
 1585HOH      O 4940   0.108   0.024   0.843
 1585HOH     H1 4941   0.073  -0.014   0.923
 1585HOH     H2 4942   0.128   0.115   0.866
 1586HOH      O 4943   0.609   3.241   3.589
 1586HOH     H1 4944   0.609   3.180   3.516
 1586HOH     H2 4945   0.679   3.211   3.647
 1587HOH      O 4946   3.834   0.489   3.263
 1587HOH     H1 4947   3.924   0.519   3.258
 1587HOH     H2 4948   3.820   0.441   3.181
 1588HOH      O 4949   2.182   2.520   3.664
 1588HOH     H1 4950   2.141   2.560   3.740
 1588HOH     H2 4951   2.188   2.591   3.600
 1589HOH      O 4952   2.261   0.566   1.271
 1589HOH     H1 4953   2.290   0.475   1.278
 1589HOH     H2 4954   2.341   0.618   1.286
 1590HOH      O 4955   3.118   3.929   2.338
 1590HOH     H1 4956   3.024   3.939   2.326
 1590HOH     H2 4957   3.128   3.911   2.431
 1591HOH      O 4958   2.330   1.948   0.744
 1591HOH     H1 4959   2.416   1.989   0.752
 1591HOH     H2 4960   2.328   1.915   0.654
 1592HOH      O 4961   0.141   3.075   0.753
 1592HOH     H1 4962   0.164   3.077   0.846
 1592HOH     H2 4963   0.188   2.999   0.719
 1593HOH      O 4964   0.956   3.678   3.080
 1593HOH     H1 4965   0.883   3.687   3.142
 1593HOH     H2 4966   0.988   3.767   3.068
 1594HOH      O 4967   1.927   1.634   0.080
 1594HOH     H1 4968   1.921   1.577   0.003
 1594HOH     H2 4969   1.906   1.578   0.154
 1595HOH      O 4970   3.606   1.827   1.727
 1595HOH     H1 4971   3.650   1.742   1.729
 1595HOH     H2 4972   3.598   1.852   1.820
 1596HOH      O 4973   2.338   0.660   2.920
 1596HOH     H1 4974   2.379   0.580   2.953
 1596HOH     H2 4975   2.409   0.724   2.916
 1597HOH      O 4976   3.870   3.606   3.648
 1597HOH     H1 4977   3.922   3.537   3.689
 1597HOH     H2 4978   3.788   3.562   3.624
 1598HOH      O 4979   3.019   0.460   1.499
 1598HOH     H1 4980   3.043   0.485   1.589
 1598HOH     H2 4981   3.046   0.369   1.492
 1599HOH      O 4982   0.435   3.752   0.472
 1599HOH     H1 4983   0.459   3.844   0.479
 1599HOH     H2 4984   0.339   3.753   0.464
 1600HOH      O 4985   1.855   2.343   1.738
 1600HOH     H1 4986   1.810   2.365   1.656
 1600HOH     H2 4987   1.902   2.423   1.761
 1601HOH      O 4988   1.673   1.350   0.478
 1601HOH     H1 4989   1.630   1.292   0.540
 1601HOH     H2 4990   1.648   1.316   0.392
 1602HOH      O 4991   1.373   0.044   1.260
 1602HOH     H1 4992   1.290   0.041   1.212
 1602HOH     H2 4993   1.373  -0.036   1.313
 1603HOH      O 4994   3.814   1.130   3.055
 1603HOH     H1 4995   3.897   1.131   3.104
 1603HOH     H2 4996   3.795   1.222   3.038
 1604HOH      O 4997   0.965   2.954   1.192
 1604HOH     H1 4998   0.878   2.918   1.175
 1604HOH     H2 4999   0.983   3.010   1.116
 1605HOH      O 5000   1.490   2.522   3.577
 1605HOH     H1 5001   1.489   2.436   3.534
 1605HOH     H2 5002   1.514   2.583   3.507
 1606HOH      O 5003   2.618   0.495   2.778
 1606HOH     H1 5004   2.606   0.545   2.698
 1606HOH     H2 5005   2.686   0.542   2.826
 1607HOH      O 5006   2.834   2.871   2.853
 1607HOH     H1 5007   2.861   2.779   2.857
 1607HOH     H2 5008   2.754   2.875   2.906
 1608HOH      O 5009   3.902   0.893   0.548
 1608HOH     H1 5010   3.855   0.815   0.579
 1608HOH     H2 5011   3.965   0.859   0.484
 1609HOH      O 5012   3.548   0.006   2.103
 1609HOH     H1 5013   3.466   0.041   2.137
 1609HOH     H2 5014   3.616   0.053   2.152
 1610HOH      O 5015   3.843   0.945   2.869
 1610HOH     H1 5016   3.801   0.998   2.937
 1610HOH     H2 5017   3.921   0.910   2.911
 1611HOH      O 5018   1.237   1.882   1.511
 1611HOH     H1 5019   1.283   1.930   1.580
 1611HOH     H2 5020   1.259   1.791   1.526
 1612HOH      O 5021   2.245   2.802   1.247
 1612HOH     H1 5022   2.300   2.728   1.221
 1612HOH     H2 5023   2.198   2.771   1.324
 1613HOH      O 5024  -0.007   3.457   2.473
 1613HOH     H1 5025   0.085   3.476   2.487
 1613HOH     H2 5026  -0.038   3.527   2.416
 1614HOH      O 5027   0.180   0.806   1.392
 1614HOH     H1 5028   0.270   0.775   1.398
 1614HOH     H2 5029   0.180   0.865   1.316
 1615HOH      O 5030   3.992   0.642   2.791
 1615HOH     H1 5031   3.970   0.707   2.725
 1615HOH     H2 5032   4.076   0.672   2.826
 1616HOH      O 5033   0.013   3.209   2.582
 1616HOH     H1 5034   0.007   3.297   2.546
 1616HOH     H2 5035   0.038   3.222   2.674
 1617HOH      O 5036   3.229   2.117   3.318
 1617HOH     H1 5037   3.164   2.113   3.247
 1617HOH     H2 5038   3.304   2.162   3.279
 1618HOH      O 5039   1.428   2.275   3.459
 1618HOH     H1 5040   1.338   2.304   3.452
 1618HOH     H2 5041   1.425   2.200   3.518
 1619HOH      O 5042   3.549   1.476   0.928
 1619HOH     H1 5043   3.599   1.481   0.846
 1619HOH     H2 5044   3.610   1.507   0.995
 1620HOH      O 5045   1.023   2.879   0.482
 1620HOH     H1 5046   1.085   2.859   0.412
 1620HOH     H2 5047   0.937   2.866   0.443
 1621HOH      O 5048   3.107   2.885   1.490
 1621HOH     H1 5049   3.032   2.881   1.549
 1621HOH     H2 5050   3.128   2.793   1.472
 1622HOH      O 5051   1.852   3.877   0.338
 1622HOH     H1 5052   1.847   3.875   0.434
 1622HOH     H2 5053   1.923   3.939   0.320
 1623HOH      O 5054   1.498   0.864   0.946
 1623HOH     H1 5055   1.468   0.813   0.871
 1623HOH     H2 5056   1.531   0.946   0.908
 1624HOH      O 5057   2.940   2.326   0.313
 1624HOH     H1 5058   2.916   2.321   0.406
 1624HOH     H2 5059   2.878   2.388   0.275
 1625HOH      O 5060   1.143   2.986   0.050
 1625HOH     H1 5061   1.219   2.975  -0.008
 1625HOH     H2 5062   1.068   2.963  -0.005
 1626HOH      O 5063   3.941   1.766   3.722
 1626HOH     H1 5064   3.959   1.801   3.635
 1626HOH     H2 5065   4.022   1.781   3.771
 1627HOH      O 5066   1.558   3.697   2.815
 1627HOH     H1 5067   1.497   3.741   2.873
 1627HOH     H2 5068   1.567   3.756   2.740
 1628HOH      O 5069   0.126   1.231   2.059
 1628HOH     H1 5070   0.127   1.326   2.054
 1628HOH     H2 5071   0.197   1.209   2.121
 1629HOH      O 5072   1.107   2.624   2.661
 1629HOH     H1 5073   1.117   2.685   2.588
 1629HOH     H2 5074   1.092   2.680   2.737
 1630HOH      O 5075   0.332   0.043   3.427
 1630HOH     H1 5076   0.353  -0.043   3.465
 1630HOH     H2 5077   0.372   0.106   3.488
 1631HOH      O 5078   2.694   2.199   1.319
 1631HOH     H1 5079   2.675   2.105   1.318
 1631HOH     H2 5080   2.670   2.228   1.231
 1632HOH      O 5081   1.590   0.037   2.410
 1632HOH     H1 5082   1.572   0.119   2.455
 1632HOH     H2 5083   1.523   0.032   2.342
 1633HOH      O 5084   2.218   3.876   2.443
 1633HOH     H1 5085   2.235   3.815   2.370
 1633HOH     H2 5086   2.289   3.940   2.438
 1634HOH      O 5087   2.380   3.615   0.464
 1634HOH     H1 5088   2.409   3.706   0.465
 1634HOH     H2 5089   2.460   3.564   0.475
 1635HOH      O 5090   2.852  -0.028   2.374
 1635HOH     H1 5091   2.820   0.060   2.357
 1635HOH     H2 5092   2.881  -0.026   2.465
 1636HOH      O 5093   0.219   1.581   2.437
 1636HOH     H1 5094   0.129   1.560   2.461
 1636HOH     H2 5095   0.211   1.633   2.357
 1637HOH      O 5096   2.567   1.113   2.162
 1637HOH     H1 5097   2.651   1.125   2.116
 1637HOH     H2 5098   2.521   1.196   2.150
 1638HOH      O 5099   3.773   0.686   1.202
 1638HOH     H1 5100   3.845   0.684   1.265
 1638HOH     H2 5101   3.799   0.752   1.138
 1639HOH      O 5102   0.462   3.512   2.618
 1639HOH     H1 5103   0.466   3.458   2.539
 1639HOH     H2 5104   0.402   3.466   2.676
 1640HOH      O 5105   2.251   0.581   2.466
 1640HOH     H1 5106   2.330   0.624   2.498
 1640HOH     H2 5107   2.210   0.645   2.408
 1641HOH      O 5108   0.720   1.686   2.212
 1641HOH     H1 5109   0.636   1.706   2.252
 1641HOH     H2 5110   0.768   1.638   2.279
 1642HOH      O 5111   3.023   3.297   2.955
 1642HOH     H1 5112   3.041   3.342   2.873
 1642HOH     H2 5113   2.948   3.344   2.992
 1643HOH      O 5114   2.061   1.451   1.611
 1643HOH     H1 5115   2.087   1.366   1.574
 1643HOH     H2 5116   2.139   1.506   1.601
 1644HOH      O 5117   1.475   1.517   3.415
 1644HOH     H1 5118   1.425   1.453   3.465
 1644HOH     H2 5119   1.444   1.508   3.325
 1645HOH      O 5120   0.841   2.226   4.017
 1645HOH     H1 5121   0.797   2.142   4.029
 1645HOH     H2 5122   0.922   2.204   3.970
 1646HOH      O 5123   2.485   0.506   0.296
 1646HOH     H1 5124   2.390   0.518   0.305
 1646HOH     H2 5125   2.523   0.561   0.364
 1647HOH      O 5126   2.204   0.899   3.863
 1647HOH     H1 5127   2.196   0.946   3.946
 1647HOH     H2 5128   2.121   0.915   3.819
 1648HOH      O 5129   1.263   0.897   2.436
 1648HOH     H1 5130   1.196   0.964   2.450
 1648HOH     H2 5131   1.344   0.946   2.423
 1649HOH      O 5132   1.918   2.434   1.342
 1649HOH     H1 5133   1.898   2.459   1.251
 1649HOH     H2 5134   1.978   2.501   1.373
 1650HOH      O 5135   0.859   2.105   3.130
 1650HOH     H1 5136   0.868   2.052   3.051
 1650HOH     H2 5137   0.947   2.111   3.166
 1651HOH      O 5138   2.665   0.611   1.764
 1651HOH     H1 5139   2.608   0.566   1.826
 1651HOH     H2 5140   2.636   0.702   1.766
 1652HOH      O 5141   3.772   3.740   3.877
 1652HOH     H1 5142   3.800   3.711   3.790
 1652HOH     H2 5143   3.679   3.719   3.881
 1653HOH      O 5144   2.622   1.989   3.049
 1653HOH     H1 5145   2.590   1.951   2.968
 1653HOH     H2 5146   2.609   2.083   3.038
 1654HOH      O 5147   1.461   1.620   2.380
 1654HOH     H1 5148   1.414   1.699   2.354
 1654HOH     H2 5149   1.533   1.614   2.317
 1655HOH      O 5150   2.751   4.017   0.339
 1655HOH     H1 5151   2.748   4.097   0.287
 1655HOH     H2 5152   2.736   3.946   0.276
 1656HOH      O 5153   3.443   2.538   0.594
 1656HOH     H1 5154   3.453   2.534   0.499
 1656HOH     H2 5155   3.514   2.595   0.624
 1657HOH      O 5156   3.195   1.149   3.685
 1657HOH     H1 5157   3.279   1.134   3.642
 1657HOH     H2 5158   3.214   1.139   3.778
 1658HOH      O 5159   1.617   0.423   3.086
 1658HOH     H1 5160   1.654   0.358   3.146
 1658HOH     H2 5161   1.687   0.488   3.076
 1659HOH      O 5162   1.772   3.679   3.930
 1659HOH     H1 5163   1.847   3.719   3.974
 1659HOH     H2 5164   1.705   3.671   3.998
 1660HOH      O 5165   1.877   1.210   3.343
 1660HOH     H1 5166   1.858   1.207   3.437
 1660HOH     H2 5167   1.792   1.226   3.302
 1661HOH      O 5168   2.011   3.603   1.999
 1661HOH     H1 5169   2.062   3.684   1.997
 1661HOH     H2 5170   1.958   3.607   1.919
 1662HOH      O 5171   2.614   3.409   3.753
 1662HOH     H1 5172   2.525   3.411   3.788
 1662HOH     H2 5173   2.641   3.317   3.763
 1663HOH      O 5174   3.121   1.186   0.013
 1663HOH     H1 5175   3.215   1.187   0.031
 1663HOH     H2 5176   3.106   1.100  -0.026
 1664HOH      O 5177   0.648   0.812   2.564
 1664HOH     H1 5178   0.744   0.802   2.558
 1664HOH     H2 5179   0.622   0.844   2.478
 1665HOH      O 5180   2.431   3.190   4.006
 1665HOH     H1 5181   2.401   3.247   3.935
 1665HOH     H2 5182   2.355   3.182   4.064
 1666HOH      O 5183   2.124   1.562   1.143
 1666HOH     H1 5184   2.192   1.627   1.158
 1666HOH     H2 5185   2.065   1.603   1.080
 1667HOH      O 5186   0.235   0.772   2.595
 1667HOH     H1 5187   0.191   0.703   2.546
 1667HOH     H2 5188   0.182   0.850   2.580
 1668HOH      O 5189   1.488   2.449   3.825
 1668HOH     H1 5190   1.495   2.476   3.734
 1668HOH     H2 5191   1.398   2.417   3.834
 1669HOH      O 5192   2.041   2.874   1.018
 1669HOH     H1 5193   2.127   2.865   0.978
 1669HOH     H2 5194   2.034   2.967   1.039
 1670HOH      O 5195   1.796   1.759   3.243
 1670HOH     H1 5196   1.780   1.681   3.296
 1670HOH     H2 5197   1.766   1.735   3.156
 1671HOH      O 5198   3.570   3.404   2.920
 1671HOH     H1 5199   3.612   3.336   2.973
 1671HOH     H2 5200   3.479   3.405   2.950
 1672HOH      O 5201   0.020   1.960   3.977
 1672HOH     H1 5202   0.001   1.867   3.993
 1672HOH     H2 5203   0.115   1.966   3.986
 1673HOH      O 5204   2.645   0.705   2.093
 1673HOH     H1 5205   2.612   0.749   2.171
 1673HOH     H2 5206   2.734   0.740   2.081
 1674HOH      O 5207   0.102   2.702   2.700
 1674HOH     H1 5208   0.172   2.638   2.715
 1674HOH     H2 5209   0.088   2.701   2.605
 1675HOH      O 5210   2.832   0.591   2.940
 1675HOH     H1 5211   2.771   0.611   3.011
 1675HOH     H2 5212   2.912   0.637   2.964
 1676HOH      O 5213   0.312   1.516   2.109
 1676HOH     H1 5214   0.376   1.482   2.172
 1676HOH     H2 5215   0.344   1.604   2.089
 1677HOH      O 5216   4.039   3.601   0.294
 1677HOH     H1 5217   4.018   3.573   0.205
 1677HOH     H2 5218   3.970   3.564   0.349
 1678HOH      O 5219   1.413   1.682   0.407
 1678HOH     H1 5220   1.336   1.662   0.355
 1678HOH     H2 5221   1.383   1.747   0.471
 1679HOH      O 5222   2.197   3.775   2.045
 1679HOH     H1 5223   2.171   3.825   2.123
 1679HOH     H2 5224   2.211   3.842   1.978
 1680HOH      O 5225   1.631   3.176   0.710
 1680HOH     H1 5226   1.694   3.166   0.638
 1680HOH     H2 5227   1.685   3.196   0.786
 1681HOH      O 5228   0.361  -0.022   0.721
 1681HOH     H1 5229   0.435   0.030   0.752
 1681HOH     H2 5230   0.288   0.004   0.778
 1682HOH      O 5231   1.024   1.167   2.421
 1682HOH     H1 5232   1.060   1.201   2.503
 1682HOH     H2 5233   0.966   1.236   2.389
 1683HOH      O 5234   1.976   0.775   0.630
 1683HOH     H1 5235   1.891   0.810   0.655
 1683HOH     H2 5236   2.033   0.852   0.624
 1684HOH      O 5237   2.224   1.685   0.067
 1684HOH     H1 5238   2.133   1.713   0.075
 1684HOH     H2 5239   2.272   1.745   0.125
 1685HOH      O 5240   0.244   1.263   3.541
 1685HOH     H1 5241   0.193   1.344   3.544
 1685HOH     H2 5242   0.329   1.288   3.576
 1686HOH      O 5243   0.691   3.668   3.849
 1686HOH     H1 5244   0.605   3.640   3.817
 1686HOH     H2 5245   0.692   3.644   3.941
 1687HOH      O 5246   3.526   1.354   1.909
 1687HOH     H1 5247   3.599   1.331   1.967
 1687HOH     H2 5248   3.452   1.366   1.968
 1688HOH      O 5249   0.134   1.094   1.483
 1688HOH     H1 5250   0.047   1.072   1.516
 1688HOH     H2 5251   0.142   1.045   1.401
 1689HOH      O 5252   2.403   2.612   3.916
 1689HOH     H1 5253   2.473   2.557   3.951
 1689HOH     H2 5254   2.433   2.635   3.828
 1690HOH      O 5255   0.283   3.518   3.136
 1690HOH     H1 5256   0.368   3.557   3.114
 1690HOH     H2 5257   0.283   3.434   3.088
 1691HOH      O 5258   3.637   2.720   0.691
 1691HOH     H1 5259   3.718   2.768   0.706
 1691HOH     H2 5260   3.609   2.693   0.779
 1692HOH      O 5261   1.997   3.308   3.743
 1692HOH     H1 5262   2.056   3.233   3.756
 1692HOH     H2 5263   1.910   3.270   3.741
 1693HOH      O 5264   1.447   2.826   2.735
 1693HOH     H1 5265   1.502   2.762   2.780
 1693HOH     H2 5266   1.471   2.910   2.775
 1694HOH      O 5267   2.202   2.021   1.302
 1694HOH     H1 5268   2.109   2.041   1.308
 1694HOH     H2 5269   2.242   2.073   1.372
 1695HOH      O 5270   2.345   3.403   3.844
 1695HOH     H1 5271   2.302   3.424   3.761
 1695HOH     H2 5272   2.279   3.422   3.910
 1696HOH      O 5273   2.556   2.712   1.561
 1696HOH     H1 5274   2.611   2.780   1.522
 1696HOH     H2 5275   2.605   2.683   1.638
 1697HOH      O 5276   3.146   2.449   1.995
 1697HOH     H1 5277   3.150   2.538   1.960
 1697HOH     H2 5278   3.217   2.445   2.059
 1698HOH      O 5279   1.348   3.709   1.738
 1698HOH     H1 5280   1.444   3.716   1.744
 1698HOH     H2 5281   1.333   3.651   1.664
 1699HOH      O 5282   0.330   3.138   1.597
 1699HOH     H1 5283   0.262   3.178   1.652
 1699HOH     H2 5284   0.289   3.129   1.511
 1700HOH      O 5285   2.633   1.948   1.255
 1700HOH     H1 5286   2.716   1.912   1.225
 1700HOH     H2 5287   2.619   1.909   1.341
 1701HOH      O 5288   3.338   0.979   1.075
 1701HOH     H1 5289   3.326   1.073   1.059
 1701HOH     H2 5290   3.376   0.975   1.163
 1702HOH      O 5291   3.468   2.391   1.444
 1702HOH     H1 5292   3.539   2.454   1.434
 1702HOH     H2 5293   3.389   2.442   1.429
 1703HOH      O 5294   1.072   3.375   0.940
 1703HOH     H1 5295   1.019   3.411   0.869
 1703HOH     H2 5296   1.160   3.409   0.923
 1704HOH      O 5297   0.831   2.443   0.905
 1704HOH     H1 5298   0.821   2.377   0.975
 1704HOH     H2 5299   0.880   2.514   0.946
 1705HOH      O 5300   3.414   0.680   3.079
 1705HOH     H1 5301   3.360   0.619   3.028
 1705HOH     H2 5302   3.504   0.660   3.051
 1706HOH      O 5303   0.095   2.063   0.235
 1706HOH     H1 5304   0.051   1.991   0.280
 1706HOH     H2 5305   0.149   2.021   0.168
 1707HOH      O 5306   2.772   3.842   2.846
 1707HOH     H1 5307   2.684   3.867   2.818
 1707HOH     H2 5308   2.804   3.785   2.777
 1708HOH      O 5309   0.417   3.637   3.787
 1708HOH     H1 5310   0.406   3.641   3.882
 1708HOH     H2 5311   0.389   3.548   3.764
 1709HOH      O 5312   1.960   3.280   2.898
 1709HOH     H1 5313   1.991   3.280   2.808
 1709HOH     H2 5314   2.039   3.282   2.951
 1710HOH      O 5315   1.300   3.514   0.935
 1710HOH     H1 5316   1.331   3.556   1.015
 1710HOH     H2 5317   1.376   3.466   0.902
 1711HOH      O 5318   1.952   0.247   3.412
 1711HOH     H1 5319   1.966   0.328   3.363
 1711HOH     H2 5320   1.942   0.276   3.503
 1712HOH      O 5321   2.514  -0.017   1.759
 1712HOH     H1 5322   2.463   0.061   1.783
 1712HOH     H2 5323   2.595   0.018   1.722
 1713HOH      O 5324   0.389   0.251   3.614
 1713HOH     H1 5325   0.317   0.204   3.655
 1713HOH     H2 5326   0.357   0.341   3.605
 1714HOH      O 5327   1.379   3.244   0.043
 1714HOH     H1 5328   1.379   3.335   0.013
 1714HOH     H2 5329   1.468   3.229   0.074
 1715HOH      O 5330   1.124   1.606   2.418
 1715HOH     H1 5331   1.198   1.626   2.475
 1715HOH     H2 5332   1.126   1.674   2.351
 1716HOH      O 5333   0.549   1.079   3.264
 1716HOH     H1 5334   0.542   1.022   3.188
 1716HOH     H2 5335   0.631   1.053   3.307
 1717HOH      O 5336   2.786   0.858   3.580
 1717HOH     H1 5337   2.784   0.765   3.604
 1717HOH     H2 5338   2.878   0.883   3.591
 1718HOH      O 5339   3.751   0.685   3.497
 1718HOH     H1 5340   3.736   0.719   3.409
 1718HOH     H2 5341   3.816   0.743   3.535
 1719HOH      O 5342   2.350   2.023   3.433
 1719HOH     H1 5343   2.271   2.041   3.484
 1719HOH     H2 5344   2.318   1.986   3.351
 1720HOH      O 5345   3.278   1.482   3.203
 1720HOH     H1 5346   3.285   1.575   3.182
 1720HOH     H2 5347   3.316   1.475   3.291
 1721HOH      O 5348   2.221   1.850   3.238
 1721HOH     H1 5349   2.159   1.788   3.199
 1721HOH     H2 5350   2.301   1.799   3.250
 1722HOH      O 5351   3.868   1.605   3.016
 1722HOH     H1 5352   3.864   1.532   3.077
 1722HOH     H2 5353   3.929   1.576   2.948
 1723HOH      O 5354   0.076   1.035   0.936
 1723HOH     H1 5355   0.169   1.016   0.923
 1723HOH     H2 5356   0.044   1.059   0.848
 1724HOH      O 5357   3.501   0.853   1.545
 1724HOH     H1 5358   3.409   0.871   1.566
 1724HOH     H2 5359   3.497   0.804   1.463
 1725HOH      O 5360   1.039   3.238   0.340
 1725HOH     H1 5361   1.118   3.186   0.322
 1725HOH     H2 5362   1.064   3.327   0.314
 1726HOH      O 5363   3.777   1.802   0.808
 1726HOH     H1 5364   3.727   1.767   0.734
 1726HOH     H2 5365   3.730   1.769   0.885
 1727HOH      O 5366   0.101   1.969   3.606
 1727HOH     H1 5367   0.089   2.061   3.583
 1727HOH     H2 5368   0.178   1.968   3.663
 1728HOH      O 5369   1.833   1.046   0.707
 1728HOH     H1 5370   1.742   1.072   0.718
 1728HOH     H2 5371   1.871   1.054   0.795
 1729HOH      O 5372   1.288   1.697   3.801
 1729HOH     H1 5373   1.231   1.635   3.755
 1729HOH     H2 5374   1.275   1.780   3.755
 1730HOH      O 5375   2.568   1.386   3.279
 1730HOH     H1 5376   2.596   1.343   3.360
 1730HOH     H2 5377   2.650   1.412   3.237
 1731HOH      O 5378   2.485   0.771   1.582
 1731HOH     H1 5379   2.422   0.718   1.632
 1731HOH     H2 5380   2.508   0.717   1.507
 1732HOH      O 5381   1.216   1.794   2.891
 1732HOH     H1 5382   1.265   1.845   2.955
 1732HOH     H2 5383   1.164   1.733   2.944
 1733HOH      O 5384   1.700   3.484   0.516
 1733HOH     H1 5385   1.792   3.458   0.504
 1733HOH     H2 5386   1.650   3.405   0.494
 1734HOH      O 5387   2.582   1.621   2.421
 1734HOH     H1 5388   2.619   1.616   2.509
 1734HOH     H2 5389   2.498   1.665   2.434
 1735HOH      O 5390   2.170   3.687   0.268
 1735HOH     H1 5391   2.255   3.647   0.284
 1735HOH     H2 5392   2.178   3.725   0.180
 1736HOH      O 5393   1.183   3.698   2.754
 1736HOH     H1 5394   1.232   3.688   2.673
 1736HOH     H2 5395   1.197   3.790   2.779
 1737HOH      O 5396   2.290   0.482   3.162
 1737HOH     H1 5397   2.338   0.421   3.106
 1737HOH     H2 5398   2.358   0.538   3.199
 1738HOH      O 5399   3.323   3.304   1.948
 1738HOH     H1 5400   3.307   3.328   1.857
 1738HOH     H2 5401   3.333   3.388   1.993
 1739HOH      O 5402   1.354   1.360   3.625
 1739HOH     H1 5403   1.283   1.421   3.644
 1739HOH     H2 5404   1.335   1.283   3.678
 1740HOH      O 5405   0.220   3.802   3.196
 1740HOH     H1 5406   0.269   3.759   3.267
 1740HOH     H2 5407   0.211   3.735   3.129
 1741HOH      O 5408   0.642   0.603   1.453
 1741HOH     H1 5409   0.673   0.610   1.543
 1741HOH     H2 5410   0.721   0.608   1.400
 1742HOH      O 5411   3.500   2.965   0.576
 1742HOH     H1 5412   3.489   3.039   0.636
 1742HOH     H2 5413   3.452   2.893   0.618
 1743HOH      O 5414   1.384   2.100   1.605
 1743HOH     H1 5415   1.394   2.113   1.699
 1743HOH     H2 5416   1.472   2.080   1.574
 1744HOH      O 5417   2.832   3.684   2.034
 1744HOH     H1 5418   2.885   3.651   1.961
 1744HOH     H2 5419   2.767   3.616   2.050
 1745HOH      O 5420   0.827   3.058   3.981
 1745HOH     H1 5421   0.850   3.078   4.072
 1745HOH     H2 5422   0.744   3.011   3.987
 1746HOH      O 5423   0.239   0.044   3.168
 1746HOH     H1 5424   0.275   0.048   3.256
 1746HOH     H2 5425   0.228  -0.049   3.150
 1747HOH      O 5426   1.609   2.062   2.940
 1747HOH     H1 5427   1.668   2.087   2.869
 1747HOH     H2 5428   1.645   2.106   3.018
 1748HOH      O 5429   3.107   2.175   3.076
 1748HOH     H1 5430   3.050   2.252   3.070
 1748HOH     H2 5431   3.190   2.205   3.039
 1749HOH      O 5432   1.669   3.432   2.248
 1749HOH     H1 5433   1.620   3.351   2.237
 1749HOH     H2 5434   1.748   3.421   2.195
 1750HOH      O 5435   3.283   3.973   0.371
 1750HOH     H1 5436   3.350   3.990   0.437
 1750HOH     H2 5437   3.280   4.053   0.319
 1751HOH      O 5438   1.488   2.807   2.185
 1751HOH     H1 5439   1.546   2.875   2.148
 1751HOH     H2 5440   1.501   2.731   2.128
 1752HOH      O 5441   3.546   1.063   2.283
 1752HOH     H1 5442   3.506   1.144   2.314
 1752HOH     H2 5443   3.616   1.045   2.346
 1753HOH      O 5444   3.277   3.709   1.826
 1753HOH     H1 5445   3.200   3.675   1.781
 1753HOH     H2 5446   3.263   3.804   1.829
 1754HOH      O 5447   2.457   2.903   2.250
 1754HOH     H1 5448   2.455   2.976   2.313
 1754HOH     H2 5449   2.380   2.918   2.195
 1755HOH      O 5450   2.587   0.483   3.175
 1755HOH     H1 5451   2.617   0.392   3.171
 1755HOH     H2 5452   2.603   0.510   3.266
 1756HOH      O 5453   2.701   1.972   2.081
 1756HOH     H1 5454   2.627   1.910   2.080
 1756HOH     H2 5455   2.660   2.058   2.083
 1757HOH      O 5456   3.067   2.549   0.518
 1757HOH     H1 5457   3.131   2.584   0.455
 1757HOH     H2 5458   2.983   2.582   0.487
 1758HOH      O 5459   1.703   1.394   2.458
 1758HOH     H1 5460   1.773   1.455   2.478
 1758HOH     H2 5461   1.669   1.423   2.373
 1759HOH      O 5462   1.857   1.066   0.450
 1759HOH     H1 5463   1.852   1.040   0.542
 1759HOH     H2 5464   1.771   1.104   0.431
 1760HOH      O 5465   1.511   3.790   3.343
 1760HOH     H1 5466   1.524   3.851   3.416
 1760HOH     H2 5467   1.597   3.783   3.302
 1761HOH      O 5468   3.985   3.781   0.779
 1761HOH     H1 5469   3.938   3.844   0.724
 1761HOH     H2 5470   4.077   3.791   0.756
 1762HOH      O 5471   2.644   1.092   3.007
 1762HOH     H1 5472   2.656   1.183   3.035
 1762HOH     H2 5473   2.549   1.081   3.003
 1763HOH      O 5474   1.691   2.702   1.712
 1763HOH     H1 5475   1.645   2.780   1.745
 1763HOH     H2 5476   1.625   2.633   1.714
 1764HOH      O 5477   3.049   3.329   0.840
 1764HOH     H1 5478   3.070   3.416   0.805
 1764HOH     H2 5479   3.012   3.346   0.926
 1765HOH      O 5480   3.671   3.374   2.100
 1765HOH     H1 5481   3.617   3.312   2.149
 1765HOH     H2 5482   3.608   3.431   2.055
 1766HOH      O 5483   1.530   3.867   1.383
 1766HOH     H1 5484   1.563   3.785   1.346
 1766HOH     H2 5485   1.528   3.852   1.477
 1767HOH      O 5486   0.099   0.494   2.177
 1767HOH     H1 5487   0.084   0.505   2.271
 1767HOH     H2 5488   0.042   0.421   2.152
 1768HOH      O 5489   2.853   2.593   3.041
 1768HOH     H1 5490   2.868   2.571   2.949
 1768HOH     H2 5491   2.922   2.547   3.089
 1769HOH      O 5492   1.162   2.107   2.965
 1769HOH     H1 5493   1.222   2.086   2.893
 1769HOH     H2 5494   1.078   2.069   2.938
 1770HOH      O 5495   3.840   0.211   3.938
 1770HOH     H1 5496   3.758   0.249   3.905
 1770HOH     H2 5497   3.839   0.229   4.032
 1771HOH      O 5498   2.488   1.385   1.564
 1771HOH     H1 5499   2.435   1.305   1.570
 1771HOH     H2 5500   2.424   1.453   1.545
 1772HOH      O 5501   3.058   2.676   3.465
 1772HOH     H1 5502   3.142   2.719   3.475
 1772HOH     H2 5503   3.078   2.582   3.468
 1773HOH      O 5504   0.361   3.805   3.539
 1773HOH     H1 5505   0.342   3.718   3.503
 1773HOH     H2 5506   0.414   3.787   3.617
 1774HOH      O 5507   2.600   1.527   3.835
 1774HOH     H1 5508   2.614   1.609   3.883
 1774HOH     H2 5509   2.510   1.502   3.856
 1775HOH      O 5510   2.589   1.809   1.508
 1775HOH     H1 5511   2.664   1.825   1.565
 1775HOH     H2 5512   2.585   1.714   1.499
 1776HOH      O 5513   1.889   1.753   3.711
 1776HOH     H1 5514   1.943   1.712   3.643
 1776HOH     H2 5515   1.823   1.687   3.732
 1777HOH      O 5516   1.634   0.974   1.980
 1777HOH     H1 5517   1.562   0.911   1.976
 1777HOH     H2 5518   1.637   1.014   1.893
 1778HOH      O 5519   2.766   0.438   0.413
 1778HOH     H1 5520   2.690   0.426   0.471
 1778HOH     H2 5521   2.750   0.378   0.340
 1779HOH      O 5522   0.097   3.079   4.040
 1779HOH     H1 5523   0.130   3.025   3.968
 1779HOH     H2 5524   0.002   3.075   4.030
 1780HOH      O 5525   2.381   3.140   2.359
 1780HOH     H1 5526   2.461   3.171   2.402
 1780HOH     H2 5527   2.356   3.212   2.301
 1781HOH      O 5528   3.687   1.760   3.148
 1781HOH     H1 5529   3.717   1.726   3.233
 1781HOH     H2 5530   3.725   1.699   3.084
 1782HOH      O 5531   3.539   3.223   2.337
 1782HOH     H1 5532   3.521   3.299   2.392
 1782HOH     H2 5533   3.579   3.159   2.397
 1783HOH      O 5534   2.059   3.099   0.713
 1783HOH     H1 5535   2.022   3.054   0.637
 1783HOH     H2 5536   2.150   3.068   0.717
 1784HOH      O 5537   0.731   0.645   1.716
 1784HOH     H1 5538   0.751   0.611   1.803
 1784HOH     H2 5539   0.636   0.655   1.716
 1785HOH      O 5540   2.303   2.396   0.284
 1785HOH     H1 5541   2.212   2.371   0.299
 1785HOH     H2 5542   2.352   2.316   0.297
 1786HOH      O 5543   2.323   3.102   3.475
 1786HOH     H1 5544   2.263   3.096   3.549
 1786HOH     H2 5545   2.285   3.171   3.419
 1787HOH      O 5546   0.470   2.277   1.952
 1787HOH     H1 5547   0.477   2.354   2.009
 1787HOH     H2 5548   0.519   2.209   1.999
 1788HOH      O 5549   3.346   2.331   3.728
 1788HOH     H1 5550   3.278   2.372   3.782
 1788HOH     H2 5551   3.307   2.248   3.700
 1789HOH      O 5552   3.910   2.050   3.749
 1789HOH     H1 5553   3.934   2.031   3.840
 1789HOH     H2 5554   3.946   1.976   3.699
 1790HOH      O 5555   3.441   0.320   0.119
 1790HOH     H1 5556   3.460   0.350   0.031
 1790HOH     H2 5557   3.517   0.346   0.170
 1791HOH      O 5558   0.623   3.568   0.398
 1791HOH     H1 5559   0.583   3.482   0.387
 1791HOH     H2 5560   0.553   3.622   0.435
 1792HOH      O 5561   3.241   3.494   0.093
 1792HOH     H1 5562   3.320   3.473   0.142
 1792HOH     H2 5563   3.225   3.587   0.112
 1793HOH      O 5564   3.354   3.349   2.664
 1793HOH     H1 5565   3.273   3.300   2.644
 1793HOH     H2 5566   3.387   3.308   2.744
 1794HOH      O 5567   0.410   3.920   2.962
 1794HOH     H1 5568   0.462   3.996   2.987
 1794HOH     H2 5569   0.431   3.853   3.027
 1795HOH      O 5570   2.889   0.331   2.534
 1795HOH     H1 5571   2.871   0.423   2.551
 1795HOH     H2 5572   2.969   0.331   2.481
 1796HOH      O 5573   2.148   1.628   3.092
 1796HOH     H1 5574   2.186   1.550   3.132
 1796HOH     H2 5575   2.079   1.595   3.036
 1797HOH      O 5576   2.003   3.280   1.824
 1797HOH     H1 5577   2.002   3.203   1.766
 1797HOH     H2 5578   2.090   3.317   1.814
 1798HOH      O 5579   0.404   3.198   1.929
 1798HOH     H1 5580   0.451   3.175   2.009
 1798HOH     H2 5581   0.462   3.258   1.883
 1799HOH      O 5582   2.196   3.827   0.024
 1799HOH     H1 5583   2.264   3.895   0.031
 1799HOH     H2 5584   2.223   3.774  -0.050
 1800HOH      O 5585   2.039   2.603   3.358
 1800HOH     H1 5586   2.050   2.627   3.266
 1800HOH     H2 5587   1.945   2.610   3.373
 1801HOH      O 5588   3.669   1.183   1.503
 1801HOH     H1 5589   3.684   1.104   1.450
 1801HOH     H2 5590   3.669   1.151   1.593
 1802HOH      O 5591   0.027   2.774   3.393
 1802HOH     H1 5592  -0.019   2.852   3.423
 1802HOH     H2 5593   0.023   2.778   3.297
 1803HOH      O 5594   1.102   1.869   2.296
 1803HOH     H1 5595   1.032   1.858   2.232
 1803HOH     H2 5596   1.057   1.891   2.378
 1804HOH      O 5597   1.659   1.287   3.182
 1804HOH     H1 5598   1.681   1.254   3.095
 1804HOH     H2 5599   1.589   1.229   3.213
 1805HOH      O 5600   1.373   0.902   1.549
 1805HOH     H1 5601   1.328   0.865   1.625
 1805HOH     H2 5602   1.315   0.972   1.518
 1806HOH      O 5603   1.923   2.906   3.689
 1806HOH     H1 5604   1.831   2.922   3.667
 1806HOH     H2 5605   1.960   2.866   3.611
 1807HOH      O 5606   2.004   3.340   3.421
 1807HOH     H1 5607   1.949   3.371   3.348
 1807HOH     H2 5608   1.958   3.370   3.499
 1808HOH      O 5609   1.467   0.709   1.988
 1808HOH     H1 5610   1.422   0.635   2.028
 1808HOH     H2 5611   1.405   0.781   1.993
 1809HOH      O 5612   1.195   1.265   3.391
 1809HOH     H1 5613   1.234   1.283   3.476
 1809HOH     H2 5614   1.180   1.352   3.352
 1810HOH      O 5615   2.031   3.168   0.967
 1810HOH     H1 5616   2.025   3.138   0.876
 1810HOH     H2 5617   2.112   3.218   0.970
 1811HOH      O 5618   1.843   0.400   1.365
 1811HOH     H1 5619   1.919   0.457   1.375
 1811HOH     H2 5620   1.803   0.398   1.452
 1812HOH      O 5621   2.107   2.589   2.735
 1812HOH     H1 5622   2.136   2.649   2.666
 1812HOH     H2 5623   2.015   2.573   2.716
 1813HOH      O 5624   2.153   3.599   0.682
 1813HOH     H1 5625   2.168   3.518   0.632
 1813HOH     H2 5626   2.123   3.662   0.617
 1814HOH      O 5627   1.015   1.455   2.084
 1814HOH     H1 5628   1.094   1.406   2.060
 1814HOH     H2 5629   0.954   1.388   2.115
 1815HOH      O 5630   1.027   0.683   2.756
 1815HOH     H1 5631   0.997   0.606   2.707
 1815HOH     H2 5632   1.122   0.680   2.750
 1816HOH      O 5633   1.298   3.326   3.326
 1816HOH     H1 5634   1.386   3.313   3.292
 1816HOH     H2 5635   1.300   3.412   3.367
 1817HOH      O 5636   3.317   2.244   1.058
 1817HOH     H1 5637   3.382   2.202   1.116
 1817HOH     H2 5638   3.370   2.292   0.995
 1818HOH      O 5639   0.348   1.789   1.995
 1818HOH     H1 5640   0.301   1.796   1.912
 1818HOH     H2 5641   0.437   1.820   1.975
 1819HOH      O 5642   0.597   2.630   3.995
 1819HOH     H1 5643   0.684   2.611   3.961
 1819HOH     H2 5644   0.570   2.549   4.038
 1820HOH      O 5645   2.982   1.692   1.925
 1820HOH     H1 5646   3.063   1.707   1.877
 1820HOH     H2 5647   3.003   1.619   1.985
 1821HOH      O 5648   2.923   3.660   3.694
 1821HOH     H1 5649   2.989   3.726   3.717
 1821HOH     H2 5650   2.872   3.649   3.774
 1822HOH      O 5651   2.666   0.741   0.658
 1822HOH     H1 5652   2.604   0.735   0.585
 1822HOH     H2 5653   2.752   0.736   0.616
 1823HOH      O 5654   2.701   1.212   0.528
 1823HOH     H1 5655   2.666   1.301   0.531
 1823HOH     H2 5656   2.795   1.224   0.520
 1824HOH      O 5657   2.888   1.199   0.814
 1824HOH     H1 5658   2.983   1.191   0.818
 1824HOH     H2 5659   2.865   1.165   0.727
 1825HOH      O 5660   2.939   1.442   3.388
 1825HOH     H1 5661   2.906   1.452   3.299
 1825HOH     H2 5662   2.870   1.478   3.444
 1826HOH      O 5663   2.042   0.093   2.632
 1826HOH     H1 5664   2.116   0.122   2.578
 1826HOH     H2 5665   1.978   0.060   2.569
 1827HOH      O 5666   3.423   0.877   3.290
 1827HOH     H1 5667   3.434   0.972   3.290
 1827HOH     H2 5668   3.468   0.847   3.212
 1828HOH      O 5669   3.964   1.319   2.437
 1828HOH     H1 5670   3.907   1.360   2.372
 1828HOH     H2 5671   3.977   1.388   2.503
 1829HOH      O 5672   2.185   1.454   3.963
 1829HOH     H1 5673   2.181   1.549   3.973
 1829HOH     H2 5674   2.225   1.424   4.045
 1830HOH      O 5675   0.067   1.559   1.282
 1830HOH     H1 5676   0.008   1.503   1.332
 1830HOH     H2 5677   0.154   1.537   1.315
 1831HOH      O 5678   0.050   1.497   0.353
 1831HOH     H1 5679   0.135   1.538   0.341
 1831HOH     H2 5680   0.003   1.554   0.414
 1832HOH      O 5681   2.173   1.808   1.572
 1832HOH     H1 5682   2.245   1.868   1.555
 1832HOH     H2 5683   2.132   1.842   1.651
 1833HOH      O 5684   0.918   2.796   3.653
 1833HOH     H1 5685   0.995   2.851   3.642
 1833HOH     H2 5686   0.886   2.782   3.564
 1834HOH      O 5687   2.975   0.566   1.032
 1834HOH     H1 5688   2.993   0.497   0.968
 1834HOH     H2 5689   3.026   0.541   1.109
 1835HOH      O 5690   1.574   1.629   0.882
 1835HOH     H1 5691   1.559   1.540   0.852
 1835HOH     H2 5692   1.499   1.648   0.938
 1836HOH      O 5693   1.988   2.935   2.816
 1836HOH     H1 5694   1.958   3.003   2.876
 1836HOH     H2 5695   2.050   2.979   2.758
 1837HOH      O 5696   0.803   3.455   2.038
 1837HOH     H1 5697   0.842   3.369   2.024
 1837HOH     H2 5698   0.858   3.495   2.105
 1838HOH      O 5699   2.723   1.701   1.824
 1838HOH     H1 5700   2.792   1.692   1.890
 1838HOH     H2 5701   2.760   1.760   1.759
 1839HOH      O 5702   1.885   2.942   2.165
 1839HOH     H1 5703   1.927   2.934   2.079
 1839HOH     H2 5704   1.923   3.022   2.202
 1840HOH      O 5705   0.368   3.010   3.851
 1840HOH     H1 5706   0.400   3.046   3.768
 1840HOH     H2 5707   0.309   2.939   3.825
 1841HOH      O 5708   1.784   0.022   0.023
 1841HOH     H1 5709   1.694   0.050   0.007
 1841HOH     H2 5710   1.789  -0.066  -0.015
 1842HOH      O 5711   3.145   0.935   3.943
 1842HOH     H1 5712   3.229   0.891   3.957
 1842HOH     H2 5713   3.080   0.867   3.960
 1843HOH      O 5714   1.533   0.142   0.904
 1843HOH     H1 5715   1.463   0.203   0.881
 1843HOH     H2 5716   1.546   0.154   0.998
 1844HOH      O 5717   3.599   2.681   1.226
 1844HOH     H1 5718   3.517   2.716   1.261
 1844HOH     H2 5719   3.665   2.704   1.291
 1845HOH      O 5720   1.532   2.733   3.356
 1845HOH     H1 5721   1.476   2.669   3.312
 1845HOH     H2 5722   1.481   2.813   3.358
 1846HOH      O 5723   3.542   3.195   0.777
 1846HOH     H1 5724   3.487   3.271   0.793
 1846HOH     H2 5725   3.627   3.218   0.815
 1847HOH      O 5726   0.771   2.633   2.438
 1847HOH     H1 5727   0.728   2.647   2.354
 1847HOH     H2 5728   0.844   2.695   2.438
 1848HOH      O 5729   2.778   3.249   2.077
 1848HOH     H1 5730   2.784   3.325   2.135
 1848HOH     H2 5731   2.868   3.221   2.064
 1849HOH      O 5732   2.671   3.239   2.477
 1849HOH     H1 5733   2.686   3.161   2.424
 1849HOH     H2 5734   2.669   3.207   2.567
 1850HOH      O 5735   3.521   0.382   3.123
 1850HOH     H1 5736   3.577   0.460   3.116
 1850HOH     H2 5737   3.520   0.345   3.035
 1851HOH      O 5738   1.242   3.141   3.849
 1851HOH     H1 5739   1.157   3.182   3.866
 1851HOH     H2 5740   1.292   3.156   3.929
 1852HOH      O 5741   2.254   3.488   3.076
 1852HOH     H1 5742   2.207   3.510   2.996
 1852HOH     H2 5743   2.337   3.534   3.068
 1853HOH      O 5744   0.374   0.545   2.294
 1853HOH     H1 5745   0.304   0.608   2.310
 1853HOH     H2 5746   0.370   0.486   2.369
 1854HOH      O 5747   1.591   1.298   3.731
 1854HOH     H1 5748   1.577   1.300   3.826
 1854HOH     H2 5749   1.503   1.303   3.694
 1855HOH      O 5750   3.174   0.484   0.712
 1855HOH     H1 5751   3.204   0.478   0.803
 1855HOH     H2 5752   3.245   0.446   0.661
 1856HOH      O 5753   1.917   3.971   3.405
 1856HOH     H1 5754   1.941   4.062   3.386
 1856HOH     H2 5755   1.925   3.963   3.500
 1857HOH      O 5756   1.877   0.401   3.647
 1857HOH     H1 5757   1.812   0.353   3.700
 1857HOH     H2 5758   1.932   0.445   3.712
 1858HOH      O 5759   2.255   2.492   3.189
 1858HOH     H1 5760   2.196   2.478   3.263
 1858HOH     H2 5761   2.342   2.482   3.225
 1859HOH      O 5762   3.245   2.652   0.308
 1859HOH     H1 5763   3.274   2.740   0.283
 1859HOH     H2 5764   3.327   2.606   0.328
 1860HOH      O 5765   2.029   0.905   1.926
 1860HOH     H1 5766   1.992   0.931   2.011
 1860HOH     H2 5767   2.051   0.988   1.884
 1861HOH      O 5768   1.049   2.292   0.604
 1861HOH     H1 5769   1.113   2.300   0.674
 1861HOH     H2 5770   1.077   2.356   0.538
 1862HOH      O 5771   3.995   2.453   3.161
 1862HOH     H1 5772   3.998   2.366   3.121
 1862HOH     H2 5773   3.902   2.467   3.181
 1863HOH      O 5774   0.101   2.933   1.433
 1863HOH     H1 5775   0.097   3.013   1.380
 1863HOH     H2 5776   0.109   2.862   1.369
 1864HOH      O 5777   0.252   0.205   2.350
 1864HOH     H1 5778   0.315   0.213   2.422
 1864HOH     H2 5779   0.265   0.116   2.317
 1865HOH      O 5780   3.504   1.397   3.863
 1865HOH     H1 5781   3.485   1.465   3.799
 1865HOH     H2 5782   3.588   1.362   3.835
 1866HOH      O 5783   1.178   1.620   0.767
 1866HOH     H1 5784   1.175   1.539   0.715
 1866HOH     H2 5785   1.198   1.589   0.856
 1867HOH      O 5786   1.449   2.160   1.851
 1867HOH     H1 5787   1.399   2.221   1.905
 1867HOH     H2 5788   1.540   2.173   1.877
 1868HOH      O 5789   2.195   3.054   2.631
 1868HOH     H1 5790   2.234   2.975   2.593
 1868HOH     H2 5791   2.271   3.107   2.656
 1869HOH      O 5792   3.225   3.753   0.196
 1869HOH     H1 5793   3.243   3.823   0.259
 1869HOH     H2 5794   3.159   3.699   0.240
 1870HOH      O 5795   3.954   0.782   1.632
 1870HOH     H1 5796   3.959   0.758   1.725
 1870HOH     H2 5797   3.959   0.877   1.631
 1871HOH      O 5798   3.255   2.941   1.240
 1871HOH     H1 5799   3.178   2.900   1.279
 1871HOH     H2 5800   3.222   3.018   1.194
 1872HOH      O 5801   1.739   2.046   3.207
 1872HOH     H1 5802   1.769   2.117   3.264
 1872HOH     H2 5803   1.788   1.969   3.236
 1873HOH      O 5804   3.818   1.443   2.227
 1873HOH     H1 5805   3.887   1.493   2.184
 1873HOH     H2 5806   3.767   1.508   2.276
 1874HOH      O 5807   0.487   1.555   1.192
 1874HOH     H1 5808   0.559   1.496   1.171
 1874HOH     H2 5809   0.447   1.516   1.270
 1875HOH      O 5810   0.812   1.825   1.692
 1875HOH     H1 5811   0.889   1.861   1.648
 1875HOH     H2 5812   0.778   1.760   1.631
 1876HOH      O 5813   0.238   2.542   1.558
 1876HOH     H1 5814   0.289   2.576   1.484
 1876HOH     H2 5815   0.303   2.497   1.613
 1877HOH      O 5816   0.276   0.815   2.278
 1877HOH     H1 5817   0.300   0.832   2.187
 1877HOH     H2 5818   0.182   0.833   2.281
 1878HOH      O 5819   0.611   2.940   1.219
 1878HOH     H1 5820   0.556   2.993   1.276
 1878HOH     H2 5821   0.632   2.997   1.145
 1879HOH      O 5822   1.995   1.623   3.445
 1879HOH     H1 5823   2.037   1.539   3.426
 1879HOH     H2 5824   1.902   1.608   3.426
 1880HOH      O 5825   2.842   2.282   2.703
 1880HOH     H1 5826   2.813   2.369   2.730
 1880HOH     H2 5827   2.851   2.288   2.608
 1881HOH      O 5828   0.200   0.590   2.938
 1881HOH     H1 5829   0.254   0.608   3.015
 1881HOH     H2 5830   0.255   0.534   2.882
 1882HOH      O 5831   1.132   0.764   1.324
 1882HOH     H1 5832   1.103   0.779   1.414
 1882HOH     H2 5833   1.225   0.788   1.324
 1883HOH      O 5834   3.935   1.895   1.083
 1883HOH     H1 5835   3.846   1.919   1.107
 1883HOH     H2 5836   3.967   1.968   1.031
 1884HOH      O 5837   1.181   2.048   0.533
 1884HOH     H1 5838   1.260   2.041   0.478
 1884HOH     H2 5839   1.168   2.142   0.545
 1885HOH      O 5840   2.049   2.700   3.834
 1885HOH     H1 5841   2.130   2.744   3.861
 1885HOH     H2 5842   2.006   2.762   3.776
 1886HOH      O 5843   3.815   0.206   3.501
 1886HOH     H1 5844   3.757   0.134   3.475
 1886HOH     H2 5845   3.879   0.165   3.560
 1887HOH      O 5846   1.253   1.216   2.617
 1887HOH     H1 5847   1.299   1.155   2.675
 1887HOH     H2 5848   1.320   1.277   2.589
 1888HOH      O 5849   3.886   0.883   1.058
 1888HOH     H1 5850   3.949   0.815   1.086
 1888HOH     H2 5851   3.934   0.934   0.993
 1889HOH      O 5852   0.943   3.985   3.683
 1889HOH     H1 5853   1.004   3.937   3.627
 1889HOH     H2 5854   0.856   3.953   3.657
 1890HOH      O 5855   0.843   2.855   0.716
 1890HOH     H1 5856   0.811   2.940   0.745
 1890HOH     H2 5857   0.908   2.875   0.649
 1891HOH      O 5858   0.175   0.994   1.212
 1891HOH     H1 5859   0.108   0.985   1.144
 1891HOH     H2 5860   0.214   1.081   1.195
 1892HOH      O 5861   2.127   1.946   1.799
 1892HOH     H1 5862   2.127   2.034   1.762
 1892HOH     H2 5863   2.048   1.942   1.854
 1893HOH      O 5864   2.309   3.960   3.526
 1893HOH     H1 5865   2.296   3.872   3.490
 1893HOH     H2 5866   2.269   4.018   3.461
 1894HOH      O 5867   2.711   2.932   3.286
 1894HOH     H1 5868   2.651   2.976   3.346
 1894HOH     H2 5869   2.795   2.933   3.331
 1895HOH      O 5870   2.996   1.490   1.575
 1895HOH     H1 5871   3.015   1.449   1.659
 1895HOH     H2 5872   2.901   1.480   1.565
 1896HOH      O 5873   3.999   1.618   1.034
 1896HOH     H1 5874   3.971   1.709   1.042
 1896HOH     H2 5875   4.042   1.598   1.117
 1897HOH      O 5876   0.227   3.764   0.722
 1897HOH     H1 5877   0.175   3.755   0.642
 1897HOH     H2 5878   0.265   3.851   0.716
 1898HOH      O 5879   1.140   2.686   2.969
 1898HOH     H1 5880   1.118   2.771   3.008
 1898HOH     H2 5881   1.082   2.624   3.013
 1899HOH      O 5882   2.113   2.230   1.718
 1899HOH     H1 5883   2.191   2.277   1.687
 1899HOH     H2 5884   2.044   2.296   1.717
 1900HOH      O 5885   0.823   4.001   2.460
 1900HOH     H1 5886   0.899   3.951   2.491
 1900HOH     H2 5887   0.843   4.092   2.484
 1901HOH      O 5888   3.102   2.599   2.686
 1901HOH     H1 5889   3.167   2.634   2.625
 1901HOH     H2 5890   3.153   2.564   2.759
 1902HOH      O 5891   0.431   3.350   3.800
 1902HOH     H1 5892   0.479   3.325   3.720
 1902HOH     H2 5893   0.493   3.331   3.871
 1903HOH      O 5894   0.115   3.215   1.233
 1903HOH     H1 5895   0.081   3.212   1.322
 1903HOH     H2 5896   0.062   3.281   1.189
 1904HOH      O 5897   2.819   3.811   0.882
 1904HOH     H1 5898   2.885   3.800   0.951
 1904HOH     H2 5899   2.768   3.887   0.909
 1905HOH      O 5900   1.429   3.948   0.505
 1905HOH     H1 5901   1.378   4.026   0.485
 1905HOH     H2 5902   1.366   3.876   0.502
 1906HOH      O 5903   1.938   3.493   1.378
 1906HOH     H1 5904   1.916   3.536   1.461
 1906HOH     H2 5905   2.026   3.457   1.392
 1907HOH      O 5906   1.587   0.785   3.967
 1907HOH     H1 5907   1.678   0.803   3.940
 1907HOH     H2 5908   1.561   0.711   3.913
 1908HOH      O 5909   3.443   2.201   3.198
 1908HOH     H1 5910   3.512   2.135   3.205
 1908HOH     H2 5911   3.480   2.268   3.141
 1909HOH      O 5912   3.869   0.332   1.925
 1909HOH     H1 5913   3.777   0.327   1.953
 1909HOH     H2 5914   3.919   0.321   2.006
 1910HOH      O 5915   2.174   3.806   2.710
 1910HOH     H1 5916   2.184   3.886   2.761
 1910HOH     H2 5917   2.147   3.837   2.623
 1911HOH      O 5918   1.882   3.257   2.214
 1911HOH     H1 5919   1.942   3.331   2.211
 1911HOH     H2 5920   1.823   3.278   2.287
 1912HOH      O 5921   3.620   0.793   3.940
 1912HOH     H1 5922   3.712   0.767   3.938
 1912HOH     H2 5923   3.592   0.791   3.849
 1913HOH      O 5924   1.294   1.184   3.799
 1913HOH     H1 5925   1.360   1.169   3.867
 1913HOH     H2 5926   1.221   1.128   3.824
 1914HOH      O 5927   2.770   2.972   0.560
 1914HOH     H1 5928   2.840   2.922   0.518
 1914HOH     H2 5929   2.695   2.962   0.501
 1915HOH      O 5930   1.396   2.603   2.921
 1915HOH     H1 5931   1.323   2.665   2.922
 1915HOH     H2 5932   1.362   2.527   2.874
 1916HOH      O 5933   3.592   1.064   0.065
 1916HOH     H1 5934   3.589   0.974   0.034
 1916HOH     H2 5935   3.679   1.095   0.040
 1917HOH      O 5936   3.238   0.160   2.481
 1917HOH     H1 5937   3.201   0.095   2.540
 1917HOH     H2 5938   3.332   0.160   2.500
 1918HOH      O 5939   0.722   3.786   0.257
 1918HOH     H1 5940   0.649   3.804   0.197
 1918HOH     H2 5941   0.686   3.723   0.320
 1919HOH      O 5942   3.988   0.620   1.386
 1919HOH     H1 5943   3.971   0.600   1.478
 1919HOH     H2 5944   4.053   0.690   1.388
 1920HOH      O 5945   0.698   1.388   1.430
 1920HOH     H1 5946   0.781   1.424   1.398
 1920HOH     H2 5947   0.668   1.453   1.494
 1921HOH      O 5948   0.591   2.909   3.979
 1921HOH     H1 5949   0.506   2.946   3.958
 1921HOH     H2 5950   0.576   2.815   3.986
 1922HOH      O 5951   0.925   1.953   2.925
 1922HOH     H1 5952   0.953   1.872   2.882
 1922HOH     H2 5953   0.930   2.019   2.856
 1923HOH      O 5954   1.388   1.505   3.155
 1923HOH     H1 5955   1.384   1.447   3.079
 1923HOH     H2 5956   1.299   1.539   3.164
 1924HOH      O 5957   1.282   0.632   0.984
 1924HOH     H1 5958   1.283   0.694   0.911
 1924HOH     H2 5959   1.370   0.593   0.984
 1925HOH      O 5960   2.521   3.920   2.761
 1925HOH     H1 5961   2.512   3.826   2.746
 1925HOH     H2 5962   2.490   3.961   2.680
 1926HOH      O 5963   3.715   1.578   1.751
 1926HOH     H1 5964   3.693   1.495   1.793
 1926HOH     H2 5965   3.766   1.553   1.674
 1927HOH      O 5966   2.480   1.649   1.922
 1927HOH     H1 5967   2.569   1.642   1.887
 1927HOH     H2 5968   2.451   1.737   1.898
 1928HOH      O 5969   3.917   2.969   1.024
 1928HOH     H1 5970   4.003   2.927   1.024
 1928HOH     H2 5971   3.854   2.896   1.023
 1929HOH      O 5972   1.377   0.279   1.963
 1929HOH     H1 5973   1.390   0.202   2.018
 1929HOH     H2 5974   1.333   0.246   1.885
 1930HOH      O 5975   3.318   2.560   3.239
 1930HOH     H1 5976   3.364   2.629   3.192
 1930HOH     H2 5977   3.370   2.546   3.318
 1931HOH      O 5978   1.423   3.811   3.983
 1931HOH     H1 5979   1.504   3.815   4.034
 1931HOH     H2 5980   1.358   3.852   4.040
 1932HOH      O 5981   0.019   2.486   0.016
 1932HOH     H1 5982   0.084   2.546   0.050
 1932HOH     H2 5983  -0.047   2.542  -0.024
 1933HOH      O 5984   1.741   2.739   2.810
 1933HOH     H1 5985   1.802   2.812   2.805
 1933HOH     H2 5986   1.789   2.665   2.772
 1934HOH      O 5987   2.416   3.768   1.600
 1934HOH     H1 5988   2.411   3.812   1.514
 1934HOH     H2 5989   2.433   3.840   1.661
 1935HOH      O 5990   3.125   2.509   3.903
 1935HOH     H1 5991   3.030   2.520   3.914
 1935HOH     H2 5992   3.159   2.504   3.992
 1936HOH      O 5993   3.836   2.629   3.942
 1936HOH     H1 5994   3.817   2.611   4.034
 1936HOH     H2 5995   3.776   2.700   3.918
 1937HOH      O 5996   2.264   1.639   0.853
 1937HOH     H1 5997   2.173   1.609   0.853
 1937HOH     H2 5998   2.280   1.665   0.762
 1938HOH      O 5999   0.707   2.106   2.578
 1938HOH     H1 6000   0.647   2.062   2.638
 1938HOH     H2 6001   0.650   2.157   2.520
 1939HOH      O 6002   1.761   1.294   0.900
 1939HOH     H1 6003   1.725   1.206   0.887
 1939HOH     H2 6004   1.803   1.316   0.817
 1940HOH      O 6005   2.054   0.182   2.175
 1940HOH     H1 6006   2.114   0.107   2.176
 1940HOH     H2 6007   2.094   0.244   2.115
 1941HOH      O 6008   1.427   0.567   3.481
 1941HOH     H1 6009   1.432   0.620   3.402
 1941HOH     H2 6010   1.333   0.559   3.498
 1942HOH      O 6011   1.677   0.931   2.862
 1942HOH     H1 6012   1.693   0.837   2.848
 1942HOH     H2 6013   1.703   0.946   2.952
 1943HOH      O 6014   0.263   0.623   3.208
 1943HOH     H1 6015   0.184   0.614   3.260
 1943HOH     H2 6016   0.326   0.666   3.266
 1944HOH      O 6017   2.624   3.524   0.539
 1944HOH     H1 6018   2.673   3.556   0.463
 1944HOH     H2 6019   2.656   3.434   0.552
 1945HOH      O 6020   1.839   2.832   1.494
 1945HOH     H1 6021   1.788   2.770   1.546
 1945HOH     H2 6022   1.781   2.854   1.421
 1946HOH      O 6023   1.028   3.431   1.808
 1946HOH     H1 6024   0.997   3.358   1.862
 1946HOH     H2 6025   1.116   3.449   1.841
 1947HOH      O 6026   2.344   1.093   3.046
 1947HOH     H1 6027   2.293   1.014   3.029
 1947HOH     H2 6028   2.346   1.100   3.141
 1948HOH      O 6029   3.574   0.238   1.016
 1948HOH     H1 6030   3.641   0.238   0.947
 1948HOH     H2 6031   3.496   0.201   0.974
 1949HOH      O 6032   2.566   1.537   2.170
 1949HOH     H1 6033   2.552   1.605   2.104
 1949HOH     H2 6034   2.589   1.586   2.250
 1950HOH      O 6035   1.854   3.304   3.141
 1950HOH     H1 6036   1.851   3.396   3.165
 1950HOH     H2 6037   1.890   3.302   3.052
 1951HOH      O 6038   3.530   3.505   2.534
 1951HOH     H1 6039   3.467   3.448   2.579
 1951HOH     H2 6040   3.611   3.494   2.584
 1952HOH      O 6041   3.224   0.932   1.553
 1952HOH     H1 6042   3.215   0.855   1.609
 1952HOH     H2 6043   3.174   0.911   1.475
 1953HOH      O 6044   1.183   0.344   1.690
 1953HOH     H1 6045   1.252   0.299   1.641
 1953HOH     H2 6046   1.120   0.372   1.623
 1954HOH      O 6047   2.974   0.602   2.275
 1954HOH     H1 6048   3.010   0.548   2.205
 1954HOH     H2 6049   3.004   0.560   2.356
 1955HOH      O 6050   2.548   2.196   2.065
 1955HOH     H1 6051   2.505   2.217   1.982
 1955HOH     H2 6052   2.488   2.229   2.132
 1956HOH      O 6053   3.120   0.813   1.321
 1956HOH     H1 6054   3.156   0.742   1.267
 1956HOH     H2 6055   3.062   0.861   1.262
 1957HOH      O 6056   0.992   2.032   1.565
 1957HOH     H1 6057   1.001   2.121   1.532
 1957HOH     H2 6058   1.079   1.993   1.553
 1958HOH      O 6059   0.441   0.723   1.317
 1958HOH     H1 6060   0.505   0.688   1.380
 1958HOH     H2 6061   0.488   0.727   1.234
 1959HOH      O 6062   0.846   2.571   1.240
 1959HOH     H1 6063   0.941   2.570   1.243
 1959HOH     H2 6064   0.820   2.617   1.320
 1960HOH      O 6065   3.108   0.963   3.146
 1960HOH     H1 6066   3.050   0.969   3.222
 1960HOH     H2 6067   3.162   1.042   3.151
 1961HOH      O 6068   1.272   2.409   1.796
 1961HOH     H1 6069   1.203   2.458   1.751
 1961HOH     H2 6070   1.236   2.320   1.805
 1962HOH      O 6071   2.845   0.158   3.175
 1962HOH     H1 6072   2.880   0.243   3.148
 1962HOH     H2 6073   2.758   0.154   3.134
 1963HOH      O 6074   0.863   3.642   0.500
 1963HOH     H1 6075   0.774   3.625   0.470
 1963HOH     H2 6076   0.880   3.733   0.474
 1964HOH      O 6077   3.290   1.487   0.807
 1964HOH     H1 6078   3.373   1.505   0.852
 1964HOH     H2 6079   3.229   1.551   0.842
 1965HOH      O 6080   2.738   0.588   3.671
 1965HOH     H1 6081   2.832   0.574   3.681
 1965HOH     H2 6082   2.697   0.508   3.703
 1966HOH      O 6083   0.690   1.499   2.013
 1966HOH     H1 6084   0.735   1.545   2.084
 1966HOH     H2 6085   0.646   1.426   2.055
 1967HOH      O 6086   0.505   3.030   0.745
 1967HOH     H1 6087   0.551   3.043   0.662
 1967HOH     H2 6088   0.422   2.990   0.720
 1968HOH      O 6089   3.554   1.740   3.596
 1968HOH     H1 6090   3.505   1.806   3.548
 1968HOH     H2 6091   3.545   1.765   3.688
 1969HOH      O 6092   0.554   3.786   2.241
 1969HOH     H1 6093   0.475   3.819   2.198
 1969HOH     H2 6094   0.589   3.721   2.180
 1970HOH      O 6095   2.582   2.165   3.709
 1970HOH     H1 6096   2.670   2.191   3.738
 1970HOH     H2 6097   2.544   2.246   3.676
 1971HOH      O 6098   1.667   0.088   1.371
 1971HOH     H1 6099   1.719   0.074   1.450
 1971HOH     H2 6100   1.623   0.004   1.356
 1972HOH      O 6101   2.704   3.015   2.333
 1972HOH     H1 6102   2.779   2.965   2.300
 1972HOH     H2 6103   2.632   2.990   2.275
 1973HOH      O 6104   3.621   2.087   3.642
 1973HOH     H1 6105   3.694   2.109   3.699
 1973HOH     H2 6106   3.545   2.087   3.700
 1974HOH      O 6107   0.024   1.093   3.610
 1974HOH     H1 6108  -0.048   1.155   3.608
 1974HOH     H2 6109   0.102   1.145   3.591
 1975HOH      O 6110   3.152   3.138   0.519
 1975HOH     H1 6111   3.119   3.087   0.593
 1975HOH     H2 6112   3.202   3.075   0.467
 1976HOH      O 6113   2.579   0.454   0.047
 1976HOH     H1 6114   2.607   0.532  -0.000
 1976HOH     H2 6115   2.540   0.487   0.128
 1977HOH      O 6116   0.921   2.614   2.144
 1977HOH     H1 6117   0.911   2.520   2.134
 1977HOH     H2 6118   0.833   2.645   2.166
 1978HOH      O 6119   3.395   1.391   3.447
 1978HOH     H1 6120   3.392   1.300   3.417
 1978HOH     H2 6121   3.310   1.405   3.489
 1979HOH      O 6122   2.193   0.528   0.314
 1979HOH     H1 6123   2.165   0.619   0.302
 1979HOH     H2 6124   2.155   0.502   0.397
 1980HOH      O 6125   3.349   0.882   2.206
 1980HOH     H1 6126   3.420   0.947   2.207
 1980HOH     H2 6127   3.281   0.922   2.152
 1981HOH      O 6128   3.473   0.113   0.576
 1981HOH     H1 6129   3.418   0.128   0.653
 1981HOH     H2 6130   3.558   0.087   0.613
 1982HOH      O 6131   3.771   2.571   0.213
 1982HOH     H1 6132   3.832   2.502   0.240
 1982HOH     H2 6133   3.755   2.622   0.293
 1983HOH      O 6134   2.811   0.039   1.608
 1983HOH     H1 6135   2.830   0.046   1.514
 1983HOH     H2 6136   2.768   0.122   1.629
 1984HOH      O 6137   0.465   3.026   2.494
 1984HOH     H1 6138   0.431   3.097   2.549
 1984HOH     H2 6139   0.535   2.987   2.546
 1985HOH      O 6140   1.393   0.438   2.896
 1985HOH     H1 6141   1.327   0.471   2.958
 1985HOH     H2 6142   1.475   0.442   2.945
 1986HOH      O 6143   0.497   1.090   1.256
 1986HOH     H1 6144   0.565   1.022   1.247
 1986HOH     H2 6145   0.496   1.110   1.350
 1987HOH      O 6146   3.225   0.146   0.189
 1987HOH     H1 6147   3.159   0.206   0.222
 1987HOH     H2 6148   3.302   0.201   0.172
 1988HOH      O 6149   3.470   1.592   2.897
 1988HOH     H1 6150   3.449   1.606   2.990
 1988HOH     H2 6151   3.468   1.680   2.859
 1989HOH      O 6152   1.829   0.204   0.901
 1989HOH     H1 6153   1.847   0.160   0.984
 1989HOH     H2 6154   1.734   0.214   0.899
 1990HOH      O 6155   2.082   0.526   3.986
 1990HOH     H1 6156   2.138   0.585   3.936
 1990HOH     H2 6157   2.132   0.444   3.992
 1991HOH      O 6158   2.635   0.930   3.784
 1991HOH     H1 6159   2.549   0.957   3.752
 1991HOH     H2 6160   2.681   0.899   3.706
 1992HOH      O 6161   1.083   4.034   2.615
 1992HOH     H1 6162   1.125   3.990   2.541
 1992HOH     H2 6163   1.136   4.009   2.690
 1993HOH      O 6164   2.342   3.759   0.785
 1993HOH     H1 6165   2.272   3.698   0.760
 1993HOH     H2 6166   2.404   3.705   0.836
 1994HOH      O 6167   1.837   2.041   0.771
 1994HOH     H1 6168   1.932   2.038   0.763
 1994HOH     H2 6169   1.817   1.978   0.840
 1995HOH      O 6170   2.304   3.469   0.127
 1995HOH     H1 6171   2.249   3.493   0.053
 1995HOH     H2 6172   2.266   3.386   0.159
 1996HOH      O 6173   3.573   3.770   1.700
 1996HOH     H1 6174   3.594   3.863   1.689
 1996HOH     H2 6175   3.502   3.770   1.765
 1997HOH      O 6176   0.290   3.921   2.523
 1997HOH     H1 6177   0.242   3.963   2.595
 1997HOH     H2 6178   0.382   3.926   2.548
 1998HOH      O 6179   3.413   3.542   1.255
 1998HOH     H1 6180   3.342   3.535   1.319
 1998HOH     H2 6181   3.428   3.453   1.225
 1999HOH      O 6182   2.609   0.323   1.198
 1999HOH     H1 6183   2.562   0.288   1.122
 1999HOH     H2 6184   2.696   0.342   1.165
 2000HOH      O 6185   2.345   1.241   0.619
 2000HOH     H1 6186   2.262   1.288   0.610
 2000HOH     H2 6187   2.411   1.303   0.587
 2001HOH      O 6188   0.197   2.763   2.041
 2001HOH     H1 6189   0.231   2.766   1.951
 2001HOH     H2 6190   0.104   2.786   2.032
 2002HOH      O 6191   1.095   2.951   3.311
 2002HOH     H1 6192   1.121   3.004   3.236
 2002HOH     H2 6193   1.170   2.954   3.370
 2003HOH      O 6194   3.383   1.485   2.097
 2003HOH     H1 6195   3.463   1.527   2.065
 2003HOH     H2 6196   3.327   1.558   2.122
 2004HOH      O 6197   0.199   3.388   3.994
 2004HOH     H1 6198   0.275   3.360   3.943
 2004HOH     H2 6199   0.218   3.478   4.018
 2005HOH      O 6200   2.621   1.989   0.718
 2005HOH     H1 6201   2.579   2.075   0.723
 2005HOH     H2 6202   2.635   1.964   0.809
 2006HOH      O 6203   3.731   3.123   1.753
 2006HOH     H1 6204   3.752   3.199   1.808
 2006HOH     H2 6205   3.817   3.089   1.727
 2007HOH      O 6206   3.709   1.270   2.674
 2007HOH     H1 6207   3.739   1.179   2.679
 2007HOH     H2 6208   3.785   1.323   2.696
 2008HOH      O 6209   2.319   0.203   0.691
 2008HOH     H1 6210   2.264   0.197   0.769
 2008HOH     H2 6211   2.332   0.112   0.664
 2009HOH      O 6212   3.428   1.125   2.984
 2009HOH     H1 6213   3.455   1.177   2.908
 2009HOH     H2 6214   3.371   1.057   2.948
 2010HOH      O 6215   2.074   2.678   1.436
 2010HOH     H1 6216   2.011   2.748   1.451
 2010HOH     H2 6217   2.127   2.677   1.516
 2011HOH      O 6218   1.588   2.274   1.241
 2011HOH     H1 6219   1.508   2.229   1.268
 2011HOH     H2 6220   1.623   2.221   1.170
 2012HOH      O 6221   2.635   1.961   0.190
 2012HOH     H1 6222   2.710   1.992   0.139
 2012HOH     H2 6223   2.673   1.896   0.250
 2013HOH      O 6224   1.408   3.142   2.570
 2013HOH     H1 6225   1.433   3.235   2.570
 2013HOH     H2 6226   1.469   3.102   2.632
 2014HOH      O 6227   2.496   2.215   0.691
 2014HOH     H1 6228   2.549   2.295   0.694
 2014HOH     H2 6229   2.411   2.240   0.728
 2015HOH      O 6230   0.847   3.148   0.778
 2015HOH     H1 6231   0.801   3.214   0.727
 2015HOH     H2 6232   0.931   3.138   0.734
 2016HOH      O 6233   1.797   2.290   2.423
 2016HOH     H1 6234   1.845   2.207   2.431
 2016HOH     H2 6235   1.716   2.276   2.472
 2017HOH      O 6236   1.047   0.471   0.891
 2017HOH     H1 6237   1.071   0.513   0.974
 2017HOH     H2 6238   1.022   0.543   0.834
 2018HOH      O 6239   1.975   1.607   1.850
 2018HOH     H1 6240   2.054   1.634   1.895
 2018HOH     H2 6241   2.005   1.547   1.782
 2019HOH      O 6242   0.311   2.662   3.621
 2019HOH     H1 6243   0.288   2.700   3.706
 2019HOH     H2 6244   0.233   2.615   3.593
 2020HOH      O 6245   1.424   2.757   1.606
 2020HOH     H1 6246   1.411   2.664   1.589
 2020HOH     H2 6247   1.424   2.798   1.519
 2021HOH      O 6248   3.224   3.145   1.482
 2021HOH     H1 6249   3.174   3.064   1.479
 2021HOH     H2 6250   3.313   3.118   1.504
 2022HOH      O 6251   3.951   2.332   0.337
 2022HOH     H1 6252   3.969   2.239   0.326
 2022HOH     H2 6253   3.983   2.352   0.425
 2023HOH      O 6254   3.654   0.511   3.978
 2023HOH     H1 6255   3.626   0.602   3.970
 2023HOH     H2 6256   3.693   0.505   4.065
 2024HOH      O 6257   2.226   3.950   1.847
 2024HOH     H1 6258   2.161   4.018   1.828
 2024HOH     H2 6259   2.307   3.983   1.810
 2025HOH      O 6260   3.611   3.216   3.127
 2025HOH     H1 6261   3.568   3.289   3.172
 2025HOH     H2 6262   3.693   3.203   3.175
 2026HOH      O 6263   0.471   3.169   2.846
 2026HOH     H1 6264   0.556   3.212   2.850
 2026HOH     H2 6265   0.485   3.085   2.890
 2027HOH      O 6266   0.554   0.915   1.855
 2027HOH     H1 6267   0.478   0.947   1.904
 2027HOH     H2 6268   0.531   0.928   1.763
 2028HOH      O 6269   1.953   2.151   1.356
 2028HOH     H1 6270   1.931   2.104   1.275
 2028HOH     H2 6271   1.941   2.243   1.335
 2029HOH      O 6272   3.794   3.293   1.273
 2029HOH     H1 6273   3.708   3.254   1.286
 2029HOH     H2 6274   3.780   3.387   1.287
 2030HOH      O 6275   1.695   1.555   3.741
 2030HOH     H1 6276   1.665   1.465   3.754
 2030HOH     H2 6277   1.649   1.585   3.662
 2031HOH      O 6278   2.895   3.710   2.623
 2031HOH     H1 6279   2.979   3.696   2.579
 2031HOH     H2 6280   2.883   3.631   2.676
 2032HOH      O 6281   3.522   2.545   0.292
 2032HOH     H1 6282   3.522   2.451   0.276
 2032HOH     H2 6283   3.555   2.584   0.211
 2033HOH      O 6284   3.868   2.888   2.858
 2033HOH     H1 6285   3.882   2.970   2.905
 2033HOH     H2 6286   3.889   2.909   2.767
 2034HOH      O 6287   2.126   2.638   0.334
 2034HOH     H1 6288   2.037   2.641   0.369
 2034HOH     H2 6289   2.147   2.545   0.328
 2035HOH      O 6290   1.584   1.392   2.215
 2035HOH     H1 6291   1.646   1.417   2.146
 2035HOH     H2 6292   1.498   1.407   2.177
 2036HOH      O 6293   2.959   0.564   1.793
 2036HOH     H1 6294   2.869   0.591   1.775
 2036HOH     H2 6295   2.951   0.508   1.871
 2037HOH      O 6296   1.286   1.584   1.028
 2037HOH     H1 6297   1.326   1.586   1.115
 2037HOH     H2 6298   1.214   1.647   1.033
 2038HOH      O 6299   1.898   0.781   2.558
 2038HOH     H1 6300   1.899   0.864   2.606
 2038HOH     H2 6301   1.884   0.806   2.467
 2039HOH      O 6302   0.013   0.992   2.191
 2039HOH     H1 6303   0.026   0.949   2.107
 2039HOH     H2 6304   0.040   1.083   2.176
 2040HOH      O 6305   3.749   1.738   3.921
 2040HOH     H1 6306   3.812   1.743   3.849
 2040HOH     H2 6307   3.803   1.742   4.000
 2041HOH      O 6308   1.875   0.172   1.199
 2041HOH     H1 6309   1.807   0.135   1.257
 2041HOH     H2 6310   1.874   0.266   1.219
 2042HOH      O 6311   1.313   3.554   1.234
 2042HOH     H1 6312   1.312   3.649   1.250
 2042HOH     H2 6313   1.259   3.518   1.305
 2043HOH      O 6314   0.465   1.757   1.448
 2043HOH     H1 6315   0.491   1.683   1.502
 2043HOH     H2 6316   0.532   1.824   1.463
 2044HOH      O 6317   2.175   1.276   1.893
 2044HOH     H1 6318   2.118   1.215   1.845
 2044HOH     H2 6319   2.264   1.248   1.872
 2045HOH      O 6320   1.997   2.270   2.814
 2045HOH     H1 6321   1.967   2.296   2.901
 2045HOH     H2 6322   2.004   2.352   2.765
 2046HOH      O 6323   1.668   1.438   2.806
 2046HOH     H1 6324   1.706   1.363   2.852
 2046HOH     H2 6325   1.684   1.420   2.713
 2047HOH      O 6326   0.163   3.130   0.389
 2047HOH     H1 6327   0.077   3.094   0.409
 2047HOH     H2 6328   0.179   3.194   0.458
 2048HOH      O 6329   3.469   1.167   0.885
 2048HOH     H1 6330   3.546   1.166   0.942
 2048HOH     H2 6331   3.504   1.156   0.797
 2049HOH      O 6332   0.805   3.108   2.356
 2049HOH     H1 6333   0.771   3.024   2.389
 2049HOH     H2 6334   0.884   3.124   2.408
 2050HOH      O 6335   3.893   3.499   0.081
 2050HOH     H1 6336   3.915   3.474  -0.008
 2050HOH     H2 6337   3.798   3.508   0.082
 2051HOH      O 6338   0.125   1.345   3.279
 2051HOH     H1 6339   0.162   1.257   3.285
 2051HOH     H2 6340   0.192   1.402   3.318
 2052HOH      O 6341   3.106   1.249   3.235
 2052HOH     H1 6342   3.023   1.289   3.210
 2052HOH     H2 6343   3.172   1.310   3.203
 2053HOH      O 6344   2.558   0.424   2.210
 2053HOH     H1 6345   2.464   0.434   2.225
 2053HOH     H2 6346   2.597   0.503   2.245
 2054HOH      O 6347   2.246   0.269   0.220
 2054HOH     H1 6348   2.221   0.294   0.131
 2054HOH     H2 6349   2.233   0.348   0.272
 2055HOH      O 6350   2.421   0.889   3.422
 2055HOH     H1 6351   2.413   0.800   3.455
 2055HOH     H2 6352   2.490   0.928   3.476
 2056HOH      O 6353   2.891   0.286   1.145
 2056HOH     H1 6354   2.897   0.331   1.060
 2056HOH     H2 6355   2.959   0.219   1.141
 2057HOH      O 6356   2.879   1.602   0.308
 2057HOH     H1 6357   2.921   1.519   0.282
 2057HOH     H2 6358   2.886   1.657   0.230
 2058HOH      O 6359   1.904   2.646   1.175
 2058HOH     H1 6360   1.983   2.700   1.179
 2058HOH     H2 6361   1.837   2.704   1.139
 2059HOH      O 6362   2.944   2.115   3.783
 2059HOH     H1 6363   2.898   2.197   3.802
 2059HOH     H2 6364   3.015   2.140   3.724
 2060HOH      O 6365   2.284   3.470   2.500
 2060HOH     H1 6366   2.375   3.444   2.486
 2060HOH     H2 6367   2.241   3.453   2.416
 2061HOH      O 6368   2.990   1.874   2.499
 2061HOH     H1 6369   2.957   1.857   2.588
 2061HOH     H2 6370   2.925   1.933   2.461
 2062HOH      O 6371   1.988   2.949   1.918
 2062HOH     H1 6372   1.914   2.997   1.880
 2062HOH     H2 6373   2.066   2.991   1.880
 2063HOH      O 6374   2.379   1.988   0.121
 2063HOH     H1 6375   2.467   1.986   0.157
 2063HOH     H2 6376   2.392   2.001   0.027
 2064HOH      O 6377   3.724   0.158   2.274
 2064HOH     H1 6378   3.790   0.115   2.329
 2064HOH     H2 6379   3.752   0.250   2.272
 2065HOH      O 6380   3.879   2.080   2.417
 2065HOH     H1 6381   3.968   2.112   2.435
 2065HOH     H2 6382   3.838   2.071   2.503
 2066HOH      O 6383   0.195   1.208   2.495
 2066HOH     H1 6384   0.205   1.201   2.590
 2066HOH     H2 6385   0.104   1.235   2.483
 2067HOH      O 6386   0.952   0.196   3.153
 2067HOH     H1 6387   0.870   0.183   3.107
 2067HOH     H2 6388   0.945   0.283   3.192
 2068HOH      O 6389   3.506   1.189   0.563
 2068HOH     H1 6390   3.514   1.227   0.476
 2068HOH     H2 6391   3.435   1.125   0.555
 2069HOH      O 6392   2.593   1.763   2.862
 2069HOH     H1 6393   2.631   1.715   2.788
 2069HOH     H2 6394   2.507   1.723   2.875
 2070HOH      O 6395   2.615   0.736   2.609
 2070HOH     H1 6396   2.651   0.795   2.675
 2070HOH     H2 6397   2.539   0.781   2.575
 2071HOH      O 6398   3.028   1.221   1.365
 2071HOH     H1 6399   3.009   1.262   1.281
 2071HOH     H2 6400   2.943   1.215   1.409
 2072HOH      O 6401   3.288   2.773   0.644
 2072HOH     H1 6402   3.323   2.686   0.623
 2072HOH     H2 6403   3.209   2.756   0.694
 2073HOH      O 6404   2.828   0.074   2.901
 2073HOH     H1 6405   2.739   0.105   2.915
 2073HOH     H2 6406   2.819  -0.019   2.882
 2074HOH      O 6407   0.531   3.760   0.034
 2074HOH     H1 6408   0.475   3.824   0.077
 2074HOH     H2 6409   0.569   3.808  -0.040
 2075HOH      O 6410   2.767   0.929   2.754
 2075HOH     H1 6411   2.760   1.023   2.771
 2075HOH     H2 6412   2.829   0.898   2.820
 2076HOH      O 6413   0.951   3.054   2.590
 2076HOH     H1 6414   1.027   2.997   2.605
 2076HOH     H2 6415   0.904   3.054   2.673
 2077HOH      O 6416   3.413   3.555   2.032
 2077HOH     H1 6417   3.466   3.621   2.076
 2077HOH     H2 6418   3.374   3.602   1.958
 2078HOH      O 6419   2.277   2.501   2.912
 2078HOH     H1 6420   2.239   2.511   2.999
 2078HOH     H2 6421   2.210   2.534   2.852
 2079HOH      O 6422   0.028   2.547   1.029
 2079HOH     H1 6423   0.046   2.549   0.935
 2079HOH     H2 6424   0.058   2.461   1.058
 2080HOH      O 6425   3.784   0.997   1.354
 2080HOH     H1 6426   3.852   0.942   1.393
 2080HOH     H2 6427   3.808   1.002   1.261
 2081HOH      O 6428   1.251   4.018   3.279
 2081HOH     H1 6429   1.293   4.101   3.258
 2081HOH     H2 6430   1.282   3.957   3.212
 2082HOH      O 6431   1.589   3.625   0.739
 2082HOH     H1 6432   1.537   3.701   0.713
 2082HOH     H2 6433   1.664   3.627   0.679
 2083HOH      O 6434   2.090   2.277   0.570
 2083HOH     H1 6435   2.162   2.235   0.522
 2083HOH     H2 6436   2.032   2.310   0.501
 2084HOH      O 6437   1.568   1.075   0.423
 2084HOH     H1 6438   1.575   0.981   0.435
 2084HOH     H2 6439   1.515   1.105   0.497
 2085HOH      O 6440   2.191   2.669   1.820
 2085HOH     H1 6441   2.202   2.619   1.900
 2085HOH     H2 6442   2.097   2.681   1.811
 2086HOH      O 6443   3.035   3.506   3.496
 2086HOH     H1 6444   2.986   3.547   3.567
 2086HOH     H2 6445   2.970   3.489   3.428
 2087HOH      O 6446   3.117   0.368   2.351
 2087HOH     H1 6447   3.096   0.349   2.259
 2087HOH     H2 6448   3.163   0.291   2.382
 2088HOH      O 6449   3.448   0.444   2.385
 2088HOH     H1 6450   3.356   0.429   2.410
 2088HOH     H2 6451   3.448   0.532   2.347
 2089HOH      O 6452   0.127   0.448   0.592
 2089HOH     H1 6453   0.126   0.436   0.497
 2089HOH     H2 6454   0.214   0.417   0.618
 2090HOH      O 6455   1.752   1.843   0.977
 2090HOH     H1 6456   1.806   1.799   1.043
 2090HOH     H2 6457   1.710   1.771   0.929
 2091HOH      O 6458   3.865   0.285   0.948
 2091HOH     H1 6459   3.956   0.263   0.931
 2091HOH     H2 6460   3.870   0.354   1.015
 2092HOH      O 6461   2.518   1.153   2.605
 2092HOH     H1 6462   2.462   1.091   2.652
 2092HOH     H2 6463   2.544   1.107   2.525
 2093HOH      O 6464   2.686   2.885   1.323
 2093HOH     H1 6465   2.605   2.898   1.275
 2093HOH     H2 6466   2.698   2.964   1.374
 2094HOH      O 6467   0.604   0.499   2.867
 2094HOH     H1 6468   0.576   0.565   2.804
 2094HOH     H2 6469   0.563   0.525   2.949
 2095HOH      O 6470   2.302   1.584   1.519
 2095HOH     H1 6471   2.365   1.612   1.453
 2095HOH     H2 6472   2.269   1.666   1.557
 2096HOH      O 6473   3.398   2.713   1.405
 2096HOH     H1 6474   3.414   2.730   1.498
 2096HOH     H2 6475   3.303   2.706   1.398
 2097HOH      O 6476   0.315   3.182   3.320
 2097HOH     H1 6477   0.394   3.219   3.280
 2097HOH     H2 6478   0.246   3.194   3.255
 2098HOH      O 6479   0.994   2.175   3.454
 2098HOH     H1 6480   1.047   2.109   3.410
 2098HOH     H2 6481   1.055   2.247   3.471
 2099HOH      O 6482   1.583   0.305   1.523
 2099HOH     H1 6483   1.491   0.309   1.500
 2099HOH     H2 6484   1.620   0.237   1.467
 2100HOH      O 6485   2.017   3.465   2.223
 2100HOH     H1 6486   1.989   3.534   2.282
 2100HOH     H2 6487   2.032   3.510   2.139
 2101HOH      O 6488   2.303   0.410   2.242
 2101HOH     H1 6489   2.247   0.440   2.170
 2101HOH     H2 6490   2.267   0.453   2.320
 2102HOH      O 6491   0.611   3.372   1.811
 2102HOH     H1 6492   0.671   3.390   1.884
 2102HOH     H2 6493   0.668   3.362   1.735
 2103HOH      O 6494   0.830   1.733   3.226
 2103HOH     H1 6495   0.769   1.690   3.287
 2103HOH     H2 6496   0.810   1.826   3.237
 2104HOH      O 6497   1.358   1.646   1.277
 2104HOH     H1 6498   1.334   1.638   1.369
 2104HOH     H2 6499   1.445   1.607   1.272
 2105HOH      O 6500   0.124   1.812   1.752
 2105HOH     H1 6501   0.148   1.882   1.812
 2105HOH     H2 6502   0.174   1.830   1.672
 2106HOH      O 6503   3.407   3.978   1.396
 2106HOH     H1 6504   3.479   3.988   1.334
 2106HOH     H2 6505   3.448   3.991   1.482
 2107HOH      O 6506   0.759   1.988   0.064
 2107HOH     H1 6507   0.714   1.976   0.147
 2107HOH     H2 6508   0.827   1.921   0.063
 2108HOH      O 6509   1.282   0.856   3.303
 2108HOH     H1 6510   1.219   0.846   3.232
 2108HOH     H2 6511   1.228   0.866   3.382
 2109HOH      O 6512   0.484   2.914   3.003
 2109HOH     H1 6513   0.416   2.918   2.936
 2109HOH     H2 6514   0.435   2.917   3.086
 2110HOH      O 6515   3.165   1.749   3.833
 2110HOH     H1 6516   3.176   1.654   3.838
 2110HOH     H2 6517   3.216   1.783   3.907
 2111HOH      O 6518   1.687   0.465   3.461
 2111HOH     H1 6519   1.611   0.523   3.474
 2111HOH     H2 6520   1.741   0.479   3.539
   4.02731   4.02731   4.02731   0.00000   0.00000   0.00000   0.00000   0.00000   0.00000
