Generated with MDTraj, t= 23745.0
 6520
    1MOL     C1    1   2.048   0.672   3.843
    1MOL     C2    2   2.182   0.660   3.875
    1MOL     C3    3   2.239   0.747   3.967
    1MOL     C4    4   2.161   0.838   4.030
    1MOL     C5    5   2.022   0.839   4.012
    1MOL     C6    6   1.959   0.754   3.920
    1MOL     C7    7   2.378   0.736   3.996
    1MOL     N1    8   2.494   0.723   4.002
    1MOL     C8    9   1.811   0.734   3.903
    1MOL     O1   10   1.763   0.685   3.811
    1MOL     O2   11   1.731   0.773   3.987
    1MOL     H1   12   2.004   0.607   3.768
    1MOL     H2   13   2.247   0.588   3.825
    1MOL     H3   14   2.211   0.904   4.101
    1MOL     H4   15   1.954   0.896   4.075
    2OCB     C1   16   3.884   0.999   0.291
    2OCB     C2   17   3.823   1.111   0.043
    2OCB     C3   18   3.914   1.136   0.262
    2OCB     C4   19   3.818   0.924   0.192
    2OCB     C5   20   3.781   0.982   0.069
    2OCB     C6   21   3.881   1.192   0.139
    2OCB     O1   22   3.771   1.156  -0.076
    2OCB     C7   23   3.912   1.335   0.107
    2OCB     C8   24   3.646   1.228  -0.072
    2OCB     O2   25   3.670   1.365  -0.060
    2OCB     C9   26   3.681   1.429   0.066
    2OCB    C10   27   3.792   1.419   0.154
    2OCB    C11   28   3.787   1.483   0.277
    2OCB    C12   29   3.577   1.517   0.094
    2OCB    C13   30   3.675   1.556   0.312
    2OCB    C14   31   3.563   1.566   0.228
    2OCB     O3   32   3.450   1.640   0.256
    2OCB    C15   33   3.658   1.616   0.452
    2OCB    C16   34   3.581   1.524   0.539
    2OCB    C17   35   3.444   1.533   0.552
    2OCB    C18   36   3.345   1.578   0.333
    2OCB     O4   37   3.365   1.607   0.475
    2OCB     O5   38   3.763   0.802   0.215
    2OCB    C19   39   3.915   0.934   0.427
    2OCB    C20   40   3.799   0.960   0.528
    2OCB     O6   41   3.694   0.766   0.442
    2OCB    C21   42   3.691   0.868   0.530
    2OCB    C22   43   3.376   1.437   0.625
    2OCB    C23   44   3.443   1.333   0.684
    2OCB    C24   45   3.585   0.894   0.609
    2OCB    C25   46   3.582   1.011   0.684
    2OCB     O7   47   3.364   1.236   0.743
    2OCB     O8   48   3.459   1.029   0.742
    2OCB    C26   49   3.357   1.111   0.675
    2OCB    C27   50   3.797   1.079   0.600
    2OCB    C28   51   3.688   1.103   0.682
    2OCB    C29   52   3.653   1.423   0.609
    2OCB    C30   53   3.666   1.222   0.765
    2OCB    C31   54   3.585   1.327   0.684
    2OCB    C32   55   3.648   0.786   0.303
    2OCB    C33   56   3.788   1.672   0.519
    2OCB    C34   57   3.863   1.782   0.441
    2OCB    C35   58   3.953   1.868   0.531
    2OCB     O9   59   4.058   1.821   0.570
    2OCB    C36   60   4.051   1.387   0.142
    2OCB    C37   61   4.083   1.528   0.087
    2OCB    C38   62   4.076   1.547  -0.063
    2OCB    O10   63   4.173   1.519  -0.138
    2OCB    C39   64   4.055   0.963   0.492
    2OCB    C40   65   4.171   0.891   0.419
    2OCB    C41   66   4.314   0.924   0.469
    2OCB    O11   67   4.345   0.883   0.573
    2OCB    C42   68   3.795   1.271   0.837
    2OCB    C43   69   3.782   1.403   0.914
    2OCB    C44   70   3.915   1.452   0.978
    2OCB    O12   71   3.974   1.545   0.929
    2OCB    C45   72   3.555   1.193  -0.185
    2OCB    C46   73   3.358   1.115  -0.367
    2OCB    C47   74   3.447   1.274  -0.213
    2OCB    C48   75   3.552   1.064  -0.233
    2OCB    C49   76   3.455   1.023  -0.333
    2OCB    C50   77   3.346   1.236  -0.302
    2OCB    C51   78   3.542   0.689   0.255
    2OCB    C52   79   3.361   0.487   0.174
    2OCB    C53   80   3.466   0.613   0.344
    2OCB    C54   81   3.511   0.677   0.121
    2OCB    C55   82   3.429   0.569   0.084
    2OCB    C56   83   3.385   0.511   0.305
    2OCB    C57   84   3.216   1.049   0.684
    2OCB    C58   85   2.960   0.938   0.669
    2OCB    C59   86   3.105   1.134   0.666
    2OCB    C60   87   3.197   0.910   0.694
    2OCB    C61   88   3.070   0.859   0.696
    2OCB    C62   89   2.977   1.076   0.661
    2OCB    C63   90   3.208   1.601   0.285
    2OCB    C64   91   2.947   1.615   0.196
    2OCB    C65   92   3.107   1.578   0.378
    2OCB    C66   93   3.179   1.623   0.148
    2OCB    C67   94   3.048   1.634   0.102
    2OCB    C68   95   2.976   1.596   0.333
    2OCB    O13   96   3.402   0.556  -0.050
    2OCB    O14   97   3.059   0.721   0.697
    2OCB    O15   98   2.859   1.155   0.640
    2OCB    O16   99   3.446   0.895  -0.389
    2OCB    O17  100   3.231   1.317  -0.322
    2OCB    O18  101   2.868   1.584   0.417
    2OCB    O19  102   3.026   1.638  -0.035
    2OCB    C69  103   3.156   0.626   0.677
    2OCB    C70  104   3.330   0.413   0.638
    2OCB    C71  105   3.190   0.586   0.547
    2OCB    C72  106   3.217   0.567   0.791
    2OCB    C73  107   3.299   0.455   0.771
    2OCB    C74  108   3.277   0.479   0.525
    2OCB    O20  109   3.308   0.439   0.396
    2OCB    C75  110   3.483   0.783  -0.318
    2OCB    C76  111   3.588   0.558  -0.198
    2OCB    C77  112   3.612   0.741  -0.345
    2OCB    C78  113   3.412   0.724  -0.211
    2OCB    C79  114   3.473   0.617  -0.150
    2OCB    C80  115   3.667   0.629  -0.290
    2OCB    C81  116   2.855   1.294   0.632
    2OCB    C82  117   2.875   1.568   0.655
    2OCB    C83  118   2.867   1.354   0.763
    2OCB    C84  119   2.865   1.373   0.517
    2OCB    C85  120   2.869   1.508   0.532
    2OCB    C86  121   2.878   1.494   0.775
    2OCB    C87  122   2.895   1.558   0.916
    2OCB    O21  123   2.915   1.677   0.913
    2OCB    C88  124   3.393   1.782  -0.347
    2OCB    O22  125   3.475   1.748  -0.433
    2OCB    C89  126   3.799   0.581  -0.336
    2OCB    O23  127   3.826   0.467  -0.311
    2OCB    O24  128   3.914   1.976   0.563
    2OCB    O25  129   3.947   1.414   1.088
    2OCB    O26  130   4.388   0.999   0.406
    2OCB    C90  131   3.349   0.374   0.884
    2OCB    O27  132   3.447   0.309   0.875
    2OCB    O28  133   3.404   1.895  -0.296
    2OCB    O29  134   2.913   1.502   1.021
    2OCB    O30  135   3.282   0.372   0.981
    2OCB    O31  136   3.892   0.656  -0.380
    2OCB    O32  137   3.985   1.594  -0.124
    2OCB    C91  138   3.213   1.444  -0.274
    2OCB    C92  139   3.207   1.704  -0.183
    2OCB    C93  140   3.130   1.476  -0.167
    2OCB    C94  141   3.298   1.542  -0.335
    2OCB    C95  142   3.296   1.675  -0.287
    2OCB    C96  143   3.125   1.609  -0.128
    2OCB    C97  144   3.035   1.375  -0.103
    2OCB    C98  145   3.280   0.783  -0.161
    2OCB    C99  146   3.121   0.652   0.424
    2OCB      C  147   2.874   1.301   0.384
    2OCB     H1  148   3.948   1.200   0.343
    2OCB     H2  149   3.728   0.927  -0.009
    2OCB     H3  150   3.912   1.340  -0.002
    2OCB     H4  151   3.607   1.191   0.024
    2OCB     H5  152   3.874   1.464   0.339
    2OCB     H6  153   3.506   1.540   0.015
    2OCB     H7  154   3.603   1.710   0.446
    2OCB     H8  155   3.357   1.469   0.325
    2OCB     H9  156   3.916   0.825   0.413
    2OCB    H10  157   3.269   1.424   0.620
    2OCB    H11  158   3.504   0.821   0.614
    2OCB    H12  159   3.390   1.118   0.570
    2OCB    H13  160   3.876   1.154   0.594
    2OCB    H14  161   3.761   1.412   0.609
    2OCB    H15  162   3.601   1.185   0.845
    2OCB    H16  163   3.594   0.881   0.293
    2OCB    H17  164   3.763   1.725   0.612
    2OCB    H18  165   3.860   1.595   0.547
    2OCB    H19  166   3.929   1.729   0.372
    2OCB    H20  167   3.792   1.843   0.386
    2OCB    H21  168   4.131   1.326   0.101
    2OCB    H22  169   4.081   1.378   0.247
    2OCB    H23  170   4.030   1.608   0.140
    2OCB    H24  171   4.188   1.547   0.109
    2OCB    H25  172   4.074   1.070   0.491
    2OCB    H26  173   4.049   0.928   0.596
    2OCB    H27  174   4.150   0.789   0.451
    2OCB    H28  175   4.175   0.898   0.310
    2OCB    H29  176   3.825   1.193   0.907
    2OCB    H30  177   3.867   1.287   0.756
    2OCB    H31  178   3.749   1.479   0.842
    2OCB    H32  179   3.704   1.401   0.990
    2OCB    H33  180   3.280   1.082  -0.436
    2OCB    H34  181   3.435   1.370  -0.163
    2OCB    H35  182   3.632   0.999  -0.200
    2OCB    H36  183   3.287   0.412   0.146
    2OCB    H37  184   3.498   0.618   0.447
    2OCB    H38  185   3.555   0.736   0.041
    2OCB    H39  186   2.864   0.886   0.661
    2OCB    H40  187   3.115   1.242   0.656
    2OCB    H41  188   3.285   0.847   0.692
    2OCB    H42  189   2.841   1.616   0.173
    2OCB    H43  190   3.135   1.562   0.482
    2OCB    H44  191   3.259   1.642   0.076
    2OCB    H45  192   3.396   0.328   0.630
    2OCB    H46  193   3.191   0.610   0.887
    2OCB    H47  194   3.627   0.468  -0.150
    2OCB    H48  195   3.671   0.799  -0.416
    2OCB    H49  196   2.882   1.676   0.660
    2OCB    H50  197   2.888   1.297   0.853
    2OCB    H51  198   3.210   1.805  -0.141
    2OCB    H52  199   3.359   1.509  -0.418
    2OCB    H53  200   3.086   1.281  -0.125
    2OCB    H54  201   3.016   1.380   0.005
    2OCB    H55  202   2.948   1.377  -0.168
    2OCB    H56  203   3.202   0.707  -0.151
    2OCB    H57  204   3.294   0.813  -0.057
    2OCB    H58  205   3.247   0.869  -0.219
    2OCB    H59  206   3.125   0.590   0.335
    2OCB    H60  207   3.014   0.666   0.442
    2OCB    H61  208   3.168   0.746   0.397
    2OCB    H62  209   2.981   1.287   0.371
    2OCB    H63  210   2.829   1.201   0.379
    2OCB    H64  211   2.818   1.352   0.305
    3Na+    Na+  212   2.235   1.579   1.964
    4Na+    Na+  213   1.574   3.829   3.582
    5Na+    Na+  214   0.531   0.847   0.321
    6Na+    Na+  215   1.519   2.602   3.433
    7Na+    Na+  216   1.931   3.564   2.899
    8Na+    Na+  217   0.113   1.560   1.095
    9Na+    Na+  218   3.356   0.438   1.185
   10Na+    Na+  219   0.067   1.593   3.692
   11Na+    Na+  220   3.628   2.367   3.915
   12HOH      O  221   3.901   0.305   0.820
   12HOH     H1  222   3.837   0.235   0.833
   12HOH     H2  223   3.985   0.264   0.837
   13HOH      O  224   1.308   0.422   2.416
   13HOH     H1  225   1.260   0.490   2.370
   13HOH     H2  226   1.260   0.409   2.498
   14HOH      O  227   0.069   3.284   2.418
   14HOH     H1  228   0.077   3.275   2.324
   14HOH     H2  229   0.045   3.196   2.449
   15HOH      O  230   3.761   0.566   0.654
   15HOH     H1  231   3.792   0.494   0.709
   15HOH     H2  232   3.703   0.523   0.590
   16HOH      O  233   0.928   0.619   0.875
   16HOH     H1  234   0.925   0.547   0.938
   16HOH     H2  235   0.995   0.592   0.812
   17HOH      O  236   1.652   3.253   2.277
   17HOH     H1  237   1.728   3.195   2.286
   17HOH     H2  238   1.682   3.324   2.220
   18HOH      O  239   1.172   2.270   3.317
   18HOH     H1  240   1.153   2.363   3.305
   18HOH     H2  241   1.121   2.226   3.248
   19HOH      O  242   1.944   3.981   1.899
   19HOH     H1  243   1.969   4.064   1.941
   19HOH     H2  244   1.950   4.000   1.805
   20HOH      O  245   0.685   0.025   2.592
   20HOH     H1  246   0.653   0.082   2.662
   20HOH     H2  247   0.762   0.071   2.557
   21HOH      O  248   3.098   2.602   1.952
   21HOH     H1  249   3.153   2.627   2.026
   21HOH     H2  250   3.086   2.507   1.963
   22HOH      O  251   2.776   2.799   1.204
   22HOH     H1  252   2.837   2.834   1.139
   22HOH     H2  253   2.701   2.769   1.154
   23HOH      O  254   1.903   2.237   0.556
   23HOH     H1  255   1.948   2.152   0.550
   23HOH     H2  256   1.826   2.227   0.500
   24HOH      O  257   0.378   0.193   0.726
   24HOH     H1  258   0.350   0.214   0.637
   24HOH     H2  259   0.463   0.236   0.736
   25HOH      O  260   0.251   3.683   3.856
   25HOH     H1  261   0.236   3.771   3.893
   25HOH     H2  262   0.169   3.636   3.874
   26HOH      O  263   2.584   1.168   2.782
   26HOH     H1  264   2.573   1.094   2.842
   26HOH     H2  265   2.505   1.220   2.794
   27HOH      O  266   3.024   3.909   0.095
   27HOH     H1  267   3.015   4.001   0.071
   27HOH     H2  268   3.041   3.864   0.012
   28HOH      O  269   3.762   3.422   2.615
   28HOH     H1  270   3.786   3.513   2.601
   28HOH     H2  271   3.667   3.419   2.600
   29HOH      O  272   1.539   3.897   1.943
   29HOH     H1  273   1.577   3.856   2.021
   29HOH     H2  274   1.493   3.974   1.976
   30HOH      O  275   0.811   2.724   2.782
   30HOH     H1  276   0.826   2.797   2.721
   30HOH     H2  277   0.808   2.646   2.726
   31HOH      O  278   0.933   2.941   3.971
   31HOH     H1  279   0.845   2.960   4.005
   31HOH     H2  280   0.968   3.026   3.946
   32HOH      O  281   1.002   3.072   3.457
   32HOH     H1  282   0.936   3.044   3.393
   32HOH     H2  283   1.081   3.087   3.405
   33HOH      O  284   1.476   1.036   0.289
   33HOH     H1  285   1.438   0.949   0.273
   33HOH     H2  286   1.406   1.086   0.331
   34HOH      O  287   3.938   1.727   2.687
   34HOH     H1  288   3.935   1.692   2.776
   34HOH     H2  289   3.846   1.734   2.661
   35HOH      O  290   2.487   2.716   3.668
   35HOH     H1  291   2.538   2.767   3.731
   35HOH     H2  292   2.447   2.781   3.611
   36HOH      O  293   1.485   0.859   3.977
   36HOH     H1  294   1.499   0.912   3.898
   36HOH     H2  295   1.566   0.810   3.989
   37HOH      O  296   2.578   1.474   0.254
   37HOH     H1  297   2.575   1.566   0.280
   37HOH     H2  298   2.606   1.428   0.333
   38HOH      O  299   3.851   2.440   0.046
   38HOH     H1  300   3.846   2.523   0.094
   38HOH     H2  301   3.898   2.382   0.106
   39HOH      O  302   3.004   3.264   3.537
   39HOH     H1  303   3.095   3.293   3.527
   39HOH     H2  304   2.993   3.196   3.471
   40HOH      O  305   2.384   0.993   0.247
   40HOH     H1  306   2.423   1.033   0.324
   40HOH     H2  307   2.456   0.990   0.183
   41HOH      O  308   2.499   3.346   1.331
   41HOH     H1  309   2.467   3.424   1.285
   41HOH     H2  310   2.498   3.371   1.424
   42HOH      O  311   3.396   1.998   3.444
   42HOH     H1  312   3.339   1.943   3.391
   42HOH     H2  313   3.403   1.953   3.528
   43HOH      O  314   2.184   1.701   3.946
   43HOH     H1  315   2.151   1.751   4.020
   43HOH     H2  316   2.123   1.719   3.875
   44HOH      O  317   1.592   2.149   2.177
   44HOH     H1  318   1.563   2.148   2.085
   44HOH     H2  319   1.687   2.153   2.171
   45HOH      O  320   1.720   2.699   3.344
   45HOH     H1  321   1.769   2.753   3.405
   45HOH     H2  322   1.787   2.650   3.296
   46HOH      O  323   1.212   0.956   4.005
   46HOH     H1  324   1.174   0.879   4.048
   46HOH     H2  325   1.307   0.942   4.011
   47HOH      O  326   0.271   0.985   1.594
   47HOH     H1  327   0.246   0.894   1.610
   47HOH     H2  328   0.213   1.014   1.523
   48HOH      O  329   3.625   0.363   0.448
   48HOH     H1  330   3.666   0.372   0.363
   48HOH     H2  331   3.553   0.302   0.434
   49HOH      O  332   0.992   1.880   3.608
   49HOH     H1  333   1.001   1.888   3.513
   49HOH     H2  334   1.049   1.806   3.631
   50HOH      O  335   1.572   3.231   0.936
   50HOH     H1  336   1.569   3.216   1.030
   50HOH     H2  337   1.664   3.222   0.913
   51HOH      O  338   1.010   1.686   1.322
   51HOH     H1  339   1.049   1.642   1.246
   51HOH     H2  340   0.921   1.652   1.326
   52HOH      O  341   0.956   2.867   1.756
   52HOH     H1  342   0.982   2.778   1.780
   52HOH     H2  343   1.038   2.916   1.752
   53HOH      O  344   0.448   1.918   2.869
   53HOH     H1  345   0.486   1.955   2.789
   53HOH     H2  346   0.370   1.972   2.886
   54HOH      O  347   3.739   0.133   2.000
   54HOH     H1  348   3.716   0.204   2.059
   54HOH     H2  349   3.793   0.174   1.932
   55HOH      O  350   3.488   1.226   2.572
   55HOH     H1  351   3.519   1.156   2.629
   55HOH     H2  352   3.506   1.195   2.483
   56HOH      O  353   0.857   1.489   3.039
   56HOH     H1  354   0.927   1.427   3.021
   56HOH     H2  355   0.861   1.504   3.134
   57HOH      O  356   1.824   0.756   0.211
   57HOH     H1  357   1.797   0.780   0.123
   57HOH     H2  358   1.770   0.680   0.233
   58HOH      O  359   3.803   1.732   3.390
   58HOH     H1  360   3.712   1.703   3.384
   58HOH     H2  361   3.800   1.806   3.451
   59HOH      O  362   2.516   3.933   2.121
   59HOH     H1  363   2.543   3.907   2.033
   59HOH     H2  364   2.476   3.854   2.158
   60HOH      O  365   0.967   0.352   1.025
   60HOH     H1  366   1.035   0.298   0.986
   60HOH     H2  367   0.966   0.325   1.117
   61HOH      O  368   1.847   1.764   1.485
   61HOH     H1  369   1.865   1.802   1.571
   61HOH     H2  370   1.925   1.781   1.434
   62HOH      O  371   1.505   1.828   2.502
   62HOH     H1  372   1.566   1.830   2.428
   62HOH     H2  373   1.530   1.750   2.551
   63HOH      O  374   2.676   3.014   3.460
   63HOH     H1  375   2.771   3.001   3.458
   63HOH     H2  376   2.660   3.082   3.395
   64HOH      O  377   0.196   3.563   1.602
   64HOH     H1  378   0.150   3.530   1.525
   64HOH     H2  379   0.131   3.561   1.672
   65HOH      O  380   3.732   0.040   2.804
   65HOH     H1  381   3.772   0.058   2.719
   65HOH     H2  382   3.780  -0.036   2.837
   66HOH      O  383   0.070   3.747   3.120
   66HOH     H1  384   0.144   3.791   3.078
   66HOH     H2  385   0.043   3.680   3.056
   67HOH      O  386   0.554   1.269   2.801
   67HOH     H1  387   0.479   1.214   2.822
   67HOH     H2  388   0.551   1.340   2.865
   68HOH      O  389   1.511   3.332   2.787
   68HOH     H1  390   1.434   3.375   2.749
   68HOH     H2  391   1.566   3.310   2.712
   69HOH      O  392   1.495   1.046   2.597
   69HOH     H1  393   1.405   1.015   2.592
   69HOH     H2  394   1.497   1.122   2.539
   70HOH      O  395   1.603   3.600   1.194
   70HOH     H1  396   1.567   3.564   1.275
   70HOH     H2  397   1.681   3.547   1.177
   71HOH      O  398   2.263   1.795   2.635
   71HOH     H1  399   2.338   1.752   2.593
   71HOH     H2  400   2.189   1.772   2.580
   72HOH      O  401   1.006   1.086   1.515
   72HOH     H1  402   1.019   1.181   1.513
   72HOH     H2  403   0.980   1.063   1.426
   73HOH      O  404   2.987   0.881   2.321
   73HOH     H1  405   3.029   0.954   2.366
   73HOH     H2  406   3.021   0.803   2.365
   74HOH      O  407   2.188   0.661   0.695
   74HOH     H1  408   2.100   0.697   0.684
   74HOH     H2  409   2.246   0.737   0.688
   75HOH      O  410   0.698   0.197   1.332
   75HOH     H1  411   0.607   0.192   1.304
   75HOH     H2  412   0.718   0.110   1.366
   76HOH      O  413   2.127   2.482   2.215
   76HOH     H1  414   2.082   2.415   2.267
   76HOH     H2  415   2.060   2.518   2.158
   77HOH      O  416   3.894   0.480   2.237
   77HOH     H1  417   3.927   0.508   2.322
   77HOH     H2  418   3.890   0.561   2.185
   78HOH      O  419   2.386   3.725   2.297
   78HOH     H1  420   2.307   3.670   2.296
   78HOH     H2  421   2.422   3.713   2.384
   79HOH      O  422   1.311   0.860   2.292
   79HOH     H1  423   1.343   0.891   2.207
   79HOH     H2  424   1.371   0.790   2.316
   80HOH      O  425   1.800   0.822   1.290
   80HOH     H1  426   1.837   0.904   1.256
   80HOH     H2  427   1.778   0.772   1.211
   81HOH      O  428   3.945   2.030   2.401
   81HOH     H1  429   4.005   2.009   2.329
   81HOH     H2  430   3.863   2.052   2.357
   82HOH      O  431   3.987   1.666   2.117
   82HOH     H1  432   4.013   1.631   2.202
   82HOH     H2  433   4.048   1.627   2.055
   83HOH      O  434   2.126   0.923   1.228
   83HOH     H1  435   2.061   0.993   1.220
   83HOH     H2  436   2.103   0.861   1.160
   84HOH      O  437   3.998   0.418   3.927
   84HOH     H1  438   3.940   0.400   4.002
   84HOH     H2  439   3.939   0.429   3.853
   85HOH      O  440   2.224   2.024   2.015
   85HOH     H1  441   2.179   2.108   2.025
   85HOH     H2  442   2.304   2.033   2.067
   86HOH      O  443   3.719   0.543   2.737
   86HOH     H1  444   3.747   0.471   2.680
   86HOH     H2  445   3.642   0.509   2.782
   87HOH      O  446   0.741   0.204   0.094
   87HOH     H1  447   0.687   0.241   0.024
   87HOH     H2  448   0.827   0.191   0.054
   88HOH      O  449   2.946   2.467   0.088
   88HOH     H1  450   2.866   2.435   0.128
   88HOH     H2  451   2.998   2.389   0.072
   89HOH      O  452   0.928   3.686   0.549
   89HOH     H1  453   0.857   3.625   0.568
   89HOH     H2  454   0.888   3.751   0.492
   90HOH      O  455   3.489   2.086   1.174
   90HOH     H1  456   3.432   2.010   1.164
   90HOH     H2  457   3.572   2.058   1.136
   91HOH      O  458   1.447   2.620   3.908
   91HOH     H1  459   1.369   2.577   3.943
   91HOH     H2  460   1.519   2.562   3.933
   92HOH      O  461   0.172   0.995   1.345
   92HOH     H1  462   0.211   0.948   1.271
   92HOH     H2  463   0.102   1.048   1.305
   93HOH      O  464   3.240   2.504   3.085
   93HOH     H1  465   3.179   2.515   3.158
   93HOH     H2  466   3.320   2.547   3.114
   94HOH      O  467   0.237   2.863   2.094
   94HOH     H1  468   0.149   2.877   2.060
   94HOH     H2  469   0.294   2.910   2.034
   95HOH      O  470   2.731   2.006   3.420
   95HOH     H1  471   2.689   2.058   3.489
   95HOH     H2  472   2.817   1.984   3.456
   96HOH      O  473   2.242   2.852   2.437
   96HOH     H1  474   2.272   2.763   2.453
   96HOH     H2  475   2.168   2.863   2.496
   97HOH      O  476   3.512   0.215   3.063
   97HOH     H1  477   3.597   0.243   3.028
   97HOH     H2  478   3.523   0.121   3.081
   98HOH      O  479   1.818   1.705   2.601
   98HOH     H1  480   1.879   1.672   2.536
   98HOH     H2  481   1.872   1.723   2.678
   99HOH      O  482   2.344   0.870   0.673
   99HOH     H1  483   2.435   0.870   0.641
   99HOH     H2  484   2.313   0.959   0.656
  100HOH      O  485   0.933   2.874   3.255
  100HOH     H1  486   0.994   2.848   3.325
  100HOH     H2  487   0.970   2.835   3.176
  101HOH      O  488   1.997   2.054   3.544
  101HOH     H1  489   2.059   2.110   3.591
  101HOH     H2  490   2.050   2.010   3.478
  102HOH      O  491   2.999   3.228   1.157
  102HOH     H1  492   3.018   3.216   1.064
  102HOH     H2  493   2.904   3.219   1.163
  103HOH      O  494   3.107   0.702   2.488
  103HOH     H1  495   3.191   0.714   2.534
  103HOH     H2  496   3.055   0.647   2.547
  104HOH      O  497   1.638   0.906   3.729
  104HOH     H1  498   1.678   0.826   3.764
  104HOH     H2  499   1.710   0.968   3.723
  105HOH      O  500   3.402   1.782   2.793
  105HOH     H1  501   3.383   1.815   2.881
  105HOH     H2  502   3.332   1.718   2.777
  106HOH      O  503   0.710   2.987   1.662
  106HOH     H1  504   0.788   2.955   1.707
  106HOH     H2  505   0.717   3.083   1.668
  107HOH      O  506   1.848   2.785   1.923
  107HOH     H1  507   1.838   2.817   2.013
  107HOH     H2  508   1.941   2.765   1.916
  108HOH      O  509   0.981   3.222   2.908
  108HOH     H1  510   0.993   3.275   2.986
  108HOH     H2  511   0.889   3.236   2.884
  109HOH      O  512   1.389   1.950   0.391
  109HOH     H1  513   1.483   1.961   0.379
  109HOH     H2  514   1.379   1.923   0.482
  110HOH      O  515   0.173   0.111   1.986
  110HOH     H1  516   0.166   0.190   2.040
  110HOH     H2  517   0.252   0.067   2.017
  111HOH      O  518   1.747   2.675   0.856
  111HOH     H1  519   1.686   2.695   0.785
  111HOH     H2  520   1.713   2.723   0.931
  112HOH      O  521   1.132   1.760   0.838
  112HOH     H1  522   1.194   1.826   0.869
  112HOH     H2  523   1.080   1.738   0.915
  113HOH      O  524   1.680   3.143   3.264
  113HOH     H1  525   1.770   3.175   3.263
  113HOH     H2  526   1.642   3.175   3.182
  114HOH      O  527   2.708   3.960   3.187
  114HOH     H1  528   2.777   3.963   3.120
  114HOH     H2  529   2.650   3.889   3.158
  115HOH      O  530   1.826   2.891   3.120
  115HOH     H1  531   1.791   2.853   3.201
  115HOH     H2  532   1.781   2.975   3.112
  116HOH      O  533   2.640   1.933   0.329
  116HOH     H1  534   2.672   1.993   0.262
  116HOH     H2  535   2.637   1.986   0.409
  117HOH      O  536   1.910   3.301   2.577
  117HOH     H1  537   1.919   3.394   2.555
  117HOH     H2  538   1.997   3.264   2.562
  118HOH      O  539   3.422   3.270   1.621
  118HOH     H1  540   3.478   3.260   1.699
  118HOH     H2  541   3.463   3.213   1.555
  119HOH      O  542   2.974   3.370   0.740
  119HOH     H1  543   3.051   3.335   0.785
  119HOH     H2  544   2.976   3.464   0.758
  120HOH      O  545   2.576   2.421   3.328
  120HOH     H1  546   2.596   2.331   3.302
  120HOH     H2  547   2.492   2.414   3.375
  121HOH      O  548   1.598   1.561   2.613
  121HOH     H1  549   1.605   1.535   2.705
  121HOH     H2  550   1.669   1.624   2.601
  122HOH      O  551   2.896   1.159   2.570
  122HOH     H1  552   2.936   1.180   2.486
  122HOH     H2  553   2.833   1.090   2.550
  123HOH      O  554   1.513   2.326   2.664
  123HOH     H1  555   1.549   2.243   2.695
  123HOH     H2  556   1.432   2.338   2.715
  124HOH      O  557   1.071   2.963   2.793
  124HOH     H1  558   1.162   2.983   2.813
  124HOH     H2  559   1.023   3.041   2.820
  125HOH      O  560   0.326   0.879   2.602
  125HOH     H1  561   0.252   0.940   2.598
  125HOH     H2  562   0.395   0.923   2.552
  126HOH      O  563   2.632   2.068   2.308
  126HOH     H1  564   2.709   2.098   2.260
  126HOH     H2  565   2.633   1.972   2.297
  127HOH      O  566   3.925   3.551   0.392
  127HOH     H1  567   3.877   3.580   0.470
  127HOH     H2  568   3.882   3.469   0.367
  128HOH      O  569   3.463   2.850   2.439
  128HOH     H1  570   3.483   2.943   2.428
  128HOH     H2  571   3.374   2.849   2.475
  129HOH      O  572   2.835   0.746   0.905
  129HOH     H1  573   2.836   0.788   0.819
  129HOH     H2  574   2.867   0.814   0.965
  130HOH      O  575   2.569   3.213   2.829
  130HOH     H1  576   2.507   3.265   2.880
  130HOH     H2  577   2.514   3.150   2.783
  131HOH      O  578   2.497   0.479   2.775
  131HOH     H1  579   2.486   0.398   2.724
  131HOH     H2  580   2.556   0.454   2.846
  132HOH      O  581   2.903   3.622   0.784
  132HOH     H1  582   2.935   3.688   0.845
  132HOH     H2  583   2.835   3.666   0.734
  133HOH      O  584   2.273   0.201   3.359
  133HOH     H1  585   2.309   0.139   3.422
  133HOH     H2  586   2.308   0.171   3.275
  134HOH      O  587   0.623   1.264   0.184
  134HOH     H1  588   0.606   1.231   0.273
  134HOH     H2  589   0.604   1.357   0.189
  135HOH      O  590   0.996   0.108   3.254
  135HOH     H1  591   1.040   0.140   3.175
  135HOH     H2  592   1.027   0.018   3.263
  136HOH      O  593   0.420   0.443   2.076
  136HOH     H1  594   0.499   0.474   2.119
  136HOH     H2  595   0.448   0.367   2.026
  137HOH      O  596   0.533   0.773   3.012
  137HOH     H1  597   0.596   0.843   3.028
  137HOH     H2  598   0.545   0.751   2.919
  138HOH      O  599   2.820   4.014   1.112
  138HOH     H1  600   2.857   4.028   1.199
  138HOH     H2  601   2.896   3.997   1.056
  139HOH      O  602   0.177   1.600   1.964
  139HOH     H1  603   0.238   1.593   2.038
  139HOH     H2  604   0.178   1.694   1.942
  140HOH      O  605   3.016   1.891   2.193
  140HOH     H1  606   2.966   1.809   2.198
  140HOH     H2  607   3.096   1.866   2.147
  141HOH      O  608   3.609   0.718   0.857
  141HOH     H1  609   3.675   0.771   0.903
  141HOH     H2  610   3.645   0.706   0.769
  142HOH      O  611   2.447   1.685   2.486
  142HOH     H1  612   2.459   1.642   2.402
  142HOH     H2  613   2.534   1.717   2.509
  143HOH      O  614   1.503   1.299   2.483
  143HOH     H1  615   1.461   1.329   2.402
  143HOH     H2  616   1.526   1.380   2.529
  144HOH      O  617   3.287   0.088   1.457
  144HOH     H1  618   3.286   0.119   1.548
  144HOH     H2  619   3.369   0.039   1.450
  145HOH      O  620   0.563   0.358   0.610
  145HOH     H1  621   0.637   0.367   0.670
  145HOH     H2  622   0.494   0.411   0.650
  146HOH      O  623   1.942   0.426   0.820
  146HOH     H1  624   1.979   0.495   0.765
  146HOH     H2  625   1.864   0.398   0.773
  147HOH      O  626   0.718   1.054   0.812
  147HOH     H1  627   0.760   0.998   0.877
  147HOH     H2  628   0.650   0.999   0.773
  148HOH      O  629   2.751   3.486   1.696
  148HOH     H1  630   2.755   3.516   1.787
  148HOH     H2  631   2.768   3.391   1.702
  149HOH      O  632   2.973   0.945   0.303
  149HOH     H1  633   2.888   0.906   0.323
  149HOH     H2  634   3.007   0.893   0.230
  150HOH      O  635   3.471   2.191   0.334
  150HOH     H1  636   3.407   2.262   0.343
  150HOH     H2  637   3.537   2.227   0.274
  151HOH      O  638   4.012   2.171   2.643
  151HOH     H1  639   4.050   2.099   2.692
  151HOH     H2  640   3.981   2.131   2.562
  152HOH      O  641   2.395   3.645   2.549
  152HOH     H1  642   2.480   3.601   2.548
  152HOH     H2  643   2.379   3.665   2.641
  153HOH      O  644   1.226   1.833   2.461
  153HOH     H1  645   1.195   1.743   2.471
  153HOH     H2  646   1.316   1.832   2.493
  154HOH      O  647   3.999   3.934   2.121
  154HOH     H1  648   3.906   3.959   2.125
  154HOH     H2  649   4.017   3.927   2.027
  155HOH      O  650   3.699   1.928   1.816
  155HOH     H1  651   3.724   2.001   1.760
  155HOH     H2  652   3.759   1.858   1.793
  156HOH      O  653   1.356   3.762   2.268
  156HOH     H1  654   1.294   3.721   2.329
  156HOH     H2  655   1.305   3.832   2.227
  157HOH      O  656   0.451   3.003   1.926
  157HOH     H1  657   0.384   2.984   1.859
  157HOH     H2  658   0.526   2.951   1.900
  158HOH      O  659   0.117   0.489   3.599
  158HOH     H1  660   0.082   0.502   3.511
  158HOH     H2  661   0.053   0.530   3.656
  159HOH      O  662   2.326   0.468   0.996
  159HOH     H1  663   2.266   0.539   1.015
  159HOH     H2  664   2.404   0.511   0.959
  160HOH      O  665   0.403   1.967   0.937
  160HOH     H1  666   0.336   2.031   0.915
  160HOH     H2  667   0.468   1.975   0.866
  161HOH      O  668   3.430   1.628   1.811
  161HOH     H1  669   3.468   1.561   1.754
  161HOH     H2  670   3.462   1.607   1.898
  162HOH      O  671   0.568   0.191   2.819
  162HOH     H1  672   0.495   0.247   2.791
  162HOH     H2  673   0.526   0.114   2.857
  163HOH      O  674   0.217   0.667   1.277
  163HOH     H1  675   0.252   0.581   1.253
  163HOH     H2  676   0.198   0.660   1.371
  164HOH      O  677   3.940   0.441   3.251
  164HOH     H1  678   3.953   0.527   3.292
  164HOH     H2  679   3.859   0.451   3.202
  165HOH      O  680   0.405   2.634   3.079
  165HOH     H1  681   0.418   2.699   3.009
  165HOH     H2  682   0.319   2.596   3.059
  166HOH      O  683   3.369   3.676   0.190
  166HOH     H1  684   3.276   3.666   0.171
  166HOH     H2  685   3.378   3.768   0.218
  167HOH      O  686   1.172   1.544   1.138
  167HOH     H1  687   1.165   1.465   1.084
  167HOH     H2  688   1.260   1.577   1.121
  168HOH      O  689   0.311   1.783   1.411
  168HOH     H1  690   0.354   1.805   1.328
  168HOH     H2  691   0.359   1.706   1.442
  169HOH      O  692   3.729   0.385   1.448
  169HOH     H1  693   3.684   0.395   1.531
  169HOH     H2  694   3.799   0.322   1.466
  170HOH      O  695   2.259   1.929   3.697
  170HOH     H1  696   2.255   2.024   3.708
  170HOH     H2  697   2.178   1.897   3.737
  171HOH      O  698   2.810   2.440   2.464
  171HOH     H1  699   2.725   2.469   2.432
  171HOH     H2  700   2.812   2.467   2.556
  172HOH      O  701   2.776   2.436   2.764
  172HOH     H1  702   2.845   2.403   2.822
  172HOH     H2  703   2.794   2.530   2.756
  173HOH      O  704   1.839   2.392   1.537
  173HOH     H1  705   1.917   2.447   1.529
  173HOH     H2  706   1.791   2.406   1.455
  174HOH      O  707   2.985   0.292   2.987
  174HOH     H1  708   2.991   0.196   2.986
  174HOH     H2  709   3.065   0.320   3.031
  175HOH      O  710   0.440   3.977   0.548
  175HOH     H1  711   0.428   4.040   0.477
  175HOH     H2  712   0.414   4.025   0.627
  176HOH      O  713   0.741   1.156   1.289
  176HOH     H1  714   0.714   1.242   1.258
  176HOH     H2  715   0.825   1.140   1.247
  177HOH      O  716   1.546   1.516   2.222
  177HOH     H1  717   1.556   1.560   2.307
  177HOH     H2  718   1.619   1.549   2.170
  178HOH      O  719   2.603   2.899   3.936
  178HOH     H1  720   2.664   2.865   3.871
  178HOH     H2  721   2.607   2.836   4.008
  179HOH      O  722   3.937   1.045   1.484
  179HOH     H1  723   3.951   0.952   1.469
  179HOH     H2  724   3.863   1.069   1.428
  180HOH      O  725   0.143   2.884   3.059
  180HOH     H1  726   0.106   2.797   3.074
  180HOH     H2  727   0.198   2.900   3.135
  181HOH      O  728   0.040   1.335   0.553
  181HOH     H1  729   0.117   1.281   0.571
  181HOH     H2  730   0.069   1.425   0.570
  182HOH      O  731   1.853   0.863   2.577
  182HOH     H1  732   1.898   0.781   2.596
  182HOH     H2  733   1.857   0.872   2.482
  183HOH      O  734   3.506   3.516   2.631
  183HOH     H1  735   3.475   3.551   2.714
  183HOH     H2  736   3.472   3.577   2.565
  184HOH      O  737   3.478   2.231   1.654
  184HOH     H1  738   3.568   2.261   1.669
  184HOH     H2  739   3.488   2.144   1.615
  185HOH      O  740   3.749   2.515   1.923
  185HOH     H1  741   3.717   2.426   1.937
  185HOH     H2  742   3.681   2.557   1.871
  186HOH      O  743   3.537   1.257   2.071
  186HOH     H1  744   3.565   1.349   2.071
  186HOH     H2  745   3.441   1.262   2.079
  187HOH      O  746   1.139   3.674   2.413
  187HOH     H1  747   1.117   3.655   2.505
  187HOH     H2  748   1.063   3.722   2.380
  188HOH      O  749   1.105   3.403   0.552
  188HOH     H1  750   1.059   3.323   0.578
  188HOH     H2  751   1.039   3.472   0.555
  189HOH      O  752   3.248   3.162   3.858
  189HOH     H1  753   3.184   3.220   3.900
  189HOH     H2  754   3.217   3.074   3.877
  190HOH      O  755   2.207   3.943   0.571
  190HOH     H1  756   2.249   3.947   0.485
  190HOH     H2  757   2.178   3.852   0.579
  191HOH      O  758   0.507   3.469   0.724
  191HOH     H1  759   0.434   3.529   0.743
  191HOH     H2  760   0.470   3.382   0.737
  192HOH      O  761   0.076   3.701   2.714
  192HOH     H1  762   0.006   3.722   2.776
  192HOH     H2  763   0.033   3.652   2.644
  193HOH      O  764   1.115   2.128   3.549
  193HOH     H1  765   1.100   2.153   3.458
  193HOH     H2  766   1.098   2.034   3.551
  194HOH      O  767   3.959   0.253   1.510
  194HOH     H1  768   4.011   0.201   1.449
  194HOH     H2  769   4.024   0.306   1.557
  195HOH      O  770   0.423   0.116   0.326
  195HOH     H1  771   0.391   0.099   0.237
  195HOH     H2  772   0.356   0.174   0.364
  196HOH      O  773   3.367   0.708   1.454
  196HOH     H1  774   3.428   0.652   1.406
  196HOH     H2  775   3.327   0.763   1.388
  197HOH      O  776   1.918   1.952   2.022
  197HOH     H1  777   1.924   2.046   2.009
  197HOH     H2  778   1.927   1.940   2.117
  198HOH      O  779   0.879   3.717   1.619
  198HOH     H1  780   0.950   3.700   1.556
  198HOH     H2  781   0.832   3.634   1.625
  199HOH      O  782   2.225   1.678   3.404
  199HOH     H1  783   2.215   1.720   3.319
  199HOH     H2  784   2.310   1.708   3.436
  200HOH      O  785   3.869   3.279   0.336
  200HOH     H1  786   3.804   3.229   0.385
  200HOH     H2  787   3.896   3.220   0.265
  201HOH      O  788   2.093   3.419   2.817
  201HOH     H1  789   2.188   3.409   2.808
  201HOH     H2  790   2.056   3.339   2.779
  202HOH      O  791   1.623   2.190   3.023
  202HOH     H1  792   1.631   2.126   3.093
  202HOH     H2  793   1.596   2.139   2.947
  203HOH      O  794   2.427   1.692   1.902
  203HOH     H1  795   2.453   1.724   1.816
  203HOH     H2  796   2.463   1.757   1.963
  204HOH      O  797   3.745   1.075   3.461
  204HOH     H1  798   3.764   1.041   3.373
  204HOH     H2  799   3.679   1.016   3.497
  205HOH      O  800   1.898   2.858   1.417
  205HOH     H1  801   1.859   2.872   1.504
  205HOH     H2  802   1.975   2.804   1.435
  206HOH      O  803   0.746   1.448   1.908
  206HOH     H1  804   0.792   1.418   1.830
  206HOH     H2  805   0.772   1.539   1.918
  207HOH      O  806   0.032   1.089   2.923
  207HOH     H1  807   0.117   1.112   2.887
  207HOH     H2  808   0.026   0.994   2.912
  208HOH      O  809   0.691   3.650   2.480
  208HOH     H1  810   0.627   3.701   2.431
  208HOH     H2  811   0.704   3.700   2.561
  209HOH      O  812   0.213   3.733   0.712
  209HOH     H1  813   0.237   3.796   0.644
  209HOH     H2  814   0.235   3.648   0.674
  210HOH      O  815   3.547   2.577   2.430
  210HOH     H1  816   3.602   2.562   2.353
  210HOH     H2  817   3.532   2.671   2.431
  211HOH      O  818   3.664   0.823   1.234
  211HOH     H1  819   3.584   0.785   1.199
  211HOH     H2  820   3.727   0.751   1.236
  212HOH      O  821   2.485   1.376   3.249
  212HOH     H1  822   2.482   1.282   3.263
  212HOH     H2  823   2.396   1.400   3.222
  213HOH      O  824   1.632   1.458   1.598
  213HOH     H1  825   1.594   1.514   1.666
  213HOH     H2  826   1.645   1.516   1.523
  214HOH      O  827   3.757   2.580   0.730
  214HOH     H1  828   3.766   2.546   0.819
  214HOH     H2  829   3.794   2.512   0.675
  215HOH      O  830   1.169   0.503   0.759
  215HOH     H1  831   1.195   0.512   0.851
  215HOH     H2  832   1.248   0.473   0.715
  216HOH      O  833   2.898   3.119   2.407
  216HOH     H1  834   2.815   3.160   2.430
  216HOH     H2  835   2.875   3.057   2.337
  217HOH      O  836   0.542   1.281   1.933
  217HOH     H1  837   0.616   1.341   1.922
  217HOH     H2  838   0.484   1.325   1.995
  218HOH      O  839   0.644   0.271   2.210
  218HOH     H1  840   0.594   0.299   2.287
  218HOH     H2  841   0.710   0.339   2.198
  219HOH      O  842   2.247   0.979   1.459
  219HOH     H1  843   2.213   0.956   1.372
  219HOH     H2  844   2.168   0.992   1.512
  220HOH      O  845   3.241   3.346   0.806
  220HOH     H1  846   3.219   3.265   0.760
  220HOH     H2  847   3.250   3.320   0.898
  221HOH      O  848   1.479   0.020   1.582
  221HOH     H1  849   1.481   0.069   1.499
  221HOH     H2  850   1.498   0.086   1.649
  222HOH      O  851   1.229   3.923   2.686
  222HOH     H1  852   1.309   3.909   2.634
  222HOH     H2  853   1.260   3.936   2.775
  223HOH      O  854   2.925   0.659   1.723
  223HOH     H1  855   2.974   0.590   1.766
  223HOH     H2  856   2.989   0.700   1.664
  224HOH      O  857   3.564   3.690   0.671
  224HOH     H1  858   3.557   3.597   0.692
  224HOH     H2  859   3.478   3.726   0.695
  225HOH      O  860   2.216   0.407   0.654
  225HOH     H1  861   2.193   0.486   0.702
  225HOH     H2  862   2.217   0.338   0.720
  226HOH      O  863   0.607   3.856   1.831
  226HOH     H1  864   0.636   3.938   1.791
  226HOH     H2  865   0.556   3.813   1.763
  227HOH      O  866   1.044   1.486   0.114
  227HOH     H1  867   0.965   1.461   0.160
  227HOH     H2  868   1.104   1.412   0.128
  228HOH      O  869   0.630   1.178   2.345
  228HOH     H1  870   0.648   1.166   2.439
  228HOH     H2  871   0.620   1.089   2.312
  229HOH      O  872   2.914   1.268   2.069
  229HOH     H1  873   2.921   1.207   2.143
  229HOH     H2  874   2.916   1.212   1.992
  230HOH      O  875   3.415   1.073   0.230
  230HOH     H1  876   3.333   1.094   0.274
  230HOH     H2  877   3.482   1.119   0.280
  231HOH      O  878   2.303   1.053   2.398
  231HOH     H1  879   2.326   0.968   2.362
  231HOH     H2  880   2.368   1.069   2.466
  232HOH      O  881   3.602   3.517   0.241
  232HOH     H1  882   3.531   3.581   0.230
  232HOH     H2  883   3.678   3.559   0.202
  233HOH      O  884   2.884   2.816   0.090
  233HOH     H1  885   2.914   2.853   0.173
  233HOH     H2  886   2.815   2.754   0.116
  234HOH      O  887   3.363   2.830   3.660
  234HOH     H1  888   3.426   2.901   3.651
  234HOH     H2  889   3.391   2.765   3.595
  235HOH      O  890   2.725   2.155   1.571
  235HOH     H1  891   2.645   2.102   1.568
  235HOH     H2  892   2.788   2.107   1.518
  236HOH      O  893   1.178   0.624   1.752
  236HOH     H1  894   1.121   0.701   1.742
  236HOH     H2  895   1.213   0.631   1.841
  237HOH      O  896   1.843   1.363   1.794
  237HOH     H1  897   1.758   1.394   1.762
  237HOH     H2  898   1.875   1.305   1.725
  238HOH      O  899   1.977   3.157   2.879
  238HOH     H1  900   1.962   3.148   2.785
  238HOH     H2  901   2.031   3.082   2.902
  239HOH      O  902   3.571   3.965   1.871
  239HOH     H1  903   3.621   4.036   1.911
  239HOH     H2  904   3.576   3.894   1.935
  240HOH      O  905   2.847   4.002   2.958
  240HOH     H1  906   2.766   3.991   2.908
  240HOH     H2  907   2.916   3.991   2.893
  241HOH      O  908   2.287   1.398   1.609
  241HOH     H1  909   2.364   1.388   1.666
  241HOH     H2  910   2.239   1.316   1.620
  242HOH      O  911   3.306   3.821   3.814
  242HOH     H1  912   3.368   3.765   3.861
  242HOH     H2  913   3.220   3.794   3.846
  243HOH      O  914   2.205   0.257   0.879
  243HOH     H1  915   2.111   0.245   0.893
  243HOH     H2  916   2.223   0.346   0.911
  244HOH      O  917   1.400   3.485   2.157
  244HOH     H1  918   1.324   3.542   2.142
  244HOH     H2  919   1.442   3.521   2.235
  245HOH      O  920   0.109   2.621   1.790
  245HOH     H1  921   0.109   2.632   1.695
  245HOH     H2  922   0.175   2.683   1.821
  246HOH      O  923   3.949   3.735   2.295
  246HOH     H1  924   3.987   3.822   2.282
  246HOH     H2  925   4.024   3.678   2.312
  247HOH      O  926   4.051   3.859   4.000
  247HOH     H1  927   4.034   3.792   4.066
  247HOH     H2  928   3.964   3.880   3.965
  248HOH      O  929   0.210   3.534   1.004
  248HOH     H1  930   0.269   3.467   1.037
  248HOH     H2  931   0.222   3.608   1.062
  249HOH      O  932   1.669   1.851   2.272
  249HOH     H1  933   1.698   1.796   2.199
  249HOH     H2  934   1.654   1.937   2.231
  250HOH      O  935   1.335   0.859   1.954
  250HOH     H1  936   1.297   0.931   2.003
  250HOH     H2  937   1.288   0.781   1.984
  251HOH      O  938   0.823   0.855   0.997
  251HOH     H1  939   0.765   0.823   1.065
  251HOH     H2  940   0.857   0.776   0.954
  252HOH      O  941   0.746   2.528   1.190
  252HOH     H1  942   0.738   2.440   1.228
  252HOH     H2  943   0.840   2.538   1.172
  253HOH      O  944   3.505   1.860   1.995
  253HOH     H1  945   3.567   1.810   2.048
  253HOH     H2  946   3.559   1.907   1.932
  254HOH      O  947   0.704   0.114   0.356
  254HOH     H1  948   0.704   0.160   0.272
  254HOH     H2  949   0.613   0.089   0.370
  255HOH      O  950   3.890   2.733   3.385
  255HOH     H1  951   3.874   2.822   3.356
  255HOH     H2  952   3.859   2.731   3.476
  256HOH      O  953   1.340   1.626   3.651
  256HOH     H1  954   1.308   1.595   3.735
  256HOH     H2  955   1.407   1.563   3.625
  257HOH      O  956   1.783   3.305   3.793
  257HOH     H1  957   1.779   3.286   3.887
  257HOH     H2  958   1.810   3.397   3.789
  258HOH      O  959   2.432   0.423   1.395
  258HOH     H1  960   2.454   0.341   1.352
  258HOH     H2  961   2.482   0.489   1.347
  259HOH      O  962   2.564   1.004   3.818
  259HOH     H1  963   2.589   1.096   3.814
  259HOH     H2  964   2.642   0.957   3.787
  260HOH      O  965   2.020   2.720   3.191
  260HOH     H1  966   2.072   2.666   3.131
  260HOH     H2  967   1.973   2.780   3.133
  261HOH      O  968   2.731   1.870   0.840
  261HOH     H1  969   2.778   1.793   0.875
  261HOH     H2  970   2.649   1.834   0.807
  262HOH      O  971   2.076   0.183   0.546
  262HOH     H1  972   2.141   0.252   0.535
  262HOH     H2  973   2.127   0.104   0.561
  263HOH      O  974   0.419   3.213   0.749
  263HOH     H1  975   0.442   3.152   0.679
  263HOH     H2  976   0.326   3.198   0.764
  264HOH      O  977   3.254   3.456   2.160
  264HOH     H1  978   3.245   3.416   2.246
  264HOH     H2  979   3.348   3.468   2.149
  265HOH      O  980   1.161   1.627   1.556
  265HOH     H1  981   1.130   1.660   1.471
  265HOH     H2  982   1.256   1.637   1.552
  266HOH      O  983   1.338   0.353   1.748
  266HOH     H1  984   1.393   0.374   1.673
  266HOH     H2  985   1.353   0.425   1.809
  267HOH      O  986   1.825   0.317   0.440
  267HOH     H1  987   1.891   0.386   0.439
  267HOH     H2  988   1.876   0.236   0.445
  268HOH      O  989   3.511   1.928   2.349
  268HOH     H1  990   3.472   1.942   2.435
  268HOH     H2  991   3.595   1.885   2.367
  269HOH      O  992   2.271   0.074   1.742
  269HOH     H1  993   2.336   0.071   1.671
  269HOH     H2  994   2.203   0.012   1.715
  270HOH      O  995   1.634   0.559   1.262
  270HOH     H1  996   1.684   0.501   1.319
  270HOH     H2  997   1.647   0.524   1.174
  271HOH      O  998   1.160   3.121   0.349
  271HOH     H1  999   1.213   3.078   0.416
  271HOH     H2 1000   1.215   3.120   0.270
  272HOH      O 1001   1.251   0.165   3.050
  272HOH     H1 1002   1.234   0.234   3.114
  272HOH     H2 1003   1.290   0.211   2.976
  273HOH      O 1004   3.159   0.944   1.750
  273HOH     H1 1005   3.248   0.913   1.733
  273HOH     H2 1006   3.147   0.931   1.845
  274HOH      O 1007   0.646   2.900   2.152
  274HOH     H1 1008   0.572   2.958   2.169
  274HOH     H2 1009   0.664   2.860   2.237
  275HOH      O 1010   2.596   1.652   3.688
  275HOH     H1 1011   2.599   1.651   3.592
  275HOH     H2 1012   2.520   1.598   3.709
  276HOH      O 1013   2.461   3.156  -0.011
  276HOH     H1 1014   2.478   3.126   0.078
  276HOH     H2 1015   2.494   3.085  -0.067
  277HOH      O 1016   2.645   1.060   0.815
  277HOH     H1 1017   2.700   1.128   0.778
  277HOH     H2 1018   2.634   0.997   0.744
  278HOH      O 1019   3.804   1.902   1.418
  278HOH     H1 1020   3.804   1.817   1.462
  278HOH     H2 1021   3.893   1.913   1.387
  279HOH      O 1022   0.066   1.389   2.963
  279HOH     H1 1023   0.146   1.375   3.013
  279HOH     H2 1024  -0.000   1.335   3.007
  280HOH      O 1025   0.932   1.994   0.042
  280HOH     H1 1026   0.920   1.899   0.043
  280HOH     H2 1027   0.947   2.017   0.134
  281HOH      O 1028   3.335   2.764   3.966
  281HOH     H1 1029   3.320   2.844   4.017
  281HOH     H2 1030   3.274   2.770   3.893
  282HOH      O 1031   0.722   2.554   0.369
  282HOH     H1 1032   0.812   2.536   0.340
  282HOH     H2 1033   0.734   2.597   0.454
  283HOH      O 1034   1.013   2.444   1.601
  283HOH     H1 1035   1.011   2.501   1.523
  283HOH     H2 1036   0.994   2.503   1.674
  284HOH      O 1037   3.360   3.887   2.634
  284HOH     H1 1038   3.330   3.823   2.570
  284HOH     H2 1039   3.352   3.844   2.718
  285HOH      O 1040   1.349   1.936   0.906
  285HOH     H1 1041   1.398   1.986   0.840
  285HOH     H2 1042   1.410   1.924   0.978
  286HOH      O 1043   2.002   1.731   3.769
  286HOH     H1 1044   1.980   1.823   3.754
  286HOH     H2 1045   1.917   1.686   3.774
  287HOH      O 1046   2.142   3.861   2.009
  287HOH     H1 1047   2.203   3.924   1.972
  287HOH     H2 1048   2.055   3.894   1.985
  288HOH      O 1049   0.667   2.318   0.149
  288HOH     H1 1050   0.730   2.373   0.196
  288HOH     H2 1051   0.721   2.250   0.108
  289HOH      O 1052   1.166   0.142   1.014
  289HOH     H1 1053   1.082   0.108   1.045
  289HOH     H2 1054   1.187   0.088   0.938
  290HOH      O 1055   3.447   0.701   1.099
  290HOH     H1 1056   3.488   0.714   1.014
  290HOH     H2 1057   3.360   0.738   1.090
  291HOH      O 1058   2.480   3.024   1.619
  291HOH     H1 1059   2.501   3.048   1.529
  291HOH     H2 1060   2.536   2.949   1.638
  292HOH      O 1061   3.199   3.460   3.230
  292HOH     H1 1062   3.240   3.389   3.179
  292HOH     H2 1063   3.199   3.428   3.320
  293HOH      O 1064   0.256   2.604   1.062
  293HOH     H1 1065   0.275   2.567   0.976
  293HOH     H2 1066   0.335   2.583   1.114
  294HOH      O 1067   3.048   2.045   2.399
  294HOH     H1 1068   3.043   1.989   2.321
  294HOH     H2 1069   3.050   1.984   2.472
  295HOH      O 1070   3.337   3.277   2.717
  295HOH     H1 1071   3.333   3.282   2.813
  295HOH     H2 1072   3.382   3.358   2.691
  296HOH      O 1073   2.464   2.215   3.875
  296HOH     H1 1074   2.383   2.265   3.863
  296HOH     H2 1075   2.520   2.243   3.803
  297HOH      O 1076   3.950   2.255   0.225
  297HOH     H1 1077   4.030   2.265   0.276
  297HOH     H2 1078   3.893   2.201   0.280
  298HOH      O 1079   0.434   3.260   2.011
  298HOH     H1 1080   0.444   3.175   1.969
  298HOH     H2 1081   0.408   3.319   1.940
  299HOH      O 1082   1.398   0.576   4.059
  299HOH     H1 1083   1.426   0.625   3.981
  299HOH     H2 1084   1.372   0.491   4.026
  300HOH      O 1085   0.267   2.052   2.417
  300HOH     H1 1086   0.174   2.064   2.439
  300HOH     H2 1087   0.268   2.043   2.322
  301HOH      O 1088   0.296   2.588   2.147
  301HOH     H1 1089   0.384   2.601   2.183
  301HOH     H2 1090   0.263   2.676   2.131
  302HOH      O 1091   0.568   3.871   2.412
  302HOH     H1 1092   0.601   3.932   2.478
  302HOH     H2 1093   0.487   3.911   2.381
  303HOH      O 1094   4.022   0.484   1.675
  303HOH     H1 1095   4.056   0.439   1.752
  303HOH     H2 1096   3.951   0.539   1.708
  304HOH      O 1097   1.899   1.128   2.591
  304HOH     H1 1098   1.939   1.134   2.505
  304HOH     H2 1099   1.876   1.035   2.601
  305HOH      O 1100   1.732   2.559   2.299
  305HOH     H1 1101   1.649   2.543   2.254
  305HOH     H2 1102   1.748   2.652   2.286
  306HOH      O 1103   3.631   1.009   2.708
  306HOH     H1 1104   3.634   0.924   2.752
  306HOH     H2 1105   3.719   1.020   2.673
  307HOH      O 1106   0.705   0.115   0.966
  307HOH     H1 1107   0.759   0.193   0.958
  307HOH     H2 1108   0.615   0.149   0.971
  308HOH      O 1109   3.015   2.405   2.957
  308HOH     H1 1110   3.099   2.447   2.937
  308HOH     H2 1111   3.035   2.311   2.954
  309HOH      O 1112   1.996   1.809   1.714
  309HOH     H1 1113   2.062   1.876   1.697
  309HOH     H2 1114   2.045   1.737   1.755
  310HOH      O 1115   2.836   2.096   2.671
  310HOH     H1 1116   2.881   2.161   2.726
  310HOH     H2 1117   2.904   2.066   2.610
  311HOH      O 1118   2.873   0.988   3.235
  311HOH     H1 1119   2.803   1.047   3.206
  311HOH     H2 1120   2.930   0.980   3.159
  312HOH      O 1121   0.704   2.753   0.998
  312HOH     H1 1122   0.782   2.701   1.016
  312HOH     H2 1123   0.633   2.706   1.041
  313HOH      O 1124   2.559   1.393   0.525
  313HOH     H1 1125   2.503   1.448   0.580
  313HOH     H2 1126   2.647   1.409   0.558
  314HOH      O 1127   1.563   3.721   0.552
  314HOH     H1 1128   1.561   3.629   0.522
  314HOH     H2 1129   1.483   3.730   0.604
  315HOH      O 1130   0.364   2.589   1.569
  315HOH     H1 1131   0.385   2.540   1.490
  315HOH     H2 1132   0.440   2.578   1.627
  316HOH      O 1133   1.796   0.907   0.453
  316HOH     H1 1134   1.818   0.997   0.430
  316HOH     H2 1135   1.777   0.864   0.370
  317HOH      O 1136   3.811   2.925   2.188
  317HOH     H1 1137   3.814   2.993   2.256
  317HOH     H2 1138   3.719   2.900   2.182
  318HOH      O 1139   1.496   0.475   1.936
  318HOH     H1 1140   1.578   0.453   1.982
  318HOH     H2 1141   1.458   0.546   1.988
  319HOH      O 1142   0.581   1.470   0.559
  319HOH     H1 1143   0.567   1.564   0.565
  319HOH     H2 1144   0.606   1.445   0.648
  320HOH      O 1145   2.379   2.601   2.148
  320HOH     H1 1146   2.297   2.572   2.188
  320HOH     H2 1147   2.362   2.597   2.053
  321HOH      O 1148   2.003   0.272   0.058
  321HOH     H1 1149   2.006   0.366   0.078
  321HOH     H2 1150   1.953   0.266  -0.023
  322HOH      O 1151   3.963   0.222   0.153
  322HOH     H1 1152   3.886   0.274   0.176
  322HOH     H2 1153   3.943   0.185   0.067
  323HOH      O 1154   3.852   3.960   3.214
  323HOH     H1 1155   3.798   4.033   3.242
  323HOH     H2 1156   3.942   3.993   3.217
  324HOH      O 1157   3.055   2.941   3.115
  324HOH     H1 1158   2.991   2.888   3.162
  324HOH     H2 1159   3.028   3.032   3.132
  325HOH      O 1160   2.107   3.313   1.317
  325HOH     H1 1161   2.118   3.407   1.327
  325HOH     H2 1162   2.033   3.291   1.374
  326HOH      O 1163   3.538   0.584   3.305
  326HOH     H1 1164   3.589   0.556   3.229
  326HOH     H2 1165   3.534   0.507   3.361
  327HOH      O 1166   2.486   2.737   2.770
  327HOH     H1 1167   2.516   2.704   2.855
  327HOH     H2 1168   2.391   2.731   2.774
  328HOH      O 1169   0.441   0.543   1.638
  328HOH     H1 1170   0.406   0.554   1.727
  328HOH     H2 1171   0.510   0.609   1.631
  329HOH      O 1172   2.030   3.910   0.011
  329HOH     H1 1173   1.955   3.937   0.064
  329HOH     H2 1174   2.106   3.946   0.056
  330HOH      O 1175   2.216   1.288   3.168
  330HOH     H1 1176   2.224   1.383   3.159
  330HOH     H2 1177   2.183   1.274   3.257
  331HOH      O 1178   0.395   3.365   1.753
  331HOH     H1 1179   0.359   3.317   1.678
  331HOH     H2 1180   0.461   3.423   1.715
  332HOH      O 1181   0.593   2.917   0.262
  332HOH     H1 1182   0.589   2.868   0.344
  332HOH     H2 1183   0.550   2.860   0.197
  333HOH      O 1184   3.952   1.619   1.299
  333HOH     H1 1185   3.931   1.543   1.244
  333HOH     H2 1186   3.883   1.620   1.366
  334HOH      O 1187   3.348   3.132   1.971
  334HOH     H1 1188   3.415   3.104   1.908
  334HOH     H2 1189   3.274   3.159   1.916
  335HOH      O 1190   1.019   3.685   0.817
  335HOH     H1 1191   1.007   3.594   0.844
  335HOH     H2 1192   0.974   3.691   0.733
  336HOH      O 1193   1.207   1.130   2.542
  336HOH     H1 1194   1.256   1.209   2.519
  336HOH     H2 1195   1.143   1.120   2.471
  337HOH      O 1196   0.256   1.955   3.479
  337HOH     H1 1197   0.252   2.032   3.421
  337HOH     H2 1198   0.250   1.880   3.420
  338HOH      O 1199   1.153   1.350   1.304
  338HOH     H1 1200   1.240   1.312   1.296
  338HOH     H2 1201   1.149   1.415   1.235
  339HOH      O 1202   2.088   0.850   3.060
  339HOH     H1 1203   2.056   0.904   2.988
  339HOH     H2 1204   2.108   0.912   3.130
  340HOH      O 1205   0.006   2.949   2.828
  340HOH     H1 1206  -0.063   2.944   2.894
  340HOH     H2 1207   0.085   2.921   2.873
  341HOH      O 1208   2.977   0.214   3.278
  341HOH     H1 1209   2.978   0.127   3.237
  341HOH     H2 1210   2.891   0.249   3.256
  342HOH      O 1211   3.767   2.762   0.045
  342HOH     H1 1212   3.704   2.795  -0.020
  342HOH     H2 1213   3.850   2.760  -0.001
  343HOH      O 1214   0.130   0.572   0.764
  343HOH     H1 1215   0.088   0.618   0.837
  343HOH     H2 1216   0.224   0.586   0.778
  344HOH      O 1217   2.510   3.426   0.035
  344HOH     H1 1218   2.484   3.349  -0.015
  344HOH     H2 1219   2.432   3.481   0.035
  345HOH      O 1220   2.772   0.997   2.151
  345HOH     H1 1221   2.765   0.949   2.069
  345HOH     H2 1222   2.823   0.941   2.208
  346HOH      O 1223   0.249   0.454   0.224
  346HOH     H1 1224   0.217   0.467   0.134
  346HOH     H2 1225   0.260   0.359   0.232
  347HOH      O 1226   3.079   2.177   3.416
  347HOH     H1 1227   3.150   2.231   3.383
  347HOH     H2 1228   3.123   2.104   3.460
  348HOH      O 1229   1.043   2.517   2.543
  348HOH     H1 1230   0.962   2.560   2.515
  348HOH     H2 1231   1.109   2.550   2.483
  349HOH      O 1232   0.741   1.584   3.520
  349HOH     H1 1233   0.753   1.650   3.452
  349HOH     H2 1234   0.661   1.538   3.496
  350HOH      O 1235   3.226   1.837   3.322
  350HOH     H1 1236   3.201   1.754   3.364
  350HOH     H2 1237   3.173   1.840   3.243
  351HOH      O 1238   2.564   2.047   0.042
  351HOH     H1 1239   2.521   2.109  -0.016
  351HOH     H2 1240   2.497   1.982   0.062
  352HOH      O 1241   3.483   3.670   3.980
  352HOH     H1 1242   3.572   3.636   3.994
  352HOH     H2 1243   3.445   3.671   4.068
  353HOH      O 1244   3.129   0.559   1.192
  353HOH     H1 1245   3.107   0.619   1.120
  353HOH     H2 1246   3.088   0.599   1.269
  354HOH      O 1247   0.826   2.261   1.732
  354HOH     H1 1248   0.826   2.236   1.825
  354HOH     H2 1249   0.915   2.291   1.715
  355HOH      O 1250   0.075   3.228   2.152
  355HOH     H1 1251   0.113   3.287   2.087
  355HOH     H2 1252  -0.017   3.253   2.156
  356HOH      O 1253   2.687   3.536   0.979
  356HOH     H1 1254   2.760   3.518   0.920
  356HOH     H2 1255   2.619   3.473   0.955
  357HOH      O 1256   3.783   2.027   2.965
  357HOH     H1 1257   3.730   1.993   3.037
  357HOH     H2 1258   3.855   1.964   2.956
  358HOH      O 1259   3.697   0.137   0.939
  358HOH     H1 1260   3.616   0.139   0.888
  358HOH     H2 1261   3.741   0.057   0.911
  359HOH      O 1262   1.991   2.542   2.555
  359HOH     H1 1263   2.042   2.469   2.522
  359HOH     H2 1264   1.900   2.517   2.538
  360HOH      O 1265   3.567   2.036   1.430
  360HOH     H1 1266   3.527   2.045   1.344
  360HOH     H2 1267   3.624   1.959   1.423
  361HOH      O 1268   1.205   0.077   3.667
  361HOH     H1 1269   1.171   0.165   3.652
  361HOH     H2 1270   1.278   0.089   3.728
  362HOH      O 1271   0.172   3.299   1.242
  362HOH     H1 1272   0.258   3.326   1.210
  362HOH     H2 1273   0.140   3.375   1.291
  363HOH      O 1274   2.719   0.322   3.899
  363HOH     H1 1275   2.756   0.241   3.863
  363HOH     H2 1276   2.790   0.361   3.950
  364HOH      O 1277   3.938   0.700   3.101
  364HOH     H1 1278   3.923   0.699   3.196
  364HOH     H2 1279   4.017   0.648   3.089
  365HOH      O 1280   2.733   0.861   1.905
  365HOH     H1 1281   2.757   0.799   1.836
  365HOH     H2 1282   2.643   0.838   1.928
  366HOH      O 1283   1.591   3.433   0.154
  366HOH     H1 1284   1.624   3.523   0.163
  366HOH     H2 1285   1.637   3.398   0.078
  367HOH      O 1286   3.975   2.115   3.695
  367HOH     H1 1287   3.919   2.115   3.773
  367HOH     H2 1288   3.931   2.057   3.633
  368HOH      O 1289   0.253   0.277   0.495
  368HOH     H1 1290   0.158   0.265   0.500
  368HOH     H2 1291   0.268   0.368   0.521
  369HOH      O 1292   1.762   2.425   2.524
  369HOH     H1 1293   1.718   2.477   2.457
  369HOH     H2 1294   1.691   2.381   2.571
  370HOH      O 1295   4.017   2.593   1.182
  370HOH     H1 1296   3.963   2.521   1.149
  370HOH     H2 1297   4.097   2.588   1.130
  371HOH      O 1298   3.060   0.465   1.827
  371HOH     H1 1299   3.034   0.384   1.870
  371HOH     H2 1300   3.123   0.505   1.887
  372HOH      O 1301   2.626   0.909   2.926
  372HOH     H1 1302   2.556   0.871   2.980
  372HOH     H2 1303   2.704   0.861   2.951
  373HOH      O 1304   1.809   2.794   0.440
  373HOH     H1 1305   1.874   2.834   0.382
  373HOH     H2 1306   1.822   2.700   0.428
  374HOH      O 1307   3.004   0.103   0.560
  374HOH     H1 1308   3.002   0.193   0.593
  374HOH     H2 1309   3.018   0.112   0.466
  375HOH      O 1310   2.691   0.559   1.632
  375HOH     H1 1311   2.753   0.626   1.660
  375HOH     H2 1312   2.732   0.519   1.555
  376HOH      O 1313   2.436   0.785   2.240
  376HOH     H1 1314   2.514   0.736   2.214
  376HOH     H2 1315   2.428   0.854   2.174
  377HOH      O 1316   2.811   1.643   1.535
  377HOH     H1 1317   2.873   1.676   1.469
  377HOH     H2 1318   2.842   1.554   1.553
  378HOH      O 1319   1.457   0.030   1.158
  378HOH     H1 1320   1.538  -0.020   1.151
  378HOH     H2 1321   1.423   0.033   1.069
  379HOH      O 1322   0.347   0.769   0.192
  379HOH     H1 1323   0.273   0.714   0.217
  379HOH     H2 1324   0.370   0.740   0.104
  380HOH      O 1325   1.012   0.556   1.314
  380HOH     H1 1326   0.991   0.473   1.271
  380HOH     H2 1327   1.045   0.531   1.400
  381HOH      O 1328   3.371   3.649   2.822
  381HOH     H1 1329   3.375   3.578   2.885
  381HOH     H2 1330   3.279   3.673   2.816
  382HOH      O 1331   0.466   2.891   1.222
  382HOH     H1 1332   0.463   2.921   1.130
  382HOH     H2 1333   0.393   2.938   1.263
  383HOH      O 1334   1.930   1.965   0.618
  383HOH     H1 1335   1.972   1.900   0.674
  383HOH     H2 1336   1.857   1.998   0.670
  384HOH      O 1337   0.472   3.673   2.009
  384HOH     H1 1338   0.530   3.733   1.960
  384HOH     H2 1339   0.391   3.722   2.021
  385HOH      O 1340   3.764   1.453   2.290
  385HOH     H1 1341   3.719   1.476   2.371
  385HOH     H2 1342   3.844   1.506   2.292
  386HOH      O 1343   0.882   2.492   3.648
  386HOH     H1 1344   0.815   2.498   3.716
  386HOH     H2 1345   0.942   2.424   3.680
  387HOH      O 1346   0.619   3.353   0.071
  387HOH     H1 1347   0.609   3.382  -0.020
  387HOH     H2 1348   0.664   3.424   0.115
  388HOH      O 1349   1.811   1.560   2.867
  388HOH     H1 1350   1.719   1.534   2.870
  388HOH     H2 1351   1.850   1.503   2.801
  389HOH      O 1352   2.502   0.513   3.655
  389HOH     H1 1353   2.508   0.421   3.679
  389HOH     H2 1354   2.422   0.519   3.602
  390HOH      O 1355   3.749   2.552   2.239
  390HOH     H1 1356   3.725   2.577   2.149
  390HOH     H2 1357   3.831   2.600   2.255
  391HOH      O 1358   1.238   2.116   2.735
  391HOH     H1 1359   1.292   2.040   2.758
  391HOH     H2 1360   1.156   2.078   2.704
  392HOH      O 1361   3.192   2.303   3.924
  392HOH     H1 1362   3.145   2.317   3.842
  392HOH     H2 1363   3.282   2.283   3.897
  393HOH      O 1364   2.651   3.347   0.388
  393HOH     H1 1365   2.698   3.270   0.356
  393HOH     H2 1366   2.644   3.333   0.483
  394HOH      O 1367   1.120   1.588   2.465
  394HOH     H1 1368   1.104   1.553   2.378
  394HOH     H2 1369   1.063   1.538   2.523
  395HOH      O 1370   0.148   1.866   0.273
  395HOH     H1 1371   0.070   1.866   0.218
  395HOH     H2 1372   0.206   1.930   0.232
  396HOH      O 1373   3.708   3.492   2.007
  396HOH     H1 1374   3.644   3.514   2.075
  396HOH     H2 1375   3.773   3.562   2.013
  397HOH      O 1376   3.994   2.343   0.954
  397HOH     H1 1377   3.919   2.398   0.977
  397HOH     H2 1378   4.006   2.286   1.029
  398HOH      O 1379   1.755   2.257   3.806
  398HOH     H1 1380   1.711   2.249   3.721
  398HOH     H2 1381   1.753   2.168   3.842
  399HOH      O 1382   3.173   1.589   3.439
  399HOH     H1 1383   3.216   1.534   3.373
  399HOH     H2 1384   3.187   1.541   3.522
  400HOH      O 1385   0.296   3.681   3.363
  400HOH     H1 1386   0.236   3.661   3.290
  400HOH     H2 1387   0.383   3.662   3.328
  401HOH      O 1388   1.140   3.959   0.523
  401HOH     H1 1389   1.166   3.867   0.520
  401HOH     H2 1390   1.066   3.965   0.463
  402HOH      O 1391   1.267   1.072   1.108
  402HOH     H1 1392   1.301   0.995   1.063
  402HOH     H2 1393   1.322   1.081   1.186
  403HOH      O 1394   1.068   1.875   1.115
  403HOH     H1 1395   1.160   1.850   1.109
  403HOH     H2 1396   1.051   1.882   1.209
  404HOH      O 1397   1.847   0.700   0.688
  404HOH     H1 1398   1.752   0.688   0.697
  404HOH     H2 1399   1.858   0.736   0.600
  405HOH      O 1400   1.320   0.513   3.509
  405HOH     H1 1401   1.400   0.538   3.553
  405HOH     H2 1402   1.344   0.509   3.416
  406HOH      O 1403   3.482   2.781   1.254
  406HOH     H1 1404   3.557   2.799   1.197
  406HOH     H2 1405   3.428   2.859   1.249
  407HOH      O 1406   3.411   1.186   1.335
  407HOH     H1 1407   3.452   1.227   1.259
  407HOH     H2 1408   3.372   1.258   1.384
  408HOH      O 1409   0.668   1.710   1.383
  408HOH     H1 1410   0.623   1.791   1.406
  408HOH     H2 1411   0.675   1.662   1.465
  409HOH      O 1412   2.056   2.484   1.793
  409HOH     H1 1413   2.038   2.500   1.700
  409HOH     H2 1414   2.149   2.505   1.803
  410HOH      O 1415   1.352   3.293   0.508
  410HOH     H1 1416   1.346   3.202   0.538
  410HOH     H2 1417   1.268   3.331   0.532
  411HOH      O 1418   2.413   2.866   3.439
  411HOH     H1 1419   2.334   2.907   3.406
  411HOH     H2 1420   2.481   2.890   3.375
  412HOH      O 1421   1.331   3.112   2.762
  412HOH     H1 1422   1.254   3.144   2.717
  412HOH     H2 1423   1.390   3.187   2.766
  413HOH      O 1424   1.260   2.440   1.776
  413HOH     H1 1425   1.221   2.431   1.863
  413HOH     H2 1426   1.187   2.429   1.715
  414HOH      O 1427   2.500   3.416   1.591
  414HOH     H1 1428   2.591   3.425   1.616
  414HOH     H2 1429   2.468   3.343   1.643
  415HOH      O 1430   2.464   1.052   1.064
  415HOH     H1 1431   2.517   1.035   0.987
  415HOH     H2 1432   2.385   1.000   1.051
  416HOH      O 1433   2.390   2.084   0.459
  416HOH     H1 1434   2.309   2.134   0.474
  416HOH     H2 1435   2.419   2.111   0.372
  417HOH      O 1436   1.538   0.589   3.680
  417HOH     H1 1437   1.611   0.617   3.735
  417HOH     H2 1438   1.564   0.615   3.591
  418HOH      O 1439   1.286   3.568   0.077
  418HOH     H1 1440   1.336   3.512   0.136
  418HOH     H2 1441   1.220   3.510   0.038
  419HOH      O 1442   3.376   0.098   1.063
  419HOH     H1 1443   3.441   0.036   1.031
  419HOH     H2 1444   3.395   0.179   1.017
  420HOH      O 1445   3.045   1.272   2.966
  420HOH     H1 1446   2.983   1.337   3.000
  420HOH     H2 1447   2.989   1.202   2.932
  421HOH      O 1448   4.028   3.511   3.909
  421HOH     H1 1449   3.963   3.564   3.863
  421HOH     H2 1450   4.006   3.520   4.001
  422HOH      O 1451   0.725   3.197   0.936
  422HOH     H1 1452   0.670   3.214   1.012
  422HOH     H2 1453   0.683   3.123   0.892
  423HOH      O 1454   2.894   2.805   1.971
  423HOH     H1 1455   2.812   2.777   1.931
  423HOH     H2 1456   2.941   2.724   1.990
  424HOH      O 1457   0.701   0.680   0.278
  424HOH     H1 1458   0.705   0.585   0.267
  424HOH     H2 1459   0.757   0.697   0.354
  425HOH      O 1460   0.528   2.828   3.270
  425HOH     H1 1461   0.527   2.755   3.332
  425HOH     H2 1462   0.549   2.787   3.186
  426HOH      O 1463   2.589   2.852   0.969
  426HOH     H1 1464   2.571   2.945   0.953
  426HOH     H2 1465   2.677   2.839   0.934
  427HOH      O 1466   1.965   1.793   2.880
  427HOH     H1 1467   1.984   1.839   2.962
  427HOH     H2 1468   1.905   1.723   2.906
  428HOH      O 1469   2.839   1.944   0.021
  428HOH     H1 1470   2.808   1.854   0.009
  428HOH     H2 1471   2.761   1.994   0.044
  429HOH      O 1472   1.224   3.730   1.898
  429HOH     H1 1473   1.279   3.769   1.831
  429HOH     H2 1474   1.196   3.803   1.953
  430HOH      O 1475   3.154   2.660   0.959
  430HOH     H1 1476   3.172   2.578   1.006
  430HOH     H2 1477   3.088   2.704   1.012
  431HOH      O 1478   3.260   0.562   3.213
  431HOH     H1 1479   3.346   0.605   3.217
  431HOH     H2 1480   3.218   0.586   3.296
  432HOH      O 1481   0.616   3.723   0.550
  432HOH     H1 1482   0.536   3.671   0.543
  432HOH     H2 1483   0.634   3.753   0.461
  433HOH      O 1484   0.742   2.268   1.258
  433HOH     H1 1485   0.837   2.269   1.270
  433HOH     H2 1486   0.706   2.297   1.342
  434HOH      O 1487   1.392   3.223   2.262
  434HOH     H1 1488   1.487   3.215   2.264
  434HOH     H2 1489   1.375   3.302   2.211
  435HOH      O 1490   0.065   3.858   1.376
  435HOH     H1 1491  -0.000   3.835   1.443
  435HOH     H2 1492   0.021   3.840   1.293
  436HOH      O 1493   3.132   0.478   2.303
  436HOH     H1 1494   3.174   0.549   2.351
  436HOH     H2 1495   3.050   0.464   2.350
  437HOH      O 1496   0.538   3.888   0.956
  437HOH     H1 1497   0.555   3.884   1.050
  437HOH     H2 1498   0.604   3.950   0.923
  438HOH      O 1499   2.272   3.937   1.467
  438HOH     H1 1500   2.292   3.968   1.379
  438HOH     H2 1501   2.358   3.924   1.508
  439HOH      O 1502   0.742   1.999   1.728
  439HOH     H1 1503   0.756   2.094   1.721
  439HOH     H2 1504   0.684   1.978   1.655
  440HOH      O 1505   2.102   0.419   3.131
  440HOH     H1 1506   2.121   0.505   3.169
  440HOH     H2 1507   2.066   0.438   3.045
  441HOH      O 1508   0.303   3.007   3.258
  441HOH     H1 1509   0.297   3.036   3.349
  441HOH     H2 1510   0.386   2.959   3.254
  442HOH      O 1511   0.776   1.472   1.095
  442HOH     H1 1512   0.827   1.405   1.048
  442HOH     H2 1513   0.693   1.428   1.116
  443HOH      O 1514   2.794   0.424   1.372
  443HOH     H1 1515   2.875   0.373   1.378
  443HOH     H2 1516   2.742   0.378   1.306
  444HOH      O 1517   0.347   1.117   3.398
  444HOH     H1 1518   0.380   1.105   3.309
  444HOH     H2 1519   0.283   1.188   3.391
  445HOH      O 1520   0.825   0.866   3.246
  445HOH     H1 1521   0.919   0.853   3.241
  445HOH     H2 1522   0.807   0.875   3.340
  446HOH      O 1523   1.673   2.467   1.021
  446HOH     H1 1524   1.743   2.403   1.006
  446HOH     H2 1525   1.692   2.538   0.960
  447HOH      O 1526   0.687   1.533   1.587
  447HOH     H1 1527   0.726   1.450   1.615
  447HOH     H2 1528   0.626   1.555   1.658
  448HOH      O 1529   2.033   0.777   0.449
  448HOH     H1 1530   2.036   0.858   0.501
  448HOH     H2 1531   1.979   0.799   0.374
  449HOH      O 1532   1.964   0.170   1.624
  449HOH     H1 1533   1.882   0.208   1.590
  449HOH     H2 1534   2.033   0.227   1.590
  450HOH      O 1535   2.861   1.667   1.243
  450HOH     H1 1536   2.786   1.725   1.228
  450HOH     H2 1537   2.892   1.645   1.156
  451HOH      O 1538   0.272   3.834   0.169
  451HOH     H1 1539   0.201   3.876   0.217
  451HOH     H2 1540   0.254   3.853   0.077
  452HOH      O 1541   1.850   0.236   1.223
  452HOH     H1 1542   1.818   0.288   1.296
  452HOH     H2 1543   1.943   0.222   1.241
  453HOH      O 1544   1.628   0.955   1.057
  453HOH     H1 1545   1.611   0.882   1.117
  453HOH     H2 1546   1.559   0.948   0.991
  454HOH      O 1547   2.989   2.929   0.311
  454HOH     H1 1548   2.975   2.916   0.405
  454HOH     H2 1549   3.082   2.911   0.298
  455HOH      O 1550   2.923   0.263   2.447
  455HOH     H1 1551   2.841   0.293   2.407
  455HOH     H2 1552   2.907   0.268   2.541
  456HOH      O 1553   3.725   0.500   3.104
  456HOH     H1 1554   3.684   0.435   3.048
  456HOH     H2 1555   3.753   0.569   3.044
  457HOH      O 1556   2.193   3.086   3.957
  457HOH     H1 1557   2.160   3.163   3.911
  457HOH     H2 1558   2.285   3.106   3.974
  458HOH      O 1559   2.096   2.947   3.518
  458HOH     H1 1560   2.043   2.891   3.461
  458HOH     H2 1561   2.072   2.921   3.607
  459HOH      O 1562   2.317   3.206   3.300
  459HOH     H1 1563   2.232   3.206   3.343
  459HOH     H2 1564   2.322   3.120   3.258
  460HOH      O 1565   2.200   1.614   0.607
  460HOH     H1 1566   2.174   1.686   0.665
  460HOH     H2 1567   2.274   1.649   0.557
  461HOH      O 1568   3.965   1.629   2.960
  461HOH     H1 1569   4.004   1.544   2.941
  461HOH     H2 1570   3.975   1.640   3.054
  462HOH      O 1571   1.036   1.851   0.594
  462HOH     H1 1572   0.945   1.869   0.617
  462HOH     H2 1573   1.079   1.832   0.677
  463HOH      O 1574   0.357   0.683   3.657
  463HOH     H1 1575   0.294   0.614   3.637
  463HOH     H2 1576   0.440   0.636   3.671
  464HOH      O 1577   0.897   3.323   1.327
  464HOH     H1 1578   0.929   3.328   1.237
  464HOH     H2 1579   0.972   3.291   1.377
  465HOH      O 1580   1.202   1.069   3.475
  465HOH     H1 1581   1.223   1.121   3.553
  465HOH     H2 1582   1.282   1.021   3.456
  466HOH      O 1583   0.874   3.183   2.573
  466HOH     H1 1584   0.805   3.166   2.508
  466HOH     H2 1585   0.827   3.219   2.648
  467HOH      O 1586   3.954   0.739   1.478
  467HOH     H1 1587   4.041   0.702   1.490
  467HOH     H2 1588   3.922   0.700   1.396
  468HOH      O 1589   0.254   2.691   3.752
  468HOH     H1 1590   0.322   2.733   3.699
  468HOH     H2 1591   0.274   2.598   3.747
  469HOH      O 1592   3.574   1.161   2.309
  469HOH     H1 1593   3.587   1.193   2.220
  469HOH     H2 1594   3.649   1.103   2.325
  470HOH      O 1595   2.480   0.380   1.644
  470HOH     H1 1596   2.458   0.384   1.551
  470HOH     H2 1597   2.527   0.462   1.661
  471HOH      O 1598   0.380   3.026   0.990
  471HOH     H1 1599   0.437   2.979   0.929
  471HOH     H2 1600   0.304   3.052   0.938
  472HOH      O 1601   3.440   1.889   1.712
  472HOH     H1 1602   3.532   1.918   1.718
  472HOH     H2 1603   3.436   1.813   1.770
  473HOH      O 1604   2.364   1.861   1.035
  473HOH     H1 1605   2.432   1.829   1.095
  473HOH     H2 1606   2.316   1.926   1.086
  474HOH      O 1607   1.911   2.204   2.989
  474HOH     H1 1608   1.816   2.205   2.997
  474HOH     H2 1609   1.930   2.131   2.930
  475HOH      O 1610   2.063   0.611   2.560
  475HOH     H1 1611   2.107   0.634   2.642
  475HOH     H2 1612   2.127   0.633   2.492
  476HOH      O 1613   0.755   3.101   3.577
  476HOH     H1 1614   0.751   3.066   3.488
  476HOH     H2 1615   0.840   3.143   3.583
  477HOH      O 1616   0.678   2.585   1.888
  477HOH     H1 1617   0.603   2.526   1.875
  477HOH     H2 1618   0.672   2.648   1.817
  478HOH      O 1619   1.988   3.715   3.079
  478HOH     H1 1620   2.020   3.800   3.110
  478HOH     H2 1621   1.959   3.670   3.159
  479HOH      O 1622   2.248  -0.003   1.190
  479HOH     H1 1623   2.228  -0.037   1.103
  479HOH     H2 1624   2.317   0.061   1.175
  480HOH      O 1625   2.244   0.886   0.961
  480HOH     H1 1626   2.259   0.857   0.871
  480HOH     H2 1627   2.275   0.813   1.015
  481HOH      O 1628   2.297   0.248   3.056
  481HOH     H1 1629   2.234   0.307   3.097
  481HOH     H2 1630   2.242   0.184   3.010
  482HOH      O 1631   3.243   3.931   0.313
  482HOH     H1 1632   3.240   4.022   0.342
  482HOH     H2 1633   3.172   3.924   0.249
  483HOH      O 1634   2.694   0.385   2.976
  483HOH     H1 1635   2.771   0.388   3.033
  483HOH     H2 1636   2.647   0.306   3.003
  484HOH      O 1637   2.567   0.145   0.881
  484HOH     H1 1638   2.493   0.112   0.831
  484HOH     H2 1639   2.644   0.109   0.836
  485HOH      O 1640   0.608   3.238   3.188
  485HOH     H1 1641   0.636   3.169   3.247
  485HOH     H2 1642   0.614   3.199   3.100
  486HOH      O 1643   0.829   0.476   2.635
  486HOH     H1 1644   0.825   0.459   2.729
  486HOH     H2 1645   0.876   0.401   2.599
  487HOH      O 1646   0.960   3.784   1.189
  487HOH     H1 1647   0.967   3.808   1.096
  487HOH     H2 1648   0.894   3.714   1.190
  488HOH      O 1649   3.114   2.025   0.540
  488HOH     H1 1650   3.110   2.104   0.486
  488HOH     H2 1651   3.076   1.956   0.485
  489HOH      O 1652   0.157   2.303   0.411
  489HOH     H1 1653   0.176   2.392   0.442
  489HOH     H2 1654   0.231   2.282   0.353
  490HOH      O 1655   1.386   1.127   3.190
  490HOH     H1 1656   1.359   1.217   3.204
  490HOH     H2 1657   1.479   1.133   3.168
  491HOH      O 1658   2.098   2.270   2.547
  491HOH     H1 1659   2.135   2.252   2.633
  491HOH     H2 1660   2.149   2.215   2.487
  492HOH      O 1661   0.254   0.935   0.820
  492HOH     H1 1662   0.330   0.904   0.870
  492HOH     H2 1663   0.273   0.908   0.730
  493HOH      O 1664   3.706   1.074   1.348
  493HOH     H1 1665   3.698   0.991   1.301
  493HOH     H2 1666   3.616   1.105   1.356
  494HOH      O 1667   0.922   1.717  -0.027
  494HOH     H1 1668   0.968   1.639   0.005
  494HOH     H2 1669   0.842   1.720   0.024
  495HOH      O 1670   0.897   2.452   3.153
  495HOH     H1 1671   0.880   2.476   3.243
  495HOH     H2 1672   0.815   2.469   3.107
  496HOH      O 1673   0.959   0.088   3.973
  496HOH     H1 1674   0.942   0.132   3.889
  496HOH     H2 1675   0.980  -0.002   3.948
  497HOH      O 1676   3.463   0.139   1.700
  497HOH     H1 1677   3.418   0.171   1.778
  497HOH     H2 1678   3.490   0.050   1.722
  498HOH      O 1679   0.780   3.948   1.429
  498HOH     H1 1680   0.798   3.893   1.505
  498HOH     H2 1681   0.866   3.969   1.393
  499HOH      O 1682   3.222   2.006   1.617
  499HOH     H1 1683   3.210   2.072   1.686
  499HOH     H2 1684   3.298   1.956   1.646
  500HOH      O 1685   2.890   3.633   3.408
  500HOH     H1 1686   2.843   3.708   3.445
  500HOH     H2 1687   2.974   3.632   3.453
  501HOH      O 1688   3.035   0.181   1.885
  501HOH     H1 1689   3.083   0.105   1.851
  501HOH     H2 1690   3.040   0.172   1.980
  502HOH      O 1691   2.955   3.856   1.568
  502HOH     H1 1692   2.880   3.818   1.615
  502HOH     H2 1693   3.029   3.844   1.627
  503HOH      O 1694   3.460   2.108   0.707
  503HOH     H1 1695   3.535   2.052   0.689
  503HOH     H2 1696   3.465   2.177   0.641
  504HOH      O 1697   3.849   3.316   2.191
  504HOH     H1 1698   3.802   3.240   2.227
  504HOH     H2 1699   3.787   3.357   2.131
  505HOH      O 1700   4.012   0.292   0.445
  505HOH     H1 1701   4.006   0.302   0.350
  505HOH     H2 1702   4.007   0.381   0.478
  506HOH      O 1703   3.128   3.504   0.261
  506HOH     H1 1704   3.148   3.550   0.343
  506HOH     H2 1705   3.034   3.516   0.249
  507HOH      O 1706   1.876   3.237   0.329
  507HOH     H1 1707   1.899   3.241   0.422
  507HOH     H2 1708   1.786   3.203   0.328
  508HOH      O 1709   1.966   3.565   3.301
  508HOH     H1 1710   1.887   3.514   3.280
  508HOH     H2 1711   1.957   3.586   3.394
  509HOH      O 1712   1.123   1.338   1.584
  509HOH     H1 1713   1.146   1.426   1.616
  509HOH     H2 1714   1.136   1.343   1.490
  510HOH      O 1715   0.634   0.767   1.647
  510HOH     H1 1716   0.671   0.760   1.559
  510HOH     H2 1717   0.657   0.855   1.676
  511HOH      O 1718   3.875   1.794   0.923
  511HOH     H1 1719   3.812   1.779   0.853
  511HOH     H2 1720   3.918   1.709   0.936
  512HOH      O 1721   0.291   2.900   2.357
  512HOH     H1 1722   0.316   2.990   2.336
  512HOH     H2 1723   0.270   2.860   2.273
  513HOH      O 1724   1.481   3.886   2.553
  513HOH     H1 1725   1.475   3.800   2.513
  513HOH     H2 1726   1.494   3.946   2.480
  514HOH      O 1727   0.681   1.988   2.417
  514HOH     H1 1728   0.776   1.984   2.427
  514HOH     H2 1729   0.646   1.942   2.493
  515HOH      O 1730   2.056   1.153   2.358
  515HOH     H1 1731   2.143   1.128   2.389
  515HOH     H2 1732   2.048   1.114   2.271
  516HOH      O 1733   3.946   2.115  -0.023
  516HOH     H1 1734   3.933   2.163   0.060
  516HOH     H2 1735   3.980   2.030   0.004
  517HOH      O 1736   0.703   3.542   0.218
  517HOH     H1 1737   0.666   3.627   0.240
  517HOH     H2 1738   0.793   3.562   0.192
  518HOH      O 1739   1.507   3.526   1.728
  518HOH     H1 1740   1.488   3.620   1.731
  518HOH     H2 1741   1.460   3.490   1.804
  519HOH      O 1742   3.802   1.942   3.551
  519HOH     H1 1743   3.753   1.919   3.629
  519HOH     H2 1744   3.742   1.995   3.499
  520HOH      O 1745   0.636   1.517   0.069
  520HOH     H1 1746   0.601   1.503  -0.019
  520HOH     H2 1747   0.637   1.612   0.079
  521HOH      O 1748   3.886   2.354   3.518
  521HOH     H1 1749   3.925   2.306   3.591
  521HOH     H2 1750   3.922   2.312   3.440
  522HOH      O 1751   1.698   1.178   3.455
  522HOH     H1 1752   1.715   1.241   3.525
  522HOH     H2 1753   1.737   1.218   3.377
  523HOH      O 1754   2.229   0.657   2.355
  523HOH     H1 1755   2.208   0.584   2.297
  523HOH     H2 1756   2.307   0.697   2.316
  524HOH      O 1757   0.618   0.306   3.285
  524HOH     H1 1758   0.535   0.300   3.238
  524HOH     H2 1759   0.662   0.381   3.246
  525HOH      O 1760   0.879   1.735   2.672
  525HOH     H1 1761   0.915   1.646   2.670
  525HOH     H2 1762   0.821   1.735   2.748
  526HOH      O 1763   0.837   1.986   1.351
  526HOH     H1 1764   0.921   2.021   1.379
  526HOH     H2 1765   0.838   1.992   1.256
  527HOH      O 1766   1.930   0.830   0.959
  527HOH     H1 1767   1.908   0.923   0.963
  527HOH     H2 1768   1.884   0.797   0.883
  528HOH      O 1769   1.030   1.976   2.360
  528HOH     H1 1770   1.096   1.917   2.396
  528HOH     H2 1771   1.079   2.036   2.304
  529HOH      O 1772   2.193   2.653   0.079
  529HOH     H1 1773   2.221   2.742   0.097
  529HOH     H2 1774   2.103   2.662   0.048
  530HOH      O 1775   0.254   2.017   0.528
  530HOH     H1 1776   0.202   2.097   0.521
  530HOH     H2 1777   0.193   1.947   0.507
  531HOH      O 1778   3.388   1.564   0.976
  531HOH     H1 1779   3.436   1.591   0.897
  531HOH     H2 1780   3.300   1.598   0.963
  532HOH      O 1781   2.276   3.517   0.566
  532HOH     H1 1782   2.321   3.577   0.626
  532HOH     H2 1783   2.184   3.519   0.594
  533HOH      O 1784   3.690   1.003   3.173
  533HOH     H1 1785   3.639   0.942   3.227
  533HOH     H2 1786   3.635   1.020   3.097
  534HOH      O 1787   2.466   0.369   0.531
  534HOH     H1 1788   2.537   0.406   0.585
  534HOH     H2 1789   2.386   0.390   0.579
  535HOH      O 1790   1.815   2.958   3.437
  535HOH     H1 1791   1.839   3.014   3.510
  535HOH     H2 1792   1.788   3.018   3.368
  536HOH      O 1793   3.536   3.498   2.210
  536HOH     H1 1794   3.599   3.527   2.275
  536HOH     H2 1795   3.541   3.402   2.213
  537HOH      O 1796   0.920   1.936   2.112
  537HOH     H1 1797   0.948   1.941   2.204
  537HOH     H2 1798   0.905   2.027   2.087
  538HOH      O 1799   1.213   0.594   2.038
  538HOH     H1 1800   1.136   0.542   2.014
  538HOH     H2 1801   1.229   0.573   2.130
  539HOH      O 1802   3.129   0.129   2.285
  539HOH     H1 1803   3.106   0.052   2.233
  539HOH     H2 1804   3.046   0.157   2.325
  540HOH      O 1805   4.029   1.654   3.230
  540HOH     H1 1806   3.962   1.687   3.291
  540HOH     H2 1807   4.046   1.565   3.259
  541HOH      O 1808   1.268   2.099   0.204
  541HOH     H1 1809   1.321   2.075   0.280
  541HOH     H2 1810   1.319   2.069   0.128
  542HOH      O 1811   1.832   1.077   0.845
  542HOH     H1 1812   1.771   1.083   0.918
  542HOH     H2 1813   1.789   1.020   0.781
  543HOH      O 1814   0.435   2.405   2.859
  543HOH     H1 1815   0.429   2.501   2.855
  543HOH     H2 1816   0.397   2.375   2.777
  544HOH      O 1817   2.237   2.338   0.457
  544HOH     H1 1818   2.154   2.339   0.410
  544HOH     H2 1819   2.278   2.422   0.438
  545HOH      O 1820   1.031   0.362   3.090
  545HOH     H1 1821   0.974   0.289   3.066
  545HOH     H2 1822   0.972   0.435   3.104
  546HOH      O 1823   0.146   1.391   3.603
  546HOH     H1 1824   0.151   1.353   3.690
  546HOH     H2 1825   0.074   1.344   3.561
  547HOH      O 1826   2.409   1.390   3.740
  547HOH     H1 1827   2.337   1.441   3.777
  547HOH     H2 1828   2.386   1.380   3.647
  548HOH      O 1829   3.305   3.646   1.230
  548HOH     H1 1830   3.296   3.567   1.177
  548HOH     H2 1831   3.220   3.688   1.224
  549HOH      O 1832   3.513   1.759   0.793
  549HOH     H1 1833   3.578   1.829   0.779
  549HOH     H2 1834   3.432   1.795   0.759
  550HOH      O 1835   0.882   3.768   3.647
  550HOH     H1 1836   0.869   3.712   3.570
  550HOH     H2 1837   0.847   3.853   3.622
  551HOH      O 1838   2.345   0.894   2.712
  551HOH     H1 1839   2.278   0.960   2.730
  551HOH     H2 1840   2.360   0.900   2.618
  552HOH      O 1841   3.806   3.210   1.419
  552HOH     H1 1842   3.811   3.295   1.464
  552HOH     H2 1843   3.719   3.177   1.439
  553HOH      O 1844   3.737   1.292   3.152
  553HOH     H1 1845   3.709   1.361   3.091
  553HOH     H2 1846   3.694   1.213   3.119
  554HOH      O 1847   3.995   0.807   2.849
  554HOH     H1 1848   3.952   0.771   2.926
  554HOH     H2 1849   4.037   0.732   2.808
  555HOH      O 1850   1.456   1.820   1.766
  555HOH     H1 1851   1.549   1.827   1.790
  555HOH     H2 1852   1.409   1.841   1.846
  556HOH      O 1853   1.365   2.511   1.396
  556HOH     H1 1854   1.295   2.559   1.353
  556HOH     H2 1855   1.391   2.567   1.469
  557HOH      O 1856   3.618   3.074   1.013
  557HOH     H1 1857   3.700   3.029   1.033
  557HOH     H2 1858   3.610   3.142   1.079
  558HOH      O 1859   0.111   2.631   1.449
  558HOH     H1 1860   0.113   2.677   1.365
  558HOH     H2 1861   0.203   2.622   1.475
  559HOH      O 1862   1.024   2.777   0.871
  559HOH     H1 1863   1.021   2.835   0.795
  559HOH     H2 1864   1.063   2.830   0.941
  560HOH      O 1865   1.122   2.553   0.513
  560HOH     H1 1866   1.057   2.534   0.580
  560HOH     H2 1867   1.112   2.646   0.495
  561HOH      O 1868   1.797   0.963   3.274
  561HOH     H1 1869   1.738   0.991   3.345
  561HOH     H2 1870   1.879   1.010   3.291
  562HOH      O 1871   0.415   2.624   1.300
  562HOH     H1 1872   0.373   2.700   1.261
  562HOH     H2 1873   0.492   2.659   1.344
  563HOH      O 1874   1.575   2.295   0.166
  563HOH     H1 1875   1.491   2.328   0.198
  563HOH     H2 1876   1.552   2.221   0.110
  564HOH      O 1877   1.901   1.896   1.160
  564HOH     H1 1878   1.989   1.880   1.192
  564HOH     H2 1879   1.871   1.973   1.208
  565HOH      O 1880   2.192   2.985   2.089
  565HOH     H1 1881   2.179   2.919   2.021
  565HOH     H2 1882   2.263   2.950   2.143
  566HOH      O 1883   2.235   3.516   3.980
  566HOH     H1 1884   2.205   3.460   4.052
  566HOH     H2 1885   2.217   3.605   4.010
  567HOH      O 1886   2.157   1.076   2.739
  567HOH     H1 1887   2.191   1.165   2.744
  567HOH     H2 1888   2.090   1.080   2.671
  568HOH      O 1889   2.085   0.169   1.345
  568HOH     H1 1890   2.156   0.109   1.321
  568HOH     H2 1891   2.126   0.236   1.399
  569HOH      O 1892   1.065   2.625   1.399
  569HOH     H1 1893   1.115   2.697   1.438
  569HOH     H2 1894   1.085   2.630   1.305
  570HOH      O 1895   2.089   1.008   3.288
  570HOH     H1 1896   2.131   0.942   3.343
  570HOH     H2 1897   2.132   1.090   3.310
  571HOH      O 1898   1.328   2.987   0.573
  571HOH     H1 1899   1.323   2.971   0.667
  571HOH     H2 1900   1.404   2.937   0.543
  572HOH      O 1901   0.377   1.298   2.480
  572HOH     H1 1902   0.464   1.290   2.520
  572HOH     H2 1903   0.362   1.213   2.440
  573HOH      O 1904   0.060   1.170   1.168
  573HOH     H1 1905   0.016   1.255   1.164
  573HOH     H2 1906   0.093   1.157   1.079
  574HOH      O 1907   2.268   0.396   3.565
  574HOH     H1 1908   2.299   0.320   3.614
  574HOH     H2 1909   2.269   0.367   3.473
  575HOH      O 1910   1.542   1.197   1.539
  575HOH     H1 1911   1.586   1.281   1.547
  575HOH     H2 1912   1.502   1.182   1.625
  576HOH      O 1913   0.289   0.602   3.348
  576HOH     H1 1914   0.266   0.695   3.349
  576HOH     H2 1915   0.382   0.600   3.372
  577HOH      O 1916   2.402   2.859   2.216
  577HOH     H1 1917   2.374   2.769   2.199
  577HOH     H2 1918   2.370   2.877   2.304
  578HOH      O 1919   2.815   0.140   3.730
  578HOH     H1 1920   2.844   0.053   3.759
  578HOH     H2 1921   2.884   0.169   3.671
  579HOH      O 1922   0.352   0.154   0.081
  579HOH     H1 1923   0.370   0.244   0.055
  579HOH     H2 1924   0.302   0.117   0.007
  580HOH      O 1925   2.293   3.180   0.324
  580HOH     H1 1926   2.241   3.123   0.380
  580HOH     H2 1927   2.376   3.133   0.311
  581HOH      O 1928   3.598   3.216   3.207
  581HOH     H1 1929   3.670   3.279   3.211
  581HOH     H2 1930   3.558   3.221   3.294
  582HOH      O 1931   1.782   3.359   3.471
  582HOH     H1 1932   1.724   3.389   3.401
  582HOH     H2 1933   1.782   3.431   3.535
  583HOH      O 1934   0.723   3.504   1.439
  583HOH     H1 1935   0.721   3.588   1.391
  583HOH     H2 1936   0.802   3.460   1.407
  584HOH      O 1937   2.335   3.960   0.316
  584HOH     H1 1938   2.384   3.990   0.393
  584HOH     H2 1939   2.395   3.975   0.242
  585HOH      O 1940   1.598   3.779   2.179
  585HOH     H1 1941   1.655   3.728   2.237
  585HOH     H2 1942   1.510   3.764   2.213
  586HOH      O 1943   2.266   0.645   2.790
  586HOH     H1 1944   2.302   0.733   2.776
  586HOH     H2 1945   2.343   0.590   2.806
  587HOH      O 1946   2.769   0.059   0.714
  587HOH     H1 1947   2.863   0.073   0.729
  587HOH     H2 1948   2.764   0.028   0.624
  588HOH      O 1949   3.545   1.285   3.352
  588HOH     H1 1950   3.617   1.286   3.289
  588HOH     H2 1951   3.575   1.226   3.421
  589HOH      O 1952   3.522   2.185   3.155
  589HOH     H1 1953   3.589   2.250   3.134
  589HOH     H2 1954   3.557   2.136   3.229
  590HOH      O 1955   2.043   0.520   0.139
  590HOH     H1 1956   2.131   0.529   0.177
  590HOH     H2 1957   2.022   0.608   0.106
  591HOH      O 1958   1.925   2.842   1.136
  591HOH     H1 1959   1.838   2.850   1.097
  591HOH     H2 1960   1.908   2.812   1.226
  592HOH      O 1961   2.894   1.074   2.846
  592HOH     H1 1962   2.818   1.027   2.881
  592HOH     H2 1963   2.880   1.075   2.751
  593HOH      O 1964   0.619   3.594   2.911
  593HOH     H1 1965   0.530   3.615   2.939
  593HOH     H2 1966   0.637   3.657   2.840
  594HOH      O 1967   3.509   1.361   1.162
  594HOH     H1 1968   3.544   1.426   1.224
  594HOH     H2 1969   3.465   1.413   1.095
  595HOH      O 1970   2.019   2.826   0.271
  595HOH     H1 1971   2.023   2.731   0.259
  595HOH     H2 1972   2.097   2.859   0.227
  596HOH      O 1973   3.973   2.184   3.308
  596HOH     H1 1974   3.967   2.223   3.221
  596HOH     H2 1975   4.067   2.169   3.321
  597HOH      O 1976   3.608   1.893   3.167
  597HOH     H1 1977   3.520   1.927   3.151
  597HOH     H2 1978   3.594   1.800   3.188
  598HOH      O 1979   0.429   2.739   0.120
  598HOH     H1 1980   0.430   2.646   0.141
  598HOH     H2 1981   0.407   2.742   0.027
  599HOH      O 1982   1.057   1.980   0.303
  599HOH     H1 1983   1.133   2.022   0.262
  599HOH     H2 1984   1.093   1.937   0.380
  600HOH      O 1985   2.303   1.066   3.016
  600HOH     H1 1986   2.262   1.088   2.932
  600HOH     H2 1987   2.277   1.138   3.074
  601HOH      O 1988   2.232   3.521   3.078
  601HOH     H1 1989   2.144   3.547   3.108
  601HOH     H2 1990   2.290   3.548   3.150
  602HOH      O 1991   0.379   3.609   3.604
  602HOH     H1 1992   0.330   3.675   3.554
  602HOH     H2 1993   0.337   3.607   3.689
  603HOH      O 1994   2.663   3.691   2.691
  603HOH     H1 1995   2.660   3.659   2.781
  603HOH     H2 1996   2.744   3.656   2.655
  604HOH      O 1997   2.800   3.778   2.097
  604HOH     H1 1998   2.815   3.762   2.191
  604HOH     H2 1999   2.810   3.873   2.088
  605HOH      O 2000   1.630   2.199   3.491
  605HOH     H1 2001   1.625   2.271   3.428
  605HOH     H2 2002   1.542   2.193   3.528
  606HOH      O 2003   2.702   0.041   0.203
  606HOH     H1 2004   2.712   0.131   0.234
  606HOH     H2 2005   2.637   0.047   0.133
  607HOH      O 2006   2.423   2.998   2.683
  607HOH     H1 2007   2.404   3.039   2.599
  607HOH     H2 2008   2.456   2.911   2.660
  608HOH      O 2009   1.452   2.608   3.208
  608HOH     H1 2010   1.530   2.597   3.153
  608HOH     H2 2011   1.389   2.653   3.152
  609HOH      O 2012   0.697   1.027   1.526
  609HOH     H1 2013   0.734   1.055   1.442
  609HOH     H2 2014   0.607   1.060   1.524
  610HOH      O 2015   4.038   3.752   0.237
  610HOH     H1 2016   3.960   3.808   0.235
  610HOH     H2 2017   4.021   3.689   0.307
  611HOH      O 2018   1.095   2.362   1.998
  611HOH     H1 2019   1.031   2.425   2.029
  611HOH     H2 2020   1.151   2.345   2.074
  612HOH      O 2021   3.629   0.345   1.711
  612HOH     H1 2022   3.619   0.375   1.801
  612HOH     H2 2023   3.582   0.261   1.708
  613HOH      O 2024   0.948   3.586   2.857
  613HOH     H1 2025   0.869   3.567   2.906
  613HOH     H2 2026   0.935   3.541   2.773
  614HOH      O 2027   0.224   3.924   3.637
  614HOH     H1 2028   0.188   3.863   3.573
  614HOH     H2 2029   0.314   3.939   3.608
  615HOH      O 2030   3.750   3.964   2.495
  615HOH     H1 2031   3.753   3.955   2.399
  615HOH     H2 2032   3.666   4.007   2.512
  616HOH      O 2033   2.861   2.461   3.484
  616HOH     H1 2034   2.913   2.508   3.549
  616HOH     H2 2035   2.799   2.409   3.535
  617HOH      O 2036   0.381   0.552   0.468
  617HOH     H1 2037   0.347   0.533   0.380
  617HOH     H2 2038   0.472   0.520   0.465
  618HOH      O 2039   3.275   3.047   2.213
  618HOH     H1 2040   3.273   3.091   2.128
  618HOH     H2 2041   3.235   2.962   2.197
  619HOH      O 2042  -0.005   2.642   3.717
  619HOH     H1 2043  -0.058   2.705   3.766
  619HOH     H2 2044   0.085   2.675   3.725
  620HOH      O 2045   1.117   1.246   3.679
  620HOH     H1 2046   1.104   1.284   3.766
  620HOH     H2 2047   1.042   1.277   3.628
  621HOH      O 2048   1.794   4.018   2.141
  621HOH     H1 2049   1.851   3.983   2.073
  621HOH     H2 2050   1.732   3.947   2.159
  622HOH      O 2051   3.293   2.468   2.807
  622HOH     H1 2052   3.382   2.472   2.772
  622HOH     H2 2053   3.306   2.463   2.902
  623HOH      O 2054   3.965   3.126   3.869
  623HOH     H1 2055   3.890   3.170   3.831
  623HOH     H2 2056   4.040   3.180   3.844
  624HOH      O 2057   0.143   1.079   2.502
  624HOH     H1 2058   0.115   1.062   2.412
  624HOH     H2 2059   0.079   1.142   2.536
  625HOH      O 2060   0.856   2.598   3.994
  625HOH     H1 2061   0.842   2.684   3.953
  625HOH     H2 2062   0.802   2.538   3.942
  626HOH      O 2063   2.859   2.782   3.282
  626HOH     H1 2064   2.844   2.704   3.229
  626HOH     H2 2065   2.793   2.777   3.352
  627HOH      O 2066   0.997   0.875   3.506
  627HOH     H1 2067   1.061   0.941   3.482
  627HOH     H2 2068   1.027   0.795   3.463
  628HOH      O 2069   3.811   0.581   1.278
  628HOH     H1 2070   3.796   0.502   1.331
  628HOH     H2 2071   3.855   0.548   1.199
  629HOH      O 2072   0.386   0.662   0.706
  629HOH     H1 2073   0.407   0.604   0.633
  629HOH     H2 2074   0.352   0.742   0.664
  630HOH      O 2075   1.172   3.379   2.370
  630HOH     H1 2076   1.134   3.461   2.339
  630HOH     H2 2077   1.266   3.389   2.354
  631HOH      O 2078   2.214   1.188   0.139
  631HOH     H1 2079   2.239   1.106   0.180
  631HOH     H2 2080   2.298   1.230   0.117
  632HOH      O 2081   0.504   1.692   3.671
  632HOH     H1 2082   0.591   1.710   3.707
  632HOH     H2 2083   0.455   1.656   3.745
  633HOH      O 2084   3.744   3.670   0.030
  633HOH     H1 2085   3.776   3.728   0.100
  633HOH     H2 2086   3.752   3.723  -0.049
  634HOH      O 2087   0.259   3.204   2.717
  634HOH     H1 2088   0.246   3.202   2.812
  634HOH     H2 2089   0.180   3.165   2.681
  635HOH      O 2090   3.231   0.817   1.993
  635HOH     H1 2091   3.220   0.724   2.011
  635HOH     H2 2092   3.326   0.830   1.987
  636HOH      O 2093   1.993   2.937   3.774
  636HOH     H1 2094   1.918   2.995   3.768
  636HOH     H2 2095   2.059   2.987   3.822
  637HOH      O 2096   1.881   3.540   1.163
  637HOH     H1 2097   1.904   3.622   1.206
  637HOH     H2 2098   1.885   3.560   1.069
  638HOH      O 2099   0.698   1.916   3.048
  638HOH     H1 2100   0.674   1.998   3.092
  638HOH     H2 2101   0.774   1.939   2.994
  639HOH      O 2102   0.488   1.754   3.142
  639HOH     H1 2103   0.574   1.789   3.117
  639HOH     H2 2104   0.433   1.772   3.066
  640HOH      O 2105   3.577   2.470   2.685
  640HOH     H1 2106   3.670   2.445   2.690
  640HOH     H2 2107   3.557   2.465   2.591
  641HOH      O 2108   3.639   1.506   3.000
  641HOH     H1 2109   3.708   1.546   2.948
  641HOH     H2 2110   3.560   1.552   2.975
  642HOH      O 2111   0.105   1.834   3.682
  642HOH     H1 2112   0.168   1.867   3.617
  642HOH     H2 2113   0.042   1.905   3.692
  643HOH      O 2114   1.550   0.822   3.065
  643HOH     H1 2115   1.608   0.797   3.136
  643HOH     H2 2116   1.591   0.899   3.025
  644HOH      O 2117   2.009   3.049   1.757
  644HOH     H1 2118   2.034   3.136   1.726
  644HOH     H2 2119   2.090   2.998   1.755
  645HOH      O 2120   0.714   0.009   2.158
  645HOH     H1 2121   0.674   0.085   2.202
  645HOH     H2 2122   0.782   0.048   2.103
  646HOH      O 2123   3.998   1.144   1.746
  646HOH     H1 2124   4.000   1.115   1.655
  646HOH     H2 2125   3.975   1.066   1.797
  647HOH      O 2126   0.495   0.891   1.322
  647HOH     H1 2127   0.415   0.906   1.373
  647HOH     H2 2128   0.535   0.978   1.314
  648HOH      O 2129   0.682   2.699   3.598
  648HOH     H1 2130   0.755   2.638   3.587
  648HOH     H2 2131   0.611   2.661   3.546
  649HOH      O 2132   2.498   0.074   0.503
  649HOH     H1 2133   2.590   0.052   0.518
  649HOH     H2 2134   2.498   0.170   0.494
  650HOH      O 2135   0.861   0.276   3.445
  650HOH     H1 2136   0.789   0.273   3.383
  650HOH     H2 2137   0.935   0.238   3.399
  651HOH      O 2138   3.130   2.660   0.143
  651HOH     H1 2139   3.048   2.611   0.146
  651HOH     H2 2140   3.145   2.674   0.049
  652HOH      O 2141   1.570   1.976   1.260
  652HOH     H1 2142   1.658   2.013   1.247
  652HOH     H2 2143   1.580   1.883   1.241
  653HOH      O 2144   3.776   3.872   0.204
  653HOH     H1 2145   3.790   3.896   0.296
  653HOH     H2 2146   3.711   3.934   0.172
  654HOH      O 2147   3.897   0.987   2.649
  654HOH     H1 2148   3.931   0.912   2.697
  654HOH     H2 2149   3.951   1.061   2.678
  655HOH      O 2150   2.687   0.262   1.156
  655HOH     H1 2151   2.608   0.217   1.128
  655HOH     H2 2152   2.759   0.210   1.119
  656HOH      O 2153   3.155   1.267   3.213
  656HOH     H1 2154   3.110   1.255   3.129
  656HOH     H2 2155   3.087   1.302   3.271
  657HOH      O 2156   0.975   3.981   2.923
  657HOH     H1 2157   0.970   3.991   2.828
  657HOH     H2 2158   1.068   3.979   2.942
  658HOH      O 2159   0.204   3.626   2.347
  658HOH     H1 2160   0.267   3.566   2.309
  658HOH     H2 2161   0.174   3.583   2.427
  659HOH      O 2162   0.474   0.234   1.911
  659HOH     H1 2163   0.452   0.157   1.962
  659HOH     H2 2164   0.488   0.201   1.822
  660HOH      O 2165   0.479   0.986   3.615
  660HOH     H1 2166   0.427   0.906   3.613
  660HOH     H2 2167   0.440   1.042   3.547
  661HOH      O 2168   3.110   3.724   1.770
  661HOH     H1 2169   3.050   3.660   1.807
  661HOH     H2 2170   3.160   3.675   1.704
  662HOH      O 2171   3.824   3.972   3.696
  662HOH     H1 2172   3.880   4.043   3.666
  662HOH     H2 2173   3.760   3.960   3.625
  663HOH      O 2174   1.091   3.292   0.960
  663HOH     H1 2175   1.102   3.358   1.029
  663HOH     H2 2176   1.023   3.327   0.903
  664HOH      O 2177   3.365   2.240   0.965
  664HOH     H1 2178   3.410   2.190   0.897
  664HOH     H2 2179   3.395   2.202   1.047
  665HOH      O 2180   1.806   3.076   2.090
  665HOH     H1 2181   1.863   3.120   2.027
  665HOH     H2 2182   1.859   3.068   2.169
  666HOH      O 2183   0.288   0.472   2.971
  666HOH     H1 2184   0.237   0.414   3.028
  666HOH     H2 2185   0.368   0.491   3.021
  667HOH      O 2186   0.567   3.887   1.224
  667HOH     H1 2187   0.514   3.964   1.243
  667HOH     H2 2188   0.647   3.899   1.275
  668HOH      O 2189   0.568   0.824   0.837
  668HOH     H1 2190   0.518   0.745   0.815
  668HOH     H2 2191   0.544   0.843   0.927
  669HOH      O 2192   0.669   2.307   1.517
  669HOH     H1 2193   0.737   2.305   1.584
  669HOH     H2 2194   0.589   2.279   1.562
  670HOH      O 2195   4.018   2.372   1.492
  670HOH     H1 2196   4.030   2.463   1.464
  670HOH     H2 2197   3.926   2.367   1.517
  671HOH      O 2198   1.567   1.790   0.650
  671HOH     H1 2199   1.594   1.881   0.659
  671HOH     H2 2200   1.649   1.741   0.647
  672HOH      O 2201   0.303   2.001   0.088
  672HOH     H1 2202   0.274   2.083   0.046
  672HOH     H2 2203   0.383   1.978   0.042
  673HOH      O 2204   0.697   2.240   2.633
  673HOH     H1 2205   0.658   2.180   2.697
  673HOH     H2 2206   0.660   2.213   2.549
  674HOH      O 2207   2.786   3.359   3.677
  674HOH     H1 2208   2.843   3.307   3.621
  674HOH     H2 2209   2.759   3.299   3.746
  675HOH      O 2210   1.120   2.029   1.372
  675HOH     H1 2211   1.141   1.992   1.457
  675HOH     H2 2212   1.187   1.994   1.313
  676HOH      O 2213   1.696   3.907   0.852
  676HOH     H1 2214   1.697   3.985   0.908
  676HOH     H2 2215   1.605   3.899   0.824
  677HOH      O 2216   0.760   0.455   2.922
  677HOH     H1 2217   0.668   0.429   2.921
  677HOH     H2 2218   0.770   0.505   3.003
  678HOH      O 2219   0.257   1.508   1.275
  678HOH     H1 2220   0.232   1.421   1.306
  678HOH     H2 2221   0.323   1.538   1.337
  679HOH      O 2222   0.316   3.920   1.446
  679HOH     H1 2223   0.341   3.931   1.354
  679HOH     H2 2224   0.221   3.910   1.444
  680HOH      O 2225   0.788   2.185   3.927
  680HOH     H1 2226   0.772   2.122   3.856
  680HOH     H2 2227   0.859   2.147   3.978
  681HOH      O 2228   3.715   2.144   3.893
  681HOH     H1 2229   3.795   2.144   3.945
  681HOH     H2 2230   3.708   2.056   3.858
  682HOH      O 2231   3.149   2.232   2.740
  682HOH     H1 2232   3.215   2.175   2.779
  682HOH     H2 2233   3.185   2.320   2.750
  683HOH      O 2234   3.130   0.055   2.875
  683HOH     H1 2235   3.203   0.115   2.888
  683HOH     H2 2236   3.131   0.034   2.782
  684HOH      O 2237   0.852   3.784   0.108
  684HOH     H1 2238   0.942   3.775   0.075
  684HOH     H2 2239   0.802   3.815   0.033
  685HOH      O 2240   3.677   3.075   4.009
  685HOH     H1 2241   3.719   3.117   3.934
  685HOH     H2 2242   3.655   2.987   3.979
  686HOH      O 2243   3.021   1.938   0.276
  686HOH     H1 2244   2.978   1.887   0.207
  686HOH     H2 2245   3.114   1.937   0.253
  687HOH      O 2246   0.104   2.618   3.435
  687HOH     H1 2247   0.101   2.647   3.526
  687HOH     H2 2248   0.020   2.645   3.398
  688HOH      O 2249   1.595   0.270   0.265
  688HOH     H1 2250   1.532   0.290   0.334
  688HOH     H2 2251   1.640   0.191   0.295
  689HOH      O 2252   3.071   0.952   3.419
  689HOH     H1 2253   3.041   0.965   3.509
  689HOH     H2 2254   2.994   0.971   3.366
  690HOH      O 2255   3.830   1.594   1.592
  690HOH     H1 2256   3.832   1.521   1.653
  690HOH     H2 2257   3.880   1.663   1.635
  691HOH      O 2258   2.293   3.449   1.998
  691HOH     H1 2259   2.304   3.502   1.920
  691HOH     H2 2260   2.298   3.358   1.967
  692HOH      O 2261   3.858   0.799   0.946
  692HOH     H1 2262   3.838   0.872   1.005
  692HOH     H2 2263   3.951   0.780   0.962
  693HOH      O 2264   0.986   3.390   3.456
  693HOH     H1 2265   0.971   3.389   3.551
  693HOH     H2 2266   1.074   3.354   3.446
  694HOH      O 2267   0.177   3.436   3.069
  694HOH     H1 2268   0.182   3.448   2.974
  694HOH     H2 2269   0.268   3.441   3.098
  695HOH      O 2270   2.007   3.818   3.773
  695HOH     H1 2271   2.078   3.874   3.739
  695HOH     H2 2272   2.013   3.828   3.868
  696HOH      O 2273   1.626   3.069   0.400
  696HOH     H1 2274   1.629   3.071   0.305
  696HOH     H2 2275   1.594   2.981   0.421
  697HOH      O 2276   2.071   1.990   3.931
  697HOH     H1 2277   2.114   2.070   3.963
  697HOH     H2 2278   2.009   1.968   4.000
  698HOH      O 2279   0.895   1.244   3.342
  698HOH     H1 2280   0.807   1.219   3.372
  698HOH     H2 2281   0.932   1.293   3.415
  699HOH      O 2282   0.903   0.718   1.917
  699HOH     H1 2283   0.813   0.708   1.888
  699HOH     H2 2284   0.943   0.632   1.900
  700HOH      O 2285   3.974   3.782   1.151
  700HOH     H1 2286   3.965   3.814   1.061
  700HOH     H2 2287   3.888   3.745   1.172
  701HOH      O 2288   1.124   0.477   0.065
  701HOH     H1 2289   1.168   0.392   0.054
  701HOH     H2 2290   1.122   0.490   0.159
  702HOH      O 2291   3.431   1.871   0.516
  702HOH     H1 2292   3.391   1.952   0.483
  702HOH     H2 2293   3.414   1.807   0.447
  703HOH      O 2294   3.376   2.082   2.957
  703HOH     H1 2295   3.417   2.124   2.881
  703HOH     H2 2296   3.427   2.114   3.031
  704HOH      O 2297   1.512   0.980   3.476
  704HOH     H1 2298   1.516   0.966   3.571
  704HOH     H2 2299   1.573   1.052   3.461
  705HOH      O 2300   1.382   1.952   3.707
  705HOH     H1 2301   1.362   1.859   3.715
  705HOH     H2 2302   1.345   1.991   3.786
  706HOH      O 2303   3.339   3.157   0.627
  706HOH     H1 2304   3.422   3.110   0.616
  706HOH     H2 2305   3.303   3.161   0.538
  707HOH      O 2306   2.509   2.999   0.698
  707HOH     H1 2307   2.435   2.999   0.758
  707HOH     H2 2308   2.519   3.091   0.673
  708HOH      O 2309   2.287   1.637   1.475
  708HOH     H1 2310   2.378   1.644   1.448
  708HOH     H2 2311   2.286   1.566   1.539
  709HOH      O 2312   1.245   2.715   1.953
  709HOH     H1 2313   1.334   2.720   1.988
  709HOH     H2 2314   1.211   2.804   1.961
  710HOH      O 2315   3.243   3.227   0.372
  710HOH     H1 2316   3.238   3.321   0.389
  710HOH     H2 2317   3.157   3.193   0.396
  711HOH      O 2318   0.285   3.889   2.390
  711HOH     H1 2319   0.234   3.966   2.365
  711HOH     H2 2320   0.238   3.815   2.350
  712HOH      O 2321   3.755   2.128   0.406
  712HOH     H1 2322   3.668   2.088   0.414
  712HOH     H2 2323   3.810   2.076   0.465
  713HOH      O 2324   0.197   2.421   3.274
  713HOH     H1 2325   0.193   2.460   3.187
  713HOH     H2 2326   0.154   2.485   3.331
  714HOH      O 2327   3.421   3.543   1.766
  714HOH     H1 2328   3.469   3.462   1.783
  714HOH     H2 2329   3.369   3.524   1.688
  715HOH      O 2330   3.136   1.950   1.303
  715HOH     H1 2331   3.083   1.988   1.233
  715HOH     H2 2332   3.213   1.914   1.258
  716HOH      O 2333   1.055   0.874   1.675
  716HOH     H1 2334   1.030   0.945   1.616
  716HOH     H2 2335   1.015   0.896   1.759
  717HOH      O 2336   1.496   1.857   3.432
  717HOH     H1 2337   1.473   1.867   3.524
  717HOH     H2 2338   1.569   1.917   3.419
  718HOH      O 2339   0.169   1.643   0.408
  718HOH     H1 2340   0.167   1.675   0.498
  718HOH     H2 2341   0.147   1.719   0.355
  719HOH      O 2342   2.120   3.209   3.467
  719HOH     H1 2343   2.120   3.254   3.552
  719HOH     H2 2344   2.115   3.116   3.489
  720HOH      O 2345   1.983   1.286   1.432
  720HOH     H1 2346   1.915   1.341   1.393
  720HOH     H2 2347   2.064   1.317   1.393
  721HOH      O 2348   1.452   3.502   2.482
  721HOH     H1 2349   1.508   3.443   2.533
  721HOH     H2 2350   1.385   3.531   2.543
  722HOH      O 2351   1.996   2.390   3.171
  722HOH     H1 2352   1.950   2.333   3.109
  722HOH     H2 2353   2.064   2.431   3.119
  723HOH      O 2354   2.022   2.414   0.182
  723HOH     H1 2355   1.970   2.431   0.260
  723HOH     H2 2356   1.989   2.476   0.117
  724HOH      O 2357   2.446   0.110   0.112
  724HOH     H1 2358   2.447   0.051   0.037
  724HOH     H2 2359   2.364   0.159   0.104
  725HOH      O 2360   3.886   3.684   2.014
  725HOH     H1 2361   3.939   3.754   1.976
  725HOH     H2 2362   3.896   3.695   2.109
  726HOH      O 2363   0.862   1.218   0.426
  726HOH     H1 2364   0.934   1.186   0.372
  726HOH     H2 2365   0.783   1.188   0.381
  727HOH      O 2366   1.817   3.107   1.310
  727HOH     H1 2367   1.853   3.145   1.390
  727HOH     H2 2368   1.855   3.020   1.305
  728HOH      O 2369   1.898   3.371   2.135
  728HOH     H1 2370   1.826   3.402   2.079
  728HOH     H2 2371   1.970   3.431   2.118
  729HOH      O 2372   1.156   2.315   1.158
  729HOH     H1 2373   1.232   2.281   1.205
  729HOH     H2 2374   1.096   2.343   1.227
  730HOH      O 2375   1.321   1.325   2.878
  730HOH     H1 2376   1.254   1.361   2.820
  730HOH     H2 2377   1.301   1.231   2.882
  731HOH      O 2378   1.016   1.770   2.992
  731HOH     H1 2379   0.970   1.853   2.976
  731HOH     H2 2380   0.952   1.703   2.971
  732HOH      O 2381   1.779   0.433   3.200
  732HOH     H1 2382   1.732   0.353   3.224
  732HOH     H2 2383   1.868   0.419   3.233
  733HOH      O 2384   0.807   0.690   1.458
  733HOH     H1 2385   0.855   0.640   1.391
  733HOH     H2 2386   0.876   0.726   1.514
  734HOH      O 2387   0.229   1.043   0.009
  734HOH     H1 2388   0.285   1.100  -0.043
  734HOH     H2 2389   0.234   1.079   0.097
  735HOH      O 2390   1.224   3.708   0.973
  735HOH     H1 2391   1.156   3.698   0.907
  735HOH     H2 2392   1.306   3.691   0.925
  736HOH      O 2393   3.214   1.803   2.509
  736HOH     H1 2394   3.247   1.717   2.482
  736HOH     H2 2395   3.293   1.856   2.523
  737HOH      O 2396   1.485   3.602   0.927
  737HOH     H1 2397   1.544   3.598   0.851
  737HOH     H2 2398   1.544   3.597   1.003
  738HOH      O 2399   2.676   2.657   0.159
  738HOH     H1 2400   2.640   2.639   0.246
  738HOH     H2 2401   2.674   2.572   0.115
  739HOH      O 2402   2.393   3.918   2.909
  739HOH     H1 2403   2.384   3.970   2.988
  739HOH     H2 2404   2.344   3.966   2.843
  740HOH      O 2405   0.274   2.892   1.764
  740HOH     H1 2406   0.200   2.923   1.713
  740HOH     H2 2407   0.318   2.828   1.707
  741HOH      O 2408   0.205   1.346   3.323
  741HOH     H1 2409   0.192   1.372   3.415
  741HOH     H2 2410   0.116   1.334   3.290
  742HOH      O 2411   2.021   2.385   3.765
  742HOH     H1 2412   1.998   2.474   3.738
  742HOH     H2 2413   1.937   2.342   3.781
  743HOH      O 2414   2.521   1.052   2.531
  743HOH     H1 2415   2.542   1.094   2.615
  743HOH     H2 2416   2.592   0.990   2.516
  744HOH      O 2417   1.233   2.503   4.009
  744HOH     H1 2418   1.195   2.436   3.952
  744HOH     H2 2419   1.236   2.463   4.096
  745HOH      O 2420   0.288   1.943   1.630
  745HOH     H1 2421   0.252   2.023   1.590
  745HOH     H2 2422   0.312   1.888   1.555
  746HOH      O 2423   2.412   2.285   1.661
  746HOH     H1 2424   2.393   2.377   1.644
  746HOH     H2 2425   2.498   2.285   1.702
  747HOH      O 2426   3.528   2.464   0.934
  747HOH     H1 2427   3.470   2.388   0.934
  747HOH     H2 2428   3.547   2.480   0.841
  748HOH      O 2429   3.795   3.734   2.654
  748HOH     H1 2430   3.778   3.820   2.615
  748HOH     H2 2431   3.739   3.731   2.731
  749HOH      O 2432   3.795   1.279   2.826
  749HOH     H1 2433   3.856   1.217   2.865
  749HOH     H2 2434   3.721   1.282   2.887
  750HOH      O 2435   1.710   0.285   0.705
  750HOH     H1 2436   1.728   0.324   0.619
  750HOH     H2 2437   1.775   0.215   0.713
  751HOH      O 2438   1.054   0.632   3.645
  751HOH     H1 2439   0.968   0.662   3.674
  751HOH     H2 2440   1.115   0.679   3.701
  752HOH      O 2441   2.748   0.911   2.531
  752HOH     H1 2442   2.740   0.850   2.604
  752HOH     H2 2443   2.769   0.857   2.456
  753HOH      O 2444   1.857   3.560   3.870
  753HOH     H1 2445   1.886   3.560   3.962
  753HOH     H2 2446   1.763   3.576   3.875
  754HOH      O 2447   3.520   1.395   1.688
  754HOH     H1 2448   3.612   1.397   1.711
  754HOH     H2 2449   3.518   1.412   1.594
  755HOH      O 2450   0.374   0.229   3.180
  755HOH     H1 2451   0.386   0.173   3.256
  755HOH     H2 2452   0.298   0.283   3.202
  756HOH      O 2453   2.555   2.120   0.686
  756HOH     H1 2454   2.508   2.102   0.605
  756HOH     H2 2455   2.645   2.092   0.668
  757HOH      O 2456   0.150   2.557   0.212
  757HOH     H1 2457   0.205   2.636   0.206
  757HOH     H2 2458   0.181   2.501   0.141
  758HOH      O 2459   2.961   3.772   0.347
  758HOH     H1 2460   2.941   3.798   0.257
  758HOH     H2 2461   2.909   3.693   0.361
  759HOH      O 2462   0.612   0.833   0.528
  759HOH     H1 2463   0.661   0.819   0.609
  759HOH     H2 2464   0.527   0.866   0.556
  760HOH      O 2465   2.644   2.744   1.922
  760HOH     H1 2466   2.631   2.652   1.944
  760HOH     H2 2467   2.605   2.754   1.835
  761HOH      O 2468   1.030   2.692   3.057
  761HOH     H1 2469   1.059   2.690   2.966
  761HOH     H2 2470   1.029   2.600   3.084
  762HOH      O 2471   3.328   3.011   1.243
  762HOH     H1 2472   3.255   3.060   1.281
  762HOH     H2 2473   3.312   3.013   1.148
  763HOH      O 2474   0.586   3.117   2.404
  763HOH     H1 2475   0.623   3.206   2.399
  763HOH     H2 2476   0.497   3.126   2.370
  764HOH      O 2477   1.812   3.500   0.640
  764HOH     H1 2478   1.731   3.474   0.596
  764HOH     H2 2479   1.877   3.503   0.570
  765HOH      O 2480   1.411   2.870   3.773
  765HOH     H1 2481   1.325   2.882   3.734
  765HOH     H2 2482   1.402   2.791   3.827
  766HOH      O 2483   3.123   3.939   0.714
  766HOH     H1 2484   3.096   3.864   0.661
  766HOH     H2 2485   3.094   4.015   0.665
  767HOH      O 2486   0.175   0.358   2.469
  767HOH     H1 2487   0.226   0.435   2.497
  767HOH     H2 2488   0.196   0.291   2.533
  768HOH      O 2489   2.491   3.068   1.335
  768HOH     H1 2490   2.491   3.164   1.340
  768HOH     H2 2491   2.582   3.043   1.351
  769HOH      O 2492   2.962   0.374   2.110
  769HOH     H1 2493   2.892   0.400   2.170
  769HOH     H2 2494   3.040   0.417   2.144
  770HOH      O 2495   0.650   3.488   1.925
  770HOH     H1 2496   0.638   3.513   1.833
  770HOH     H2 2497   0.578   3.529   1.971
  771HOH      O 2498   2.025   3.496   0.364
  771HOH     H1 2499   2.120   3.486   0.354
  771HOH     H2 2500   1.989   3.414   0.329
  772HOH      O 2501   3.340   1.847   1.148
  772HOH     H1 2502   3.397   1.774   1.173
  772HOH     H2 2503   3.307   1.821   1.062
  773HOH      O 2504   2.086   1.188   3.902
  773HOH     H1 2505   2.117   1.274   3.873
  773HOH     H2 2506   2.134   1.171   3.983
  774HOH      O 2507   0.364   1.253   3.950
  774HOH     H1 2508   0.358   1.295   4.035
  774HOH     H2 2509   0.318   1.312   3.890
  775HOH      O 2510   2.837   3.240   1.717
  775HOH     H1 2511   2.823   3.228   1.811
  775HOH     H2 2512   2.865   3.153   1.687
  776HOH      O 2513   0.149   3.341   1.864
  776HOH     H1 2514   0.135   3.253   1.830
  776HOH     H2 2515   0.234   3.367   1.831
  777HOH      O 2516   1.715   1.360   3.226
  777HOH     H1 2517   1.656   1.426   3.263
  777HOH     H2 2518   1.768   1.408   3.162
  778HOH      O 2519   1.285   2.692   0.795
  778HOH     H1 2520   1.194   2.722   0.806
  778HOH     H2 2521   1.280   2.597   0.807
  779HOH      O 2522   3.536   3.338   1.168
  779HOH     H1 2523   3.527   3.370   1.258
  779HOH     H2 2524   3.583   3.408   1.122
  780HOH      O 2525   3.440   0.230   3.700
  780HOH     H1 2526   3.348   0.257   3.705
  780HOH     H2 2527   3.437   0.138   3.677
  781HOH      O 2528   0.499   0.531   3.137
  781HOH     H1 2529   0.510   0.617   3.097
  781HOH     H2 2530   0.493   0.549   3.231
  782HOH      O 2531   0.558   0.480   3.675
  782HOH     H1 2532   0.614   0.543   3.628
  782HOH     H2 2533   0.526   0.421   3.607
  783HOH      O 2534   2.966   3.206   0.457
  783HOH     H1 2535   2.891   3.166   0.412
  783HOH     H2 2536   2.931   3.287   0.493
  784HOH      O 2537   1.907   3.150   0.596
  784HOH     H1 2538   1.823   3.104   0.593
  784HOH     H2 2539   1.908   3.193   0.681
  785HOH      O 2540   0.737   2.517   2.587
  785HOH     H1 2541   0.717   2.426   2.608
  785HOH     H2 2542   0.651   2.558   2.576
  786HOH      O 2543   2.320   2.448   0.009
  786HOH     H1 2544   2.254   2.505   0.048
  786HOH     H2 2545   2.399   2.466   0.058
  787HOH      O 2546   1.918   3.650   0.099
  787HOH     H1 2547   1.938   3.683   0.187
  787HOH     H2 2548   1.973   3.702   0.041
  788HOH      O 2549   3.715   0.135   3.304
  788HOH     H1 2550   3.779   0.191   3.349
  788HOH     H2 2551   3.644   0.193   3.281
  789HOH      O 2552   3.577   3.304   1.841
  789HOH     H1 2553   3.625   3.222   1.834
  789HOH     H2 2554   3.631   3.358   1.900
  790HOH      O 2555   1.883   3.374   3.042
  790HOH     H1 2556   1.900   3.334   3.128
  790HOH     H2 2557   1.917   3.311   2.979
  791HOH      O 2558   3.713   3.695   1.293
  791HOH     H1 2559   3.663   3.736   1.222
  791HOH     H2 2560   3.651   3.634   1.333
  792HOH      O 2561   0.545   0.381   2.535
  792HOH     H1 2562   0.473   0.383   2.598
  792HOH     H2 2563   0.593   0.300   2.555
  793HOH      O 2564   3.509   0.054   2.524
  793HOH     H1 2565   3.464  -0.018   2.569
  793HOH     H2 2566   3.439   0.114   2.500
  794HOH      O 2567   1.297   3.408   1.883
  794HOH     H1 2568   1.235   3.477   1.907
  794HOH     H2 2569   1.299   3.349   1.959
  795HOH      O 2570   1.108   2.806   0.393
  795HOH     H1 2571   1.199   2.834   0.407
  795HOH     H2 2572   1.108   2.767   0.306
  796HOH      O 2573   2.896   3.563   3.842
  796HOH     H1 2574   2.985   3.529   3.839
  796HOH     H2 2575   2.850   3.514   3.774
  797HOH      O 2576   0.719   1.604   2.432
  797HOH     H1 2577   0.652   1.635   2.493
  797HOH     H2 2578   0.795   1.586   2.487
  798HOH      O 2579   3.553   0.829   3.385
  798HOH     H1 2580   3.560   0.741   3.348
  798HOH     H2 2581   3.513   0.816   3.470
  799HOH      O 2582   1.776   1.169   1.994
  799HOH     H1 2583   1.770   1.104   1.925
  799HOH     H2 2584   1.803   1.250   1.949
  800HOH      O 2585   3.443   2.218   3.773
  800HOH     H1 2586   3.499   2.140   3.765
  800HOH     H2 2587   3.419   2.239   3.683
  801HOH      O 2588   0.057   1.148   3.755
  801HOH     H1 2589   0.043   1.152   3.850
  801HOH     H2 2590   0.034   1.058   3.732
  802HOH      O 2591   2.491   0.101   1.598
  802HOH     H1 2592   2.494   0.184   1.646
  802HOH     H2 2593   2.558   0.110   1.531
  803HOH      O 2594   2.154   3.029   0.512
  803HOH     H1 2595   2.063   3.054   0.531
  803HOH     H2 2596   2.178   2.969   0.582
  804HOH      O 2597   2.378   3.989   3.481
  804HOH     H1 2598   2.337   3.904   3.468
  804HOH     H2 2599   2.403   3.990   3.574
  805HOH      O 2600   2.246   3.260   1.066
  805HOH     H1 2601   2.189   3.183   1.056
  805HOH     H2 2602   2.248   3.277   1.160
  806HOH      O 2603   0.449   1.361   1.682
  806HOH     H1 2604   0.372   1.411   1.710
  806HOH     H2 2605   0.492   1.335   1.763
  807HOH      O 2606   3.707   2.910   0.263
  807HOH     H1 2607   3.645   2.975   0.231
  807HOH     H2 2608   3.750   2.877   0.184
  808HOH      O 2609   0.880   2.630   2.320
  808HOH     H1 2610   0.943   2.702   2.320
  808HOH     H2 2611   0.796   2.671   2.341
  809HOH      O 2612   2.405   1.266   0.893
  809HOH     H1 2613   2.465   1.197   0.920
  809HOH     H2 2614   2.328   1.254   0.950
  810HOH      O 2615   3.056   2.561   3.283
  810HOH     H1 2616   2.971   2.570   3.240
  810HOH     H2 2617   3.039   2.509   3.361
  811HOH      O 2618   2.759   3.973   0.456
  811HOH     H1 2619   2.796   3.887   0.438
  811HOH     H2 2620   2.766   4.020   0.372
  812HOH      O 2621   1.506   2.795   0.405
  812HOH     H1 2622   1.534   2.760   0.490
  812HOH     H2 2623   1.564   2.752   0.341
  813HOH      O 2624   0.692   2.836   2.425
  813HOH     H1 2625   0.638   2.914   2.441
  813HOH     H2 2626   0.765   2.845   2.486
  814HOH      O 2627   3.750   2.371   3.135
  814HOH     H1 2628   3.740   2.456   3.092
  814HOH     H2 2629   3.830   2.334   3.098
  815HOH      O 2630   2.534   0.538   3.162
  815HOH     H1 2631   2.594   0.471   3.130
  815HOH     H2 2632   2.498   0.578   3.082
  816HOH      O 2633   0.735   0.391   0.852
  816HOH     H1 2634   0.765   0.439   0.775
  816HOH     H2 2635   0.812   0.388   0.910
  817HOH      O 2636   1.687   1.021   2.946
  817HOH     H1 2637   1.775   1.059   2.937
  817HOH     H2 2638   1.632   1.075   2.890
  818HOH      O 2639   1.296   3.031   3.982
  818HOH     H1 2640   1.289   2.967   4.052
  818HOH     H2 2641   1.345   2.986   3.913
  819HOH      O 2642   0.975   2.335   2.727
  819HOH     H1 2643   1.001   2.400   2.662
  819HOH     H2 2644   0.910   2.281   2.683
  820HOH      O 2645   1.786   0.962   1.791
  820HOH     H1 2646   1.850   1.007   1.736
  820HOH     H2 2647   1.711   0.947   1.732
  821HOH      O 2648   0.234   0.813   2.247
  821HOH     H1 2649   0.218   0.760   2.168
  821HOH     H2 2650   0.218   0.753   2.320
  822HOH      O 2651   1.215   1.316   0.992
  822HOH     H1 2652   1.212   1.221   0.993
  822HOH     H2 2653   1.255   1.338   0.908
  823HOH      O 2654   0.293   1.199   0.603
  823HOH     H1 2655   0.302   1.115   0.559
  823HOH     H2 2656   0.313   1.264   0.536
  824HOH      O 2657   2.666   3.961   2.753
  824HOH     H1 2658   2.682   3.882   2.701
  824HOH     H2 2659   2.592   3.938   2.810
  825HOH      O 2660   2.730   0.697   3.787
  825HOH     H1 2661   2.746   0.663   3.875
  825HOH     H2 2662   2.649   0.654   3.759
  826HOH      O 2663   3.560   2.386   0.117
  826HOH     H1 2664   3.588   2.465   0.163
  826HOH     H2 2665   3.465   2.393   0.113
  827HOH      O 2666   3.194   2.430   1.098
  827HOH     H1 2667   3.254   2.444   1.172
  827HOH     H2 2668   3.248   2.391   1.030
  828HOH      O 2669   2.609   3.424   2.437
  828HOH     H1 2670   2.681   3.434   2.374
  828HOH     H2 2671   2.531   3.412   2.382
  829HOH      O 2672   2.691   2.107   1.002
  829HOH     H1 2673   2.719   2.035   0.946
  829HOH     H2 2674   2.771   2.139   1.043
  830HOH      O 2675   3.831   3.383   3.201
  830HOH     H1 2676   3.916   3.405   3.240
  830HOH     H2 2677   3.852   3.354   3.112
  831HOH      O 2678   0.072   1.686   1.559
  831HOH     H1 2679   0.031   1.653   1.479
  831HOH     H2 2680   0.137   1.748   1.529
  832HOH      O 2681   2.283   0.313   1.878
  832HOH     H1 2682   2.324   0.373   1.816
  832HOH     H2 2683   2.248   0.243   1.824
  833HOH      O 2684   3.380   1.691   2.224
  833HOH     H1 2685   3.397   1.771   2.275
  833HOH     H2 2686   3.340   1.632   2.287
  834HOH      O 2687   3.193   1.811   2.009
  834HOH     H1 2688   3.283   1.783   2.023
  834HOH     H2 2689   3.155   1.741   1.955
  835HOH      O 2690   3.413   0.866   1.695
  835HOH     H1 2691   3.488   0.918   1.725
  835HOH     H2 2692   3.428   0.855   1.601
  836HOH      O 2693   1.430   0.747   0.282
  836HOH     H1 2694   1.479   0.675   0.322
  836HOH     H2 2695   1.448   0.740   0.188
  837HOH      O 2696   1.703   2.597   1.687
  837HOH     H1 2697   1.771   2.664   1.691
  837HOH     H2 2698   1.741   2.527   1.634
  838HOH      O 2699   3.601   1.247   0.371
  838HOH     H1 2700   3.603   1.311   0.443
  838HOH     H2 2701   3.687   1.255   0.331
  839HOH      O 2702   0.045   3.380   3.306
  839HOH     H1 2703   0.129   3.360   3.348
  839HOH     H2 2704   0.066   3.391   3.214
  840HOH      O 2705   0.287   2.793   2.586
  840HOH     H1 2706   0.231   2.717   2.571
  840HOH     H2 2707   0.301   2.830   2.499
  841HOH      O 2708   2.091   0.105   2.957
  841HOH     H1 2709   2.025   0.166   2.926
  841HOH     H2 2710   2.128   0.068   2.877
  842HOH      O 2711   3.379   2.616   2.010
  842HOH     H1 2712   3.419   2.551   2.068
  842HOH     H2 2713   3.369   2.569   1.927
  843HOH      O 2714   1.993   0.489   1.673
  843HOH     H1 2715   1.923   0.536   1.627
  843HOH     H2 2716   1.947   0.440   1.741
  844HOH      O 2717   3.465   2.538   3.845
  844HOH     H1 2718   3.404   2.505   3.779
  844HOH     H2 2719   3.415   2.605   3.892
  845HOH      O 2720   1.628   3.219   1.850
  845HOH     H1 2721   1.624   3.291   1.913
  845HOH     H2 2722   1.674   3.255   1.775
  846HOH      O 2723   3.435   3.406   2.962
  846HOH     H1 2724   3.517   3.376   2.922
  846HOH     H2 2725   3.401   3.328   3.006
  847HOH      O 2726   3.508   3.368   0.452
  847HOH     H1 2727   3.527   3.412   0.370
  847HOH     H2 2728   3.414   3.381   0.465
  848HOH      O 2729   2.830   3.670   1.241
  848HOH     H1 2730   2.765   3.716   1.295
  848HOH     H2 2731   2.779   3.621   1.177
  849HOH      O 2732   3.921   3.580   2.928
  849HOH     H1 2733   3.832   3.560   2.958
  849HOH     H2 2734   3.935   3.521   2.854
  850HOH      O 2735   2.634   1.258   2.164
  850HOH     H1 2736   2.691   1.181   2.166
  850HOH     H2 2737   2.676   1.317   2.101
  851HOH      O 2738   1.225   3.480   3.726
  851HOH     H1 2739   1.173   3.400   3.716
  851HOH     H2 2740   1.282   3.462   3.801
  852HOH      O 2741   3.034   2.600   3.633
  852HOH     H1 2742   2.995   2.593   3.721
  852HOH     H2 2743   3.044   2.694   3.619
  853HOH      O 2744   0.913   3.959   0.941
  853HOH     H1 2745   0.838   4.018   0.945
  853HOH     H2 2746   0.883   3.886   0.886
  854HOH      O 2747   1.907   2.606   0.032
  854HOH     H1 2748   1.842   2.676   0.030
  854HOH     H2 2749   1.921   2.584  -0.060
  855HOH      O 2750   1.803   2.892   1.704
  855HOH     H1 2751   1.870   2.960   1.714
  855HOH     H2 2752   1.802   2.846   1.788
  856HOH      O 2753   0.614   0.958   0.129
  856HOH     H1 2754   0.690   0.947   0.072
  856HOH     H2 2755   0.565   1.030   0.089
  857HOH      O 2756   3.170   0.029   3.716
  857HOH     H1 2757   3.213  -0.051   3.747
  857HOH     H2 2758   3.222   0.055   3.639
  858HOH      O 2759   3.440   1.900   4.028
  858HOH     H1 2760   3.430   1.886   3.934
  858HOH     H2 2761   3.474   1.990   4.035
  859HOH      O 2762   2.318   2.034   0.831
  859HOH     H1 2763   2.353   1.961   0.882
  859HOH     H2 2764   2.396   2.076   0.794
  860HOH      O 2765   1.209   3.674   2.890
  860HOH     H1 2766   1.226   3.742   2.955
  860HOH     H2 2767   1.114   3.670   2.884
  861HOH      O 2768   2.421   0.807   3.066
  861HOH     H1 2769   2.371   0.887   3.048
  861HOH     H2 2770   2.396   0.782   3.155
  862HOH      O 2771   3.432   3.855   1.361
  862HOH     H1 2772   3.478   3.910   1.297
  862HOH     H2 2773   3.386   3.790   1.308
  863HOH      O 2774   3.598   0.393   1.091
  863HOH     H1 2775   3.678   0.442   1.069
  863HOH     H2 2776   3.558   0.376   1.006
  864HOH      O 2777   2.917   1.515   1.838
  864HOH     H1 2778   2.988   1.533   1.900
  864HOH     H2 2779   2.955   1.533   1.753
  865HOH      O 2780   1.768   0.099   1.000
  865HOH     H1 2781   1.794   0.168   1.061
  865HOH     H2 2782   1.845   0.085   0.945
  866HOH      O 2783   0.307   1.784   2.581
  866HOH     H1 2784   0.351   1.718   2.528
  866HOH     H2 2785   0.369   1.801   2.653
  867HOH      O 2786   0.457   2.470   0.078
  867HOH     H1 2787   0.399   2.395   0.066
  867HOH     H2 2788   0.541   2.431   0.102
  868HOH      O 2789   3.189   0.412   3.860
  868HOH     H1 2790   3.277   0.432   3.891
  868HOH     H2 2791   3.198   0.405   3.765
  869HOH      O 2792   1.725   2.778   3.991
  869HOH     H1 2793   1.637   2.763   4.027
  869HOH     H2 2794   1.710   2.827   3.910
  870HOH      O 2795   1.937   0.314   2.817
  870HOH     H1 2796   1.871   0.343   2.755
  870HOH     H2 2797   1.970   0.395   2.857
  871HOH      O 2798   3.016   3.754   0.996
  871HOH     H1 2799   3.055   3.829   0.951
  871HOH     H2 2800   3.045   3.763   1.087
  872HOH      O 2801   1.525   2.903   2.695
  872HOH     H1 2802   1.468   2.978   2.712
  872HOH     H2 2803   1.479   2.829   2.734
  873HOH      O 2804   1.523   2.053   0.058
  873HOH     H1 2805   1.507   1.958   0.058
  873HOH     H2 2806   1.511   2.079  -0.033
  874HOH      O 2807   0.492   3.068   2.702
  874HOH     H1 2808   0.415   3.125   2.709
  874HOH     H2 2809   0.523   3.080   2.613
  875HOH      O 2810   1.096   1.384   0.509
  875HOH     H1 2811   1.075   1.475   0.489
  875HOH     H2 2812   1.019   1.335   0.481
  876HOH      O 2813   2.058   1.305   3.420
  876HOH     H1 2814   2.106   1.373   3.468
  876HOH     H2 2815   2.085   1.223   3.461
  877HOH      O 2816   1.572   1.459   2.850
  877HOH     H1 2817   1.550   1.366   2.844
  877HOH     H2 2818   1.498   1.497   2.898
  878HOH      O 2819   3.686   1.424   2.599
  878HOH     H1 2820   3.606   1.371   2.592
  878HOH     H2 2821   3.732   1.386   2.673
  879HOH      O 2822   2.430   1.523   0.740
  879HOH     H1 2823   2.411   1.465   0.813
  879HOH     H2 2824   2.345   1.542   0.701
  880HOH      O 2825   2.844   0.576   2.304
  880HOH     H1 2826   2.842   0.578   2.399
  880HOH     H2 2827   2.899   0.650   2.279
  881HOH      O 2828   3.709   1.831   0.055
  881HOH     H1 2829   3.617   1.847   0.075
  881HOH     H2 2830   3.707   1.774  -0.022
  882HOH      O 2831   2.218   3.033   1.316
  882HOH     H1 2832   2.183   3.122   1.315
  882HOH     H2 2833   2.311   3.045   1.338
  883HOH      O 2834   1.435   1.747   1.478
  883HOH     H1 2835   1.513   1.717   1.431
  883HOH     H2 2836   1.469   1.779   1.562
  884HOH      O 2837   0.541   1.367   1.138
  884HOH     H1 2838   0.487   1.294   1.168
  884HOH     H2 2839   0.479   1.437   1.120
  885HOH      O 2840   0.392   1.697   0.112
  885HOH     H1 2841   0.436   1.737   0.188
  885HOH     H2 2842   0.316   1.753   0.096
  886HOH      O 2843   1.320   1.903   1.254
  886HOH     H1 2844   1.404   1.949   1.255
  886HOH     H2 2845   1.336   1.822   1.302
  887HOH      O 2846   1.981   3.936   3.435
  887HOH     H1 2847   1.968   3.999   3.364
  887HOH     H2 2848   1.987   3.990   3.514
  888HOH      O 2849   2.045   1.745   0.208
  888HOH     H1 2850   2.088   1.801   0.272
  888HOH     H2 2851   2.085   1.659   0.221
  889HOH      O 2852   0.975   3.319   3.170
  889HOH     H1 2853   0.922   3.398   3.162
  889HOH     H2 2854   0.970   3.297   3.263
  890HOH      O 2855   2.546   0.183   3.118
  890HOH     H1 2856   2.456   0.200   3.093
  890HOH     H2 2857   2.545   0.094   3.154
  891HOH      O 2858   2.645   0.528   3.423
  891HOH     H1 2859   2.573   0.539   3.361
  891HOH     H2 2860   2.604   0.540   3.509
  892HOH      O 2861   3.648   3.493   0.972
  892HOH     H1 2862   3.728   3.441   0.971
  892HOH     H2 2863   3.594   3.455   0.902
  893HOH      O 2864   0.917   3.923   0.347
  893HOH     H1 2865   0.882   3.881   0.268
  893HOH     H2 2866   0.853   3.990   0.369
  894HOH      O 2867   0.454   0.136   1.283
  894HOH     H1 2868   0.439   0.133   1.189
  894HOH     H2 2869   0.383   0.191   1.317
  895HOH      O 2870   3.938   3.773   1.600
  895HOH     H1 2871   3.952   3.725   1.681
  895HOH     H2 2872   3.848   3.807   1.608
  896HOH      O 2873   1.209   1.736   2.785
  896HOH     H1 2874   1.170   1.782   2.710
  896HOH     H2 2875   1.136   1.724   2.846
  897HOH      O 2876   2.948   0.761   1.305
  897HOH     H1 2877   2.983   0.754   1.394
  897HOH     H2 2878   2.853   0.758   1.317
  898HOH      O 2879   3.411   0.775   3.039
  898HOH     H1 2880   3.397   0.792   3.132
  898HOH     H2 2881   3.337   0.815   2.995
  899HOH      O 2882   1.354   4.027   0.234
  899HOH     H1 2883   1.386   4.014   0.323
  899HOH     H2 2884   1.411   3.972   0.180
  900HOH      O 2885   2.586   1.843   2.101
  900HOH     H1 2886   2.647   1.790   2.051
  900HOH     H2 2887   2.584   1.803   2.188
  901HOH      O 2888   1.676   2.136   1.636
  901HOH     H1 2889   1.600   2.118   1.582
  901HOH     H2 2890   1.719   2.210   1.593
  902HOH      O 2891   3.065   3.179   2.736
  902HOH     H1 2892   3.048   3.271   2.717
  902HOH     H2 2893   3.157   3.166   2.711
  903HOH      O 2894   3.873   3.427   1.574
  903HOH     H1 2895   3.938   3.456   1.637
  903HOH     H2 2896   3.799   3.486   1.586
  904HOH      O 2897   0.464   1.142   1.498
  904HOH     H1 2898   0.452   1.221   1.550
  904HOH     H2 2899   0.386   1.089   1.517
  905HOH      O 2900   1.816   2.111   1.286
  905HOH     H1 2901   1.793   2.203   1.277
  905HOH     H2 2902   1.871   2.108   1.364
  906HOH      O 2903   1.671   0.727   2.137
  906HOH     H1 2904   1.642   0.819   2.143
  906HOH     H2 2905   1.761   0.733   2.103
  907HOH      O 2906   1.409   0.797   3.297
  907HOH     H1 2907   1.421   0.875   3.352
  907HOH     H2 2908   1.442   0.824   3.211
  908HOH      O 2909   0.368   3.470   2.194
  908HOH     H1 2910   0.386   3.530   2.122
  908HOH     H2 2911   0.398   3.384   2.163
  909HOH      O 2912   3.470   2.607   0.457
  909HOH     H1 2913   3.560   2.601   0.425
  909HOH     H2 2914   3.425   2.659   0.390
  910HOH      O 2915   3.882   0.698   2.584
  910HOH     H1 2916   3.826   0.643   2.639
  910HOH     H2 2917   3.821   0.754   2.536
  911HOH      O 2918   3.499   3.233   2.176
  911HOH     H1 2919   3.466   3.155   2.220
  911HOH     H2 2920   3.459   3.230   2.089
  912HOH      O 2921   1.224   1.274   0.059
  912HOH     H1 2922   1.310   1.266   0.017
  912HOH     H2 2923   1.175   1.198   0.028
  913HOH      O 2924   2.433   1.864   3.479
  913HOH     H1 2925   2.510   1.906   3.519
  913HOH     H2 2926   2.361   1.889   3.537
  914HOH      O 2927   2.975   2.175   0.905
  914HOH     H1 2928   2.964   2.266   0.875
  914HOH     H2 2929   3.053   2.145   0.860
  915HOH      O 2930   3.124   3.777   2.885
  915HOH     H1 2931   3.089   3.736   2.964
  915HOH     H2 2932   3.131   3.870   2.907
  916HOH      O 2933   2.120   2.244   1.687
  916HOH     H1 2934   2.210   2.269   1.709
  916HOH     H2 2935   2.066   2.312   1.728
  917HOH      O 2936   2.135   1.852   1.397
  917HOH     H1 2937   2.198   1.790   1.434
  917HOH     H2 2938   2.182   1.893   1.324
  918HOH      O 2939   1.684   0.958   0.676
  918HOH     H1 2940   1.725   0.919   0.599
  918HOH     H2 2941   1.611   1.009   0.641
  919HOH      O 2942   3.691   0.295   2.198
  919HOH     H1 2943   3.633   0.298   2.274
  919HOH     H2 2944   3.764   0.352   2.221
  920HOH      O 2945   2.637   2.962   2.113
  920HOH     H1 2946   2.655   2.908   2.036
  920HOH     H2 2947   2.562   2.919   2.155
  921HOH      O 2948   0.346   3.299   0.035
  921HOH     H1 2949   0.440   3.289   0.048
  921HOH     H2 2950   0.327   3.389   0.062
  922HOH      O 2951   0.993   0.840   0.666
  922HOH     H1 2952   0.964   0.926   0.637
  922HOH     H2 2953   0.990   0.845   0.762
  923HOH      O 2954   1.373   0.842   0.964
  923HOH     H1 2955   1.402   0.796   0.886
  923HOH     H2 2956   1.364   0.774   1.030
  924HOH      O 2957   0.828   1.039   3.983
  924HOH     H1 2958   0.752   1.061   3.929
  924HOH     H2 2959   0.885   0.988   3.926
  925HOH      O 2960   3.813   3.069   1.187
  925HOH     H1 2961   3.888   3.093   1.132
  925HOH     H2 2962   3.810   3.137   1.254
  926HOH      O 2963   1.543   2.158   1.909
  926HOH     H1 2964   1.587   2.171   1.825
  926HOH     H2 2965   1.454   2.133   1.886
  927HOH      O 2966   3.716   2.608   0.310
  927HOH     H1 2967   3.797   2.566   0.340
  927HOH     H2 2968   3.737   2.702   0.312
  928HOH      O 2969   1.068   2.311   3.722
  928HOH     H1 2970   1.068   2.242   3.656
  928HOH     H2 2971   1.077   2.264   3.805
  929HOH      O 2972   2.868   3.541   0.432
  929HOH     H1 2973   2.843   3.576   0.518
  929HOH     H2 2974   2.797   3.482   0.408
  930HOH      O 2975   3.891   1.541   3.570
  930HOH     H1 2976   3.872   1.453   3.539
  930HOH     H2 2977   3.855   1.598   3.502
  931HOH      O 2978   0.892   2.188   3.291
  931HOH     H1 2979   0.801   2.164   3.276
  931HOH     H2 2980   0.889   2.281   3.313
  932HOH      O 2981   2.496   1.714   0.314
  932HOH     H1 2982   2.432   1.740   0.379
  932HOH     H2 2983   2.560   1.785   0.313
  933HOH      O 2984   3.929   1.255   3.556
  933HOH     H1 2985   3.975   1.219   3.631
  933HOH     H2 2986   3.862   1.190   3.535
  934HOH      O 2987   0.901   2.888   2.580
  934HOH     H1 2988   0.944   2.910   2.497
  934HOH     H2 2989   0.960   2.922   2.647
  935HOH      O 2990   3.708   2.006   1.020
  935HOH     H1 2991   3.717   2.068   0.947
  935HOH     H2 2992   3.762   1.931   0.994
  936HOH      O 2993   1.434   2.809   3.484
  936HOH     H1 2994   1.457   2.898   3.456
  936HOH     H2 2995   1.448   2.810   3.579
  937HOH      O 2996   1.460   2.076   1.503
  937HOH     H1 2997   1.465   2.007   1.438
  937HOH     H2 2998   1.372   2.068   1.540
  938HOH      O 2999   2.623   2.764   3.014
  938HOH     H1 3000   2.704   2.746   2.967
  938HOH     H2 3001   2.639   2.849   3.057
  939HOH      O 3002   1.510   1.524   0.067
  939HOH     H1 3003   1.516   1.489   0.156
  939HOH     H2 3004   1.482   1.450   0.013
  940HOH      O 3005   0.997   2.261   1.383
  940HOH     H1 3006   1.030   2.318   1.453
  940HOH     H2 3007   1.065   2.194   1.372
  941HOH      O 3008   1.369   2.198   3.608
  941HOH     H1 3009   1.372   2.106   3.634
  941HOH     H2 3010   1.282   2.210   3.571
  942HOH      O 3011   1.061   1.220   2.772
  942HOH     H1 3012   1.091   1.176   2.693
  942HOH     H2 3013   1.025   1.151   2.826
  943HOH      O 3014   2.274   2.611   3.352
  943HOH     H1 3015   2.251   2.694   3.394
  943HOH     H2 3016   2.316   2.636   3.269
  944HOH      O 3017   1.610   0.539   0.222
  944HOH     H1 3018   1.623   0.447   0.245
  944HOH     H2 3019   1.551   0.537   0.146
  945HOH      O 3020   0.893   3.151   0.303
  945HOH     H1 3021   0.981   3.159   0.337
  945HOH     H2 3022   0.877   3.056   0.300
  946HOH      O 3023   3.091   0.016   0.986
  946HOH     H1 3024   3.170   0.051   1.027
  946HOH     H2 3025   3.116   0.001   0.895
  947HOH      O 3026   2.728   0.306   3.257
  947HOH     H1 3027   2.650   0.265   3.218
  947HOH     H2 3028   2.695   0.386   3.297
  948HOH      O 3029   0.804   3.858   3.087
  948HOH     H1 3030   0.879   3.815   3.126
  948HOH     H2 3031   0.837   3.895   3.005
  949HOH      O 3032   2.134   3.317   0.146
  949HOH     H1 3033   2.062   3.256   0.129
  949HOH     H2 3034   2.186   3.273   0.214
  950HOH      O 3035   0.654   3.532   3.600
  950HOH     H1 3036   0.585   3.597   3.587
  950HOH     H2 3037   0.606   3.450   3.614
  951HOH      O 3038   3.989   2.264   3.016
  951HOH     H1 3039   4.028   2.333   2.963
  951HOH     H2 3040   4.029   2.183   2.982
  952HOH      O 3041   0.402   3.402   3.238
  952HOH     H1 3042   0.469   3.336   3.220
  952HOH     H2 3043   0.376   3.385   3.329
  953HOH      O 3044   3.357   3.766   1.970
  953HOH     H1 3045   3.375   3.697   1.908
  953HOH     H2 3046   3.322   3.838   1.918
  954HOH      O 3047   2.325   2.098   3.122
  954HOH     H1 3048   2.283   2.143   3.049
  954HOH     H2 3049   2.410   2.140   3.131
  955HOH      O 3050   2.604   2.157   3.604
  955HOH     H1 3051   2.519   2.201   3.599
  955HOH     H2 3052   2.588   2.081   3.660
  956HOH      O 3053   3.844   2.822   1.309
  956HOH     H1 3054   3.883   2.748   1.264
  956HOH     H2 3055   3.851   2.895   1.247
  957HOH      O 3056   0.531   1.667   2.692
  957HOH     H1 3057   0.543   1.695   2.783
  957HOH     H2 3058   0.467   1.597   2.696
  958HOH      O 3059   3.614   2.643   3.171
  958HOH     H1 3060   3.585   2.601   3.252
  958HOH     H2 3061   3.607   2.737   3.189
  959HOH      O 3062   1.771   1.630   3.111
  959HOH     H1 3063   1.781   1.603   3.020
  959HOH     H2 3064   1.677   1.623   3.128
  960HOH      O 3065   2.958   2.989   3.487
  960HOH     H1 3066   3.006   2.944   3.555
  960HOH     H2 3067   2.941   2.922   3.420
  961HOH      O 3068   3.973   0.209   2.480
  961HOH     H1 3069   4.023   0.151   2.423
  961HOH     H2 3070   4.024   0.291   2.482
  962HOH      O 3071   3.730   3.978   2.208
  962HOH     H1 3072   3.688   4.043   2.152
  962HOH     H2 3073   3.681   3.897   2.193
  963HOH      O 3074   0.491   2.973   1.517
  963HOH     H1 3075   0.510   2.951   1.425
  963HOH     H2 3076   0.567   2.941   1.565
  964HOH      O 3077   0.512   2.532   1.000
  964HOH     H1 3078   0.571   2.541   1.076
  964HOH     H2 3079   0.538   2.449   0.960
  965HOH      O 3080   3.819   3.705   3.786
  965HOH     H1 3081   3.724   3.703   3.770
  965HOH     H2 3082   3.851   3.777   3.731
  966HOH      O 3083   3.581   3.784   3.295
  966HOH     H1 3084   3.502   3.740   3.325
  966HOH     H2 3085   3.603   3.741   3.212
  967HOH      O 3086   0.369   3.157   2.256
  967HOH     H1 3087   0.281   3.195   2.259
  967HOH     H2 3088   0.401   3.179   2.168
  968HOH      O 3089   1.627   2.440   3.971
  968HOH     H1 3090   1.630   2.399   4.057
  968HOH     H2 3091   1.694   2.394   3.921
  969HOH      O 3092   3.384   2.533   1.298
  969HOH     H1 3093   3.371   2.550   1.392
  969HOH     H2 3094   3.435   2.607   1.267
  970HOH      O 3095   1.503   2.769   0.677
  970HOH     H1 3096   1.519   2.833   0.747
  970HOH     H2 3097   1.428   2.718   0.708
  971HOH      O 3098   1.945   1.376   2.711
  971HOH     H1 3099   1.942   1.298   2.655
  971HOH     H2 3100   2.035   1.378   2.744
  972HOH      O 3101   3.307   1.579   1.427
  972HOH     H1 3102   3.263   1.617   1.351
  972HOH     H2 3103   3.373   1.520   1.389
  973HOH      O 3104   2.399   2.856   0.447
  973HOH     H1 3105   2.308   2.844   0.473
  973HOH     H2 3106   2.448   2.796   0.503
  974HOH      O 3107   1.927   0.785   2.048
  974HOH     H1 3108   1.958   0.874   2.065
  974HOH     H2 3109   2.004   0.738   2.014
  975HOH      O 3110   0.327   3.347   3.479
  975HOH     H1 3111   0.400   3.304   3.524
  975HOH     H2 3112   0.323   3.434   3.519
  976HOH      O 3113   0.452   2.093   0.701
  976HOH     H1 3114   0.382   2.062   0.644
  976HOH     H2 3115   0.525   2.110   0.642
  977HOH      O 3116   2.139   3.310   3.836
  977HOH     H1 3117   2.046   3.327   3.820
  977HOH     H2 3118   2.175   3.394   3.865
  978HOH      O 3119   1.035   4.004   1.307
  978HOH     H1 3120   1.014   3.924   1.259
  978HOH     H2 3121   1.119   3.985   1.349
  979HOH      O 3122   0.888   3.166   0.611
  979HOH     H1 3123   0.847   3.162   0.525
  979HOH     H2 3124   0.820   3.200   0.669
  980HOH      O 3125   3.735   3.568   3.412
  980HOH     H1 3126   3.813   3.624   3.409
  980HOH     H2 3127   3.763   3.489   3.459
  981HOH      O 3128   3.380   2.985   0.973
  981HOH     H1 3129   3.464   3.018   1.006
  981HOH     H2 3130   3.405   2.918   0.909
  982HOH      O 3131   1.931   2.519   0.441
  982HOH     H1 3132   1.959   2.552   0.527
  982HOH     H2 3133   1.931   2.424   0.451
  983HOH      O 3134   2.182   2.777   1.407
  983HOH     H1 3135   2.199   2.869   1.387
  983HOH     H2 3136   2.238   2.729   1.346
  984HOH      O 3137   3.263   1.267   2.055
  984HOH     H1 3138   3.268   1.271   1.960
  984HOH     H2 3139   3.219   1.184   2.074
  985HOH      O 3140   0.685   0.033   3.289
  985HOH     H1 3141   0.748   0.038   3.217
  985HOH     H2 3142   0.643   0.119   3.291
  986HOH      O 3143   3.201   1.083   2.429
  986HOH     H1 3144   3.146   1.158   2.405
  986HOH     H2 3145   3.213   1.091   2.524
  987HOH      O 3146   0.273   0.924   2.967
  987HOH     H1 3147   0.335   0.855   2.942
  987HOH     H2 3148   0.291   0.941   3.059
  988HOH      O 3149   3.805   0.752   1.699
  988HOH     H1 3150   3.868   0.754   1.627
  988HOH     H2 3151   3.720   0.746   1.655
  989HOH      O 3152   1.067   1.312   3.049
  989HOH     H1 3153   1.086   1.273   2.964
  989HOH     H2 3154   1.075   1.240   3.111
  990HOH      O 3155   3.534   0.542   1.336
  990HOH     H1 3156   3.599   0.475   1.358
  990HOH     H2 3157   3.580   0.600   1.275
  991HOH      O 3158   0.393   2.743   0.823
  991HOH     H1 3159   0.300   2.729   0.839
  991HOH     H2 3160   0.437   2.679   0.879
  992HOH      O 3161   2.330   1.358   1.951
  992HOH     H1 3162   2.359   1.280   1.903
  992HOH     H2 3163   2.343   1.335   2.043
  993HOH      O 3164   1.035   1.049   0.297
  993HOH     H1 3165   1.017   1.051   0.203
  993HOH     H2 3166   1.050   0.957   0.317
  994HOH      O 3167   2.998   2.252   3.711
  994HOH     H1 3168   2.953   2.175   3.745
  994HOH     H2 3169   3.038   2.222   3.629
  995HOH      O 3170   2.518   1.147   1.860
  995HOH     H1 3171   2.572   1.223   1.879
  995HOH     H2 3172   2.503   1.151   1.766
  996HOH      O 3173   1.653   3.951   3.995
  996HOH     H1 3174   1.605   3.926   4.074
  996HOH     H2 3175   1.680   4.041   4.012
  997HOH      O 3176   0.689   2.896   3.768
  997HOH     H1 3177   0.686   2.821   3.709
  997HOH     H2 3178   0.741   2.961   3.723
  998HOH      O 3179   0.061   3.100   1.786
  998HOH     H1 3180   0.058   3.044   1.708
  998HOH     H2 3181   0.042   3.040   1.858
  999HOH      O 3182   2.591   2.133   3.174
  999HOH     H1 3183   2.670   2.134   3.229
  999HOH     H2 3184   2.624   2.115   3.086
 1000HOH      O 3185   3.072   3.799   1.263
 1000HOH     H1 3186   3.063   3.855   1.340
 1000HOH     H2 3187   2.992   3.747   1.262
 1001HOH      O 3188   1.945   3.172   3.233
 1001HOH     H1 3189   1.972   3.166   3.325
 1001HOH     H2 3190   2.024   3.147   3.184
 1002HOH      O 3191   0.869   1.270   0.070
 1002HOH     H1 3192   0.783   1.298   0.101
 1002HOH     H2 3193   0.855   1.182   0.037
 1003HOH      O 3194   1.969   3.825   1.334
 1003HOH     H1 3195   1.881   3.859   1.351
 1003HOH     H2 3196   2.018   3.900   1.300
 1004HOH      O 3197   2.419   2.657   0.654
 1004HOH     H1 3198   2.407   2.562   0.654
 1004HOH     H2 3199   2.507   2.670   0.689
 1005HOH      O 3200   1.143   3.251   2.613
 1005HOH     H1 3201   1.052   3.225   2.618
 1005HOH     H2 3202   1.154   3.286   2.525
 1006HOH      O 3203   2.397   0.875   3.355
 1006HOH     H1 3204   2.348   0.926   3.420
 1006HOH     H2 3205   2.482   0.919   3.351
 1007HOH      O 3206   0.433   2.705   2.812
 1007HOH     H1 3207   0.379   2.751   2.749
 1007HOH     H2 3208   0.520   2.744   2.803
 1008HOH      O 3209   1.655   3.260   2.569
 1008HOH     H1 3210   1.747   3.241   2.587
 1008HOH     H2 3211   1.648   3.260   2.474
 1009HOH      O 3212   1.201   2.998   1.748
 1009HOH     H1 3213   1.247   3.075   1.714
 1009HOH     H2 3214   1.213   3.003   1.843
 1010HOH      O 3215   1.189   3.655   3.511
 1010HOH     H1 3216   1.203   3.591   3.580
 1010HOH     H2 3217   1.116   3.620   3.460
 1011HOH      O 3218   1.272   3.022   1.289
 1011HOH     H1 3219   1.211   3.075   1.340
 1011HOH     H2 3220   1.229   3.009   1.205
 1012HOH      O 3221   0.528   2.482   3.260
 1012HOH     H1 3222   0.601   2.488   3.198
 1012HOH     H2 3223   0.452   2.512   3.210
 1013HOH      O 3224   1.489   0.772   1.334
 1013HOH     H1 3225   1.559   0.707   1.326
 1013HOH     H2 3226   1.417   0.725   1.377
 1014HOH      O 3227   2.146   3.209   2.232
 1014HOH     H1 3228   2.067   3.258   2.206
 1014HOH     H2 3229   2.149   3.135   2.172
 1015HOH      O 3230   1.238   3.041   2.359
 1015HOH     H1 3231   1.198   3.107   2.416
 1015HOH     H2 3232   1.283   3.093   2.292
 1016HOH      O 3233   3.169   2.424   0.667
 1016HOH     H1 3234   3.141   2.491   0.730
 1016HOH     H2 3235   3.103   2.355   0.674
 1017HOH      O 3236   0.227   1.384   0.990
 1017HOH     H1 3237   0.157   1.319   0.979
 1017HOH     H2 3238   0.308   1.333   0.991
 1018HOH      O 3239   2.568   3.015   3.103
 1018HOH     H1 3240   2.485   2.991   3.062
 1018HOH     H2 3241   2.591   3.099   3.064
 1019HOH      O 3242   1.370   1.313   2.253
 1019HOH     H1 3243   1.434   1.359   2.197
 1019HOH     H2 3244   1.288   1.361   2.238
 1020HOH      O 3245   0.190   1.495   1.716
 1020HOH     H1 3246   0.149   1.560   1.660
 1020HOH     H2 3247   0.180   1.530   1.805
 1021HOH      O 3248   1.715   3.649   2.948
 1021HOH     H1 3249   1.673   3.735   2.947
 1021HOH     H2 3250   1.644   3.588   2.966
 1022HOH      O 3251   3.433   1.980   2.605
 1022HOH     H1 3252   3.431   2.059   2.658
 1022HOH     H2 3253   3.437   1.908   2.668
 1023HOH      O 3254   2.279   1.550   3.090
 1023HOH     H1 3255   2.250   1.578   3.003
 1023HOH     H2 3256   2.328   1.625   3.123
 1024HOH      O 3257   1.758   3.432   1.699
 1024HOH     H1 3258   1.823   3.502   1.704
 1024HOH     H2 3259   1.674   3.478   1.698
 1025HOH      O 3260   3.744   3.941   0.477
 1025HOH     H1 3261   3.765   4.010   0.540
 1025HOH     H2 3262   3.765   3.860   0.523
 1026HOH      O 3263   0.412   3.206   0.439
 1026HOH     H1 3264   0.497   3.236   0.407
 1026HOH     H2 3265   0.350   3.268   0.401
 1027HOH      O 3266   1.880   2.529   2.881
 1027HOH     H1 3267   1.910   2.449   2.839
 1027HOH     H2 3268   1.924   2.599   2.834
 1028HOH      O 3269   3.982   2.705   3.124
 1028HOH     H1 3270   3.905   2.687   3.071
 1028HOH     H2 3271   3.949   2.717   3.213
 1029HOH      O 3272   0.316   3.109   3.719
 1029HOH     H1 3273   0.257   3.181   3.743
 1029HOH     H2 3274   0.326   3.058   3.799
 1030HOH      O 3275   2.572   3.607   0.325
 1030HOH     H1 3276   2.489   3.609   0.279
 1030HOH     H2 3277   2.582   3.515   0.352
 1031HOH      O 3278   4.022   1.890   3.070
 1031HOH     H1 3279   3.955   1.881   3.138
 1031HOH     H2 3280   4.036   1.801   3.038
 1032HOH      O 3281   0.332   3.734   0.460
 1032HOH     H1 3282   0.271   3.773   0.398
 1032HOH     H2 3283   0.388   3.806   0.487
 1033HOH      O 3284   3.390   3.526   3.609
 1033HOH     H1 3285   3.460   3.577   3.649
 1033HOH     H2 3286   3.373   3.569   3.525
 1034HOH      O 3287   3.119   2.835   0.759
 1034HOH     H1 3288   3.137   2.772   0.829
 1034HOH     H2 3289   3.186   2.817   0.693
 1035HOH      O 3290   2.167   0.937   2.156
 1035HOH     H1 3291   2.260   0.925   2.133
 1035HOH     H2 3292   2.148   1.026   2.126
 1036HOH      O 3293   2.821   0.585   2.576
 1036HOH     H1 3294   2.747   0.618   2.627
 1036HOH     H2 3295   2.844   0.502   2.617
 1037HOH      O 3296   1.304   1.753   2.204
 1037HOH     H1 3297   1.347   1.789   2.281
 1037HOH     H2 3298   1.229   1.705   2.239
 1038HOH      O 3299   1.220   2.443   0.881
 1038HOH     H1 3300   1.214   2.359   0.834
 1038HOH     H2 3301   1.270   2.422   0.960
 1039HOH      O 3302   2.712   3.152   3.836
 1039HOH     H1 3303   2.681   3.062   3.843
 1039HOH     H2 3304   2.721   3.182   3.926
 1040HOH      O 3305   1.127   0.878   2.485
 1040HOH     H1 3306   1.126   0.962   2.530
 1040HOH     H2 3307   1.189   0.891   2.413
 1041HOH      O 3308   3.975   0.723   3.396
 1041HOH     H1 3309   4.064   0.757   3.409
 1041HOH     H2 3310   3.945   0.701   3.484
 1042HOH      O 3311   1.340   0.593   1.062
 1042HOH     H1 3312   1.257   0.592   1.110
 1042HOH     H2 3313   1.380   0.508   1.082
 1043HOH      O 3314   3.479   2.622   3.516
 1043HOH     H1 3315   3.559   2.572   3.532
 1043HOH     H2 3316   3.408   2.560   3.534
 1044HOH      O 3317   3.358   3.673   2.468
 1044HOH     H1 3318   3.343   3.693   2.376
 1044HOH     H2 3319   3.301   3.597   2.486
 1045HOH      O 3320   0.754   0.034   1.692
 1045HOH     H1 3321   0.800   0.102   1.643
 1045HOH     H2 3322   0.811   0.013   1.766
 1046HOH      O 3323   2.616   1.937   3.752
 1046HOH     H1 3324   2.593   1.847   3.729
 1046HOH     H2 3325   2.595   1.945   3.845
 1047HOH      O 3326   3.126   2.613   2.628
 1047HOH     H1 3327   3.133   2.549   2.558
 1047HOH     H2 3328   3.176   2.575   2.700
 1048HOH      O 3329   1.017   3.495   0.293
 1048HOH     H1 3330   1.078   3.454   0.354
 1048HOH     H2 3331   1.045   3.586   0.289
 1049HOH      O 3332   1.616   0.186   2.995
 1049HOH     H1 3333   1.696   0.234   2.973
 1049HOH     H2 3334   1.545   0.250   2.982
 1050HOH      O 3335   3.704   3.652   2.365
 1050HOH     H1 3336   3.789   3.693   2.347
 1050HOH     H2 3337   3.694   3.658   2.460
 1051HOH      O 3338   2.907   0.580   3.110
 1051HOH     H1 3339   2.956   0.523   3.051
 1051HOH     H2 3340   2.957   0.578   3.192
 1052HOH      O 3341   3.923   3.077   0.148
 1052HOH     H1 3342   4.003   3.106   0.104
 1052HOH     H2 3343   3.853   3.099   0.087
 1053HOH      O 3344   0.357   2.444   3.699
 1053HOH     H1 3345   0.431   2.417   3.644
 1053HOH     H2 3346   0.308   2.363   3.713
 1054HOH      O 3347   2.237   0.649   3.328
 1054HOH     H1 3348   2.319   0.620   3.289
 1054HOH     H2 3349   2.249   0.743   3.343
 1055HOH      O 3350   1.399   2.495   1.102
 1055HOH     H1 3351   1.393   2.423   1.165
 1055HOH     H2 3352   1.491   2.497   1.076
 1056HOH      O 3353   0.161   0.387   3.216
 1056HOH     H1 3354   0.196   0.469   3.252
 1056HOH     H2 3355   0.067   0.392   3.234
 1057HOH      O 3356   3.972   1.276   2.549
 1057HOH     H1 3357   3.878   1.295   2.551
 1057HOH     H2 3358   4.012   1.359   2.520
 1058HOH      O 3359   3.604   0.772   2.835
 1058HOH     H1 3360   3.565   0.742   2.918
 1058HOH     H2 3361   3.682   0.718   2.825
 1059HOH      O 3362   1.297   3.494   2.711
 1059HOH     H1 3363   1.257   3.565   2.761
 1059HOH     H2 3364   1.223   3.448   2.671
 1060HOH      O 3365   0.223   3.996   1.135
 1060HOH     H1 3366   0.218   3.993   1.039
 1060HOH     H2 3367   0.206   3.906   1.163
 1061HOH      O 3368   2.347   3.728   0.993
 1061HOH     H1 3369   2.284   3.800   0.991
 1061HOH     H2 3370   2.433   3.771   0.989
 1062HOH      O 3371   1.861   3.737   1.678
 1062HOH     H1 3372   1.779   3.751   1.631
 1062HOH     H2 3373   1.912   3.817   1.661
 1063HOH      O 3374   4.029   2.968   2.021
 1063HOH     H1 3375   4.049   3.053   2.059
 1063HOH     H2 3376   3.949   2.939   2.067
 1064HOH      O 3377   1.665   3.013   3.801
 1064HOH     H1 3378   1.712   3.039   3.722
 1064HOH     H2 3379   1.573   3.021   3.777
 1065HOH      O 3380   0.282   3.705   1.194
 1065HOH     H1 3381   0.376   3.707   1.176
 1065HOH     H2 3382   0.276   3.719   1.289
 1066HOH      O 3383   0.264   3.501   0.576
 1066HOH     H1 3384   0.235   3.429   0.520
 1066HOH     H2 3385   0.297   3.566   0.514
 1067HOH      O 3386   1.210   2.118   3.083
 1067HOH     H1 3387   1.266   2.195   3.083
 1067HOH     H2 3388   1.132   2.145   3.034
 1068HOH      O 3389   2.666   0.628   0.183
 1068HOH     H1 3390   2.685   0.541   0.148
 1068HOH     H2 3391   2.595   0.661   0.128
 1069HOH      O 3392   0.435   0.112   2.362
 1069HOH     H1 3393   0.361   0.058   2.392
 1069HOH     H2 3394   0.403   0.155   2.283
 1070HOH      O 3395   3.894   2.126   2.027
 1070HOH     H1 3396   3.926   2.065   2.093
 1070HOH     H2 3397   3.921   2.089   1.943
 1071HOH      O 3398   2.074   3.969   3.172
 1071HOH     H1 3399   2.059   4.026   3.097
 1071HOH     H2 3400   2.135   4.018   3.227
 1072HOH      O 3401   2.630   0.709   2.729
 1072HOH     H1 3402   2.588   0.788   2.764
 1072HOH     H2 3403   2.568   0.638   2.748
 1073HOH      O 3404   0.877   2.193   2.050
 1073HOH     H1 3405   0.819   2.255   2.094
 1073HOH     H2 3406   0.956   2.243   2.030
 1074HOH      O 3407   2.618   0.596   2.138
 1074HOH     H1 3408   2.680   0.582   2.067
 1074HOH     H2 3409   2.671   0.591   2.218
 1075HOH      O 3410   0.190   2.143   0.865
 1075HOH     H1 3411   0.147   2.181   0.788
 1075HOH     H2 3412   0.181   2.048   0.852
 1076HOH      O 3413   1.273   1.917   3.235
 1076HOH     H1 3414   1.349   1.944   3.286
 1076HOH     H2 3415   1.245   1.996   3.189
 1077HOH      O 3416   1.827   0.233   3.848
 1077HOH     H1 3417   1.745   0.229   3.897
 1077HOH     H2 3418   1.816   0.309   3.790
 1078HOH      O 3419   3.868   3.322   3.514
 1078HOH     H1 3420   3.954   3.351   3.485
 1078HOH     H2 3421   3.862   3.231   3.483
 1079HOH      O 3422   3.269   3.166   3.006
 1079HOH     H1 3423   3.189   3.158   2.953
 1079HOH     H2 3424   3.300   3.076   3.015
 1080HOH      O 3425   2.859   1.482   2.434
 1080HOH     H1 3426   2.861   1.552   2.499
 1080HOH     H2 3427   2.782   1.430   2.457
 1081HOH      O 3428   0.367   1.394   0.402
 1081HOH     H1 3429   0.301   1.463   0.394
 1081HOH     H2 3430   0.439   1.435   0.450
 1082HOH      O 3431   2.783   1.901   3.004
 1082HOH     H1 3432   2.722   1.944   2.945
 1082HOH     H2 3433   2.844   1.970   3.031
 1083HOH      O 3434   3.678   0.156   1.213
 1083HOH     H1 3435   3.666   0.251   1.211
 1083HOH     H2 3436   3.711   0.135   1.126
 1084HOH      O 3437   3.985   2.195   1.163
 1084HOH     H1 3438   4.023   2.110   1.184
 1084HOH     H2 3439   3.892   2.186   1.184
 1085HOH      O 3440   2.247   2.925   0.150
 1085HOH     H1 3441   2.211   2.981   0.082
 1085HOH     H2 3442   2.323   2.973   0.183
 1086HOH      O 3443   3.507   3.044   1.482
 1086HOH     H1 3444   3.458   3.034   1.401
 1086HOH     H2 3445   3.537   2.955   1.502
 1087HOH      O 3446   3.182   3.235   1.795
 1087HOH     H1 3447   3.258   3.238   1.738
 1087HOH     H2 3448   3.114   3.284   1.748
 1088HOH      O 3449   1.593   0.622   3.373
 1088HOH     H1 3450   1.534   0.688   3.335
 1088HOH     H2 3451   1.650   0.596   3.301
 1089HOH      O 3452   0.031   2.017   1.362
 1089HOH     H1 3453   0.092   2.090   1.372
 1089HOH     H2 3454   0.086   1.943   1.336
 1090HOH      O 3455   0.944   2.516   0.725
 1090HOH     H1 3456   0.948   2.547   0.815
 1090HOH     H2 3457   0.879   2.572   0.683
 1091HOH      O 3458   3.756   2.465   3.762
 1091HOH     H1 3459   3.746   2.457   3.667
 1091HOH     H2 3460   3.828   2.526   3.773
 1092HOH      O 3461   0.662   0.406   0.339
 1092HOH     H1 3462   0.627   0.350   0.270
 1092HOH     H2 3463   0.658   0.352   0.418
 1093HOH      O 3464   2.367   3.373   2.277
 1093HOH     H1 3465   2.399   3.405   2.193
 1093HOH     H2 3466   2.286   3.327   2.255
 1094HOH      O 3467   3.623   0.056   0.066
 1094HOH     H1 3468   3.648   0.142   0.100
 1094HOH     H2 3469   3.534   0.069   0.034
 1095HOH      O 3470   2.121   3.337   1.709
 1095HOH     H1 3471   2.214   3.320   1.729
 1095HOH     H2 3472   2.113   3.432   1.712
 1096HOH      O 3473   2.529   2.356   2.710
 1096HOH     H1 3474   2.531   2.279   2.652
 1096HOH     H2 3475   2.620   2.384   2.715
 1097HOH      O 3476   1.731   3.175   4.029
 1097HOH     H1 3477   1.746   3.109   4.096
 1097HOH     H2 3478   1.719   3.125   3.948
 1098HOH      O 3479   1.131   3.561   2.099
 1098HOH     H1 3480   1.050   3.566   2.149
 1098HOH     H2 3481   1.120   3.624   2.028
 1099HOH      O 3482   1.730   1.654   3.649
 1099HOH     H1 3483   1.730   1.743   3.613
 1099HOH     H2 3484   1.668   1.657   3.721
 1100HOH      O 3485   1.875   2.830   2.231
 1100HOH     H1 3486   1.951   2.855   2.285
 1100HOH     H2 3487   1.803   2.882   2.266
 1101HOH      O 3488   1.487   1.151   0.626
 1101HOH     H1 3489   1.417   1.154   0.561
 1101HOH     H2 3490   1.457   1.211   0.695
 1102HOH      O 3491   0.582   1.790   2.213
 1102HOH     H1 3492   0.633   1.713   2.239
 1102HOH     H2 3493   0.618   1.862   2.265
 1103HOH      O 3494   3.118   2.348   2.091
 1103HOH     H1 3495   3.116   2.324   2.184
 1103HOH     H2 3496   3.137   2.266   2.046
 1104HOH      O 3497   0.623   3.552   1.674
 1104HOH     H1 3498   0.638   3.527   1.583
 1104HOH     H2 3499   0.572   3.633   1.668
 1105HOH      O 3500   0.273   2.173   3.306
 1105HOH     H1 3501   0.280   2.182   3.211
 1105HOH     H2 3502   0.266   2.263   3.338
 1106HOH      O 3503   2.654   1.319   2.505
 1106HOH     H1 3504   2.723   1.272   2.553
 1106HOH     H2 3505   2.607   1.250   2.458
 1107HOH      O 3506   2.693   1.361   1.827
 1107HOH     H1 3507   2.773   1.407   1.853
 1107HOH     H2 3508   2.719   1.313   1.749
 1108HOH      O 3509   3.155   3.494   2.449
 1108HOH     H1 3510   3.117   3.462   2.532
 1108HOH     H2 3511   3.159   3.416   2.394
 1109HOH      O 3512   2.351   1.287   2.213
 1109HOH     H1 3513   2.445   1.270   2.219
 1109HOH     H2 3514   2.309   1.209   2.249
 1110HOH      O 3515   0.941   3.336   3.711
 1110HOH     H1 3516   0.977   3.284   3.782
 1110HOH     H2 3517   0.908   3.415   3.753
 1111HOH      O 3518   1.421   1.672   1.054
 1111HOH     H1 3519   1.386   1.688   0.966
 1111HOH     H2 3520   1.514   1.694   1.046
 1112HOH      O 3521   3.965   1.351   3.284
 1112HOH     H1 3522   3.959   1.301   3.365
 1112HOH     H2 3523   3.883   1.334   3.238
 1113HOH      O 3524   2.958   0.371   0.318
 1113HOH     H1 3525   2.877   0.321   0.324
 1113HOH     H2 3526   2.982   0.388   0.410
 1114HOH      O 3527   2.979   1.786   3.537
 1114HOH     H1 3528   3.067   1.755   3.556
 1114HOH     H2 3529   2.924   1.708   3.547
 1115HOH      O 3530   2.475   2.538   1.350
 1115HOH     H1 3531   2.467   2.589   1.270
 1115HOH     H2 3532   2.449   2.449   1.324
 1116HOH      O 3533   0.020   2.218   0.654
 1116HOH     H1 3534  -0.037   2.145   0.631
 1116HOH     H2 3535   0.052   2.251   0.570
 1117HOH      O 3536   3.792   2.210   0.788
 1117HOH     H1 3537   3.854   2.256   0.845
 1117HOH     H2 3538   3.796   2.257   0.705
 1118HOH      O 3539   3.190   3.456   3.803
 1118HOH     H1 3540   3.276   3.470   3.763
 1118HOH     H2 3541   3.210   3.425   3.891
 1119HOH      O 3542   3.095   1.545   1.618
 1119HOH     H1 3543   3.105   1.636   1.591
 1119HOH     H2 3544   3.163   1.498   1.569
 1120HOH      O 3545   2.013   0.099   3.674
 1120HOH     H1 3546   2.086   0.091   3.735
 1120HOH     H2 3547   1.952   0.159   3.716
 1121HOH      O 3548   3.245   0.253   1.256
 1121HOH     H1 3549   3.261   0.194   1.182
 1121HOH     H2 3550   3.260   0.198   1.333
 1122HOH      O 3551   0.509   0.721   2.737
 1122HOH     H1 3552   0.559   0.669   2.674
 1122HOH     H2 3553   0.458   0.782   2.684
 1123HOH      O 3554   0.695   3.289   2.813
 1123HOH     H1 3555   0.649   3.310   2.732
 1123HOH     H2 3556   0.630   3.242   2.865
 1124HOH      O 3557   2.751   3.322   2.645
 1124HOH     H1 3558   2.682   3.346   2.583
 1124HOH     H2 3559   2.709   3.259   2.704
 1125HOH      O 3560   0.984   0.918   2.132
 1125HOH     H1 3561   0.957   0.855   2.065
 1125HOH     H2 3562   1.049   0.973   2.088
 1126HOH      O 3563   0.696   3.169   1.907
 1126HOH     H1 3564   0.631   3.181   1.976
 1126HOH     H2 3565   0.773   3.137   1.952
 1127HOH      O 3566   2.463   1.318   1.215
 1127HOH     H1 3567   2.558   1.332   1.214
 1127HOH     H2 3568   2.451   1.231   1.179
 1128HOH      O 3569   2.211   2.820   0.650
 1128HOH     H1 3570   2.138   2.768   0.683
 1128HOH     H2 3571   2.288   2.765   0.665
 1129HOH      O 3572   2.554   0.586   0.907
 1129HOH     H1 3573   2.619   0.656   0.904
 1129HOH     H2 3574   2.593   0.514   0.857
 1130HOH      O 3575   3.678   2.833   3.580
 1130HOH     H1 3576   3.617   2.774   3.535
 1130HOH     H2 3577   3.645   2.921   3.561
 1131HOH      O 3578   0.554   1.368   3.508
 1131HOH     H1 3579   0.558   1.301   3.440
 1131HOH     H2 3580   0.546   1.451   3.460
 1132HOH      O 3581   1.841   2.007   2.538
 1132HOH     H1 3582   1.805   1.926   2.576
 1132HOH     H2 3583   1.764   2.063   2.525
 1133HOH      O 3584   1.931   2.498   2.037
 1133HOH     H1 3585   1.959   2.500   1.945
 1133HOH     H2 3586   1.836   2.493   2.032
 1134HOH      O 3587   3.848   1.372   1.331
 1134HOH     H1 3588   3.887   1.295   1.372
 1134HOH     H2 3589   3.879   1.369   1.240
 1135HOH      O 3590   3.068   1.811   1.539
 1135HOH     H1 3591   3.091   1.817   1.447
 1135HOH     H2 3592   3.125   1.875   1.582
 1136HOH      O 3593   2.703   0.873   0.334
 1136HOH     H1 3594   2.712   0.780   0.313
 1136HOH     H2 3595   2.682   0.914   0.250
 1137HOH      O 3596   1.098   3.796   4.026
 1137HOH     H1 3597   1.174   3.739   4.038
 1137HOH     H2 3598   1.106   3.828   3.936
 1138HOH      O 3599   3.367   0.019   3.992
 1138HOH     H1 3600   3.352  -0.068   3.956
 1138HOH     H2 3601   3.279   0.057   3.999
 1139HOH      O 3602   0.182   2.418   2.353
 1139HOH     H1 3603   0.105   2.383   2.308
 1139HOH     H2 3604   0.230   2.465   2.285
 1140HOH      O 3605   0.781   0.571   0.652
 1140HOH     H1 3606   0.819   0.607   0.732
 1140HOH     H2 3607   0.842   0.595   0.582
 1141HOH      O 3608   0.847   1.295   2.178
 1141HOH     H1 3609   0.788   1.258   2.244
 1141HOH     H2 3610   0.793   1.305   2.100
 1142HOH      O 3611   1.117   1.646   3.496
 1142HOH     H1 3612   1.203   1.653   3.538
 1142HOH     H2 3613   1.130   1.684   3.409
 1143HOH      O 3614   3.768   2.276   2.348
 1143HOH     H1 3615   3.832   2.309   2.286
 1143HOH     H2 3616   3.766   2.340   2.418
 1144HOH      O 3617   3.588   3.708   3.600
 1144HOH     H1 3618   3.645   3.665   3.537
 1144HOH     H2 3619   3.554   3.785   3.554
 1145HOH      O 3620   0.712   3.933   0.709
 1145HOH     H1 3621   0.676   3.860   0.658
 1145HOH     H2 3622   0.682   4.011   0.663
 1146HOH      O 3623   4.000   2.083   1.750
 1146HOH     H1 3624   3.934   2.072   1.681
 1146HOH     H2 3625   4.020   2.177   1.749
 1147HOH      O 3626   2.021   0.194   1.971
 1147HOH     H1 3627   2.064   0.258   1.913
 1147HOH     H2 3628   2.007   0.242   2.052
 1148HOH      O 3629   2.770   3.336   0.094
 1148HOH     H1 3630   2.678   3.361   0.096
 1148HOH     H2 3631   2.817   3.420   0.100
 1149HOH      O 3632   3.273   0.523   2.081
 1149HOH     H1 3633   3.237   0.495   2.166
 1149HOH     H2 3634   3.362   0.550   2.101
 1150HOH      O 3635   2.097   1.468   3.834
 1150HOH     H1 3636   2.011   1.477   3.876
 1150HOH     H2 3637   2.149   1.539   3.870
 1151HOH      O 3638   3.713   2.391   1.534
 1151HOH     H1 3639   3.682   2.482   1.534
 1151HOH     H2 3640   3.675   2.353   1.454
 1152HOH      O 3641   2.826   0.975   1.530
 1152HOH     H1 3642   2.784   0.910   1.473
 1152HOH     H2 3643   2.883   1.024   1.471
 1153HOH      O 3644   0.059   0.131   3.620
 1153HOH     H1 3645   0.142   0.135   3.572
 1153HOH     H2 3646   0.068   0.053   3.676
 1154HOH      O 3647   0.816   0.552   3.178
 1154HOH     H1 3648   0.890   0.600   3.142
 1154HOH     H2 3649   0.816   0.575   3.271
 1155HOH      O 3650   3.075   0.632   0.068
 1155HOH     H1 3651   3.122   0.580   0.003
 1155HOH     H2 3652   3.137   0.639   0.141
 1156HOH      O 3653   2.578   3.899   1.858
 1156HOH     H1 3654   2.625   3.848   1.792
 1156HOH     H2 3655   2.515   3.951   1.807
 1157HOH      O 3656   0.247   3.819   2.028
 1157HOH     H1 3657   0.195   3.801   2.106
 1157HOH     H2 3658   0.182   3.831   1.959
 1158HOH      O 3659   0.074   2.903   1.565
 1158HOH     H1 3660   0.122   2.920   1.484
 1158HOH     H2 3661   0.011   2.835   1.542
 1159HOH      O 3662   1.018   2.627   1.798
 1159HOH     H1 3663   0.982   2.595   1.880
 1159HOH     H2 3664   1.108   2.651   1.818
 1160HOH      O 3665   3.576   3.761   1.066
 1160HOH     H1 3666   3.589   3.673   1.031
 1160HOH     H2 3667   3.560   3.816   0.989
 1161HOH      O 3668   1.442   3.707   3.444
 1161HOH     H1 3669   1.457   3.729   3.352
 1161HOH     H2 3670   1.350   3.679   3.446
 1162HOH      O 3671   1.693   0.248   2.056
 1162HOH     H1 3672   1.616   0.220   2.007
 1162HOH     H2 3673   1.737   0.167   2.081
 1163HOH      O 3674   1.434   3.906   0.800
 1163HOH     H1 3675   1.355   3.893   0.853
 1163HOH     H2 3676   1.414   3.982   0.746
 1164HOH      O 3677   2.484   3.330   3.725
 1164HOH     H1 3678   2.534   3.248   3.721
 1164HOH     H2 3679   2.393   3.303   3.735
 1165HOH      O 3680   3.682   3.591   1.651
 1165HOH     H1 3681   3.647   3.591   1.740
 1165HOH     H2 3682   3.673   3.682   1.623
 1166HOH      O 3683   3.192   2.092   1.965
 1166HOH     H1 3684   3.270   2.111   2.017
 1166HOH     H2 3685   3.171   2.001   1.985
 1167HOH      O 3686   2.035   2.116   1.458
 1167HOH     H1 3687   2.077   2.034   1.482
 1167HOH     H2 3688   2.040   2.169   1.538
 1168HOH      O 3689   0.845   3.242   1.673
 1168HOH     H1 3690   0.809   3.256   1.761
 1168HOH     H2 3691   0.801   3.307   1.618
 1169HOH      O 3692   0.627   1.143   3.348
 1169HOH     H1 3693   0.564   1.113   3.282
 1169HOH     H2 3694   0.671   1.063   3.376
 1170HOH      O 3695   2.542   1.508   2.298
 1170HOH     H1 3696   2.524   1.415   2.311
 1170HOH     H2 3697   2.632   1.510   2.266
 1171HOH      O 3698   0.658   2.290   0.947
 1171HOH     H1 3699   0.648   2.196   0.932
 1171HOH     H2 3700   0.748   2.300   0.978
 1172HOH      O 3701   3.582   3.982   3.066
 1172HOH     H1 3702   3.599   3.933   2.985
 1172HOH     H2 3703   3.665   3.979   3.114
 1173HOH      O 3704   1.198   3.940   3.334
 1173HOH     H1 3705   1.282   3.925   3.291
 1173HOH     H2 3706   1.221   3.974   3.421
 1174HOH      O 3707   0.817   3.998   3.530
 1174HOH     H1 3708   0.774   3.995   3.445
 1174HOH     H2 3709   0.889   4.061   3.518
 1175HOH      O 3710   0.800   0.708   0.006
 1175HOH     H1 3711   0.726   0.718  -0.053
 1175HOH     H2 3712   0.761   0.712   0.094
 1176HOH      O 3713   0.107   0.631   2.041
 1176HOH     H1 3714   0.037   0.695   2.058
 1176HOH     H2 3715   0.061   0.553   2.011
 1177HOH      O 3716   3.220   1.624   2.922
 1177HOH     H1 3717   3.129   1.650   2.933
 1177HOH     H2 3718   3.263   1.654   3.002
 1178HOH      O 3719   3.443   2.263   3.508
 1178HOH     H1 3720   3.446   2.172   3.479
 1178HOH     H2 3721   3.504   2.309   3.451
 1179HOH      O 3722   2.942   3.827   2.630
 1179HOH     H1 3723   2.961   3.918   2.610
 1179HOH     H2 3724   3.004   3.804   2.699
 1180HOH      O 3725   1.306   0.948   1.610
 1180HOH     H1 3726   1.233   0.886   1.607
 1180HOH     H2 3727   1.375   0.902   1.657
 1181HOH      O 3728   1.911   2.344   0.935
 1181HOH     H1 3729   1.981   2.283   0.958
 1181HOH     H2 3730   1.942   2.388   0.855
 1182HOH      O 3731   2.056   0.782   1.663
 1182HOH     H1 3732   2.049   0.717   1.733
 1182HOH     H2 3733   1.994   0.752   1.596
 1183HOH      O 3734   0.771   2.000   3.726
 1183HOH     H1 3735   0.842   1.936   3.731
 1183HOH     H2 3736   0.745   1.999   3.634
 1184HOH      O 3737   2.963   3.202   3.190
 1184HOH     H1 3738   2.895   3.258   3.227
 1184HOH     H2 3739   2.942   3.196   3.097
 1185HOH      O 3740   0.203   2.979   3.512
 1185HOH     H1 3741   0.234   3.045   3.574
 1185HOH     H2 3742   0.181   2.903   3.566
 1186HOH      O 3743   0.558   3.628   3.331
 1186HOH     H1 3744   0.539   3.535   3.320
 1186HOH     H2 3745   0.649   3.630   3.361
 1187HOH      O 3746   1.441   0.225   3.398
 1187HOH     H1 3747   1.536   0.231   3.389
 1187HOH     H2 3748   1.422   0.259   3.485
 1188HOH      O 3749   3.511   1.759   1.497
 1188HOH     H1 3750   3.443   1.693   1.506
 1188HOH     H2 3751   3.489   1.825   1.562
 1189HOH      O 3752   1.515   2.941   0.918
 1189HOH     H1 3753   1.421   2.953   0.931
 1189HOH     H2 3754   1.551   3.030   0.920
 1190HOH      O 3755   1.724   1.724   2.042
 1190HOH     H1 3756   1.651   1.705   1.983
 1190HOH     H2 3757   1.757   1.809   2.014
 1191HOH      O 3758   1.165   3.983   0.807
 1191HOH     H1 3759   1.146   3.988   0.713
 1191HOH     H2 3760   1.080   3.969   0.848
 1192HOH      O 3761   3.279   2.396   0.176
 1192HOH     H1 3762   3.254   2.487   0.157
 1192HOH     H2 3763   3.235   2.345   0.108
 1193HOH      O 3764   0.724   3.082   0.056
 1193HOH     H1 3765   0.720   3.176   0.042
 1193HOH     H2 3766   0.688   3.070   0.144
 1194HOH      O 3767   2.133   1.837   0.751
 1194HOH     H1 3768   2.190   1.910   0.772
 1194HOH     H2 3769   2.085   1.820   0.833
 1195HOH      O 3770   3.229   3.723   2.197
 1195HOH     H1 3771   3.286   3.750   2.124
 1195HOH     H2 3772   3.206   3.633   2.177
 1196HOH      O 3773   3.293   2.451   3.639
 1196HOH     H1 3774   3.305   2.380   3.576
 1196HOH     H2 3775   3.200   2.473   3.634
 1197HOH      O 3776   0.137   0.064   2.288
 1197HOH     H1 3777   0.176   0.141   2.246
 1197HOH     H2 3778   0.066   0.038   2.229
 1198HOH      O 3779   2.276   0.296   0.023
 1198HOH     H1 3780   2.307   0.370   0.075
 1198HOH     H2 3781   2.185   0.284   0.049
 1199HOH      O 3782   3.261   2.563   2.325
 1199HOH     H1 3783   3.344   2.564   2.372
 1199HOH     H2 3784   3.205   2.505   2.378
 1200HOH      O 3785   0.667   0.722   1.195
 1200HOH     H1 3786   0.728   0.734   1.268
 1200HOH     H2 3787   0.587   0.765   1.225
 1201HOH      O 3788   3.964   2.518   0.386
 1201HOH     H1 3789   4.012   2.519   0.303
 1201HOH     H2 3790   3.987   2.602   0.427
 1202HOH      O 3791   1.315   3.944   2.956
 1202HOH     H1 3792   1.288   4.026   2.997
 1202HOH     H2 3793   1.410   3.941   2.966
 1203HOH      O 3794   2.688   3.734   0.610
 1203HOH     H1 3795   2.607   3.684   0.600
 1203HOH     H2 3796   2.661   3.825   0.603
 1204HOH      O 3797   0.396   0.997   2.333
 1204HOH     H1 3798   0.479   0.976   2.291
 1204HOH     H2 3799   0.340   0.923   2.314
 1205HOH      O 3800   0.047   3.530   1.371
 1205HOH     H1 3801   0.036   3.596   1.303
 1205HOH     H2 3802  -0.040   3.489   1.378
 1206HOH      O 3803   3.255   3.581   1.505
 1206HOH     H1 3804   3.249   3.628   1.423
 1206HOH     H2 3805   3.174   3.531   1.512
 1207HOH      O 3806   1.828   0.434   2.499
 1207HOH     H1 3807   1.850   0.378   2.425
 1207HOH     H2 3808   1.904   0.492   2.508
 1208HOH      O 3809   2.686   3.926   3.454
 1208HOH     H1 3810   2.688   3.944   3.360
 1208HOH     H2 3811   2.592   3.919   3.475
 1209HOH      O 3812   2.659   1.780   2.644
 1209HOH     H1 3813   2.738   1.834   2.645
 1209HOH     H2 3814   2.620   1.793   2.731
 1210HOH      O 3815   2.445   1.323   0.082
 1210HOH     H1 3816   2.479   1.365   0.161
 1210HOH     H2 3817   2.524   1.294   0.035
 1211HOH      O 3818   0.596   2.971   0.824
 1211HOH     H1 3819   0.641   2.887   0.835
 1211HOH     H2 3820   0.559   2.968   0.736
 1212HOH      O 3821   0.030   3.051   2.590
 1212HOH     H1 3822   0.004   2.980   2.532
 1212HOH     H2 3823   0.023   3.014   2.678
 1213HOH      O 3824   2.634   3.468   3.031
 1213HOH     H1 3825   2.578   3.390   3.025
 1213HOH     H2 3826   2.704   3.443   3.091
 1214HOH      O 3827   1.364   2.397   0.508
 1214HOH     H1 3828   1.304   2.471   0.519
 1214HOH     H2 3829   1.319   2.323   0.547
 1215HOH      O 3830   1.459   2.805   1.320
 1215HOH     H1 3831   1.412   2.888   1.316
 1215HOH     H2 3832   1.500   2.805   1.407
 1216HOH      O 3833   0.426   4.021   3.321
 1216HOH     H1 3834   0.435   3.995   3.412
 1216HOH     H2 3835   0.505   3.987   3.278
 1217HOH      O 3836   0.194   0.246   1.704
 1217HOH     H1 3837   0.161   0.163   1.737
 1217HOH     H2 3838   0.265   0.270   1.763
 1218HOH      O 3839   3.220   0.655   2.810
 1218HOH     H1 3840   3.156   0.700   2.864
 1218HOH     H2 3841   3.268   0.725   2.766
 1219HOH      O 3842   1.075   0.439   1.564
 1219HOH     H1 3843   1.106   0.487   1.641
 1219HOH     H2 3844   1.156   0.410   1.521
 1220HOH      O 3845   1.993   1.727   0.970
 1220HOH     H1 3846   1.960   1.796   1.028
 1220HOH     H2 3847   2.015   1.655   1.029
 1221HOH      O 3848   0.460   0.092   1.686
 1221HOH     H1 3849   0.416   0.143   1.617
 1221HOH     H2 3850   0.536   0.054   1.642
 1222HOH      O 3851   2.267   1.550   0.297
 1222HOH     H1 3852   2.285   1.505   0.214
 1222HOH     H2 3853   2.350   1.591   0.320
 1223HOH      O 3854   0.648   2.678   1.422
 1223HOH     H1 3855   0.692   2.751   1.377
 1223HOH     H2 3856   0.670   2.601   1.370
 1224HOH      O 3857   1.643   2.566   3.655
 1224HOH     H1 3858   1.734   2.590   3.671
 1224HOH     H2 3859   1.611   2.536   3.740
 1225HOH      O 3860   1.829   1.920   0.188
 1225HOH     H1 3861   1.745   1.877   0.206
 1225HOH     H2 3862   1.893   1.849   0.188
 1226HOH      O 3863   2.783   2.451   1.907
 1226HOH     H1 3864   2.871   2.412   1.907
 1226HOH     H2 3865   2.753   2.440   1.817
 1227HOH      O 3866   2.983   1.093   3.642
 1227HOH     H1 3867   3.075   1.114   3.628
 1227HOH     H2 3868   2.978   1.062   3.732
 1228HOH      O 3869   3.225   1.956   0.770
 1228HOH     H1 3870   3.316   1.987   0.763
 1228HOH     H2 3871   3.186   1.977   0.686
 1229HOH      O 3872   0.446   4.027   2.068
 1229HOH     H1 3873   0.539   4.009   2.080
 1229HOH     H2 3874   0.406   3.940   2.061
 1230HOH      O 3875   0.494   3.935   3.576
 1230HOH     H1 3876   0.531   3.849   3.594
 1230HOH     H2 3877   0.551   3.996   3.622
 1231HOH      O 3878   1.276   1.154   0.414
 1231HOH     H1 3879   1.249   1.238   0.450
 1231HOH     H2 3880   1.194   1.108   0.396
 1232HOH      O 3881   1.592   2.614   2.744
 1232HOH     H1 3882   1.685   2.634   2.736
 1232HOH     H2 3883   1.569   2.575   2.660
 1233HOH      O 3884   0.429   2.238   0.286
 1233HOH     H1 3885   0.420   2.144   0.274
 1233HOH     H2 3886   0.505   2.262   0.233
 1234HOH      O 3887   2.455   1.782   0.008
 1234HOH     H1 3888   2.432   1.796   0.100
 1234HOH     H2 3889   2.373   1.757  -0.034
 1235HOH      O 3890   2.794   3.416   3.261
 1235HOH     H1 3891   2.825   3.495   3.304
 1235HOH     H2 3892   2.716   3.390   3.311
 1236HOH      O 3893   2.594   0.916   0.581
 1236HOH     H1 3894   2.645   0.896   0.502
 1236HOH     H2 3895   2.542   0.993   0.557
 1237HOH      O 3896   0.895   2.557   2.046
 1237HOH     H1 3897   0.817   2.568   1.992
 1237HOH     H2 3898   0.867   2.583   2.133
 1238HOH      O 3899   2.847   1.872   1.657
 1238HOH     H1 3900   2.799   1.794   1.631
 1238HOH     H2 3901   2.931   1.865   1.612
 1239HOH      O 3902   3.979   2.354   2.162
 1239HOH     H1 3903   3.965   2.284   2.098
 1239HOH     H2 3904   3.960   2.435   2.115
 1240HOH      O 3905   3.643   2.260   1.976
 1240HOH     H1 3906   3.569   2.212   2.012
 1240HOH     H2 3907   3.718   2.200   1.989
 1241HOH      O 3908   0.791   2.407   3.411
 1241HOH     H1 3909   0.696   2.412   3.419
 1241HOH     H2 3910   0.824   2.453   3.489
 1242HOH      O 3911   1.222   0.221   2.211
 1242HOH     H1 3912   1.272   0.234   2.292
 1242HOH     H2 3913   1.135   0.253   2.232
 1243HOH      O 3914   0.330   1.131   2.797
 1243HOH     H1 3915   0.304   1.116   2.706
 1243HOH     H2 3916   0.320   1.046   2.839
 1244HOH      O 3917   1.511   3.077   3.465
 1244HOH     H1 3918   1.518   3.153   3.523
 1244HOH     H2 3919   1.569   3.098   3.392
 1245HOH      O 3920   0.235   3.498   2.821
 1245HOH     H1 3921   0.255   3.437   2.750
 1245HOH     H2 3922   0.190   3.571   2.777
 1246HOH      O 3923   2.551   2.062   1.239
 1246HOH     H1 3924   2.587   2.079   1.152
 1246HOH     H2 3925   2.622   2.020   1.287
 1247HOH      O 3926   2.465   1.138   0.498
 1247HOH     H1 3927   2.380   1.156   0.540
 1247HOH     H2 3928   2.509   1.222   0.496
 1248HOH      O 3929   3.680   3.829   1.545
 1248HOH     H1 3930   3.696   3.798   1.455
 1248HOH     H2 3931   3.643   3.916   1.534
 1249HOH      O 3932   3.188   3.983   1.815
 1249HOH     H1 3933   3.159   3.894   1.792
 1249HOH     H2 3934   3.254   4.003   1.748
 1250HOH      O 3935   0.012   0.839  -0.012
 1250HOH     H1 3936   0.093   0.887  -0.030
 1250HOH     H2 3937  -0.028   0.886   0.061
 1251HOH      O 3938   3.353   3.949   3.232
 1251HOH     H1 3939   3.304   4.028   3.207
 1251HOH     H2 3940   3.425   3.945   3.169
 1252HOH      O 3941   2.429   1.429   2.589
 1252HOH     H1 3942   2.458   1.512   2.550
 1252HOH     H2 3943   2.484   1.363   2.547
 1253HOH      O 3944   0.981   2.556   1.037
 1253HOH     H1 3945   1.051   2.491   1.042
 1253HOH     H2 3946   1.021   2.632   0.995
 1254HOH      O 3947   2.036   3.904   2.362
 1254HOH     H1 3948   2.026   3.862   2.277
 1254HOH     H2 3949   2.128   3.931   2.365
 1255HOH      O 3950   2.507   3.047   0.245
 1255HOH     H1 3951   2.494   3.021   0.336
 1255HOH     H2 3952   2.602   3.058   0.236
 1256HOH      O 3953   0.959   1.646   1.720
 1256HOH     H1 3954   0.885   1.624   1.663
 1256HOH     H2 3955   1.027   1.678   1.660
 1257HOH      O 3956   3.345   1.455   3.270
 1257HOH     H1 3957   3.409   1.395   3.309
 1257HOH     H2 3958   3.281   1.398   3.228
 1258HOH      O 3959   2.274   0.749   0.309
 1258HOH     H1 3960   2.305   0.840   0.310
 1258HOH     H2 3961   2.210   0.745   0.380
 1259HOH      O 3962   2.524   3.364   0.851
 1259HOH     H1 3963   2.522   3.297   0.920
 1259HOH     H2 3964   2.447   3.346   0.797
 1260HOH      O 3965   0.755   3.617   1.201
 1260HOH     H1 3966   0.744   3.523   1.212
 1260HOH     H2 3967   0.702   3.638   1.124
 1261HOH      O 3968   2.139   2.187   0.980
 1261HOH     H1 3969   2.194   2.262   1.003
 1261HOH     H2 3970   2.182   2.148   0.904
 1262HOH      O 3971   2.869   0.351   2.746
 1262HOH     H1 3972   2.913   0.282   2.795
 1262HOH     H2 3973   2.813   0.395   2.810
 1263HOH      O 3974   3.797   2.733   2.719
 1263HOH     H1 3975   3.705   2.761   2.711
 1263HOH     H2 3976   3.841   2.807   2.761
 1264HOH      O 3977   0.420   0.947   1.053
 1264HOH     H1 3978   0.447   0.951   1.145
 1264HOH     H2 3979   0.408   1.038   1.028
 1265HOH      O 3980   2.634   1.258   3.808
 1265HOH     H1 3981   2.554   1.308   3.794
 1265HOH     H2 3982   2.663   1.283   3.895
 1266HOH      O 3983   0.991   1.101   2.336
 1266HOH     H1 3984   0.999   1.028   2.275
 1266HOH     H2 3985   0.968   1.176   2.281
 1267HOH      O 3986   3.054   1.491   2.058
 1267HOH     H1 3987   3.137   1.444   2.046
 1267HOH     H2 3988   2.987   1.423   2.052
 1268HOH      O 3989   1.315   2.804   0.151
 1268HOH     H1 3990   1.264   2.731   0.114
 1268HOH     H2 3991   1.405   2.774   0.146
 1269HOH      O 3992   1.126   0.163   0.164
 1269HOH     H1 3993   1.052   0.143   0.106
 1269HOH     H2 3994   1.158   0.077   0.193
 1270HOH      O 3995   0.615   3.390   2.485
 1270HOH     H1 3996   0.520   3.387   2.497
 1270HOH     H2 3997   0.637   3.482   2.496
 1271HOH      O 3998   2.688   1.693   3.950
 1271HOH     H1 3999   2.674   1.678   3.856
 1271HOH     H2 4000   2.605   1.730   3.981
 1272HOH      O 4001   0.772   2.374   2.247
 1272HOH     H1 4002   0.824   2.416   2.316
 1272HOH     H2 4003   0.704   2.326   2.294
 1273HOH      O 4004   1.380   3.351   3.916
 1273HOH     H1 4005   1.374   3.320   4.007
 1273HOH     H2 4006   1.399   3.273   3.865
 1274HOH      O 4007   1.368   3.242   0.178
 1274HOH     H1 4008   1.324   3.233   0.263
 1274HOH     H2 4009   1.461   3.251   0.200
 1275HOH      O 4010   3.167   1.111   0.372
 1275HOH     H1 4011   3.189   1.046   0.439
 1275HOH     H2 4012   3.087   1.078   0.332
 1276HOH      O 4013   2.510   0.955   1.357
 1276HOH     H1 4014   2.423   0.943   1.395
 1276HOH     H2 4015   2.493   0.991   1.269
 1277HOH      O 4016   2.846   3.562   2.888
 1277HOH     H1 4017   2.823   3.474   2.920
 1277HOH     H2 4018   2.884   3.606   2.964
 1278HOH      O 4019   2.056   2.234   2.055
 1278HOH     H1 4020   2.007   2.225   2.137
 1278HOH     H2 4021   2.059   2.328   2.039
 1279HOH      O 4022   3.773   2.116   1.593
 1279HOH     H1 4023   3.749   2.206   1.571
 1279HOH     H2 4024   3.736   2.063   1.523
 1280HOH      O 4025   3.168   0.198   0.304
 1280HOH     H1 4026   3.101   0.265   0.293
 1280HOH     H2 4027   3.244   0.245   0.337
 1281HOH      O 4028   2.157   0.273   2.317
 1281HOH     H1 4029   2.223   0.208   2.291
 1281HOH     H2 4030   2.105   0.229   2.384
 1282HOH      O 4031   3.017   1.328   1.168
 1282HOH     H1 4032   3.092   1.308   1.113
 1282HOH     H2 4033   2.966   1.391   1.116
 1283HOH      O 4034   0.065   0.180   1.278
 1283HOH     H1 4035   0.107   0.098   1.251
 1283HOH     H2 4036  -0.018   0.181   1.231
 1284HOH      O 4037   1.125   0.707   2.910
 1284HOH     H1 4038   1.067   0.681   2.838
 1284HOH     H2 4039   1.213   0.704   2.872
 1285HOH      O 4040   1.339   3.756   1.234
 1285HOH     H1 4041   1.294   3.739   1.151
 1285HOH     H2 4042   1.424   3.713   1.224
 1286HOH      O 4043   3.582   3.762   2.159
 1286HOH     H1 4044   3.598   3.694   2.224
 1286HOH     H2 4045   3.494   3.742   2.126
 1287HOH      O 4046   2.923   1.082   1.869
 1287HOH     H1 4047   2.840   1.036   1.855
 1287HOH     H2 4048   2.971   1.072   1.787
 1288HOH      O 4049   1.165   2.107   3.895
 1288HOH     H1 4050   1.110   2.123   3.972
 1288HOH     H2 4051   1.141   2.018   3.867
 1289HOH      O 4052   4.003   0.553   0.539
 1289HOH     H1 4053   3.915   0.574   0.571
 1289HOH     H2 4054   4.059   0.565   0.616
 1290HOH      O 4055   1.279   1.322   0.704
 1290HOH     H1 4056   1.317   1.410   0.710
 1290HOH     H2 4057   1.215   1.328   0.633
 1291HOH      O 4058   1.900   3.598   3.585
 1291HOH     H1 4059   1.930   3.568   3.671
 1291HOH     H2 4060   1.880   3.691   3.598
 1292HOH      O 4061   1.112   2.863   1.493
 1292HOH     H1 4062   1.065   2.929   1.544
 1292HOH     H2 4063   1.204   2.874   1.519
 1293HOH      O 4064   0.563   1.168   0.433
 1293HOH     H1 4065   0.544   1.203   0.521
 1293HOH     H2 4066   0.489   1.110   0.415
 1294HOH      O 4067   2.117   0.636   1.085
 1294HOH     H1 4068   2.074   0.693   1.021
 1294HOH     H2 4069   2.052   0.568   1.103
 1295HOH      O 4070   1.188   1.157   1.761
 1295HOH     H1 4071   1.217   1.071   1.730
 1295HOH     H2 4072   1.156   1.201   1.682
 1296HOH      O 4073   2.920   1.319   3.393
 1296HOH     H1 4074   2.858   1.264   3.441
 1296HOH     H2 4075   2.934   1.394   3.451
 1297HOH      O 4076   0.105   3.993   3.224
 1297HOH     H1 4077   0.109   3.898   3.233
 1297HOH     H2 4078   0.196   4.022   3.227
 1298HOH      O 4079   3.027   3.793   3.863
 1298HOH     H1 4080   2.976   3.857   3.814
 1298HOH     H2 4081   2.975   3.713   3.861
 1299HOH      O 4082   1.642   3.448   2.037
 1299HOH     H1 4083   1.550   3.472   2.045
 1299HOH     H2 4084   1.688   3.530   2.023
 1300HOH      O 4085   3.006   3.376   2.075
 1300HOH     H1 4086   3.006   3.283   2.053
 1300HOH     H2 4087   3.098   3.398   2.086
 1301HOH      O 4088   2.841   2.266   3.270
 1301HOH     H1 4089   2.853   2.358   3.293
 1301HOH     H2 4090   2.877   2.218   3.345
 1302HOH      O 4091   0.418   2.649   3.532
 1302HOH     H1 4092   0.396   2.566   3.574
 1302HOH     H2 4093   0.358   2.655   3.458
 1303HOH      O 4094  -0.005   0.288   2.979
 1303HOH     H1 4095   0.040   0.205   2.961
 1303HOH     H2 4096   0.002   0.298   3.074
 1304HOH      O 4097   2.306   2.387   1.085
 1304HOH     H1 4098   2.397   2.359   1.072
 1304HOH     H2 4099   2.303   2.476   1.050
 1305HOH      O 4100   3.111   2.307   0.423
 1305HOH     H1 4101   3.153   2.357   0.493
 1305HOH     H2 4102   3.137   2.352   0.343
 1306HOH      O 4103   2.172   1.185   1.026
 1306HOH     H1 4104   2.214   1.101   1.009
 1306HOH     H2 4105   2.094   1.162   1.078
 1307HOH      O 4106   2.097   3.044   1.039
 1307HOH     H1 4107   2.067   2.995   1.115
 1307HOH     H2 4108   2.022   3.098   1.014
 1308HOH      O 4109   3.660   2.646   1.458
 1308HOH     H1 4110   3.745   2.681   1.430
 1308HOH     H2 4111   3.597   2.688   1.400
 1309HOH      O 4112   1.654   2.416   3.334
 1309HOH     H1 4113   1.655   2.452   3.245
 1309HOH     H2 4114   1.746   2.400   3.354
 1310HOH      O 4115   1.334   2.812   2.443
 1310HOH     H1 4116   1.304   2.900   2.422
 1310HOH     H2 4117   1.330   2.808   2.539
 1311HOH      O 4118   1.292   2.112   2.296
 1311HOH     H1 4119   1.330   2.057   2.366
 1311HOH     H2 4120   1.365   2.127   2.236
 1312HOH      O 4121   2.274   1.131   3.442
 1312HOH     H1 4122   2.362   1.131   3.402
 1312HOH     H2 4123   2.287   1.094   3.529
 1313HOH      O 4124   1.544   3.780   3.178
 1313HOH     H1 4125   1.504   3.704   3.136
 1313HOH     H2 4126   1.565   3.839   3.105
 1314HOH      O 4127   1.640   0.421   1.713
 1314HOH     H1 4128   1.593   0.409   1.795
 1314HOH     H2 4129   1.711   0.482   1.734
 1315HOH      O 4130   2.196   2.570   3.033
 1315HOH     H1 4131   2.278   2.550   3.079
 1315HOH     H2 4132   2.216   2.556   2.940
 1316HOH      O 4133   2.977   2.533   1.259
 1316HOH     H1 4134   2.972   2.496   1.347
 1316HOH     H2 4135   3.063   2.506   1.227
 1317HOH      O 4136   0.260   0.583   2.585
 1317HOH     H1 4137   0.324   0.533   2.636
 1317HOH     H2 4138   0.255   0.668   2.628
 1318HOH      O 4139   3.601   3.747   2.844
 1318HOH     H1 4140   3.510   3.729   2.820
 1318HOH     H2 4141   3.617   3.694   2.922
 1319HOH      O 4142   1.829   1.670   0.578
 1319HOH     H1 4143   1.886   1.741   0.550
 1319HOH     H2 4144   1.846   1.599   0.516
 1320HOH      O 4145   2.865   3.171   2.921
 1320HOH     H1 4146   2.937   3.151   2.862
 1320HOH     H2 4147   2.787   3.171   2.865
 1321HOH      O 4148   0.574   3.776   0.287
 1321HOH     H1 4149   0.479   3.782   0.279
 1321HOH     H2 4150   0.607   3.851   0.237
 1322HOH      O 4151   3.094   3.584   3.580
 1322HOH     H1 4152   3.108   3.516   3.647
 1322HOH     H2 4153   3.155   3.654   3.604
 1323HOH      O 4154   1.562   0.311   2.313
 1323HOH     H1 4155   1.485   0.364   2.333
 1323HOH     H2 4156   1.575   0.323   2.219
 1324HOH      O 4157   2.903   3.568   0.083
 1324HOH     H1 4158   2.842   3.639   0.104
 1324HOH     H2 4159   2.907   3.568  -0.013
 1325HOH      O 4160   0.117   1.922   2.688
 1325HOH     H1 4161   0.044   1.860   2.691
 1325HOH     H2 4162   0.182   1.880   2.632
 1326HOH      O 4163   2.620   0.970   0.080
 1326HOH     H1 4164   2.679   1.046   0.074
 1326HOH     H2 4165   2.597   0.951  -0.011
 1327HOH      O 4166   3.869   1.250   2.146
 1327HOH     H1 4167   3.836   1.324   2.197
 1327HOH     H2 4168   3.914   1.290   2.071
 1328HOH      O 4169   2.365   0.747   1.157
 1328HOH     H1 4170   2.312   0.672   1.184
 1328HOH     H2 4171   2.425   0.761   1.231
 1329HOH      O 4172   0.420   3.735   1.625
 1329HOH     H1 4173   0.347   3.674   1.616
 1329HOH     H2 4174   0.382   3.820   1.603
 1330HOH      O 4175   1.444   0.427   0.726
 1330HOH     H1 4176   1.494   0.507   0.744
 1330HOH     H2 4177   1.511   0.360   0.711
 1331HOH      O 4178   3.382   0.960   2.280
 1331HOH     H1 4179   3.303   0.977   2.332
 1331HOH     H2 4180   3.430   1.043   2.281
 1332HOH      O 4181   1.600   0.818   2.673
 1332HOH     H1 4182   1.695   0.819   2.672
 1332HOH     H2 4183   1.575   0.907   2.648
 1333HOH      O 4184   2.360   0.138   2.125
 1333HOH     H1 4185   2.406   0.055   2.118
 1333HOH     H2 4186   2.350   0.168   2.035
 1334HOH      O 4187   3.753   0.282   2.943
 1334HOH     H1 4188   3.848   0.289   2.933
 1334HOH     H2 4189   3.732   0.194   2.910
 1335HOH      O 4190   2.166   3.236   2.586
 1335HOH     H1 4191   2.191   3.328   2.572
 1335HOH     H2 4192   2.245   3.186   2.566
 1336HOH      O 4193   0.708   1.805   0.126
 1336HOH     H1 4194   0.732   1.870   0.191
 1336HOH     H2 4195   0.657   1.853   0.061
 1337HOH      O 4196   2.220   2.037   2.426
 1337HOH     H1 4197   2.268   2.054   2.345
 1337HOH     H2 4198   2.282   1.992   2.482
 1338HOH      O 4199   2.753   1.172   3.550
 1338HOH     H1 4200   2.837   1.140   3.583
 1338HOH     H2 4201   2.710   1.210   3.626
 1339HOH      O 4202   0.565   1.076   3.857
 1339HOH     H1 4203   0.510   1.146   3.891
 1339HOH     H2 4204   0.528   1.056   3.771
 1340HOH      O 4205   1.421   0.330   3.692
 1340HOH     H1 4206   1.489   0.397   3.702
 1340HOH     H2 4207   1.341   0.379   3.675
 1341HOH      O 4208   1.420   1.407   0.310
 1341HOH     H1 4209   1.358   1.338   0.288
 1341HOH     H2 4210   1.365   1.478   0.344
 1342HOH      O 4211   2.410   3.245   1.803
 1342HOH     H1 4212   2.483   3.237   1.864
 1342HOH     H2 4213   2.405   3.159   1.761
 1343HOH      O 4214   2.388   2.114   2.216
 1343HOH     H1 4215   2.482   2.108   2.235
 1343HOH     H2 4216   2.362   2.200   2.248
 1344HOH      O 4217   0.331   1.372   3.073
 1344HOH     H1 4218   0.426   1.388   3.077
 1344HOH     H2 4219   0.303   1.372   3.165
 1345HOH      O 4220   0.851   3.725   1.947
 1345HOH     H1 4221   0.806   3.670   2.011
 1345HOH     H2 4222   0.781   3.766   1.897
 1346HOH      O 4223   3.200   2.876   3.331
 1346HOH     H1 4224   3.151   2.796   3.349
 1346HOH     H2 4225   3.146   2.923   3.267
 1347HOH      O 4226   1.059   2.775   3.520
 1347HOH     H1 4227   1.088   2.733   3.601
 1347HOH     H2 4228   0.995   2.841   3.549
 1348HOH      O 4229   0.399   1.541   3.896
 1348HOH     H1 4230   0.306   1.516   3.889
 1348HOH     H2 4231   0.403   1.595   3.975
 1349HOH      O 4232   2.055   1.705   2.439
 1349HOH     H1 4233   2.060   1.620   2.396
 1349HOH     H2 4234   2.043   1.767   2.367
 1350HOH      O 4235   1.830   0.752   3.123
 1350HOH     H1 4236   1.913   0.776   3.083
 1350HOH     H2 4237   1.815   0.818   3.191
 1351HOH      O 4238   0.057   2.876   0.254
 1351HOH     H1 4239  -0.025   2.903   0.213
 1351HOH     H2 4240   0.125   2.925   0.206
 1352HOH      O 4241   0.695   1.005   3.078
 1352HOH     H1 4242   0.737   0.937   3.131
 1352HOH     H2 4243   0.757   1.024   3.008
 1353HOH      O 4244   0.764   2.675   0.596
 1353HOH     H1 4245   0.822   2.751   0.596
 1353HOH     H2 4246   0.679   2.709   0.623
 1354HOH      O 4247   1.598   3.479   3.329
 1354HOH     H1 4248   1.529   3.436   3.279
 1354HOH     H2 4249   1.552   3.533   3.392
 1355HOH      O 4250   0.195   0.649   1.549
 1355HOH     H1 4251   0.149   0.571   1.580
 1355HOH     H2 4252   0.288   0.626   1.557
 1356HOH      O 4253   1.492   1.362   3.731
 1356HOH     H1 4254   1.440   1.349   3.651
 1356HOH     H2 4255   1.582   1.354   3.702
 1357HOH      O 4256   0.171   2.916   0.619
 1357HOH     H1 4257   0.112   2.977   0.575
 1357HOH     H2 4258   0.229   2.884   0.550
 1358HOH      O 4259   1.739   1.123   0.276
 1358HOH     H1 4260   1.727   1.194   0.339
 1358HOH     H2 4261   1.651   1.091   0.258
 1359HOH      O 4262   1.991   2.681   0.727
 1359HOH     H1 4263   2.023   2.591   0.732
 1359HOH     H2 4264   1.904   2.679   0.765
 1360HOH      O 4265   0.545   2.242   2.355
 1360HOH     H1 4266   0.450   2.240   2.365
 1360HOH     H2 4267   0.569   2.151   2.336
 1361HOH      O 4268   2.916   1.446   3.134
 1361HOH     H1 4269   2.828   1.455   3.098
 1361HOH     H2 4270   2.902   1.410   3.222
 1362HOH      O 4271   0.037   3.863   1.850
 1362HOH     H1 4272   0.091   3.817   1.786
 1362HOH     H2 4273   0.015   3.945   1.808
 1363HOH      O 4274   2.810   1.607   2.182
 1363HOH     H1 4275   2.847   1.595   2.094
 1363HOH     H2 4276   2.848   1.537   2.234
 1364HOH      O 4277   0.594   2.128   3.202
 1364HOH     H1 4278   0.526   2.171   3.150
 1364HOH     H2 4279   0.549   2.101   3.282
 1365HOH      O 4280   0.701   1.724   1.106
 1365HOH     H1 4281   0.704   1.718   1.201
 1365HOH     H2 4282   0.745   1.644   1.076
 1366HOH      O 4283   2.223   1.357   2.734
 1366HOH     H1 4284   2.237   1.432   2.791
 1366HOH     H2 4285   2.288   1.366   2.665
 1367HOH      O 4286   0.876   2.993   2.023
 1367HOH     H1 4287   0.789   2.954   2.031
 1367HOH     H2 4288   0.921   2.939   1.959
 1368HOH      O 4289   2.194   0.351   1.527
 1368HOH     H1 4290   2.138   0.419   1.564
 1368HOH     H2 4291   2.268   0.399   1.489
 1369HOH      O 4292   0.760   1.694   2.896
 1369HOH     H1 4293   0.780   1.632   2.966
 1369HOH     H2 4294   0.727   1.771   2.942
 1370HOH      O 4295   2.295   3.991   2.384
 1370HOH     H1 4296   2.356   3.921   2.360
 1370HOH     H2 4297   2.339   4.071   2.356
 1371HOH      O 4298   3.880   3.874   2.956
 1371HOH     H1 4299   3.903   3.889   3.048
 1371HOH     H2 4300   3.907   3.784   2.939
 1372HOH      O 4301   2.257   0.011   2.703
 1372HOH     H1 4302   2.176   0.043   2.663
 1372HOH     H2 4303   2.327   0.044   2.646
 1373HOH      O 4304   1.219   1.525   3.888
 1373HOH     H1 4305   1.135   1.493   3.857
 1373HOH     H2 4306   1.218   1.507   3.982
 1374HOH      O 4307   3.161   1.597   1.182
 1374HOH     H1 4308   3.165   1.645   1.100
 1374HOH     H2 4309   3.068   1.595   1.204
 1375HOH      O 4310   1.910   3.557   0.895
 1375HOH     H1 4311   1.879   3.533   0.808
 1375HOH     H2 4312   2.004   3.537   0.893
 1376HOH      O 4313   1.926   1.104   1.189
 1376HOH     H1 4314   1.857   1.136   1.130
 1376HOH     H2 4315   1.949   1.181   1.241
 1377HOH      O 4316   0.421   0.160   1.008
 1377HOH     H1 4317   0.385   0.248   1.004
 1377HOH     H2 4318   0.388   0.117   0.929
 1378HOH      O 4319   0.619   2.735   1.672
 1378HOH     H1 4320   0.618   2.709   1.580
 1378HOH     H2 4321   0.636   2.830   1.670
 1379HOH      O 4322   1.510   2.175   0.659
 1379HOH     H1 4323   1.496   2.248   0.599
 1379HOH     H2 4324   1.447   2.190   0.730
 1380HOH      O 4325   0.292   3.937   0.872
 1380HOH     H1 4326   0.381   3.915   0.898
 1380HOH     H2 4327   0.273   3.878   0.799
 1381HOH      O 4328   1.553   2.640   0.175
 1381HOH     H1 4329   1.534   2.562   0.123
 1381HOH     H2 4330   1.537   2.613   0.265
 1382HOH      O 4331   2.817   2.086   1.852
 1382HOH     H1 4332   2.841   2.055   1.764
 1382HOH     H2 4333   2.721   2.087   1.852
 1383HOH      O 4334   1.798   2.869   2.760
 1383HOH     H1 4335   1.709   2.855   2.728
 1383HOH     H2 4336   1.792   2.948   2.814
 1384HOH      O 4337   3.009   3.653   3.103
 1384HOH     H1 4338   2.943   3.692   3.160
 1384HOH     H2 4339   3.068   3.606   3.162
 1385HOH      O 4340   1.659   3.715   0.213
 1385HOH     H1 4341   1.667   3.774   0.288
 1385HOH     H2 4342   1.750   3.704   0.182
 1386HOH      O 4343   2.218   1.980   1.745
 1386HOH     H1 4344   2.170   2.061   1.724
 1386HOH     H2 4345   2.206   1.969   1.839
 1387HOH      O 4346   3.036   1.289   2.346
 1387HOH     H1 4347   2.987   1.367   2.371
 1387HOH     H2 4348   3.113   1.323   2.301
 1388HOH      O 4349   2.736   3.330   0.647
 1388HOH     H1 4350   2.815   3.342   0.699
 1388HOH     H2 4351   2.666   3.321   0.712
 1389HOH      O 4352   2.312   0.941   1.780
 1389HOH     H1 4353   2.275   0.960   1.693
 1389HOH     H2 4354   2.394   0.895   1.761
 1390HOH      O 4355   0.964   0.940   3.762
 1390HOH     H1 4356   0.995   0.941   3.672
 1390HOH     H2 4357   1.039   0.969   3.813
 1391HOH      O 4358   3.256   0.318   3.084
 1391HOH     H1 4359   3.346   0.287   3.098
 1391HOH     H2 4360   3.251   0.399   3.135
 1392HOH      O 4361   3.442   2.403   0.642
 1392HOH     H1 4362   3.472   2.452   0.565
 1392HOH     H2 4363   3.347   2.412   0.641
 1393HOH      O 4364   0.610   3.159   1.186
 1393HOH     H1 4365   0.581   3.135   1.274
 1393HOH     H2 4366   0.683   3.100   1.169
 1394HOH      O 4367   1.821   0.466   1.983
 1394HOH     H1 4368   1.891   0.470   2.047
 1394HOH     H2 4369   1.764   0.395   2.013
 1395HOH      O 4370   0.832   3.647   3.396
 1395HOH     H1 4371   0.855   3.588   3.324
 1395HOH     H2 4372   0.808   3.589   3.467
 1396HOH      O 4373   1.672   2.428   1.319
 1396HOH     H1 4374   1.678   2.419   1.224
 1396HOH     H2 4375   1.584   2.463   1.334
 1397HOH      O 4376   3.104   2.233   1.397
 1397HOH     H1 4377   3.158   2.156   1.417
 1397HOH     H2 4378   3.094   2.278   1.481
 1398HOH      O 4379   1.428   3.795   3.764
 1398HOH     H1 4380   1.436   3.882   3.802
 1398HOH     H2 4381   1.337   3.771   3.779
 1399HOH      O 4382   1.308   0.822   0.606
 1399HOH     H1 4383   1.214   0.835   0.601
 1399HOH     H2 4384   1.345   0.906   0.579
 1400HOH      O 4385   1.087   0.178   1.798
 1400HOH     H1 4386   1.171   0.199   1.757
 1400HOH     H2 4387   1.064   0.093   1.761
 1401HOH      O 4388   1.525   3.141   1.185
 1401HOH     H1 4389   1.593   3.094   1.233
 1401HOH     H2 4390   1.443   3.118   1.230
 1402HOH      O 4391   0.815   1.046   1.785
 1402HOH     H1 4392   0.793   1.036   1.693
 1402HOH     H2 4393   0.730   1.042   1.830
 1403HOH      O 4394   1.738   3.622   2.389
 1403HOH     H1 4395   1.736   3.527   2.376
 1403HOH     H2 4396   1.803   3.635   2.458
 1404HOH      O 4397   2.204   2.701   2.767
 1404HOH     H1 4398   2.142   2.717   2.696
 1404HOH     H2 4399   2.232   2.610   2.756
 1405HOH      O 4400   3.999   3.530   1.798
 1405HOH     H1 4401   4.051   3.453   1.823
 1405HOH     H2 4402   3.948   3.550   1.877
 1406HOH      O 4403   2.196   1.408   1.304
 1406HOH     H1 4404   2.283   1.384   1.272
 1406HOH     H2 4405   2.212   1.475   1.370
 1407HOH      O 4406   1.265   2.370   2.840
 1407HOH     H1 4407   1.227   2.293   2.798
 1407HOH     H2 4408   1.304   2.337   2.920
 1408HOH      O 4409   2.174   0.711   1.926
 1408HOH     H1 4410   2.236   0.660   1.979
 1408HOH     H2 4411   2.230   0.765   1.870
 1409HOH      O 4412   0.158   3.032   1.338
 1409HOH     H1 4413   0.143   3.125   1.320
 1409HOH     H2 4414   0.170   2.993   1.252
 1410HOH      O 4415   3.994   1.861   0.077
 1410HOH     H1 4416   3.904   1.832   0.082
 1410HOH     H2 4417   4.033   1.808   0.007
 1411HOH      O 4418   0.060   3.410   0.754
 1411HOH     H1 4419   0.140   3.410   0.702
 1411HOH     H2 4420   0.078   3.472   0.825
 1412HOH      O 4421   0.685   1.334   0.784
 1412HOH     H1 4422   0.762   1.380   0.816
 1412HOH     H2 4423   0.713   1.242   0.778
 1413HOH      O 4424   2.038   3.720   0.532
 1413HOH     H1 4425   1.963   3.777   0.516
 1413HOH     H2 4426   2.013   3.636   0.493
 1414HOH      O 4427   1.353   0.301   4.009
 1414HOH     H1 4428   1.333   0.248   4.086
 1414HOH     H2 4429   1.303   0.259   3.938
 1415HOH      O 4430   0.993   3.924   1.786
 1415HOH     H1 4431   0.996   3.906   1.693
 1415HOH     H2 4432   0.988   3.838   1.828
 1416HOH      O 4433   2.589   0.540   1.180
 1416HOH     H1 4434   2.577   0.578   1.093
 1416HOH     H2 4435   2.627   0.454   1.163
 1417HOH      O 4436   1.995   0.198   3.410
 1417HOH     H1 4437   2.070   0.216   3.353
 1417HOH     H2 4438   2.032   0.194   3.498
 1418HOH      O 4439   3.972   3.244   3.010
 1418HOH     H1 4440   4.056   3.283   3.033
 1418HOH     H2 4441   3.980   3.225   2.916
 1419HOH      O 4442   2.583   2.214   0.266
 1419HOH     H1 4443   2.677   2.206   0.284
 1419HOH     H2 4444   2.571   2.171   0.182
 1420HOH      O 4445   2.890   2.036   1.409
 1420HOH     H1 4446   2.926   2.119   1.379
 1420HOH     H2 4447   2.967   1.979   1.418
 1421HOH      O 4448   0.957   3.920   2.613
 1421HOH     H1 4449   0.953   3.921   2.517
 1421HOH     H2 4450   1.048   3.897   2.632
 1422HOH      O 4451   1.440   3.785   0.051
 1422HOH     H1 4452   1.378   3.712   0.050
 1422HOH     H2 4453   1.513   3.754   0.104
 1423HOH      O 4454   0.212   2.463   0.831
 1423HOH     H1 4455   0.272   2.389   0.820
 1423HOH     H2 4456   0.127   2.423   0.849
 1424HOH      O 4457   1.192   1.090   2.053
 1424HOH     H1 4458   1.247   1.142   2.111
 1424HOH     H2 4459   1.214   1.120   1.965
 1425HOH      O 4460   3.143   3.079   0.903
 1425HOH     H1 4461   3.232   3.061   0.932
 1425HOH     H2 4462   3.124   3.011   0.838
 1426HOH      O 4463   0.084   2.606   2.509
 1426HOH     H1 4464   0.036   2.642   2.435
 1426HOH     H2 4465   0.117   2.522   2.477
 1427HOH      O 4466   0.398   0.394   4.000
 1427HOH     H1 4467   0.376   0.487   3.992
 1427HOH     H2 4468   0.361   0.354   3.922
 1428HOH      O 4469   0.097   2.773   0.846
 1428HOH     H1 4470   0.032   2.709   0.817
 1428HOH     H2 4471   0.117   2.822   0.766
 1429HOH      O 4472   2.569   2.100   2.570
 1429HOH     H1 4473   2.656   2.077   2.602
 1429HOH     H2 4474   2.578   2.101   2.474
 1430HOH      O 4475   3.642   0.821   2.408
 1430HOH     H1 4476   3.563   0.874   2.412
 1430HOH     H2 4477   3.712   0.883   2.389
 1431HOH      O 4478   2.319   0.488   0.220
 1431HOH     H1 4479   2.370   0.446   0.289
 1431HOH     H2 4480   2.324   0.582   0.240
 1432HOH      O 4481   0.199   0.301   2.180
 1432HOH     H1 4482   0.185   0.330   2.270
 1432HOH     H2 4483   0.238   0.377   2.136
 1433HOH      O 4484   2.229   0.130   3.850
 1433HOH     H1 4485   2.234   0.209   3.903
 1433HOH     H2 4486   2.320   0.106   3.834
 1434HOH      O 4487   2.064   2.549   1.518
 1434HOH     H1 4488   2.092   2.487   1.450
 1434HOH     H2 4489   2.095   2.634   1.487
 1435HOH      O 4490   3.358   0.593   1.777
 1435HOH     H1 4491   3.351   0.679   1.736
 1435HOH     H2 4492   3.452   0.580   1.791
 1436HOH      O 4493   3.753   2.424   1.084
 1436HOH     H1 4494   3.714   2.363   1.147
 1436HOH     H2 4495   3.686   2.433   1.016
 1437HOH      O 4496   3.032   3.184   0.084
 1437HOH     H1 4497   2.960   3.233   0.044
 1437HOH     H2 4498   3.075   3.247   0.142
 1438HOH      O 4499   3.532   2.612   1.715
 1438HOH     H1 4500   3.471   2.559   1.663
 1438HOH     H2 4501   3.599   2.640   1.652
 1439HOH      O 4502   1.835   1.811   3.311
 1439HOH     H1 4503   1.860   1.789   3.400
 1439HOH     H2 4504   1.807   1.727   3.273
 1440HOH      O 4505   3.748   1.807   2.442
 1440HOH     H1 4506   3.694   1.802   2.521
 1440HOH     H2 4507   3.836   1.826   2.475
 1441HOH      O 4508   0.270   1.834   1.880
 1441HOH     H1 4509   0.356   1.857   1.917
 1441HOH     H2 4510   0.267   1.879   1.796
 1442HOH      O 4511   3.829   3.097   0.744
 1442HOH     H1 4512   3.833   3.002   0.736
 1442HOH     H2 4513   3.780   3.112   0.825
 1443HOH      O 4514   3.504   0.059   0.746
 1443HOH     H1 4515   3.450   0.125   0.789
 1443HOH     H2 4516   3.465  -0.024   0.771
 1444HOH      O 4517   3.263   2.911   2.868
 1444HOH     H1 4518   3.172   2.886   2.888
 1444HOH     H2 4519   3.316   2.841   2.906
 1445HOH      O 4520   2.011   1.456   2.019
 1445HOH     H1 4521   1.931   1.494   2.054
 1445HOH     H2 4522   2.004   1.468   1.924
 1446HOH      O 4523   2.734   2.413   1.654
 1446HOH     H1 4524   2.814   2.444   1.611
 1446HOH     H2 4525   2.722   2.324   1.622
 1447HOH      O 4526   2.590   0.366   0.131
 1447HOH     H1 4527   2.497   0.376   0.112
 1447HOH     H2 4528   2.632   0.361   0.045
 1448HOH      O 4529   1.743   1.690   3.960
 1448HOH     H1 4530   1.790   1.617   4.000
 1448HOH     H2 4531   1.667   1.705   4.017
 1449HOH      O 4532   2.666   0.292   2.332
 1449HOH     H1 4533   2.636   0.224   2.271
 1449HOH     H2 4534   2.586   0.340   2.355
 1450HOH      O 4535   3.327   0.025   3.493
 1450HOH     H1 4536   3.418  -0.004   3.497
 1450HOH     H2 4537   3.291  -0.019   3.415
 1451HOH      O 4538   0.655   0.010   3.784
 1451HOH     H1 4539   0.743   0.031   3.753
 1451HOH     H2 4540   0.638   0.075   3.852
 1452HOH      O 4541   2.848   2.181   0.307
 1452HOH     H1 4542   2.904   2.137   0.243
 1452HOH     H2 4543   2.910   2.218   0.371
 1453HOH      O 4544   2.734   3.001   1.411
 1453HOH     H1 4545   2.765   2.930   1.354
 1453HOH     H2 4546   2.807   3.017   1.471
 1454HOH      O 4547   1.866   1.438   0.421
 1454HOH     H1 4548   1.889   1.398   0.337
 1454HOH     H2 4549   1.777   1.409   0.438
 1455HOH      O 4550   0.559   1.539   3.300
 1455HOH     H1 4551   0.590   1.484   3.228
 1455HOH     H2 4552   0.524   1.617   3.258
 1456HOH      O 4553   0.279   3.829   2.964
 1456HOH     H1 4554   0.292   3.887   2.889
 1456HOH     H2 4555   0.365   3.821   3.004
 1457HOH      O 4556   2.959   1.683   2.962
 1457HOH     H1 4557   2.953   1.619   3.033
 1457HOH     H2 4558   2.886   1.743   2.978
 1458HOH      O 4559   1.408   0.041   3.877
 1458HOH     H1 4560   1.487   0.088   3.903
 1458HOH     H2 4561   1.400  -0.030   3.941
 1459HOH      O 4562   2.550   1.133   3.369
 1459HOH     H1 4563   2.609   1.148   3.442
 1459HOH     H2 4564   2.607   1.116   3.294
 1460HOH      O 4565   2.988   1.017   3.892
 1460HOH     H1 4566   2.958   0.927   3.901
 1460HOH     H2 4567   3.057   1.025   3.958
 1461HOH      O 4568   3.938   3.735   3.351
 1461HOH     H1 4569   3.992   3.722   3.273
 1461HOH     H2 4570   3.872   3.799   3.324
 1462HOH      O 4571   2.565   2.377   0.941
 1462HOH     H1 4572   2.585   2.286   0.920
 1462HOH     H2 4573   2.649   2.415   0.967
 1463HOH      O 4574   1.753   1.962   3.911
 1463HOH     H1 4575   1.741   2.013   3.991
 1463HOH     H2 4576   1.748   1.871   3.940
 1464HOH      O 4577   0.906   1.996   2.921
 1464HOH     H1 4578   0.916   2.087   2.949
 1464HOH     H2 4579   0.945   1.995   2.833
 1465HOH      O 4580   2.324   3.664   2.827
 1465HOH     H1 4581   2.279   3.624   2.902
 1465HOH     H2 4582   2.322   3.758   2.845
 1466HOH      O 4583   3.270   2.427   1.695
 1466HOH     H1 4584   3.334   2.357   1.682
 1466HOH     H2 4585   3.202   2.388   1.749
 1467HOH      O 4586   3.629   3.288   2.832
 1467HOH     H1 4587   3.619   3.272   2.738
 1467HOH     H2 4588   3.688   3.219   2.862
 1468HOH      O 4589   1.496   3.450   1.465
 1468HOH     H1 4590   1.492   3.354   1.474
 1468HOH     H2 4591   1.510   3.482   1.554
 1469HOH      O 4592   3.969   2.724   2.270
 1469HOH     H1 4593   3.994   2.676   2.191
 1469HOH     H2 4594   3.917   2.798   2.239
 1470HOH      O 4595   0.550   1.947   3.983
 1470HOH     H1 4596   0.602   2.008   3.931
 1470HOH     H2 4597   0.485   1.913   3.922
 1471HOH      O 4598   0.045   0.651   2.389
 1471HOH     H1 4599  -0.016   0.676   2.458
 1471HOH     H2 4600   0.109   0.595   2.433
 1472HOH      O 4601   1.626   1.310   0.445
 1472HOH     H1 4602   1.564   1.344   0.380
 1472HOH     H2 4603   1.570   1.267   0.510
 1473HOH      O 4604   3.388   1.079   1.030
 1473HOH     H1 4605   3.480   1.079   1.003
 1473HOH     H2 4606   3.371   1.170   1.054
 1474HOH      O 4607   0.356   0.345   2.731
 1474HOH     H1 4608   0.285   0.283   2.716
 1474HOH     H2 4609   0.336   0.385   2.816
 1475HOH      O 4610   2.944   0.949   1.067
 1475HOH     H1 4611   2.901   1.030   1.094
 1475HOH     H2 4612   2.950   0.896   1.147
 1476HOH      O 4613   2.239   2.888   1.678
 1476HOH     H1 4614   2.325   2.922   1.655
 1476HOH     H2 4615   2.228   2.811   1.622
 1477HOH      O 4616   0.765   0.336   1.877
 1477HOH     H1 4617   0.672   0.313   1.874
 1477HOH     H2 4618   0.800   0.304   1.794
 1478HOH      O 4619   0.500   2.348   3.483
 1478HOH     H1 4620   0.452   2.265   3.477
 1478HOH     H2 4621   0.502   2.381   3.393
 1479HOH      O 4622   2.110   1.375   0.591
 1479HOH     H1 4623   2.032   1.383   0.536
 1479HOH     H2 4624   2.149   1.463   0.590
 1480HOH      O 4625   0.702   2.433   3.836
 1480HOH     H1 4626   0.636   2.448   3.904
 1480HOH     H2 4627   0.728   2.341   3.849
 1481HOH      O 4628   1.122   3.864   3.756
 1481HOH     H1 4629   1.141   3.951   3.721
 1481HOH     H2 4630   1.060   3.827   3.694
 1482HOH      O 4631   2.751   2.543   0.630
 1482HOH     H1 4632   2.703   2.512   0.553
 1482HOH     H2 4633   2.728   2.636   0.637
 1483HOH      O 4634   1.351   1.384   3.485
 1483HOH     H1 4635   1.257   1.369   3.498
 1483HOH     H2 4636   1.370   1.347   3.399
 1484HOH      O 4637   0.479   2.367   1.811
 1484HOH     H1 4638   0.482   2.279   1.773
 1484HOH     H2 4639   0.396   2.370   1.858
 1485HOH      O 4640   1.377   0.805   2.853
 1485HOH     H1 4641   1.434   0.798   2.776
 1485HOH     H2 4642   1.437   0.803   2.927
 1486HOH      O 4643   2.960   2.538   1.543
 1486HOH     H1 4644   3.022   2.591   1.592
 1486HOH     H2 4645   2.889   2.598   1.521
 1487HOH      O 4646   3.014   0.283   1.386
 1487HOH     H1 4647   3.074   0.250   1.320
 1487HOH     H2 4648   3.070   0.327   1.451
 1488HOH      O 4649   1.887   1.128   1.615
 1488HOH     H1 4650   1.815   1.079   1.574
 1488HOH     H2 4651   1.929   1.174   1.542
 1489HOH      O 4652   1.381   1.934   2.897
 1489HOH     H1 4653   1.335   1.975   2.971
 1489HOH     H2 4654   1.336   1.850   2.884
 1490HOH      O 4655   1.019   2.311   0.016
 1490HOH     H1 4656   0.936   2.324  -0.029
 1490HOH     H2 4657   1.015   2.368   0.092
 1491HOH      O 4658   3.043   3.415   1.598
 1491HOH     H1 4659   3.029   3.410   1.504
 1491HOH     H2 4660   2.955   3.419   1.636
 1492HOH      O 4661   2.204   2.935   3.223
 1492HOH     H1 4662   2.144   2.861   3.221
 1492HOH     H2 4663   2.223   2.953   3.131
 1493HOH      O 4664   3.161   3.235   2.368
 1493HOH     H1 4665   3.073   3.203   2.386
 1493HOH     H2 4666   3.200   3.168   2.312
 1494HOH      O 4667   2.380   2.011   2.729
 1494HOH     H1 4668   2.436   2.040   2.658
 1494HOH     H2 4669   2.343   1.928   2.699
 1495HOH      O 4670   2.113   3.604   1.705
 1495HOH     H1 4671   2.195   3.638   1.741
 1495HOH     H2 4672   2.054   3.679   1.705
 1496HOH      O 4673   1.645   1.676   1.309
 1496HOH     H1 4674   1.673   1.592   1.273
 1496HOH     H2 4675   1.717   1.704   1.366
 1497HOH      O 4676   3.608   2.879   3.849
 1497HOH     H1 4677   3.648   2.874   3.762
 1497HOH     H2 4678   3.536   2.816   3.846
 1498HOH      O 4679   0.326   0.294   3.529
 1498HOH     H1 4680   0.292   0.291   3.619
 1498HOH     H2 4681   0.262   0.345   3.481
 1499HOH      O 4682   2.867   2.686   2.717
 1499HOH     H1 4683   2.862   2.775   2.683
 1499HOH     H2 4684   2.954   2.655   2.692
 1500HOH      O 4685   0.371   2.348   1.308
 1500HOH     H1 4686   0.371   2.288   1.234
 1500HOH     H2 4687   0.370   2.435   1.268
 1501HOH      O 4688   2.918   3.711   2.380
 1501HOH     H1 4689   3.013   3.707   2.370
 1501HOH     H2 4690   2.904   3.759   2.461
 1502HOH      O 4691   0.163   3.294   3.860
 1502HOH     H1 4692   0.136   3.384   3.843
 1502HOH     H2 4693   0.202   3.296   3.947
 1503HOH      O 4694   2.780   1.781   1.922
 1503HOH     H1 4695   2.817   1.701   1.885
 1503HOH     H2 4696   2.796   1.848   1.856
 1504HOH      O 4697   1.398   0.309   0.465
 1504HOH     H1 4698   1.409   0.382   0.526
 1504HOH     H2 4699   1.306   0.312   0.441
 1505HOH      O 4700   3.690   2.090   3.345
 1505HOH     H1 4701   3.784   2.109   3.339
 1505HOH     H2 4702   3.681   2.006   3.301
 1506HOH      O 4703   1.540   2.994   2.004
 1506HOH     H1 4704   1.561   3.052   1.930
 1506HOH     H2 4705   1.615   3.004   2.063
 1507HOH      O 4706   3.741   0.233   3.805
 1507HOH     H1 4707   3.651   0.240   3.775
 1507HOH     H2 4708   3.783   0.313   3.772
 1508HOH      O 4709   0.347   2.385   2.615
 1508HOH     H1 4710   0.286   2.387   2.542
 1508HOH     H2 4711   0.422   2.438   2.585
 1509HOH      O 4712   1.610   0.195  -0.017
 1509HOH     H1 4713   1.525   0.232  -0.041
 1509HOH     H2 4714   1.629   0.231   0.069
 1510HOH      O 4715   3.552   2.813   2.679
 1510HOH     H1 4716   3.472   2.840   2.723
 1510HOH     H2 4717   3.534   2.823   2.586
 1511HOH      O 4718   0.525   3.852   3.120
 1511HOH     H1 4719   0.509   3.803   3.201
 1511HOH     H2 4720   0.618   3.875   3.125
 1512HOH      O 4721   2.208   2.195   3.676
 1512HOH     H1 4722   2.164   2.261   3.730
 1512HOH     H2 4723   2.246   2.246   3.604
 1513HOH      O 4724   1.590   1.010   2.174
 1513HOH     H1 4725   1.644   1.066   2.118
 1513HOH     H2 4726   1.527   1.071   2.214
 1514HOH      O 4727   2.944   2.235   1.195
 1514HOH     H1 4728   2.992   2.207   1.117
 1514HOH     H2 4729   3.012   2.255   1.259
 1515HOH      O 4730   3.101   0.114   3.956
 1515HOH     H1 4731   3.081   0.207   3.951
 1515HOH     H2 4732   3.109   0.086   3.865
 1516HOH      O 4733   0.481   2.135   1.651
 1516HOH     H1 4734   0.510   2.069   1.587
 1516HOH     H2 4735   0.395   2.104   1.679
 1517HOH      O 4736   3.182   2.792   2.213
 1517HOH     H1 4737   3.215   2.712   2.253
 1517HOH     H2 4738   3.086   2.782   2.216
 1518HOH      O 4739   1.574   3.184   3.028
 1518HOH     H1 4740   1.494   3.134   3.015
 1518HOH     H2 4741   1.567   3.257   2.965
 1519HOH      O 4742   2.660   2.679   3.456
 1519HOH     H1 4743   2.663   2.586   3.431
 1519HOH     H2 4744   2.583   2.687   3.511
 1520HOH      O 4745   2.729   2.647   1.422
 1520HOH     H1 4746   2.770   2.691   1.347
 1520HOH     H2 4747   2.673   2.580   1.382
 1521HOH      O 4748   0.723   1.369   3.727
 1521HOH     H1 4749   0.714   1.289   3.779
 1521HOH     H2 4750   0.639   1.378   3.682
 1522HOH      O 4751   1.351   3.536   0.713
 1522HOH     H1 4752   1.385   3.559   0.800
 1522HOH     H2 4753   1.356   3.441   0.710
 1523HOH      O 4754   1.691   0.396   2.736
 1523HOH     H1 4755   1.733   0.423   2.654
 1523HOH     H2 4756   1.616   0.454   2.743
 1524HOH      O 4757   3.524   3.503   1.392
 1524HOH     H1 4758   3.447   3.560   1.394
 1524HOH     H2 4759   3.554   3.501   1.483
 1525HOH      O 4760   1.985   2.630   3.474
 1525HOH     H1 4761   2.019   2.651   3.386
 1525HOH     H2 4762   1.962   2.537   3.469
 1526HOH      O 4763   1.084   2.541   3.362
 1526HOH     H1 4764   1.017   2.603   3.389
 1526HOH     H2 4765   1.160   2.561   3.418
 1527HOH      O 4766   2.178   3.495   0.891
 1527HOH     H1 4767   2.237   3.565   0.920
 1527HOH     H2 4768   2.202   3.420   0.945
 1528HOH      O 4769   0.521   2.011   3.455
 1528HOH     H1 4770   0.577   1.933   3.447
 1528HOH     H2 4771   0.433   1.976   3.465
 1529HOH      O 4772   1.661   1.767   0.992
 1529HOH     H1 4773   1.730   1.800   1.050
 1529HOH     H2 4774   1.708   1.721   0.922
 1530HOH      O 4775   2.863   2.892   2.276
 1530HOH     H1 4776   2.794   2.928   2.220
 1530HOH     H2 4777   2.857   2.798   2.263
 1531HOH      O 4778   3.935   1.800   1.742
 1531HOH     H1 4779   3.941   1.887   1.782
 1531HOH     H2 4780   4.023   1.782   1.710
 1532HOH      O 4781   0.077   2.379   2.808
 1532HOH     H1 4782   0.041   2.306   2.758
 1532HOH     H2 4783   0.138   2.421   2.748
 1533HOH      O 4784   3.439   2.119   2.086
 1533HOH     H1 4785   3.455   2.031   2.053
 1533HOH     H2 4786   3.463   2.115   2.179
 1534HOH      O 4787   2.813   2.048   0.665
 1534HOH     H1 4788   2.778   1.994   0.736
 1534HOH     H2 4789   2.901   2.013   0.651
 1535HOH      O 4790   1.905   3.899   2.606
 1535HOH     H1 4791   1.949   3.979   2.635
 1535HOH     H2 4792   1.928   3.892   2.513
 1536HOH      O 4793   1.297   3.236   1.665
 1536HOH     H1 4794   1.300   3.297   1.739
 1536HOH     H2 4795   1.388   3.229   1.635
 1537HOH      O 4796   0.078   2.350   1.779
 1537HOH     H1 4797   0.094   2.350   1.685
 1537HOH     H2 4798   0.078   2.442   1.804
 1538HOH      O 4799   2.244   2.035   3.370
 1538HOH     H1 4800   2.271   2.072   3.287
 1538HOH     H2 4801   2.324   1.995   3.406
 1539HOH      O 4802   3.508   2.435   2.156
 1539HOH     H1 4803   3.507   2.348   2.115
 1539HOH     H2 4804   3.597   2.444   2.190
 1540HOH      O 4805   1.892   1.455   4.003
 1540HOH     H1 4806   1.909   1.420   4.090
 1540HOH     H2 4807   1.825   1.397   3.966
 1541HOH      O 4808   3.867   0.245   3.507
 1541HOH     H1 4809   3.945   0.202   3.542
 1541HOH     H2 4810   3.837   0.301   3.578
 1542HOH      O 4811   1.184   1.655   3.196
 1542HOH     H1 4812   1.107   1.672   3.142
 1542HOH     H2 4813   1.225   1.741   3.206
 1543HOH      O 4814   0.194   0.147   2.640
 1543HOH     H1 4815   0.231   0.059   2.640
 1543HOH     H2 4816   0.118   0.142   2.698
 1544HOH      O 4817   0.099   1.162   0.881
 1544HOH     H1 4818   0.113   1.068   0.875
 1544HOH     H2 4819   0.118   1.195   0.793
 1545HOH      O 4820   0.991   0.707   2.665
 1545HOH     H1 4821   0.932   0.639   2.633
 1545HOH     H2 4822   1.033   0.741   2.586
 1546HOH      O 4823   2.489   1.805   2.887
 1546HOH     H1 4824   2.442   1.887   2.873
 1546HOH     H2 4825   2.475   1.784   2.979
 1547HOH      O 4826   3.091   2.860   3.696
 1547HOH     H1 4827   3.185   2.847   3.699
 1547HOH     H2 4828   3.071   2.907   3.777
 1548HOH      O 4829   2.162   0.864   3.527
 1548HOH     H1 4830   2.196   0.903   3.607
 1548HOH     H2 4831   2.112   0.788   3.556
 1549HOH      O 4832   2.035   2.052   2.786
 1549HOH     H1 4833   2.002   2.053   2.696
 1549HOH     H2 4834   2.040   1.958   2.808
 1550HOH      O 4835   3.662   1.897   3.786
 1550HOH     H1 4836   3.581   1.882   3.737
 1550HOH     H2 4837   3.698   1.809   3.799
 1551HOH      O 4838   1.242   3.012   2.020
 1551HOH     H1 4839   1.185   3.085   2.047
 1551HOH     H2 4840   1.328   3.035   2.056
 1552HOH      O 4841   1.319   3.060   3.095
 1552HOH     H1 4842   1.264   3.099   3.028
 1552HOH     H2 4843   1.306   2.965   3.086
 1553HOH      O 4844   0.774   1.973   0.325
 1553HOH     H1 4845   0.761   1.939   0.414
 1553HOH     H2 4846   0.869   1.978   0.315
 1554HOH      O 4847   2.601   2.519   0.398
 1554HOH     H1 4848   2.623   2.434   0.359
 1554HOH     H2 4849   2.505   2.521   0.400
 1555HOH      O 4850   0.309   0.415   0.982
 1555HOH     H1 4851   0.398   0.437   1.010
 1555HOH     H2 4852   0.254   0.441   1.056
 1556HOH      O 4853   1.256   1.060   2.913
 1556HOH     H1 4854   1.244   0.968   2.890
 1556HOH     H2 4855   1.306   1.059   2.994
 1557HOH      O 4856   1.542   0.075   2.417
 1557HOH     H1 4857   1.533   0.152   2.361
 1557HOH     H2 4858   1.537   0.110   2.506
 1558HOH      O 4859   1.347   2.484   3.536
 1558HOH     H1 4860   1.338   2.390   3.555
 1558HOH     H2 4861   1.299   2.528   3.606
 1559HOH      O 4862   0.335   2.942   0.407
 1559HOH     H1 4863   0.320   2.936   0.312
 1559HOH     H2 4864   0.351   3.035   0.423
 1560HOH      O 4865   2.358   3.404   2.752
 1560HOH     H1 4866   2.365   3.383   2.658
 1560HOH     H2 4867   2.376   3.498   2.757
 1561HOH      O 4868   0.214   2.605   0.576
 1561HOH     H1 4869   0.220   2.559   0.660
 1561HOH     H2 4870   0.281   2.564   0.522
 1562HOH      O 4871   0.200   3.061   0.105
 1562HOH     H1 4872   0.263   3.128   0.077
 1562HOH     H2 4873   0.213   2.988   0.045
 1563HOH      O 4874   2.477   3.067   3.644
 1563HOH     H1 4875   2.564   3.064   3.604
 1563HOH     H2 4876   2.424   3.008   3.590
 1564HOH      O 4877   1.089   3.483   1.167
 1564HOH     H1 4878   1.113   3.573   1.144
 1564HOH     H2 4879   1.056   3.489   1.256
 1565HOH      O 4880   1.078   2.110   0.964
 1565HOH     H1 4881   1.053   2.027   1.004
 1565HOH     H2 4882   1.109   2.164   1.036
 1566HOH      O 4883   1.806   0.456   3.662
 1566HOH     H1 4884   1.784   0.507   3.740
 1566HOH     H2 4885   1.856   0.516   3.607
 1567HOH      O 4886   0.613   1.348   3.127
 1567HOH     H1 4887   0.632   1.276   3.187
 1567HOH     H2 4888   0.689   1.353   3.070
 1568HOH      O 4889   3.488   0.842   2.058
 1568HOH     H1 4890   3.567   0.894   2.042
 1568HOH     H2 4891   3.451   0.878   2.138
 1569HOH      O 4892   0.848   0.183   3.010
 1569HOH     H1 4893   0.766   0.165   2.964
 1569HOH     H2 4894   0.888   0.097   3.020
 1570HOH      O 4895   3.695   1.967   0.697
 1570HOH     H1 4896   3.732   2.043   0.741
 1570HOH     H2 4897   3.762   1.941   0.633
 1571HOH      O 4898   3.314   3.250   3.572
 1571HOH     H1 4899   3.328   3.345   3.580
 1571HOH     H2 4900   3.298   3.221   3.662
 1572HOH      O 4901   4.018   3.504   2.539
 1572HOH     H1 4902   4.062   3.432   2.495
 1572HOH     H2 4903   3.927   3.475   2.547
 1573HOH      O 4904   1.636   0.541   2.993
 1573HOH     H1 4905   1.659   0.634   2.989
 1573HOH     H2 4906   1.692   0.505   3.061
 1574HOH      O 4907   1.022   3.643   1.410
 1574HOH     H1 4908   1.016   3.699   1.333
 1574HOH     H2 4909   1.116   3.637   1.428
 1575HOH      O 4910   0.517   2.843   0.600
 1575HOH     H1 4911   0.466   2.814   0.676
 1575HOH     H2 4912   0.453   2.855   0.531
 1576HOH      O 4913   0.393   0.049   3.000
 1576HOH     H1 4914   0.386   0.120   3.064
 1576HOH     H2 4915   0.414  -0.028   3.053
 1577HOH      O 4916   1.180   2.614   3.704
 1577HOH     H1 4917   1.122   2.545   3.673
 1577HOH     H2 4918   1.196   2.593   3.796
 1578HOH      O 4919   1.386   0.053   0.586
 1578HOH     H1 4920   1.300   0.015   0.567
 1578HOH     H2 4921   1.372   0.147   0.581
 1579HOH      O 4922   2.694   0.736   1.360
 1579HOH     H1 4923   2.627   0.796   1.326
 1579HOH     H2 4924   2.664   0.649   1.333
 1580HOH      O 4925   0.813   0.722   3.700
 1580HOH     H1 4926   0.870   0.791   3.734
 1580HOH     H2 4927   0.734   0.729   3.753
 1581HOH      O 4928   1.413   2.645   1.641
 1581HOH     H1 4929   1.488   2.608   1.688
 1581HOH     H2 4930   1.337   2.612   1.687
 1582HOH      O 4931   1.013   0.452   1.929
 1582HOH     H1 4932   1.064   0.382   1.889
 1582HOH     H2 4933   0.922   0.425   1.918
 1583HOH      O 4934   2.864   0.792   0.016
 1583HOH     H1 4935   2.786   0.762   0.064
 1583HOH     H2 4936   2.932   0.729   0.040
 1584HOH      O 4937   2.204   1.637   2.847
 1584HOH     H1 4938   2.247   1.698   2.787
 1584HOH     H2 4939   2.114   1.668   2.852
 1585HOH      O 4940   0.813   0.555   3.451
 1585HOH     H1 4941   0.886   0.609   3.480
 1585HOH     H2 4942   0.843   0.465   3.461
 1586HOH      O 4943   2.686   2.809   0.643
 1586HOH     H1 4944   2.625   2.872   0.681
 1586HOH     H2 4945   2.761   2.862   0.614
 1587HOH      O 4946   1.954   1.362   0.851
 1587HOH     H1 4947   2.020   1.357   0.781
 1587HOH     H2 4948   1.917   1.274   0.856
 1588HOH      O 4949   2.816   3.906   3.714
 1588HOH     H1 4950   2.815   3.919   3.619
 1588HOH     H2 4951   2.727   3.877   3.735
 1589HOH      O 4952   2.381   2.228   1.343
 1589HOH     H1 4953   2.451   2.164   1.336
 1589HOH     H2 4954   2.329   2.198   1.418
 1590HOH      O 4955   2.305   3.525   0.301
 1590HOH     H1 4956   2.325   3.521   0.394
 1590HOH     H2 4957   2.332   3.440   0.266
 1591HOH      O 4958   3.805   2.834   0.639
 1591HOH     H1 4959   3.877   2.829   0.576
 1591HOH     H2 4960   3.801   2.747   0.678
 1592HOH      O 4961   3.187   0.936   2.966
 1592HOH     H1 4962   3.218   0.998   2.900
 1592HOH     H2 4963   3.202   0.979   3.049
 1593HOH      O 4964   3.489   0.345   3.429
 1593HOH     H1 4965   3.394   0.351   3.436
 1593HOH     H2 4966   3.517   0.321   3.517
 1594HOH      O 4967   3.317   3.684   3.345
 1594HOH     H1 4968   3.255   3.619   3.314
 1594HOH     H2 4969   3.289   3.766   3.304
 1595HOH      O 4970   0.299   1.735   0.718
 1595HOH     H1 4971   0.265   1.805   0.663
 1595HOH     H2 4972   0.226   1.674   0.728
 1596HOH      O 4973   1.581   3.939   2.993
 1596HOH     H1 4974   1.599   4.026   3.028
 1596HOH     H2 4975   1.631   3.934   2.912
 1597HOH      O 4976   1.458   3.589   3.014
 1597HOH     H1 4977   1.417   3.502   3.008
 1597HOH     H2 4978   1.421   3.638   2.941
 1598HOH      O 4979   3.085   2.258   1.800
 1598HOH     H1 4980   3.001   2.220   1.773
 1598HOH     H2 4981   3.123   2.193   1.859
 1599HOH      O 4982   1.275   2.188   0.796
 1599HOH     H1 4983   1.198   2.208   0.742
 1599HOH     H2 4984   1.249   2.110   0.845
 1600HOH      O 4985   2.597   3.560   3.634
 1600HOH     H1 4986   2.688   3.531   3.623
 1600HOH     H2 4987   2.549   3.481   3.659
 1601HOH      O 4988   1.016   1.982   2.652
 1601HOH     H1 4989   1.029   1.979   2.557
 1601HOH     H2 4990   0.985   1.894   2.674
 1602HOH      O 4991   3.801   2.543   2.899
 1602HOH     H1 4992   3.795   2.606   2.827
 1602HOH     H2 4993   3.771   2.461   2.860
 1603HOH      O 4994   2.550   2.050   1.890
 1603HOH     H1 4995   2.463   2.088   1.903
 1603HOH     H2 4996   2.568   2.002   1.971
 1604HOH      O 4997   2.432   2.706   1.117
 1604HOH     H1 4998   2.353   2.705   1.064
 1604HOH     H2 4999   2.495   2.756   1.065
 1605HOH      O 5000   4.039   3.137   0.566
 1605HOH     H1 5001   3.959   3.134   0.618
 1605HOH     H2 5002   4.016   3.188   0.489
 1606HOH      O 5003   1.243   3.370   3.237
 1606HOH     H1 5004   1.249   3.290   3.289
 1606HOH     H2 5005   1.162   3.360   3.187
 1607HOH      O 5006   0.872   1.698   1.997
 1607HOH     H1 5007   0.896   1.717   1.906
 1607HOH     H2 5008   0.872   1.784   2.039
 1608HOH      O 5009   1.735   0.690   1.826
 1608HOH     H1 5010   1.780   0.638   1.893
 1608HOH     H2 5011   1.779   0.775   1.828
 1609HOH      O 5012   1.490   1.178   1.830
 1609HOH     H1 5013   1.555   1.154   1.896
 1609HOH     H2 5014   1.451   1.259   1.863
 1610HOH      O 5015   1.795   3.849   0.583
 1610HOH     H1 5016   1.736   3.774   0.580
 1610HOH     H2 5017   1.787   3.883   0.673
 1611HOH      O 5018   3.310   1.466   2.746
 1611HOH     H1 5019   3.237   1.417   2.708
 1611HOH     H2 5020   3.269   1.522   2.813
 1612HOH      O 5021   2.579   1.733   1.185
 1612HOH     H1 5022   2.546   1.648   1.155
 1612HOH     H2 5023   2.555   1.736   1.278
 1613HOH      O 5024   0.349   0.609   1.883
 1613HOH     H1 5025   0.266   0.653   1.898
 1613HOH     H2 5026   0.358   0.547   1.955
 1614HOH      O 5027   1.242   2.706   1.190
 1614HOH     H1 5028   1.315   2.761   1.219
 1614HOH     H2 5029   1.283   2.644   1.129
 1615HOH      O 5030   1.937   3.644   2.682
 1615HOH     H1 5031   1.944   3.740   2.677
 1615HOH     H2 5032   2.003   3.613   2.619
 1616HOH      O 5033   0.591   0.792   3.902
 1616HOH     H1 5034   0.503   0.756   3.915
 1616HOH     H2 5035   0.577   0.886   3.890
 1617HOH      O 5036   1.176   0.703   3.378
 1617HOH     H1 5037   1.262   0.712   3.338
 1617HOH     H2 5038   1.191   0.651   3.457
 1618HOH      O 5039   3.781   0.161   0.594
 1618HOH     H1 5040   3.849   0.227   0.611
 1618HOH     H2 5041   3.708   0.211   0.557
 1619HOH      O 5042   2.291   2.449   2.787
 1619HOH     H1 5043   2.249   2.375   2.831
 1619HOH     H2 5044   2.384   2.429   2.790
 1620HOH      O 5045  -0.017   3.704   0.868
 1620HOH     H1 5046   0.048   3.705   0.798
 1620HOH     H2 5047   0.026   3.659   0.941
 1621HOH      O 5048   2.347   3.268   0.652
 1621HOH     H1 5049   2.285   3.203   0.618
 1621HOH     H2 5050   2.327   3.347   0.602
 1622HOH      O 5051   3.524   3.328   0.082
 1622HOH     H1 5052   3.564   3.398   0.134
 1622HOH     H2 5053   3.575   3.250   0.104
 1623HOH      O 5054   1.528   2.732   1.916
 1623HOH     H1 5055   1.586   2.701   1.846
 1623HOH     H2 5056   1.560   2.819   1.937
 1624HOH      O 5057   2.440   1.116   1.580
 1624HOH     H1 5058   2.374   1.096   1.514
 1624HOH     H2 5059   2.522   1.122   1.530
 1625HOH      O 5060   3.429   0.245   2.002
 1625HOH     H1 5061   3.379   0.178   2.047
 1625HOH     H2 5062   3.369   0.320   1.996
 1626HOH      O 5063   0.236   0.252   3.828
 1626HOH     H1 5064   0.147   0.282   3.814
 1626HOH     H2 5065   0.229   0.156   3.830
 1627HOH      O 5066   3.376   3.079   3.385
 1627HOH     H1 5067   3.328   2.997   3.370
 1627HOH     H2 5068   3.311   3.138   3.423
 1628HOH      O 5069   1.999   2.816   2.578
 1628HOH     H1 5070   1.988   2.726   2.549
 1628HOH     H2 5071   1.936   2.826   2.649
 1629HOH      O 5072   3.565   1.542   2.057
 1629HOH     H1 5073   3.636   1.594   2.095
 1629HOH     H2 5074   3.486   1.573   2.101
 1630HOH      O 5075   0.396   3.301   1.094
 1630HOH     H1 5076   0.379   3.218   1.049
 1630HOH     H2 5077   0.487   3.294   1.123
 1631HOH      O 5078   1.190   0.205   2.590
 1631HOH     H1 5079   1.155   0.245   2.670
 1631HOH     H2 5080   1.236   0.127   2.621
 1632HOH      O 5081   2.586   2.109   2.874
 1632HOH     H1 5082   2.647   2.148   2.812
 1632HOH     H2 5083   2.502   2.109   2.829
 1633HOH      O 5084   0.893   0.585   2.377
 1633HOH     H1 5085   0.868   0.677   2.372
 1633HOH     H2 5086   0.854   0.553   2.458
 1634HOH      O 5087   2.780   3.125   0.260
 1634HOH     H1 5088   2.845   3.058   0.240
 1634HOH     H2 5089   2.802   3.197   0.201
 1635HOH      O 5090   0.963   2.894   2.293
 1635HOH     H1 5091   0.931   2.927   2.209
 1635HOH     H2 5092   1.049   2.933   2.304
 1636HOH      O 5093   2.688   2.346   3.765
 1636HOH     H1 5094   2.777   2.381   3.765
 1636HOH     H2 5095   2.690   2.277   3.698
 1637HOH      O 5096   2.426   0.408   2.390
 1637HOH     H1 5097   2.371   0.416   2.312
 1637HOH     H2 5098   2.377   0.456   2.458
 1638HOH      O 5099   0.263   1.185   0.243
 1638HOH     H1 5100   0.308   1.117   0.294
 1638HOH     H2 5101   0.285   1.267   0.287
 1639HOH      O 5102   0.230   3.153   2.994
 1639HOH     H1 5103   0.305   3.149   3.053
 1639HOH     H2 5104   0.186   3.069   3.005
 1640HOH      O 5105   1.755   1.372   3.627
 1640HOH     H1 5106   1.740   1.466   3.636
 1640HOH     H2 5107   1.850   1.363   3.624
 1641HOH      O 5108   3.753   3.225   3.754
 1641HOH     H1 5109   3.666   3.263   3.766
 1641HOH     H2 5110   3.784   3.262   3.671
 1642HOH      O 5111   2.944   2.922   2.633
 1642HOH     H1 5112   2.933   2.974   2.554
 1642HOH     H2 5113   2.960   2.986   2.703
 1643HOH      O 5114   0.988   2.889   0.632
 1643HOH     H1 5115   0.973   2.981   0.610
 1643HOH     H2 5116   1.043   2.857   0.561
 1644HOH      O 5117   1.124   1.559   1.945
 1644HOH     H1 5118   1.042   1.581   1.988
 1644HOH     H2 5119   1.108   1.576   1.852
 1645HOH      O 5120   0.126   0.057   2.927
 1645HOH     H1 5121   0.083  -0.021   2.964
 1645HOH     H2 5122   0.215   0.053   2.961
 1646HOH      O 5123   3.284   1.935   0.232
 1646HOH     H1 5124   3.325   1.875   0.169
 1646HOH     H2 5125   3.347   2.007   0.239
 1647HOH      O 5126   1.720   1.187   3.957
 1647HOH     H1 5127   1.708   1.124   4.029
 1647HOH     H2 5128   1.767   1.137   3.890
 1648HOH      O 5129   0.867   0.967   2.724
 1648HOH     H1 5130   0.873   0.880   2.685
 1648HOH     H2 5131   0.909   0.958   2.809
 1649HOH      O 5132   2.676   2.835   1.661
 1649HOH     H1 5133   2.761   2.875   1.678
 1649HOH     H2 5134   2.680   2.805   1.571
 1650HOH      O 5135   3.187   0.430   1.570
 1650HOH     H1 5136   3.278   0.457   1.583
 1650HOH     H2 5137   3.148   0.436   1.657
 1651HOH      O 5138   3.863   3.340   0.961
 1651HOH     H1 5139   3.947   3.320   1.002
 1651HOH     H2 5140   3.879   3.331   0.867
 1652HOH      O 5141   2.221   1.477   3.562
 1652HOH     H1 5142   2.213   1.559   3.512
 1652HOH     H2 5143   2.172   1.493   3.642
 1653HOH      O 5144   1.598   2.894   2.423
 1653HOH     H1 5145   1.521   2.851   2.385
 1653HOH     H2 5146   1.576   2.904   2.516
 1654HOH      O 5147   3.624   0.036   1.462
 1654HOH     H1 5148   3.600   0.109   1.519
 1654HOH     H2 5149   3.642   0.077   1.378
 1655HOH      O 5150   0.560   0.500   1.058
 1655HOH     H1 5151   0.606   0.575   1.094
 1655HOH     H2 5152   0.606   0.480   0.977
 1656HOH      O 5153   3.827   0.636   1.954
 1656HOH     H1 5154   3.834   0.676   1.867
 1656HOH     H2 5155   3.746   0.585   1.951
 1657HOH      O 5156   2.704   0.440   1.909
 1657HOH     H1 5157   2.788   0.395   1.908
 1657HOH     H2 5158   2.683   0.456   1.817
 1658HOH      O 5159   2.720   1.359   1.156
 1658HOH     H1 5160   2.788   1.319   1.211
 1658HOH     H2 5161   2.766   1.424   1.104
 1659HOH      O 5162   3.737   3.113   2.398
 1659HOH     H1 5163   3.778   3.044   2.450
 1659HOH     H2 5164   3.652   3.127   2.440
 1660HOH      O 5165   0.357   1.601   2.209
 1660HOH     H1 5166   0.386   1.692   2.213
 1660HOH     H2 5167   0.437   1.550   2.212
 1661HOH      O 5168   2.923   2.610   3.894
 1661HOH     H1 5169   2.872   2.688   3.915
 1661HOH     H2 5170   2.926   2.560   3.975
 1662HOH      O 5171   0.450   1.832   1.200
 1662HOH     H1 5172   0.495   1.915   1.184
 1662HOH     H2 5173   0.516   1.766   1.179
 1663HOH      O 5174   1.013   3.776   3.220
 1663HOH     H1 5175   0.950   3.750   3.288
 1663HOH     H2 5176   1.091   3.801   3.268
 1664HOH      O 5177   0.621   0.774   1.941
 1664HOH     H1 5178   0.595   0.864   1.921
 1664HOH     H2 5179   0.578   0.721   1.874
 1665HOH      O 5180   0.589   3.537   3.897
 1665HOH     H1 5181   0.601   3.632   3.903
 1665HOH     H2 5182   0.565   3.522   3.805
 1666HOH      O 5183   3.642   3.590   3.055
 1666HOH     H1 5184   3.580   3.517   3.050
 1666HOH     H2 5185   3.701   3.566   3.127
 1667HOH      O 5186   3.543   3.055   3.594
 1667HOH     H1 5187   3.550   3.133   3.648
 1667HOH     H2 5188   3.479   3.078   3.527
 1668HOH      O 5189   3.218   0.414   2.672
 1668HOH     H1 5190   3.211   0.499   2.715
 1668HOH     H2 5191   3.290   0.370   2.717
 1669HOH      O 5192   1.511   3.275   3.687
 1669HOH     H1 5193   1.458   3.354   3.700
 1669HOH     H2 5194   1.593   3.293   3.733
 1670HOH      O 5195   1.201   3.688   0.487
 1670HOH     H1 5196   1.115   3.682   0.528
 1670HOH     H2 5197   1.255   3.624   0.533
 1671HOH      O 5198   1.601   2.145   2.470
 1671HOH     H1 5199   1.590   2.143   2.375
 1671HOH     H2 5200   1.548   2.219   2.499
 1672HOH      O 5201   1.565   1.396   0.872
 1672HOH     H1 5202   1.644   1.444   0.845
 1672HOH     H2 5203   1.493   1.449   0.837
 1673HOH      O 5204   0.027   3.127   1.053
 1673HOH     H1 5205   0.080   3.183   1.111
 1673HOH     H2 5206   0.081   3.117   0.975
 1674HOH      O 5207   0.580  -0.024   0.103
 1674HOH     H1 5208   0.499   0.018   0.075
 1674HOH     H2 5209   0.647   0.045   0.097
 1675HOH      O 5210   2.698   3.258   1.163
 1675HOH     H1 5211   2.643   3.204   1.106
 1675HOH     H2 5212   2.637   3.297   1.226
 1676HOH      O 5213   3.285   1.557   2.486
 1676HOH     H1 5214   3.305   1.525   2.574
 1676HOH     H2 5215   3.287   1.478   2.431
 1677HOH      O 5216   3.577   2.838   1.866
 1677HOH     H1 5217   3.573   2.842   1.961
 1677HOH     H2 5218   3.540   2.753   1.843
 1678HOH      O 5219   0.534   3.291   3.649
 1678HOH     H1 5220   0.490   3.242   3.718
 1678HOH     H2 5221   0.607   3.235   3.623
 1679HOH      O 5222   2.671   1.113   3.124
 1679HOH     H1 5223   2.651   1.045   3.059
 1679HOH     H2 5224   2.690   1.191   3.072
 1680HOH      O 5225   3.521   0.584   2.198
 1680HOH     H1 5226   3.539   0.678   2.195
 1680HOH     H2 5227   3.486   0.569   2.286
 1681HOH      O 5228   2.391   1.777   3.153
 1681HOH     H1 5229   2.365   1.867   3.136
 1681HOH     H2 5230   2.464   1.784   3.215
 1682HOH      O 5231   0.563   1.441   2.224
 1682HOH     H1 5232   0.548   1.355   2.264
 1682HOH     H2 5233   0.626   1.484   2.283
 1683HOH      O 5234   2.068   0.462   2.135
 1683HOH     H1 5235   2.155   0.496   2.115
 1683HOH     H2 5236   2.085   0.386   2.191
 1684HOH      O 5237   0.294   1.654   3.530
 1684HOH     H1 5238   0.305   1.595   3.455
 1684HOH     H2 5239   0.379   1.654   3.573
 1685HOH      O 5240   3.321   2.771   0.308
 1685HOH     H1 5241   3.265   2.722   0.248
 1685HOH     H2 5242   3.346   2.849   0.260
 1686HOH      O 5243   1.425   3.797   1.723
 1686HOH     H1 5244   1.474   3.837   1.651
 1686HOH     H2 5245   1.456   3.843   1.801
 1687HOH      O 5246   1.288   3.642   1.456
 1687HOH     H1 5247   1.363   3.583   1.457
 1687HOH     H2 5248   1.298   3.692   1.375
 1688HOH      O 5249   2.883   0.424   0.051
 1688HOH     H1 5250   2.943   0.493   0.022
 1688HOH     H2 5251   2.912   0.403   0.139
 1689HOH      O 5252   1.951   0.847   2.341
 1689HOH     H1 5253   1.906   0.800   2.270
 1689HOH     H2 5254   2.041   0.856   2.310
 1690HOH      O 5255   2.726   1.791   2.373
 1690HOH     H1 5256   2.813   1.807   2.411
 1690HOH     H2 5257   2.738   1.712   2.320
 1691HOH      O 5258   1.045   1.078   3.216
 1691HOH     H1 5259   0.975   1.135   3.248
 1691HOH     H2 5260   1.103   1.068   3.292
 1692HOH      O 5261   1.848   0.468   1.076
 1692HOH     H1 5262   1.817   0.383   1.108
 1692HOH     H2 5263   1.877   0.451   0.987
 1693HOH      O 5264   3.368   2.935   1.740
 1693HOH     H1 5265   3.451   2.900   1.774
 1693HOH     H2 5266   3.392   2.974   1.655
 1694HOH      O 5267   1.702   1.919   1.800
 1694HOH     H1 5268   1.790   1.899   1.832
 1694HOH     H2 5269   1.708   2.009   1.767
 1695HOH      O 5270   3.689   2.748   1.053
 1695HOH     H1 5271   3.626   2.761   0.982
 1695HOH     H2 5272   3.711   2.655   1.049
 1696HOH      O 5273   2.193   3.951   0.943
 1696HOH     H1 5274   2.112   3.904   0.925
 1696HOH     H2 5275   2.190   4.028   0.886
 1697HOH      O 5276   3.968   3.004   3.214
 1697HOH     H1 5277   3.980   3.098   3.202
 1697HOH     H2 5278   4.051   2.974   3.250
 1698HOH      O 5279   0.479   1.769   0.371
 1698HOH     H1 5280   0.501   1.826   0.444
 1698HOH     H2 5281   0.384   1.774   0.364
 1699HOH      O 5282   3.261   3.382   0.030
 1699HOH     H1 5283   3.250   3.413   0.120
 1699HOH     H2 5284   3.348   3.343   0.028
 1700HOH      O 5285   0.443   1.069   3.161
 1700HOH     H1 5286   0.508   1.027   3.105
 1700HOH     H2 5287   0.404   1.137   3.105
 1701HOH      O 5288   2.128   1.896   0.413
 1701HOH     H1 5289   2.218   1.871   0.434
 1701HOH     H2 5290   2.084   1.903   0.497
 1702HOH      O 5291   0.618   0.644   2.495
 1702HOH     H1 5292   0.556   0.656   2.423
 1702HOH     H2 5293   0.619   0.550   2.511
 1703HOH      O 5294   1.589   2.068   2.755
 1703HOH     H1 5295   1.595   2.027   2.669
 1703HOH     H2 5296   1.522   2.016   2.801
 1704HOH      O 5297   3.978   1.622   2.390
 1704HOH     H1 5298   3.971   1.651   2.481
 1704HOH     H2 5299   4.061   1.573   2.387
 1705HOH      O 5300   3.067   0.064   2.584
 1705HOH     H1 5301   3.142   0.053   2.527
 1705HOH     H2 5302   3.008   0.122   2.537
 1706HOH      O 5303   2.805   1.165   0.039
 1706HOH     H1 5304   2.873   1.120  -0.012
 1706HOH     H2 5305   2.825   1.258   0.028
 1707HOH      O 5306   1.885   3.046   2.407
 1707HOH     H1 5307   1.807   3.073   2.457
 1707HOH     H2 5308   1.920   2.972   2.457
 1708HOH      O 5309   1.367   0.303   1.101
 1708HOH     H1 5310   1.289   0.261   1.064
 1708HOH     H2 5311   1.422   0.230   1.130
 1709HOH      O 5312   3.705   0.320   2.552
 1709HOH     H1 5313   3.670   0.237   2.585
 1709HOH     H2 5314   3.789   0.296   2.512
 1710HOH      O 5315   2.543   1.680   1.447
 1710HOH     H1 5316   2.630   1.670   1.486
 1710HOH     H2 5317   2.499   1.745   1.502
 1711HOH      O 5318   3.463   0.493   2.474
 1711HOH     H1 5319   3.547   0.460   2.504
 1711HOH     H2 5320   3.399   0.430   2.506
 1712HOH      O 5321   1.664   2.483   3.067
 1712HOH     H1 5322   1.655   2.389   3.051
 1712HOH     H2 5323   1.721   2.514   2.997
 1713HOH      O 5324   2.362   1.817   0.531
 1713HOH     H1 5325   2.387   1.904   0.499
 1713HOH     H2 5326   2.408   1.807   0.614
 1714HOH      O 5327   2.470   1.876   1.663
 1714HOH     H1 5328   2.378   1.901   1.668
 1714HOH     H2 5329   2.516   1.942   1.714
 1715HOH      O 5330   3.023   2.973   3.949
 1715HOH     H1 5331   2.962   2.915   3.995
 1715HOH     H2 5332   3.036   3.046   4.008
 1716HOH      O 5333   1.160   0.623   2.299
 1716HOH     H1 5334   1.070   0.607   2.328
 1716HOH     H2 5335   1.175   0.716   2.320
 1717HOH      O 5336   1.109   1.437   2.226
 1717HOH     H1 5337   1.144   1.474   2.145
 1717HOH     H2 5338   1.035   1.383   2.198
 1718HOH      O 5339   1.931   2.260   2.327
 1718HOH     H1 5340   1.851   2.310   2.344
 1718HOH     H2 5341   1.978   2.260   2.410
 1719HOH      O 5342   3.707   1.037   2.057
 1719HOH     H1 5343   3.784   1.093   2.049
 1719HOH     H2 5344   3.635   1.098   2.076
 1720HOH      O 5345   1.360   1.578   0.730
 1720HOH     H1 5346   1.278   1.611   0.766
 1720HOH     H2 5347   1.412   1.657   0.714
 1721HOH      O 5348   1.802   2.977   0.137
 1721HOH     H1 5349   1.869   2.941   0.195
 1721HOH     H2 5350   1.762   2.901   0.096
 1722HOH      O 5351   2.865   2.114   2.153
 1722HOH     H1 5352   2.933   2.061   2.195
 1722HOH     H2 5353   2.887   2.112   2.060
 1723HOH      O 5354   2.922   2.952   0.612
 1723HOH     H1 5355   2.944   3.044   0.623
 1723HOH     H2 5356   2.996   2.904   0.649
 1724HOH      O 5357   0.014   0.606   0.278
 1724HOH     H1 5358   0.094   0.555   0.267
 1724HOH     H2 5359  -0.021   0.577   0.362
 1725HOH      O 5360   2.028   1.487   1.111
 1725HOH     H1 5361   2.090   1.427   1.152
 1725HOH     H2 5362   2.020   1.455   1.021
 1726HOH      O 5363   2.864   0.665   3.552
 1726HOH     H1 5364   2.828   0.664   3.641
 1726HOH     H2 5365   2.791   0.642   3.496
 1727HOH      O 5366   2.969   0.258   3.545
 1727HOH     H1 5367   2.912   0.329   3.514
 1727HOH     H2 5368   2.994   0.211   3.466
 1728HOH      O 5369   3.284   1.255   1.792
 1728HOH     H1 5370   3.327   1.170   1.784
 1728HOH     H2 5371   3.350   1.317   1.760
 1729HOH      O 5372   3.520   0.112   0.464
 1729HOH     H1 5373   3.512   0.101   0.559
 1729HOH     H2 5374   3.567   0.034   0.435
 1730HOH      O 5375   2.224   2.201   2.862
 1730HOH     H1 5376   2.137   2.162   2.858
 1730HOH     H2 5377   2.278   2.145   2.806
 1731HOH      O 5378   1.098   2.585   2.826
 1731HOH     H1 5379   1.054   2.588   2.741
 1731HOH     H2 5380   1.149   2.504   2.825
 1732HOH      O 5381   2.288   1.962   0.146
 1732HOH     H1 5382   2.222   1.959   0.215
 1732HOH     H2 5383   2.260   2.034   0.089
 1733HOH      O 5384   0.348   1.879   3.829
 1733HOH     H1 5385   0.255   1.903   3.824
 1733HOH     H2 5386   0.370   1.848   3.741
 1734HOH      O 5387   3.842   2.443   2.557
 1734HOH     H1 5388   3.922   2.418   2.604
 1734HOH     H2 5389   3.848   2.538   2.550
 1735HOH      O 5390   2.132   3.572   1.405
 1735HOH     H1 5391   2.099   3.661   1.393
 1735HOH     H2 5392   2.149   3.565   1.499
 1736HOH      O 5393   2.297   3.005   0.862
 1736HOH     H1 5394   2.254   2.997   0.947
 1736HOH     H2 5395   2.255   2.940   0.806
 1737HOH      O 5396   3.192   0.399   3.582
 1737HOH     H1 5397   3.127   0.329   3.586
 1737HOH     H2 5398   3.149   0.469   3.533
 1738HOH      O 5399   2.520   0.149   2.656
 1738HOH     H1 5400   2.560   0.078   2.706
 1738HOH     H2 5401   2.590   0.179   2.597
 1739HOH      O 5402   3.862   2.870   2.489
 1739HOH     H1 5403   3.880   2.785   2.450
 1739HOH     H2 5404   3.808   2.851   2.565
 1740HOH      O 5405   2.544   3.324   3.381
 1740HOH     H1 5406   2.538   3.331   3.476
 1740HOH     H2 5407   2.458   3.293   3.353
 1741HOH      O 5408   3.492   2.216   2.761
 1741HOH     H1 5409   3.575   2.221   2.809
 1741HOH     H2 5410   3.476   2.306   2.731
 1742HOH      O 5411   2.181   2.714   0.990
 1742HOH     H1 5412   2.144   2.753   1.069
 1742HOH     H2 5413   2.106   2.707   0.930
 1743HOH      O 5414   0.647   3.795   3.911
 1743HOH     H1 5415   0.601   3.846   3.978
 1743HOH     H2 5416   0.680   3.861   3.850
 1744HOH      O 5417   3.576   1.696   1.241
 1744HOH     H1 5418   3.570   1.720   1.334
 1744HOH     H2 5419   3.669   1.677   1.227
 1745HOH      O 5420   3.271   0.905   1.280
 1745HOH     H1 5421   3.310   0.992   1.283
 1745HOH     H2 5422   3.282   0.877   1.190
 1746HOH      O 5423   0.359   1.179   1.253
 1746HOH     H1 5424   0.382   1.184   1.346
 1746HOH     H2 5425   0.264   1.163   1.253
 1747HOH      O 5426   3.949   1.399   1.924
 1747HOH     H1 5427   4.024   1.371   1.871
 1747HOH     H2 5428   3.984   1.470   1.978
 1748HOH      O 5429   1.154   0.329   0.386
 1748HOH     H1 5430   1.160   0.270   0.311
 1748HOH     H2 5431   1.077   0.300   0.434
 1749HOH      O 5432   1.950   3.834   0.873
 1749HOH     H1 5433   1.960   3.739   0.879
 1749HOH     H2 5434   1.856   3.847   0.862
 1750HOH      O 5435   0.493   2.612   2.511
 1750HOH     H1 5436   0.530   2.643   2.428
 1750HOH     H2 5437   0.458   2.692   2.552
 1751HOH      O 5438   0.806   2.969   1.137
 1751HOH     H1 5439   0.757   2.916   1.074
 1751HOH     H2 5440   0.804   2.919   1.218
 1752HOH      O 5441   3.020   3.070   1.394
 1752HOH     H1 5442   3.027   3.114   1.309
 1752HOH     H2 5443   3.064   2.986   1.380
 1753HOH      O 5444   2.506   0.810   1.669
 1753HOH     H1 5445   2.573   0.753   1.631
 1753HOH     H2 5446   2.544   0.897   1.665
 1754HOH      O 5447   0.610   0.275   3.884
 1754HOH     H1 5448   0.618   0.320   3.800
 1754HOH     H2 5449   0.534   0.314   3.925
 1755HOH      O 5450   1.715   0.341   1.457
 1755HOH     H1 5451   1.645   0.281   1.433
 1755HOH     H2 5452   1.685   0.382   1.539
 1756HOH      O 5453   1.817   3.262   0.822
 1756HOH     H1 5454   1.796   3.348   0.785
 1756HOH     H2 5455   1.836   3.280   0.914
 1757HOH      O 5456   0.362   2.188   3.035
 1757HOH     H1 5457   0.380   2.267   2.984
 1757HOH     H2 5458   0.298   2.140   2.982
 1758HOH      O 5459  -0.013   2.751   0.473
 1758HOH     H1 5460   0.066   2.712   0.511
 1758HOH     H2 5461   0.019   2.797   0.395
 1759HOH      O 5462   1.252   2.409   0.234
 1759HOH     H1 5463   1.275   2.438   0.323
 1759HOH     H2 5464   1.242   2.314   0.242
 1760HOH      O 5465   1.331   3.271   0.827
 1760HOH     H1 5466   1.260   3.266   0.891
 1760HOH     H2 5467   1.410   3.282   0.880
 1761HOH      O 5468   1.975   0.081   0.819
 1761HOH     H1 5469   1.996   0.107   0.729
 1761HOH     H2 5470   1.984  -0.014   0.819
 1762HOH      O 5471   3.198   2.047   3.658
 1762HOH     H1 5472   3.283   2.019   3.691
 1762HOH     H2 5473   3.138   2.036   3.731
 1763HOH      O 5474   1.604   4.039   0.415
 1763HOH     H1 5475   1.675   3.985   0.451
 1763HOH     H2 5476   1.545   4.052   0.489
 1764HOH      O 5477   2.043   1.908   3.179
 1764HOH     H1 5478   1.966   1.868   3.218
 1764HOH     H2 5479   2.091   1.946   3.252
 1765HOH      O 5480   3.828   2.932   2.985
 1765HOH     H1 5481   3.893   2.966   3.047
 1765HOH     H2 5482   3.746   2.932   3.034
 1766HOH      O 5483   2.874   1.347   1.427
 1766HOH     H1 5484   2.949   1.296   1.457
 1766HOH     H2 5485   2.906   1.394   1.350
 1767HOH      O 5486   0.208   3.383   0.335
 1767HOH     H1 5487   0.227   3.440   0.261
 1767HOH     H2 5488   0.114   3.368   0.329
 1768HOH      O 5489   0.092   0.047   0.362
 1768HOH     H1 5490   0.065   0.098   0.439
 1768HOH     H2 5491   0.045   0.089   0.289
 1769HOH      O 5492   3.503   3.267   3.831
 1769HOH     H1 5493   3.425   3.212   3.841
 1769HOH     H2 5494   3.509   3.314   3.915
 1770HOH      O 5495   2.926   2.343   0.693
 1770HOH     H1 5496   2.887   2.276   0.638
 1770HOH     H2 5497   2.862   2.415   0.693
 1771HOH      O 5498   2.439   2.589   3.126
 1771HOH     H1 5499   2.496   2.533   3.178
 1771HOH     H2 5500   2.496   2.659   3.093
 1772HOH      O 5501   1.590   2.506   0.416
 1772HOH     H1 5502   1.660   2.442   0.403
 1772HOH     H2 5503   1.534   2.468   0.483
 1773HOH      O 5504   3.551   1.656   3.366
 1773HOH     H1 5505   3.516   1.686   3.450
 1773HOH     H2 5506   3.494   1.584   3.340
 1774HOH      O 5507   1.292   1.876   1.969
 1774HOH     H1 5508   1.244   1.957   1.987
 1774HOH     H2 5509   1.290   1.828   2.051
 1775HOH      O 5510   0.875   3.403   0.865
 1775HOH     H1 5511   0.823   3.464   0.812
 1775HOH     H2 5512   0.814   3.334   0.890
 1776HOH      O 5513   2.075   1.175   2.055
 1776HOH     H1 5514   2.117   1.183   1.969
 1776HOH     H2 5515   2.028   1.258   2.066
 1777HOH      O 5516   2.415   3.992   3.212
 1777HOH     H1 5517   2.429   3.996   3.307
 1777HOH     H2 5518   2.372   3.907   3.198
 1778HOH      O 5519   3.539   2.859   2.149
 1778HOH     H1 5520   3.472   2.800   2.114
 1778HOH     H2 5521   3.491   2.915   2.211
 1779HOH      O 5522   3.279   2.619   1.517
 1779HOH     H1 5523   3.278   2.548   1.582
 1779HOH     H2 5524   3.256   2.698   1.567
 1780HOH      O 5525   3.680   0.339   0.128
 1780HOH     H1 5526   3.589   0.349   0.100
 1780HOH     H2 5527   3.713   0.428   0.132
 1781HOH      O 5528   3.027   0.359   1.018
 1781HOH     H1 5529   3.030   0.369   1.113
 1781HOH     H2 5530   3.118   0.342   0.993
 1782HOH      O 5531   0.212   1.759   1.016
 1782HOH     H1 5532   0.179   1.820   0.951
 1782HOH     H2 5533   0.295   1.798   1.045
 1783HOH      O 5534   3.826   2.960   1.554
 1783HOH     H1 5535   3.831   2.911   1.473
 1783HOH     H2 5536   3.854   3.048   1.531
 1784HOH      O 5537   3.269   2.993   0.093
 1784HOH     H1 5538   3.186   3.039   0.089
 1784HOH     H2 5539   3.319   3.039   0.160
 1785HOH      O 5540   1.651   0.944   1.545
 1785HOH     H1 5541   1.629   0.889   1.469
 1785HOH     H2 5542   1.584   1.012   1.545
 1786HOH      O 5543   2.454   3.546   3.268
 1786HOH     H1 5544   2.522   3.509   3.213
 1786HOH     H2 5545   2.463   3.501   3.352
 1787HOH      O 5546   1.524   3.174   1.507
 1787HOH     H1 5547   1.599   3.186   1.448
 1787HOH     H2 5548   1.542   3.091   1.552
 1788HOH      O 5549   1.103   0.334   2.806
 1788HOH     H1 5550   1.019   0.332   2.851
 1788HOH     H2 5551   1.166   0.359   2.874
 1789HOH      O 5552   2.422   3.905   4.004
 1789HOH     H1 5553   2.488   3.843   3.971
 1789HOH     H2 5554   2.358   3.849   4.049
 1790HOH      O 5555   0.157   2.861   1.125
 1790HOH     H1 5556   0.073   2.875   1.080
 1790HOH     H2 5557   0.194   2.784   1.083
 1791HOH      O 5558   0.627   0.925   2.233
 1791HOH     H1 5559   0.635   0.933   2.138
 1791HOH     H2 5560   0.716   0.906   2.263
 1792HOH      O 5561   1.431   0.158   2.002
 1792HOH     H1 5562   1.379   0.153   2.082
 1792HOH     H2 5563   1.393   0.231   1.953
 1793HOH      O 5564   3.288   3.616   0.932
 1793HOH     H1 5565   3.301   3.541   0.874
 1793HOH     H2 5566   3.227   3.584   0.999
 1794HOH      O 5567   0.592   1.972   1.465
 1794HOH     H1 5568   0.683   1.995   1.447
 1794HOH     H2 5569   0.548   1.980   1.380
 1795HOH      O 5570   1.840   0.170   2.372
 1795HOH     H1 5571   1.831   0.094   2.315
 1795HOH     H2 5572   1.754   0.212   2.370
 1796HOH      O 5573   0.535   2.079   1.203
 1796HOH     H1 5574   0.456   2.117   1.164
 1796HOH     H2 5575   0.589   2.154   1.226
 1797HOH      O 5576   1.717   0.250   3.435
 1797HOH     H1 5577   1.806   0.224   3.411
 1797HOH     H2 5578   1.729   0.327   3.490
 1798HOH      O 5579   0.568   1.734   0.731
 1798HOH     H1 5580   0.583   1.703   0.821
 1798HOH     H2 5581   0.473   1.746   0.726
 1799HOH      O 5582   3.568   1.146   2.952
 1799HOH     H1 5583   3.571   1.130   2.858
 1799HOH     H2 5584   3.490   1.099   2.981
 1800HOH      O 5585   0.796   2.920   2.963
 1800HOH     H1 5586   0.812   2.860   2.891
 1800HOH     H2 5587   0.858   2.894   3.031
 1801HOH      O 5588   1.653   3.832   1.556
 1801HOH     H1 5589   1.615   3.804   1.473
 1801HOH     H2 5590   1.608   3.914   1.576
 1802HOH      O 5591   1.368   1.088   1.365
 1802HOH     H1 5592   1.433   1.131   1.421
 1802HOH     H2 5593   1.345   1.007   1.412
 1803HOH      O 5594   3.885   3.220   2.750
 1803HOH     H1 5595   3.846   3.288   2.694
 1803HOH     H2 5596   3.925   3.159   2.688
 1804HOH      O 5597   2.946   2.883   1.034
 1804HOH     H1 5598   3.027   2.909   0.990
 1804HOH     H2 5599   2.903   2.824   0.972
 1805HOH      O 5600   1.758   1.581   0.819
 1805HOH     H1 5601   1.811   1.502   0.828
 1805HOH     H2 5602   1.787   1.621   0.737
 1806HOH      O 5603   1.509   0.188   1.374
 1806HOH     H1 5604   1.502   0.118   1.309
 1806HOH     H2 5605   1.434   0.245   1.356
 1807HOH      O 5606   2.352   2.477   3.754
 1807HOH     H1 5607   2.408   2.550   3.727
 1807HOH     H2 5608   2.343   2.488   3.849
 1808HOH      O 5609   1.204   1.918   1.601
 1808HOH     H1 5610   1.260   1.844   1.626
 1808HOH     H2 5611   1.167   1.948   1.684
 1809HOH      O 5612   0.440   1.535   1.466
 1809HOH     H1 5613   0.416   1.454   1.511
 1809HOH     H2 5614   0.535   1.528   1.453
 1810HOH      O 5615   0.838   3.236   2.286
 1810HOH     H1 5616   0.807   3.146   2.277
 1810HOH     H2 5617   0.925   3.236   2.246
 1811HOH      O 5618   2.785   3.541   1.953
 1811HOH     H1 5619   2.774   3.625   1.997
 1811HOH     H2 5620   2.868   3.507   1.986
 1812HOH      O 5621   1.858   3.903   0.298
 1812HOH     H1 5622   1.931   3.916   0.359
 1812HOH     H2 5623   1.838   3.991   0.266
 1813HOH      O 5624   1.018   1.637   0.425
 1813HOH     H1 5625   0.929   1.617   0.397
 1813HOH     H2 5626   1.008   1.715   0.480
 1814HOH      O 5627   1.045   2.270   0.677
 1814HOH     H1 5628   1.018   2.356   0.710
 1814HOH     H2 5629   0.965   2.233   0.639
 1815HOH      O 5630   1.722   3.853   3.419
 1815HOH     H1 5631   1.817   3.859   3.405
 1815HOH     H2 5632   1.686   3.839   3.332
 1816HOH      O 5633   2.598   3.706   1.362
 1816HOH     H1 5634   2.591   3.801   1.350
 1816HOH     H2 5635   2.508   3.674   1.357
 1817HOH      O 5636   1.574   3.546   3.889
 1817HOH     H1 5637   1.490   3.517   3.924
 1817HOH     H2 5638   1.558   3.636   3.860
 1818HOH      O 5639   3.644   1.703   2.698
 1818HOH     H1 5640   3.633   1.614   2.663
 1818HOH     H2 5641   3.558   1.725   2.734
 1819HOH      O 5642   3.055   1.135   1.588
 1819HOH     H1 5643   3.109   1.067   1.630
 1819HOH     H2 5644   3.083   1.216   1.630
 1820HOH      O 5645   1.282   2.805   3.084
 1820HOH     H1 5646   1.190   2.780   3.077
 1820HOH     H2 5647   1.322   2.771   3.004
 1821HOH      O 5648   2.431   3.300   3.051
 1821HOH     H1 5649   2.391   3.314   3.137
 1821HOH     H2 5650   2.373   3.348   2.991
 1822HOH      O 5651   0.072   1.589   0.691
 1822HOH     H1 5652   0.049   1.676   0.657
 1822HOH     H2 5653   0.024   1.582   0.774
 1823HOH      O 5654   3.283   0.204   2.476
 1823HOH     H1 5655   3.230   0.196   2.397
 1823HOH     H2 5656   3.231   0.260   2.534
 1824HOH      O 5657   1.292   0.368   1.383
 1824HOH     H1 5658   1.326   0.449   1.420
 1824HOH     H2 5659   1.290   0.382   1.289
 1825HOH      O 5660   0.290   3.560   0.111
 1825HOH     H1 5661   0.270   3.640   0.158
 1825HOH     H2 5662   0.322   3.589   0.026
 1826HOH      O 5663   2.699   0.272   0.348
 1826HOH     H1 5664   2.685   0.317   0.265
 1826HOH     H2 5665   2.638   0.315   0.409
 1827HOH      O 5666   0.924   1.447   2.612
 1827HOH     H1 5667   0.875   1.420   2.689
 1827HOH     H2 5668   0.903   1.381   2.546
 1828HOH      O 5669   0.162   3.142   0.792
 1828HOH     H1 5670   0.098   3.208   0.766
 1828HOH     H2 5671   0.150   3.070   0.731
 1829HOH      O 5672   2.344   2.362   3.495
 1829HOH     H1 5673   2.334   2.410   3.577
 1829HOH     H2 5674   2.296   2.414   3.431
 1830HOH      O 5675   0.510   1.970   1.944
 1830HOH     H1 5676   0.538   2.043   1.889
 1830HOH     H2 5677   0.590   1.922   1.963
 1831HOH      O 5678   1.480   1.801   0.127
 1831HOH     H1 5679   1.475   1.710   0.097
 1831HOH     H2 5680   1.411   1.809   0.192
 1832HOH      O 5681   3.307   1.357   2.302
 1832HOH     H1 5682   3.280   1.335   2.212
 1832HOH     H2 5683   3.394   1.320   2.311
 1833HOH      O 5684   0.744   1.712   3.771
 1833HOH     H1 5685   0.817   1.713   3.833
 1833HOH     H2 5686   0.771   1.651   3.703
 1834HOH      O 5687   3.839   0.554   0.098
 1834HOH     H1 5688   3.825   0.642   0.063
 1834HOH     H2 5689   3.906   0.564   0.165
 1835HOH      O 5690   2.888   0.127   1.641
 1835HOH     H1 5691   2.944   0.185   1.588
 1835HOH     H2 5692   2.915   0.145   1.731
 1836HOH      O 5693   3.582   1.101   1.759
 1836HOH     H1 5694   3.564   1.193   1.741
 1836HOH     H2 5695   3.663   1.101   1.809
 1837HOH      O 5696   0.350   0.664   3.928
 1837HOH     H1 5697   0.264   0.638   3.961
 1837HOH     H2 5698   0.334   0.683   3.835
 1838HOH      O 5699   2.065   0.600   3.540
 1838HOH     H1 5700   2.120   0.533   3.580
 1838HOH     H2 5701   2.109   0.622   3.458
 1839HOH      O 5702   1.998   0.130   2.614
 1839HOH     H1 5703   1.946   0.142   2.535
 1839HOH     H2 5704   1.961   0.192   2.677
 1840HOH      O 5705   1.847   3.288   1.111
 1840HOH     H1 5706   1.858   3.231   1.187
 1840HOH     H2 5707   1.862   3.377   1.145
 1841HOH      O 5708   2.509   3.115   1.040
 1841HOH     H1 5709   2.418   3.138   1.022
 1841HOH     H2 5710   2.505   3.071   1.125
 1842HOH      O 5711   1.636   1.212   2.768
 1842HOH     H1 5712   1.578   1.159   2.714
 1842HOH     H2 5713   1.723   1.202   2.728
 1843HOH      O 5714   1.734   3.798   3.737
 1843HOH     H1 5715   1.701   3.834   3.819
 1843HOH     H2 5716   1.827   3.821   3.735
 1844HOH      O 5717   3.102   0.649   3.427
 1844HOH     H1 5718   3.098   0.728   3.373
 1844HOH     H2 5719   3.026   0.656   3.485
 1845HOH      O 5720   1.841   0.125   0.199
 1845HOH     H1 5721   1.826   0.197   0.261
 1845HOH     H2 5722   1.895   0.164   0.130
 1846HOH      O 5723   0.975   0.973   2.977
 1846HOH     H1 5724   1.001   0.881   2.976
 1846HOH     H2 5725   1.005   1.007   3.061
 1847HOH      O 5726   3.562   2.780   0.814
 1847HOH     H1 5727   3.646   2.798   0.771
 1847HOH     H2 5728   3.497   2.793   0.745
 1848HOH      O 5729   0.687   3.634   0.918
 1848HOH     H1 5730   0.642   3.707   0.875
 1848HOH     H2 5731   0.672   3.560   0.860
 1849HOH      O 5732   0.075   1.892   0.813
 1849HOH     H1 5733   0.045   1.875   0.724
 1849HOH     H2 5734  -0.004   1.894   0.866
 1850HOH      O 5735   1.642   2.781   1.104
 1850HOH     H1 5736   1.587   2.773   1.182
 1850HOH     H2 5737   1.585   2.822   1.039
 1851HOH      O 5738   0.965   1.410   3.542
 1851HOH     H1 5739   0.879   1.452   3.552
 1851HOH     H2 5740   1.026   1.483   3.532
 1852HOH      O 5741   0.447   2.051   2.614
 1852HOH     H1 5742   0.415   2.031   2.526
 1852HOH     H2 5743   0.391   2.122   2.645
 1853HOH      O 5744   0.187   1.475   2.382
 1853HOH     H1 5745   0.246   1.411   2.422
 1853HOH     H2 5746   0.244   1.528   2.326
 1854HOH      O 5747   3.133   2.783   1.727
 1854HOH     H1 5748   3.128   2.730   1.807
 1854HOH     H2 5749   3.205   2.844   1.742
 1855HOH      O 5750   3.386   1.683   3.133
 1855HOH     H1 5751   3.389   1.730   3.216
 1855HOH     H2 5752   3.398   1.591   3.157
 1856HOH      O 5753   2.837   2.551   3.142
 1856HOH     H1 5754   2.894   2.495   3.089
 1856HOH     H2 5755   2.772   2.491   3.179
 1857HOH      O 5756   1.108   3.192   3.887
 1857HOH     H1 5757   1.191   3.158   3.920
 1857HOH     H2 5758   1.084   3.261   3.949
 1858HOH      O 5759   2.667   1.383   3.050
 1858HOH     H1 5760   2.609   1.426   2.987
 1858HOH     H2 5761   2.616   1.379   3.131
 1859HOH      O 5762   2.102   1.758   1.980
 1859HOH     H1 5763   2.172   1.793   2.035
 1859HOH     H2 5764   2.034   1.826   1.982
 1860HOH      O 5765   3.866   0.520   1.018
 1860HOH     H1 5766   3.858   0.599   0.964
 1860HOH     H2 5767   3.892   0.452   0.956
 1861HOH      O 5768   1.277   2.369   2.191
 1861HOH     H1 5769   1.266   2.301   2.258
 1861HOH     H2 5770   1.285   2.450   2.241
 1862HOH      O 5771   2.298   1.590   2.189
 1862HOH     H1 5772   2.376   1.542   2.215
 1862HOH     H2 5773   2.233   1.567   2.255
 1863HOH      O 5774   2.992   1.918   1.082
 1863HOH     H1 5775   2.961   1.845   1.028
 1863HOH     H2 5776   3.001   1.991   1.022
 1864HOH      O 5777   2.333   2.555   1.897
 1864HOH     H1 5778   2.365   2.466   1.912
 1864HOH     H2 5779   2.382   2.586   1.821
 1865HOH      O 5780   3.628   3.975   3.482
 1865HOH     H1 5781   3.642   4.047   3.420
 1865HOH     H2 5782   3.640   3.896   3.430
 1866HOH      O 5783   0.035   1.956   2.163
 1866HOH     H1 5784   0.126   1.979   2.145
 1866HOH     H2 5785   0.028   1.864   2.137
 1867HOH      O 5786   3.083   0.756   1.539
 1867HOH     H1 5787   3.171   0.755   1.500
 1867HOH     H2 5788   3.086   0.827   1.603
 1868HOH      O 5789   3.807   2.361   0.552
 1868HOH     H1 5790   3.864   2.413   0.496
 1868HOH     H2 5791   3.763   2.301   0.491
 1869HOH      O 5792   0.136   0.588   4.038
 1869HOH     H1 5793   0.094   0.674   4.031
 1869HOH     H2 5794   0.073   0.528   3.998
 1870HOH      O 5795   0.571   0.644   3.389
 1870HOH     H1 5796   0.649   0.590   3.400
 1870HOH     H2 5797   0.602   0.733   3.406
 1871HOH      O 5798   3.244   2.878   2.583
 1871HOH     H1 5799   3.256   2.926   2.665
 1871HOH     H2 5800   3.156   2.841   2.591
 1872HOH      O 5801   1.299   1.405   3.213
 1872HOH     H1 5802   1.284   1.498   3.196
 1872HOH     H2 5803   1.230   1.360   3.165
 1873HOH      O 5804   2.982   0.380   0.580
 1873HOH     H1 5805   2.902   0.433   0.579
 1873HOH     H2 5806   3.024   0.402   0.663
 1874HOH      O 5807   3.824   3.661   0.607
 1874HOH     H1 5808   3.733   3.676   0.633
 1874HOH     H2 5809   3.870   3.651   0.690
 1875HOH      O 5810   2.387   3.581   1.260
 1875HOH     H1 5811   2.352   3.626   1.182
 1875HOH     H2 5812   2.309   3.551   1.307
 1876HOH      O 5813   1.758   2.155   0.340
 1876HOH     H1 5814   1.753   2.067   0.304
 1876HOH     H2 5815   1.705   2.209   0.281
 1877HOH      O 5816   0.822   0.310   1.619
 1877HOH     H1 5817   0.781   0.315   1.532
 1877HOH     H2 5818   0.908   0.350   1.607
 1878HOH      O 5819   3.730   1.654   3.883
 1878HOH     H1 5820   3.823   1.631   3.880
 1878HOH     H2 5821   3.686   1.572   3.907
 1879HOH      O 5822   0.837   2.080   0.827
 1879HOH     H1 5823   0.919   2.115   0.861
 1879HOH     H2 5824   0.798   2.033   0.901
 1880HOH      O 5825   2.686   1.422   0.006
 1880HOH     H1 5826   2.731   1.497  -0.033
 1880HOH     H2 5827   2.639   1.458   0.080
 1881HOH      O 5828   1.487   0.772   1.749
 1881HOH     H1 5829   1.451   0.824   1.821
 1881HOH     H2 5830   1.566   0.732   1.785
 1882HOH      O 5831   2.419   0.188   1.115
 1882HOH     H1 5832   2.461   0.184   1.029
 1882HOH     H2 5833   2.355   0.258   1.108
 1883HOH      O 5834   2.015   0.555   2.910
 1883HOH     H1 5835   1.972   0.625   2.959
 1883HOH     H2 5836   2.105   0.586   2.898
 1884HOH      O 5837   2.977   1.096   1.298
 1884HOH     H1 5838   3.060   1.048   1.307
 1884HOH     H2 5839   3.000   1.173   1.247
 1885HOH      O 5840   1.424   0.537   2.663
 1885HOH     H1 5841   1.414   0.492   2.579
 1885HOH     H2 5842   1.472   0.617   2.641
 1886HOH      O 5843   3.117   2.822   1.345
 1886HOH     H1 5844   3.141   2.785   1.260
 1886HOH     H2 5845   3.110   2.745   1.403
 1887HOH      O 5846   3.618   1.454   1.444
 1887HOH     H1 5847   3.687   1.404   1.401
 1887HOH     H2 5848   3.664   1.515   1.501
 1888HOH      O 5849   3.795   1.361   1.715
 1888HOH     H1 5850   3.835   1.281   1.679
 1888HOH     H2 5851   3.828   1.365   1.805
 1889HOH      O 5852   1.274   0.445   3.166
 1889HOH     H1 5853   1.331   0.412   3.097
 1889HOH     H2 5854   1.186   0.426   3.135
 1890HOH      O 5855   2.872   0.821   2.994
 1890HOH     H1 5856   2.885   0.743   3.048
 1890HOH     H2 5857   2.960   0.841   2.960
 1891HOH      O 5858   1.848   0.696   1.529
 1891HOH     H1 5859   1.834   0.723   1.439
 1891HOH     H2 5860   1.791   0.753   1.581
 1892HOH      O 5861   0.235   3.977   3.902
 1892HOH     H1 5862   0.232   3.935   3.817
 1892HOH     H2 5863   0.148   3.961   3.940
 1893HOH      O 5864   3.788   2.260   2.807
 1893HOH     H1 5865   3.851   2.220   2.748
 1893HOH     H2 5866   3.787   2.202   2.884
 1894HOH      O 5867   0.982   0.363   2.278
 1894HOH     H1 5868   0.961   0.454   2.297
 1894HOH     H2 5869   0.988   0.359   2.183
 1895HOH      O 5870   0.921   3.515   2.267
 1895HOH     H1 5871   0.895   3.425   2.249
 1895HOH     H2 5872   0.848   3.552   2.316
 1896HOH      O 5873   2.621   2.435   4.025
 1896HOH     H1 5874   2.545   2.424   3.969
 1896HOH     H2 5875   2.694   2.401   3.973
 1897HOH      O 5876   3.261   3.243   1.387
 1897HOH     H1 5877   3.288   3.313   1.447
 1897HOH     H2 5878   3.180   3.209   1.424
 1898HOH      O 5879   2.150   3.599   2.196
 1898HOH     H1 5880   2.105   3.668   2.146
 1898HOH     H2 5881   2.216   3.565   2.136
 1899HOH      O 5882   1.044   3.431   0.001
 1899HOH     H1 5883   0.987   3.487  -0.052
 1899HOH     H2 5884   1.000   3.425   0.086
 1900HOH      O 5885   0.575   3.086   2.960
 1900HOH     H1 5886   0.537   3.057   2.877
 1900HOH     H2 5887   0.648   3.026   2.974
 1901HOH      O 5888   0.043   0.511   2.820
 1901HOH     H1 5889   0.026   0.427   2.862
 1901HOH     H2 5890   0.132   0.534   2.848
 1902HOH      O 5891   1.584   1.612   3.331
 1902HOH     H1 5892   1.558   1.699   3.359
 1902HOH     H2 5893   1.512   1.555   3.359
 1903HOH      O 5894   0.947   1.329   0.921
 1903HOH     H1 5895   1.031   1.319   0.966
 1903HOH     H2 5896   0.949   1.262   0.852
 1904HOH      O 5897   2.922   2.003   3.768
 1904HOH     H1 5898   2.900   1.937   3.702
 1904HOH     H2 5899   2.916   1.957   3.851
 1905HOH      O 5900   3.076   2.347   2.409
 1905HOH     H1 5901   2.983   2.356   2.430
 1905HOH     H2 5902   3.095   2.255   2.426
 1906HOH      O 5903   3.890   0.058   3.937
 1906HOH     H1 5904   3.804   0.047   3.977
 1906HOH     H2 5905   3.871   0.102   3.854
 1907HOH      O 5906   0.567   2.591   2.190
 1907HOH     H1 5907   0.622   2.658   2.150
 1907HOH     H2 5908   0.624   2.515   2.199
 1908HOH      O 5909   2.662   0.396   0.738
 1908HOH     H1 5910   2.752   0.423   0.760
 1908HOH     H2 5911   2.659   0.303   0.761
 1909HOH      O 5912   0.256   2.880   3.944
 1909HOH     H1 5913   0.251   2.792   3.906
 1909HOH     H2 5914   0.349   2.893   3.962
 1910HOH      O 5915   0.871   3.555   3.858
 1910HOH     H1 5916   0.776   3.545   3.854
 1910HOH     H2 5917   0.892   3.614   3.786
 1911HOH      O 5918   2.950   1.840   3.244
 1911HOH     H1 5919   2.954   1.821   3.338
 1911HOH     H2 5920   2.978   1.931   3.237
 1912HOH      O 5921   0.959   1.132   0.690
 1912HOH     H1 5922   0.924   1.159   0.605
 1912HOH     H2 5923   0.881   1.106   0.740
 1913HOH      O 5924   1.705   3.900   1.234
 1913HOH     H1 5925   1.753   3.951   1.168
 1913HOH     H2 5926   1.682   3.818   1.189
 1914HOH      O 5927   1.874   3.163   3.616
 1914HOH     H1 5928   1.848   3.214   3.692
 1914HOH     H2 5929   1.870   3.225   3.543
 1915HOH      O 5930   3.008   3.439   2.688
 1915HOH     H1 5931   2.992   3.504   2.757
 1915HOH     H2 5932   2.920   3.412   2.660
 1916HOH      O 5933   0.929   3.512   2.585
 1916HOH     H1 5934   0.879   3.569   2.527
 1916HOH     H2 5935   0.905   3.423   2.558
 1917HOH      O 5936   3.885   0.089   1.717
 1917HOH     H1 5937   3.912   0.148   1.647
 1917HOH     H2 5938   3.807   0.046   1.684
 1918HOH      O 5939   0.461   2.461   0.433
 1918HOH     H1 5940   0.553   2.473   0.410
 1918HOH     H2 5941   0.443   2.369   0.412
 1919HOH      O 5942   2.230   3.760   0.167
 1919HOH     H1 5943   2.234   3.686   0.228
 1919HOH     H2 5944   2.254   3.836   0.220
 1920HOH      O 5945   1.749   1.944   3.564
 1920HOH     H1 5946   1.836   1.981   3.579
 1920HOH     H2 5947   1.692   2.019   3.551
 1921HOH      O 5948   3.701   3.073   1.785
 1921HOH     H1 5949   3.757   3.062   1.708
 1921HOH     H2 5950   3.683   2.984   1.814
 1922HOH      O 5951   3.461   3.132   2.514
 1922HOH     H1 5952   3.430   3.156   2.601
 1922HOH     H2 5953   3.387   3.152   2.456
 1923HOH      O 5954   2.949   1.792   2.543
 1923HOH     H1 5955   3.041   1.793   2.516
 1923HOH     H2 5956   2.945   1.723   2.610
 1924HOH      O 5957   2.695   2.343   2.145
 1924HOH     H1 5958   2.749   2.265   2.155
 1924HOH     H2 5959   2.728   2.384   2.064
 1925HOH      O 5960   2.899   0.485   0.827
 1925HOH     H1 5961   2.937   0.433   0.897
 1925HOH     H2 5962   2.941   0.571   0.835
 1926HOH      O 5963   2.520   0.252   3.726
 1926HOH     H1 5964   2.578   0.179   3.704
 1926HOH     H2 5965   2.566   0.299   3.796
 1927HOH      O 5966   2.832   0.020   1.378
 1927HOH     H1 5967   2.867   0.101   1.414
 1927HOH     H2 5968   2.863  -0.049   1.436
 1928HOH      O 5969   3.238   1.007   3.217
 1928HOH     H1 5970   3.184   0.956   3.278
 1928HOH     H2 5971   3.233   1.097   3.251
 1929HOH      O 5972   3.897   0.933   1.891
 1929HOH     H1 5973   3.869   0.876   1.819
 1929HOH     H2 5974   3.834   0.916   1.960
 1930HOH      O 5975   2.097   3.575   2.491
 1930HOH     H1 5976   2.163   3.643   2.501
 1930HOH     H2 5977   2.096   3.557   2.397
 1931HOH      O 5978   4.004   2.614   2.019
 1931HOH     H1 5979   4.068   2.626   1.948
 1931HOH     H2 5980   3.925   2.582   1.975
 1932HOH      O 5981   0.718   3.023   3.317
 1932HOH     H1 5982   0.792   2.974   3.282
 1932HOH     H2 5983   0.643   2.965   3.306
 1933HOH      O 5984   2.027   0.975   0.634
 1933HOH     H1 5985   1.978   1.015   0.706
 1933HOH     H2 5986   2.118   0.999   0.651
 1934HOH      O 5987   1.250   3.122   3.352
 1934HOH     H1 5988   1.309   3.100   3.424
 1934HOH     H2 5989   1.302   3.104   3.273
 1935HOH      O 5990   2.010   0.510   0.497
 1935HOH     H1 5991   2.079   0.461   0.541
 1935HOH     H2 5992   2.048   0.597   0.482
 1936HOH      O 5993   0.315   1.501   2.717
 1936HOH     H1 5994   0.305   1.406   2.725
 1936HOH     H2 5995   0.243   1.537   2.769
 1937HOH      O 5996   2.595   2.508   2.319
 1937HOH     H1 5997   2.561   2.586   2.277
 1937HOH     H2 5998   2.637   2.458   2.249
 1938HOH      O 5999   1.196   2.617   2.328
 1938HOH     H1 6000   1.157   2.669   2.258
 1938HOH     H2 6001   1.269   2.670   2.359
 1939HOH      O 6002   3.402   0.751   2.609
 1939HOH     H1 6003   3.453   0.677   2.575
 1939HOH     H2 6004   3.464   0.797   2.666
 1940HOH      O 6005   3.605   0.456   1.960
 1940HOH     H1 6006   3.562   0.376   1.989
 1940HOH     H2 6007   3.578   0.522   2.025
 1941HOH      O 6008   2.732   3.760   0.149
 1941HOH     H1 6009   2.663   3.735   0.210
 1941HOH     H2 6010   2.750   3.851   0.168
 1942HOH      O 6011   2.953   3.107   1.970
 1942HOH     H1 6012   2.926   3.016   1.964
 1942HOH     H2 6013   3.032   3.113   1.916
 1943HOH      O 6014   2.619   1.566   3.420
 1943HOH     H1 6015   2.591   1.493   3.365
 1943HOH     H2 6016   2.620   1.641   3.361
 1944HOH      O 6017   2.265   1.157   0.682
 1944HOH     H1 6018   2.302   1.198   0.760
 1944HOH     H2 6019   2.208   1.224   0.644
 1945HOH      O 6020   0.912   0.195   3.720
 1945HOH     H1 6021   0.949   0.280   3.744
 1945HOH     H2 6022   0.885   0.206   3.628
 1946HOH      O 6023   0.910   3.407   1.920
 1946HOH     H1 6024   0.819   3.432   1.937
 1946HOH     H2 6025   0.949   3.485   1.879
 1947HOH      O 6026   3.738   1.718   2.168
 1947HOH     H1 6027   3.831   1.709   2.144
 1947HOH     H2 6028   3.739   1.741   2.260
 1948HOH      O 6029   0.764   1.785   3.279
 1948HOH     H1 6030   0.752   1.840   3.202
 1948HOH     H2 6031   0.836   1.825   3.327
 1949HOH      O 6032   0.213   2.196   1.482
 1949HOH     H1 6033   0.264   2.255   1.426
 1949HOH     H2 6034   0.128   2.239   1.491
 1950HOH      O 6035   2.793   3.461   2.233
 1950HOH     H1 6036   2.824   3.546   2.264
 1950HOH     H2 6037   2.869   3.420   2.193
 1951HOH      O 6038   2.102   1.554   1.745
 1951HOH     H1 6039   2.020   1.557   1.696
 1951HOH     H2 6040   2.152   1.484   1.703
 1952HOH      O 6041   3.812   1.057   2.402
 1952HOH     H1 6042   3.848   1.027   2.485
 1952HOH     H2 6043   3.859   1.139   2.383
 1953HOH      O 6044   2.493   2.569   1.685
 1953HOH     H1 6045   2.580   2.531   1.678
 1953HOH     H2 6046   2.464   2.578   1.594
 1954HOH      O 6047   2.356   2.405   0.730
 1954HOH     H1 6048   2.386   2.320   0.699
 1954HOH     H2 6049   2.423   2.434   0.791
 1955HOH      O 6050   0.754   1.977   1.049
 1955HOH     H1 6051   0.733   1.885   1.062
 1955HOH     H2 6052   0.688   2.025   1.098
 1956HOH      O 6053   0.979   1.116   1.195
 1956HOH     H1 6054   0.996   1.081   1.107
 1956HOH     H2 6055   1.067   1.128   1.233
 1957HOH      O 6056   3.594   3.022   0.579
 1957HOH     H1 6057   3.608   3.110   0.611
 1957HOH     H2 6058   3.676   2.976   0.597
 1958HOH      O 6059   1.950   1.319   0.195
 1958HOH     H1 6060   2.045   1.313   0.188
 1958HOH     H2 6061   1.922   1.228   0.210
 1959HOH      O 6062   2.625   3.809   1.010
 1959HOH     H1 6063   2.709   3.850   1.031
 1959HOH     H2 6064   2.644   3.715   1.008
 1960HOH      O 6065   3.365   2.821   0.613
 1960HOH     H1 6066   3.419   2.887   0.569
 1960HOH     H2 6067   3.355   2.752   0.547
 1961HOH      O 6068   1.170   3.002   3.674
 1961HOH     H1 6069   1.144   3.065   3.741
 1961HOH     H2 6070   1.115   3.023   3.599
 1962HOH      O 6071   2.478   3.617   0.742
 1962HOH     H1 6072   2.452   3.680   0.808
 1962HOH     H2 6073   2.497   3.537   0.790
 1963HOH      O 6074   0.986   2.248   2.998
 1963HOH     H1 6075   0.946   2.312   3.056
 1963HOH     H2 6076   1.012   2.299   2.921
 1964HOH      O 6077   0.943   0.657   0.457
 1964HOH     H1 6078   0.951   0.721   0.528
 1964HOH     H2 6079   1.033   0.643   0.427
 1965HOH      O 6080   2.952   2.994   1.652
 1965HOH     H1 6081   3.011   2.935   1.699
 1965HOH     H2 6082   3.001   3.020   1.575
 1966HOH      O 6083   0.727   1.913   0.610
 1966HOH     H1 6084   0.664   1.851   0.646
 1966HOH     H2 6085   0.752   1.968   0.685
 1967HOH      O 6086   2.080   2.419   0.720
 1967HOH     H1 6087   2.175   2.430   0.711
 1967HOH     H2 6088   2.062   2.336   0.677
 1968HOH      O 6089   1.746   2.033   0.831
 1968HOH     H1 6090   1.761   2.057   0.923
 1968HOH     H2 6091   1.690   2.103   0.797
 1969HOH      O 6092   1.049   2.024   1.796
 1969HOH     H1 6093   0.990   2.029   1.721
 1969HOH     H2 6094   0.993   1.998   1.869
 1970HOH      O 6095   3.251   1.123   2.774
 1970HOH     H1 6096   3.305   1.183   2.723
 1970HOH     H2 6097   3.187   1.180   2.816
 1971HOH      O 6098   1.501   0.024   3.571
 1971HOH     H1 6099   1.490   0.079   3.493
 1971HOH     H2 6100   1.488   0.084   3.644
 1972HOH      O 6101   2.573   1.531   2.814
 1972HOH     H1 6102   2.541   1.615   2.846
 1972HOH     H2 6103   2.513   1.508   2.743
 1973HOH      O 6104   1.328   0.724   3.781
 1973HOH     H1 6105   1.403   0.672   3.750
 1973HOH     H2 6106   1.367   0.799   3.825
 1974HOH      O 6107   1.930   3.288   1.522
 1974HOH     H1 6108   2.010   3.290   1.575
 1974HOH     H2 6109   1.873   3.353   1.563
 1975HOH      O 6110   1.667   1.250   1.091
 1975HOH     H1 6111   1.631   1.166   1.120
 1975HOH     H2 6112   1.616   1.271   1.012
 1976HOH      O 6113   1.124   0.368   3.624
 1976HOH     H1 6114   1.200   0.376   3.565
 1976HOH     H2 6115   1.099   0.458   3.643
 1977HOH      O 6116   1.146   0.760   0.288
 1977HOH     H1 6117   1.119   0.737   0.200
 1977HOH     H2 6118   1.242   0.759   0.285
 1978HOH      O 6119   1.195   3.951   2.162
 1978HOH     H1 6120   1.101   3.942   2.147
 1978HOH     H2 6121   1.207   4.044   2.183
 1979HOH      O 6122   1.182   1.815   3.875
 1979HOH     H1 6123   1.094   1.807   3.912
 1979HOH     H2 6124   1.216   1.725   3.875
 1980HOH      O 6125   1.976   1.938   2.290
 1980HOH     H1 6126   2.070   1.959   2.292
 1980HOH     H2 6127   1.943   1.968   2.374
 1981HOH      O 6128   0.826   0.858   2.397
 1981HOH     H1 6129   0.776   0.845   2.477
 1981HOH     H2 6130   0.876   0.938   2.414
 1982HOH      O 6131   1.618   1.962   3.170
 1982HOH     H1 6132   1.562   1.901   3.218
 1982HOH     H2 6133   1.699   1.913   3.153
 1983HOH      O 6134   2.456   2.324   1.992
 1983HOH     H1 6135   2.544   2.299   2.020
 1983HOH     H2 6136   2.400   2.307   2.067
 1984HOH      O 6137   2.563   3.688   3.924
 1984HOH     H1 6138   2.625   3.674   3.995
 1984HOH     H2 6139   2.604   3.645   3.848
 1985HOH      O 6140   2.235   2.932   2.894
 1985HOH     H1 6141   2.220   2.841   2.869
 1985HOH     H2 6142   2.282   2.970   2.819
 1986HOH      O 6143   2.721   1.210   1.596
 1986HOH     H1 6144   2.737   1.117   1.579
 1986HOH     H2 6145   2.753   1.255   1.518
 1987HOH      O 6146   0.996   1.922   3.334
 1987HOH     H1 6147   1.055   1.910   3.260
 1987HOH     H2 6148   0.964   2.012   3.326
 1988HOH      O 6149   0.434   1.194   0.856
 1988HOH     H1 6150   0.503   1.257   0.836
 1988HOH     H2 6151   0.385   1.184   0.774
 1989HOH      O 6152   1.528   2.509   2.128
 1989HOH     H1 6153   1.519   2.573   2.057
 1989HOH     H2 6154   1.475   2.434   2.099
 1990HOH      O 6155   1.464   1.295   3.980
 1990HOH     H1 6156   1.459   1.311   3.886
 1990HOH     H2 6157   1.554   1.264   3.995
 1991HOH      O 6158   0.046   0.396   1.922
 1991HOH     H1 6159   0.095   0.320   1.891
 1991HOH     H2 6160  -0.017   0.360   1.985
 1992HOH      O 6161   0.508   2.984   3.951
 1992HOH     H1 6162   0.551   2.954   3.871
 1992HOH     H2 6163   0.580   3.000   4.012
 1993HOH      O 6164   1.091   3.225   2.106
 1993HOH     H1 6165   1.112   3.299   2.163
 1993HOH     H2 6166   1.030   3.261   2.042
 1994HOH      O 6167   2.678   3.738   1.624
 1994HOH     H1 6168   2.660   3.741   1.530
 1994HOH     H2 6169   2.699   3.646   1.641
 1995HOH      O 6170   3.468   2.670   2.934
 1995HOH     H1 6171   3.500   2.634   2.852
 1995HOH     H2 6172   3.546   2.681   2.988
 1996HOH      O 6173   2.393   0.968   2.038
 1996HOH     H1 6174   2.457   1.027   1.998
 1996HOH     H2 6175   2.327   0.955   1.970
 1997HOH      O 6176   0.207   2.202   3.715
 1997HOH     H1 6177   0.113   2.191   3.729
 1997HOH     H2 6178   0.229   2.139   3.646
 1998HOH      O 6179   0.365   2.233   1.054
 1998HOH     H1 6180   0.284   2.218   1.005
 1998HOH     H2 6181   0.434   2.228   0.988
 1999HOH      O 6182   3.032   3.943   2.114
 1999HOH     H1 6183   3.092   3.869   2.122
 1999HOH     H2 6184   3.023   3.956   2.019
 2000HOH      O 6185   2.677   1.785   3.249
 2000HOH     H1 6186   2.709   1.846   3.315
 2000HOH     H2 6187   2.752   1.772   3.191
 2001HOH      O 6188   0.342   3.386   2.533
 2001HOH     H1 6189   0.275   3.390   2.464
 2001HOH     H2 6190   0.314   3.312   2.587
 2002HOH      O 6191   0.163   2.047   2.927
 2002HOH     H1 6192   0.111   2.003   2.994
 2002HOH     H2 6193   0.162   1.986   2.853
 2003HOH      O 6194   1.512   0.704   2.394
 2003HOH     H1 6195   1.574   0.702   2.321
 2003HOH     H2 6196   1.565   0.731   2.469
 2004HOH      O 6197   2.830   2.701   0.875
 2004HOH     H1 6198   2.838   2.608   0.898
 2004HOH     H2 6199   2.842   2.704   0.780
 2005HOH      O 6200   1.282   2.147   1.851
 2005HOH     H1 6201   1.295   2.240   1.831
 2005HOH     H2 6202   1.189   2.133   1.835
 2006HOH      O 6203   0.691   2.495   2.974
 2006HOH     H1 6204   0.609   2.473   2.929
 2006HOH     H2 6205   0.744   2.539   2.907
 2007HOH      O 6206   2.942   2.624   2.258
 2007HOH     H1 6207   3.019   2.567   2.247
 2007HOH     H2 6208   2.871   2.563   2.279
 2008HOH      O 6209   2.931   2.120   3.068
 2008HOH     H1 6210   2.900   2.171   3.143
 2008HOH     H2 6211   3.026   2.128   3.072
 2009HOH      O 6212   0.832   2.880   1.420
 2009HOH     H1 6213   0.924   2.858   1.405
 2009HOH     H2 6214   0.831   2.926   1.504
 2010HOH      O 6215   3.259   3.350   1.111
 2010HOH     H1 6216   3.223   3.289   1.176
 2010HOH     H2 6217   3.354   3.346   1.125
 2011HOH      O 6218   1.906   2.635   3.718
 2011HOH     H1 6219   1.955   2.644   3.637
 2011HOH     H2 6220   1.935   2.709   3.772
 2012HOH      O 6221   0.187   0.875   3.359
 2012HOH     H1 6222   0.130   0.923   3.299
 2012HOH     H2 6223   0.233   0.944   3.408
 2013HOH      O 6224   0.025   0.980   3.184
 2013HOH     H1 6225   0.054   1.037   3.112
 2013HOH     H2 6226  -0.056   0.940   3.152
 2014HOH      O 6227   3.514   3.407   0.749
 2014HOH     H1 6228   3.432   3.359   0.760
 2014HOH     H2 6229   3.529   3.406   0.654
 2015HOH      O 6230   0.961   1.406   3.859
 2015HOH     H1 6231   0.938   1.382   3.949
 2015HOH     H2 6232   0.879   1.399   3.810
 2016HOH      O 6233   0.295   3.180   1.573
 2016HOH     H1 6234   0.216   3.139   1.538
 2016HOH     H2 6235   0.364   3.116   1.557
 2017HOH      O 6236   3.079   1.055   2.081
 2017HOH     H1 6237   3.133   0.977   2.078
 2017HOH     H2 6238   3.016   1.044   2.009
 2018HOH      O 6239   2.842   1.567   3.538
 2018HOH     H1 6240   2.800   1.569   3.623
 2018HOH     H2 6241   2.770   1.559   3.475
 2019HOH      O 6242   1.538   2.889   1.593
 2019HOH     H1 6243   1.495   2.809   1.624
 2019HOH     H2 6244   1.630   2.876   1.616
 2020HOH      O 6245   0.680   3.303   0.388
 2020HOH     H1 6246   0.747   3.264   0.331
 2020HOH     H2 6247   0.670   3.392   0.355
 2021HOH      O 6248   0.746   1.574   0.346
 2021HOH     H1 6249   0.674   1.585   0.284
 2021HOH     H2 6250   0.707   1.523   0.418
 2022HOH      O 6251   3.647   2.428   3.392
 2022HOH     H1 6252   3.656   2.394   3.303
 2022HOH     H2 6253   3.733   2.414   3.431
 2023HOH      O 6254   3.578   2.961   3.154
 2023HOH     H1 6255   3.487   2.942   3.176
 2023HOH     H2 6256   3.585   3.056   3.159
 2024HOH      O 6257   2.476   1.774   0.787
 2024HOH     H1 6258   2.443   1.782   0.877
 2024HOH     H2 6259   2.477   1.679   0.771
 2025HOH      O 6260   2.360   3.657   1.806
 2025HOH     H1 6261   2.404   3.617   1.730
 2025HOH     H2 6262   2.431   3.699   1.854
 2026HOH      O 6263   0.086   0.754   0.990
 2026HOH     H1 6264   0.135   0.746   1.073
 2026HOH     H2 6265   0.145   0.803   0.933
 2027HOH      O 6266   2.339   2.596   2.540
 2027HOH     H1 6267   2.337   2.504   2.567
 2027HOH     H2 6268   2.396   2.638   2.604
 2028HOH      O 6269   0.951   2.495   0.245
 2028HOH     H1 6270   0.945   2.566   0.180
 2028HOH     H2 6271   1.031   2.515   0.294
 2029HOH      O 6272   3.223   3.464   0.540
 2029HOH     H1 6273   3.212   3.559   0.533
 2029HOH     H2 6274   3.185   3.442   0.625
 2030HOH      O 6275   1.574   3.457   0.450
 2030HOH     H1 6276   1.586   3.445   0.356
 2030HOH     H2 6277   1.492   3.411   0.469
 2031HOH      O 6278   1.964   1.100   2.987
 2031HOH     H1 6279   1.977   1.183   2.941
 2031HOH     H2 6280   1.936   1.125   3.075
 2032HOH      O 6281   0.754   3.483   3.127
 2032HOH     H1 6282   0.709   3.399   3.130
 2032HOH     H2 6283   0.712   3.530   3.055
 2033HOH      O 6284   0.660   1.124   2.610
 2033HOH     H1 6285   0.736   1.092   2.658
 2033HOH     H2 6286   0.608   1.171   2.676
 2034HOH      O 6287   1.058   0.738   0.035
 2034HOH     H1 6288   0.964   0.732   0.018
 2034HOH     H2 6289   1.092   0.650   0.017
 2035HOH      O 6290   1.037   0.732   3.165
 2035HOH     H1 6291   1.100   0.720   3.236
 2035HOH     H2 6292   1.089   0.722   3.085
 2036HOH      O 6293   0.546   1.016   1.869
 2036HOH     H1 6294   0.532   1.106   1.900
 2036HOH     H2 6295   0.458   0.980   1.857
 2037HOH      O 6296   0.879   3.857   2.337
 2037HOH     H1 6297   0.862   3.930   2.277
 2037HOH     H2 6298   0.793   3.819   2.354
 2038HOH      O 6299   1.036   2.733   0.133
 2038HOH     H1 6300   1.013   2.690   0.051
 2038HOH     H2 6301   1.026   2.826   0.115
 2039HOH      O 6302   2.300   2.603   0.347
 2039HOH     H1 6303   2.246   2.607   0.268
 2039HOH     H2 6304   2.324   2.694   0.364
 2040HOH      O 6305   2.140   2.759   1.892
 2040HOH     H1 6306   2.178   2.800   1.814
 2040HOH     H2 6307   2.199   2.686   1.911
 2041HOH      O 6308   2.038   3.937   1.623
 2041HOH     H1 6309   2.114   3.911   1.570
 2041HOH     H2 6310   2.018   4.026   1.592
 2042HOH      O 6311   1.365   2.259   1.316
 2042HOH     H1 6312   1.353   2.324   1.385
 2042HOH     H2 6313   1.430   2.199   1.351
 2043HOH      O 6314   2.240   3.780   3.394
 2043HOH     H1 6315   2.219   3.687   3.398
 2043HOH     H2 6316   2.154   3.823   3.389
 2044HOH      O 6317   0.701   3.790   2.716
 2044HOH     H1 6318   0.678   3.875   2.679
 2044HOH     H2 6319   0.792   3.800   2.747
 2045HOH      O 6320   0.206   2.266   4.019
 2045HOH     H1 6321   0.222   2.241   3.928
 2045HOH     H2 6322   0.110   2.266   4.027
 2046HOH      O 6323   3.225   0.836   1.015
 2046HOH     H1 6324   3.252   0.927   1.025
 2046HOH     H2 6325   3.140   0.841   0.971
 2047HOH      O 6326   2.608   3.749   2.994
 2047HOH     H1 6327   2.518   3.756   2.963
 2047HOH     H2 6328   2.623   3.655   3.004
 2048HOH      O 6329   0.275   2.084   2.137
 2048HOH     H1 6330   0.280   2.171   2.097
 2048HOH     H2 6331   0.358   2.042   2.113
 2049HOH      O 6332   1.902   2.367   3.424
 2049HOH     H1 6333   1.888   2.279   3.458
 2049HOH     H2 6334   1.928   2.354   3.333
 2050HOH      O 6335   0.724   0.920   3.473
 2050HOH     H1 6336   0.665   0.937   3.547
 2050HOH     H2 6337   0.808   0.901   3.515
 2051HOH      O 6338   3.977   2.853   3.905
 2051HOH     H1 6339   3.933   2.937   3.896
 2051HOH     H2 6340   4.066   2.875   3.931
 2052HOH      O 6341   3.897   3.997   0.876
 2052HOH     H1 6342   3.967   4.060   0.892
 2052HOH     H2 6343   3.940   3.925   0.830
 2053HOH      O 6344   1.528   0.698   0.714
 2053HOH     H1 6345   1.444   0.732   0.683
 2053HOH     H2 6346   1.588   0.772   0.705
 2054HOH      O 6347   3.578   2.320   1.283
 2054HOH     H1 6348   3.519   2.251   1.253
 2054HOH     H2 6349   3.523   2.398   1.288
 2055HOH      O 6350   0.333   0.327   1.481
 2055HOH     H1 6351   0.376   0.403   1.519
 2055HOH     H2 6352   0.269   0.300   1.548
 2056HOH      O 6353   3.381   3.881   0.873
 2056HOH     H1 6354   3.311   3.893   0.808
 2056HOH     H2 6355   3.356   3.802   0.921
 2057HOH      O 6356   1.412   0.389   2.931
 2057HOH     H1 6357   1.397   0.424   2.843
 2057HOH     H2 6358   1.492   0.434   2.961
 2058HOH      O 6359   0.894   0.215   2.508
 2058HOH     H1 6360   0.969   0.173   2.550
 2058HOH     H2 6361   0.924   0.238   2.420
 2059HOH      O 6362   1.772   1.453   1.231
 2059HOH     H1 6363   1.855   1.462   1.184
 2059HOH     H2 6364   1.722   1.390   1.179
 2060HOH      O 6365   2.334   1.025   3.702
 2060HOH     H1 6366   2.284   1.021   3.783
 2060HOH     H2 6367   2.426   1.031   3.730
 2061HOH      O 6368   3.190   1.042   0.074
 2061HOH     H1 6369   3.280   1.031   0.104
 2061HOH     H2 6370   3.149   1.097   0.141
 2062HOH      O 6371   2.197   2.209   0.070
 2062HOH     H1 6372   2.139   2.256   0.131
 2062HOH     H2 6373   2.247   2.279   0.027
 2063HOH      O 6374   1.884   1.044   3.797
 2063HOH     H1 6375   1.926   0.976   3.745
 2063HOH     H2 6376   1.957   1.095   3.832
 2064HOH      O 6377   0.661   0.578   2.147
 2064HOH     H1 6378   0.639   0.637   2.075
 2064HOH     H2 6379   0.720   0.628   2.203
 2065HOH      O 6380   2.807   2.439   1.034
 2065HOH     H1 6381   2.826   2.345   1.035
 2065HOH     H2 6382   2.829   2.469   1.122
 2066HOH      O 6383   2.107   1.460   2.328
 2066HOH     H1 6384   2.095   1.399   2.255
 2066HOH     H2 6385   2.113   1.403   2.405
 2067HOH      O 6386   1.057   3.200   1.501
 2067HOH     H1 6387   1.139   3.213   1.549
 2067HOH     H2 6388   0.989   3.202   1.568
 2068HOH      O 6389   3.185   3.734   0.488
 2068HOH     H1 6390   3.100   3.748   0.445
 2068HOH     H2 6391   3.246   3.788   0.437
 2069HOH      O 6392   1.157   3.874   1.558
 2069HOH     H1 6393   1.238   3.913   1.591
 2069HOH     H2 6394   1.184   3.791   1.518
 2070HOH      O 6395   0.244   0.394   1.248
 2070HOH     H1 6396   0.188   0.318   1.228
 2070HOH     H2 6397   0.282   0.373   1.333
 2071HOH      O 6398   0.192   1.316   1.471
 2071HOH     H1 6399   0.203   1.358   1.556
 2071HOH     H2 6400   0.112   1.264   1.479
 2072HOH      O 6401   0.971   0.269   1.273
 2072HOH     H1 6402   0.877   0.269   1.291
 2072HOH     H2 6403   1.001   0.182   1.303
 2073HOH      O 6404   2.192   2.028   1.185
 2073HOH     H1 6405   2.155   2.069   1.107
 2073HOH     H2 6406   2.249   2.095   1.223
 2074HOH      O 6407   3.240   1.311   1.019
 2074HOH     H1 6408   3.266   1.294   0.928
 2074HOH     H2 6409   3.258   1.404   1.032
 2075HOH      O 6410   1.544   0.177   2.681
 2075HOH     H1 6411   1.562   0.146   2.769
 2075HOH     H2 6412   1.586   0.263   2.676
 2076HOH      O 6413   0.283   3.888   2.670
 2076HOH     H1 6414   0.207   3.837   2.699
 2076HOH     H2 6415   0.291   3.869   2.577
 2077HOH      O 6416   2.610   3.240   1.987
 2077HOH     H1 6417   2.641   3.321   2.028
 2077HOH     H2 6418   2.652   3.170   2.037
 2078HOH      O 6419   1.401   2.335   3.088
 2078HOH     H1 6420   1.484   2.288   3.092
 2078HOH     H2 6421   1.413   2.411   3.144
 2079HOH      O 6422   2.354   3.103   2.438
 2079HOH     H1 6423   2.300   3.028   2.412
 2079HOH     H2 6424   2.357   3.158   2.360
 2080HOH      O 6425   0.751   3.463   0.642
 2080HOH     H1 6426   0.665   3.484   0.678
 2080HOH     H2 6427   0.733   3.402   0.570
 2081HOH      O 6428   1.675   3.921   2.744
 2081HOH     H1 6429   1.605   3.916   2.679
 2081HOH     H2 6430   1.756   3.924   2.693
 2082HOH      O 6431   0.273   2.344   2.003
 2082HOH     H1 6432   0.285   2.424   2.054
 2082HOH     H2 6433   0.184   2.350   1.969
 2083HOH      O 6434   4.044   0.856   3.737
 2083HOH     H1 6435   4.026   0.833   3.828
 2083HOH     H2 6436   4.000   0.789   3.685
 2084HOH      O 6437   1.262   3.020   0.888
 2084HOH     H1 6438   1.260   3.106   0.847
 2084HOH     H2 6439   1.194   3.024   0.955
 2085HOH      O 6440   2.367   2.370   2.338
 2085HOH     H1 6441   2.446   2.424   2.348
 2085HOH     H2 6442   2.303   2.429   2.297
 2086HOH      O 6443   0.916   0.160   2.039
 2086HOH     H1 6444   0.847   0.219   2.010
 2086HOH     H2 6445   0.963   0.136   1.959
 2087HOH      O 6446   2.756   2.821   3.711
 2087HOH     H1 6447   2.801   2.897   3.675
 2087HOH     H2 6448   2.722   2.774   3.635
 2088HOH      O 6449   3.462   3.077   0.319
 2088HOH     H1 6450   3.426   3.161   0.346
 2088HOH     H2 6451   3.533   3.060   0.381
 2089HOH      O 6452   1.383   2.689   2.873
 2089HOH     H1 6453   1.467   2.643   2.864
 2089HOH     H2 6454   1.317   2.622   2.856
 2090HOH      O 6455   2.113   2.360   1.295
 2090HOH     H1 6456   2.163   2.372   1.214
 2090HOH     H2 6457   2.096   2.266   1.299
 2091HOH      O 6458   0.141   2.545   3.003
 2091HOH     H1 6459   0.061   2.596   3.017
 2091HOH     H2 6460   0.120   2.485   2.933
 2092HOH      O 6461   1.362   0.608   1.520
 2092HOH     H1 6462   1.280   0.591   1.567
 2092HOH     H2 6463   1.415   0.658   1.581
 2093HOH      O 6464   1.784   3.663   1.916
 2093HOH     H1 6465   1.756   3.748   1.950
 2093HOH     H2 6466   1.803   3.679   1.823
 2094HOH      O 6467   1.405   2.220   3.902
 2094HOH     H1 6468   1.313   2.191   3.907
 2094HOH     H2 6469   1.422   2.229   3.808
 2095HOH      O 6470   1.302   1.366   1.888
 2095HOH     H1 6471   1.238   1.437   1.884
 2095HOH     H2 6472   1.267   1.300   1.829
 2096HOH      O 6473   3.369   3.870   1.619
 2096HOH     H1 6474   3.461   3.849   1.633
 2096HOH     H2 6475   3.356   3.861   1.524
 2097HOH      O 6476   2.976   3.432   1.338
 2097HOH     H1 6477   2.970   3.359   1.277
 2097HOH     H2 6478   2.945   3.508   1.287
 2098HOH      O 6479   3.163   1.732   0.924
 2098HOH     H1 6480   3.070   1.713   0.921
 2098HOH     H2 6481   3.173   1.811   0.870
 2099HOH      O 6482   1.237   1.617   0.265
 2099HOH     H1 6483   1.187   1.605   0.185
 2099HOH     H2 6484   1.171   1.634   0.332
 2100HOH      O 6485   2.355   0.527   2.042
 2100HOH     H1 6486   2.448   0.527   2.065
 2100HOH     H2 6487   2.346   0.456   1.978
 2101HOH      O 6488   3.076   1.361   2.654
 2101HOH     H1 6489   3.019   1.431   2.687
 2101HOH     H2 6490   3.017   1.290   2.630
 2102HOH      O 6491   3.498   0.281   2.772
 2102HOH     H1 6492   3.522   0.260   2.862
 2102HOH     H2 6493   3.537   0.211   2.720
 2103HOH      O 6494   2.456   3.827   3.716
 2103HOH     H1 6495   2.489   3.793   3.799
 2103HOH     H2 6496   2.463   3.752   3.656
 2104HOH      O 6497   1.511   1.552   1.821
 2104HOH     H1 6498   1.469   1.638   1.818
 2104HOH     H2 6499   1.444   1.494   1.857
 2105HOH      O 6500   2.141   1.177   1.761
 2105HOH     H1 6501   2.059   1.155   1.717
 2105HOH     H2 6502   2.201   1.106   1.737
 2106HOH      O 6503   2.882   1.598   2.714
 2106HOH     H1 6504   2.919   1.643   2.789
 2106HOH     H2 6505   2.788   1.595   2.731
 2107HOH      O 6506   1.067   3.036   1.104
 2107HOH     H1 6507   1.056   3.107   1.040
 2107HOH     H2 6508   0.977   3.012   1.128
 2108HOH      O 6509   2.581   3.974   1.275
 2108HOH     H1 6510   2.656   4.027   1.303
 2108HOH     H2 6511   2.597   3.955   1.183
 2109HOH      O 6512   0.115   0.174   0.904
 2109HOH     H1 6513   0.183   0.241   0.896
 2109HOH     H2 6514   0.161   0.091   0.887
 2110HOH      O 6515   0.864   1.328   1.678
 2110HOH     H1 6516   0.954   1.341   1.648
 2110HOH     H2 6517   0.863   1.240   1.715
 2111HOH      O 6518   3.038   2.211   0.073
 2111HOH     H1 6519   2.983   2.141   0.038
 2111HOH     H2 6520   3.087   2.243  -0.003
   4.02731   4.02731   4.02731   0.00000   0.00000   0.00000   0.00000   0.00000   0.00000
