Generated with MDTraj, t= 23250.0
 6520
    1MOL     C1    1   3.998   3.558   3.491
    1MOL     C2    2   4.014   3.687   3.429
    1MOL     C3    3   4.039   3.805   3.502
    1MOL     C4    4   4.054   3.793   3.639
    1MOL     C5    5   4.041   3.671   3.699
    1MOL     C6    6   4.009   3.555   3.629
    1MOL     C7    7   4.043   3.930   3.422
    1MOL     N1    8   4.028   4.019   3.353
    1MOL     C8    9   4.000   3.424   3.710
    1MOL     O1   10   3.928   3.335   3.663
    1MOL     O2   11   4.040   3.425   3.825
    1MOL     H1   12   3.968   3.471   3.432
    1MOL     H2   13   3.998   3.695   3.322
    1MOL     H3   14   4.079   3.876   3.705
    1MOL     H4   15   4.064   3.663   3.805
    2OCB     C1   16   0.039   0.285   2.299
    2OCB     C2   17  -0.211   0.246   2.414
    2OCB     C3   18  -0.041   0.395   2.328
    2OCB     C4   19  -0.010   0.153   2.321
    2OCB     C5   20  -0.133   0.135   2.381
    2OCB     C6   21  -0.171   0.379   2.383
    2OCB     O1   22  -0.323   0.229   2.492
    2OCB     C7   23  -0.259   0.497   2.433
    2OCB     C8   24  -0.318   0.259   2.633
    2OCB     O2   25  -0.371   0.386   2.662
    2OCB     C9   26  -0.282   0.489   2.683
    2OCB    C10   27  -0.216   0.539   2.574
    2OCB    C11   28  -0.123   0.641   2.591
    2OCB    C12   29  -0.265   0.539   2.808
    2OCB    C13   30  -0.097   0.688   2.722
    2OCB    C14   31  -0.166   0.635   2.833
    2OCB     O3   32  -0.137   0.660   2.966
    2OCB    C15   33   0.023   0.784   2.744
    2OCB    C16   34   0.152   0.707   2.762
    2OCB    C17   35   0.184   0.661   2.884
    2OCB    C18   36  -0.013   0.592   3.008
    2OCB     O4   37   0.100   0.677   2.996
    2OCB     O5   38   0.065   0.043   2.301
    2OCB    C19   39   0.172   0.292   2.231
    2OCB    C20   40   0.280   0.309   2.334
    2OCB     O6   41   0.301   0.070   2.343
    2OCB    C21   42   0.341   0.193   2.388
    2OCB    C22   43   0.305   0.604   2.909
    2OCB    C23   44   0.391   0.562   2.799
    2OCB    C24   45   0.427   0.198   2.491
    2OCB    C25   46   0.461   0.317   2.548
    2OCB     O7   47   0.485   0.473   2.825
    2OCB     O8   48   0.533   0.306   2.661
    2OCB    C26   49   0.473   0.333   2.786
    2OCB    C27   50   0.331   0.434   2.384
    2OCB    C28   51   0.420   0.436   2.489
    2OCB    C29   52   0.236   0.686   2.652
    2OCB    C30   53   0.452   0.567   2.557
    2OCB    C31   54   0.353   0.601   2.663
    2OCB    C32   55   0.173   0.017   2.396
    2OCB    C33   56   0.019   0.904   2.646
    2OCB    C34   57   0.113   1.022   2.694
    2OCB    C35   58   0.094   1.155   2.614
    2OCB     O9   59   0.193   1.213   2.577
    2OCB    C36   60  -0.253   0.612   2.331
    2OCB    C37   61  -0.360   0.726   2.356
    2OCB    C38   62  -0.498   0.677   2.333
    2OCB    O10   63  -0.565   0.632   2.424
    2OCB    C39   64   0.183   0.382   2.112
    2OCB    C40   65   0.325   0.389   2.051
    2OCB    C41   66   0.303   0.462   1.916
    2OCB    O11   67   0.315   0.586   1.916
    2OCB    C42   68   0.495   0.692   2.475
    2OCB    C43   69   0.557   0.806   2.558
    2OCB    C44   70   0.580   0.923   2.469
    2OCB    O12   71   0.521   1.022   2.491
    2OCB    C45   72  -0.370   0.144   2.721
    2OCB    C46   73  -0.471  -0.067   2.886
    2OCB    C47   74  -0.423   0.168   2.851
    2OCB    C48   75  -0.357   0.008   2.675
    2OCB    C49   76  -0.405  -0.091   2.762
    2OCB    C50   77  -0.480   0.067   2.930
    2OCB    C51   78   0.188  -0.125   2.442
    2OCB    C52   79   0.211  -0.380   2.542
    2OCB    C53   80   0.311  -0.162   2.510
    2OCB    C54   81   0.085  -0.217   2.429
    2OCB    C55   82   0.098  -0.345   2.476
    2OCB    C56   83   0.315  -0.291   2.559
    2OCB    C57   84   0.539   0.254   2.893
    2OCB    C58   85   0.643   0.088   3.097
    2OCB    C59   86   0.522   0.287   3.023
    2OCB    C60   87   0.590   0.128   2.868
    2OCB    C61   88   0.635   0.040   2.970
    2OCB    C62   89   0.586   0.210   3.124
    2OCB    C63   90  -0.022   0.533   3.148
    2OCB    C64   91  -0.045   0.430   3.404
    2OCB    C65   92   0.088   0.532   3.232
    2OCB    C66   93  -0.147   0.490   3.198
    2OCB    C67   94  -0.156   0.427   3.321
    2OCB    C68   95   0.078   0.477   3.358
    2OCB    O13   96  -0.010  -0.429   2.477
    2OCB    O14   97   0.706  -0.078   2.936
    2OCB    O15   98   0.559   0.225   3.258
    2OCB    O16   99  -0.381  -0.223   2.723
    2OCB    O17  100  -0.535   0.094   3.055
    2OCB    O18  101   0.179   0.462   3.451
    2OCB    O19  102  -0.268   0.365   3.363
    2OCB    C69  103   0.675  -0.151   2.821
    2OCB    C70  104   0.643  -0.293   2.592
    2OCB    C71  105   0.547  -0.206   2.795
    2OCB    C72  106   0.784  -0.178   2.746
    2OCB    C73  107   0.771  -0.254   2.631
    2OCB    C74  108   0.538  -0.276   2.673
    2OCB    O20  109   0.418  -0.336   2.635
    2OCB    C75  110  -0.323  -0.267   2.605
    2OCB    C76  111  -0.210  -0.362   2.362
    2OCB    C77  112  -0.394  -0.273   2.486
    2OCB    C78  113  -0.192  -0.326   2.608
    2OCB    C79  114  -0.140  -0.376   2.484
    2OCB    C80  115  -0.342  -0.321   2.364
    2OCB    C81  116   0.499   0.335   3.312
    2OCB    C82  117   0.390   0.569   3.429
    2OCB    C83  118   0.578   0.443   3.334
    2OCB    C84  119   0.365   0.331   3.356
    2OCB    C85  120   0.313   0.455   3.408
    2OCB    C86  121   0.525   0.560   3.401
    2OCB    C87  122   0.620   0.673   3.433
    2OCB    O21  123   0.601   0.750   3.528
    2OCB    C88  124  -0.709   0.522   3.226
    2OCB    O22  125  -0.801   0.524   3.148
    2OCB    C89  126  -0.435  -0.310   2.248
    2OCB    O23  127  -0.406  -0.356   2.140
    2OCB    O24  128  -0.016   1.212   2.609
    2OCB    O25  129   0.677   0.919   2.403
    2OCB    O26  130   0.277   0.396   1.819
    2OCB    C90  131   0.885  -0.270   2.528
    2OCB    O27  132   0.885  -0.372   2.464
    2OCB    O28  133  -0.722   0.584   3.330
    2OCB    O29  134   0.727   0.670   3.373
    2OCB    O30  135   0.980  -0.197   2.537
    2OCB    O31  136  -0.546  -0.258   2.248
    2OCB    O32  137  -0.547   0.692   2.226
    2OCB    C91  138  -0.514   0.205   3.132
    2OCB    C92  139  -0.476   0.439   3.279
    2OCB    C93  140  -0.399   0.222   3.209
    2OCB    C94  141  -0.615   0.305   3.134
    2OCB    C95  142  -0.596   0.420   3.211
    2OCB    C96  143  -0.379   0.341   3.283
    2OCB    C97  144  -0.298   0.103   3.241
    2OCB    C98  145  -0.103  -0.338   2.731
    2OCB    C99  146   0.427  -0.175   2.886
    2OCB      C  147   0.270   0.215   3.322
    2OCB     H1  148   0.002   0.493   2.311
    2OCB     H2  149  -0.161   0.037   2.420
    2OCB     H3  150  -0.361   0.460   2.425
    2OCB     H4  151  -0.209   0.266   2.651
    2OCB     H5  152  -0.064   0.686   2.511
    2OCB     H6  153  -0.321   0.502   2.894
    2OCB     H7  154   0.003   0.828   2.842
    2OCB     H8  155   0.003   0.500   2.949
    2OCB     H9  156   0.175   0.196   2.179
    2OCB    H10  157   0.329   0.589   3.014
    2OCB    H11  158   0.476   0.110   2.530
    2OCB    H12  159   0.364   0.319   2.778
    2OCB    H13  160   0.289   0.529   2.351
    2OCB    H14  161   0.201   0.716   2.553
    2OCB    H15  162   0.551   0.547   2.600
    2OCB    H16  163   0.145   0.072   2.487
    2OCB    H17  164   0.043   0.867   2.546
    2OCB    H18  165  -0.082   0.944   2.644
    2OCB    H19  166   0.094   1.033   2.801
    2OCB    H20  167   0.218   0.993   2.690
    2OCB    H21  168  -0.268   0.576   2.229
    2OCB    H22  169  -0.159   0.668   2.327
    2OCB    H23  170  -0.334   0.768   2.454
    2OCB    H24  171  -0.343   0.799   2.277
    2OCB    H25  172   0.112   0.351   2.035
    2OCB    H26  173   0.168   0.485   2.143
    2OCB    H27  174   0.399   0.436   2.116
    2OCB    H28  175   0.361   0.288   2.028
    2OCB    H29  176   0.567   0.654   2.402
    2OCB    H30  177   0.406   0.735   2.429
    2OCB    H31  178   0.503   0.838   2.647
    2OCB    H32  179   0.650   0.763   2.595
    2OCB    H33  180  -0.509  -0.153   2.940
    2OCB    H34  181  -0.430   0.270   2.887
    2OCB    H35  182  -0.318  -0.015   2.576
    2OCB    H36  183   0.215  -0.483   2.577
    2OCB    H37  184   0.382  -0.086   2.538
    2OCB    H38  185  -0.001  -0.177   2.377
    2OCB    H39  186   0.691   0.033   3.177
    2OCB    H40  187   0.464   0.373   3.057
    2OCB    H41  188   0.600   0.102   2.763
    2OCB    H42  189  -0.057   0.386   3.503
    2OCB    H43  190   0.182   0.580   3.208
    2OCB    H44  191  -0.238   0.497   3.139
    2OCB    H45  192   0.631  -0.350   2.501
    2OCB    H46  193   0.875  -0.130   2.781
    2OCB    H47  194  -0.155  -0.371   2.268
    2OCB    H48  195  -0.490  -0.221   2.484
    2OCB    H49  196   0.345   0.654   3.481
    2OCB    H50  197   0.676   0.453   3.287
    2OCB    H51  198  -0.468   0.521   3.349
    2OCB    H52  199  -0.698   0.292   3.065
    2OCB    H53  200  -0.196   0.125   3.208
    2OCB    H54  201  -0.294   0.093   3.349
    2OCB    H55  202  -0.323   0.006   3.197
    2OCB    H56  203  -0.011  -0.279   2.731
    2OCB    H57  204  -0.155  -0.298   2.819
    2OCB    H58  205  -0.087  -0.443   2.757
    2OCB    H59  206   0.353  -0.111   2.838
    2OCB    H60  207   0.380  -0.269   2.913
    2OCB    H61  208   0.454  -0.124   2.979
    2OCB    H62  209   0.316   0.129   3.273
    2OCB    H63  210   0.233   0.186   3.420
    2OCB    H64  211   0.185   0.244   3.260
    3Na+    Na+  212   3.701   0.956   0.910
    4Na+    Na+  213   1.979   3.639   3.110
    5Na+    Na+  214   3.503   0.197   2.338
    6Na+    Na+  215   3.313   3.701   3.285
    7Na+    Na+  216   1.698   2.749   0.658
    8Na+    Na+  217   3.357   0.808   3.331
    9Na+    Na+  218   1.470   2.444   1.613
   10Na+    Na+  219   0.125   1.415   2.509
   11Na+    Na+  220   0.637   3.835   1.337
   12HOH      O  221   0.592   0.041   1.368
   12HOH     H1  222   0.572   0.091   1.447
   12HOH     H2  223   0.559   0.094   1.296
   13HOH      O  224   1.752   2.660   3.188
   13HOH     H1  225   1.665   2.684   3.219
   13HOH     H2  226   1.810   2.680   3.262
   14HOH      O  227   2.939   3.953   1.877
   14HOH     H1  228   2.931   3.886   1.809
   14HOH     H2  229   2.849   3.968   1.906
   15HOH      O  230   1.523   1.929   2.739
   15HOH     H1  231   1.598   1.869   2.738
   15HOH     H2  232   1.560   2.013   2.765
   16HOH      O  233   2.989   3.232   0.289
   16HOH     H1  234   3.069   3.208   0.335
   16HOH     H2  235   2.937   3.280   0.354
   17HOH      O  236   0.530   3.127   3.038
   17HOH     H1  237   0.479   3.101   2.961
   17HOH     H2  238   0.603   3.177   3.002
   18HOH      O  239   0.181   1.997   3.800
   18HOH     H1  240   0.160   1.904   3.792
   18HOH     H2  241   0.217   2.021   3.715
   19HOH      O  242   2.073   2.415   0.963
   19HOH     H1  243   2.091   2.426   1.057
   19HOH     H2  244   1.978   2.417   0.957
   20HOH      O  245   1.008   2.858   0.554
   20HOH     H1  246   0.958   2.927   0.597
   20HOH     H2  247   1.095   2.864   0.595
   21HOH      O  248   0.723   1.354   1.010
   21HOH     H1  249   0.657   1.383   0.947
   21HOH     H2  250   0.794   1.418   1.002
   22HOH      O  251   3.464   3.195   1.230
   22HOH     H1  252   3.458   3.199   1.325
   22HOH     H2  253   3.382   3.234   1.199
   23HOH      O  254   0.636   2.217   2.448
   23HOH     H1  255   0.643   2.292   2.389
   23HOH     H2  256   0.605   2.254   2.531
   24HOH      O  257   1.517   1.492   1.757
   24HOH     H1  258   1.581   1.423   1.773
   24HOH     H2  259   1.457   1.488   1.831
   25HOH      O  260   3.281   3.006   0.798
   25HOH     H1  261   3.237   2.932   0.839
   25HOH     H2  262   3.357   2.967   0.754
   26HOH      O  263   0.780   1.039   3.019
   26HOH     H1  264   0.707   0.991   2.980
   26HOH     H2  265   0.858   0.989   2.996
   27HOH      O  266   1.186   3.145   2.980
   27HOH     H1  267   1.125   3.136   2.906
   27HOH     H2  268   1.222   3.233   2.971
   28HOH      O  269   0.852   2.793   3.025
   28HOH     H1  270   0.775   2.767   3.077
   28HOH     H2  271   0.824   2.782   2.934
   29HOH      O  272   2.589   3.486   2.546
   29HOH     H1  273   2.602   3.395   2.520
   29HOH     H2  274   2.508   3.512   2.502
   30HOH      O  275   1.308   1.101   3.266
   30HOH     H1  276   1.273   1.080   3.353
   30HOH     H2  277   1.328   1.016   3.227
   31HOH      O  278   0.906   0.768   2.532
   31HOH     H1  279   0.882   0.678   2.552
   31HOH     H2  280   0.825   0.808   2.499
   32HOH      O  281   1.805   3.760   2.983
   32HOH     H1  282   1.715   3.729   2.995
   32HOH     H2  283   1.797   3.855   2.978
   33HOH      O  284   3.934   2.007   2.026
   33HOH     H1  285   3.867   2.010   2.094
   33HOH     H2  286   4.012   2.045   2.067
   34HOH      O  287   0.411   0.803   2.041
   34HOH     H1  288   0.470   0.733   2.013
   34HOH     H2  289   0.324   0.773   2.013
   35HOH      O  290   3.534   2.957   1.127
   35HOH     H1  291   3.454   2.908   1.149
   35HOH     H2  292   3.503   3.047   1.116
   36HOH      O  293   2.804   0.253   2.534
   36HOH     H1  294   2.774   0.277   2.447
   36HOH     H2  295   2.890   0.296   2.542
   37HOH      O  296   0.285   2.485   0.333
   37HOH     H1  297   0.230   2.550   0.288
   37HOH     H2  298   0.279   2.509   0.425
   38HOH      O  299   1.328   0.976   0.894
   38HOH     H1  300   1.412   1.022   0.904
   38HOH     H2  301   1.264   1.035   0.933
   39HOH      O  302   0.546   3.312   0.765
   39HOH     H1  303   0.502   3.240   0.810
   39HOH     H2  304   0.503   3.318   0.680
   40HOH      O  305   2.100   1.689   0.025
   40HOH     H1  306   2.162   1.748  -0.018
   40HOH     H2  307   2.149   1.607   0.036
   41HOH      O  308   0.332   3.933   0.957
   41HOH     H1  309   0.311   3.901   0.869
   41HOH     H2  310   0.373   4.018   0.942
   42HOH      O  311   3.269   1.490   1.370
   42HOH     H1  312   3.199   1.515   1.430
   42HOH     H2  313   3.232   1.506   1.282
   43HOH      O  314   0.840   1.266   3.199
   43HOH     H1  315   0.827   1.191   3.141
   43HOH     H2  316   0.934   1.266   3.216
   44HOH      O  317   0.152   2.988   3.079
   44HOH     H1  318   0.235   2.948   3.106
   44HOH     H2  319   0.088   2.955   3.143
   45HOH      O  320   3.578   1.714   1.542
   45HOH     H1  321   3.646   1.771   1.577
   45HOH     H2  322   3.599   1.627   1.577
   46HOH      O  323   3.944   1.125   1.629
   46HOH     H1  324   4.031   1.146   1.664
   46HOH     H2  325   3.937   1.178   1.549
   47HOH      O  326   0.253   0.207   3.864
   47HOH     H1  327   0.160   0.193   3.846
   47HOH     H2  328   0.299   0.162   3.793
   48HOH      O  329   0.247   3.533   2.126
   48HOH     H1  330   0.294   3.511   2.207
   48HOH     H2  331   0.224   3.448   2.089
   49HOH      O  332   0.053   2.381   1.264
   49HOH     H1  333   0.145   2.380   1.293
   49HOH     H2  334   0.004   2.393   1.345
   50HOH      O  335   3.069   1.721   1.424
   50HOH     H1  336   3.121   1.795   1.454
   50HOH     H2  337   3.037   1.748   1.337
   51HOH      O  338   2.414   1.946   2.727
   51HOH     H1  339   2.489   1.892   2.701
   51HOH     H2  340   2.412   1.940   2.822
   52HOH      O  341   3.953   1.118   3.357
   52HOH     H1  342   4.031   1.161   3.321
   52HOH     H2  343   3.977   1.025   3.362
   53HOH      O  344   2.276   2.848   3.646
   53HOH     H1  345   2.362   2.813   3.670
   53HOH     H2  346   2.216   2.776   3.658
   54HOH      O  347   1.185   0.480   1.307
   54HOH     H1  348   1.256   0.501   1.368
   54HOH     H2  349   1.198   0.539   1.233
   55HOH      O  350   1.854   2.744   1.501
   55HOH     H1  351   1.890   2.810   1.561
   55HOH     H2  352   1.901   2.758   1.419
   56HOH      O  353   0.392   3.522   2.346
   56HOH     H1  354   0.396   3.609   2.386
   56HOH     H2  355   0.374   3.463   2.419
   57HOH      O  356   3.704   0.726   0.288
   57HOH     H1  357   3.795   0.755   0.292
   57HOH     H2  358   3.671   0.762   0.206
   58HOH      O  359   1.723   3.590   0.708
   58HOH     H1  360   1.632   3.572   0.730
   58HOH     H2  361   1.726   3.592   0.613
   59HOH      O  362   2.277   2.873   2.304
   59HOH     H1  363   2.227   2.904   2.228
   59HOH     H2  364   2.365   2.859   2.270
   60HOH      O  365   3.863   3.700   1.696
   60HOH     H1  366   3.817   3.706   1.780
   60HOH     H2  367   3.950   3.737   1.713
   61HOH      O  368   2.809   1.455   3.674
   61HOH     H1  369   2.888   1.496   3.708
   61HOH     H2  370   2.814   1.468   3.580
   62HOH      O  371   3.049   0.169   2.308
   62HOH     H1  372   2.983   0.101   2.296
   62HOH     H2  373   3.092   0.147   2.390
   63HOH      O  374   2.051   1.829   1.565
   63HOH     H1  375   2.024   1.911   1.607
   63HOH     H2  376   2.015   1.761   1.622
   64HOH      O  377   2.254   1.079   1.822
   64HOH     H1  378   2.349   1.092   1.829
   64HOH     H2  379   2.220   1.164   1.796
   65HOH      O  380   2.297   3.878   0.807
   65HOH     H1  381   2.385   3.886   0.769
   65HOH     H2  382   2.268   3.969   0.818
   66HOH      O  383   0.083   1.135   1.035
   66HOH     H1  384   0.058   1.045   1.052
   66HOH     H2  385   0.110   1.169   1.121
   67HOH      O  386   3.264   3.715   2.368
   67HOH     H1  387   3.193   3.769   2.333
   67HOH     H2  388   3.339   3.735   2.311
   68HOH      O  389   2.881   3.513   3.893
   68HOH     H1  390   2.955   3.523   3.953
   68HOH     H2  391   2.834   3.437   3.925
   69HOH      O  392   1.775   2.605   2.926
   69HOH     H1  393   1.761   2.608   3.020
   69HOH     H2  394   1.770   2.697   2.898
   70HOH      O  395   3.432   3.540   3.830
   70HOH     H1  396   3.469   3.508   3.747
   70HOH     H2  397   3.506   3.539   3.891
   71HOH      O  398   1.589   1.217   1.738
   71HOH     H1  399   1.553   1.129   1.731
   71HOH     H2  400   1.542   1.267   1.671
   72HOH      O  401   1.830   0.829   1.180
   72HOH     H1  402   1.855   0.800   1.268
   72HOH     H2  403   1.771   0.760   1.148
   73HOH      O  404   1.927   3.837   0.404
   73HOH     H1  405   1.954   3.868   0.318
   73HOH     H2  406   1.851   3.891   0.426
   74HOH      O  407   2.853   2.937   2.550
   74HOH     H1  408   2.765   2.907   2.528
   74HOH     H2  409   2.843   2.979   2.635
   75HOH      O  410   1.194   0.653   2.414
   75HOH     H1  411   1.257   0.690   2.352
   75HOH     H2  412   1.212   0.699   2.496
   76HOH      O  413   2.763   3.227   3.553
   76HOH     H1  414   2.705   3.231   3.478
   76HOH     H2  415   2.782   3.319   3.574
   77HOH      O  416   2.775   0.388   4.010
   77HOH     H1  417   2.856   0.402   4.059
   77HOH     H2  418   2.805   0.360   3.923
   78HOH      O  419   3.229   3.941   0.513
   78HOH     H1  420   3.299   3.955   0.577
   78HOH     H2  421   3.246   3.854   0.478
   79HOH      O  422   1.116   3.938   1.500
   79HOH     H1  423   1.160   3.996   1.561
   79HOH     H2  424   1.044   3.900   1.550
   80HOH      O  425   0.713   1.109   1.898
   80HOH     H1  426   0.671   1.063   1.971
   80HOH     H2  427   0.752   1.040   1.845
   81HOH      O  428   0.540   2.462   2.566
   81HOH     H1  429   0.577   2.492   2.649
   81HOH     H2  430   0.468   2.404   2.591
   82HOH      O  431   1.064   2.482   3.807
   82HOH     H1  432   1.001   2.457   3.875
   82HOH     H2  433   1.010   2.509   3.733
   83HOH      O  434   1.588   4.001   1.036
   83HOH     H1  435   1.593   3.925   0.978
   83HOH     H2  436   1.678   4.016   1.064
   84HOH      O  437   0.485   2.130   2.863
   84HOH     H1  438   0.434   2.070   2.917
   84HOH     H2  439   0.555   2.162   2.921
   85HOH      O  440   0.729   3.583   0.987
   85HOH     H1  441   0.690   3.669   0.995
   85HOH     H2  442   0.680   3.528   1.047
   86HOH      O  443   1.610   0.176   3.432
   86HOH     H1  444   1.526   0.179   3.479
   86HOH     H2  445   1.674   0.201   3.498
   87HOH      O  446   2.231   3.448   1.767
   87HOH     H1  447   2.208   3.363   1.803
   87HOH     H2  448   2.323   3.438   1.739
   88HOH      O  449   0.917   2.441   0.032
   88HOH     H1  450   0.905   2.531   0.060
   88HOH     H2  451   0.860   2.390   0.090
   89HOH      O  452   1.375   3.096   3.484
   89HOH     H1  453   1.318   3.019   3.490
   89HOH     H2  454   1.340   3.157   3.550
   90HOH      O  455   0.075   2.566   2.804
   90HOH     H1  456   0.036   2.484   2.835
   90HOH     H2  457   0.057   2.566   2.710
   91HOH      O  458   3.631   1.883   1.161
   91HOH     H1  459   3.714   1.838   1.175
   91HOH     H2  460   3.600   1.850   1.077
   92HOH      O  461   1.374   2.292   3.165
   92HOH     H1  462   1.461   2.312   3.129
   92HOH     H2  463   1.392   2.246   3.246
   93HOH      O  464   1.173   2.064   3.174
   93HOH     H1  465   1.243   2.121   3.143
   93HOH     H2  466   1.211   2.016   3.248
   94HOH      O  467   0.714   0.403   0.131
   94HOH     H1  468   0.738   0.320   0.173
   94HOH     H2  469   0.619   0.399   0.122
   95HOH      O  470   3.971   1.245   0.368
   95HOH     H1  471   4.003   1.304   0.300
   95HOH     H2  472   4.012   1.276   0.448
   96HOH      O  473   3.953   2.090   3.526
   96HOH     H1  474   4.029   2.033   3.539
   96HOH     H2  475   3.965   2.125   3.437
   97HOH      O  476   0.590   2.145   3.441
   97HOH     H1  477   0.630   2.070   3.485
   97HOH     H2  478   0.599   2.217   3.504
   98HOH      O  479   2.799   3.292   1.810
   98HOH     H1  480   2.725   3.247   1.849
   98HOH     H2  481   2.873   3.271   1.867
   99HOH      O  482   2.329   0.200   1.203
   99HOH     H1  483   2.323   0.157   1.288
   99HOH     H2  484   2.305   0.132   1.140
  100HOH      O  485   2.019   0.554   1.757
  100HOH     H1  486   1.925   0.567   1.744
  100HOH     H2  487   2.059   0.632   1.718
  101HOH      O  488   3.454   1.828   0.497
  101HOH     H1  489   3.486   1.857   0.582
  101HOH     H2  490   3.432   1.736   0.509
  102HOH      O  491   1.666   0.484   3.310
  102HOH     H1  492   1.687   0.518   3.223
  102HOH     H2  493   1.735   0.518   3.366
  103HOH      O  494   2.775   1.108   1.918
  103HOH     H1  495   2.737   1.036   1.970
  103HOH     H2  496   2.852   1.069   1.877
  104HOH      O  497   1.769   3.627   2.009
  104HOH     H1  498   1.700   3.659   1.950
  104HOH     H2  499   1.745   3.537   2.028
  105HOH      O  500   2.501   2.155   3.942
  105HOH     H1  501   2.422   2.192   3.902
  105HOH     H2  502   2.528   2.221   4.006
  106HOH      O  503   0.783   3.519   2.259
  106HOH     H1  504   0.806   3.578   2.330
  106HOH     H2  505   0.867   3.498   2.218
  107HOH      O  506   1.941   2.138   3.480
  107HOH     H1  507   1.945   2.230   3.454
  107HOH     H2  508   1.847   2.118   3.478
  108HOH      O  509   1.832   2.569   0.720
  108HOH     H1  510   1.850   2.489   0.672
  108HOH     H2  511   1.862   2.551   0.809
  109HOH      O  512   2.650   1.805   2.674
  109HOH     H1  513   2.706   1.877   2.646
  109HOH     H2  514   2.656   1.741   2.602
  110HOH      O  515   1.120   3.140   1.365
  110HOH     H1  516   1.028   3.150   1.389
  110HOH     H2  517   1.147   3.059   1.408
  111HOH      O  518   3.906   2.064   3.219
  111HOH     H1  519   3.884   2.084   3.128
  111HOH     H2  520   3.989   2.109   3.234
  112HOH      O  521   0.761   1.084   2.648
  112HOH     H1  522   0.682   1.041   2.681
  112HOH     H2  523   0.764   1.060   2.556
  113HOH      O  524   1.896   1.151   3.040
  113HOH     H1  525   1.800   1.151   3.044
  113HOH     H2  526   1.916   1.160   2.947
  114HOH      O  527   3.691   2.974   2.363
  114HOH     H1  528   3.604   3.006   2.387
  114HOH     H2  529   3.751   3.040   2.398
  115HOH      O  530   1.272   0.091   1.688
  115HOH     H1  531   1.204   0.132   1.741
  115HOH     H2  532   1.300   0.015   1.739
  116HOH      O  533   2.105   1.531   2.499
  116HOH     H1  534   2.139   1.442   2.508
  116HOH     H2  535   2.012   1.519   2.483
  117HOH      O  536   1.572   2.651   1.026
  117HOH     H1  537   1.564   2.717   0.958
  117HOH     H2  538   1.661   2.662   1.059
  118HOH      O  539   0.998   0.912   0.070
  118HOH     H1  540   1.068   0.877   0.125
  118HOH     H2  541   0.924   0.853   0.085
  119HOH      O  542   1.787   2.672   0.423
  119HOH     H1  543   1.874   2.633   0.435
  119HOH     H2  544   1.796   2.728   0.346
  120HOH      O  545   1.754   2.869   2.918
  120HOH     H1  546   1.822   2.919   2.873
  120HOH     H2  547   1.731   2.923   2.994
  121HOH      O  548   0.580   3.980   2.128
  121HOH     H1  549   0.625   4.005   2.209
  121HOH     H2  550   0.620   3.896   2.104
  122HOH      O  551   0.484   1.702   1.302
  122HOH     H1  552   0.566   1.658   1.281
  122HOH     H2  553   0.445   1.649   1.372
  123HOH      O  554   2.566   2.268   0.886
  123HOH     H1  555   2.504   2.196   0.877
  123HOH     H2  556   2.561   2.315   0.803
  124HOH      O  557   2.958   1.633   3.858
  124HOH     H1  558   3.032   1.685   3.889
  124HOH     H2  559   2.881   1.684   3.883
  125HOH      O  560   3.438   0.504   2.033
  125HOH     H1  561   3.364   0.513   1.973
  125HOH     H2  562   3.422   0.569   2.101
  126HOH      O  563   3.321   2.310   3.717
  126HOH     H1  564   3.288   2.235   3.666
  126HOH     H2  565   3.326   2.381   3.654
  127HOH      O  566   2.141   2.375   1.223
  127HOH     H1  567   2.078   2.304   1.233
  127HOH     H2  568   2.167   2.398   1.312
  128HOH      O  569   0.858   1.148   0.057
  128HOH     H1  570   0.850   1.183  -0.032
  128HOH     H2  571   0.892   1.059   0.045
  129HOH      O  572   3.568   3.573   0.724
  129HOH     H1  573   3.633   3.522   0.675
  129HOH     H2  574   3.486   3.557   0.678
  130HOH      O  575   2.195   2.613   2.366
  130HOH     H1  576   2.262   2.680   2.348
  130HOH     H2  577   2.242   2.530   2.356
  131HOH      O  578   2.218   1.021   2.307
  131HOH     H1  579   2.310   0.997   2.319
  131HOH     H2  580   2.217   1.069   2.224
  132HOH      O  581   0.577   3.832   1.579
  132HOH     H1  582   0.514   3.763   1.559
  132HOH     H2  583   0.551   3.864   1.665
  133HOH      O  584   2.595   0.039   3.546
  133HOH     H1  585   2.652  -0.031   3.515
  133HOH     H2  586   2.633   0.064   3.630
  134HOH      O  587   1.555   3.563   2.664
  134HOH     H1  588   1.585   3.532   2.749
  134HOH     H2  589   1.623   3.534   2.603
  135HOH      O  590   3.091   3.923   2.848
  135HOH     H1  591   3.147   3.900   2.774
  135HOH     H2  592   3.040   3.998   2.817
  136HOH      O  593   3.063   3.339   3.471
  136HOH     H1  594   2.994   3.389   3.515
  136HOH     H2  595   3.028   3.251   3.462
  137HOH      O  596   0.224   1.748   3.034
  137HOH     H1  597   0.243   1.732   3.126
  137HOH     H2  598   0.141   1.704   3.018
  138HOH      O  599   0.360   3.110   0.848
  138HOH     H1  600   0.269   3.125   0.825
  138HOH     H2  601   0.358   3.082   0.939
  139HOH      O  602   2.938   0.345   3.761
  139HOH     H1  603   3.026   0.373   3.737
  139HOH     H2  604   2.947   0.252   3.781
  140HOH      O  605   3.581   2.318   1.031
  140HOH     H1  606   3.551   2.279   1.112
  140HOH     H2  607   3.673   2.340   1.047
  141HOH      O  608   3.921   2.074   1.748
  141HOH     H1  609   3.937   2.068   1.842
  141HOH     H2  610   4.005   2.101   1.711
  142HOH      O  611   2.598   3.379   0.594
  142HOH     H1  612   2.586   3.388   0.689
  142HOH     H2  613   2.519   3.416   0.556
  143HOH      O  614   3.666   2.442   0.578
  143HOH     H1  615   3.642   2.359   0.618
  143HOH     H2  616   3.751   2.425   0.537
  144HOH      O  617   1.219   2.116   1.059
  144HOH     H1  618   1.193   2.101   0.968
  144HOH     H2  619   1.181   2.043   1.107
  145HOH      O  620   1.345   3.015   2.654
  145HOH     H1  621   1.370   3.108   2.651
  145HOH     H2  622   1.414   2.973   2.705
  146HOH      O  623   3.765   2.733   3.253
  146HOH     H1  624   3.679   2.695   3.269
  146HOH     H2  625   3.782   2.716   3.160
  147HOH      O  626   0.716   1.671   1.775
  147HOH     H1  627   0.808   1.661   1.799
  147HOH     H2  628   0.672   1.602   1.826
  148HOH      O  629   3.958   3.377   1.805
  148HOH     H1  630   3.959   3.455   1.861
  148HOH     H2  631   3.864   3.360   1.791
  149HOH      O  632   2.429   3.739   2.920
  149HOH     H1  633   2.470   3.780   2.997
  149HOH     H2  634   2.463   3.790   2.846
  150HOH      O  635   3.745   1.176   1.829
  150HOH     H1  636   3.829   1.198   1.788
  150HOH     H2  637   3.736   1.082   1.816
  151HOH      O  638   1.006   3.525   2.133
  151HOH     H1  639   1.043   3.478   2.058
  151HOH     H2  640   0.987   3.613   2.098
  152HOH      O  641   0.165   2.213   1.766
  152HOH     H1  642   0.207   2.137   1.727
  152HOH     H2  643   0.220   2.236   1.840
  153HOH      O  644   0.515   2.285   0.623
  153HOH     H1  645   0.475   2.373   0.620
  153HOH     H2  646   0.544   2.275   0.713
  154HOH      O  647   1.093   3.340   1.648
  154HOH     H1  648   1.025   3.293   1.697
  154HOH     H2  649   1.172   3.288   1.663
  155HOH      O  650   1.715   2.166   1.943
  155HOH     H1  651   1.753   2.082   1.967
  155HOH     H2  652   1.687   2.204   2.027
  156HOH      O  653   0.309   1.733   1.953
  156HOH     H1  654   0.366   1.727   1.877
  156HOH     H2  655   0.221   1.734   1.917
  157HOH      O  656   3.897   2.841   3.620
  157HOH     H1  657   3.954   2.768   3.595
  157HOH     H2  658   3.956   2.916   3.629
  158HOH      O  659   3.835   1.391   2.573
  158HOH     H1  660   3.793   1.411   2.657
  158HOH     H2  661   3.907   1.332   2.596
  159HOH      O  662   0.590   3.049   0.407
  159HOH     H1  663   0.588   2.982   0.476
  159HOH     H2  664   0.504   3.092   0.414
  160HOH      O  665   3.228   1.253   2.377
  160HOH     H1  666   3.162   1.200   2.420
  160HOH     H2  667   3.183   1.291   2.302
  161HOH      O  668   3.545   3.547   0.201
  161HOH     H1  669   3.614   3.613   0.204
  161HOH     H2  670   3.534   3.519   0.292
  162HOH      O  671   2.387   1.202   2.843
  162HOH     H1  672   2.429   1.289   2.843
  162HOH     H2  673   2.304   1.215   2.887
  163HOH      O  674   1.065   0.503   2.053
  163HOH     H1  675   1.023   0.429   2.009
  163HOH     H2  676   1.015   0.514   2.134
  164HOH      O  677   3.550   0.782   0.906
  164HOH     H1  678   3.497   0.816   0.833
  164HOH     H2  679   3.524   0.690   0.914
  165HOH      O  680   3.695   1.954   3.344
  165HOH     H1  681   3.656   1.914   3.267
  165HOH     H2  682   3.767   2.008   3.310
  166HOH      O  683   1.861   0.364   2.853
  166HOH     H1  684   1.953   0.344   2.833
  166HOH     H2  685   1.866   0.440   2.912
  167HOH      O  686   1.755   0.778   3.643
  167HOH     H1  687   1.766   0.723   3.565
  167HOH     H2  688   1.690   0.843   3.617
  168HOH      O  689  -0.036   3.067   2.441
  168HOH     H1  690   0.044   3.017   2.458
  168HOH     H2  691  -0.006   3.156   2.423
  169HOH      O  692   2.687   1.217   0.708
  169HOH     H1  693   2.597   1.231   0.737
  169HOH     H2  694   2.682   1.216   0.613
  170HOH      O  695   3.413   3.364   1.725
  170HOH     H1  696   3.410   3.447   1.772
  170HOH     H2  697   3.330   3.321   1.747
  171HOH      O  698   1.542   1.517   2.461
  171HOH     H1  699   1.542   1.451   2.392
  171HOH     H2  700   1.451   1.521   2.490
  172HOH      O  701   1.720   2.214   0.750
  172HOH     H1  702   1.749   2.124   0.764
  172HOH     H2  703   1.656   2.208   0.680
  173HOH      O  704   1.277   0.206   1.327
  173HOH     H1  705   1.235   0.286   1.297
  173HOH     H2  706   1.249   0.197   1.418
  174HOH      O  707   3.576   3.596   1.654
  174HOH     H1  708   3.666   3.576   1.682
  174HOH     H2  709   3.524   3.582   1.733
  175HOH      O  710   3.435   1.446   3.786
  175HOH     H1  711   3.439   1.463   3.881
  175HOH     H2  712   3.395   1.525   3.749
  176HOH      O  713   3.077   2.051   0.580
  176HOH     H1  714   3.070   2.084   0.490
  176HOH     H2  715   3.004   1.990   0.589
  177HOH      O  716   1.314   3.722   1.604
  177HOH     H1  717   1.262   3.780   1.549
  177HOH     H2  718   1.250   3.681   1.662
  178HOH      O  719   2.020   2.960   0.776
  178HOH     H1  720   1.974   2.978   0.695
  178HOH     H2  721   2.113   2.962   0.752
  179HOH      O  722   3.206   0.100   0.301
  179HOH     H1  723   3.224   0.047   0.378
  179HOH     H2  724   3.199   0.189   0.335
  180HOH      O  725   3.242   2.261   2.567
  180HOH     H1  726   3.206   2.284   2.482
  180HOH     H2  727   3.265   2.346   2.607
  181HOH      O  728   2.577   2.753   1.158
  181HOH     H1  729   2.631   2.679   1.132
  181HOH     H2  730   2.533   2.724   1.238
  182HOH      O  731   0.869   0.234   0.512
  182HOH     H1  732   0.916   0.204   0.589
  182HOH     H2  733   0.791   0.278   0.546
  183HOH      O  734   1.361   3.400   3.468
  183HOH     H1  735   1.387   3.491   3.453
  183HOH     H2  736   1.325   3.372   3.384
  184HOH      O  737   3.732   3.317   2.161
  184HOH     H1  738   3.726   3.408   2.190
  184HOH     H2  739   3.826   3.304   2.145
  185HOH      O  740   2.038   2.245   1.693
  185HOH     H1  741   2.072   2.218   1.607
  185HOH     H2  742   1.988   2.324   1.675
  186HOH      O  743   0.640   2.243   0.874
  186HOH     H1  744   0.646   2.170   0.936
  186HOH     H2  745   0.618   2.319   0.928
  187HOH      O  746   1.325   2.349   2.289
  187HOH     H1  747   1.240   2.314   2.263
  187HOH     H2  748   1.309   2.390   2.374
  188HOH      O  749   1.284   0.042   2.451
  188HOH     H1  750   1.193   0.025   2.429
  188HOH     H2  751   1.280   0.108   2.520
  189HOH      O  752   0.657   3.286   3.402
  189HOH     H1  753   0.715   3.237   3.460
  189HOH     H2  754   0.697   3.280   3.316
  190HOH      O  755   0.343   2.743   1.128
  190HOH     H1  756   0.315   2.802   1.198
  190HOH     H2  757   0.367   2.801   1.056
  191HOH      O  758   2.092   2.659   3.741
  191HOH     H1  759   2.030   2.703   3.800
  191HOH     H2  760   2.041   2.643   3.662
  192HOH      O  761   2.990   3.083   0.622
  192HOH     H1  762   3.022   2.995   0.601
  192HOH     H2  763   3.068   3.138   0.623
  193HOH      O  764   2.269   2.164   2.702
  193HOH     H1  765   2.336   2.095   2.705
  193HOH     H2  766   2.196   2.125   2.654
  194HOH      O  767   0.499   2.874   3.459
  194HOH     H1  768   0.481   2.960   3.499
  194HOH     H2  769   0.451   2.812   3.513
  195HOH      O  770   3.368   2.941   0.297
  195HOH     H1  771   3.420   2.882   0.351
  195HOH     H2  772   3.430   2.977   0.234
  196HOH      O  773   2.295   1.331   2.462
  196HOH     H1  774   2.364   1.278   2.502
  196HOH     H2  775   2.339   1.379   2.392
  197HOH      O  776   2.009   0.440   0.948
  197HOH     H1  777   1.992   0.488   0.867
  197HOH     H2  778   2.104   0.445   0.959
  198HOH      O  779   2.914   2.570   3.006
  198HOH     H1  780   2.940   2.541   2.919
  198HOH     H2  781   2.935   2.496   3.063
  199HOH      O  782   0.563   1.536   2.005
  199HOH     H1  783   0.510   1.487   2.068
  199HOH     H2  784   0.584   1.472   1.937
  200HOH      O  785   0.030   1.529   2.834
  200HOH     H1  786  -0.002   1.594   2.896
  200HOH     H2  787   0.093   1.477   2.884
  201HOH      O  788   3.424   1.715   2.786
  201HOH     H1  789   3.373   1.644   2.748
  201HOH     H2  790   3.391   1.723   2.876
  202HOH      O  791   2.844   3.909   1.381
  202HOH     H1  792   2.927   3.950   1.403
  202HOH     H2  793   2.856   3.816   1.403
  203HOH      O  794   0.122   1.344   0.537
  203HOH     H1  795   0.192   1.407   0.521
  203HOH     H2  796   0.106   1.350   0.631
  204HOH      O  797  -0.012   3.630   0.285
  204HOH     H1  798   0.035   3.710   0.308
  204HOH     H2  799   0.045   3.585   0.224
  205HOH      O  800   3.593   1.737   0.253
  205HOH     H1  801   3.548   1.759   0.335
  205HOH     H2  802   3.562   1.803   0.191
  206HOH      O  803   1.490   0.345   0.303
  206HOH     H1  804   1.549   0.315   0.372
  206HOH     H2  805   1.470   0.266   0.253
  207HOH      O  806   3.879   3.612   1.446
  207HOH     H1  807   3.790   3.611   1.410
  207HOH     H2  808   3.869   3.645   1.535
  208HOH      O  809   3.640   2.937   0.164
  208HOH     H1  810   3.645   3.027   0.195
  208HOH     H2  811   3.710   2.929   0.099
  209HOH      O  812   1.406   2.721   2.357
  209HOH     H1  813   1.454   2.657   2.304
  209HOH     H2  814   1.449   2.717   2.443
  210HOH      O  815   3.785   3.138   1.581
  210HOH     H1  816   3.728   3.062   1.568
  210HOH     H2  817   3.868   3.113   1.540
  211HOH      O  818   2.642   1.656   4.023
  211HOH     H1  819   2.607   1.688   3.940
  211HOH     H2  820   2.602   1.712   4.089
  212HOH      O  821   1.222   1.621   1.867
  212HOH     H1  822   1.260   1.550   1.920
  212HOH     H2  823   1.209   1.693   1.930
  213HOH      O  824   0.291   1.469   2.660
  213HOH     H1  825   0.306   1.504   2.748
  213HOH     H2  826   0.375   1.480   2.616
  214HOH      O  827   2.082   3.909   3.950
  214HOH     H1  828   2.036   3.855   4.014
  214HOH     H2  829   2.046   3.997   3.962
  215HOH      O  830   2.359   2.449   2.000
  215HOH     H1  831   2.441   2.488   2.031
  215HOH     H2  832   2.290   2.507   2.035
  216HOH      O  833   1.093   1.709   4.011
  216HOH     H1  834   1.011   1.754   3.992
  216HOH     H2  835   1.071   1.616   4.006
  217HOH      O  836   1.860   0.012   1.085
  217HOH     H1  837   1.892   0.084   1.138
  217HOH     H2  838   1.938  -0.021   1.040
  218HOH      O  839   3.548   1.347   1.831
  218HOH     H1  840   3.619   1.283   1.819
  218HOH     H2  841   3.511   1.326   1.917
  219HOH      O  842   3.673   2.180   1.740
  219HOH     H1  843   3.744   2.121   1.764
  219HOH     H2  844   3.602   2.122   1.712
  220HOH      O  845   2.789   3.846   3.569
  220HOH     H1  846   2.762   3.796   3.646
  220HOH     H2  847   2.883   3.856   3.578
  221HOH      O  848   0.672   3.723   2.127
  221HOH     H1  849   0.700   3.656   2.189
  221HOH     H2  850   0.609   3.679   2.070
  222HOH      O  851   0.273   1.044   2.380
  222HOH     H1  852   0.248   1.110   2.445
  222HOH     H2  853   0.360   1.015   2.409
  223HOH      O  854   2.107   3.113   3.441
  223HOH     H1  855   2.150   3.133   3.525
  223HOH     H2  856   2.162   3.045   3.402
  224HOH      O  857   1.060   3.253   2.389
  224HOH     H1  858   1.041   3.174   2.439
  224HOH     H2  859   1.053   3.324   2.453
  225HOH      O  860   2.594   0.718   1.495
  225HOH     H1  861   2.529   0.651   1.515
  225HOH     H2  862   2.560   0.798   1.536
  226HOH      O  863   0.830   2.727   2.752
  226HOH     H1  864   0.795   2.696   2.669
  226HOH     H2  865   0.915   2.685   2.760
  227HOH      O  866   2.674   3.666   0.037
  227HOH     H1  867   2.636   3.585   0.003
  227HOH     H2  868   2.759   3.638   0.074
  228HOH      O  869   3.970   0.617   3.701
  228HOH     H1  870   3.913   0.600   3.627
  228HOH     H2  871   3.957   0.710   3.720
  229HOH      O  872   0.095   1.076   0.151
  229HOH     H1  873   0.092   1.157   0.201
  229HOH     H2  874   0.006   1.066   0.117
  230HOH      O  875   1.486   0.499   2.589
  230HOH     H1  876   1.438   0.460   2.662
  230HOH     H2  877   1.564   0.537   2.629
  231HOH      O  878   2.522   3.949   1.947
  231HOH     H1  879   2.537   4.019   2.010
  231HOH     H2  880   2.550   3.869   1.992
  232HOH      O  881   0.614   3.398   1.157
  232HOH     H1  882   0.675   3.359   1.095
  232HOH     H2  883   0.602   3.332   1.225
  233HOH      O  884   4.017   0.327   3.761
  233HOH     H1  885   3.951   0.273   3.718
  233HOH     H2  886   3.982   0.416   3.757
  234HOH      O  887   3.559   1.532   3.045
  234HOH     H1  888   3.505   1.455   3.064
  234HOH     H2  889   3.647   1.496   3.031
  235HOH      O  890   0.788   0.980   3.807
  235HOH     H1  891   0.715   1.025   3.764
  235HOH     H2  892   0.753   0.950   3.890
  236HOH      O  893   1.516   0.289   0.828
  236HOH     H1  894   1.477   0.256   0.909
  236HOH     H2  895   1.502   0.383   0.831
  237HOH      O  896   1.048   0.113   3.802
  237HOH     H1  897   1.045   0.018   3.802
  237HOH     H2  898   1.024   0.138   3.891
  238HOH      O  899   2.554   1.218   3.479
  238HOH     H1  900   2.540   1.229   3.573
  238HOH     H2  901   2.594   1.301   3.451
  239HOH      O  902   2.833   2.334   1.340
  239HOH     H1  903   2.743   2.307   1.323
  239HOH     H2  904   2.881   2.308   1.262
  240HOH      O  905   1.492   0.360   2.994
  240HOH     H1  906   1.418   0.340   2.936
  240HOH     H2  907   1.558   0.294   2.972
  241HOH      O  908   1.098   2.808   0.285
  241HOH     H1  909   1.058   2.827   0.370
  241HOH     H2  910   1.153   2.884   0.268
  242HOH      O  911   1.602   2.949   0.563
  242HOH     H1  912   1.656   3.010   0.512
  242HOH     H2  913   1.518   2.993   0.571
  243HOH      O  914   1.035   3.153   2.086
  243HOH     H1  915   1.011   3.189   2.171
  243HOH     H2  916   1.123   3.185   2.070
  244HOH      O  917   2.916   1.637   2.434
  244HOH     H1  918   2.926   1.594   2.350
  244HOH     H2  919   2.842   1.698   2.421
  245HOH      O  920   1.005   0.726   1.863
  245HOH     H1  921   0.948   0.786   1.911
  245HOH     H2  922   1.016   0.651   1.922
  246HOH      O  923   3.341   0.880   0.234
  246HOH     H1  924   3.308   0.915   0.151
  246HOH     H2  925   3.264   0.840   0.274
  247HOH      O  926   1.563   2.121   2.494
  247HOH     H1  927   1.516   2.191   2.539
  247HOH     H2  928   1.505   2.045   2.499
  248HOH      O  929   2.462   1.002   2.666
  248HOH     H1  930   2.515   1.053   2.605
  248HOH     H2  931   2.435   1.064   2.733
  249HOH      O  932   1.086   2.966   3.951
  249HOH     H1  933   1.022   2.934   3.888
  249HOH     H2  934   1.039   3.032   4.002
  250HOH      O  935   3.110   2.755   1.643
  250HOH     H1  936   3.159   2.710   1.712
  250HOH     H2  937   3.172   2.818   1.607
  251HOH      O  938   2.980   0.826   3.827
  251HOH     H1  939   3.035   0.884   3.774
  251HOH     H2  940   3.036   0.752   3.848
  252HOH      O  941   1.100   3.173   0.532
  252HOH     H1  942   1.091   3.263   0.563
  252HOH     H2  943   1.022   3.128   0.565
  253HOH      O  944   0.994   2.713   1.347
  253HOH     H1  945   0.928   2.721   1.279
  253HOH     H2  946   1.076   2.741   1.306
  254HOH      O  947   2.152   2.408   0.017
  254HOH     H1  948   2.210   2.437  -0.054
  254HOH     H2  949   2.207   2.413   0.096
  255HOH      O  950   1.938   2.408   2.304
  255HOH     H1  951   1.983   2.353   2.240
  255HOH     H2  952   1.850   2.417   2.269
  256HOH      O  953   2.601   3.780   3.404
  256HOH     H1  954   2.661   3.802   3.475
  256HOH     H2  955   2.591   3.685   3.410
  257HOH      O  956   3.187   0.521   1.722
  257HOH     H1  957   3.184   0.445   1.665
  257HOH     H2  958   3.096   0.551   1.728
  258HOH      O  959   2.866   2.099   3.447
  258HOH     H1  960   2.864   2.114   3.542
  258HOH     H2  961   2.807   2.166   3.412
  259HOH      O  962   0.369   4.018   0.025
  259HOH     H1  963   0.327   4.059  -0.050
  259HOH     H2  964   0.316   3.940   0.043
  260HOH      O  965   2.498   3.705   1.415
  260HOH     H1  966   2.491   3.801   1.413
  260HOH     H2  967   2.493   3.679   1.323
  261HOH      O  968   3.329   3.591   3.079
  261HOH     H1  969   3.351   3.499   3.094
  261HOH     H2  970   3.269   3.590   3.004
  262HOH      O  971   0.277   0.912   0.258
  262HOH     H1  972   0.248   0.828   0.221
  262HOH     H2  973   0.215   0.976   0.223
  263HOH      O  974   3.891   3.384   0.330
  263HOH     H1  975   3.915   3.365   0.421
  263HOH     H2  976   3.921   3.474   0.316
  264HOH      O  977   0.678   3.061   0.148
  264HOH     H1  978   0.655   3.068   0.241
  264HOH     H2  979   0.762   3.106   0.141
  265HOH      O  980   2.716   0.454   3.653
  265HOH     H1  981   2.788   0.398   3.682
  265HOH     H2  982   2.640   0.421   3.700
  266HOH      O  983   1.552   1.185   3.245
  266HOH     H1  984   1.538   1.249   3.175
  266HOH     H2  985   1.465   1.154   3.267
  267HOH      O  986   1.331   2.359   1.997
  267HOH     H1  987   1.262   2.297   1.973
  267HOH     H2  988   1.304   2.392   2.083
  268HOH      O  989   3.563   2.911   3.874
  268HOH     H1  990   3.578   2.999   3.907
  268HOH     H2  991   3.558   2.920   3.779
  269HOH      O  992   2.261   1.016   0.940
  269HOH     H1  993   2.195   1.081   0.916
  269HOH     H2  994   2.212   0.950   0.990
  270HOH      O  995   4.029   1.358   0.137
  270HOH     H1  996   3.944   1.381   0.101
  270HOH     H2  997   4.092   1.387   0.071
  271HOH      O  998   3.978   0.819   1.666
  271HOH     H1  999   3.980   0.914   1.673
  271HOH     H2 1000   4.067   0.795   1.643
  272HOH      O 1001   0.427   3.878   1.804
  272HOH     H1 1002   0.341   3.904   1.835
  272HOH     H2 1003   0.464   3.826   1.876
  273HOH      O 1004   2.040   3.259   3.188
  273HOH     H1 1005   2.073   3.247   3.277
  273HOH     H2 1006   2.118   3.253   3.133
  274HOH      O 1007   3.589   3.759   0.437
  274HOH     H1 1008   3.592   3.852   0.463
  274HOH     H2 1009   3.679   3.729   0.448
  275HOH      O 1010   1.956   2.409   2.863
  275HOH     H1 1011   1.975   2.410   2.770
  275HOH     H2 1012   1.873   2.456   2.872
  276HOH      O 1013   3.550   1.318   2.677
  276HOH     H1 1014   3.533   1.377   2.604
  276HOH     H2 1015   3.611   1.252   2.642
  277HOH      O 1016   1.089   3.384   3.979
  277HOH     H1 1017   1.178   3.351   3.972
  277HOH     H2 1018   1.086   3.429   4.064
  278HOH      O 1019   2.851   1.049   2.735
  278HOH     H1 1020   2.817   0.961   2.717
  278HOH     H2 1021   2.907   1.038   2.811
  279HOH      O 1022   2.510   3.923   0.247
  279HOH     H1 1023   2.604   3.940   0.234
  279HOH     H2 1024   2.508   3.856   0.315
  280HOH      O 1025   1.335   0.758   3.487
  280HOH     H1 1026   1.286   0.747   3.568
  280HOH     H2 1027   1.388   0.678   3.479
  281HOH      O 1028   1.224   0.986   1.360
  281HOH     H1 1029   1.281   1.047   1.313
  281HOH     H2 1030   1.213   1.026   1.446
  282HOH      O 1031   1.877   0.080   2.631
  282HOH     H1 1032   1.878   0.154   2.571
  282HOH     H2 1033   1.952   0.096   2.689
  283HOH      O 1034   0.843   2.324   2.883
  283HOH     H1 1035   0.794   2.242   2.889
  283HOH     H2 1036   0.869   2.342   2.973
  284HOH      O 1037   1.233   1.094   0.562
  284HOH     H1 1038   1.305   1.107   0.500
  284HOH     H2 1039   1.176   1.029   0.519
  285HOH      O 1040   1.976   1.199   3.720
  285HOH     H1 1041   1.894   1.157   3.745
  285HOH     H2 1042   2.041   1.129   3.724
  286HOH      O 1043   2.976   2.663   0.449
  286HOH     H1 1044   3.003   2.697   0.534
  286HOH     H2 1045   2.982   2.739   0.390
  287HOH      O 1046   2.127   2.584   2.100
  287HOH     H1 1047   2.041   2.547   2.079
  287HOH     H2 1048   2.113   2.635   2.179
  288HOH      O 1049   2.250   0.833   2.746
  288HOH     H1 1050   2.215   0.799   2.663
  288HOH     H2 1051   2.304   0.908   2.720
  289HOH      O 1052   0.012   0.631   0.840
  289HOH     H1 1053   0.073   0.561   0.817
  289HOH     H2 1054  -0.074   0.589   0.840
  290HOH      O 1055   2.691   2.178   2.792
  290HOH     H1 1056   2.672   2.128   2.713
  290HOH     H2 1057   2.713   2.265   2.761
  291HOH      O 1058   3.866   0.978   1.362
  291HOH     H1 1059   3.893   0.886   1.351
  291HOH     H2 1060   3.894   1.001   1.450
  292HOH      O 1061   0.043   2.538   1.850
  292HOH     H1 1062   0.124   2.491   1.870
  292HOH     H2 1063   0.016   2.503   1.765
  293HOH      O 1064   1.412   2.051   1.400
  293HOH     H1 1065   1.318   2.057   1.381
  293HOH     H2 1066   1.419   2.082   1.491
  294HOH      O 1067   0.549   3.183   1.303
  294HOH     H1 1068   0.521   3.214   1.389
  294HOH     H2 1069   0.613   3.114   1.323
  295HOH      O 1070   1.262   2.664   2.052
  295HOH     H1 1071   1.258   2.738   1.991
  295HOH     H2 1072   1.202   2.688   2.122
  296HOH      O 1073   3.645   1.611   3.730
  296HOH     H1 1074   3.575   1.546   3.742
  296HOH     H2 1075   3.650   1.623   3.635
  297HOH      O 1076   2.018   1.467   2.892
  297HOH     H1 1077   1.949   1.449   2.956
  297HOH     H2 1078   2.016   1.393   2.832
  298HOH      O 1079   3.263   1.535   0.208
  298HOH     H1 1080   3.321   1.460   0.192
  298HOH     H2 1081   3.204   1.506   0.277
  299HOH      O 1082   1.270   0.729   0.742
  299HOH     H1 1083   1.175   0.726   0.752
  299HOH     H2 1084   1.294   0.817   0.773
  300HOH      O 1085   1.010   0.067   0.659
  300HOH     H1 1086   1.009  -0.018   0.614
  300HOH     H2 1087   1.103   0.086   0.671
  301HOH      O 1088   1.838   3.817   2.201
  301HOH     H1 1089   1.841   3.763   2.280
  301HOH     H2 1090   1.812   3.756   2.132
  302HOH      O 1091   0.617   0.235   3.892
  302HOH     H1 1092   0.538   0.269   3.934
  302HOH     H2 1093   0.639   0.157   3.943
  303HOH      O 1094   3.627   3.166   0.294
  303HOH     H1 1095   3.581   3.171   0.378
  303HOH     H2 1096   3.682   3.245   0.292
  304HOH      O 1097   0.908   1.541   0.957
  304HOH     H1 1098   0.989   1.592   0.956
  304HOH     H2 1099   0.839   1.606   0.942
  305HOH      O 1100   3.405   2.335   3.427
  305HOH     H1 1101   3.486   2.346   3.477
  305HOH     H2 1102   3.365   2.255   3.462
  306HOH      O 1103   2.278   1.856   3.936
  306HOH     H1 1104   2.228   1.904   3.870
  306HOH     H2 1105   2.320   1.786   3.887
  307HOH      O 1106   2.603   3.515   3.418
  307HOH     H1 1107   2.676   3.511   3.479
  307HOH     H2 1108   2.641   3.492   3.333
  308HOH      O 1109   1.123   3.819   2.757
  308HOH     H1 1110   1.048   3.813   2.697
  308HOH     H2 1111   1.190   3.764   2.718
  309HOH      O 1112   1.924   1.228   2.749
  309HOH     H1 1113   1.958   1.157   2.694
  309HOH     H2 1114   1.830   1.229   2.732
  310HOH      O 1115   0.546   2.448   0.197
  310HOH     H1 1116   0.454   2.472   0.187
  310HOH     H2 1117   0.565   2.392   0.122
  311HOH      O 1118   0.526   1.776   0.551
  311HOH     H1 1119   0.548   1.820   0.469
  311HOH     H2 1120   0.509   1.847   0.613
  312HOH      O 1121   0.711   3.220   2.476
  312HOH     H1 1122   0.700   3.274   2.398
  312HOH     H2 1123   0.731   3.132   2.442
  313HOH      O 1124   0.881   1.326   1.952
  313HOH     H1 1125   0.815   1.259   1.933
  313HOH     H2 1126   0.929   1.291   2.027
  314HOH      O 1127   3.297   2.831   3.952
  314HOH     H1 1128   3.294   2.737   3.971
  314HOH     H2 1129   3.389   2.847   3.928
  315HOH      O 1130   2.954   0.134   2.751
  315HOH     H1 1131   3.010   0.189   2.696
  315HOH     H2 1132   2.884   0.192   2.779
  316HOH      O 1133   3.482   0.963   2.166
  316HOH     H1 1134   3.473   0.874   2.202
  316HOH     H2 1135   3.474   1.021   2.242
  317HOH      O 1136   3.728   3.409   3.319
  317HOH     H1 1137   3.718   3.480   3.255
  317HOH     H2 1138   3.658   3.425   3.382
  318HOH      O 1139   2.331   0.862   1.956
  318HOH     H1 1140   2.289   0.946   1.975
  318HOH     H2 1141   2.273   0.796   1.995
  319HOH      O 1142   2.681   0.937   0.504
  319HOH     H1 1143   2.741   0.996   0.457
  319HOH     H2 1144   2.738   0.888   0.564
  320HOH      O 1145   3.167   2.772   3.710
  320HOH     H1 1146   3.157   2.842   3.645
  320HOH     H2 1147   3.211   2.815   3.784
  321HOH      O 1148   2.384   0.446   3.259
  321HOH     H1 1149   2.451   0.487   3.204
  321HOH     H2 1150   2.425   0.365   3.290
  322HOH      O 1151   0.948   1.267   2.900
  322HOH     H1 1152   0.930   1.360   2.887
  322HOH     H2 1153   0.864   1.224   2.888
  323HOH      O 1154   0.629   1.358   2.769
  323HOH     H1 1155   0.696   1.334   2.706
  323HOH     H2 1156   0.559   1.295   2.754
  324HOH      O 1157   0.036   2.703   0.891
  324HOH     H1 1158   0.061   2.649   0.966
  324HOH     H2 1159  -0.021   2.646   0.839
  325HOH      O 1160   2.731   2.949   1.253
  325HOH     H1 1161   2.678   2.873   1.228
  325HOH     H2 1162   2.821   2.921   1.235
  326HOH      O 1163   1.692   0.543   3.932
  326HOH     H1 1164   1.660   0.505   3.851
  326HOH     H2 1165   1.617   0.540   3.992
  327HOH      O 1166   3.855   0.787   3.462
  327HOH     H1 1167   3.888   0.855   3.521
  327HOH     H2 1168   3.913   0.791   3.386
  328HOH      O 1169   3.109   1.250   0.803
  328HOH     H1 1170   3.069   1.224   0.886
  328HOH     H2 1171   3.076   1.185   0.740
  329HOH      O 1172   2.073   1.154   0.123
  329HOH     H1 1173   2.028   1.211   0.061
  329HOH     H2 1174   2.059   1.066   0.088
  330HOH      O 1175   1.738   0.106   3.888
  330HOH     H1 1176   1.723   0.011   3.888
  330HOH     H2 1177   1.664   0.141   3.839
  331HOH      O 1178   1.623   2.021   0.497
  331HOH     H1 1179   1.576   1.952   0.450
  331HOH     H2 1180   1.561   2.094   0.500
  332HOH      O 1181   0.901   1.896   2.225
  332HOH     H1 1182   0.830   1.837   2.201
  332HOH     H2 1183   0.887   1.913   2.318
  333HOH      O 1184   1.147   2.127   3.868
  333HOH     H1 1185   1.171   2.066   3.937
  333HOH     H2 1186   1.169   2.213   3.903
  334HOH      O 1187   0.104   0.626   0.124
  334HOH     H1 1188   0.184   0.635   0.072
  334HOH     H2 1189   0.089   0.532   0.127
  335HOH      O 1190   0.128   3.824   0.467
  335HOH     H1 1191   0.197   3.758   0.460
  335HOH     H2 1192   0.151   3.891   0.403
  336HOH      O 1193   0.275   1.087   3.372
  336HOH     H1 1194   0.346   1.057   3.316
  336HOH     H2 1195   0.307   1.073   3.461
  337HOH      O 1196   2.463   2.270   2.956
  337HOH     H1 1197   2.381   2.221   2.950
  337HOH     H2 1198   2.516   2.236   2.884
  338HOH      O 1199   3.953   1.549   0.371
  338HOH     H1 1200   4.011   1.525   0.443
  338HOH     H2 1201   4.000   1.620   0.326
  339HOH      O 1202   0.459   1.840   2.192
  339HOH     H1 1203   0.551   1.813   2.182
  339HOH     H2 1204   0.410   1.777   2.140
  340HOH      O 1205   2.361   1.149   2.095
  340HOH     H1 1206   2.414   1.174   2.019
  340HOH     H2 1207   2.423   1.109   2.156
  341HOH      O 1208   1.832   3.996   0.176
  341HOH     H1 1209   1.817   4.075   0.124
  341HOH     H2 1210   1.778   3.929   0.134
  342HOH      O 1211   1.540   3.637   1.782
  342HOH     H1 1212   1.491   3.565   1.821
  342HOH     H2 1213   1.488   3.664   1.706
  343HOH      O 1214   1.376   3.913   1.830
  343HOH     H1 1215   1.391   3.867   1.913
  343HOH     H2 1216   1.443   3.879   1.771
  344HOH      O 1217   2.231   3.113   3.681
  344HOH     H1 1218   2.308   3.170   3.681
  344HOH     H2 1219   2.267   3.025   3.673
  345HOH      O 1220   0.749   2.536   1.578
  345HOH     H1 1221   0.738   2.631   1.586
  345HOH     H2 1222   0.670   2.499   1.617
  346HOH      O 1223   2.767   3.016   3.129
  346HOH     H1 1224   2.788   2.954   3.199
  346HOH     H2 1225   2.848   3.023   3.079
  347HOH      O 1226   0.444   3.673   1.972
  347HOH     H1 1227   0.422   3.623   1.893
  347HOH     H2 1228   0.381   3.642   2.038
  348HOH      O 1229   3.972   0.793   0.295
  348HOH     H1 1230   4.045   0.733   0.274
  348HOH     H2 1231   4.010   0.856   0.357
  349HOH      O 1232   1.500   1.869   0.326
  349HOH     H1 1233   1.510   1.950   0.275
  349HOH     H2 1234   1.430   1.821   0.282
  350HOH      O 1235   2.272   2.457   0.278
  350HOH     H1 1236   2.327   2.422   0.348
  350HOH     H2 1237   2.330   2.515   0.228
  351HOH      O 1238   3.871   0.826   0.988
  351HOH     H1 1239   3.864   0.768   1.064
  351HOH     H2 1240   3.949   0.795   0.941
  352HOH      O 1241   0.178   3.278   3.357
  352HOH     H1 1242   0.087   3.264   3.330
  352HOH     H2 1243   0.225   3.294   3.275
  353HOH      O 1244   1.680   0.588   0.945
  353HOH     H1 1245   1.684   0.522   1.014
  353HOH     H2 1246   1.591   0.582   0.911
  354HOH      O 1247   0.812   2.519   3.343
  354HOH     H1 1248   0.894   2.492   3.385
  354HOH     H2 1249   0.746   2.509   3.411
  355HOH      O 1250   2.301   0.491   0.044
  355HOH     H1 1251   2.260   0.510  -0.040
  355HOH     H2 1252   2.395   0.489   0.025
  356HOH      O 1253   3.891   2.656   2.055
  356HOH     H1 1254   3.878   2.722   1.985
  356HOH     H2 1255   3.888   2.572   2.009
  357HOH      O 1256   3.638   1.932   0.680
  357HOH     H1 1257   3.685   2.012   0.656
  357HOH     H2 1258   3.681   1.862   0.632
  358HOH      O 1259   1.473   0.501   3.485
  358HOH     H1 1260   1.406   0.462   3.429
  358HOH     H2 1261   1.554   0.494   3.434
  359HOH      O 1262   2.515   2.358   0.090
  359HOH     H1 1263   2.498   2.451   0.102
  359HOH     H2 1264   2.610   2.350   0.091
  360HOH      O 1265   1.831   3.078   1.216
  360HOH     H1 1266   1.871   3.010   1.162
  360HOH     H2 1267   1.882   3.156   1.198
  361HOH      O 1268   1.543   2.636   1.522
  361HOH     H1 1269   1.532   2.666   1.432
  361HOH     H2 1270   1.572   2.714   1.569
  362HOH      O 1271   3.114   2.003   1.535
  362HOH     H1 1272   3.028   2.041   1.515
  362HOH     H2 1273   3.095   1.934   1.600
  363HOH      O 1274   0.880   0.221   3.629
  363HOH     H1 1275   0.852   0.303   3.669
  363HOH     H2 1276   0.958   0.195   3.678
  364HOH      O 1277   1.922   1.990   3.170
  364HOH     H1 1278   1.953   1.906   3.134
  364HOH     H2 1279   1.879   1.966   3.252
  365HOH      O 1280   3.252   1.083   1.519
  365HOH     H1 1281   3.239   0.989   1.506
  365HOH     H2 1282   3.189   1.124   1.459
  366HOH      O 1283   2.703   1.681   2.176
  366HOH     H1 1284   2.768   1.611   2.170
  366HOH     H2 1285   2.728   1.744   2.109
  367HOH      O 1286   2.074   1.973   0.574
  367HOH     H1 1287   2.125   1.911   0.520
  367HOH     H2 1288   2.015   2.015   0.512
  368HOH      O 1289   2.666   0.143   0.085
  368HOH     H1 1290   2.649   0.159   0.178
  368HOH     H2 1291   2.699   0.227   0.053
  369HOH      O 1292   1.826   2.826   2.195
  369HOH     H1 1293   1.803   2.800   2.284
  369HOH     H2 1294   1.780   2.764   2.138
  370HOH      O 1295   3.860   1.714   1.145
  370HOH     H1 1296   3.929   1.696   1.208
  370HOH     H2 1297   3.811   1.632   1.138
  371HOH      O 1298   2.030   2.133   1.415
  371HOH     H1 1299   2.000   2.147   1.325
  371HOH     H2 1300   2.106   2.076   1.406
  372HOH      O 1301   2.909   0.936   1.597
  372HOH     H1 1302   2.984   0.876   1.591
  372HOH     H2 1303   2.844   0.887   1.647
  373HOH      O 1304   3.499   2.617   2.516
  373HOH     H1 1305   3.575   2.674   2.505
  373HOH     H2 1306   3.531   2.530   2.490
  374HOH      O 1307   0.057   2.520   2.535
  374HOH     H1 1308   0.123   2.466   2.491
  374HOH     H2 1309   0.002   2.553   2.464
  375HOH      O 1310   0.639   2.569   0.411
  375HOH     H1 1311   0.702   2.507   0.448
  375HOH     H2 1312   0.609   2.527   0.330
  376HOH      O 1313   2.729   0.348   2.286
  376HOH     H1 1314   2.791   0.378   2.219
  376HOH     H2 1315   2.656   0.410   2.281
  377HOH      O 1316   0.647   0.307   0.912
  377HOH     H1 1317   0.696   0.309   0.995
  377HOH     H2 1318   0.711   0.333   0.846
  378HOH      O 1319   1.008   0.794   0.896
  378HOH     H1 1320   1.021   0.875   0.846
  378HOH     H2 1321   1.053   0.810   0.979
  379HOH      O 1322   3.588   2.403   2.396
  379HOH     H1 1323   3.649   2.402   2.322
  379HOH     H2 1324   3.578   2.311   2.420
  380HOH      O 1325   1.363   1.764   0.686
  380HOH     H1 1326   1.365   1.695   0.620
  380HOH     H2 1327   1.299   1.827   0.653
  381HOH      O 1328   2.887   2.583   1.273
  381HOH     H1 1329   2.866   2.635   1.350
  381HOH     H2 1330   2.857   2.495   1.294
  382HOH      O 1331   2.501   3.869   3.980
  382HOH     H1 1332   2.469   3.892   4.068
  382HOH     H2 1333   2.558   3.793   3.995
  383HOH      O 1334   3.489   1.961   1.772
  383HOH     H1 1335   3.469   1.955   1.865
  383HOH     H2 1336   3.433   1.894   1.731
  384HOH      O 1337   0.947   3.075   3.170
  384HOH     H1 1338   0.883   3.134   3.131
  384HOH     H2 1339   0.952   3.001   3.109
  385HOH      O 1340   3.028   1.115   3.288
  385HOH     H1 1341   2.946   1.089   3.329
  385HOH     H2 1342   3.079   1.157   3.358
  386HOH      O 1343   3.839   0.234   1.968
  386HOH     H1 1344   3.874   0.289   2.038
  386HOH     H2 1345   3.859   0.281   1.888
  387HOH      O 1346   1.284   1.463   3.552
  387HOH     H1 1347   1.226   1.458   3.476
  387HOH     H2 1348   1.269   1.381   3.598
  388HOH      O 1349   0.784   3.295   3.100
  388HOH     H1 1350   0.839   3.373   3.107
  388HOH     H2 1351   0.775   3.281   3.006
  389HOH      O 1352   2.201   1.455   0.319
  389HOH     H1 1353   2.128   1.451   0.256
  389HOH     H2 1354   2.209   1.365   0.352
  390HOH      O 1355   0.435   0.202   1.176
  390HOH     H1 1356   0.349   0.164   1.189
  390HOH     H2 1357   0.439   0.222   1.083
  391HOH      O 1358   3.743   1.809   2.608
  391HOH     H1 1359   3.832   1.843   2.613
  391HOH     H2 1360   3.741   1.740   2.675
  392HOH      O 1361   0.784   0.430   3.763
  392HOH     H1 1362   0.712   0.372   3.787
  392HOH     H2 1363   0.741   0.513   3.742
  393HOH      O 1364   2.990   3.421   2.723
  393HOH     H1 1365   2.977   3.488   2.656
  393HOH     H2 1366   2.906   3.416   2.769
  394HOH      O 1367   3.405   0.537   3.575
  394HOH     H1 1368   3.369   0.542   3.487
  394HOH     H2 1369   3.483   0.592   3.572
  395HOH      O 1370   3.912   0.308   0.659
  395HOH     H1 1371   3.878   0.369   0.593
  395HOH     H2 1372   3.848   0.312   0.731
  396HOH      O 1373   2.325   3.673   2.471
  396HOH     H1 1374   2.248   3.656   2.417
  396HOH     H2 1375   2.296   3.740   2.533
  397HOH      O 1376   1.169   1.501   0.574
  397HOH     H1 1377   1.121   1.469   0.651
  397HOH     H2 1378   1.261   1.490   0.598
  398HOH      O 1379   2.212   2.527   1.453
  398HOH     H1 1380   2.249   2.521   1.541
  398HOH     H2 1381   2.135   2.583   1.464
  399HOH      O 1382   0.980   0.830   3.074
  399HOH     H1 1383   0.924   0.753   3.062
  399HOH     H2 1384   1.003   0.828   3.167
  400HOH      O 1385   1.611   0.648   1.945
  400HOH     H1 1386   1.620   0.564   1.899
  400HOH     H2 1387   1.649   0.632   2.031
  401HOH      O 1388   2.152   2.836   2.563
  401HOH     H1 1389   2.130   2.781   2.487
  401HOH     H2 1390   2.247   2.837   2.565
  402HOH      O 1391   3.393   2.409   1.532
  402HOH     H1 1392   3.470   2.426   1.586
  402HOH     H2 1393   3.370   2.318   1.550
  403HOH      O 1394   3.321   1.433   3.223
  403HOH     H1 1395   3.328   1.422   3.318
  403HOH     H2 1396   3.269   1.513   3.212
  404HOH      O 1397   3.570   0.533   3.918
  404HOH     H1 1398   3.501   0.561   3.858
  404HOH     H2 1399   3.596   0.447   3.887
  405HOH      O 1400   1.353   2.606   3.568
  405HOH     H1 1401   1.267   2.635   3.535
  405HOH     H2 1402   1.339   2.515   3.591
  406HOH      O 1403   3.798   3.703   1.943
  406HOH     H1 1404   3.878   3.661   1.975
  406HOH     H2 1405   3.731   3.679   2.007
  407HOH      O 1406   0.701   1.954   0.016
  407HOH     H1 1407   0.731   2.006   0.090
  407HOH     H2 1408   0.777   1.948  -0.042
  408HOH      O 1409   3.166   2.663   1.949
  408HOH     H1 1410   3.185   2.590   1.891
  408HOH     H2 1411   3.173   2.627   2.037
  409HOH      O 1412   3.754   2.082   0.388
  409HOH     H1 1413   3.830   2.066   0.444
  409HOH     H2 1414   3.779   2.049   0.302
  410HOH      O 1415   1.220   2.564   0.199
  410HOH     H1 1416   1.182   2.651   0.216
  410HOH     H2 1417   1.275   2.577   0.122
  411HOH      O 1418   1.173   2.090   2.267
  411HOH     H1 1419   1.096   2.105   2.323
  411HOH     H2 1420   1.223   2.023   2.313
  412HOH      O 1421   1.297   1.110   1.922
  412HOH     H1 1422   1.333   1.179   1.978
  412HOH     H2 1423   1.371   1.078   1.872
  413HOH      O 1424   1.066   0.783   3.340
  413HOH     H1 1425   1.140   0.809   3.394
  413HOH     H2 1426   1.038   0.699   3.377
  414HOH      O 1427   1.862   0.148   1.954
  414HOH     H1 1428   1.815   0.184   1.880
  414HOH     H2 1429   1.946   0.119   1.918
  415HOH      O 1430   2.027   3.053   3.829
  415HOH     H1 1431   2.004   2.961   3.824
  415HOH     H2 1432   2.080   3.068   3.750
  416HOH      O 1433   0.185   1.382   3.950
  416HOH     H1 1434   0.105   1.410   3.905
  416HOH     H2 1435   0.192   1.289   3.929
  417HOH      O 1436   2.635   1.986   1.753
  417HOH     H1 1437   2.615   2.042   1.828
  417HOH     H2 1438   2.553   1.939   1.736
  418HOH      O 1439   2.781   0.574   1.294
  418HOH     H1 1440   2.722   0.596   1.367
  418HOH     H2 1441   2.868   0.601   1.324
  419HOH      O 1442   1.645   3.048   3.096
  419HOH     H1 1443   1.589   3.099   3.155
  419HOH     H2 1444   1.728   3.040   3.142
  420HOH      O 1445   3.576   0.875   0.091
  420HOH     H1 1446   3.489   0.859   0.128
  420HOH     H2 1447   3.558   0.923   0.010
  421HOH      O 1448   1.303  -0.014   0.327
  421HOH     H1 1449   1.387   0.009   0.289
  421HOH     H2 1450   1.247   0.061   0.308
  422HOH      O 1451   1.082   2.919   1.959
  422HOH     H1 1452   1.016   2.853   1.977
  422HOH     H2 1453   1.051   2.998   2.004
  423HOH      O 1454   3.468   3.375   0.440
  423HOH     H1 1455   3.459   3.296   0.493
  423HOH     H2 1456   3.385   3.422   0.451
  424HOH      O 1457   3.263   2.454   1.803
  424HOH     H1 1458   3.276   2.466   1.708
  424HOH     H2 1459   3.292   2.364   1.819
  425HOH      O 1460   1.561   0.693   2.997
  425HOH     H1 1461   1.656   0.686   3.005
  425HOH     H2 1462   1.532   0.605   2.971
  426HOH      O 1463   3.675   3.278   3.696
  426HOH     H1 1464   3.646   3.355   3.648
  426HOH     H2 1465   3.766   3.296   3.718
  427HOH      O 1466   1.293   1.200   1.220
  427HOH     H1 1467   1.272   1.231   1.131
  427HOH     H2 1468   1.360   1.261   1.250
  428HOH      O 1469   3.640   2.228   3.584
  428HOH     H1 1470   3.650   2.254   3.676
  428HOH     H2 1471   3.583   2.152   3.587
  429HOH      O 1472   1.251   2.279   2.836
  429HOH     H1 1473   1.237   2.352   2.897
  429HOH     H2 1474   1.286   2.209   2.891
  430HOH      O 1475   2.102   3.648   2.306
  430HOH     H1 1476   2.025   3.666   2.360
  430HOH     H2 1477   2.067   3.624   2.220
  431HOH      O 1478   2.513   0.961   1.610
  431HOH     H1 1479   2.548   1.030   1.555
  431HOH     H2 1480   2.451   1.005   1.668
  432HOH      O 1481   2.692   3.264   2.106
  432HOH     H1 1482   2.763   3.227   2.159
  432HOH     H2 1483   2.612   3.232   2.147
  433HOH      O 1484   3.741   0.563   0.858
  433HOH     H1 1485   3.686   0.640   0.842
  433HOH     H2 1486   3.696   0.491   0.813
  434HOH      O 1487   1.430   1.516   3.879
  434HOH     H1 1488   1.514   1.472   3.864
  434HOH     H2 1489   1.364   1.447   3.872
  435HOH      O 1490   3.970   0.804   3.966
  435HOH     H1 1491   4.025   0.734   4.001
  435HOH     H2 1492   3.946   0.857   4.042
  436HOH      O 1493   2.900   0.746   2.356
  436HOH     H1 1494   2.953   0.761   2.434
  436HOH     H2 1495   2.942   0.672   2.312
  437HOH      O 1496   2.573   1.680   1.395
  437HOH     H1 1497   2.649   1.688   1.453
  437HOH     H2 1498   2.498   1.699   1.451
  438HOH      O 1499   2.642   1.232   1.542
  438HOH     H1 1500   2.687   1.178   1.478
  438HOH     H2 1501   2.565   1.264   1.496
  439HOH      O 1502   0.754   0.503   1.822
  439HOH     H1 1503   0.724   0.594   1.810
  439HOH     H2 1504   0.781   0.475   1.734
  440HOH      O 1505   2.142   1.904   1.096
  440HOH     H1 1506   2.084   1.831   1.118
  440HOH     H2 1507   2.086   1.966   1.048
  441HOH      O 1508   3.060   1.347   2.843
  441HOH     H1 1509   2.982   1.296   2.822
  441HOH     H2 1510   3.074   1.333   2.937
  442HOH      O 1511   1.613   0.392   2.360
  442HOH     H1 1512   1.564   0.316   2.328
  442HOH     H2 1513   1.567   0.419   2.439
  443HOH      O 1514   1.021   0.919   1.200
  443HOH     H1 1515   1.103   0.942   1.244
  443HOH     H2 1516   0.961   0.990   1.221
  444HOH      O 1517   3.504   1.941   0.077
  444HOH     H1 1518   3.510   1.929  -0.018
  444HOH     H2 1519   3.466   2.028   0.088
  445HOH      O 1520   3.176   3.508   1.895
  445HOH     H1 1521   3.103   3.552   1.938
  445HOH     H2 1522   3.202   3.439   1.956
  446HOH      O 1523   0.932   1.930   1.034
  446HOH     H1 1524   0.962   1.844   1.003
  446HOH     H2 1525   0.982   1.945   1.114
  447HOH      O 1526   3.506   1.982   3.519
  447HOH     H1 1527   3.580   1.984   3.459
  447HOH     H2 1528   3.453   1.908   3.489
  448HOH      O 1529   0.622  -0.009   0.926
  448HOH     H1 1530   0.552   0.053   0.904
  448HOH     H2 1531   0.693   0.046   0.959
  449HOH      O 1532   3.624   2.933   2.739
  449HOH     H1 1533   3.687   2.918   2.669
  449HOH     H2 1534   3.674   2.921   2.820
  450HOH      O 1535   0.741   3.180   2.849
  450HOH     H1 1536   0.698   3.187   2.764
  450HOH     H2 1537   0.821   3.129   2.831
  451HOH      O 1538   0.974   0.560   3.444
  451HOH     H1 1539   0.898   0.579   3.390
  451HOH     H2 1540   0.944   0.577   3.534
  452HOH      O 1541   1.669   1.672   0.577
  452HOH     H1 1542   1.579   1.640   0.576
  452HOH     H2 1543   1.685   1.704   0.488
  453HOH      O 1544   0.468   3.394   0.401
  453HOH     H1 1545   0.417   3.470   0.375
  453HOH     H2 1546   0.413   3.348   0.465
  454HOH      O 1547   0.276   1.449   1.755
  454HOH     H1 1548   0.241   1.430   1.842
  454HOH     H2 1549   0.369   1.430   1.762
  455HOH      O 1550   3.559   3.891   1.997
  455HOH     H1 1551   3.576   3.809   2.043
  455HOH     H2 1552   3.635   3.946   2.016
  456HOH      O 1553   0.940   0.254   2.106
  456HOH     H1 1554   0.930   0.289   2.195
  456HOH     H2 1555   0.853   0.264   2.067
  457HOH      O 1556   3.543   3.675   3.336
  457HOH     H1 1557   3.593   3.687   3.255
  457HOH     H2 1558   3.583   3.737   3.398
  458HOH      O 1559   1.497   2.327   1.300
  458HOH     H1 1560   1.403   2.312   1.310
  458HOH     H2 1561   1.519   2.286   1.217
  459HOH      O 1562   0.466   3.392   0.063
  459HOH     H1 1563   0.518   3.384  -0.017
  459HOH     H2 1564   0.480   3.309   0.109
  460HOH      O 1565   2.821   1.774   2.891
  460HOH     H1 1566   2.772   1.789   2.810
  460HOH     H2 1567   2.799   1.849   2.947
  461HOH      O 1568   3.509   0.801   2.636
  461HOH     H1 1569   3.505   0.752   2.554
  461HOH     H2 1570   3.588   0.854   2.627
  462HOH      O 1571   0.985   1.939   3.013
  462HOH     H1 1572   1.052   1.968   3.075
  462HOH     H2 1573   0.941   1.867   3.058
  463HOH      O 1574   1.825   0.709   0.746
  463HOH     H1 1575   1.916   0.682   0.752
  463HOH     H2 1576   1.779   0.658   0.812
  464HOH      O 1577   1.074   0.996   1.833
  464HOH     H1 1578   1.158   1.035   1.857
  464HOH     H2 1579   1.093   0.903   1.824
  465HOH      O 1580   1.976   2.862   1.022
  465HOH     H1 1581   2.029   2.783   1.033
  465HOH     H2 1582   2.007   2.900   0.940
  466HOH      O 1583   3.807   2.317   0.234
  466HOH     H1 1584   3.777   2.311   0.143
  466HOH     H2 1585   3.763   2.245   0.279
  467HOH      O 1586   1.346   0.517   1.527
  467HOH     H1 1587   1.352   0.609   1.552
  467HOH     H2 1588   1.394   0.471   1.595
  468HOH      O 1589   1.342   3.055   0.472
  468HOH     H1 1590   1.337   3.028   0.380
  468HOH     H2 1591   1.252   3.080   0.494
  469HOH      O 1592   0.480   1.574   2.880
  469HOH     H1 1593   0.511   1.484   2.870
  469HOH     H2 1594   0.529   1.624   2.815
  470HOH      O 1595   2.128   3.986   3.430
  470HOH     H1 1596   2.141   3.968   3.524
  470HOH     H2 1597   2.168   4.072   3.417
  471HOH      O 1598   0.428   1.077   3.125
  471HOH     H1 1599   0.482   1.156   3.116
  471HOH     H2 1600   0.460   1.018   3.056
  472HOH      O 1601   3.780   0.567   1.363
  472HOH     H1 1602   3.792   0.553   1.457
  472HOH     H2 1603   3.688   0.591   1.354
  473HOH      O 1604   0.598   1.706   3.313
  473HOH     H1 1605   0.627   1.615   3.308
  473HOH     H2 1606   0.656   1.746   3.378
  474HOH      O 1607   3.606   1.778   2.347
  474HOH     H1 1608   3.596   1.818   2.434
  474HOH     H2 1609   3.689   1.731   2.351
  475HOH      O 1610   3.773   3.944   3.739
  475HOH     H1 1611   3.795   4.018   3.796
  475HOH     H2 1612   3.771   3.869   3.798
  476HOH      O 1613   0.300   3.791   3.217
  476HOH     H1 1614   0.209   3.782   3.187
  476HOH     H2 1615   0.350   3.733   3.160
  477HOH      O 1616   1.794   2.469   3.743
  477HOH     H1 1617   1.736   2.518   3.801
  477HOH     H2 1618   1.737   2.407   3.698
  478HOH      O 1619   0.501   0.639   1.726
  478HOH     H1 1620   0.436   0.621   1.795
  478HOH     H2 1621   0.517   0.554   1.686
  479HOH      O 1622   1.816   2.791   2.456
  479HOH     H1 1623   1.787   2.725   2.518
  479HOH     H2 1624   1.830   2.870   2.509
  480HOH      O 1625   0.772   1.329   3.864
  480HOH     H1 1626   0.747   1.419   3.846
  480HOH     H2 1627   0.712   1.276   3.811
  481HOH      O 1628   2.338   1.747   1.525
  481HOH     H1 1629   2.283   1.757   1.603
  481HOH     H2 1630   2.288   1.688   1.468
  482HOH      O 1631   0.067   1.662   1.278
  482HOH     H1 1632   0.146   1.682   1.228
  482HOH     H2 1633   0.092   1.587   1.333
  483HOH      O 1634   1.778   1.577   3.406
  483HOH     H1 1635   1.822   1.494   3.387
  483HOH     H2 1636   1.688   1.552   3.429
  484HOH      O 1637   3.950   1.777   0.203
  484HOH     H1 1638   3.877   1.794   0.263
  484HOH     H2 1639   3.950   1.852   0.143
  485HOH      O 1640   0.015   1.479   3.744
  485HOH     H1 1641   0.028   1.498   3.651
  485HOH     H2 1642   0.007   1.383   3.747
  486HOH      O 1643   2.253   0.458   1.878
  486HOH     H1 1644   2.160   0.460   1.858
  486HOH     H2 1645   2.273   0.365   1.891
  487HOH      O 1646   0.094   0.244   2.863
  487HOH     H1 1647   0.107   0.285   2.777
  487HOH     H2 1648   0.011   0.197   2.855
  488HOH      O 1649   0.881   3.854   1.630
  488HOH     H1 1650   0.905   3.764   1.652
  488HOH     H2 1651   0.786   3.851   1.616
  489HOH      O 1652   0.731   0.699   0.813
  489HOH     H1 1653   0.686   0.768   0.763
  489HOH     H2 1654   0.809   0.743   0.847
  490HOH      O 1655   2.809   2.094   0.175
  490HOH     H1 1656   2.815   2.024   0.109
  490HOH     H2 1657   2.785   2.172   0.125
  491HOH      O 1658   3.846   3.097   3.476
  491HOH     H1 1659   3.879   3.173   3.428
  491HOH     H2 1660   3.863   3.119   3.568
  492HOH      O 1661   3.765   1.454   0.950
  492HOH     H1 1662   3.768   1.504   0.869
  492HOH     H2 1663   3.674   1.428   0.959
  493HOH      O 1664   0.640   1.574   3.827
  493HOH     H1 1665   0.566   1.565   3.767
  493HOH     H2 1666   0.619   1.653   3.878
  494HOH      O 1667   3.230   1.817   2.941
  494HOH     H1 1668   3.195   1.766   2.867
  494HOH     H2 1669   3.204   1.907   2.922
  495HOH      O 1670   3.234   0.516   1.077
  495HOH     H1 1671   3.140   0.528   1.094
  495HOH     H2 1672   3.255   0.435   1.124
  496HOH      O 1673   0.990   2.611   1.723
  496HOH     H1 1674   0.928   2.568   1.664
  496HOH     H2 1675   0.957   2.593   1.811
  497HOH      O 1676   0.999   1.484   3.731
  497HOH     H1 1677   1.072   1.430   3.701
  497HOH     H2 1678   0.976   1.447   3.816
  498HOH      O 1679   2.656   0.026   1.691
  498HOH     H1 1680   2.595   0.026   1.617
  498HOH     H2 1681   2.620  -0.038   1.751
  499HOH      O 1682   3.078   2.808   0.645
  499HOH     H1 1683   3.172   2.820   0.633
  499HOH     H2 1684   3.069   2.730   0.698
  500HOH      O 1685   2.011   1.039   3.317
  500HOH     H1 1686   2.055   1.124   3.325
  500HOH     H2 1687   1.925   1.053   3.357
  501HOH      O 1688   1.944   3.331   2.232
  501HOH     H1 1689   1.994   3.347   2.152
  501HOH     H2 1690   1.955   3.238   2.249
  502HOH      O 1691   3.670   3.858   1.568
  502HOH     H1 1692   3.592   3.826   1.613
  502HOH     H2 1693   3.742   3.836   1.627
  503HOH      O 1694   0.862   3.555   0.335
  503HOH     H1 1695   0.818   3.555   0.421
  503HOH     H2 1696   0.809   3.615   0.282
  504HOH      O 1697   0.980   2.455   2.560
  504HOH     H1 1698   0.990   2.445   2.655
  504HOH     H2 1699   0.921   2.530   2.549
  505HOH      O 1700   1.582   0.229   0.531
  505HOH     H1 1701   1.535   0.292   0.585
  505HOH     H2 1702   1.667   0.220   0.575
  506HOH      O 1703   1.396   1.026   1.649
  506HOH     H1 1704   1.382   0.934   1.628
  506HOH     H2 1705   1.318   1.071   1.616
  507HOH      O 1706   0.597   0.161   0.594
  507HOH     H1 1707   0.545   0.138   0.517
  507HOH     H2 1708   0.642   0.079   0.617
  508HOH      O 1709   1.234   0.332   2.427
  508HOH     H1 1710   1.199   0.374   2.349
  508HOH     H2 1711   1.288   0.400   2.468
  509HOH      O 1712   1.036   1.070   0.330
  509HOH     H1 1713   0.962   1.073   0.269
  509HOH     H2 1714   1.071   1.160   0.330
  510HOH      O 1715   2.074   1.267   0.861
  510HOH     H1 1716   2.139   1.298   0.798
  510HOH     H2 1717   2.029   1.347   0.890
  511HOH      O 1718   0.585   1.143   0.153
  511HOH     H1 1719   0.578   1.202   0.228
  511HOH     H2 1720   0.679   1.136   0.137
  512HOH      O 1721   0.520   3.497   3.310
  512HOH     H1 1722   0.581   3.428   3.335
  512HOH     H2 1723   0.451   3.492   3.376
  513HOH      O 1724   2.733   0.735   3.546
  513HOH     H1 1725   2.745   0.641   3.561
  513HOH     H2 1726   2.781   0.753   3.466
  514HOH      O 1727   3.541   3.258   2.838
  514HOH     H1 1728   3.581   3.200   2.902
  514HOH     H2 1729   3.466   3.209   2.805
  515HOH      O 1730   3.319   1.936   3.815
  515HOH     H1 1731   3.413   1.939   3.794
  515HOH     H2 1732   3.303   2.017   3.863
  516HOH      O 1733   3.008   2.588   0.800
  516HOH     H1 1734   2.977   2.635   0.878
  516HOH     H2 1735   2.983   2.497   0.815
  517HOH      O 1736   1.754   3.210   2.638
  517HOH     H1 1737   1.835   3.160   2.648
  517HOH     H2 1738   1.697   3.176   2.707
  518HOH      O 1739   2.231   0.267   3.551
  518HOH     H1 1740   2.300   0.330   3.533
  518HOH     H2 1741   2.277   0.186   3.575
  519HOH      O 1742   0.876   0.743   3.664
  519HOH     H1 1743   0.803   0.718   3.608
  519HOH     H2 1744   0.848   0.823   3.707
  520HOH      O 1745   1.379   3.561   1.359
  520HOH     H1 1746   1.293   3.518   1.361
  520HOH     H2 1747   1.390   3.596   1.448
  521HOH      O 1748   2.627   0.752   2.388
  521HOH     H1 1749   2.718   0.747   2.359
  521HOH     H2 1750   2.587   0.671   2.357
  522HOH      O 1751   2.448   0.977   0.041
  522HOH     H1 1752   2.395   0.910   0.086
  522HOH     H2 1753   2.520   0.995   0.101
  523HOH      O 1754   1.330   1.755   3.856
  523HOH     H1 1755   1.247   1.738   3.902
  523HOH     H2 1756   1.377   1.671   3.859
  524HOH      O 1757   1.688   0.980   2.586
  524HOH     H1 1758   1.665   0.907   2.529
  524HOH     H2 1759   1.646   0.960   2.670
  525HOH      O 1760   0.779   2.636   2.508
  525HOH     H1 1761   0.779   2.681   2.423
  525HOH     H2 1762   0.687   2.615   2.523
  526HOH      O 1763   0.074   2.924   0.451
  526HOH     H1 1764   0.056   2.932   0.357
  526HOH     H2 1765   0.079   3.015   0.482
  527HOH      O 1766   2.366   2.447   1.013
  527HOH     H1 1767   2.305   2.405   1.073
  527HOH     H2 1768   2.443   2.390   1.013
  528HOH      O 1769   0.926   0.653   1.226
  528HOH     H1 1770   0.919   0.727   1.165
  528HOH     H2 1771   0.958   0.693   1.307
  529HOH      O 1772   2.330   1.726   2.473
  529HOH     H1 1773   2.309   1.787   2.544
  529HOH     H2 1774   2.259   1.661   2.475
  530HOH      O 1775   3.227   2.590   0.193
  530HOH     H1 1776   3.301   2.582   0.254
  530HOH     H2 1777   3.159   2.533   0.230
  531HOH      O 1778   3.056   2.525   3.704
  531HOH     H1 1779   3.059   2.487   3.616
  531HOH     H2 1780   3.092   2.613   3.693
  532HOH      O 1781   3.914   1.719   3.779
  532HOH     H1 1782   3.959   1.636   3.763
  532HOH     H2 1783   3.822   1.695   3.786
  533HOH      O 1784   2.543   0.263   0.849
  533HOH     H1 1785   2.472   0.254   0.912
  533HOH     H2 1786   2.503   0.308   0.774
  534HOH      O 1787   2.161   0.290   0.219
  534HOH     H1 1788   2.206   0.209   0.243
  534HOH     H2 1789   2.230   0.347   0.184
  535HOH      O 1790   2.662   1.051   0.197
  535HOH     H1 1791   2.692   0.982   0.256
  535HOH     H2 1792   2.738   1.070   0.142
  536HOH      O 1793   2.195   1.791   0.438
  536HOH     H1 1794   2.283   1.775   0.403
  536HOH     H2 1795   2.141   1.804   0.361
  537HOH      O 1796   3.873   1.073   2.972
  537HOH     H1 1797   3.868   1.165   2.944
  537HOH     H2 1798   3.965   1.060   2.997
  538HOH      O 1799   0.563   2.566   1.149
  538HOH     H1 1800   0.632   2.627   1.174
  538HOH     H2 1801   0.482   2.616   1.157
  539HOH      O 1802   2.087   3.972   2.777
  539HOH     H1 1803   2.130   3.922   2.708
  539HOH     H2 1804   2.157   4.023   2.817
  540HOH      O 1805   1.615   1.768   2.968
  540HOH     H1 1806   1.692   1.779   2.912
  540HOH     H2 1807   1.565   1.698   2.927
  541HOH      O 1808   0.810   1.379   0.595
  541HOH     H1 1809   0.740   1.328   0.553
  541HOH     H2 1810   0.780   1.470   0.589
  542HOH      O 1811   3.441   2.984   1.973
  542HOH     H1 1812   3.454   2.955   2.064
  542HOH     H2 1813   3.517   3.040   1.955
  543HOH      O 1814   0.463   3.638   0.155
  543HOH     H1 1815   0.377   3.651   0.114
  543HOH     H2 1816   0.478   3.544   0.150
  544HOH      O 1817   3.042   3.816   2.119
  544HOH     H1 1818   3.021   3.896   2.072
  544HOH     H2 1819   3.004   3.746   2.066
  545HOH      O 1820   1.793   2.638   1.209
  545HOH     H1 1821   1.867   2.692   1.236
  545HOH     H2 1822   1.756   2.606   1.291
  546HOH      O 1823   1.532   0.773   1.553
  546HOH     H1 1824   1.582   0.699   1.588
  546HOH     H2 1825   1.598   0.842   1.541
  547HOH      O 1826   0.059   0.565   0.535
  547HOH     H1 1827  -0.035   0.547   0.534
  547HOH     H2 1828   0.066   0.655   0.566
  548HOH      O 1829   3.537   3.893   1.052
  548HOH     H1 1830   3.511   3.850   1.134
  548HOH     H2 1831   3.518   3.986   1.068
  549HOH      O 1832   0.335   1.516   0.469
  549HOH     H1 1833   0.302   1.547   0.385
  549HOH     H2 1834   0.388   1.588   0.503
  550HOH      O 1835   0.104   0.384   0.816
  550HOH     H1 1836   0.183   0.330   0.815
  550HOH     H2 1837   0.043   0.340   0.757
  551HOH      O 1838   4.000   2.898   3.276
  551HOH     H1 1839   3.953   2.967   3.322
  551HOH     H2 1840   3.932   2.836   3.249
  552HOH      O 1841   3.189   2.444   0.576
  552HOH     H1 1842   3.111   2.473   0.624
  552HOH     H2 1843   3.156   2.376   0.517
  553HOH      O 1844   2.443   3.149   1.592
  553HOH     H1 1845   2.515   3.108   1.544
  553HOH     H2 1846   2.430   3.233   1.548
  554HOH      O 1847   3.401   3.905   3.182
  554HOH     H1 1848   3.402   3.956   3.263
  554HOH     H2 1849   3.441   3.962   3.117
  555HOH      O 1850   1.339   3.531   0.602
  555HOH     H1 1851   1.394   3.528   0.681
  555HOH     H2 1852   1.368   3.610   0.556
  556HOH      O 1853   2.364   3.917   2.672
  556HOH     H1 1854   2.353   4.007   2.702
  556HOH     H2 1855   2.458   3.907   2.661
  557HOH      O 1856   2.200   1.461   1.166
  557HOH     H1 1857   2.288   1.473   1.202
  557HOH     H2 1858   2.153   1.541   1.189
  558HOH      O 1859   1.285   2.875   3.041
  558HOH     H1 1860   1.374   2.868   3.008
  558HOH     H2 1861   1.269   2.969   3.046
  559HOH      O 1862   1.406   3.179   3.224
  559HOH     H1 1863   1.332   3.236   3.205
  559HOH     H2 1864   1.395   3.155   3.316
  560HOH      O 1865   2.927   1.082   0.678
  560HOH     H1 1866   2.910   0.991   0.703
  560HOH     H2 1867   2.849   1.130   0.707
  561HOH      O 1868   3.363   1.127   0.693
  561HOH     H1 1869   3.382   1.033   0.691
  561HOH     H2 1870   3.278   1.133   0.736
  562HOH      O 1871   3.094   2.050   2.798
  562HOH     H1 1872   3.100   1.976   2.737
  562HOH     H2 1873   3.129   2.124   2.749
  563HOH      O 1874   1.205   1.047   3.513
  563HOH     H1 1875   1.110   1.040   3.528
  563HOH     H2 1876   1.243   1.044   3.600
  564HOH      O 1877   2.854   3.290   2.370
  564HOH     H1 1878   2.829   3.366   2.318
  564HOH     H2 1879   2.949   3.298   2.380
  565HOH      O 1880   1.881   1.022   1.016
  565HOH     H1 1881   1.820   1.003   0.944
  565HOH     H2 1882   1.873   0.947   1.075
  566HOH      O 1883   1.960   2.909   0.489
  566HOH     H1 1884   2.025   2.923   0.420
  566HOH     H2 1885   1.979   2.821   0.522
  567HOH      O 1886   1.838   3.661   2.424
  567HOH     H1 1887   1.793   3.693   2.502
  567HOH     H2 1888   1.812   3.569   2.418
  568HOH      O 1889   3.797   2.645   3.013
  568HOH     H1 1890   3.874   2.593   2.988
  568HOH     H2 1891   3.739   2.640   2.937
  569HOH      O 1892   0.906   0.351   3.124
  569HOH     H1 1893   0.897   0.294   3.201
  569HOH     H2 1894   0.954   0.297   3.061
  570HOH      O 1895   2.038   2.599   0.463
  570HOH     H1 1896   2.069   2.601   0.554
  570HOH     H2 1897   2.042   2.506   0.439
  571HOH      O 1898   0.601   1.019   2.128
  571HOH     H1 1899   0.544   0.951   2.090
  571HOH     H2 1900   0.602   1.000   2.222
  572HOH      O 1901   0.164   1.967   3.507
  572HOH     H1 1902   0.177   1.884   3.462
  572HOH     H2 1903   0.201   2.032   3.447
  573HOH      O 1904   2.280   0.077   2.182
  573HOH     H1 1905   2.192   0.084   2.219
  573HOH     H2 1906   2.290  -0.015   2.160
  574HOH      O 1907   3.326   1.131   0.390
  574HOH     H1 1908   3.340   1.114   0.483
  574HOH     H2 1909   3.327   1.045   0.349
  575HOH      O 1910   2.012   0.606   2.146
  575HOH     H1 1911   1.963   0.657   2.210
  575HOH     H2 1912   1.978   0.517   2.154
  576HOH      O 1913   0.573   1.899   3.714
  576HOH     H1 1914   0.555   1.915   3.806
  576HOH     H2 1915   0.515   1.827   3.690
  577HOH      O 1916   2.660   1.733   1.692
  577HOH     H1 1917   2.663   1.823   1.724
  577HOH     H2 1918   2.752   1.710   1.677
  578HOH      O 1919   1.926   0.442   4.003
  578HOH     H1 1920   1.902   0.350   4.008
  578HOH     H2 1921   1.846   0.487   3.976
  579HOH      O 1922   2.669   3.223   3.285
  579HOH     H1 1923   2.730   3.294   3.265
  579HOH     H2 1924   2.708   3.145   3.245
  580HOH      O 1925   3.062   3.482   1.472
  580HOH     H1 1926   3.103   3.524   1.547
  580HOH     H2 1927   3.030   3.399   1.506
  581HOH      O 1928   3.622   0.311   0.312
  581HOH     H1 1929   3.598   0.371   0.241
  581HOH     H2 1930   3.604   0.224   0.277
  582HOH      O 1931   1.260   1.883   3.352
  582HOH     H1 1932   1.234   1.849   3.438
  582HOH     H2 1933   1.337   1.830   3.329
  583HOH      O 1934   0.929   3.774   2.081
  583HOH     H1 1935   0.834   3.776   2.086
  583HOH     H2 1936   0.957   3.861   2.111
  584HOH      O 1937   3.777   1.443   1.227
  584HOH     H1 1938   3.824   1.375   1.275
  584HOH     H2 1939   3.748   1.400   1.147
  585HOH      O 1940   0.947   1.777   3.283
  585HOH     H1 1941   1.005   1.740   3.350
  585HOH     H2 1942   0.873   1.716   3.279
  586HOH      O 1943   1.666   0.332   1.823
  586HOH     H1 1944   1.639   0.267   1.758
  586HOH     H2 1945   1.631   0.298   1.906
  587HOH      O 1946   2.146   2.818   3.347
  587HOH     H1 1947   2.162   2.751   3.280
  587HOH     H2 1948   2.234   2.850   3.370
  588HOH      O 1949   1.905   2.497   1.628
  588HOH     H1 1950   1.829   2.468   1.678
  588HOH     H2 1951   1.874   2.574   1.581
  589HOH      O 1952   1.516   2.143   1.023
  589HOH     H1 1953   1.541   2.166   0.933
  589HOH     H2 1954   1.421   2.136   1.021
  590HOH      O 1955   0.779   3.824   3.794
  590HOH     H1 1956   0.847   3.840   3.859
  590HOH     H2 1957   0.742   3.911   3.777
  591HOH      O 1958   1.579   3.169   2.843
  591HOH     H1 1959   1.484   3.171   2.846
  591HOH     H2 1960   1.605   3.115   2.918
  592HOH      O 1961   1.431   1.626   3.271
  592HOH     H1 1962   1.371   1.551   3.268
  592HOH     H2 1963   1.480   1.620   3.189
  593HOH      O 1964   1.270   0.632   1.050
  593HOH     H1 1965   1.313   0.690   1.113
  593HOH     H2 1966   1.253   0.688   0.974
  594HOH      O 1967   1.600   3.852   0.048
  594HOH     H1 1968   1.523   3.795   0.040
  594HOH     H2 1969   1.628   3.867  -0.042
  595HOH      O 1970   2.586   2.613   3.754
  595HOH     H1 1971   2.633   2.678   3.807
  595HOH     H2 1972   2.644   2.537   3.753
  596HOH      O 1973   0.547   1.771   2.654
  596HOH     H1 1974   0.556   1.697   2.594
  596HOH     H2 1975   0.586   1.845   2.607
  597HOH      O 1976   1.202   2.671   3.941
  597HOH     H1 1977   1.149   2.749   3.926
  597HOH     H2 1978   1.170   2.607   3.878
  598HOH      O 1979   3.888   1.685   1.710
  598HOH     H1 1980   3.847   1.760   1.666
  598HOH     H2 1981   3.820   1.651   1.768
  599HOH      O 1982   3.950   3.054   2.699
  599HOH     H1 1983   3.986   2.965   2.704
  599HOH     H2 1984   3.987   3.091   2.619
  600HOH      O 1985   3.383   2.469   3.027
  600HOH     H1 1986   3.338   2.495   2.947
  600HOH     H2 1987   3.389   2.550   3.078
  601HOH      O 1988   3.094   0.297   2.580
  601HOH     H1 1989   3.110   0.325   2.490
  601HOH     H2 1990   3.181   0.278   2.615
  602HOH      O 1991   0.921   3.688   0.845
  602HOH     H1 1992   0.995   3.668   0.902
  602HOH     H2 1993   0.849   3.636   0.880
  603HOH      O 1994   2.396   3.147   2.803
  603HOH     H1 1995   2.442   3.224   2.836
  603HOH     H2 1996   2.424   3.075   2.860
  604HOH      O 1997   3.040   0.795   2.604
  604HOH     H1 1998   2.971   0.771   2.665
  604HOH     H2 1999   3.118   0.803   2.658
  605HOH      O 2000   1.749   1.323   0.967
  605HOH     H1 2001   1.729   1.335   1.060
  605HOH     H2 2002   1.836   1.362   0.957
  606HOH      O 2003   2.193   3.174   0.421
  606HOH     H1 2004   2.275   3.167   0.373
  606HOH     H2 2005   2.125   3.159   0.355
  607HOH      O 2006   2.122   0.501   2.515
  607HOH     H1 2007   2.202   0.452   2.534
  607HOH     H2 2008   2.152   0.590   2.497
  608HOH      O 2009   2.914   3.751   1.704
  608HOH     H1 2010   2.865   3.696   1.642
  608HOH     H2 2011   3.006   3.739   1.679
  609HOH      O 2012   3.438   3.237   2.258
  609HOH     H1 2013   3.415   3.320   2.300
  609HOH     H2 2014   3.522   3.255   2.215
  610HOH      O 2015   1.953   1.768   2.592
  610HOH     H1 2016   1.951   1.714   2.513
  610HOH     H2 2017   2.011   1.722   2.651
  611HOH      O 2018   0.210   0.737   1.591
  611HOH     H1 2019   0.171   0.649   1.597
  611HOH     H2 2020   0.290   0.731   1.644
  612HOH      O 2021   3.876   2.625   2.328
  612HOH     H1 2022   3.814   2.553   2.318
  612HOH     H2 2023   3.886   2.660   2.240
  613HOH      O 2024   3.338   0.898   2.820
  613HOH     H1 2025   3.382   0.983   2.827
  613HOH     H2 2026   3.376   0.858   2.742
  614HOH      O 2027   0.381   2.044   3.317
  614HOH     H1 2028   0.384   2.061   3.223
  614HOH     H2 2029   0.468   2.068   3.348
  615HOH      O 2030   0.908   1.122   3.585
  615HOH     H1 2031   0.860   1.081   3.513
  615HOH     H2 2032   0.898   1.061   3.658
  616HOH      O 2033   0.440   1.176   2.703
  616HOH     H1 2034   0.462   1.122   2.628
  616HOH     H2 2035   0.365   1.229   2.673
  617HOH      O 2036   1.112   3.778   2.301
  617HOH     H1 2037   1.066   3.775   2.385
  617HOH     H2 2038   1.097   3.691   2.263
  618HOH      O 2039   2.441   1.005   3.072
  618HOH     H1 2040   2.448   1.054   2.990
  618HOH     H2 2041   2.526   1.017   3.115
  619HOH      O 2042   0.129   0.332   2.588
  619HOH     H1 2043   0.070   0.330   2.512
  619HOH     H2 2044   0.215   0.352   2.550
  620HOH      O 2045   1.331   0.077   0.632
  620HOH     H1 2046   1.358   0.075   0.540
  620HOH     H2 2047   1.394   0.136   0.673
  621HOH      O 2048   0.200   3.768   0.052
  621HOH     H1 2049   0.125   3.814   0.013
  621HOH     H2 2050   0.212   3.690  -0.002
  622HOH      O 2051   0.863   1.384   3.515
  622HOH     H1 2052   0.871   1.289   3.520
  622HOH     H2 2053   0.891   1.416   3.601
  623HOH      O 2054   1.468   2.722   4.044
  623HOH     H1 2055   1.546   2.774   4.024
  623HOH     H2 2056   1.399   2.761   3.989
  624HOH      O 2057   0.319   3.978   2.096
  624HOH     H1 2058   0.415   3.978   2.088
  624HOH     H2 2059   0.301   4.043   2.163
  625HOH      O 2060   2.360   3.429   0.470
  625HOH     H1 2061   2.391   3.386   0.391
  625HOH     H2 2062   2.272   3.394   0.484
  626HOH      O 2063   0.310   2.268   1.294
  626HOH     H1 2064   0.326   2.232   1.382
  626HOH     H2 2065   0.298   2.191   1.239
  627HOH      O 2066   0.620   1.963   3.159
  627HOH     H1 2067   0.576   1.934   3.079
  627HOH     H2 2068   0.603   1.893   3.222
  628HOH      O 2069   3.642   2.493   1.649
  628HOH     H1 2070   3.688   2.494   1.733
  628HOH     H2 2071   3.671   2.573   1.605
  629HOH      O 2072   2.791   2.109   0.957
  629HOH     H1 2073   2.709   2.159   0.958
  629HOH     H2 2074   2.785   2.050   1.032
  630HOH      O 2075   2.153   1.625   3.065
  630HOH     H1 2076   2.131   1.570   2.991
  630HOH     H2 2077   2.071   1.670   3.087
  631HOH      O 2078   2.456   0.537   2.289
  631HOH     H1 2079   2.409   0.475   2.345
  631HOH     H2 2080   2.392   0.561   2.222
  632HOH      O 2081   3.956   3.040   2.144
  632HOH     H1 2082   3.880   2.999   2.102
  632HOH     H2 2083   3.939   3.032   2.238
  633HOH      O 2084   1.811   3.485   0.119
  633HOH     H1 2085   1.746   3.547   0.152
  633HOH     H2 2086   1.829   3.514   0.030
  634HOH      O 2087   0.603   3.538   2.947
  634HOH     H1 2088   0.551   3.489   3.011
  634HOH     H2 2089   0.674   3.577   2.997
  635HOH      O 2090   1.906   3.762   3.671
  635HOH     H1 2091   1.981   3.756   3.731
  635HOH     H2 2092   1.891   3.671   3.644
  636HOH      O 2093   3.955   0.392   1.776
  636HOH     H1 2094   4.039   0.412   1.734
  636HOH     H2 2095   3.895   0.460   1.744
  637HOH      O 2096   3.088   1.256   2.141
  637HOH     H1 2097   3.088   1.300   2.056
  637HOH     H2 2098   3.018   1.191   2.135
  638HOH      O 2099   1.058   3.840   3.020
  638HOH     H1 2100   1.074   3.835   2.926
  638HOH     H2 2101   1.064   3.933   3.041
  639HOH      O 2102   3.786   1.986   0.133
  639HOH     H1 2103   3.840   1.977   0.055
  639HOH     H2 2104   3.698   1.959   0.105
  640HOH      O 2105   3.420   0.921   1.910
  640HOH     H1 2106   3.368   0.841   1.918
  640HOH     H2 2107   3.473   0.923   1.990
  641HOH      O 2108   1.752   3.404   2.421
  641HOH     H1 2109   1.741   3.342   2.493
  641HOH     H2 2110   1.812   3.360   2.361
  642HOH      O 2111   3.271   3.856   1.774
  642HOH     H1 2112   3.290   3.815   1.858
  642HOH     H2 2113   3.288   3.949   1.788
  643HOH      O 2114   2.255   2.310   0.794
  643HOH     H1 2115   2.316   2.353   0.854
  643HOH     H2 2116   2.169   2.339   0.824
  644HOH      O 2117   0.087   3.448   1.581
  644HOH     H1 2118   0.012   3.431   1.524
  644HOH     H2 2119   0.048   3.453   1.669
  645HOH      O 2120   1.187   0.990   3.839
  645HOH     H1 2121   1.173   0.907   3.793
  645HOH     H2 2122   1.145   0.977   3.924
  646HOH      O 2123   2.401   0.635   0.848
  646HOH     H1 2124   2.425   0.696   0.778
  646HOH     H2 2125   2.442   0.671   0.927
  647HOH      O 2126   0.351   2.104   0.930
  647HOH     H1 2127   0.392   2.182   0.969
  647HOH     H2 2128   0.317   2.055   1.005
  648HOH      O 2129   0.742   3.144   3.685
  648HOH     H1 2130   0.701   3.119   3.768
  648HOH     H2 2131   0.789   3.225   3.705
  649HOH      O 2132   2.741   3.552   0.905
  649HOH     H1 2133   2.669   3.614   0.887
  649HOH     H2 2134   2.697   3.468   0.920
  650HOH      O 2135   3.663   3.148   1.964
  650HOH     H1 2136   3.663   3.203   1.886
  650HOH     H2 2137   3.687   3.207   2.036
  651HOH      O 2138   1.652   0.179   2.877
  651HOH     H1 2139   1.710   0.231   2.820
  651HOH     H2 2140   1.710   0.115   2.917
  652HOH      O 2141   3.883   0.839   3.188
  652HOH     H1 2142   3.925   0.766   3.142
  652HOH     H2 2143   3.881   0.909   3.123
  653HOH      O 2144   1.538   1.191   2.051
  653HOH     H1 2145   1.538   1.097   2.066
  653HOH     H2 2146   1.602   1.205   1.981
  654HOH      O 2147   1.842   1.685   0.776
  654HOH     H1 2148   1.784   1.669   0.702
  654HOH     H2 2149   1.930   1.673   0.741
  655HOH      O 2150   3.393   3.812   3.604
  655HOH     H1 2151   3.485   3.788   3.594
  655HOH     H2 2152   3.379   3.880   3.538
  656HOH      O 2153   3.086   2.639   2.574
  656HOH     H1 2154   3.119   2.664   2.660
  656HOH     H2 2155   3.023   2.569   2.592
  657HOH      O 2156   2.466   3.691   0.535
  657HOH     H1 2157   2.373   3.712   0.540
  657HOH     H2 2158   2.469   3.601   0.503
  658HOH      O 2159   0.520   2.683   3.881
  658HOH     H1 2160   0.573   2.744   3.933
  658HOH     H2 2161   0.536   2.598   3.921
  659HOH      O 2162   3.627   4.019   2.273
  659HOH     H1 2163   3.710   4.007   2.228
  659HOH     H2 2164   3.572   3.946   2.242
  660HOH      O 2165   3.514   3.828  -0.001
  660HOH     H1 2166   3.445   3.854  -0.062
  660HOH     H2 2167   3.470   3.775   0.065
  661HOH      O 2168   0.348   2.757   1.907
  661HOH     H1 2169   0.274   2.780   1.850
  661HOH     H2 2170   0.348   2.661   1.906
  662HOH      O 2171   1.942   0.811   1.957
  662HOH     H1 2172   1.917   0.847   2.042
  662HOH     H2 2173   1.981   0.726   1.977
  663HOH      O 2174   3.128   3.184   2.777
  663HOH     H1 2175   3.194   3.190   2.707
  663HOH     H2 2176   3.052   3.230   2.741
  664HOH      O 2177   1.763   3.813   1.304
  664HOH     H1 2178   1.830   3.763   1.259
  664HOH     H2 2179   1.686   3.806   1.247
  665HOH      O 2180   2.425   0.156   2.441
  665HOH     H1 2181   2.363   0.144   2.370
  665HOH     H2 2182   2.504   0.109   2.413
  666HOH      O 2183   1.333   3.093   3.978
  666HOH     H1 2184   1.393   3.041   3.924
  666HOH     H2 2185   1.245   3.064   3.951
  667HOH      O 2186   1.324   2.306   0.810
  667HOH     H1 2187   1.318   2.389   0.858
  667HOH     H2 2188   1.238   2.266   0.823
  668HOH      O 2189   3.612   0.268   3.802
  668HOH     H1 2190   3.690   0.228   3.763
  668HOH     H2 2191   3.585   0.205   3.870
  669HOH      O 2192   1.162   1.653   3.087
  669HOH     H1 2193   1.234   1.657   3.023
  669HOH     H2 2194   1.124   1.740   3.085
  670HOH      O 2195   3.892   2.956   1.375
  670HOH     H1 2196   3.880   3.029   1.315
  670HOH     H2 2197   3.901   2.879   1.318
  671HOH      O 2198   0.564   1.343   0.350
  671HOH     H1 2199   0.576   1.326   0.443
  671HOH     H2 2200   0.475   1.377   0.342
  672HOH      O 2201   0.813   1.099   1.184
  672HOH     H1 2202   0.748   1.163   1.155
  672HOH     H2 2203   0.790   1.082   1.275
  673HOH      O 2204   3.303   0.027   2.468
  673HOH     H1 2205   3.266  -0.058   2.491
  673HOH     H2 2206   3.321   0.069   2.552
  674HOH      O 2207   0.796   0.744   2.214
  674HOH     H1 2208   0.761   0.812   2.271
  674HOH     H2 2209   0.849   0.792   2.150
  675HOH      O 2210   0.274   3.663   3.481
  675HOH     H1 2211   0.184   3.681   3.508
  675HOH     H2 2212   0.275   3.686   3.388
  676HOH      O 2213   2.059   3.864   2.518
  676HOH     H1 2214   2.099   3.936   2.468
  676HOH     H2 2215   1.978   3.901   2.552
  677HOH      O 2216   1.560   2.288   2.915
  677HOH     H1 2217   1.627   2.272   2.982
  677HOH     H2 2218   1.494   2.222   2.932
  678HOH      O 2219   1.255   1.758   0.196
  678HOH     H1 2220   1.206   1.731   0.274
  678HOH     H2 2221   1.194   1.743   0.124
  679HOH      O 2222   3.401   2.582   2.251
  679HOH     H1 2223   3.469   2.550   2.310
  679HOH     H2 2224   3.377   2.507   2.198
  680HOH      O 2225   0.720   2.619   0.797
  680HOH     H1 2226   0.787   2.593   0.733
  680HOH     H2 2227   0.769   2.652   0.872
  681HOH      O 2228   1.111   2.672   2.808
  681HOH     H1 2229   1.121   2.740   2.875
  681HOH     H2 2230   1.134   2.591   2.852
  682HOH      O 2231   0.325   3.129   2.835
  682HOH     H1 2232   0.374   3.087   2.764
  682HOH     H2 2233   0.249   3.168   2.792
  683HOH      O 2234   2.562   0.538   3.963
  683HOH     H1 2235   2.608   0.609   3.919
  683HOH     H2 2236   2.632   0.477   3.989
  684HOH      O 2237   1.476   0.166   2.318
  684HOH     H1 2238   1.390   0.159   2.359
  684HOH     H2 2239   1.513   0.078   2.324
  685HOH      O 2240   3.980   2.296   2.219
  685HOH     H1 2241   4.029   2.218   2.195
  685HOH     H2 2242   4.047   2.361   2.241
  686HOH      O 2243   1.395   2.249   1.672
  686HOH     H1 2244   1.397   2.154   1.663
  686HOH     H2 2245   1.323   2.266   1.732
  687HOH      O 2246   3.425   1.276   1.449
  687HOH     H1 2247   3.369   1.201   1.468
  687HOH     H2 2248   3.373   1.330   1.390
  688HOH      O 2249   1.233   0.944   2.992
  688HOH     H1 2250   1.282   0.904   3.064
  688HOH     H2 2251   1.170   0.876   2.966
  689HOH      O 2252   3.637   1.377   0.367
  689HOH     H1 2253   3.723   1.387   0.326
  689HOH     H2 2254   3.653   1.325   0.445
  690HOH      O 2255   1.473   0.542   0.760
  690HOH     H1 2256   1.532   0.611   0.729
  690HOH     H2 2257   1.387   0.583   0.762
  691HOH      O 2258   1.288   0.371   2.776
  691HOH     H1 2259   1.273   0.461   2.804
  691HOH     H2 2260   1.204   0.327   2.791
  692HOH      O 2261   3.492   0.736   1.705
  692HOH     H1 2262   3.473   0.682   1.782
  692HOH     H2 2263   3.469   0.825   1.732
  693HOH      O 2264   1.775   3.131   3.706
  693HOH     H1 2265   1.793   3.090   3.621
  693HOH     H2 2266   1.845   3.101   3.763
  694HOH      O 2267   1.416   3.454   1.953
  694HOH     H1 2268   1.432   3.363   1.978
  694HOH     H2 2269   1.420   3.503   2.035
  695HOH      O 2270   2.784   1.248   3.876
  695HOH     H1 2271   2.840   1.306   3.927
  695HOH     H2 2272   2.779   1.289   3.790
  696HOH      O 2273   2.502   2.989   3.023
  696HOH     H1 2274   2.587   3.014   3.058
  696HOH     H2 2275   2.500   2.894   3.030
  697HOH      O 2276   3.287   3.727   0.789
  697HOH     H1 2277   3.219   3.675   0.747
  697HOH     H2 2278   3.307   3.680   0.870
  698HOH      O 2279   1.831   3.958   3.510
  698HOH     H1 2280   1.891   4.032   3.507
  698HOH     H2 2281   1.873   3.895   3.569
  699HOH      O 2282   0.306   2.781   0.481
  699HOH     H1 2283   0.221   2.825   0.468
  699HOH     H2 2284   0.341   2.771   0.393
  700HOH      O 2285   2.847   1.939   3.976
  700HOH     H1 2286   2.828   1.914   3.886
  700HOH     H2 2287   2.924   1.888   4.001
  701HOH      O 2288   3.412   2.511   0.424
  701HOH     H1 2289   3.484   2.472   0.474
  701HOH     H2 2290   3.333   2.477   0.466
  702HOH      O 2291   3.582   3.428   2.503
  702HOH     H1 2292   3.624   3.343   2.492
  702HOH     H2 2293   3.652   3.492   2.493
  703HOH      O 2294   2.066   1.158   1.159
  703HOH     H1 2295   1.994   1.131   1.103
  703HOH     H2 2296   2.086   1.247   1.132
  704HOH      O 2297   1.046   2.171   0.833
  704HOH     H1 2298   1.004   2.178   0.919
  704HOH     H2 2299   0.976   2.188   0.771
  705HOH      O 2300   3.567   2.552   0.814
  705HOH     H1 2301   3.615   2.485   0.764
  705HOH     H2 2302   3.479   2.514   0.825
  706HOH      O 2303   2.181   3.112   2.127
  706HOH     H1 2304   2.222   3.197   2.145
  706HOH     H2 2305   2.118   3.100   2.198
  707HOH      O 2306   1.906   1.426   0.384
  707HOH     H1 2307   1.835   1.454   0.327
  707HOH     H2 2308   1.947   1.508   0.414
  708HOH      O 2309   2.830   1.980   1.332
  708HOH     H1 2310   2.787   1.994   1.248
  708HOH     H2 2311   2.914   1.940   1.309
  709HOH      O 2312   2.533   0.704   2.809
  709HOH     H1 2313   2.581   0.754   2.875
  709HOH     H2 2314   2.495   0.771   2.752
  710HOH      O 2315   0.191   2.885   1.585
  710HOH     H1 2316   0.157   2.862   1.671
  710HOH     H2 2317   0.193   2.801   1.538
  711HOH      O 2318   2.510   0.360   0.380
  711HOH     H1 2319   2.605   0.363   0.363
  711HOH     H2 2320   2.475   0.434   0.330
  712HOH      O 2321   0.930   1.933   3.900
  712HOH     H1 2322   0.925   1.896   3.812
  712HOH     H2 2323   0.986   2.010   3.891
  713HOH      O 2324   2.806   0.309   1.214
  713HOH     H1 2325   2.815   0.404   1.211
  713HOH     H2 2326   2.834   0.286   1.303
  714HOH      O 2327   3.406   0.379   2.428
  714HOH     H1 2328   3.443   0.467   2.435
  714HOH     H2 2329   3.327   0.391   2.375
  715HOH      O 2330   0.321   0.620   4.001
  715HOH     H1 2331   0.398   0.565   4.011
  715HOH     H2 2332   0.276   0.585   3.924
  716HOH      O 2333   3.500   3.152   0.580
  716HOH     H1 2334   3.509   3.057   0.589
  716HOH     H2 2335   3.481   3.183   0.669
  717HOH      O 2336   2.530   0.224   3.345
  717HOH     H1 2337   2.591   0.191   3.279
  717HOH     H2 2338   2.550   0.173   3.423
  718HOH      O 2339   0.489   0.913   0.726
  718HOH     H1 2340   0.402   0.950   0.739
  718HOH     H2 2341   0.519   0.951   0.644
  719HOH      O 2342   3.670   1.263   0.068
  719HOH     H1 2343   3.583   1.264   0.108
  719HOH     H2 2344   3.704   1.351   0.083
  720HOH      O 2345   2.626   0.984   0.909
  720HOH     H1 2346   2.598   1.068   0.872
  720HOH     H2 2347   2.697   1.007   0.969
  721HOH      O 2348   2.711   2.637   0.517
  721HOH     H1 2349   2.659   2.716   0.531
  721HOH     H2 2350   2.801   2.669   0.507
  722HOH      O 2351   2.103   1.635   0.668
  722HOH     H1 2352   2.169   1.567   0.656
  722HOH     H2 2353   2.134   1.708   0.615
  723HOH      O 2354   3.557   2.946   1.550
  723HOH     H1 2355   3.550   2.881   1.479
  723HOH     H2 2356   3.481   2.929   1.606
  724HOH      O 2357   0.870   1.098   2.314
  724HOH     H1 2358   0.791   1.057   2.348
  724HOH     H2 2359   0.941   1.064   2.369
  725HOH      O 2360   3.019   3.988   3.526
  725HOH     H1 2361   3.078   4.059   3.500
  725HOH     H2 2362   2.961   4.027   3.591
  726HOH      O 2363   2.149   1.345   3.398
  726HOH     H1 2364   2.182   1.408   3.463
  726HOH     H2 2365   2.201   1.266   3.414
  727HOH      O 2366   0.797   2.264   0.245
  727HOH     H1 2367   0.720   2.220   0.279
  727HOH     H2 2368   0.830   2.316   0.319
  728HOH      O 2369   1.911   1.707   1.130
  728HOH     H1 2370   1.828   1.754   1.118
  728HOH     H2 2371   1.908   1.675   1.220
  729HOH      O 2372   3.060   1.809   1.738
  729HOH     H1 2373   3.035   1.766   1.820
  729HOH     H2 2374   3.155   1.801   1.735
  730HOH      O 2375   0.450   1.846   3.977
  730HOH     H1 2376   0.388   1.905   4.020
  730HOH     H2 2377   0.536   1.871   4.012
  731HOH      O 2378   0.855   1.009   1.675
  731HOH     H1 2379   0.839   0.919   1.645
  731HOH     H2 2380   0.931   1.001   1.732
  732HOH      O 2381   1.324   0.071   3.972
  732HOH     H1 2382   1.294  -0.019   3.962
  732HOH     H2 2383   1.248   0.119   4.005
  733HOH      O 2384   2.736   3.782   0.554
  733HOH     H1 2385   2.722   3.874   0.531
  733HOH     H2 2386   2.660   3.736   0.516
  734HOH      O 2387   0.327   0.189   1.506
  734HOH     H1 2388   0.267   0.165   1.435
  734HOH     H2 2389   0.297   0.137   1.581
  735HOH      O 2390   0.569   1.449   0.755
  735HOH     H1 2391   0.564   1.387   0.682
  735HOH     H2 2392   0.483   1.446   0.796
  736HOH      O 2393   3.329   1.748   1.654
  736HOH     H1 2394   3.318   1.663   1.696
  736HOH     H2 2395   3.412   1.740   1.606
  737HOH      O 2396   2.336   1.502   3.546
  737HOH     H1 2397   2.333   1.568   3.615
  737HOH     H2 2398   2.375   1.425   3.587
  738HOH      O 2399   0.052   1.810   1.848
  738HOH     H1 2400  -0.008   1.857   1.906
  738HOH     H2 2401  -0.005   1.755   1.794
  739HOH      O 2402   0.347   3.307   2.518
  739HOH     H1 2403   0.395   3.242   2.467
  739HOH     H2 2404   0.395   3.313   2.601
  740HOH      O 2405   0.895   2.564   0.993
  740HOH     H1 2406   0.900   2.468   1.000
  740HOH     H2 2407   0.976   2.589   0.949
  741HOH      O 2408   1.888   1.521   2.162
  741HOH     H1 2409   1.983   1.530   2.154
  741HOH     H2 2410   1.853   1.568   2.087
  742HOH      O 2411   3.327   2.657   1.423
  742HOH     H1 2412   3.265   2.645   1.351
  742HOH     H2 2413   3.354   2.568   1.447
  743HOH      O 2414   0.886   0.471   0.410
  743HOH     H1 2415   0.897   0.381   0.441
  743HOH     H2 2416   0.975   0.500   0.388
  744HOH      O 2417   1.117   2.698   0.884
  744HOH     H1 2418   1.160   2.754   0.819
  744HOH     H2 2419   1.188   2.648   0.924
  745HOH      O 2420   1.836   0.572   3.105
  745HOH     H1 2421   1.856   0.665   3.095
  745HOH     H2 2422   1.922   0.530   3.111
  746HOH      O 2423   2.821   3.640   2.240
  746HOH     H1 2424   2.753   3.629   2.173
  746HOH     H2 2425   2.894   3.588   2.209
  747HOH      O 2426   3.413   0.265   1.424
  747HOH     H1 2427   3.489   0.206   1.425
  747HOH     H2 2428   3.443   0.344   1.470
  748HOH      O 2429   3.141   2.421   2.329
  748HOH     H1 2430   3.201   2.485   2.367
  748HOH     H2 2431   3.178   2.401   2.243
  749HOH      O 2432   4.013   0.916   3.677
  749HOH     H1 2433   3.928   0.960   3.674
  749HOH     H2 2434   4.039   0.919   3.769
  750HOH      O 2435   0.079   0.894   3.395
  750HOH     H1 2436   0.134   0.972   3.399
  750HOH     H2 2437   0.066   0.869   3.487
  751HOH      O 2438   3.705   3.206   2.564
  751HOH     H1 2439   3.674   3.223   2.653
  751HOH     H2 2440   3.783   3.152   2.575
  752HOH      O 2441   3.051   1.219   1.349
  752HOH     H1 2442   2.979   1.156   1.344
  752HOH     H2 2443   3.008   1.304   1.343
  753HOH      O 2444   3.039   2.145   0.318
  753HOH     H1 2445   3.046   2.239   0.303
  753HOH     H2 2446   2.963   2.119   0.266
  754HOH      O 2447   3.287   3.294   3.793
  754HOH     H1 2448   3.329   3.373   3.827
  754HOH     H2 2449   3.318   3.287   3.703
  755HOH      O 2450   1.086   3.136   1.081
  755HOH     H1 2451   1.116   3.160   1.168
  755HOH     H2 2452   1.012   3.195   1.065
  756HOH      O 2453   3.067   3.111   3.297
  756HOH     H1 2454   3.159   3.129   3.277
  756HOH     H2 2455   3.025   3.107   3.211
  757HOH      O 2456   0.730   0.184   0.281
  757HOH     H1 2457   0.652   0.146   0.322
  757HOH     H2 2458   0.791   0.197   0.353
  758HOH      O 2459   2.372   1.264   1.115
  758HOH     H1 2460   2.299   1.325   1.105
  758HOH     H2 2461   2.373   1.213   1.034
  759HOH      O 2462   0.667   2.320   1.206
  759HOH     H1 2463   0.661   2.415   1.207
  759HOH     H2 2464   0.644   2.293   1.295
  760HOH      O 2465   2.305   0.109   2.803
  760HOH     H1 2466   2.303   0.125   2.898
  760HOH     H2 2467   2.295   0.196   2.764
  761HOH      O 2468   2.437   2.998   3.299
  761HOH     H1 2469   2.451   2.984   3.206
  761HOH     H2 2470   2.522   2.980   3.339
  762HOH      O 2471   1.095   0.863   0.467
  762HOH     H1 2472   1.027   0.797   0.458
  762HOH     H2 2473   1.056   0.944   0.433
  763HOH      O 2474   0.790   1.673   0.189
  763HOH     H1 2475   0.792   1.751   0.133
  763HOH     H2 2476   0.759   1.603   0.132
  764HOH      O 2477   2.482   0.971   2.302
  764HOH     H1 2478   2.526   1.030   2.363
  764HOH     H2 2479   2.519   0.885   2.321
  765HOH      O 2480   3.299   2.156   3.967
  765HOH     H1 2481   3.301   2.230   3.907
  765HOH     H2 2482   3.291   2.195   4.054
  766HOH      O 2483   0.929   1.291   1.659
  766HOH     H1 2484   0.901   1.318   1.746
  766HOH     H2 2485   0.892   1.204   1.647
  767HOH      O 2486   1.567   0.929   2.815
  767HOH     H1 2487   1.581   0.855   2.874
  767HOH     H2 2488   1.553   1.004   2.872
  768HOH      O 2489   0.811   2.195   0.651
  768HOH     H1 2490   0.754   2.234   0.717
  768HOH     H2 2491   0.803   2.100   0.665
  769HOH      O 2492   2.906   0.082   3.776
  769HOH     H1 2493   2.944   0.011   3.827
  769HOH     H2 2494   2.813   0.080   3.799
  770HOH      O 2495   2.971   2.432   2.778
  770HOH     H1 2496   2.962   2.364   2.711
  770HOH     H2 2497   3.018   2.390   2.849
  771HOH      O 2498   1.362   3.265   1.334
  771HOH     H1 2499   1.273   3.234   1.319
  771HOH     H2 2500   1.360   3.357   1.308
  772HOH      O 2501   2.031   2.291   3.719
  772HOH     H1 2502   1.970   2.361   3.740
  772HOH     H2 2503   2.000   2.254   3.637
  773HOH      O 2504   0.336   1.542   2.203
  773HOH     H1 2505   0.294   1.461   2.174
  773HOH     H2 2506   0.328   1.601   2.129
  774HOH      O 2507   2.776   3.951   0.219
  774HOH     H1 2508   2.870   3.955   0.238
  774HOH     H2 2509   2.762   4.019   0.153
  775HOH      O 2510   3.012   0.076   1.206
  775HOH     H1 2511   3.090   0.020   1.209
  775HOH     H2 2512   2.950   0.028   1.151
  776HOH      O 2513   1.422   1.529   0.117
  776HOH     H1 2514   1.416   1.621   0.140
  776HOH     H2 2515   1.428   1.527   0.022
  777HOH      O 2516   1.251   3.881   0.750
  777HOH     H1 2517   1.282   3.952   0.692
  777HOH     H2 2518   1.193   3.829   0.694
  778HOH      O 2519   3.625   0.700   3.580
  778HOH     H1 2520   3.646   0.732   3.668
  778HOH     H2 2521   3.684   0.747   3.522
  779HOH      O 2522   1.908   0.949   2.195
  779HOH     H1 2523   1.890   1.030   2.147
  779HOH     H2 2524   1.994   0.964   2.235
  780HOH      O 2525   3.066   3.618   0.066
  780HOH     H1 2526   3.018   3.614   0.149
  780HOH     H2 2527   3.156   3.594   0.089
  781HOH      O 2528   2.260   2.428   2.693
  781HOH     H1 2529   2.262   2.334   2.710
  781HOH     H2 2530   2.193   2.439   2.626
  782HOH      O 2531   1.498   3.400   1.034
  782HOH     H1 2532   1.584   3.397   1.077
  782HOH     H2 2533   1.436   3.386   1.105
  783HOH      O 2534   0.561   2.990   2.700
  783HOH     H1 2535   0.534   2.923   2.764
  783HOH     H2 2536   0.654   2.974   2.688
  784HOH      O 2537   1.550   1.718   0.881
  784HOH     H1 2538   1.639   1.711   0.847
  784HOH     H2 2539   1.499   1.751   0.808
  785HOH      O 2540   3.834   2.433   3.530
  785HOH     H1 2541   3.812   2.434   3.436
  785HOH     H2 2542   3.798   2.350   3.561
  786HOH      O 2543   1.461   1.045   3.785
  786HOH     H1 2544   1.386   0.989   3.807
  786HOH     H2 2545   1.433   1.133   3.811
  787HOH      O 2546   2.818   1.513   2.918
  787HOH     H1 2547   2.851   1.499   2.829
  787HOH     H2 2548   2.789   1.604   2.919
  788HOH      O 2549   2.429   1.203   0.812
  788HOH     H1 2550   2.363   1.140   0.840
  788HOH     H2 2551   2.383   1.261   0.751
  789HOH      O 2552   3.785   0.464   0.496
  789HOH     H1 2553   3.746   0.547   0.469
  789HOH     H2 2554   3.740   0.398   0.443
  790HOH      O 2555   0.483   1.527   2.460
  790HOH     H1 2556   0.527   1.443   2.446
  790HOH     H2 2557   0.444   1.548   2.375
  791HOH      O 2558   3.476   0.077   0.231
  791HOH     H1 2559   3.502   0.038   0.314
  791HOH     H2 2560   3.381   0.069   0.229
  792HOH      O 2561   1.724   0.591   2.194
  792HOH     H1 2562   1.661   0.543   2.247
  792HOH     H2 2563   1.772   0.524   2.146
  793HOH      O 2564   1.131   1.014   2.414
  793HOH     H1 2565   1.164   0.938   2.366
  793HOH     H2 2566   1.200   1.079   2.406
  794HOH      O 2567   0.660   0.068   3.697
  794HOH     H1 2568   0.733   0.108   3.649
  794HOH     H2 2569   0.636   0.133   3.763
  795HOH      O 2570   1.608   1.321   2.283
  795HOH     H1 2571   1.684   1.265   2.303
  795HOH     H2 2572   1.570   1.282   2.205
  796HOH      O 2573   2.731   3.418   2.771
  796HOH     H1 2574   2.671   3.390   2.840
  796HOH     H2 2575   2.676   3.424   2.692
  797HOH      O 2576   1.034   1.524   1.557
  797HOH     H1 2577   0.991   1.442   1.580
  797HOH     H2 2578   1.124   1.499   1.537
  798HOH      O 2579   2.363   0.635   1.641
  798HOH     H1 2580   2.320   0.718   1.664
  798HOH     H2 2581   2.358   0.582   1.721
  799HOH      O 2582   1.253   2.493   2.510
  799HOH     H1 2583   1.162   2.474   2.535
  799HOH     H2 2584   1.261   2.587   2.520
  800HOH      O 2585   2.653   1.234   0.450
  800HOH     H1 2586   2.573   1.217   0.399
  800HOH     H2 2587   2.719   1.256   0.385
  801HOH      O 2588   2.844   0.422   2.911
  801HOH     H1 2589   2.871   0.436   3.002
  801HOH     H2 2590   2.880   0.497   2.864
  802HOH      O 2591   3.803   2.015   2.262
  802HOH     H1 2592   3.749   1.958   2.317
  802HOH     H2 2593   3.752   2.095   2.253
  803HOH      O 2594   2.713   1.059   3.097
  803HOH     H1 2595   2.793   1.071   3.045
  803HOH     H2 2596   2.725   1.116   3.172
  804HOH      O 2597   0.419   2.503   1.404
  804HOH     H1 2598   0.497   2.535   1.360
  804HOH     H2 2599   0.422   2.408   1.393
  805HOH      O 2600   1.166   3.904   1.151
  805HOH     H1 2601   1.165   3.940   1.240
  805HOH     H2 2602   1.179   3.981   1.095
  806HOH      O 2603   3.400   0.897   1.163
  806HOH     H1 2604   3.432   0.923   1.076
  806HOH     H2 2605   3.427   0.968   1.221
  807HOH      O 2606   0.801   1.932   0.773
  807HOH     H1 2607   0.850   1.942   0.855
  807HOH     H2 2608   0.719   1.889   0.799
  808HOH      O 2609   2.606   0.919   1.293
  808HOH     H1 2610   2.518   0.918   1.254
  808HOH     H2 2611   2.599   0.862   1.370
  809HOH      O 2612   0.486   0.088   0.356
  809HOH     H1 2613   0.403   0.123   0.322
  809HOH     H2 2614   0.475  -0.007   0.351
  810HOH      O 2615   2.147   3.722   2.963
  810HOH     H1 2616   2.239   3.697   2.951
  810HOH     H2 2617   2.146   3.816   2.949
  811HOH      O 2618   0.440   1.506   4.042
  811HOH     H1 2619   0.358   1.490   3.994
  811HOH     H2 2620   0.504   1.451   3.997
  812HOH      O 2621   0.340   3.483   1.766
  812HOH     H1 2622   0.267   3.511   1.710
  812HOH     H2 2623   0.303   3.417   1.824
  813HOH      O 2624   3.877   0.055   0.637
  813HOH     H1 2625   3.912   0.024   0.721
  813HOH     H2 2626   3.893   0.150   0.638
  814HOH      O 2627   3.095   1.659   1.928
  814HOH     H1 2628   3.172   1.603   1.937
  814HOH     H2 2629   3.025   1.612   1.974
  815HOH      O 2630   3.524   2.143   2.475
  815HOH     H1 2631   3.447   2.111   2.521
  815HOH     H2 2632   3.598   2.115   2.528
  816HOH      O 2633   2.809   2.760   2.046
  816HOH     H1 2634   2.797   2.831   2.109
  816HOH     H2 2635   2.804   2.802   1.960
  817HOH      O 2636   0.044   0.327   4.036
  817HOH     H1 2637   0.045   0.337   3.941
  817HOH     H2 2638  -0.020   0.258   4.052
  818HOH      O 2639   1.652   2.925   0.087
  818HOH     H1 2640   1.599   2.998   0.119
  818HOH     H2 2641   1.730   2.965   0.050
  819HOH      O 2642   0.943   1.781   0.607
  819HOH     H1 2643   0.903   1.806   0.690
  819HOH     H2 2644   0.879   1.721   0.568
  820HOH      O 2645   3.337   3.750   0.341
  820HOH     H1 2646   3.425   3.743   0.377
  820HOH     H2 2647   3.302   3.661   0.345
  821HOH      O 2648   1.155   3.353   3.268
  821HOH     H1 2649   1.087   3.325   3.330
  821HOH     H2 2650   1.106   3.376   3.189
  822HOH      O 2651   0.405   0.942   2.860
  822HOH     H1 2652   0.397   1.034   2.837
  822HOH     H2 2653   0.334   0.899   2.813
  823HOH      O 2654   3.176   3.663   3.842
  823HOH     H1 2655   3.271   3.658   3.853
  823HOH     H2 2656   3.143   3.668   3.932
  824HOH      O 2657   2.618   0.573   0.659
  824HOH     H1 2658   2.556   0.616   0.601
  824HOH     H2 2659   2.564   0.532   0.726
  825HOH      O 2660   3.861   0.059  -0.033
  825HOH     H1 2661   3.912   0.094   0.040
  825HOH     H2 2662   3.775   0.040   0.004
  826HOH      O 2663   3.252   0.695   1.920
  826HOH     H1 2664   3.200   0.634   1.868
  826HOH     H2 2665   3.215   0.688   2.008
  827HOH      O 2666   0.920   3.359   1.021
  827HOH     H1 2667   0.875   3.351   0.936
  827HOH     H2 2668   0.900   3.449   1.049
  828HOH      O 2669   2.858   2.703   1.515
  828HOH     H1 2670   2.836   2.624   1.564
  828HOH     H2 2671   2.940   2.734   1.555
  829HOH      O 2672   3.051   0.534   2.721
  829HOH     H1 2673   3.127   0.584   2.691
  829HOH     H2 2674   3.055   0.453   2.671
  830HOH      O 2675   0.434   3.121   3.602
  830HOH     H1 2676   0.527   3.118   3.626
  830HOH     H2 2677   0.422   3.209   3.567
  831HOH      O 2678   3.218   0.692   2.206
  831HOH     H1 2679   3.308   0.678   2.238
  831HOH     H2 2680   3.208   0.787   2.204
  832HOH      O 2681   0.406   0.482   1.273
  832HOH     H1 2682   0.317   0.493   1.241
  832HOH     H2 2683   0.427   0.391   1.256
  833HOH      O 2684   0.186   1.067   0.625
  833HOH     H1 2685   0.184   1.145   0.570
  833HOH     H2 2686   0.221   1.097   0.708
  834HOH      O 2687   0.914   2.284   1.060
  834HOH     H1 2688   0.955   2.308   1.143
  834HOH     H2 2689   0.822   2.272   1.081
  835HOH      O 2690   2.597   3.962   2.320
  835HOH     H1 2691   2.636   3.892   2.372
  835HOH     H2 2692   2.542   3.917   2.256
  836HOH      O 2693   1.268   3.519   2.938
  836HOH     H1 2694   1.294   3.609   2.955
  836HOH     H2 2695   1.181   3.527   2.897
  837HOH      O 2696   2.235   1.666   3.326
  837HOH     H1 2697   2.266   1.588   3.372
  837HOH     H2 2698   2.203   1.632   3.242
  838HOH      O 2699   0.152   1.350   1.995
  838HOH     H1 2700   0.179   1.265   2.030
  838HOH     H2 2701   0.062   1.362   2.026
  839HOH      O 2702   1.955   2.135   0.160
  839HOH     H1 2703   2.049   2.140   0.146
  839HOH     H2 2704   1.918   2.121   0.073
  840HOH      O 2705   3.945   1.729   2.378
  840HOH     H1 2706   3.901   1.658   2.331
  840HOH     H2 2707   3.983   1.686   2.455
  841HOH      O 2708   2.833   2.059   2.992
  841HOH     H1 2709   2.918   2.051   2.949
  841HOH     H2 2710   2.788   2.128   2.942
  842HOH      O 2711   1.111   2.344   0.314
  842HOH     H1 2712   1.039   2.368   0.371
  842HOH     H2 2713   1.127   2.423   0.262
  843HOH      O 2714   0.905   2.496   1.963
  843HOH     H1 2715   0.831   2.445   1.930
  843HOH     H2 2716   0.913   2.471   2.055
  844HOH      O 2717   2.164   3.000   1.471
  844HOH     H1 2718   2.228   3.063   1.504
  844HOH     H2 2719   2.091   3.053   1.441
  845HOH      O 2720   0.327   1.766   3.350
  845HOH     H1 2721   0.362   1.855   3.345
  845HOH     H2 2722   0.403   1.710   3.332
  846HOH      O 2723   3.742   3.542   1.107
  846HOH     H1 2724   3.747   3.456   1.063
  846HOH     H2 2725   3.649   3.564   1.105
  847HOH      O 2726   1.042   3.638   1.739
  847HOH     H1 2727   1.021   3.684   1.820
  847HOH     H2 2728   1.046   3.546   1.764
  848HOH      O 2729   0.294   3.153   0.088
  848HOH     H1 2730   0.327   3.173   0.001
  848HOH     H2 2731   0.199   3.162   0.081
  849HOH      O 2732   0.171   1.224   1.683
  849HOH     H1 2733   0.211   1.163   1.745
  849HOH     H2 2734   0.219   1.306   1.696
  850HOH      O 2735   2.249   2.182   3.846
  850HOH     H1 2736   2.180   2.205   3.784
  850HOH     H2 2737   2.224   2.227   3.927
  851HOH      O 2738   3.114   1.004   1.912
  851HOH     H1 2739   3.208   1.000   1.927
  851HOH     H2 2740   3.103   1.059   1.835
  852HOH      O 2741   0.078   2.815   1.823
  852HOH     H1 2742   0.059   2.723   1.841
  852HOH     H2 2743   0.001   2.862   1.853
  853HOH      O 2744   4.002   3.844   3.976
  853HOH     H1 2745   3.986   3.935   3.952
  853HOH     H2 2746   3.921   3.798   3.952
  854HOH      O 2747   2.600   4.008   1.151
  854HOH     H1 2748   2.655   4.059   1.092
  854HOH     H2 2749   2.659   3.942   1.187
  855HOH      O 2750   0.795   2.844   3.504
  855HOH     H1 2751   0.843   2.925   3.485
  855HOH     H2 2752   0.703   2.871   3.508
  856HOH      O 2753   1.495   2.640   0.709
  856HOH     H1 2754   1.446   2.649   0.626
  856HOH     H2 2755   1.436   2.591   0.766
  857HOH      O 2756   2.264   3.395   2.254
  857HOH     H1 2757   2.215   3.387   2.335
  857HOH     H2 2758   2.235   3.478   2.216
  858HOH      O 2759   1.299   1.553   2.574
  858HOH     H1 2760   1.215   1.567   2.530
  858HOH     H2 2761   1.284   1.477   2.631
  859HOH      O 2762   1.576   1.182   1.187
  859HOH     H1 2763   1.573   1.165   1.093
  859HOH     H2 2764   1.507   1.127   1.224
  860HOH      O 2765   2.411   3.386   1.432
  860HOH     H1 2766   2.365   3.380   1.348
  860HOH     H2 2767   2.428   3.479   1.443
  861HOH      O 2768   1.210   0.777   2.678
  861HOH     H1 2769   1.119   0.806   2.668
  861HOH     H2 2770   1.209   0.726   2.760
  862HOH      O 2771   3.475   1.231   3.134
  862HOH     H1 2772   3.509   1.177   3.206
  862HOH     H2 2773   3.403   1.280   3.173
  863HOH      O 2774   1.559   1.952   3.163
  863HOH     H1 2775   1.587   1.893   3.093
  863HOH     H2 2776   1.556   1.896   3.241
  864HOH      O 2777   3.132   3.103   1.010
  864HOH     H1 2778   3.058   3.148   0.970
  864HOH     H2 2779   3.186   3.075   0.936
  865HOH      O 2780   0.395   2.387   1.030
  865HOH     H1 2781   0.362   2.377   1.119
  865HOH     H2 2782   0.439   2.472   1.030
  866HOH      O 2783   2.888   1.469   2.203
  866HOH     H1 2784   2.819   1.405   2.189
  866HOH     H2 2785   2.969   1.422   2.181
  867HOH      O 2786   1.424   0.300   3.249
  867HOH     H1 2787   1.486   0.290   3.320
  867HOH     H2 2788   1.478   0.316   3.172
  868HOH      O 2789   3.435   2.079   0.395
  868HOH     H1 2790   3.410   1.990   0.421
  868HOH     H2 2791   3.530   2.079   0.399
  869HOH      O 2792   3.224   1.697   2.228
  869HOH     H1 2793   3.239   1.632   2.159
  869HOH     H2 2794   3.228   1.647   2.309
  870HOH      O 2795   2.360   3.292   0.224
  870HOH     H1 2796   2.346   3.370   0.171
  870HOH     H2 2797   2.350   3.219   0.162
  871HOH      O 2798   1.278   2.965   2.298
  871HOH     H1 2799   1.347   3.004   2.244
  871HOH     H2 2800   1.312   2.878   2.320
  872HOH      O 2801   2.087   0.835   1.086
  872HOH     H1 2802   2.088   0.755   1.140
  872HOH     H2 2803   2.003   0.875   1.106
  873HOH      O 2804   3.035   1.826   1.189
  873HOH     H1 2805   2.957   1.830   1.133
  873HOH     H2 2806   3.107   1.815   1.127
  874HOH      O 2807   1.957   2.010   1.794
  874HOH     H1 2808   1.992   1.980   1.878
  874HOH     H2 2809   1.975   2.104   1.793
  875HOH      O 2810   2.406   0.354   0.629
  875HOH     H1 2811   2.455   0.366   0.548
  875HOH     H2 2812   2.320   0.392   0.611
  876HOH      O 2813   2.523   3.198   3.749
  876HOH     H1 2814   2.601   3.189   3.694
  876HOH     H2 2815   2.496   3.289   3.738
  877HOH      O 2816   0.619   3.102   1.779
  877HOH     H1 2817   0.563   3.088   1.703
  877HOH     H2 2818   0.647   3.193   1.773
  878HOH      O 2819   3.368   2.842   2.213
  878HOH     H1 2820   3.382   2.750   2.232
  878HOH     H2 2821   3.277   2.858   2.238
  879HOH      O 2822   3.899   2.383   1.052
  879HOH     H1 2823   3.943   2.345   0.976
  879HOH     H2 2824   3.967   2.392   1.118
  880HOH      O 2825   2.451   2.642   0.159
  880HOH     H1 2826   2.403   2.712   0.113
  880HOH     H2 2827   2.539   2.677   0.172
  881HOH      O 2828   0.683   1.377   1.270
  881HOH     H1 2829   0.718   1.455   1.314
  881HOH     H2 2830   0.708   1.388   1.178
  882HOH      O 2831   0.466   0.401   1.613
  882HOH     H1 2832   0.429   0.335   1.554
  882HOH     H2 2833   0.413   0.395   1.692
  883HOH      O 2834   3.968   3.443   2.995
  883HOH     H1 2835   3.958   3.354   2.961
  883HOH     H2 2836   3.890   3.489   2.963
  884HOH      O 2837   1.169   2.058   0.352
  884HOH     H1 2838   1.168   2.018   0.439
  884HOH     H2 2839   1.137   2.147   0.366
  885HOH      O 2840   2.852   0.789   0.661
  885HOH     H1 2841   2.812   0.754   0.740
  885HOH     H2 2842   2.871   0.711   0.608
  886HOH      O 2843   0.606   3.039   3.890
  886HOH     H1 2844   0.621   3.039   3.985
  886HOH     H2 2845   0.512   3.027   3.881
  887HOH      O 2846   3.928   3.246   3.252
  887HOH     H1 2847   3.935   3.245   3.157
  887HOH     H2 2848   3.855   3.305   3.271
  888HOH      O 2849   2.419   2.313   0.482
  888HOH     H1 2850   2.377   2.232   0.513
  888HOH     H2 2851   2.412   2.373   0.555
  889HOH      O 2852   3.767   1.711   0.576
  889HOH     H1 2853   3.801   1.659   0.503
  889HOH     H2 2854   3.770   1.651   0.651
  890HOH      O 2855   0.244   3.548   3.937
  890HOH     H1 2856   0.290   3.470   3.970
  890HOH     H2 2857   0.168   3.513   3.891
  891HOH      O 2858   3.999   3.094   3.774
  891HOH     H1 2859   3.974   3.184   3.794
  891HOH     H2 2860   4.040   3.099   3.688
  892HOH      O 2861   2.411   0.902   0.753
  892HOH     H1 2862   2.352   0.942   0.817
  892HOH     H2 2863   2.499   0.921   0.787
  893HOH      O 2864   0.098   2.642   0.195
  893HOH     H1 2865   0.157   2.643   0.120
  893HOH     H2 2866   0.020   2.597   0.164
  894HOH      O 2867   1.309   1.906   2.418
  894HOH     H1 2868   1.259   1.826   2.402
  894HOH     H2 2869   1.293   1.926   2.510
  895HOH      O 2870   2.242   2.979   1.893
  895HOH     H1 2871   2.288   3.057   1.861
  895HOH     H2 2872   2.213   3.003   1.980
  896HOH      O 2873   1.846   3.033   3.464
  896HOH     H1 2874   1.789   3.078   3.402
  896HOH     H2 2875   1.931   3.076   3.454
  897HOH      O 2876   2.872   2.904   1.821
  897HOH     H1 2877   2.925   2.886   1.743
  897HOH     H2 2878   2.922   2.970   1.869
  898HOH      O 2879   1.880   2.093   0.437
  898HOH     H1 2880   1.899   2.112   0.345
  898HOH     H2 2881   1.787   2.072   0.438
  899HOH      O 2882   3.477   0.256   3.571
  899HOH     H1 2883   3.472   0.351   3.584
  899HOH     H2 2884   3.507   0.221   3.655
  900HOH      O 2885   1.752   3.390   1.755
  900HOH     H1 2886   1.744   3.484   1.771
  900HOH     H2 2887   1.662   3.361   1.740
  901HOH      O 2888   2.460   0.687   1.091
  901HOH     H1 2889   2.436   0.608   1.139
  901HOH     H2 2890   2.426   0.759   1.145
  902HOH      O 2891   0.051   0.190   1.042
  902HOH     H1 2892   0.065   0.282   1.068
  902HOH     H2 2893   0.028   0.195   0.949
  903HOH      O 2894   3.254   0.796   1.510
  903HOH     H1 2895   3.306   0.784   1.589
  903HOH     H2 2896   3.225   0.708   1.486
  904HOH      O 2897   0.137   3.769   2.052
  904HOH     H1 2898   0.172   3.695   2.101
  904HOH     H2 2899   0.187   3.844   2.084
  905HOH      O 2900   1.963   2.170   1.176
  905HOH     H1 2901   1.999   2.175   1.088
  905HOH     H2 2902   1.874   2.137   1.164
  906HOH      O 2903   0.638   1.943   2.452
  906HOH     H1 2904   0.607   1.915   2.366
  906HOH     H2 2905   0.642   2.039   2.447
  907HOH      O 2906   1.071   1.420   1.231
  907HOH     H1 2907   0.996   1.365   1.254
  907HOH     H2 2908   1.123   1.365   1.173
  908HOH      O 2909   2.771   3.916   2.108
  908HOH     H1 2910   2.740   3.952   2.191
  908HOH     H2 2911   2.782   3.822   2.125
  909HOH      O 2912   0.821   0.374   1.118
  909HOH     H1 2913   0.863   0.460   1.124
  909HOH     H2 2914   0.837   0.334   1.204
  910HOH      O 2915   1.943   2.595   0.031
  910HOH     H1 2916   2.000   2.522   0.008
  910HOH     H2 2917   1.862   2.553   0.062
  911HOH      O 2918   1.384   3.766   0.999
  911HOH     H1 2919   1.341   3.811   0.925
  911HOH     H2 2920   1.349   3.809   1.077
  912HOH      O 2921   2.083   0.475   1.462
  912HOH     H1 2922   2.096   0.501   1.554
  912HOH     H2 2923   2.125   0.389   1.456
  913HOH      O 2924   0.827   0.692   0.175
  913HOH     H1 2925   0.833   0.741   0.257
  913HOH     H2 2926   0.808   0.602   0.202
  914HOH      O 2927   1.176   0.386   3.515
  914HOH     H1 2928   1.109   0.444   3.480
  914HOH     H2 2929   1.186   0.413   3.606
  915HOH      O 2930   2.634   3.225   2.513
  915HOH     H1 2931   2.725   3.241   2.489
  915HOH     H2 2932   2.594   3.191   2.433
  916HOH      O 2933   1.483   1.798   1.327
  916HOH     H1 2934   1.460   1.886   1.357
  916HOH     H2 2935   1.532   1.760   1.400
  917HOH      O 2936   3.674   3.474   3.973
  917HOH     H1 2937   3.637   3.436   4.053
  917HOH     H2 2938   3.738   3.409   3.943
  918HOH      O 2939   1.346   0.744   0.428
  918HOH     H1 2940   1.381   0.722   0.514
  918HOH     H2 2941   1.259   0.780   0.446
  919HOH      O 2942   0.118   2.177   0.023
  919HOH     H1 2943   0.119   2.252  -0.036
  919HOH     H2 2944   0.107   2.215   0.110
  920HOH      O 2945   3.163   3.184   1.675
  920HOH     H1 2946   3.203   3.151   1.595
  920HOH     H2 2947   3.077   3.216   1.648
  921HOH      O 2948   0.288   2.812   0.876
  921HOH     H1 2949   0.207   2.765   0.894
  921HOH     H2 2950   0.263   2.880   0.814
  922HOH      O 2951   0.860   2.687   0.195
  922HOH     H1 2952   0.849   2.632   0.273
  922HOH     H2 2953   0.941   2.735   0.211
  923HOH      O 2954   1.826   0.219   0.694
  923HOH     H1 2955   1.831   0.126   0.717
  923HOH     H2 2956   1.853   0.265   0.773
  924HOH      O 2957   1.223   1.831   2.041
  924HOH     H1 2958   1.164   1.900   2.011
  924HOH     H2 2959   1.307   1.875   2.053
  925HOH      O 2960   0.849   0.228   3.366
  925HOH     H1 2961   0.758   0.211   3.339
  925HOH     H2 2962   0.848   0.221   3.461
  926HOH      O 2963   1.034   3.357   0.229
  926HOH     H1 2964   0.992   3.438   0.258
  926HOH     H2 2965   1.010   3.292   0.295
  927HOH      O 2966   2.276   1.390   0.668
  927HOH     H1 2967   2.347   1.451   0.646
  927HOH     H2 2968   2.257   1.345   0.586
  928HOH      O 2969   0.035   2.232   2.657
  928HOH     H1 2970   0.034   2.163   2.590
  928HOH     H2 2971   0.079   2.306   2.614
  929HOH      O 2972   2.852   1.471   2.653
  929HOH     H1 2973   2.780   1.412   2.629
  929HOH     H2 2974   2.880   1.510   2.570
  930HOH      O 2975   2.526   0.621   3.102
  930HOH     H1 2976   2.453   0.628   3.041
  930HOH     H2 2977   2.515   0.696   3.161
  931HOH      O 2978   3.763   2.965   0.943
  931HOH     H1 2979   3.719   2.938   1.023
  931HOH     H2 2980   3.750   2.891   0.883
  932HOH      O 2981   3.787   3.147   0.731
  932HOH     H1 2982   3.790   3.078   0.798
  932HOH     H2 2983   3.778   3.099   0.649
  933HOH      O 2984   0.025   1.497   1.508
  933HOH     H1 2985   0.044   1.516   1.599
  933HOH     H2 2986  -0.063   1.532   1.493
  934HOH      O 2987   1.585   1.478   2.772
  934HOH     H1 2988   1.589   1.540   2.700
  934HOH     H2 2989   1.635   1.402   2.742
  935HOH      O 2990   1.100   2.178   2.013
  935HOH     H1 2991   1.117   2.137   2.098
  935HOH     H2 2992   1.012   2.147   1.989
  936HOH      O 2993   3.544   1.584   1.288
  936HOH     H1 2994   3.534   1.624   1.374
  936HOH     H2 2995   3.630   1.542   1.290
  937HOH      O 2996   2.112   1.644   1.380
  937HOH     H1 2997   2.023   1.617   1.359
  937HOH     H2 2998   2.102   1.724   1.432
  938HOH      O 2999   3.763   2.764   2.537
  938HOH     H1 3000   3.756   2.838   2.476
  938HOH     H2 3001   3.825   2.704   2.495
  939HOH      O 3002   1.437   3.785   0.486
  939HOH     H1 3003   1.525   3.821   0.501
  939HOH     H2 3004   1.383   3.861   0.465
  940HOH      O 3005   3.630   2.787   3.584
  940HOH     H1 3006   3.584   2.870   3.587
  940HOH     H2 3007   3.722   2.810   3.571
  941HOH      O 3008   3.779   3.738   0.193
  941HOH     H1 3009   3.837   3.686   0.248
  941HOH     H2 3010   3.810   3.724   0.104
  942HOH      O 3011   3.940   3.740   1.026
  942HOH     H1 3012   3.900   3.661   1.061
  942HOH     H2 3013   3.885   3.765   0.951
  943HOH      O 3014   2.967   0.021   0.584
  943HOH     H1 3015   3.035  -0.043   0.564
  943HOH     H2 3016   3.006   0.079   0.649
  944HOH      O 3017   0.324   3.031   1.856
  944HOH     H1 3018   0.325   2.939   1.880
  944HOH     H2 3019   0.232   3.051   1.840
  945HOH      O 3020   1.257   2.346   3.622
  945HOH     H1 3021   1.201   2.406   3.673
  945HOH     H2 3022   1.195   2.297   3.567
  946HOH      O 3023   1.354   3.824   2.112
  946HOH     H1 3024   1.266   3.795   2.135
  946HOH     H2 3025   1.405   3.814   2.192
  947HOH      O 3026   3.792   2.757   1.673
  947HOH     H1 3027   3.718   2.757   1.612
  947HOH     H2 3028   3.869   2.740   1.617
  948HOH      O 3029   3.537   1.068   1.320
  948HOH     H1 3030   3.514   1.153   1.357
  948HOH     H2 3031   3.623   1.048   1.358
  949HOH      O 3032   2.521   1.593   3.315
  949HOH     H1 3033   2.453   1.558   3.372
  949HOH     H2 3034   2.473   1.643   3.249
  950HOH      O 3035   2.824   0.447   0.510
  950HOH     H1 3036   2.904   0.437   0.562
  950HOH     H2 3037   2.755   0.460   0.575
  951HOH      O 3038   1.883   3.225   0.585
  951HOH     H1 3039   1.816   3.257   0.525
  951HOH     H2 3040   1.927   3.155   0.536
  952HOH      O 3041   3.067   2.940   3.516
  952HOH     H1 3042   2.999   2.968   3.576
  952HOH     H2 3043   3.064   3.003   3.444
  953HOH      O 3044   0.734   1.914   3.496
  953HOH     H1 3045   0.690   1.924   3.581
  953HOH     H2 3046   0.799   1.846   3.511
  954HOH      O 3047   3.323   3.447   2.399
  954HOH     H1 3048   3.401   3.485   2.441
  954HOH     H2 3049   3.278   3.522   2.360
  955HOH      O 3050   0.448   1.005   0.463
  955HOH     H1 3051   0.359   0.982   0.491
  955HOH     H2 3052   0.445   1.002   0.368
  956HOH      O 3053   0.554   3.606   1.337
  956HOH     H1 3054   0.570   3.564   1.253
  956HOH     H2 3055   0.484   3.553   1.377
  957HOH      O 3056   2.271   0.437   0.973
  957HOH     H1 3057   2.312   0.495   0.908
  957HOH     H2 3058   2.334   0.433   1.044
  958HOH      O 3059   0.483   0.914   1.720
  958HOH     H1 3060   0.512   0.823   1.716
  958HOH     H2 3061   0.491   0.946   1.631
  959HOH      O 3062   1.402   1.130   2.920
  959HOH     H1 3063   1.399   1.127   2.824
  959HOH     H2 3064   1.341   1.062   2.948
  960HOH      O 3065   3.251   0.051   1.002
  960HOH     H1 3066   3.227  -0.031   1.044
  960HOH     H2 3067   3.254   0.115   1.074
  961HOH      O 3068   0.598   2.133   0.421
  961HOH     H1 3069   0.680   2.088   0.442
  961HOH     H2 3070   0.575   2.179   0.502
  962HOH      O 3071   2.717   0.043   0.502
  962HOH     H1 3072   2.808   0.041   0.532
  962HOH     H2 3073   2.722   0.080   0.414
  963HOH      O 3074   1.164   3.804   0.236
  963HOH     H1 3075   1.187   3.712   0.253
  963HOH     H2 3076   1.229   3.854   0.286
  964HOH      O 3077   0.362   2.185   1.962
  964HOH     H1 3078   0.321   2.101   1.940
  964HOH     H2 3079   0.381   2.178   2.056
  965HOH      O 3080   3.901   3.279   3.991
  965HOH     H1 3081   3.957   3.341   3.945
  965HOH     H2 3082   3.935   3.277   4.081
  966HOH      O 3083   2.308   0.440   2.869
  966HOH     H1 3084   2.299   0.530   2.901
  966HOH     H2 3085   2.398   0.416   2.888
  967HOH      O 3086   2.143   0.640   1.250
  967HOH     H1 3087   2.199   0.565   1.228
  967HOH     H2 3088   2.129   0.632   1.344
  968HOH      O 3089   3.940   4.007   1.288
  968HOH     H1 3090   4.001   3.937   1.310
  968HOH     H2 3091   3.881   3.968   1.224
  969HOH      O 3092   3.352   2.150   1.560
  969HOH     H1 3093   3.422   2.092   1.532
  969HOH     H2 3094   3.272   2.097   1.551
  970HOH      O 3095   1.769   2.152   1.512
  970HOH     H1 3096   1.715   2.142   1.434
  970HOH     H2 3097   1.859   2.156   1.478
  971HOH      O 3098   2.080   0.332   2.730
  971HOH     H1 3099   2.147   0.363   2.791
  971HOH     H2 3100   2.090   0.389   2.653
  972HOH      O 3101   3.658   3.006   3.295
  972HOH     H1 3102   3.674   2.917   3.327
  972HOH     H2 3103   3.720   3.060   3.345
  973HOH      O 3104   1.118   0.200   1.865
  973HOH     H1 3105   1.101   0.206   1.959
  973HOH     H2 3106   1.033   0.180   1.826
  974HOH      O 3107   1.576   1.700   1.567
  974HOH     H1 3108   1.632   1.764   1.610
  974HOH     H2 3109   1.539   1.648   1.638
  975HOH      O 3110   3.122   1.821   4.006
  975HOH     H1 3111   3.179   1.869   3.947
  975HOH     H2 3112   3.175   1.808   4.085
  976HOH      O 3113   0.575   2.206   1.430
  976HOH     H1 3114   0.592   2.114   1.409
  976HOH     H2 3115   0.568   2.208   1.525
  977HOH      O 3116   2.714   1.415   3.394
  977HOH     H1 3117   2.733   1.370   3.312
  977HOH     H2 3118   2.655   1.486   3.369
  978HOH      O 3119   0.591   0.672   0.395
  978HOH     H1 3120   0.629   0.585   0.409
  978HOH     H2 3121   0.508   0.655   0.350
  979HOH      O 3122   2.513   3.463   1.788
  979HOH     H1 3123   2.596   3.500   1.819
  979HOH     H2 3124   2.515   3.372   1.818
  980HOH      O 3125   0.420   3.650   3.739
  980HOH     H1 3126   0.353   3.650   3.807
  980HOH     H2 3127   0.377   3.685   3.662
  981HOH      O 3128   1.949   2.041   2.072
  981HOH     H1 3129   1.892   2.022   2.146
  981HOH     H2 3130   2.031   2.071   2.111
  982HOH      O 3131   0.944   2.170   2.441
  982HOH     H1 3132   0.977   2.179   2.530
  982HOH     H2 3133   0.858   2.214   2.443
  983HOH      O 3134   1.891   3.312   1.050
  983HOH     H1 3135   1.826   3.372   1.088
  983HOH     H2 3136   1.892   3.334   0.957
  984HOH      O 3137   2.211   2.223   1.932
  984HOH     H1 3138   2.295   2.267   1.914
  984HOH     H2 3139   2.161   2.234   1.851
  985HOH      O 3140   0.321   2.024   0.136
  985HOH     H1 3141   0.253   2.054   0.076
  985HOH     H2 3142   0.315   2.084   0.211
  986HOH      O 3143   3.515   3.446   3.554
  986HOH     H1 3144   3.453   3.506   3.512
  986HOH     H2 3145   3.478   3.359   3.537
  987HOH      O 3146   0.367   2.218   3.847
  987HOH     H1 3147   0.319   2.264   3.778
  987HOH     H2 3148   0.299   2.178   3.901
  988HOH      O 3149   0.811   1.525   3.287
  988HOH     H1 3150   0.846   1.463   3.223
  988HOH     H2 3151   0.824   1.482   3.372
  989HOH      O 3152   1.798   0.430   1.427
  989HOH     H1 3153   1.778   0.336   1.432
  989HOH     H2 3154   1.886   0.433   1.391
  990HOH      O 3155   2.329   0.929   1.210
  990HOH     H1 3156   2.241   0.911   1.177
  990HOH     H2 3157   2.340   1.023   1.195
  991HOH      O 3158   2.010   3.062   0.217
  991HOH     H1 3159   2.043   2.976   0.191
  991HOH     H2 3160   1.942   3.082   0.153
  992HOH      O 3161   0.244   3.124   1.419
  992HOH     H1 3162   0.195   3.077   1.352
  992HOH     H2 3163   0.233   3.072   1.499
  993HOH      O 3164   3.483   1.116   2.872
  993HOH     H1 3165   3.490   1.195   2.819
  993HOH     H2 3166   3.465   1.148   2.961
  994HOH      O 3167   1.250   2.359   1.175
  994HOH     H1 3168   1.177   2.374   1.235
  994HOH     H2 3169   1.243   2.266   1.152
  995HOH      O 3170   1.815   1.304   1.257
  995HOH     H1 3171   1.752   1.242   1.221
  995HOH     H2 3172   1.892   1.250   1.278
  996HOH      O 3173   1.002   1.445   0.013
  996HOH     H1 3174   1.045   1.400   0.085
  996HOH     H2 3175   0.911   1.456   0.042
  997HOH      O 3176   1.753   1.730   0.327
  997HOH     H1 3177   1.830   1.781   0.303
  997HOH     H2 3178   1.680   1.790   0.316
  998HOH      O 3179   2.275   2.446   3.492
  998HOH     H1 3180   2.183   2.451   3.465
  998HOH     H2 3181   2.306   2.362   3.458
  999HOH      O 3182   0.300   1.985   1.776
  999HOH     H1 3183   0.244   1.953   1.847
  999HOH     H2 3184   0.309   1.910   1.718
 1000HOH      O 3185   2.396   1.989   3.046
 1000HOH     H1 3186   2.464   2.037   3.094
 1000HOH     H2 3187   2.315   2.032   3.071
 1001HOH      O 3188   0.123   1.325   3.307
 1001HOH     H1 3189   0.130   1.400   3.366
 1001HOH     H2 3190   0.198   1.270   3.329
 1002HOH      O 3191   3.042   1.373   3.958
 1002HOH     H1 3192   2.994   1.357   4.039
 1002HOH     H2 3193   3.000   1.451   3.922
 1003HOH      O 3194   0.823   3.370   3.836
 1003HOH     H1 3195   0.775   3.452   3.845
 1003HOH     H2 3196   0.910   3.388   3.871
 1004HOH      O 3197   1.904   3.409   0.791
 1004HOH     H1 3198   1.894   3.331   0.735
 1004HOH     H2 3199   1.834   3.468   0.763
 1005HOH      O 3200   1.619   0.859   0.339
 1005HOH     H1 3201   1.571   0.794   0.389
 1005HOH     H2 3202   1.577   0.942   0.359
 1006HOH      O 3203   0.921   3.871   0.330
 1006HOH     H1 3204   0.837   3.834   0.304
 1006HOH     H2 3205   0.986   3.809   0.295
 1007HOH      O 3206   0.970   0.932   2.070
 1007HOH     H1 3207   0.943   1.004   2.127
 1007HOH     H2 3208   1.017   0.974   1.998
 1008HOH      O 3209   2.448   1.995   2.311
 1008HOH     H1 3210   2.445   2.068   2.249
 1008HOH     H2 3211   2.356   1.979   2.334
 1009HOH      O 3212   3.145   0.663   0.819
 1009HOH     H1 3213   3.080   0.633   0.883
 1009HOH     H2 3214   3.160   0.755   0.842
 1010HOH      O 3215   1.134   1.713   3.554
 1010HOH     H1 3216   1.060   1.657   3.579
 1010HOH     H2 3217   1.210   1.656   3.562
 1011HOH      O 3218   1.088   3.416   0.638
 1011HOH     H1 3219   1.168   3.465   0.620
 1011HOH     H2 3220   1.025   3.482   0.667
 1012HOH      O 3221   2.094   3.417   0.565
 1012HOH     H1 3222   2.064   3.327   0.569
 1012HOH     H2 3223   2.045   3.456   0.493
 1013HOH      O 3224   3.483   3.578   1.911
 1013HOH     H1 3225   3.562   3.605   1.958
 1013HOH     H2 3226   3.411   3.598   1.972
 1014HOH      O 3227   3.508   2.889   0.661
 1014HOH     H1 3228   3.574   2.841   0.710
 1014HOH     H2 3229   3.499   2.841   0.579
 1015HOH      O 3230   0.488   3.011   1.555
 1015HOH     H1 3231   0.426   2.981   1.620
 1015HOH     H2 3232   0.436   3.064   1.494
 1016HOH      O 3233   1.512   2.560   2.153
 1016HOH     H1 3234   1.423   2.568   2.119
 1016HOH     H2 3235   1.525   2.465   2.165
 1017HOH      O 3236   2.529   2.969   2.003
 1017HOH     H1 3237   2.550   2.920   2.082
 1017HOH     H2 3238   2.529   2.903   1.933
 1018HOH      O 3239   3.280   1.466   3.494
 1018HOH     H1 3240   3.186   1.474   3.505
 1018HOH     H2 3241   3.316   1.545   3.535
 1019HOH      O 3242   3.150   2.104   1.224
 1019HOH     H1 3243   3.164   2.010   1.217
 1019HOH     H2 3244   3.141   2.120   1.318
 1020HOH      O 3245   0.771   3.265   1.518
 1020HOH     H1 3246   0.767   3.169   1.524
 1020HOH     H2 3247   0.735   3.285   1.432
 1021HOH      O 3248   0.299   2.457   1.931
 1021HOH     H1 3249   0.323   2.367   1.910
 1021HOH     H2 3250   0.327   2.469   2.022
 1022HOH      O 3251   3.818  -0.008   2.069
 1022HOH     H1 3252   3.825   0.074   2.019
 1022HOH     H2 3253   3.886  -0.064   2.032
 1023HOH      O 3254   1.460   3.847   2.391
 1023HOH     H1 3255   1.404   3.923   2.408
 1023HOH     H2 3256   1.547   3.875   2.417
 1024HOH      O 3257   3.110   2.354   3.493
 1024HOH     H1 3258   3.103   2.267   3.454
 1024HOH     H2 3259   3.197   2.385   3.466
 1025HOH      O 3260   4.007   2.361   2.980
 1025HOH     H1 3261   3.916   2.375   3.007
 1025HOH     H2 3262   4.012   2.268   2.961
 1026HOH      O 3263   3.488   0.115   1.774
 1026HOH     H1 3264   3.549   0.045   1.749
 1026HOH     H2 3265   3.511   0.188   1.716
 1027HOH      O 3266   1.893   0.278   1.166
 1027HOH     H1 3267   1.954   0.314   1.101
 1027HOH     H2 3268   1.809   0.318   1.144
 1028HOH      O 3269   2.333   0.590   3.646
 1028HOH     H1 3270   2.284   0.528   3.700
 1028HOH     H2 3271   2.268   0.626   3.586
 1029HOH      O 3272   3.350   3.231   2.588
 1029HOH     H1 3273   3.355   3.301   2.522
 1029HOH     H2 3274   3.407   3.162   2.554
 1030HOH      O 3275   1.213   1.647   2.296
 1030HOH     H1 3276   1.214   1.684   2.208
 1030HOH     H2 3277   1.266   1.568   2.289
 1031HOH      O 3278   0.017   2.075   2.923
 1031HOH     H1 3279   0.038   2.104   2.834
 1031HOH     H2 3280  -0.039   1.998   2.910
 1032HOH      O 3281   3.949   1.654   3.039
 1032HOH     H1 3282   3.975   1.709   3.113
 1032HOH     H2 3283   3.884   1.594   3.076
 1033HOH      O 3284   3.075   3.138   3.818
 1033HOH     H1 3285   3.146   3.202   3.817
 1033HOH     H2 3286   3.088   3.088   3.898
 1034HOH      O 3287   2.641   3.056   0.071
 1034HOH     H1 3288   2.586   3.069   0.148
 1034HOH     H2 3289   2.730   3.077   0.101
 1035HOH      O 3290   2.784   1.098   3.425
 1035HOH     H1 3291   2.789   1.104   3.521
 1035HOH     H2 3292   2.691   1.102   3.406
 1036HOH      O 3293   1.987   3.210   1.580
 1036HOH     H1 3294   2.003   3.289   1.633
 1036HOH     H2 3295   2.002   3.239   1.490
 1037HOH      O 3296   0.153   3.075   3.579
 1037HOH     H1 3297   0.144   3.121   3.495
 1037HOH     H2 3298   0.248   3.066   3.590
 1038HOH      O 3299   2.845   0.013   2.409
 1038HOH     H1 3300   2.756   0.007   2.374
 1038HOH     H2 3301   2.842   0.089   2.467
 1039HOH      O 3302   2.811   2.421   3.784
 1039HOH     H1 3303   2.819   2.329   3.757
 1039HOH     H2 3304   2.897   2.458   3.767
 1040HOH      O 3305   3.651   0.735   2.003
 1040HOH     H1 3306   3.597   0.724   2.081
 1040HOH     H2 3307   3.677   0.645   1.980
 1041HOH      O 3308   1.915   1.757   2.010
 1041HOH     H1 3309   1.944   1.844   2.037
 1041HOH     H2 3310   1.828   1.772   1.972
 1042HOH      O 3311   2.382   0.145   0.327
 1042HOH     H1 3312   2.433   0.064   0.322
 1042HOH     H2 3313   2.448   0.214   0.329
 1043HOH      O 3314   0.617   2.255   3.096
 1043HOH     H1 3315   0.703   2.283   3.126
 1043HOH     H2 3316   0.614   2.162   3.118
 1044HOH      O 3317   1.220   3.197   3.726
 1044HOH     H1 3318   1.198   3.290   3.729
 1044HOH     H2 3319   1.296   3.190   3.784
 1045HOH      O 3320   2.916   3.272   1.564
 1045HOH     H1 3321   2.873   3.301   1.645
 1045HOH     H2 3322   2.871   3.191   1.541
 1046HOH      O 3323   0.741   3.735   3.136
 1046HOH     H1 3324   0.717   3.821   3.102
 1046HOH     H2 3325   0.673   3.714   3.200
 1047HOH      O 3326   1.710   3.128   1.511
 1047HOH     H1 3327   1.754   3.095   1.433
 1047HOH     H2 3328   1.778   3.178   1.557
 1048HOH      O 3329   1.205   0.789   0.166
 1048HOH     H1 3330   1.198   0.741   0.248
 1048HOH     H2 3331   1.238   0.876   0.191
 1049HOH      O 3332   3.414   0.360   0.561
 1049HOH     H1 3333   3.450   0.304   0.493
 1049HOH     H2 3334   3.428   0.311   0.642
 1050HOH      O 3335   3.879   1.410   2.115
 1050HOH     H1 3336   3.822   1.334   2.119
 1050HOH     H2 3337   3.826   1.479   2.074
 1051HOH      O 3338   1.335   0.530   2.077
 1051HOH     H1 3339   1.243   0.554   2.068
 1051HOH     H2 3340   1.334   0.436   2.098
 1052HOH      O 3341   2.903   3.260   0.030
 1052HOH     H1 3342   2.933   3.246   0.119
 1052HOH     H2 3343   2.954   3.199  -0.023
 1053HOH      O 3344   1.131   0.725   3.726
 1053HOH     H1 3345   1.141   0.645   3.777
 1053HOH     H2 3346   1.038   0.728   3.704
 1054HOH      O 3347   2.519   0.154   2.106
 1054HOH     H1 3348   2.436   0.134   2.151
 1054HOH     H2 3349   2.574   0.191   2.174
 1055HOH      O 3350   3.299   1.514   2.028
 1055HOH     H1 3351   3.367   1.576   2.053
 1055HOH     H2 3352   3.339   1.428   2.040
 1056HOH      O 3353   0.029   2.410   1.597
 1056HOH     H1 3354  -0.063   2.400   1.570
 1056HOH     H2 3355   0.048   2.329   1.645
 1057HOH      O 3356   3.102   2.204   2.056
 1057HOH     H1 3357   3.091   2.246   1.972
 1057HOH     H2 3358   3.078   2.112   2.041
 1058HOH      O 3359   1.699   3.883   3.819
 1058HOH     H1 3360   1.617   3.876   3.771
 1058HOH     H2 3361   1.758   3.823   3.774
 1059HOH      O 3362   2.530   1.179   1.875
 1059HOH     H1 3363   2.535   1.261   1.826
 1059HOH     H2 3364   2.621   1.155   1.892
 1060HOH      O 3365   1.697   3.387   2.119
 1060HOH     H1 3366   1.647   3.308   2.141
 1060HOH     H2 3367   1.780   3.376   2.165
 1061HOH      O 3368   1.438   2.161   3.407
 1061HOH     H1 3369   1.451   2.069   3.430
 1061HOH     H2 3370   1.350   2.182   3.440
 1062HOH      O 3371   0.092   2.389   3.887
 1062HOH     H1 3372   0.043   2.471   3.895
 1062HOH     H2 3373   0.100   2.374   3.793
 1063HOH      O 3374   3.807   1.079   3.660
 1063HOH     H1 3375   3.786   1.105   3.571
 1063HOH     H2 3376   3.734   1.111   3.713
 1064HOH      O 3377   2.408   2.995   0.222
 1064HOH     H1 3378   2.365   2.927   0.275
 1064HOH     H2 3379   2.349   3.006   0.147
 1065HOH      O 3380   2.809   1.060   1.375
 1065HOH     H1 3381   2.845   1.000   1.441
 1065HOH     H2 3382   2.744   1.008   1.329
 1066HOH      O 3383   0.487   1.000   3.937
 1066HOH     H1 3384   0.511   0.911   3.964
 1066HOH     H2 3385   0.500   1.053   4.015
 1067HOH      O 3386   1.837   1.377   1.814
 1067HOH     H1 3387   1.841   1.298   1.868
 1067HOH     H2 3388   1.802   1.348   1.730
 1068HOH      O 3389   2.046   2.094   0.941
 1068HOH     H1 3390   1.984   2.054   0.880
 1068HOH     H2 3391   2.089   2.163   0.890
 1069HOH      O 3392   3.613   2.686   0.142
 1069HOH     H1 3393   3.594   2.780   0.138
 1069HOH     H2 3394   3.551   2.647   0.080
 1070HOH      O 3395   2.499   2.967   3.871
 1070HOH     H1 3396   2.496   2.998   3.962
 1070HOH     H2 3397   2.524   3.044   3.821
 1071HOH      O 3398   3.525   0.131   1.128
 1071HOH     H1 3399   3.567   0.209   1.091
 1071HOH     H2 3400   3.538   0.139   1.222
 1072HOH      O 3401   0.077   3.822   1.770
 1072HOH     H1 3402   0.037   3.908   1.785
 1072HOH     H2 3403   0.091   3.787   1.859
 1073HOH      O 3404   3.020   3.569   1.233
 1073HOH     H1 3405   3.027   3.506   1.305
 1073HOH     H2 3406   3.111   3.594   1.213
 1074HOH      O 3407   1.861   1.569   3.993
 1074HOH     H1 3408   1.838   1.596   3.904
 1074HOH     H2 3409   1.952   1.597   4.004
 1075HOH      O 3410   1.218   3.467   3.722
 1075HOH     H1 3411   1.140   3.522   3.716
 1075HOH     H2 3412   1.270   3.490   3.646
 1076HOH      O 3413   3.946   1.952   3.931
 1076HOH     H1 3414   3.945   1.866   3.891
 1076HOH     H2 3415   4.038   1.980   3.927
 1077HOH      O 3416   1.889   1.330   3.320
 1077HOH     H1 3417   1.985   1.333   3.328
 1077HOH     H2 3418   1.865   1.247   3.362
 1078HOH      O 3419   1.004   0.277   2.571
 1078HOH     H1 3420   1.008   0.185   2.546
 1078HOH     H2 3421   1.078   0.318   2.525
 1079HOH      O 3422   3.374   0.839   0.708
 1079HOH     H1 3423   3.292   0.792   0.713
 1079HOH     H2 3424   3.400   0.833   0.616
 1080HOH      O 3425   3.971   0.031   1.719
 1080HOH     H1 3426   4.020   0.079   1.785
 1080HOH     H2 3427   3.963   0.093   1.646
 1081HOH      O 3428   0.831   0.470   2.581
 1081HOH     H1 3429   0.854   0.494   2.671
 1081HOH     H2 3430   0.880   0.389   2.565
 1082HOH      O 3431   0.845   2.781   1.977
 1082HOH     H1 3432   0.834   2.721   1.904
 1082HOH     H2 3433   0.760   2.825   1.986
 1083HOH      O 3434   2.770   2.733   0.153
 1083HOH     H1 3435   2.755   2.719   0.060
 1083HOH     H2 3436   2.805   2.821   0.159
 1084HOH      O 3437   2.801   2.184   2.125
 1084HOH     H1 3438   2.822   2.267   2.082
 1084HOH     H2 3439   2.884   2.156   2.164
 1085HOH      O 3440   1.957   1.163   0.367
 1085HOH     H1 3441   2.003   1.143   0.286
 1085HOH     H2 3442   1.954   1.258   0.371
 1086HOH      O 3443   2.339   1.217   0.119
 1086HOH     H1 3444   2.364   1.135   0.076
 1086HOH     H2 3445   2.246   1.206   0.139
 1087HOH      O 3446   0.752   2.784   2.244
 1087HOH     H1 3447   0.663   2.750   2.242
 1087HOH     H2 3448   0.788   2.763   2.158
 1088HOH      O 3449   1.344   0.265   2.065
 1088HOH     H1 3450   1.345   0.205   1.990
 1088HOH     H2 3451   1.392   0.218   2.133
 1089HOH      O 3452   1.406   2.081   2.977
 1089HOH     H1 3453   1.415   2.001   2.925
 1089HOH     H2 3454   1.429   2.054   3.066
 1090HOH      O 3455   0.402   1.520   3.148
 1090HOH     H1 3456   0.428   1.567   3.068
 1090HOH     H2 3457   0.471   1.455   3.161
 1091HOH      O 3458   3.886   1.472   3.276
 1091HOH     H1 3459   3.964   1.417   3.275
 1091HOH     H2 3460   3.825   1.429   3.216
 1092HOH      O 3461   0.610   1.205   3.704
 1092HOH     H1 3462   0.625   1.239   3.616
 1092HOH     H2 3463   0.530   1.152   3.696
 1093HOH      O 3464   1.943   0.745   2.727
 1093HOH     H1 3465   1.986   0.798   2.661
 1093HOH     H2 3466   1.950   0.796   2.808
 1094HOH      O 3467   4.027   1.474   1.071
 1094HOH     H1 3468   3.936   1.461   1.047
 1094HOH     H2 3469   4.034   1.568   1.087
 1095HOH      O 3470   4.003   0.715   1.321
 1095HOH     H1 3471   3.932   0.651   1.319
 1095HOH     H2 3472   4.032   0.715   1.412
 1096HOH      O 3473   2.909   2.244   2.590
 1096HOH     H1 3474   2.882   2.165   2.636
 1096HOH     H2 3475   2.953   2.212   2.511
 1097HOH      O 3476   1.618   0.431   3.706
 1097HOH     H1 3477   1.545   0.381   3.742
 1097HOH     H2 3478   1.580   0.476   3.630
 1098HOH      O 3479   3.631   2.496   1.246
 1098HOH     H1 3480   3.557   2.482   1.187
 1098HOH     H2 3481   3.701   2.528   1.190
 1099HOH      O 3482   1.680   4.000   2.440
 1099HOH     H1 3483   1.724   4.044   2.368
 1099HOH     H2 3484   1.734   4.018   2.517
 1100HOH      O 3485   1.002   1.813   1.589
 1100HOH     H1 3486   0.976   1.784   1.677
 1100HOH     H2 3487   1.092   1.782   1.579
 1101HOH      O 3488   3.305   1.987   3.237
 1101HOH     H1 3489   3.329   2.073   3.203
 1101HOH     H2 3490   3.388   1.941   3.247
 1102HOH      O 3491   1.316   3.688   2.610
 1102HOH     H1 3492   1.349   3.748   2.543
 1102HOH     H2 3493   1.394   3.656   2.654
 1103HOH      O 3494   3.834   0.907   1.901
 1103HOH     H1 3495   3.775   0.852   1.951
 1103HOH     H2 3496   3.861   0.852   1.827
 1104HOH      O 3497   2.428   2.667   0.898
 1104HOH     H1 3498   2.500   2.707   0.948
 1104HOH     H2 3499   2.417   2.581   0.937
 1105HOH      O 3500   1.678   2.341   1.694
 1105HOH     H1 3501   1.716   2.291   1.621
 1105HOH     H2 3502   1.679   2.280   1.767
 1106HOH      O 3503   1.743   3.358   0.373
 1106HOH     H1 3504   1.805   3.342   0.302
 1106HOH     H2 3505   1.770   3.442   0.411
 1107HOH      O 3506   0.843   3.002   2.652
 1107HOH     H1 3507   0.850   2.917   2.694
 1107HOH     H2 3508   0.853   2.984   2.558
 1108HOH      O 3509   3.993   3.430   1.212
 1108HOH     H1 3510   3.944   3.507   1.243
 1108HOH     H2 3511   4.079   3.440   1.252
 1109HOH      O 3512   1.424   2.169   0.271
 1109HOH     H1 3513   1.338   2.132   0.295
 1109HOH     H2 3514   1.432   2.247   0.325
 1110HOH      O 3515   2.215   1.214   0.463
 1110HOH     H1 3516   2.134   1.163   0.459
 1110HOH     H2 3517   2.284   1.149   0.475
 1111HOH      O 3518   0.074   1.324   0.820
 1111HOH     H1 3519   0.023   1.392   0.863
 1111HOH     H2 3520   0.059   1.246   0.874
 1112HOH      O 3521   3.808   0.198   3.614
 1112HOH     H1 3522   3.780   0.272   3.560
 1112HOH     H2 3523   3.844   0.136   3.551
 1113HOH      O 3524   2.145   0.399   3.817
 1113HOH     H1 3525   2.082   0.392   3.889
 1113HOH     H2 3526   2.091   0.415   3.739
 1114HOH      O 3527   2.018   3.634   3.943
 1114HOH     H1 3528   2.021   3.539   3.930
 1114HOH     H2 3529   2.095   3.653   3.996
 1115HOH      O 3530   1.027   0.007   2.144
 1115HOH     H1 3531   1.119   0.005   2.119
 1115HOH     H2 3532   1.003   0.100   2.138
 1116HOH      O 3533   3.694   3.309   1.756
 1116HOH     H1 3534   3.613   3.347   1.721
 1116HOH     H2 3535   3.722   3.248   1.688
 1117HOH      O 3536   2.068   2.036   2.562
 1117HOH     H1 3537   2.000   2.093   2.527
 1117HOH     H2 3538   2.026   1.950   2.569
 1118HOH      O 3539   1.167   2.512   3.045
 1118HOH     H1 3540   1.201   2.458   3.115
 1118HOH     H2 3541   1.108   2.574   3.088
 1119HOH      O 3542   2.307   3.902   1.080
 1119HOH     H1 3543   2.293   3.892   0.986
 1119HOH     H2 3544   2.397   3.933   1.088
 1120HOH      O 3545   1.033   0.708   1.461
 1120HOH     H1 3546   1.076   0.631   1.425
 1120HOH     H2 3547   1.104   0.758   1.501
 1121HOH      O 3548   3.054   0.325   3.202
 1121HOH     H1 3549   3.059   0.307   3.296
 1121HOH     H2 3550   3.110   0.401   3.189
 1122HOH      O 3551   2.578   3.318   0.877
 1122HOH     H1 3552   2.487   3.286   0.879
 1122HOH     H2 3553   2.628   3.251   0.924
 1123HOH      O 3554   3.235   3.502   0.387
 1123HOH     H1 3555   3.245   3.438   0.316
 1123HOH     H2 3556   3.141   3.521   0.388
 1124HOH      O 3557   1.198   1.276   3.738
 1124HOH     H1 3558   1.204   1.285   3.833
 1124HOH     H2 3559   1.197   1.181   3.723
 1125HOH      O 3560   3.677   3.246   1.052
 1125HOH     H1 3561   3.622   3.215   1.124
 1125HOH     H2 3562   3.624   3.233   0.974
 1126HOH      O 3563   0.353   3.380   3.520
 1126HOH     H1 3564   0.345   3.476   3.526
 1126HOH     H2 3565   0.277   3.353   3.469
 1127HOH      O 3566   2.360   1.203   1.384
 1127HOH     H1 3567   2.336   1.277   1.439
 1127HOH     H2 3568   2.391   1.243   1.303
 1128HOH      O 3569   2.335   0.654   0.246
 1128HOH     H1 3570   2.239   0.655   0.255
 1128HOH     H2 3571   2.352   0.589   0.178
 1129HOH      O 3572   0.864   0.184   1.389
 1129HOH     H1 3573   0.798   0.132   1.434
 1129HOH     H2 3574   0.905   0.236   1.459
 1130HOH      O 3575   2.497   1.867   0.105
 1130HOH     H1 3576   2.532   1.927   0.171
 1130HOH     H2 3577   2.438   1.921   0.052
 1131HOH      O 3578   0.087   1.567   3.429
 1131HOH     H1 3579   0.006   1.603   3.393
 1131HOH     H2 3580   0.148   1.641   3.432
 1132HOH      O 3581   0.719   3.941   0.687
 1132HOH     H1 3582   0.805   3.984   0.688
 1132HOH     H2 3583   0.679   3.967   0.770
 1133HOH      O 3584   3.731   3.631   3.126
 1133HOH     H1 3585   3.803   3.685   3.094
 1133HOH     H2 3586   3.701   3.583   3.049
 1134HOH      O 3587   1.555   2.501   0.333
 1134HOH     H1 3588   1.568   2.481   0.240
 1134HOH     H2 3589   1.644   2.511   0.367
 1135HOH      O 3590   0.487   2.557   0.693
 1135HOH     H1 3591   0.559   2.598   0.741
 1135HOH     H2 3592   0.452   2.627   0.639
 1136HOH      O 3593   1.475   0.209   3.775
 1136HOH     H1 3594   1.427   0.189   3.694
 1136HOH     H2 3595   1.433   0.154   3.841
 1137HOH      O 3596   0.540   0.643   3.762
 1137HOH     H1 3597   0.445   0.647   3.751
 1137HOH     H2 3598   0.574   0.690   3.685
 1138HOH      O 3599   2.204   3.544   3.542
 1138HOH     H1 3600   2.238   3.623   3.499
 1138HOH     H2 3601   2.114   3.567   3.566
 1139HOH      O 3602   2.497   3.499   3.101
 1139HOH     H1 3603   2.569   3.554   3.130
 1139HOH     H2 3604   2.439   3.558   3.053
 1140HOH      O 3605   4.001   3.179   2.935
 1140HOH     H1 3606   3.973   3.123   2.863
 1140HOH     H2 3607   4.059   3.123   2.988
 1141HOH      O 3608   2.705   1.250   2.167
 1141HOH     H1 3609   2.690   1.293   2.082
 1141HOH     H2 3610   2.744   1.166   2.144
 1142HOH      O 3611   0.170   2.690   3.297
 1142HOH     H1 3612   0.109   2.764   3.297
 1142HOH     H2 3613   0.240   2.717   3.238
 1143HOH      O 3614   2.320   2.072   0.608
 1143HOH     H1 3615   2.278   2.141   0.658
 1143HOH     H2 3616   2.248   2.018   0.575
 1144HOH      O 3617   1.291   1.961   0.013
 1144HOH     H1 3618   1.256   1.907   0.084
 1144HOH     H2 3619   1.317   1.899  -0.055
 1145HOH      O 3620   1.640   1.780   1.120
 1145HOH     H1 3621   1.593   1.752   1.041
 1145HOH     H2 3622   1.574   1.776   1.189
 1146HOH      O 3623   0.437   0.386   0.649
 1146HOH     H1 3624   0.446   0.430   0.733
 1146HOH     H2 3625   0.517   0.336   0.638
 1147HOH      O 3626   1.352   2.649   0.461
 1147HOH     H1 3627   1.428   2.604   0.424
 1147HOH     H2 3628   1.276   2.601   0.427
 1148HOH      O 3629   3.293   3.503   0.110
 1148HOH     H1 3630   3.283   3.416   0.071
 1148HOH     H2 3631   3.382   3.505   0.143
 1149HOH      O 3632   2.176   3.233   2.921
 1149HOH     H1 3633   2.212   3.320   2.939
 1149HOH     H2 3634   2.243   3.189   2.870
 1150HOH      O 3635   1.793   1.984   2.272
 1150HOH     H1 3636   1.699   1.966   2.273
 1150HOH     H2 3637   1.812   2.023   2.358
 1151HOH      O 3638   1.074   1.582   0.345
 1151HOH     H1 3639   0.981   1.589   0.363
 1151HOH     H2 3640   1.112   1.546   0.425
 1152HOH      O 3641   3.286   3.293   2.015
 1152HOH     H1 3642   3.368   3.336   1.990
 1152HOH     H2 3643   3.296   3.274   2.108
 1153HOH      O 3644   3.033   3.851   2.415
 1153HOH     H1 3645   3.013   3.811   2.330
 1153HOH     H2 3646   2.963   3.915   2.428
 1154HOH      O 3647   2.477   0.975   3.805
 1154HOH     H1 3648   2.555   0.925   3.780
 1154HOH     H2 3649   2.485   0.985   3.900
 1155HOH      O 3650   2.004   3.321   1.950
 1155HOH     H1 3651   1.984   3.228   1.948
 1155HOH     H2 3652   1.928   3.364   1.910
 1156HOH      O 3653   3.320   2.155   0.729
 1156HOH     H1 3654   3.294   2.111   0.810
 1156HOH     H2 3655   3.238   2.176   0.685
 1157HOH      O 3656   1.616   2.460   0.064
 1157HOH     H1 3657   1.563   2.537   0.043
 1157HOH     H2 3658   1.557   2.386   0.050
 1158HOH      O 3659   2.649   2.505   1.004
 1158HOH     H1 3660   2.646   2.415   0.973
 1158HOH     H2 3661   2.740   2.520   1.030
 1159HOH      O 3662   3.961   3.765   3.053
 1159HOH     H1 3663   3.998   3.846   3.089
 1159HOH     H2 3664   4.033   3.702   3.056
 1160HOH      O 3665   2.059   2.784   1.321
 1160HOH     H1 3666   2.098   2.773   1.234
 1160HOH     H2 3667   2.108   2.856   1.360
 1161HOH      O 3668   0.932   3.157   0.036
 1161HOH     H1 3669   0.897   3.192  -0.046
 1161HOH     H2 3670   0.998   3.221   0.063
 1162HOH      O 3671   2.930   1.626   0.492
 1162HOH     H1 3672   2.987   1.690   0.450
 1162HOH     H2 3673   2.842   1.655   0.469
 1163HOH      O 3674   3.156   0.348   0.379
 1163HOH     H1 3675   3.133   0.368   0.470
 1163HOH     H2 3676   3.229   0.406   0.359
 1164HOH      O 3677   0.771   3.285   0.477
 1164HOH     H1 3678   0.787   3.191   0.468
 1164HOH     H2 3679   0.722   3.308   0.398
 1165HOH      O 3680   2.564   3.744   0.817
 1165HOH     H1 3681   2.615   3.820   0.843
 1165HOH     H2 3682   2.570   3.743   0.721
 1166HOH      O 3683   0.300   3.279   0.584
 1166HOH     H1 3684   0.249   3.272   0.665
 1166HOH     H2 3685   0.267   3.208   0.529
 1167HOH      O 3686   2.877   3.017   3.695
 1167HOH     H1 3687   2.951   3.056   3.743
 1167HOH     H2 3688   2.831   3.092   3.657
 1168HOH      O 3689   2.040   2.840   0.069
 1168HOH     H1 3690   2.107   2.826   0.002
 1168HOH     H2 3691   2.008   2.752   0.089
 1169HOH      O 3692   3.412   3.252   0.816
 1169HOH     H1 3693   3.361   3.328   0.843
 1169HOH     H2 3694   3.359   3.177   0.844
 1170HOH      O 3695   1.231   1.349   2.745
 1170HOH     H1 3696   1.204   1.266   2.705
 1170HOH     H2 3697   1.179   1.356   2.824
 1171HOH      O 3698   3.594   3.096   3.034
 1171HOH     H1 3699   3.645   3.105   3.115
 1171HOH     H2 3700   3.538   3.020   3.049
 1172HOH      O 3701   1.031   1.297   2.239
 1172HOH     H1 3702   0.956   1.356   2.249
 1172HOH     H2 3703   0.994   1.209   2.247
 1173HOH      O 3704   1.438   2.987   0.980
 1173HOH     H1 3705   1.526   3.004   0.944
 1173HOH     H2 3706   1.440   3.028   1.066
 1174HOH      O 3707   1.564   0.112   1.955
 1174HOH     H1 3708   1.604   0.077   2.035
 1174HOH     H2 3709   1.555   0.035   1.898
 1175HOH      O 3710   1.581   3.912   3.391
 1175HOH     H1 3711   1.534   3.992   3.369
 1175HOH     H2 3712   1.657   3.942   3.442
 1176HOH      O 3713   0.552   1.842   2.931
 1176HOH     H1 3714   0.546   1.849   2.836
 1176HOH     H2 3715   0.514   1.756   2.951
 1177HOH      O 3716   2.263   3.541   0.075
 1177HOH     H1 3717   2.321   3.597   0.127
 1177HOH     H2 3718   2.289   3.557  -0.015
 1178HOH      O 3719   0.252   3.276   3.108
 1178HOH     H1 3720   0.171   3.227   3.096
 1178HOH     H2 3721   0.318   3.225   3.061
 1179HOH      O 3722   1.406   0.746   2.235
 1179HOH     H1 3723   1.389   0.670   2.179
 1179HOH     H2 3724   1.474   0.795   2.189
 1180HOH      O 3725   1.597   2.732   3.771
 1180HOH     H1 3726   1.568   2.755   3.683
 1180HOH     H2 3727   1.542   2.658   3.796
 1181HOH      O 3728   2.409   2.401   2.446
 1181HOH     H1 3729   2.372   2.399   2.534
 1181HOH     H2 3730   2.498   2.435   2.458
 1182HOH      O 3731   0.539   1.275   2.170
 1182HOH     H1 3732   0.540   1.263   2.265
 1182HOH     H2 3733   0.529   1.187   2.134
 1183HOH      O 3734   0.093   3.508   0.687
 1183HOH     H1 3735   0.126   3.504   0.777
 1183HOH     H2 3736   0.001   3.530   0.696
 1184HOH      O 3737   3.396   2.228   3.166
 1184HOH     H1 3738   3.386   2.268   3.252
 1184HOH     H2 3739   3.397   2.301   3.105
 1185HOH      O 3740   0.726   0.960   0.908
 1185HOH     H1 3741   0.768   1.001   0.984
 1185HOH     H2 3742   0.698   0.874   0.940
 1186HOH      O 3743   2.625   0.796   2.045
 1186HOH     H1 3744   2.631   0.829   2.134
 1186HOH     H2 3745   2.531   0.798   2.025
 1187HOH      O 3746   1.132   2.675   2.315
 1187HOH     H1 3747   1.220   2.692   2.345
 1187HOH     H2 3748   1.075   2.715   2.380
 1188HOH      O 3749   0.086   2.866   2.810
 1188HOH     H1 3750   0.160   2.872   2.870
 1188HOH     H2 3751   0.064   2.773   2.808
 1189HOH      O 3752   1.804   3.449   1.442
 1189HOH     H1 3753   1.761   3.441   1.528
 1189HOH     H2 3754   1.880   3.504   1.459
 1190HOH      O 3755   2.043   3.443   0.288
 1190HOH     H1 3756   1.979   3.459   0.218
 1190HOH     H2 3757   2.126   3.431   0.242
 1191HOH      O 3758   3.534   0.498   1.547
 1191HOH     H1 3759   3.522   0.558   1.473
 1191HOH     H2 3760   3.508   0.549   1.624
 1192HOH      O 3761   0.754   1.631   0.455
 1192HOH     H1 3762   0.771   1.665   0.367
 1192HOH     H2 3763   0.669   1.667   0.479
 1193HOH      O 3764   0.670   0.835   2.861
 1193HOH     H1 3765   0.707   0.746   2.860
 1193HOH     H2 3766   0.579   0.823   2.837
 1194HOH      O 3767   0.577   0.128   1.887
 1194HOH     H1 3768   0.574   0.051   1.944
 1194HOH     H2 3769   0.610   0.198   1.944
 1195HOH      O 3770   1.666   2.253   3.539
 1195HOH     H1 3771   1.606   2.197   3.589
 1195HOH     H2 3772   1.612   2.289   3.469
 1196HOH      O 3773   3.307   0.291   3.936
 1196HOH     H1 3774   3.297   0.199   3.957
 1196HOH     H2 3775   3.281   0.298   3.844
 1197HOH      O 3776   3.107   3.060   2.489
 1197HOH     H1 3777   3.018   3.033   2.470
 1197HOH     H2 3778   3.143   2.990   2.544
 1198HOH      O 3779   1.282   3.205   1.748
 1198HOH     H1 3780   1.322   3.137   1.803
 1198HOH     H2 3781   1.351   3.230   1.686
 1199HOH      O 3782   1.434   3.256   0.641
 1199HOH     H1 3783   1.376   3.182   0.624
 1199HOH     H2 3784   1.375   3.330   0.658
 1200HOH      O 3785   3.252   3.548   3.454
 1200HOH     H1 3786   3.178   3.594   3.494
 1200HOH     H2 3787   3.214   3.466   3.422
 1201HOH      O 3788   0.681   2.968   1.062
 1201HOH     H1 3789   0.704   2.946   0.972
 1201HOH     H2 3790   0.590   2.995   1.058
 1202HOH      O 3791   1.966   3.855   3.243
 1202HOH     H1 3792   1.876   3.825   3.255
 1202HOH     H2 3793   1.997   3.874   3.331
 1203HOH      O 3794   3.322   2.740   0.866
 1203HOH     H1 3795   3.313   2.647   0.884
 1203HOH     H2 3796   3.414   2.752   0.844
 1204HOH      O 3797   0.372   0.649   0.767
 1204HOH     H1 3798   0.351   0.617   0.679
 1204HOH     H2 3799   0.408   0.737   0.752
 1205HOH      O 3800   3.767   3.405   0.631
 1205HOH     H1 3801   3.735   3.368   0.548
 1205HOH     H2 3802   3.785   3.328   0.686
 1206HOH      O 3803   2.012   4.024   0.790
 1206HOH     H1 3804   2.090   4.072   0.763
 1206HOH     H2 3805   2.012   3.946   0.734
 1207HOH      O 3806   0.193   3.916   1.310
 1207HOH     H1 3807   0.178   3.859   1.386
 1207HOH     H2 3808   0.246   3.862   1.251
 1208HOH      O 3809   2.181   2.619   0.817
 1208HOH     H1 3810   2.272   2.630   0.845
 1208HOH     H2 3811   2.148   2.548   0.871
 1209HOH      O 3812   3.590   0.782   3.263
 1209HOH     H1 3813   3.571   0.768   3.170
 1209HOH     H2 3814   3.683   0.803   3.265
 1210HOH      O 3815   2.970   0.552   0.970
 1210HOH     H1 3816   2.895   0.603   1.000
 1210HOH     H2 3817   2.936   0.463   0.960
 1211HOH      O 3818   0.904   1.822   2.539
 1211HOH     H1 3819   0.842   1.893   2.520
 1211HOH     H2 3820   0.915   1.826   2.634
 1212HOH      O 3821   1.367   3.330   0.078
 1212HOH     H1 3822   1.401   3.313   0.166
 1212HOH     H2 3823   1.375   3.246   0.033
 1213HOH      O 3824   3.986   3.513   2.075
 1213HOH     H1 3825   4.023   3.429   2.102
 1213HOH     H2 3826   4.062   3.569   2.062
 1214HOH      O 3827   2.737   0.831   1.775
 1214HOH     H1 3828   2.672   0.890   1.738
 1214HOH     H2 3829   2.697   0.799   1.856
 1215HOH      O 3830   3.291   3.748   2.034
 1215HOH     H1 3831   3.357   3.779   2.096
 1215HOH     H2 3832   3.207   3.776   2.071
 1216HOH      O 3833   3.189   1.533   1.102
 1216HOH     H1 3834   3.209   1.624   1.079
 1216HOH     H2 3835   3.129   1.504   1.033
 1217HOH      O 3836   2.093   3.549   2.050
 1217HOH     H1 3837   2.064   3.466   2.014
 1217HOH     H2 3838   2.063   3.615   1.987
 1218HOH      O 3839   0.567   1.275   2.441
 1218HOH     H1 3840   0.535   1.191   2.474
 1218HOH     H2 3841   0.658   1.279   2.468
 1219HOH      O 3842   1.545   1.155   0.912
 1219HOH     H1 3843   1.598   1.084   0.875
 1219HOH     H2 3844   1.594   1.235   0.891
 1220HOH      O 3845   0.948   2.951   0.909
 1220HOH     H1 3846   1.016   2.884   0.908
 1220HOH     H2 3847   0.979   3.016   0.971
 1221HOH      O 3848   3.651   1.121   2.542
 1221HOH     H1 3849   3.729   1.135   2.488
 1221HOH     H2 3850   3.682   1.065   2.614
 1222HOH      O 3851   3.451   1.011   3.916
 1222HOH     H1 3852   3.500   1.081   3.874
 1222HOH     H2 3853   3.364   1.048   3.930
 1223HOH      O 3854   1.611   0.921   2.112
 1223HOH     H1 3855   1.633   0.860   2.042
 1223HOH     H2 3856   1.696   0.947   2.148
 1224HOH      O 3857   3.398   3.621   1.446
 1224HOH     H1 3858   3.467   3.596   1.507
 1224HOH     H2 3859   3.320   3.631   1.501
 1225HOH      O 3860   3.388   3.337   3.098
 1225HOH     H1 3861   3.338   3.256   3.111
 1225HOH     H2 3862   3.459   3.311   3.039
 1226HOH      O 3863   1.751   3.629   0.443
 1226HOH     H1 3864   1.815   3.700   0.448
 1226HOH     H2 3865   1.698   3.651   0.367
 1227HOH      O 3866   4.026   2.951   0.978
 1227HOH     H1 3867   3.939   2.992   0.979
 1227HOH     H2 3868   4.011   2.864   0.943
 1228HOH      O 3869   0.766   1.639   1.377
 1228HOH     H1 3870   0.839   1.688   1.340
 1228HOH     H2 3871   0.797   1.612   1.463
 1229HOH      O 3872   3.409   3.563   2.705
 1229HOH     H1 3873   3.480   3.543   2.766
 1229HOH     H2 3874   3.418   3.498   2.635
 1230HOH      O 3875   0.406   0.327   0.043
 1230HOH     H1 3876   0.369   0.285  -0.035
 1230HOH     H2 3877   0.357   0.289   0.116
 1231HOH      O 3878   3.053   0.694   3.041
 1231HOH     H1 3879   2.963   0.679   3.069
 1231HOH     H2 3880   3.104   0.628   3.087
 1232HOH      O 3881   3.600   0.307   2.143
 1232HOH     H1 3882   3.648   0.263   2.073
 1232HOH     H2 3883   3.551   0.376   2.099
 1233HOH      O 3884   2.388   0.877   3.571
 1233HOH     H1 3885   2.436   0.926   3.638
 1233HOH     H2 3886   2.395   0.786   3.600
 1234HOH      O 3887   0.009   2.618   3.578
 1234HOH     H1 3888   0.092   2.597   3.536
 1234HOH     H2 3889  -0.049   2.547   3.554
 1235HOH      O 3890   1.395   3.632   0.034
 1235HOH     H1 3891   1.350   3.553   0.066
 1235HOH     H2 3892   1.423   3.609  -0.054
 1236HOH      O 3893   0.554   1.291   1.524
 1236HOH     H1 3894   0.543   1.199   1.546
 1236HOH     H2 3895   0.612   1.292   1.448
 1237HOH      O 3896   0.973   3.340   3.502
 1237HOH     H1 3897   0.944   3.429   3.484
 1237HOH     H2 3898   0.991   3.339   3.596
 1238HOH      O 3899   2.053   1.795   3.503
 1238HOH     H1 3900   1.987   1.827   3.442
 1238HOH     H2 3901   2.112   1.742   3.449
 1239HOH      O 3902   0.165   0.145   1.284
 1239HOH     H1 3903   0.175   0.051   1.299
 1239HOH     H2 3904   0.102   0.151   1.212
 1240HOH      O 3905   3.921   2.740   1.208
 1240HOH     H1 3906   3.998   2.696   1.172
 1240HOH     H2 3907   3.851   2.721   1.145
 1241HOH      O 3908   0.337   2.398   3.425
 1241HOH     H1 3909   0.386   2.405   3.343
 1241HOH     H2 3910   0.361   2.477   3.474
 1242HOH      O 3911   3.014   3.036   3.017
 1242HOH     H1 3912   3.048   2.948   3.005
 1242HOH     H2 3913   3.055   3.088   2.948
 1243HOH      O 3914   0.468   2.917   2.444
 1243HOH     H1 3915   0.472   2.976   2.519
 1243HOH     H2 3916   0.499   2.969   2.370
 1244HOH      O 3917   1.534   1.902   3.497
 1244HOH     H1 3918   1.521   1.811   3.523
 1244HOH     H2 3919   1.525   1.952   3.579
 1245HOH      O 3920   3.271   1.451   2.712
 1245HOH     H1 3921   3.186   1.418   2.742
 1245HOH     H2 3922   3.319   1.372   2.686
 1246HOH      O 3923   3.380   2.682   3.178
 1246HOH     H1 3924   3.446   2.661   3.244
 1246HOH     H2 3925   3.299   2.694   3.228
 1247HOH      O 3926   1.889   2.818   3.851
 1247HOH     H1 3927   1.864   2.813   3.943
 1247HOH     H2 3928   1.823   2.765   3.805
 1248HOH      O 3929   3.165   0.752   0.442
 1248HOH     H1 3930   3.077   0.715   0.449
 1248HOH     H2 3931   3.222   0.677   0.427
 1249HOH      O 3932   2.926   2.176   3.766
 1249HOH     H1 3933   2.894   2.092   3.798
 1249HOH     H2 3934   2.984   2.155   3.693
 1250HOH      O 3935   1.830   1.570   1.414
 1250HOH     H1 3936   1.755   1.581   1.473
 1250HOH     H2 3937   1.838   1.475   1.403
 1251HOH      O 3938   1.736   3.687   3.370
 1251HOH     H1 3939   1.687   3.665   3.290
 1251HOH     H2 3940   1.693   3.766   3.403
 1252HOH      O 3941   1.050   1.052   0.779
 1252HOH     H1 3942   1.119   1.055   0.714
 1252HOH     H2 3943   1.021   1.143   0.789
 1253HOH      O 3944   0.479   2.528   1.697
 1253HOH     H1 3945   0.425   2.501   1.623
 1253HOH     H2 3946   0.500   2.620   1.680
 1254HOH      O 3947   0.855   1.382   2.529
 1254HOH     H1 3948   0.925   1.446   2.521
 1254HOH     H2 3949   0.897   1.306   2.570
 1255HOH      O 3950   0.348   2.505   2.924
 1255HOH     H1 3951   0.263   2.472   2.895
 1255HOH     H2 3952   0.411   2.467   2.863
 1256HOH      O 3953   3.952   4.007   2.854
 1256HOH     H1 3954   3.909   3.925   2.876
 1256HOH     H2 3955   4.022   4.016   2.920
 1257HOH      O 3956   2.761   0.293   0.286
 1257HOH     H1 3957   2.787   0.316   0.375
 1257HOH     H2 3958   2.823   0.339   0.229
 1258HOH      O 3959   0.998   2.364   1.317
 1258HOH     H1 3960   1.019   2.457   1.326
 1258HOH     H2 3961   0.957   2.340   1.400
 1259HOH      O 3962   0.391   2.886   3.166
 1259HOH     H1 3963   0.429   2.887   3.253
 1259HOH     H2 3964   0.440   2.952   3.117
 1260HOH      O 3965   2.712   2.390   0.411
 1260HOH     H1 3966   2.707   2.474   0.455
 1260HOH     H2 3967   2.621   2.359   0.408
 1261HOH      O 3968   1.479   2.853   2.834
 1261HOH     H1 3969   1.568   2.855   2.868
 1261HOH     H2 3970   1.458   2.760   2.826
 1262HOH      O 3971   2.215   1.452   3.996
 1262HOH     H1 3972   2.262   1.381   4.039
 1262HOH     H2 3973   2.184   1.414   3.914
 1263HOH      O 3974   0.607   0.626   1.395
 1263HOH     H1 3975   0.534   0.603   1.339
 1263HOH     H2 3976   0.604   0.561   1.466
 1264HOH      O 3977   1.514   2.685   3.326
 1264HOH     H1 3978   1.497   2.656   3.416
 1264HOH     H2 3979   1.429   2.682   3.283
 1265HOH      O 3980   1.906   3.028   3.174
 1265HOH     H1 3981   1.962   2.966   3.221
 1265HOH     H2 3982   1.946   3.114   3.191
 1266HOH      O 3983   0.057   2.266   0.891
 1266HOH     H1 3984  -0.002   2.201   0.851
 1266HOH     H2 3985   0.133   2.215   0.918
 1267HOH      O 3986   1.849   3.801   2.721
 1267HOH     H1 3987   1.816   3.762   2.803
 1267HOH     H2 3988   1.888   3.884   2.748
 1268HOH      O 3989   3.018   1.510   3.425
 1268HOH     H1 3990   2.954   1.572   3.461
 1268HOH     H2 3991   2.998   1.506   3.332
 1269HOH      O 3992   1.215   2.785   1.791
 1269HOH     H1 3993   1.168   2.848   1.846
 1269HOH     H2 3994   1.152   2.714   1.777
 1270HOH      O 3995   3.407   0.509   0.875
 1270HOH     H1 3996   3.368   0.499   0.962
 1270HOH     H2 3997   3.345   0.562   0.826
 1271HOH      O 3998   3.416   2.194   2.790
 1271HOH     H1 3999   3.329   2.183   2.751
 1271HOH     H2 4000   3.435   2.288   2.782
 1272HOH      O 4001   2.971   3.341   1.002
 1272HOH     H1 4002   2.908   3.294   0.947
 1272HOH     H2 4003   2.932   3.428   1.014
 1273HOH      O 4004   3.727   1.202   2.173
 1273HOH     H1 4005   3.751   1.109   2.167
 1273HOH     H2 4006   3.651   1.203   2.231
 1274HOH      O 4007   3.105   0.822   1.205
 1274HOH     H1 4008   3.111   0.734   1.243
 1274HOH     H2 4009   3.196   0.850   1.196
 1275HOH      O 4010   0.796   0.485   1.539
 1275HOH     H1 4011   0.889   0.462   1.546
 1275HOH     H2 4012   0.790   0.538   1.460
 1276HOH      O 4013   2.286   0.578   2.105
 1276HOH     H1 4014   2.282   0.541   2.016
 1276HOH     H2 4015   2.194   0.583   2.133
 1277HOH      O 4016   1.544   2.859   3.531
 1277HOH     H1 4017   1.507   2.943   3.507
 1277HOH     H2 4018   1.573   2.820   3.449
 1278HOH      O 4019   2.313   0.171   3.115
 1278HOH     H1 4020   2.398   0.194   3.153
 1278HOH     H2 4021   2.249   0.202   3.180
 1279HOH      O 4022   3.748   2.440   1.887
 1279HOH     H1 4023   3.738   2.360   1.835
 1279HOH     H2 4024   3.663   2.450   1.930
 1280HOH      O 4025   1.540   3.060   1.224
 1280HOH     H1 4026   1.488   3.131   1.262
 1280HOH     H2 4027   1.627   3.098   1.212
 1281HOH      O 4028   2.208   2.108   3.414
 1281HOH     H1 4029   2.117   2.098   3.441
 1281HOH     H2 4030   2.207   2.093   3.319
 1282HOH      O 4031   1.473   0.061   2.671
 1282HOH     H1 4032   1.511   0.127   2.729
 1282HOH     H2 4033   1.523   0.070   2.589
 1283HOH      O 4034   2.881   3.097   0.875
 1283HOH     H1 4035   2.809   3.040   0.902
 1283HOH     H2 4036   2.912   3.060   0.793
 1284HOH      O 4037   0.665   0.516   2.205
 1284HOH     H1 4038   0.722   0.592   2.205
 1284HOH     H2 4039   0.580   0.549   2.234
 1285HOH      O 4040   2.254   3.560   0.751
 1285HOH     H1 4041   2.237   3.653   0.736
 1285HOH     H2 4042   2.233   3.518   0.667
 1286HOH      O 4043   2.445   2.252   1.351
 1286HOH     H1 4044   2.459   2.327   1.409
 1286HOH     H2 4045   2.358   2.219   1.376
 1287HOH      O 4046   3.341   2.214   1.844
 1287HOH     H1 4047   3.284   2.144   1.813
 1287HOH     H2 4048   3.427   2.193   1.807
 1288HOH      O 4049   1.510   2.568   2.860
 1288HOH     H1 4050   1.479   2.479   2.874
 1288HOH     H2 4051   1.597   2.570   2.900
 1289HOH      O 4052   0.896   2.398   0.475
 1289HOH     H1 4053   0.911   2.475   0.530
 1289HOH     H2 4054   0.871   2.329   0.537
 1290HOH      O 4055   3.791   2.309   3.993
 1290HOH     H1 4056   3.758   2.364   3.922
 1290HOH     H2 4057   3.837   2.237   3.948
 1291HOH      O 4058   3.685   3.482   2.886
 1291HOH     H1 4059   3.670   3.536   2.809
 1291HOH     H2 4060   3.641   3.399   2.868
 1292HOH      O 4061   2.209   2.689   1.118
 1292HOH     H1 4062   2.271   2.646   1.177
 1292HOH     H2 4063   2.257   2.698   1.035
 1293HOH      O 4064   0.868   3.878   1.319
 1293HOH     H1 4065   0.919   3.924   1.385
 1293HOH     H2 4066   0.879   3.931   1.240
 1294HOH      O 4067   1.292   3.977   3.689
 1294HOH     H1 4068   1.253   3.965   3.776
 1294HOH     H2 4069   1.233   3.931   3.629
 1295HOH      O 4070   1.158   2.269   0.050
 1295HOH     H1 4071   1.073   2.311   0.034
 1295HOH     H2 4072   1.157   2.250   0.144
 1296HOH      O 4073   1.530   0.850   0.081
 1296HOH     H1 4074   1.527   0.755   0.074
 1296HOH     H2 4075   1.572   0.867   0.165
 1297HOH      O 4076   2.542   1.358   0.162
 1297HOH     H1 4077   2.493   1.426   0.208
 1297HOH     H2 4078   2.476   1.299   0.127
 1298HOH      O 4079   3.791   2.361   1.449
 1298HOH     H1 4080   3.748   2.404   1.375
 1298HOH     H2 4081   3.750   2.400   1.526
 1299HOH      O 4082   3.076   2.337   3.030
 1299HOH     H1 4083   3.068   2.253   3.074
 1299HOH     H2 4084   3.161   2.371   3.058
 1300HOH      O 4085   3.613   0.077   1.447
 1300HOH     H1 4086   3.692   0.121   1.418
 1300HOH     H2 4087   3.643  -0.009   1.478
 1301HOH      O 4088   3.333   1.812   1.285
 1301HOH     H1 4089   3.357   1.803   1.193
 1301HOH     H2 4090   3.331   1.723   1.319
 1302HOH      O 4091   2.234   3.813   2.122
 1302HOH     H1 4092   2.223   3.760   2.043
 1302HOH     H2 4093   2.176   3.773   2.186
 1303HOH      O 4094   3.610   1.432   1.561
 1303HOH     H1 4095   3.587   1.420   1.653
 1303HOH     H2 4096   3.553   1.371   1.514
 1304HOH      O 4097   1.048   2.470   3.445
 1304HOH     H1 4098   1.080   2.553   3.480
 1304HOH     H2 4099   1.126   2.416   3.438
 1305HOH      O 4100   3.340   0.533   0.373
 1305HOH     H1 4101   3.381   0.503   0.454
 1305HOH     H2 4102   3.401   0.507   0.305
 1306HOH      O 4103   1.857   2.097   2.899
 1306HOH     H1 4104   1.904   2.058   2.973
 1306HOH     H2 4105   1.907   2.176   2.879
 1307HOH      O 4106   1.554   0.152   1.642
 1307HOH     H1 4107   1.458   0.149   1.652
 1307HOH     H2 4108   1.576   0.071   1.595
 1308HOH      O 4109   2.348   3.130   0.689
 1308HOH     H1 4110   2.377   3.040   0.672
 1308HOH     H2 4111   2.305   3.157   0.607
 1309HOH      O 4112   2.665   1.427   1.943
 1309HOH     H1 4113   2.640   1.517   1.922
 1309HOH     H2 4114   2.706   1.394   1.863
 1310HOH      O 4115   0.246   2.722   4.000
 1310HOH     H1 4116   0.320   2.712   3.940
 1310HOH     H2 4117   0.172   2.682   3.955
 1311HOH      O 4118   2.764   2.808   3.855
 1311HOH     H1 4119   2.691   2.869   3.849
 1311HOH     H2 4120   2.833   2.848   3.803
 1312HOH      O 4121   1.508   1.395   3.032
 1312HOH     H1 4122   1.522   1.431   2.945
 1312HOH     H2 4123   1.445   1.323   3.018
 1313HOH      O 4124   3.031   0.284   1.404
 1313HOH     H1 4125   3.024   0.218   1.335
 1313HOH     H2 4126   3.002   0.238   1.484
 1314HOH      O 4127   2.986   2.219   1.757
 1314HOH     H1 4128   2.918   2.158   1.729
 1314HOH     H2 4129   2.992   2.283   1.686
 1315HOH      O 4130   2.311   0.196   1.934
 1315HOH     H1 4131   2.249   0.146   1.987
 1315HOH     H2 4132   2.395   0.184   1.978
 1316HOH      O 4133   2.188   1.347   3.745
 1316HOH     H1 4134   2.131   1.277   3.711
 1316HOH     H2 4135   2.144   1.428   3.720
 1317HOH      O 4136   3.719   2.258   3.100
 1317HOH     H1 4137   3.649   2.199   3.131
 1317HOH     H2 4138   3.719   2.330   3.164
 1318HOH      O 4139   0.308   3.408   1.085
 1318HOH     H1 4140   0.402   3.394   1.075
 1318HOH     H2 4141   0.291   3.392   1.178
 1319HOH      O 4142   2.510   1.594   0.916
 1319HOH     H1 4143   2.493   1.623   0.826
 1319HOH     H2 4144   2.543   1.504   0.907
 1320HOH      O 4145   3.059   0.700   0.127
 1320HOH     H1 4146   3.047   0.774   0.185
 1320HOH     H2 4147   2.988   0.640   0.148
 1321HOH      O 4148   3.488   1.172   2.343
 1321HOH     H1 4149   3.401   1.210   2.353
 1321HOH     H2 4150   3.520   1.162   2.433
 1322HOH      O 4151   1.727   3.962   1.525
 1322HOH     H1 4152   1.761   4.042   1.485
 1322HOH     H2 4153   1.713   3.902   1.452
 1323HOH      O 4154   2.206   1.719   2.777
 1323HOH     H1 4155   2.200   1.660   2.853
 1323HOH     H2 4156   2.258   1.671   2.713
 1324HOH      O 4157   2.798   2.328   4.052
 1324HOH     H1 4158   2.837   2.415   4.052
 1324HOH     H2 4159   2.827   2.288   3.970
 1325HOH      O 4160   3.050   3.464   2.155
 1325HOH     H1 4161   3.100   3.399   2.204
 1325HOH     H2 4162   3.007   3.414   2.085
 1326HOH      O 4163   3.159   1.643   0.679
 1326HOH     H1 4164   3.105   1.716   0.707
 1326HOH     H2 4165   3.115   1.610   0.600
 1327HOH      O 4166   0.177   2.558   0.592
 1327HOH     H1 4167   0.194   2.647   0.563
 1327HOH     H2 4168   0.192   2.560   0.687
 1328HOH      O 4169   2.843   1.596   1.538
 1328HOH     H1 4170   2.840   1.535   1.465
 1328HOH     H2 4171   2.926   1.642   1.528
 1329HOH      O 4172   1.533   3.176   2.260
 1329HOH     H1 4173   1.573   3.199   2.344
 1329HOH     H2 4174   1.444   3.211   2.265
 1330HOH      O 4175   2.656   2.236   3.350
 1330HOH     H1 4176   2.638   2.271   3.263
 1330HOH     H2 4177   2.575   2.249   3.399
 1331HOH      O 4178   1.036   1.793   2.796
 1331HOH     H1 4179   1.112   1.818   2.744
 1331HOH     H2 4180   1.019   1.870   2.851
 1332HOH      O 4181   0.108   2.194   3.285
 1332HOH     H1 4182   0.079   2.285   3.279
 1332HOH     H2 4183   0.202   2.201   3.305
 1333HOH      O 4184   1.074   3.483   2.531
 1333HOH     H1 4185   1.019   3.542   2.479
 1333HOH     H2 4186   1.127   3.541   2.585
 1334HOH      O 4187   1.014   3.614   3.672
 1334HOH     H1 4188   0.921   3.638   3.672
 1334HOH     H2 4189   1.053   3.670   3.605
 1335HOH      O 4190   0.935   3.920  -0.037
 1335HOH     H1 4191   0.878   3.990  -0.006
 1335HOH     H2 4192   0.971   3.882   0.043
 1336HOH      O 4193   0.802   0.606   3.105
 1336HOH     H1 4194   0.842   0.523   3.130
 1336HOH     H2 4195   0.765   0.640   3.186
 1337HOH      O 4196   2.617   2.853   0.635
 1337HOH     H1 4197   2.652   2.880   0.720
 1337HOH     H2 4198   2.621   2.932   0.582
 1338HOH      O 4199   0.019   1.216   3.774
 1338HOH     H1 4200   0.079   1.143   3.788
 1338HOH     H2 4201  -0.062   1.175   3.744
 1339HOH      O 4202   3.132   1.745   0.365
 1339HOH     H1 4203   3.164   1.834   0.352
 1339HOH     H2 4204   3.191   1.690   0.315
 1340HOH      O 4205   2.663   2.022   3.189
 1340HOH     H1 4206   2.719   2.042   3.114
 1340HOH     H2 4207   2.689   2.084   3.256
 1341HOH      O 4208   0.954   1.620   1.877
 1341HOH     H1 4209   1.046   1.593   1.866
 1341HOH     H2 4210   0.913   1.545   1.920
 1342HOH      O 4211   1.474   1.366   0.313
 1342HOH     H1 4212   1.553   1.320   0.283
 1342HOH     H2 4213   1.455   1.428   0.243
 1343HOH      O 4214   2.461   3.199   2.248
 1343HOH     H1 4215   2.405   3.275   2.235
 1343HOH     H2 4216   2.409   3.125   2.217
 1344HOH      O 4217   2.158   0.835   2.487
 1344HOH     H1 4218   2.197   0.884   2.415
 1344HOH     H2 4219   2.077   0.800   2.451
 1345HOH      O 4220   0.262   3.873   0.692
 1345HOH     H1 4221   0.190   3.852   0.633
 1345HOH     H2 4222   0.338   3.831   0.652
 1346HOH      O 4223   1.126   3.648   1.051
 1346HOH     H1 4224   1.109   3.730   1.096
 1346HOH     H2 4225   1.197   3.667   0.990
 1347HOH      O 4226   3.403   2.246   0.195
 1347HOH     H1 4227   3.397   2.331   0.240
 1347HOH     H2 4228   3.408   2.182   0.266
 1348HOH      O 4229   3.285   3.601   1.160
 1348HOH     H1 4230   3.331   3.614   1.243
 1348HOH     H2 4231   3.355   3.597   1.095
 1349HOH      O 4232   1.431   2.975   1.851
 1349HOH     H1 4233   1.511   2.953   1.802
 1349HOH     H2 4234   1.370   2.905   1.829
 1350HOH      O 4235   1.420   2.238  -0.017
 1350HOH     H1 4236   1.327   2.236   0.004
 1350HOH     H2 4237   1.462   2.188   0.053
 1351HOH      O 4238   0.905   3.001   1.606
 1351HOH     H1 4239   0.988   2.959   1.585
 1351HOH     H2 4240   0.926   3.064   1.675
 1352HOH      O 4241   1.761   1.038   3.796
 1352HOH     H1 4242   1.675   1.013   3.763
 1352HOH     H2 4243   1.796   0.958   3.835
 1353HOH      O 4244   3.266   0.645   2.599
 1353HOH     H1 4245   3.334   0.636   2.666
 1353HOH     H2 4246   3.315   0.643   2.516
 1354HOH      O 4247   2.236   1.962   1.997
 1354HOH     H1 4248   2.245   1.950   2.091
 1354HOH     H2 4249   2.219   2.055   1.986
 1355HOH      O 4250   2.755   1.256   1.141
 1355HOH     H1 4251   2.839   1.227   1.105
 1355HOH     H2 4252   2.728   1.184   1.198
 1356HOH      O 4253   1.210   2.809   1.234
 1356HOH     H1 4254   1.225   2.887   1.180
 1356HOH     H2 4255   1.297   2.767   1.239
 1357HOH      O 4256   2.447   1.581   2.725
 1357HOH     H1 4257   2.514   1.640   2.759
 1357HOH     H2 4258   2.476   1.560   2.636
 1358HOH      O 4259   2.083   0.476   3.077
 1358HOH     H1 4260   2.102   0.392   3.120
 1358HOH     H2 4261   2.163   0.527   3.087
 1359HOH      O 4262   2.235   3.869   0.245
 1359HOH     H1 4263   2.289   3.948   0.254
 1359HOH     H2 4264   2.245   3.825   0.329
 1360HOH      O 4265   1.867   2.003   3.974
 1360HOH     H1 4266   1.783   1.962   3.953
 1360HOH     H2 4267   1.923   1.985   3.898
 1361HOH      O 4268   1.018   3.182   2.764
 1361HOH     H1 4269   0.989   3.269   2.737
 1361HOH     H2 4270   0.976   3.123   2.701
 1362HOH      O 4271   1.306   1.433   1.463
 1362HOH     H1 4272   1.308   1.473   1.377
 1362HOH     H2 4273   1.391   1.390   1.472
 1363HOH      O 4274   0.840   3.574   3.432
 1363HOH     H1 4275   0.805   3.655   3.395
 1363HOH     H2 4276   0.769   3.511   3.420
 1364HOH      O 4277   2.822   3.959   0.972
 1364HOH     H1 4278   2.900   3.922   1.014
 1364HOH     H2 4279   2.854   3.990   0.886
 1365HOH      O 4280   2.467   1.841   0.530
 1365HOH     H1 4281   2.545   1.877   0.487
 1365HOH     H2 4282   2.403   1.912   0.527
 1366HOH      O 4283   0.200   0.573   3.742
 1366HOH     H1 4284   0.105   0.575   3.725
 1366HOH     H2 4285   0.227   0.486   3.715
 1367HOH      O 4286   1.490   1.228   1.446
 1367HOH     H1 4287   1.567   1.233   1.390
 1367HOH     H2 4288   1.488   1.137   1.475
 1368HOH      O 4289   1.679   3.451   2.886
 1368HOH     H1 4290   1.678   3.359   2.860
 1368HOH     H2 4291   1.771   3.470   2.903
 1369HOH      O 4292   2.473   3.201   1.882
 1369HOH     H1 4293   2.473   3.155   1.798
 1369HOH     H2 4294   2.496   3.134   1.946
 1370HOH      O 4295   3.446   3.016   2.411
 1370HOH     H1 4296   3.411   2.949   2.352
 1370HOH     H2 4297   3.430   3.098   2.366
 1371HOH      O 4298   2.075   3.757   1.873
 1371HOH     H1 4299   2.018   3.828   1.902
 1371HOH     H2 4300   2.144   3.800   1.823
 1372HOH      O 4301   2.193   3.877   3.699
 1372HOH     H1 4302   2.151   3.887   3.785
 1372HOH     H2 4303   2.257   3.948   3.696
 1373HOH      O 4304   0.126   3.736   1.499
 1373HOH     H1 4305   0.128   3.769   1.589
 1373HOH     H2 4306   0.046   3.683   1.495
 1374HOH      O 4307   1.848   0.630   3.418
 1374HOH     H1 4308   1.894   0.585   3.489
 1374HOH     H2 4309   1.918   0.659   3.359
 1375HOH      O 4310   0.778   3.448   2.612
 1375HOH     H1 4311   0.831   3.499   2.550
 1375HOH     H2 4312   0.766   3.363   2.568
 1376HOH      O 4313   2.671   3.737   2.446
 1376HOH     H1 4314   2.619   3.673   2.494
 1376HOH     H2 4315   2.733   3.685   2.395
 1377HOH      O 4316   2.146   3.401   2.562
 1377HOH     H1 4317   2.113   3.488   2.585
 1377HOH     H2 4318   2.067   3.346   2.557
 1378HOH      O 4319   1.775   1.083   3.423
 1378HOH     H1 4320   1.778   1.003   3.476
 1378HOH     H2 4321   1.683   1.093   3.399
 1379HOH      O 4322   2.031   1.033   0.725
 1379HOH     H1 4323   1.967   1.041   0.654
 1379HOH     H2 4324   2.010   1.104   0.785
 1380HOH      O 4325   0.834   1.684   3.664
 1380HOH     H1 4326   0.907   1.624   3.676
 1380HOH     H2 4327   0.760   1.642   3.708
 1381HOH      O 4328   2.688   2.581   3.275
 1381HOH     H1 4329   2.657   2.499   3.236
 1381HOH     H2 4330   2.635   2.590   3.355
 1382HOH      O 4331   2.478   1.392   2.236
 1382HOH     H1 4332   2.559   1.355   2.201
 1382HOH     H2 4333   2.450   1.455   2.170
 1383HOH      O 4334   1.677   0.606   0.536
 1383HOH     H1 4335   1.736   0.649   0.598
 1383HOH     H2 4336   1.704   0.639   0.451
 1384HOH      O 4337   1.192   0.496   0.390
 1384HOH     H1 4338   1.260   0.563   0.388
 1384HOH     H2 4339   1.240   0.413   0.395
 1385HOH      O 4340   0.569   2.801   0.529
 1385HOH     H1 4341   0.475   2.804   0.509
 1385HOH     H2 4342   0.602   2.727   0.479
 1386HOH      O 4343   2.603   2.827   2.515
 1386HOH     H1 4344   2.521   2.869   2.489
 1386HOH     H2 4345   2.589   2.800   2.606
 1387HOH      O 4346   3.244   1.812   0.997
 1387HOH     H1 4347   3.329   1.791   0.959
 1387HOH     H2 4348   3.195   1.852   0.926
 1388HOH      O 4349   1.118   3.457   1.399
 1388HOH     H1 4350   1.031   3.445   1.362
 1388HOH     H2 4351   1.110   3.430   1.491
 1389HOH      O 4352   0.023   3.194   0.201
 1389HOH     H1 4353  -0.008   3.210   0.290
 1389HOH     H2 4354   0.029   3.099   0.195
 1390HOH      O 4355   3.590   2.250   0.768
 1390HOH     H1 4356   3.583   2.268   0.861
 1390HOH     H2 4357   3.500   2.231   0.740
 1391HOH      O 4358   3.397   1.947   2.029
 1391HOH     H1 4359   3.304   1.938   2.049
 1391HOH     H2 4360   3.423   2.028   2.072
 1392HOH      O 4361   1.399   3.295   2.658
 1392HOH     H1 4362   1.444   3.368   2.702
 1392HOH     H2 4363   1.329   3.337   2.609
 1393HOH      O 4364   3.327   2.944   1.723
 1393HOH     H1 4365   3.374   2.936   1.806
 1393HOH     H2 4366   3.274   3.023   1.733
 1394HOH      O 4367   2.924   3.621   1.948
 1394HOH     H1 4368   2.834   3.588   1.955
 1394HOH     H2 4369   2.926   3.670   1.866
 1395HOH      O 4370   1.725   2.882   0.840
 1395HOH     H1 4371   1.790   2.892   0.909
 1395HOH     H2 4372   1.711   2.971   0.807
 1396HOH      O 4373   2.662   1.634   1.147
 1396HOH     H1 4374   2.587   1.620   1.089
 1396HOH     H2 4375   2.625   1.673   1.226
 1397HOH      O 4376   1.820   0.057   2.230
 1397HOH     H1 4377   1.814  -0.030   2.192
 1397HOH     H2 4378   1.836   0.115   2.155
 1398HOH      O 4379   1.898   0.412   0.296
 1398HOH     H1 4380   1.842   0.458   0.233
 1398HOH     H2 4381   1.968   0.374   0.243
 1399HOH      O 4382   0.102   0.036   1.951
 1399HOH     H1 4383   0.179   0.072   1.907
 1399HOH     H2 4384   0.138  -0.025   2.015
 1400HOH      O 4385   2.323   2.794   0.603
 1400HOH     H1 4386   2.291   2.720   0.654
 1400HOH     H2 4387   2.418   2.787   0.608
 1401HOH      O 4388   0.143   0.864   1.149
 1401HOH     H1 4389   0.168   0.793   1.090
 1401HOH     H2 4390   0.100   0.820   1.222
 1402HOH      O 4391   1.601   3.654   0.235
 1402HOH     H1 4392   1.611   3.732   0.180
 1402HOH     H2 4393   1.507   3.635   0.233
 1403HOH      O 4394   1.018   1.596   2.510
 1403HOH     H1 4395   0.967   1.677   2.516
 1403HOH     H2 4396   1.065   1.603   2.427
 1404HOH      O 4397   2.599   3.140   1.101
 1404HOH     H1 4398   2.541   3.063   1.102
 1404HOH     H2 4399   2.680   3.109   1.141
 1405HOH      O 4400   1.279   0.305   1.046
 1405HOH     H1 4401   1.304   0.330   1.135
 1405HOH     H2 4402   1.254   0.388   1.004
 1406HOH      O 4403   1.446   1.543   0.553
 1406HOH     H1 4404   1.420   1.510   0.467
 1406HOH     H2 4405   1.445   1.465   0.609
 1407HOH      O 4406   0.252   1.774   2.690
 1407HOH     H1 4407   0.344   1.754   2.673
 1407HOH     H2 4408   0.246   1.779   2.785
 1408HOH      O 4409   1.342   2.939   0.199
 1408HOH     H1 4410   1.331   3.002   0.129
 1408HOH     H2 4411   1.405   2.875   0.164
 1409HOH      O 4412   1.353   0.461   1.801
 1409HOH     H1 4413   1.320   0.375   1.829
 1409HOH     H2 4414   1.374   0.506   1.883
 1410HOH      O 4415   3.267   0.245   1.193
 1410HOH     H1 4416   3.330   0.218   1.260
 1410HOH     H2 4417   3.185   0.203   1.218
 1411HOH      O 4418   1.045   0.394   1.549
 1411HOH     H1 4419   1.109   0.405   1.478
 1411HOH     H2 4420   1.077   0.452   1.618
 1412HOH      O 4421   3.737   2.624   1.013
 1412HOH     H1 4422   3.803   2.566   0.975
 1412HOH     H2 4423   3.662   2.616   0.955
 1413HOH      O 4424   2.810   0.542   1.590
 1413HOH     H1 4425   2.743   0.609   1.606
 1413HOH     H2 4426   2.796   0.477   1.659
 1414HOH      O 4427   3.030   1.087   2.495
 1414HOH     H1 4428   2.975   1.132   2.558
 1414HOH     H2 4429   3.032   0.996   2.525
 1415HOH      O 4430   0.965   2.595   0.658
 1415HOH     H1 4431   0.966   2.683   0.620
 1415HOH     H2 4432   1.019   2.602   0.736
 1416HOH      O 4433   1.955   3.459   2.898
 1416HOH     H1 4434   1.975   3.522   2.829
 1416HOH     H2 4435   2.017   3.388   2.886
 1417HOH      O 4436   2.871   0.802   3.297
 1417HOH     H1 4437   2.871   0.724   3.241
 1417HOH     H2 4438   2.798   0.855   3.264
 1418HOH      O 4439   1.693   0.955   0.791
 1418HOH     H1 4440   1.735   0.870   0.780
 1418HOH     H2 4441   1.715   1.003   0.711
 1419HOH      O 4442   2.807   2.212   0.601
 1419HOH     H1 4443   2.735   2.149   0.606
 1419HOH     H2 4444   2.788   2.264   0.522
 1420HOH      O 4445   0.380   1.652   0.239
 1420HOH     H1 4446   0.399   1.603   0.159
 1420HOH     H2 4447   0.436   1.730   0.232
 1421HOH      O 4448   2.613   2.537   2.068
 1421HOH     H1 4449   2.603   2.619   2.020
 1421HOH     H2 4450   2.701   2.541   2.105
 1422HOH      O 4451   3.642   1.606   3.445
 1422HOH     H1 4452   3.733   1.631   3.460
 1422HOH     H2 4453   3.635   1.597   3.350
 1423HOH      O 4454   1.074   1.957   3.660
 1423HOH     H1 4455   1.104   1.873   3.624
 1423HOH     H2 4456   1.127   1.971   3.738
 1424HOH      O 4457   3.478   2.232   1.264
 1424HOH     H1 4458   3.506   2.153   1.309
 1424HOH     H2 4459   3.466   2.297   1.333
 1425HOH      O 4460   3.374   0.056   2.006
 1425HOH     H1 4461   3.402   0.095   1.923
 1425HOH     H2 4462   3.428  -0.023   2.014
 1426HOH      O 4463   0.380   0.020   3.693
 1426HOH     H1 4464   0.476   0.012   3.692
 1426HOH     H2 4465   0.353   0.003   3.603
 1427HOH      O 4466   2.956   3.855   3.088
 1427HOH     H1 4467   2.992   3.830   3.003
 1427HOH     H2 4468   2.920   3.942   3.074
 1428HOH      O 4469   1.357   0.769   1.268
 1428HOH     H1 4470   1.413   0.742   1.341
 1428HOH     H2 4471   1.294   0.830   1.307
 1429HOH      O 4472   0.248   3.565   0.454
 1429HOH     H1 4473   0.211   3.549   0.540
 1429HOH     H2 4474   0.177   3.544   0.393
 1430HOH      O 4475   0.639   1.919   1.442
 1430HOH     H1 4476   0.605   1.854   1.381
 1430HOH     H2 4477   0.626   1.880   1.529
 1431HOH      O 4478   2.418   0.691   0.544
 1431HOH     H1 4479   2.323   0.676   0.553
 1431HOH     H2 4480   2.425   0.785   0.528
 1432HOH      O 4481   2.952   1.129   2.997
 1432HOH     H1 4482   2.972   1.129   3.091
 1432HOH     H2 4483   3.026   1.084   2.957
 1433HOH      O 4484   1.183   1.324   0.269
 1433HOH     H1 4485   1.273   1.330   0.300
 1433HOH     H2 4486   1.138   1.396   0.313
 1434HOH      O 4487   0.065   2.453   3.225
 1434HOH     H1 4488   0.107   2.530   3.262
 1434HOH     H2 4489   0.095   2.450   3.134
 1435HOH      O 4490   0.753   0.943   3.425
 1435HOH     H1 4491   0.670   0.924   3.468
 1435HOH     H2 4492   0.794   0.857   3.413
 1436HOH      O 4493   0.217   2.058   2.518
 1436HOH     H1 4494   0.224   1.975   2.564
 1436HOH     H2 4495   0.153   2.042   2.448
 1437HOH      O 4496   2.673   2.363   3.097
 1437HOH     H1 4497   2.711   2.429   3.040
 1437HOH     H2 4498   2.587   2.346   3.060
 1438HOH      O 4499   2.747   3.618   3.134
 1438HOH     H1 4500   2.752   3.618   3.039
 1438HOH     H2 4501   2.796   3.696   3.161
 1439HOH      O 4502   2.938   3.618   0.306
 1439HOH     H1 4503   2.882   3.545   0.331
 1439HOH     H2 4504   2.888   3.696   0.330
 1440HOH      O 4505   3.273   1.204   3.897
 1440HOH     H1 4506   3.338   1.274   3.903
 1440HOH     H2 4507   3.193   1.242   3.934
 1441HOH      O 4508   1.714   4.003   0.779
 1441HOH     H1 4509   1.672   4.073   0.829
 1441HOH     H2 4510   1.782   3.969   0.838
 1442HOH      O 4511   2.861   0.986   2.190
 1442HOH     H1 4512   2.942   1.000   2.142
 1442HOH     H2 4513   2.883   0.923   2.259
 1443HOH      O 4514   2.063   3.255   1.326
 1443HOH     H1 4515   2.074   3.216   1.239
 1443HOH     H2 4516   2.037   3.345   1.309
 1444HOH      O 4517   1.934   1.303   3.971
 1444HOH     H1 4518   1.956   1.266   3.886
 1444HOH     H2 4519   1.901   1.390   3.951
 1445HOH      O 4520   1.465   3.291   0.328
 1445HOH     H1 4521   1.540   3.344   0.357
 1445HOH     H2 4522   1.454   3.225   0.396
 1446HOH      O 4523   2.696   1.965   0.410
 1446HOH     H1 4524   2.740   2.024   0.349
 1446HOH     H2 4525   2.720   1.878   0.381
 1447HOH      O 4526   0.333   1.148   0.814
 1447HOH     H1 4527   0.419   1.189   0.812
 1447HOH     H2 4528   0.292   1.183   0.894
 1448HOH      O 4529   2.572   2.759   1.848
 1448HOH     H1 4530   2.583   2.676   1.801
 1448HOH     H2 4531   2.591   2.826   1.782
 1449HOH      O 4532   0.679   2.050   1.093
 1449HOH     H1 4533   0.649   2.108   1.163
 1449HOH     H2 4534   0.774   2.045   1.104
 1450HOH      O 4535   1.356   1.017   2.637
 1450HOH     H1 4536   1.290   0.949   2.652
 1450HOH     H2 4537   1.433   0.986   2.683
 1451HOH      O 4538   0.708   1.713   2.179
 1451HOH     H1 4539   0.773   1.654   2.216
 1451HOH     H2 4540   0.663   1.661   2.112
 1452HOH      O 4541   3.866   0.549   1.107
 1452HOH     H1 4542   3.811   0.547   1.185
 1452HOH     H2 4543   3.804   0.552   1.034
 1453HOH      O 4544   0.087   3.336   2.484
 1453HOH     H1 4545   0.169   3.324   2.533
 1453HOH     H2 4546   0.075   3.431   2.481
 1454HOH      O 4547   3.324   2.353   2.087
 1454HOH     H1 4548   3.278   2.297   2.026
 1454HOH     H2 4549   3.382   2.294   2.136
 1455HOH      O 4550   3.797   1.072   0.486
 1455HOH     H1 4551   3.842   1.133   0.427
 1455HOH     H2 4552   3.737   1.128   0.537
 1456HOH      O 4553   1.840   0.804   1.698
 1456HOH     H1 4554   1.878   0.819   1.784
 1456HOH     H2 4555   1.799   0.718   1.703
 1457HOH      O 4556   3.347   2.479   2.678
 1457HOH     H1 4557   3.301   2.551   2.722
 1457HOH     H2 4558   3.407   2.523   2.618
 1458HOH      O 4559   1.468   3.566   0.827
 1458HOH     H1 4560   1.446   3.636   0.889
 1458HOH     H2 4561   1.488   3.490   0.883
 1459HOH      O 4562   3.840   1.766   3.493
 1459HOH     H1 4563   3.765   1.826   3.488
 1459HOH     H2 4564   3.906   1.815   3.540
 1460HOH      O 4565   2.443   2.218   3.529
 1460HOH     H1 4566   2.363   2.175   3.497
 1460HOH     H2 4567   2.475   2.160   3.599
 1461HOH      O 4568   0.898   2.313   1.578
 1461HOH     H1 4569   0.827   2.378   1.581
 1461HOH     H2 4570   0.854   2.232   1.551
 1462HOH      O 4571   0.631   0.792   4.027
 1462HOH     H1 4572   0.597   0.741   3.953
 1462HOH     H2 4573   0.674   0.727   4.083
 1463HOH      O 4574   2.725   2.875   3.348
 1463HOH     H1 4575   2.687   2.788   3.337
 1463HOH     H2 4576   2.792   2.864   3.415
 1464HOH      O 4577   1.136   3.831   3.513
 1464HOH     H1 4578   1.159   3.780   3.436
 1464HOH     H2 4579   1.114   3.918   3.479
 1465HOH      O 4580   3.803   0.877   0.681
 1465HOH     H1 4581   3.775   0.928   0.605
 1465HOH     H2 4582   3.893   0.850   0.660
 1466HOH      O 4583   1.399   3.801   3.045
 1466HOH     H1 4584   1.452   3.820   2.967
 1466HOH     H2 4585   1.410   3.879   3.100
 1467HOH      O 4586   1.484   3.246   1.581
 1467HOH     H1 4587   1.569   3.204   1.565
 1467HOH     H2 4588   1.439   3.243   1.497
 1468HOH      O 4589   0.623   1.938   1.763
 1468HOH     H1 4590   0.644   1.845   1.770
 1468HOH     H2 4591   0.528   1.942   1.772
 1469HOH      O 4592   2.814   3.005   2.283
 1469HOH     H1 4593   2.859   3.089   2.293
 1469HOH     H2 4594   2.820   2.964   2.370
 1470HOH      O 4595   0.645   2.431   1.882
 1470HOH     H1 4596   0.575   2.468   1.829
 1470HOH     H2 4597   0.601   2.375   1.945
 1471HOH      O 4598   2.877   2.975   0.257
 1471HOH     H1 4599   2.906   3.066   0.251
 1471HOH     H2 4600   2.958   2.924   0.251
 1472HOH      O 4601   2.599   0.058   1.413
 1472HOH     H1 4602   2.679   0.009   1.395
 1472HOH     H2 4603   2.543   0.041   1.337
 1473HOH      O 4604   3.846   1.135   0.811
 1473HOH     H1 4605   3.818   1.224   0.829
 1473HOH     H2 4606   3.920   1.144   0.750
 1474HOH      O 4607   3.828   3.019   3.998
 1474HOH     H1 4608   3.874   2.981   3.924
 1474HOH     H2 4609   3.861   3.108   4.005
 1475HOH      O 4610   0.940   1.902   1.959
 1475HOH     H1 4611   0.967   1.812   1.945
 1475HOH     H2 4612   0.948   1.915   2.054
 1476HOH      O 4613   1.139   3.410   1.925
 1476HOH     H1 4614   1.227   3.432   1.954
 1476HOH     H2 4615   1.151   3.338   1.863
 1477HOH      O 4616   0.407   1.513   1.490
 1477HOH     H1 4617   0.319   1.498   1.526
 1477HOH     H2 4618   0.446   1.426   1.485
 1478HOH      O 4619   1.741   1.494   0.192
 1478HOH     H1 4620   1.719   1.579   0.229
 1478HOH     H2 4621   1.757   1.511   0.099
 1479HOH      O 4622   2.804   0.573   3.139
 1479HOH     H1 4623   2.715   0.600   3.115
 1479HOH     H2 4624   2.791   0.512   3.212
 1480HOH      O 4625   2.707   2.460   2.810
 1480HOH     H1 4626   2.791   2.503   2.821
 1480HOH     H2 4627   2.662   2.512   2.743
 1481HOH      O 4628   0.778   0.864   0.411
 1481HOH     H1 4629   0.710   0.797   0.410
 1481HOH     H2 4630   0.756   0.921   0.485
 1482HOH      O 4631   0.430   2.486   2.206
 1482HOH     H1 4632   0.448   2.579   2.221
 1482HOH     H2 4633   0.509   2.441   2.237
 1483HOH      O 4634   0.766   2.732   1.167
 1483HOH     H1 4635   0.802   2.677   1.096
 1483HOH     H2 4636   0.753   2.818   1.126
 1484HOH      O 4637   1.384   3.655   3.391
 1484HOH     H1 4638   1.452   3.702   3.342
 1484HOH     H2 4639   1.303   3.673   3.343
 1485HOH      O 4640   3.710   2.495   3.808
 1485HOH     H1 4641   3.739   2.581   3.836
 1485HOH     H2 4642   3.762   2.476   3.730
 1486HOH      O 4643   2.118   2.662   3.117
 1486HOH     H1 4644   2.049   2.709   3.070
 1486HOH     H2 4645   2.198   2.681   3.068
 1487HOH      O 4646   3.687   2.622   2.774
 1487HOH     H1 4647   3.593   2.623   2.752
 1487HOH     H2 4648   3.728   2.672   2.705
 1488HOH      O 4649   3.290   3.240   0.047
 1488HOH     H1 4650   3.235   3.166   0.075
 1488HOH     H2 4651   3.280   3.241  -0.049
 1489HOH      O 4652   2.067   0.495   3.534
 1489HOH     H1 4653   2.096   0.405   3.552
 1489HOH     H2 4654   2.134   0.531   3.477
 1490HOH      O 4655   1.154   0.075   3.084
 1490HOH     H1 4656   1.174   0.088   2.992
 1490HOH     H2 4657   1.239   0.062   3.125
 1491HOH      O 4658   2.825   3.634   1.489
 1491HOH     H1 4659   2.898   3.577   1.464
 1491HOH     H2 4660   2.747   3.579   1.479
 1492HOH      O 4661   3.312   0.188   2.216
 1492HOH     H1 4662   3.339   0.139   2.138
 1492HOH     H2 4663   3.230   0.147   2.242
 1493HOH      O 4664   0.885   2.629   3.657
 1493HOH     H1 4665   0.881   2.673   3.573
 1493HOH     H2 4666   0.924   2.693   3.717
 1494HOH      O 4667   1.846   3.472   3.169
 1494HOH     H1 4668   1.772   3.442   3.223
 1494HOH     H2 4669   1.894   3.392   3.147
 1495HOH      O 4670   3.025   0.178   1.804
 1495HOH     H1 4671   3.003   0.091   1.837
 1495HOH     H2 4672   2.982   0.239   1.864
 1496HOH      O 4673   2.747   0.816   2.621
 1496HOH     H1 4674   2.712   0.800   2.533
 1496HOH     H2 4675   2.694   0.759   2.677
 1497HOH      O 4676   0.446   2.466   3.187
 1497HOH     H1 4677   0.479   2.383   3.154
 1497HOH     H2 4678   0.392   2.500   3.116
 1498HOH      O 4679   3.605   1.216   3.827
 1498HOH     H1 4680   3.562   1.298   3.802
 1498HOH     H2 4681   3.648   1.236   3.910
 1499HOH      O 4682   0.615   2.275   3.707
 1499HOH     H1 4683   0.554   2.211   3.746
 1499HOH     H2 4684   0.694   2.224   3.689
 1500HOH      O 4685   2.980   1.572   3.151
 1500HOH     H1 4686   2.899   1.623   3.160
 1500HOH     H2 4687   2.962   1.512   3.079
 1501HOH      O 4688   0.072   0.692   1.924
 1501HOH     H1 4689   0.160   0.656   1.926
 1501HOH     H2 4690   0.024   0.636   1.863
 1502HOH      O 4691   2.950   2.548   3.334
 1502HOH     H1 4692   2.857   2.559   3.314
 1502HOH     H2 4693   2.952   2.480   3.401
 1503HOH      O 4694   1.131   2.309   1.747
 1503HOH     H1 4695   1.052   2.320   1.694
 1503HOH     H2 4696   1.098   2.294   1.836
 1504HOH      O 4697   1.210   0.774   1.653
 1504HOH     H1 4698   1.160   0.695   1.672
 1504HOH     H2 4699   1.275   0.778   1.723
 1505HOH      O 4700   1.200   1.450   3.279
 1505HOH     H1 4701   1.172   1.373   3.230
 1505HOH     H2 4702   1.183   1.524   3.220
 1506HOH      O 4703   1.195   0.616   3.993
 1506HOH     H1 4704   1.100   0.619   4.002
 1506HOH     H2 4705   1.225   0.694   4.038
 1507HOH      O 4706   0.272   1.393   1.184
 1507HOH     H1 4707   0.244   1.345   1.262
 1507HOH     H2 4708   0.193   1.399   1.131
 1508HOH      O 4709   0.390   2.013   0.665
 1508HOH     H1 4710   0.363   2.039   0.753
 1508HOH     H2 4711   0.444   2.086   0.634
 1509HOH      O 4712   1.535   0.167   1.206
 1509HOH     H1 4713   1.448   0.171   1.247
 1509HOH     H2 4714   1.534   0.085   1.158
 1510HOH      O 4715   2.643   2.556   2.446
 1510HOH     H1 4716   2.727   2.527   2.412
 1510HOH     H2 4717   2.656   2.649   2.465
 1511HOH      O 4718   0.267   0.147   0.672
 1511HOH     H1 4719   0.257   0.053   0.664
 1511HOH     H2 4720   0.218   0.183   0.598
 1512HOH      O 4721   0.969   1.524   2.861
 1512HOH     H1 4722   0.937   1.591   2.801
 1512HOH     H2 4723   1.024   1.572   2.923
 1513HOH      O 4724   1.456   2.186   3.751
 1513HOH     H1 4725   1.403   2.254   3.709
 1513HOH     H2 4726   1.442   2.200   3.845
 1514HOH      O 4727   1.215   0.431   3.134
 1514HOH     H1 4728   1.287   0.389   3.182
 1514HOH     H2 4729   1.138   0.379   3.156
 1515HOH      O 4730   2.814   2.789   2.882
 1515HOH     H1 4731   2.836   2.877   2.852
 1515HOH     H2 4732   2.880   2.769   2.948
 1516HOH      O 4733   2.380   0.462   1.233
 1516HOH     H1 4734   2.432   0.474   1.313
 1516HOH     H2 4735   2.368   0.368   1.226
 1517HOH      O 4736   0.935   0.456   4.014
 1517HOH     H1 4737   0.857   0.450   4.069
 1517HOH     H2 4738   0.902   0.476   3.927
 1518HOH      O 4739   2.618   2.090   1.184
 1518HOH     H1 4740   2.542   2.040   1.155
 1518HOH     H2 4741   2.592   2.124   1.270
 1519HOH      O 4742   2.362   2.536   1.694
 1519HOH     H1 4743   2.359   2.474   1.767
 1519HOH     H2 4744   2.326   2.617   1.730
 1520HOH      O 4745   1.664   3.269   3.294
 1520HOH     H1 4746   1.573   3.252   3.269
 1520HOH     H2 4747   1.657   3.332   3.366
 1521HOH      O 4748   0.640   1.229   3.383
 1521HOH     H1 4749   0.646   1.135   3.362
 1521HOH     H2 4750   0.722   1.266   3.349
 1522HOH      O 4751   1.896   0.296   2.456
 1522HOH     H1 4752   1.930   0.381   2.485
 1522HOH     H2 4753   1.813   0.317   2.414
 1523HOH      O 4754   2.814   1.898   2.006
 1523HOH     H1 4755   2.774   1.969   2.058
 1523HOH     H2 4756   2.779   1.911   1.918
 1524HOH      O 4757   1.879   0.718   1.420
 1524HOH     H1 4758   1.879   0.747   1.511
 1524HOH     H2 4759   1.928   0.635   1.421
 1525HOH      O 4760   1.996   1.855   0.226
 1525HOH     H1 4761   2.005   1.946   0.197
 1525HOH     H2 4762   2.002   1.803   0.145
 1526HOH      O 4763   2.251   0.143   0.761
 1526HOH     H1 4764   2.310   0.212   0.792
 1526HOH     H2 4765   2.239   0.162   0.668
 1527HOH      O 4766   2.410   1.021   0.514
 1527HOH     H1 4767   2.408   0.986   0.603
 1527HOH     H2 4768   2.487   0.981   0.474
 1528HOH      O 4769   3.328   3.248   3.528
 1528HOH     H1 4770   3.241   3.286   3.515
 1528HOH     H2 4771   3.342   3.193   3.450
 1529HOH      O 4772   3.143   2.942   1.965
 1529HOH     H1 4773   3.226   2.968   2.005
 1529HOH     H2 4774   3.150   2.847   1.956
 1530HOH      O 4775   0.582   2.884   1.966
 1530HOH     H1 4776   0.506   2.830   1.942
 1530HOH     H2 4777   0.575   2.960   1.908
 1531HOH      O 4778   3.230   3.417   0.892
 1531HOH     H1 4779   3.210   3.387   0.980
 1531HOH     H2 4780   3.150   3.401   0.842
 1532HOH      O 4781   1.239   1.287   0.935
 1532HOH     H1 4782   1.157   1.294   0.888
 1532HOH     H2 4783   1.303   1.334   0.881
 1533HOH      O 4784   2.607   2.840   1.595
 1533HOH     H1 4785   2.613   2.935   1.584
 1533HOH     H2 4786   2.681   2.805   1.545
 1534HOH      O 4787   1.430   3.570   2.272
 1534HOH     H1 4788   1.516   3.527   2.270
 1534HOH     H2 4789   1.432   3.623   2.352
 1535HOH      O 4790   1.269   1.728   1.624
 1535HOH     H1 4791   1.247   1.672   1.699
 1535HOH     H2 4792   1.332   1.677   1.574
 1536HOH      O 4793   3.038   3.824   1.083
 1536HOH     H1 4794   3.122   3.778   1.083
 1536HOH     H2 4795   2.983   3.772   1.141
 1537HOH      O 4796   1.602   1.649   2.149
 1537HOH     H1 4797   1.667   1.600   2.199
 1537HOH     H2 4798   1.565   1.710   2.213
 1538HOH      O 4799   3.740   2.775   0.761
 1538HOH     H1 4800   3.710   2.684   0.758
 1538HOH     H2 4801   3.767   2.794   0.672
 1539HOH      O 4802   0.227   0.247   0.211
 1539HOH     H1 4803   0.238   0.308   0.284
 1539HOH     H2 4804   0.164   0.289   0.153
 1540HOH      O 4805   2.891   2.346   0.831
 1540HOH     H1 4806   2.875   2.291   0.754
 1540HOH     H2 4807   2.859   2.294   0.905
 1541HOH      O 4808   0.493   2.731   2.228
 1541HOH     H1 4809   0.474   2.783   2.306
 1541HOH     H2 4810   0.453   2.780   2.156
 1542HOH      O 4811   0.245   3.424   1.358
 1542HOH     H1 4812   0.292   3.345   1.385
 1542HOH     H2 4813   0.197   3.452   1.436
 1543HOH      O 4814   1.834   3.524   3.569
 1543HOH     H1 4815   1.760   3.468   3.592
 1543HOH     H2 4816   1.802   3.579   3.498
 1544HOH      O 4817   1.721   1.937   1.646
 1544HOH     H1 4818   1.736   2.010   1.585
 1544HOH     H2 4819   1.795   1.941   1.706
 1545HOH      O 4820   3.285   2.269   1.053
 1545HOH     H1 4821   3.374   2.275   1.090
 1545HOH     H2 4822   3.242   2.201   1.105
 1546HOH      O 4823   0.139   2.964   1.222
 1546HOH     H1 4824   0.057   2.971   1.270
 1546HOH     H2 4825   0.113   2.941   1.133
 1547HOH      O 4826   3.247   2.700   2.790
 1547HOH     H1 4827   3.282   2.769   2.732
 1547HOH     H2 4828   3.210   2.748   2.864
 1548HOH      O 4829   2.937   0.568   2.078
 1548HOH     H1 4830   2.905   0.547   1.990
 1548HOH     H2 4831   2.986   0.491   2.105
 1549HOH      O 4832   1.874   3.059   1.946
 1549HOH     H1 4833   1.785   3.054   1.980
 1549HOH     H2 4834   1.870   3.015   1.861
 1550HOH      O 4835   3.309   3.922   3.828
 1550HOH     H1 4836   3.328   3.897   3.737
 1550HOH     H2 4837   3.217   3.900   3.840
 1551HOH      O 4838   2.684   3.119   0.587
 1551HOH     H1 4839   2.777   3.136   0.602
 1551HOH     H2 4840   2.639   3.196   0.622
 1552HOH      O 4841   2.581   3.292   2.952
 1552HOH     H1 4842   2.603   3.247   3.033
 1552HOH     H2 4843   2.548   3.377   2.980
 1553HOH      O 4844   3.502   3.843   1.326
 1553HOH     H1 4845   3.469   3.755   1.345
 1553HOH     H2 4846   3.561   3.862   1.400
 1554HOH      O 4847   1.963   3.061   2.308
 1554HOH     H1 4848   1.941   3.068   2.401
 1554HOH     H2 4849   1.929   2.975   2.282
 1555HOH      O 4850   0.564   0.611   1.012
 1555HOH     H1 4851   0.607   0.535   1.049
 1555HOH     H2 4852   0.624   0.644   0.945
 1556HOH      O 4853   3.695   0.298   1.642
 1556HOH     H1 4854   3.672   0.369   1.582
 1556HOH     H2 4855   3.768   0.253   1.599
 1557HOH      O 4856   3.448   2.596   3.958
 1557HOH     H1 4857   3.527   2.542   3.948
 1557HOH     H2 4858   3.375   2.535   3.950
 1558HOH      O 4859   2.054   0.004   1.833
 1558HOH     H1 4860   2.140  -0.035   1.816
 1558HOH     H2 4861   2.030   0.045   1.750
 1559HOH      O 4862   1.020   2.204   2.722
 1559HOH     H1 4863   0.951   2.236   2.779
 1559HOH     H2 4864   1.101   2.226   2.768
 1560HOH      O 4865   0.170   1.603   0.714
 1560HOH     H1 4866   0.226   1.592   0.637
 1560HOH     H2 4867   0.162   1.698   0.725
 1561HOH      O 4868   2.159   3.557   3.227
 1561HOH     H1 4869   2.213   3.612   3.283
 1561HOH     H2 4870   2.145   3.477   3.278
 1562HOH      O 4871   3.296   1.897   2.420
 1562HOH     H1 4872   3.312   1.845   2.341
 1562HOH     H2 4873   3.370   1.877   2.478
 1563HOH      O 4874   2.214   3.139   0.053
 1563HOH     H1 4875   2.150   3.114   0.120
 1563HOH     H2 4876   2.171   3.118  -0.030
 1564HOH      O 4877   2.745   1.536   0.695
 1564HOH     H1 4878   2.784   1.522   0.781
 1564HOH     H2 4879   2.792   1.476   0.637
 1565HOH      O 4880   1.902   0.200   1.652
 1565HOH     H1 4881   1.813   0.169   1.638
 1565HOH     H2 4882   1.939   0.209   1.564
 1566HOH      O 4883   2.539   3.871   3.125
 1566HOH     H1 4884   2.552   3.964   3.144
 1566HOH     H2 4885   2.611   3.827   3.170
 1567HOH      O 4886   2.405   2.269   2.210
 1567HOH     H1 4887   2.417   2.301   2.299
 1567HOH     H2 4888   2.424   2.345   2.155
 1568HOH      O 4889   0.015   2.657   3.853
 1568HOH     H1 4890  -0.065   2.703   3.828
 1568HOH     H2 4891   0.062   2.645   3.770
 1569HOH      O 4892   2.638   3.913   2.670
 1569HOH     H1 4893   2.659   4.000   2.704
 1569HOH     H2 4894   2.719   3.883   2.630
 1570HOH      O 4895   3.556   0.715   1.365
 1570HOH     H1 4896   3.516   0.761   1.291
 1570HOH     H2 4897   3.546   0.775   1.439
 1571HOH      O 4898   3.722   4.009   0.899
 1571HOH     H1 4899   3.659   3.958   0.951
 1571HOH     H2 4900   3.763   3.944   0.842
 1572HOH      O 4901   1.113   2.181   3.479
 1572HOH     H1 4902   1.061   2.160   3.402
 1572HOH     H2 4903   1.099   2.107   3.538
 1573HOH      O 4904   2.013   1.589   1.813
 1573HOH     H1 4905   1.969   1.638   1.882
 1573HOH     H2 4906   1.953   1.516   1.793
 1574HOH      O 4907   3.063   0.381   0.642
 1574HOH     H1 4908   3.070   0.293   0.678
 1574HOH     H2 4909   3.059   0.438   0.719
 1575HOH      O 4910   1.060   0.019   3.371
 1575HOH     H1 4911   0.986   0.076   3.393
 1575HOH     H2 4912   1.040  -0.013   3.282
 1576HOH      O 4913   3.156   2.526   1.231
 1576HOH     H1 4914   3.141   2.446   1.182
 1576HOH     H2 4915   3.073   2.543   1.276
 1577HOH      O 4916   1.477   2.766   1.264
 1577HOH     H1 4917   1.515   2.852   1.245
 1577HOH     H2 4918   1.492   2.715   1.184
 1578HOH      O 4919   0.096   1.016   3.122
 1578HOH     H1 4920   0.191   1.021   3.132
 1578HOH     H2 4921   0.069   0.946   3.182
 1579HOH      O 4922   3.178   3.562   2.872
 1579HOH     H1 4923   3.097   3.530   2.833
 1579HOH     H2 4924   3.240   3.562   2.799
 1580HOH      O 4925   3.114   2.751   3.300
 1580HOH     H1 4926   3.042   2.689   3.297
 1580HOH     H2 4927   3.090   2.811   3.371
 1581HOH      O 4928   1.671   2.363   2.656
 1581HOH     H1 4929   1.586   2.320   2.654
 1581HOH     H2 4930   1.689   2.378   2.749
 1582HOH      O 4931   0.144   1.132   2.153
 1582HOH     H1 4932   0.109   1.047   2.125
 1582HOH     H2 4933   0.184   1.115   2.238
 1583HOH      O 4934   0.871   2.886   3.777
 1583HOH     H1 4935   0.836   2.887   3.688
 1583HOH     H2 4936   0.803   2.925   3.831
 1584HOH      O 4937   2.975   0.677   1.794
 1584HOH     H1 4938   2.882   0.686   1.774
 1584HOH     H2 4939   2.993   0.747   1.857
 1585HOH      O 4940   2.878   1.779   0.724
 1585HOH     H1 4941   2.816   1.843   0.690
 1585HOH     H2 4942   2.844   1.694   0.696
 1586HOH      O 4943   2.626   3.395   4.012
 1586HOH     H1 4944   2.545   3.358   3.978
 1586HOH     H2 4945   2.677   3.319   4.040
 1587HOH      O 4946   0.771   0.451   0.673
 1587HOH     H1 4947   0.769   0.532   0.724
 1587HOH     H2 4948   0.789   0.479   0.583
 1588HOH      O 4949   0.211   2.329   2.370
 1588HOH     H1 4950   0.248   2.252   2.414
 1588HOH     H2 4951   0.284   2.365   2.319
 1589HOH      O 4952   3.305   1.449   0.827
 1589HOH     H1 4953   3.266   1.523   0.780
 1589HOH     H2 4954   3.232   1.389   0.842
 1590HOH      O 4955   0.400   1.362   3.418
 1590HOH     H1 4956   0.489   1.326   3.416
 1590HOH     H2 4957   0.394   1.415   3.339
 1591HOH      O 4958   0.391   1.473   3.708
 1591HOH     H1 4959   0.341   1.409   3.758
 1591HOH     H2 4960   0.390   1.440   3.618
 1592HOH      O 4961   2.002   2.447   3.409
 1592HOH     H1 4962   1.964   2.532   3.430
 1592HOH     H2 4963   1.996   2.440   3.314
 1593HOH      O 4964   2.924   1.082   0.410
 1593HOH     H1 4965   2.945   1.083   0.503
 1593HOH     H2 4966   2.921   1.174   0.385
 1594HOH      O 4967   0.410   2.114   2.209
 1594HOH     H1 4968   0.489   2.155   2.243
 1594HOH     H2 4969   0.432   2.021   2.202
 1595HOH      O 4970   3.101   2.752   3.019
 1595HOH     H1 4971   3.135   2.769   3.107
 1595HOH     H2 4972   3.043   2.677   3.029
 1596HOH      O 4973   3.394   3.962   0.745
 1596HOH     H1 4974   3.377   4.006   0.828
 1596HOH     H2 4975   3.360   3.874   0.757
 1597HOH      O 4976   2.553   0.350   1.444
 1597HOH     H1 4977   2.618   0.377   1.509
 1597HOH     H2 4978   2.577   0.261   1.422
 1598HOH      O 4979   1.795   1.845   2.788
 1598HOH     H1 4980   1.814   1.931   2.827
 1598HOH     H2 4981   1.849   1.842   2.709
 1599HOH      O 4982   1.600   1.285   3.889
 1599HOH     H1 4983   1.548   1.214   3.926
 1599HOH     H2 4984   1.678   1.242   3.854
 1600HOH      O 4985   1.561   0.935   3.547
 1600HOH     H1 4986   1.514   0.999   3.601
 1600HOH     H2 4987   1.492   0.879   3.511
 1601HOH      O 4988   2.157   1.517   2.082
 1601HOH     H1 4989   2.247   1.531   2.111
 1601HOH     H2 4990   2.137   1.593   2.027
 1602HOH      O 4991   3.133   1.055   3.746
 1602HOH     H1 4992   3.152   1.087   3.658
 1602HOH     H2 4993   3.178   1.115   3.804
 1603HOH      O 4994   1.783   1.415   3.051
 1603HOH     H1 4995   1.812   1.355   3.119
 1603HOH     H2 4996   1.688   1.402   3.046
 1604HOH      O 4997   2.913   1.353   0.341
 1604HOH     H1 4998   2.946   1.417   0.403
 1604HOH     H2 4999   2.907   1.400   0.258
 1605HOH      O 5000   0.933   3.602   1.245
 1605HOH     H1 5001   1.001   3.589   1.178
 1605HOH     H2 5002   0.951   3.689   1.280
 1606HOH      O 5003   2.077   0.094   2.356
 1606HOH     H1 5004   2.000   0.083   2.299
 1606HOH     H2 5005   2.071   0.184   2.388
 1607HOH      O 5006   1.096   1.246   3.126
 1607HOH     H1 5007   1.139   1.161   3.117
 1607HOH     H2 5008   1.056   1.262   3.041
 1608HOH      O 5009   2.899   0.932   1.055
 1608HOH     H1 5010   2.962   0.907   1.123
 1608HOH     H2 5011   2.846   0.854   1.042
 1609HOH      O 5012   3.322   1.228   1.135
 1609HOH     H1 5013   3.412   1.260   1.141
 1609HOH     H2 5014   3.270   1.297   1.176
 1610HOH      O 5015   3.955   1.963   2.513
 1610HOH     H1 5016   3.912   1.995   2.434
 1610HOH     H2 5017   3.963   1.869   2.500
 1611HOH      O 5018   1.281   3.305   2.234
 1611HOH     H1 5019   1.307   3.394   2.257
 1611HOH     H2 5020   1.206   3.286   2.290
 1612HOH      O 5021   1.475   3.776   3.646
 1612HOH     H1 5022   1.414   3.845   3.671
 1612HOH     H2 5023   1.455   3.757   3.555
 1613HOH      O 5024   0.492   1.909   0.314
 1613HOH     H1 5025   0.527   1.986   0.359
 1613HOH     H2 5026   0.441   1.945   0.242
 1614HOH      O 5027   0.291   3.684   1.122
 1614HOH     H1 5028   0.273   3.592   1.103
 1614HOH     H2 5029   0.265   3.730   1.042
 1615HOH      O 5030   1.003   0.039   2.426
 1615HOH     H1 5031   1.021   0.021   2.333
 1615HOH     H2 5032   0.982  -0.047   2.463
 1616HOH      O 5033   3.011   0.404   0.152
 1616HOH     H1 5034   3.074   0.448   0.095
 1616HOH     H2 5035   3.061   0.377   0.229
 1617HOH      O 5036   3.265   1.219   1.784
 1617HOH     H1 5037   3.263   1.178   1.697
 1617HOH     H2 5038   3.355   1.250   1.794
 1618HOH      O 5039   3.379   0.859   3.570
 1618HOH     H1 5040   3.317   0.888   3.636
 1618HOH     H2 5041   3.419   0.780   3.606
 1619HOH      O 5042   1.640   3.156   0.809
 1619HOH     H1 5043   1.552   3.191   0.794
 1619HOH     H2 5044   1.696   3.207   0.751
 1620HOH      O 5045   2.225   2.814   0.334
 1620HOH     H1 5046   2.185   2.728   0.319
 1620HOH     H2 5047   2.250   2.812   0.427
 1621HOH      O 5048   3.188   1.419   0.472
 1621HOH     H1 5049   3.138   1.412   0.554
 1621HOH     H2 5050   3.238   1.338   0.468
 1622HOH      O 5051   1.096   2.996   2.493
 1622HOH     H1 5052   1.155   3.008   2.568
 1622HOH     H2 5053   1.155   2.993   2.417
 1623HOH      O 5054   0.815   3.508   1.630
 1623HOH     H1 5055   0.799   3.437   1.568
 1623HOH     H2 5056   0.911   3.518   1.630
 1624HOH      O 5057   2.117   0.256   3.279
 1624HOH     H1 5058   2.027   0.234   3.254
 1624HOH     H2 5059   2.112   0.274   3.373
 1625HOH      O 5060   2.591   0.707   0.319
 1625HOH     H1 5061   2.501   0.682   0.296
 1625HOH     H2 5062   2.583   0.746   0.406
 1626HOH      O 5063   0.604   2.985   0.759
 1626HOH     H1 5064   0.531   3.022   0.808
 1626HOH     H2 5065   0.563   2.923   0.698
 1627HOH      O 5066   0.702   2.804   1.616
 1627HOH     H1 5067   0.773   2.869   1.622
 1627HOH     H2 5068   0.623   2.857   1.603
 1628HOH      O 5069   0.124   0.475   1.621
 1628HOH     H1 5070   0.187   0.432   1.678
 1628HOH     H2 5071   0.125   0.423   1.541
 1629HOH      O 5072   3.500   0.445   0.131
 1629HOH     H1 5073   3.452   0.391   0.068
 1629HOH     H2 5074   3.539   0.514   0.078
 1630HOH      O 5075   2.796   1.892   3.711
 1630HOH     H1 5076   2.833   1.860   3.628
 1630HOH     H2 5077   2.706   1.918   3.688
 1631HOH      O 5078   2.344   2.545   3.873
 1631HOH     H1 5079   2.426   2.552   3.824
 1631HOH     H2 5080   2.276   2.570   3.810
 1632HOH      O 5081   0.711   3.584   0.565
 1632HOH     H1 5082   0.695   3.489   0.569
 1632HOH     H2 5083   0.747   3.605   0.652
 1633HOH      O 5084   0.547   2.398   3.950
 1633HOH     H1 5085   0.470   2.348   3.921
 1633HOH     H2 5086   0.613   2.382   3.883
 1634HOH      O 5087   2.982   2.297   1.121
 1634HOH     H1 5088   3.040   2.224   1.146
 1634HOH     H2 5089   2.979   2.293   1.025
 1635HOH      O 5090   3.815   2.578   0.264
 1635HOH     H1 5091   3.798   2.484   0.259
 1635HOH     H2 5092   3.756   2.617   0.200
 1636HOH      O 5093   2.459   1.581   0.642
 1636HOH     H1 5094   2.459   1.675   0.624
 1636HOH     H2 5095   2.551   1.555   0.638
 1637HOH      O 5096   1.782   1.134   0.580
 1637HOH     H1 5097   1.826   1.142   0.495
 1637HOH     H2 5098   1.787   1.222   0.618
 1638HOH      O 5099   2.389   0.282   3.803
 1638HOH     H1 5100   2.440   0.338   3.862
 1638HOH     H2 5101   2.300   0.319   3.807
 1639HOH      O 5102   3.409   0.763   3.863
 1639HOH     H1 5103   3.426   0.857   3.864
 1639HOH     H2 5104   3.471   0.727   3.927
 1640HOH      O 5105   2.868   3.350   3.168
 1640HOH     H1 5106   2.858   3.445   3.175
 1640HOH     H2 5107   2.952   3.338   3.125
 1641HOH      O 5108   0.039   3.311   2.205
 1641HOH     H1 5109   0.080   3.306   2.291
 1641HOH     H2 5110   0.035   3.221   2.175
 1642HOH      O 5111   3.839   1.180   1.168
 1642HOH     H1 5112   3.872   1.108   1.221
 1642HOH     H2 5113   3.898   1.184   1.093
 1643HOH      O 5114   1.018   3.822   0.601
 1643HOH     H1 5115   0.991   3.823   0.509
 1643HOH     H2 5116   0.940   3.795   0.649
 1644HOH      O 5117   0.649   0.016   0.051
 1644HOH     H1 5118   0.557  -0.011   0.057
 1644HOH     H2 5119   0.672   0.042   0.140
 1645HOH      O 5120   2.988   2.422   0.327
 1645HOH     H1 5121   2.907   2.399   0.282
 1645HOH     H2 5122   2.971   2.509   0.363
 1646HOH      O 5123   1.780   0.146   1.364
 1646HOH     H1 5124   1.852   0.157   1.302
 1646HOH     H2 5125   1.701   0.152   1.310
 1647HOH      O 5126   3.599   1.242   0.625
 1647HOH     H1 5127   3.606   1.320   0.680
 1647HOH     H2 5128   3.523   1.196   0.659
 1648HOH      O 5129   0.068   1.630   2.587
 1648HOH     H1 5130   0.140   1.688   2.613
 1648HOH     H2 5131   0.027   1.603   2.670
 1649HOH      O 5132   4.009   1.796   3.274
 1649HOH     H1 5133   3.988   1.883   3.242
 1649HOH     H2 5134   3.949   1.782   3.348
 1650HOH      O 5135   2.887   0.131   3.035
 1650HOH     H1 5136   2.940   0.184   3.094
 1650HOH     H2 5137   2.937   0.128   2.953
 1651HOH      O 5138   2.287   3.898   1.754
 1651HOH     H1 5139   2.349   3.952   1.802
 1651HOH     H2 5140   2.339   3.824   1.723
 1652HOH      O 5141   2.243   3.977   1.399
 1652HOH     H1 5142   2.246   3.937   1.313
 1652HOH     H2 5143   2.177   3.928   1.447
 1653HOH      O 5144   1.999   1.123   1.428
 1653HOH     H1 5145   2.062   1.080   1.486
 1653HOH     H2 5146   2.044   1.129   1.344
 1654HOH      O 5147   0.506   3.786   0.584
 1654HOH     H1 5148   0.572   3.842   0.625
 1654HOH     H2 5149   0.555   3.708   0.557
 1655HOH      O 5150   3.061   0.911   2.865
 1655HOH     H1 5151   3.155   0.912   2.848
 1655HOH     H2 5152   3.050   0.850   2.937
 1656HOH      O 5153   3.094   3.318   3.008
 1656HOH     H1 5154   3.141   3.398   2.986
 1656HOH     H2 5155   3.085   3.272   2.924
 1657HOH      O 5156   0.491   0.969   3.638
 1657HOH     H1 5157   0.465   0.958   3.730
 1657HOH     H2 5158   0.538   0.888   3.617
 1658HOH      O 5159   3.358   1.683   3.679
 1658HOH     H1 5160   3.351   1.751   3.746
 1658HOH     H2 5161   3.388   1.730   3.601
 1659HOH      O 5162   0.308   1.716   3.801
 1659HOH     H1 5163   0.367   1.752   3.867
 1659HOH     H2 5164   0.333   1.624   3.794
 1660HOH      O 5165   2.752   0.169   1.930
 1660HOH     H1 5166   2.677   0.162   1.989
 1660HOH     H2 5167   2.728   0.117   1.854
 1661HOH      O 5168   3.225   1.572   2.475
 1661HOH     H1 5169   3.130   1.575   2.463
 1661HOH     H2 5170   3.237   1.528   2.559
 1662HOH      O 5171   0.306   3.094   3.855
 1662HOH     H1 5172   0.361   3.136   3.789
 1662HOH     H2 5173   0.227   3.068   3.808
 1663HOH      O 5174   2.225   3.823   0.520
 1663HOH     H1 5175   2.242   3.901   0.572
 1663HOH     H2 5176   2.133   3.832   0.493
 1664HOH      O 5177   1.067   0.195   0.042
 1664HOH     H1 5178   1.032   0.284   0.044
 1664HOH     H2 5179   1.070   0.169   0.134
 1665HOH      O 5180   3.513   1.994   1.388
 1665HOH     H1 5181   3.432   1.947   1.370
 1665HOH     H2 5182   3.578   1.953   1.331
 1666HOH      O 5183   2.001   3.875   1.452
 1666HOH     H1 5184   1.908   3.894   1.442
 1666HOH     H2 5185   2.004   3.789   1.493
 1667HOH      O 5186   3.340   2.916   2.642
 1667HOH     H1 5187   3.422   2.920   2.690
 1667HOH     H2 5188   3.361   2.953   2.556
 1668HOH      O 5189   3.893   2.099   0.808
 1668HOH     H1 5190   3.803   2.132   0.807
 1668HOH     H2 5191   3.898   2.041   0.732
 1669HOH      O 5192   2.733   3.698   2.865
 1669HOH     H1 5193   2.711   3.771   2.808
 1669HOH     H2 5194   2.739   3.622   2.807
 1670HOH      O 5195   2.869   0.692   0.346
 1670HOH     H1 5196   2.779   0.724   0.350
 1670HOH     H2 5197   2.869   0.614   0.401
 1671HOH      O 5198   3.391   3.071   3.340
 1671HOH     H1 5199   3.376   2.977   3.345
 1671HOH     H2 5200   3.482   3.080   3.313
 1672HOH      O 5201   2.756   3.057   2.777
 1672HOH     H1 5202   2.734   3.118   2.848
 1672HOH     H2 5203   2.672   3.038   2.735
 1673HOH      O 5204   3.955   2.496   0.746
 1673HOH     H1 5205   3.981   2.407   0.771
 1673HOH     H2 5206   3.940   2.491   0.652
 1674HOH      O 5207   1.863  -0.005   3.009
 1674HOH     H1 5208   1.893   0.042   3.086
 1674HOH     H2 5209   1.942  -0.023   2.959
 1675HOH      O 5210   0.315   3.107   0.363
 1675HOH     H1 5211   0.326   3.185   0.309
 1675HOH     H2 5212   0.304   3.036   0.300
 1676HOH      O 5213   2.835   1.823   1.023
 1676HOH     H1 5214   2.867   1.770   0.950
 1676HOH     H2 5215   2.753   1.780   1.048
 1677HOH      O 5216   2.535   2.813   2.241
 1677HOH     H1 5217   2.570   2.833   2.328
 1677HOH     H2 5218   2.551   2.719   2.230
 1678HOH      O 5219   3.436   1.311   0.220
 1678HOH     H1 5220   3.403   1.249   0.286
 1678HOH     H2 5221   3.522   1.337   0.253
 1679HOH      O 5222   0.423   3.842   0.323
 1679HOH     H1 5223   0.448   3.765   0.272
 1679HOH     H2 5224   0.441   3.817   0.414
 1680HOH      O 5225   3.208   1.697   3.202
 1680HOH     H1 5226   3.222   1.757   3.129
 1680HOH     H2 5227   3.124   1.654   3.182
 1681HOH      O 5228   2.274   1.760   1.788
 1681HOH     H1 5229   2.241   1.842   1.823
 1681HOH     H2 5230   2.212   1.694   1.820
 1682HOH      O 5231   3.415   0.246   0.835
 1682HOH     H1 5232   3.405   0.340   0.850
 1682HOH     H2 5233   3.376   0.205   0.911
 1683HOH      O 5234   2.018   1.148   2.465
 1683HOH     H1 5235   2.103   1.120   2.432
 1683HOH     H2 5236   2.018   1.243   2.453
 1684HOH      O 5237   1.211   2.940   1.559
 1684HOH     H1 5238   1.222   2.877   1.489
 1684HOH     H2 5239   1.245   2.896   1.637
 1685HOH      O 5240   2.684   1.249   2.733
 1685HOH     H1 5241   2.738   1.171   2.746
 1685HOH     H2 5242   2.658   1.276   2.821
 1686HOH      O 5243   1.695   2.039   1.241
 1686HOH     H1 5244   1.635   2.081   1.179
 1686HOH     H2 5245   1.681   1.945   1.228
 1687HOH      O 5246   2.101   0.688   0.813
 1687HOH     H1 5247   2.077   0.743   0.888
 1687HOH     H2 5248   2.189   0.658   0.832
 1688HOH      O 5249   2.146   2.244   2.200
 1688HOH     H1 5250   2.149   2.278   2.111
 1688HOH     H2 5251   2.230   2.271   2.239
 1689HOH      O 5252   3.752   2.143   2.648
 1689HOH     H1 5253   3.738   2.202   2.722
 1689HOH     H2 5254   3.840   2.108   2.661
 1690HOH      O 5255   0.551   3.047   2.203
 1690HOH     H1 5256   0.595   3.013   2.124
 1690HOH     H2 5257   0.577   3.139   2.206
 1691HOH      O 5258   2.891   1.032   4.052
 1691HOH     H1 5259   2.857   1.087   3.982
 1691HOH     H2 5260   2.918   0.951   4.009
 1692HOH      O 5261   3.138   0.862   3.328
 1692HOH     H1 5262   3.130   0.954   3.304
 1692HOH     H2 5263   3.051   0.825   3.313
 1693HOH      O 5264   0.855   2.308   3.167
 1693HOH     H1 5265   0.839   2.395   3.204
 1693HOH     H2 5266   0.862   2.251   3.244
 1694HOH      O 5267   2.394   2.995   1.142
 1694HOH     H1 5268   2.313   3.027   1.103
 1694HOH     H2 5269   2.367   2.948   1.221
 1695HOH      O 5270   3.035   1.360   1.897
 1695HOH     H1 5271   3.112   1.318   1.859
 1695HOH     H2 5272   2.963   1.336   1.838
 1696HOH      O 5273   1.964   0.412   0.570
 1696HOH     H1 5274   1.929   0.440   0.485
 1696HOH     H2 5275   1.894   0.358   0.608
 1697HOH      O 5276   3.121   2.845   0.256
 1697HOH     H1 5277   3.143   2.758   0.222
 1697HOH     H2 5278   3.206   2.885   0.277
 1698HOH      O 5279   2.495   3.671   1.137
 1698HOH     H1 5280   2.436   3.725   1.083
 1698HOH     H2 5281   2.576   3.666   1.086
 1699HOH      O 5282   1.763   0.559   2.640
 1699HOH     H1 5283   1.832   0.617   2.672
 1699HOH     H2 5284   1.764   0.485   2.702
 1700HOH      O 5285   2.502   0.831   3.323
 1700HOH     H1 5286   2.437   0.901   3.330
 1700HOH     H2 5287   2.519   0.804   3.413
 1701HOH      O 5288   2.172   1.999   2.324
 1701HOH     H1 5289   2.158   2.092   2.307
 1701HOH     H2 5290   2.144   1.987   2.415
 1702HOH      O 5291   3.081   0.159   0.785
 1702HOH     H1 5292   3.022   0.153   0.860
 1702HOH     H2 5293   3.169   0.159   0.823
 1703HOH      O 5294   3.139   0.251   3.483
 1703HOH     H1 5295   3.097   0.335   3.501
 1703HOH     H2 5296   3.219   0.253   3.536
 1704HOH      O 5297   0.923   3.540   3.098
 1704HOH     H1 5298   0.895   3.624   3.132
 1704HOH     H2 5299   0.946   3.557   3.007
 1705HOH      O 5300   1.362   1.193   2.422
 1705HOH     H1 5301   1.435   1.147   2.379
 1705HOH     H2 5302   1.362   1.158   2.511
 1706HOH      O 5303   3.815   2.449   3.268
 1706HOH     H1 5304   3.814   2.545   3.263
 1706HOH     H2 5305   3.907   2.425   3.256
 1707HOH      O 5306   3.667   1.612   1.877
 1707HOH     H1 5307   3.643   1.636   1.966
 1707HOH     H2 5308   3.609   1.539   1.855
 1708HOH      O 5309   2.212   0.488   0.497
 1708HOH     H1 5310   2.199   0.509   0.405
 1708HOH     H2 5311   2.125   0.465   0.529
 1709HOH      O 5312   3.886   0.203   1.446
 1709HOH     H1 5313   3.915   0.124   1.402
 1709HOH     H2 5314   3.961   0.262   1.441
 1710HOH      O 5315   0.167   1.874   0.596
 1710HOH     H1 5316   0.253   1.916   0.591
 1710HOH     H2 5317   0.154   1.834   0.510
 1711HOH      O 5318   3.729   0.981   2.760
 1711HOH     H1 5319   3.786   0.996   2.835
 1711HOH     H2 5320   3.640   0.990   2.795
 1712HOH      O 5321   0.640   0.812   1.163
 1712HOH     H1 5322   0.580   0.746   1.127
 1712HOH     H2 5323   0.688   0.765   1.231
 1713HOH      O 5324   0.264   2.227   0.315
 1713HOH     H1 5325   0.259   2.316   0.278
 1713HOH     H2 5326   0.302   2.239   0.402
 1714HOH      O 5327   2.921   2.704   1.018
 1714HOH     H1 5328   2.946   2.644   1.088
 1714HOH     H2 5329   2.972   2.783   1.034
 1715HOH      O 5330   2.574   2.039   3.721
 1715HOH     H1 5331   2.633   2.114   3.713
 1715HOH     H2 5332   2.537   2.046   3.809
 1716HOH      O 5333   3.026   3.186   1.967
 1716HOH     H1 5334   3.056   3.096   1.958
 1716HOH     H2 5335   3.099   3.240   1.936
 1717HOH      O 5336   2.844   0.290   0.942
 1717HOH     H1 5337   2.831   0.279   1.037
 1717HOH     H2 5338   2.755   0.297   0.907
 1718HOH      O 5339   2.275   0.703   2.998
 1718HOH     H1 5340   2.244   0.758   3.070
 1718HOH     H2 5341   2.243   0.747   2.919
 1719HOH      O 5342   1.146   0.596   2.929
 1719HOH     H1 5343   1.069   0.642   2.962
 1719HOH     H2 5344   1.166   0.531   2.997
 1720HOH      O 5345   1.803   2.409   0.958
 1720HOH     H1 5346   1.766   2.360   0.884
 1720HOH     H2 5347   1.736   2.403   1.026
 1721HOH      O 5348   1.030   0.122   0.302
 1721HOH     H1 5349   0.952   0.155   0.346
 1721HOH     H2 5350   1.015   0.028   0.294
 1722HOH      O 5351   1.960   3.362   3.833
 1722HOH     H1 5352   1.896   3.410   3.781
 1722HOH     H2 5353   2.017   3.321   3.768
 1723HOH      O 5354   0.388   3.959   3.435
 1723HOH     H1 5355   0.353   3.895   3.373
 1723HOH     H2 5356   0.413   4.034   3.381
 1724HOH      O 5357   2.630   0.045   3.838
 1724HOH     H1 5358   2.574   0.116   3.872
 1724HOH     H2 5359   2.602  -0.032   3.887
 1725HOH      O 5360   3.554   3.038   3.625
 1725HOH     H1 5361   3.478   3.069   3.577
 1725HOH     H2 5362   3.604   3.117   3.645
 1726HOH      O 5363   3.593   1.901   3.833
 1726HOH     H1 5364   3.622   1.824   3.784
 1726HOH     H2 5365   3.670   1.959   3.833
 1727HOH      O 5366   0.168   2.633   1.482
 1727HOH     H1 5367   0.138   2.554   1.528
 1727HOH     H2 5368   0.251   2.607   1.441
 1728HOH      O 5369   2.176   2.732   1.809
 1728HOH     H1 5370   2.142   2.697   1.891
 1728HOH     H2 5371   2.217   2.815   1.833
 1729HOH      O 5372   2.495   1.272   3.738
 1729HOH     H1 5373   2.406   1.264   3.770
 1729HOH     H2 5374   2.549   1.227   3.803
 1730HOH      O 5375   3.661   0.496   1.820
 1730HOH     H1 5376   3.579   0.478   1.866
 1730HOH     H2 5377   3.675   0.420   1.764
 1731HOH      O 5378   0.479   3.373   1.552
 1731HOH     H1 5379   0.426   3.384   1.631
 1731HOH     H2 5380   0.569   3.380   1.582
 1732HOH      O 5381   3.171   0.950   2.257
 1732HOH     H1 5382   3.128   0.958   2.342
 1732HOH     H2 5383   3.203   1.038   2.238
 1733HOH      O 5384   3.501   1.705   2.115
 1733HOH     H1 5385   3.520   1.747   2.199
 1733HOH     H2 5386   3.459   1.773   2.063
 1734HOH      O 5387   0.998   0.304   2.857
 1734HOH     H1 5388   0.952   0.388   2.867
 1734HOH     H2 5389   0.995   0.287   2.763
 1735HOH      O 5390   1.941   1.491   0.947
 1735HOH     H1 5391   1.879   1.556   0.913
 1735HOH     H2 5392   1.977   1.530   1.026
 1736HOH      O 5393   3.710   0.247   0.834
 1736HOH     H1 5394   3.714   0.157   0.865
 1736HOH     H2 5395   3.616   0.266   0.825
 1737HOH      O 5396   0.944   2.022   0.192
 1737HOH     H1 5397   1.030   2.028   0.234
 1737HOH     H2 5398   0.916   2.113   0.180
 1738HOH      O 5399   1.898   1.711   3.076
 1738HOH     H1 5400   1.892   1.641   3.011
 1738HOH     H2 5401   1.831   1.690   3.141
 1739HOH      O 5402   2.147   0.804   1.729
 1739HOH     H1 5403   2.117   0.855   1.654
 1739HOH     H2 5404   2.173   0.870   1.793
 1740HOH      O 5405   2.294   2.809   3.963
 1740HOH     H1 5406   2.308   2.717   3.938
 1740HOH     H2 5407   2.351   2.859   3.904
 1741HOH      O 5408   2.879   1.747   3.489
 1741HOH     H1 5409   2.828   1.761   3.409
 1741HOH     H2 5410   2.965   1.784   3.469
 1742HOH      O 5411   0.248   3.269   1.969
 1742HOH     H1 5412   0.331   3.223   1.952
 1742HOH     H2 5413   0.181   3.208   1.938
 1743HOH      O 5414   2.141   3.989   3.064
 1743HOH     H1 5415   2.195   4.062   3.094
 1743HOH     H2 5416   2.107   3.949   3.143
 1744HOH      O 5417   1.441   1.937   1.765
 1744HOH     H1 5418   1.533   1.945   1.738
 1744HOH     H2 5419   1.401   1.881   1.698
 1745HOH      O 5420   0.115   2.096   2.179
 1745HOH     H1 5421   0.103   2.018   2.234
 1745HOH     H2 5422   0.201   2.129   2.204
 1746HOH      O 5423   1.297   1.294  -0.025
 1746HOH     H1 5424   1.353   1.222   0.003
 1746HOH     H2 5425   1.302   1.358   0.046
 1747HOH      O 5426   1.837   1.201   2.054
 1747HOH     H1 5427   1.933   1.196   2.053
 1747HOH     H2 5428   1.818   1.286   2.093
 1748HOH      O 5429   3.855   1.013   0.067
 1748HOH     H1 5430   3.814   1.089   0.108
 1748HOH     H2 5431   3.782   0.957   0.042
 1749HOH      O 5432   3.328   0.287   2.692
 1749HOH     H1 5433   3.361   0.300   2.781
 1749HOH     H2 5434   3.381   0.347   2.638
 1750HOH      O 5435   0.280   0.603   1.015
 1750HOH     H1 5436   0.301   0.606   0.922
 1750HOH     H2 5437   0.363   0.625   1.059
 1751HOH      O 5438   3.110   1.842   2.621
 1751HOH     H1 5439   3.191   1.848   2.570
 1751HOH     H2 5440   3.067   1.763   2.588
 1752HOH      O 5441   1.002   1.335   0.786
 1752HOH     H1 5442   0.954   1.344   0.703
 1752HOH     H2 5443   0.951   1.383   0.850
 1753HOH      O 5444   1.257   2.754   2.591
 1753HOH     H1 5445   1.202   2.736   2.667
 1753HOH     H2 5446   1.287   2.844   2.604
 1754HOH      O 5447   0.755   0.816   1.476
 1754HOH     H1 5448   0.844   0.780   1.478
 1754HOH     H2 5449   0.699   0.740   1.460
 1755HOH      O 5450   0.765   2.050   2.861
 1755HOH     H1 5451   0.714   1.984   2.908
 1755HOH     H2 5452   0.857   2.029   2.881
 1756HOH      O 5453   0.547   1.008   1.480
 1756HOH     H1 5454   0.620   0.947   1.474
 1756HOH     H2 5455   0.492   0.988   1.404
 1757HOH      O 5456   2.759   0.698   1.050
 1757HOH     H1 5457   2.762   0.669   1.141
 1757HOH     H2 5458   2.666   0.703   1.029
 1758HOH      O 5459   2.350   0.055   3.673
 1758HOH     H1 5460   2.360   0.114   3.747
 1758HOH     H2 5461   2.437   0.051   3.633
 1759HOH      O 5462   0.508   1.865   0.957
 1759HOH     H1 5463   0.457   1.943   0.935
 1759HOH     H2 5464   0.573   1.896   1.020
 1760HOH      O 5465   3.899   0.213   0.180
 1760HOH     H1 5466   3.893   0.144   0.246
 1760HOH     H2 5467   3.855   0.288   0.221
 1761HOH      O 5468   2.582   0.426   2.834
 1761HOH     H1 5469   2.674   0.406   2.854
 1761HOH     H2 5470   2.576   0.521   2.848
 1762HOH      O 5471   0.310   1.047   1.862
 1762HOH     H1 5472   0.343   1.035   1.951
 1762HOH     H2 5473   0.372   0.999   1.807
 1763HOH      O 5474   3.486   1.874   2.604
 1763HOH     H1 5475   3.580   1.877   2.623
 1763HOH     H2 5476   3.445   1.851   2.687
 1764HOH      O 5477   1.138   1.921   1.223
 1764HOH     H1 5478   1.149   1.983   1.296
 1764HOH     H2 5479   1.137   1.835   1.264
 1765HOH      O 5480   2.079   3.577   1.292
 1765HOH     H1 5481   2.101   3.528   1.213
 1765HOH     H2 5482   2.102   3.667   1.272
 1766HOH      O 5483   2.037   3.590   1.554
 1766HOH     H1 5484   2.104   3.600   1.622
 1766HOH     H2 5485   2.085   3.554   1.479
 1767HOH      O 5486   2.384   0.405   2.532
 1767HOH     H1 5487   2.426   0.440   2.610
 1767HOH     H2 5488   2.408   0.312   2.531
 1768HOH      O 5489   0.858   2.164   3.649
 1768HOH     H1 5490   0.871   2.164   3.554
 1768HOH     H2 5491   0.945   2.182   3.685
 1769HOH      O 5492   1.586   0.758   2.443
 1769HOH     H1 5493   1.595   0.665   2.465
 1769HOH     H2 5494   1.524   0.759   2.370
 1770HOH      O 5495   3.060   2.084   2.404
 1770HOH     H1 5496   3.112   2.115   2.330
 1770HOH     H2 5497   3.115   2.018   2.446
 1771HOH      O 5498   0.317   0.138   1.792
 1771HOH     H1 5499   0.298   0.231   1.780
 1771HOH     H2 5500   0.410   0.135   1.815
 1772HOH      O 5501   0.238   1.108   3.902
 1772HOH     H1 5502   0.333   1.100   3.897
 1772HOH     H2 5503   0.216   1.072   3.988
 1773HOH      O 5504   0.914   0.086   1.013
 1773HOH     H1 5505   0.981   0.031   0.972
 1773HOH     H2 5506   0.958   0.169   1.030
 1774HOH      O 5507   1.648   2.891   1.714
 1774HOH     H1 5508   1.649   2.953   1.641
 1774HOH     H2 5509   1.738   2.889   1.745
 1775HOH      O 5510   3.863   3.988   0.277
 1775HOH     H1 5511   3.808   3.911   0.276
 1775HOH     H2 5512   3.953   3.954   0.281
 1776HOH      O 5513   1.568   3.862   2.830
 1776HOH     H1 5514   1.590   3.803   2.759
 1776HOH     H2 5515   1.549   3.946   2.788
 1777HOH      O 5516   2.304   3.425   1.167
 1777HOH     H1 5517   2.294   3.364   1.094
 1777HOH     H2 5518   2.361   3.494   1.133
 1778HOH      O 5519   0.264   2.036   3.033
 1778HOH     H1 5520   0.267   1.941   3.021
 1778HOH     H2 5521   0.173   2.059   3.015
 1779HOH      O 5522   0.597   1.360   1.795
 1779HOH     H1 5523   0.630   1.277   1.828
 1779HOH     H2 5524   0.596   1.349   1.700
 1780HOH      O 5525   0.378   2.250   2.646
 1780HOH     H1 5526   0.422   2.206   2.719
 1780HOH     H2 5527   0.304   2.193   2.626
 1781HOH      O 5528   3.811   0.589   1.625
 1781HOH     H1 5529   3.846   0.677   1.635
 1781HOH     H2 5530   3.737   0.585   1.686
 1782HOH      O 5531   3.786   3.010   0.478
 1782HOH     H1 5532   3.728   2.986   0.405
 1782HOH     H2 5533   3.848   2.938   0.484
 1783HOH      O 5534   1.565   3.671   1.181
 1783HOH     H1 5535   1.508   3.619   1.239
 1783HOH     H2 5536   1.506   3.706   1.115
 1784HOH      O 5537   1.928   0.763   2.388
 1784HOH     H1 5538   1.879   0.821   2.331
 1784HOH     H2 5539   1.862   0.708   2.430
 1785HOH      O 5540   2.475   2.104   0.240
 1785HOH     H1 5541   2.555   2.121   0.289
 1785HOH     H2 5542   2.453   2.189   0.201
 1786HOH      O 5543   2.342   3.327   3.267
 1786HOH     H1 5544   2.399   3.254   3.291
 1786HOH     H2 5545   2.399   3.386   3.218
 1787HOH      O 5546   2.368   1.632   3.835
 1787HOH     H1 5547   2.453   1.621   3.793
 1787HOH     H2 5548   2.356   1.553   3.887
 1788HOH      O 5549   1.171   0.059   0.965
 1788HOH     H1 5550   1.219   0.142   0.968
 1788HOH     H2 5551   1.206   0.014   0.888
 1789HOH      O 5552   3.071   1.983   0.865
 1789HOH     H1 5553   2.976   1.985   0.877
 1789HOH     H2 5554   3.086   2.031   0.784
 1790HOH      O 5555   1.757   1.045   1.490
 1790HOH     H1 5556   1.829   1.082   1.440
 1790HOH     H2 5557   1.796   0.976   1.542
 1791HOH      O 5558   2.704   2.854   0.910
 1791HOH     H1 5559   2.668   2.818   0.992
 1791HOH     H2 5560   2.779   2.799   0.890
 1792HOH      O 5561   3.125   1.861   3.403
 1792HOH     H1 5562   3.129   1.776   3.360
 1792HOH     H2 5563   3.200   1.909   3.368
 1793HOH      O 5564   1.455   2.010   2.017
 1793HOH     H1 5565   1.472   1.995   1.925
 1793HOH     H2 5566   1.445   2.105   2.025
 1794HOH      O 5567   0.012   3.940   0.874
 1794HOH     H1 5568  -0.001   3.858   0.921
 1794HOH     H2 5569   0.047   4.000   0.940
 1795HOH      O 5570   0.728   0.048   2.339
 1795HOH     H1 5571   0.714   0.131   2.385
 1795HOH     H2 5572   0.814   0.019   2.369
 1796HOH      O 5573   1.421   2.564   1.810
 1796HOH     H1 5574   1.416   2.500   1.881
 1796HOH     H2 5575   1.351   2.627   1.830
 1797HOH      O 5576   0.640   2.506   2.832
 1797HOH     H1 5577   0.680   2.570   2.890
 1797HOH     H2 5578   0.686   2.424   2.852
 1798HOH      O 5579   3.087   2.754   2.316
 1798HOH     H1 5580   3.008   2.806   2.296
 1798HOH     H2 5581   3.076   2.728   2.407
 1799HOH      O 5582   0.905   3.132   1.841
 1799HOH     H1 5583   0.820   3.088   1.842
 1799HOH     H2 5584   0.945   3.110   1.925
 1800HOH      O 5585   1.524   1.621   3.528
 1800HOH     H1 5586   1.485   1.631   3.441
 1800HOH     H2 5587   1.484   1.541   3.563
 1801HOH      O 5588   1.644   0.997   3.085
 1801HOH     H1 5589   1.610   1.080   3.119
 1801HOH     H2 5590   1.576   0.932   3.106
 1802HOH      O 5591   1.495   1.132   0.494
 1802HOH     H1 5592   1.587   1.121   0.516
 1802HOH     H2 5593   1.494   1.203   0.430
 1803HOH      O 5594   1.186   0.412   3.792
 1803HOH     H1 5595   1.181   0.463   3.874
 1803HOH     H2 5596   1.187   0.321   3.821
 1804HOH      O 5597   1.674   3.869   1.809
 1804HOH     H1 5598   1.736   3.870   1.736
 1804HOH     H2 5599   1.636   3.781   1.808
 1805HOH      O 5600   3.159   2.066   3.622
 1805HOH     H1 5601   3.135   2.012   3.546
 1805HOH     H2 5602   3.212   2.008   3.677
 1806HOH      O 5603   2.224   2.065   0.118
 1806HOH     H1 5604   2.213   2.013   0.038
 1806HOH     H2 5605   2.317   2.056   0.140
 1807HOH      O 5606   0.386   3.047   1.120
 1807HOH     H1 5607   0.303   3.024   1.161
 1807HOH     H2 5608   0.438   3.086   1.191
 1808HOH      O 5609   3.517   2.500   1.982
 1808HOH     H1 5610   3.491   2.592   1.987
 1808HOH     H2 5611   3.438   2.451   2.002
 1809HOH      O 5612   2.447   2.693   1.379
 1809HOH     H1 5613   2.380   2.630   1.403
 1809HOH     H2 5614   2.452   2.753   1.454
 1810HOH      O 5615   3.859   2.092   1.374
 1810HOH     H1 5616   3.795   2.053   1.315
 1810HOH     H2 5617   3.825   2.179   1.392
 1811HOH      O 5618   1.684   2.228   3.168
 1811HOH     H1 5619   1.776   2.208   3.151
 1811HOH     H2 5620   1.644   2.143   3.186
 1812HOH      O 5621   3.018   2.914   1.185
 1812HOH     H1 5622   3.064   2.903   1.268
 1812HOH     H2 5623   3.071   2.977   1.136
 1813HOH      O 5624   3.377   2.576   3.641
 1813HOH     H1 5625   3.463   2.616   3.651
 1813HOH     H2 5626   3.319   2.630   3.694
 1814HOH      O 5627   3.518   1.400   1.045
 1814HOH     H1 5628   3.454   1.430   0.981
 1814HOH     H2 5629   3.507   1.459   1.120
 1815HOH      O 5630   0.846   3.010   2.356
 1815HOH     H1 5631   0.939   2.990   2.359
 1815HOH     H2 5632   0.807   2.937   2.308
 1816HOH      O 5633   3.582   0.053  -0.014
 1816HOH     H1 5634   3.570   0.082   0.076
 1816HOH     H2 5635   3.565  -0.042  -0.011
 1817HOH      O 5636   1.182   0.052   2.783
 1817HOH     H1 5637   1.270   0.054   2.746
 1817HOH     H2 5638   1.159  -0.041   2.786
 1818HOH      O 5639   2.836   2.072   1.570
 1818HOH     H1 5640   2.824   2.039   1.481
 1818HOH     H2 5641   2.747   2.073   1.607
 1819HOH      O 5642   3.606   1.814   3.124
 1819HOH     H1 5643   3.584   1.723   3.102
 1819HOH     H2 5644   3.590   1.863   3.044
 1820HOH      O 5645   2.805   1.462   0.097
 1820HOH     H1 5646   2.738   1.398   0.122
 1820HOH     H2 5647   2.756   1.532   0.054
 1821HOH      O 5648   1.185   1.180   1.572
 1821HOH     H1 5649   1.092   1.199   1.580
 1821HOH     H2 5650   1.225   1.265   1.553
 1822HOH      O 5651   2.885   2.524   2.305
 1822HOH     H1 5652   2.939   2.590   2.262
 1822HOH     H2 5653   2.947   2.468   2.351
 1823HOH      O 5654   1.493   2.280   0.573
 1823HOH     H1 5655   1.434   2.298   0.647
 1823HOH     H2 5656   1.532   2.365   0.553
 1824HOH      O 5657   3.277   3.829   2.643
 1824HOH     H1 5658   3.353   3.778   2.673
 1824HOH     H2 5659   3.245   3.782   2.566
 1825HOH      O 5660   0.759   2.113   1.962
 1825HOH     H1 5661   0.701   2.089   1.890
 1825HOH     H2 5662   0.828   2.046   1.959
 1826HOH      O 5663   1.943   2.920   1.697
 1826HOH     H1 5664   2.021   2.872   1.725
 1826HOH     H2 5665   1.975   3.009   1.681
 1827HOH      O 5666   0.777   1.423   2.232
 1827HOH     H1 5667   0.767   1.430   2.327
 1827HOH     H2 5668   0.712   1.358   2.205
 1828HOH      O 5669   0.065   1.370   2.290
 1828HOH     H1 5670   0.096   1.303   2.228
 1828HOH     H2 5671  -0.014   1.405   2.249
 1829HOH      O 5672   0.729   3.739   0.156
 1829HOH     H1 5673   0.637   3.712   0.155
 1829HOH     H2 5674   0.755   3.734   0.064
 1830HOH      O 5675   0.297   1.720   1.123
 1830HOH     H1 5676   0.336   1.707   1.037
 1830HOH     H2 5677   0.368   1.701   1.185
 1831HOH      O 5678   2.178   2.143   3.134
 1831HOH     H1 5679   2.096   2.095   3.132
 1831HOH     H2 5680   2.152   2.235   3.132
 1832HOH      O 5681   2.646   3.334   1.322
 1832HOH     H1 5682   2.606   3.285   1.250
 1832HOH     H2 5683   2.573   3.381   1.362
 1833HOH      O 5684   3.432   3.198   1.489
 1833HOH     H1 5685   3.435   3.265   1.557
 1833HOH     H2 5686   3.491   3.129   1.521
 1834HOH      O 5687   0.807   0.558   2.844
 1834HOH     H1 5688   0.729   0.503   2.838
 1834HOH     H2 5689   0.805   0.593   2.933
 1835HOH      O 5690   0.964   2.429   2.255
 1835HOH     H1 5691   1.018   2.505   2.231
 1835HOH     H2 5692   1.005   2.395   2.335
 1836HOH      O 5693   3.232   1.994   0.233
 1836HOH     H1 5694   3.164   2.053   0.264
 1836HOH     H2 5695   3.307   2.011   0.290
 1837HOH      O 5696   0.122   2.603   1.121
 1837HOH     H1 5697   0.137   2.524   1.172
 1837HOH     H2 5698   0.210   2.638   1.106
 1838HOH      O 5699   0.082   0.826   0.612
 1838HOH     H1 5700   0.118   0.912   0.633
 1838HOH     H2 5701   0.082   0.778   0.695
 1839HOH      O 5702   2.094   1.223   2.086
 1839HOH     H1 5703   2.089   1.316   2.105
 1839HOH     H2 5704   2.183   1.209   2.054
 1840HOH      O 5705   0.107   3.947   0.236
 1840HOH     H1 5706   0.116   3.883   0.165
 1840HOH     H2 5707   0.152   4.025   0.203
 1841HOH      O 5708   3.413   1.739   3.422
 1841HOH     H1 5709   3.372   1.700   3.346
 1841HOH     H2 5710   3.494   1.690   3.434
 1842HOH      O 5711   3.861   2.187   3.760
 1842HOH     H1 5712   3.899   2.119   3.814
 1842HOH     H2 5713   3.865   2.152   3.671
 1843HOH      O 5714   3.547   1.493   0.721
 1843HOH     H1 5715   3.530   1.531   0.635
 1843HOH     H2 5716   3.461   1.478   0.758
 1844HOH      O 5717   0.095   0.449   1.118
 1844HOH     H1 5718   0.015   0.487   1.082
 1844HOH     H2 5719   0.166   0.502   1.081
 1845HOH      O 5720   3.876   3.834   0.520
 1845HOH     H1 5721   3.968   3.812   0.507
 1845HOH     H2 5722   3.878   3.924   0.554
 1846HOH      O 5723   1.797   1.832   3.367
 1846HOH     H1 5724   1.791   1.736   3.373
 1846HOH     H2 5725   1.711   1.863   3.397
 1847HOH      O 5726   1.622   3.355   3.657
 1847HOH     H1 5727   1.557   3.306   3.607
 1847HOH     H2 5728   1.668   3.289   3.709
 1848HOH      O 5729   3.757   3.742   3.920
 1848HOH     H1 5730   3.678   3.770   3.966
 1848HOH     H2 5731   3.751   3.646   3.919
 1849HOH      O 5732   1.377   1.307   0.701
 1849HOH     H1 5733   1.327   1.230   0.675
 1849HOH     H2 5734   1.465   1.275   0.717
 1850HOH      O 5735   0.696   2.325   2.201
 1850HOH     H1 5736   0.780   2.358   2.234
 1850HOH     H2 5737   0.720   2.268   2.128
 1851HOH      O 5738   1.517   1.920   3.755
 1851HOH     H1 5739   1.457   1.867   3.808
 1851HOH     H2 5740   1.477   2.007   3.755
 1852HOH      O 5741   1.719   3.472   1.189
 1852HOH     H1 5742   1.749   3.483   1.279
 1852HOH     H2 5743   1.675   3.554   1.168
 1853HOH      O 5744   3.236   3.972   1.311
 1853HOH     H1 5745   3.242   4.014   1.397
 1853HOH     H2 5746   3.321   3.930   1.298
 1854HOH      O 5747   1.650   1.248   2.642
 1854HOH     H1 5748   1.643   1.161   2.603
 1854HOH     H2 5749   1.619   1.308   2.573
 1855HOH      O 5750   0.977   3.490   2.820
 1855HOH     H1 5751   0.885   3.464   2.825
 1855HOH     H2 5752   0.983   3.543   2.741
 1856HOH      O 5753   1.280   1.399   2.272
 1856HOH     H1 5754   1.318   1.329   2.325
 1856HOH     H2 5755   1.186   1.381   2.271
 1857HOH      O 5756   0.587   3.327   2.257
 1857HOH     H1 5757   0.519   3.393   2.244
 1857HOH     H2 5758   0.661   3.358   2.205
 1858HOH      O 5759   2.395   3.011   2.561
 1858HOH     H1 5760   2.422   3.085   2.506
 1858HOH     H2 5761   2.387   3.048   2.648
 1859HOH      O 5762   2.468   1.557   1.769
 1859HOH     H1 5763   2.548   1.578   1.721
 1859HOH     H2 5764   2.423   1.641   1.779
 1860HOH      O 5765   1.666   3.955   0.522
 1860HOH     H1 5766   1.615   4.035   0.510
 1860HOH     H2 5767   1.688   3.955   0.615
 1861HOH      O 5768   2.621   2.435   1.566
 1861HOH     H1 5769   2.686   2.474   1.624
 1861HOH     H2 5770   2.537   2.456   1.607
 1862HOH      O 5771   2.601   1.609   3.723
 1862HOH     H1 5772   2.641   1.675   3.667
 1862HOH     H2 5773   2.657   1.532   3.714
 1863HOH      O 5774   2.416   1.716   3.077
 1863HOH     H1 5775   2.426   1.811   3.070
 1863HOH     H2 5776   2.322   1.701   3.071
 1864HOH      O 5777   2.375   3.575   2.002
 1864HOH     H1 5778   2.379   3.604   1.911
 1864HOH     H2 5779   2.289   3.533   2.010
 1865HOH      O 5780   2.393   1.695   2.169
 1865HOH     H1 5781   2.471   1.750   2.167
 1865HOH     H2 5782   2.341   1.730   2.241
 1866HOH      O 5783   2.824   1.344   1.714
 1866HOH     H1 5784   2.764   1.295   1.659
 1866HOH     H2 5785   2.835   1.428   1.668
 1867HOH      O 5786   0.530   3.381   2.708
 1867HOH     H1 5787   0.530   3.442   2.782
 1867HOH     H2 5788   0.614   3.396   2.665
 1868HOH      O 5789   3.757   1.334   3.055
 1868HOH     H1 5790   3.824   1.315   2.989
 1868HOH     H2 5791   3.687   1.272   3.036
 1869HOH      O 5792   2.197   0.083   0.510
 1869HOH     H1 5793   2.126   0.142   0.483
 1869HOH     H2 5794   2.270   0.106   0.453
 1870HOH      O 5795   3.044   3.389   0.670
 1870HOH     H1 5796   2.975   3.332   0.636
 1870HOH     H2 5797   3.000   3.471   0.692
 1871HOH      O 5798   0.068   0.371   1.377
 1871HOH     H1 5799   0.064   0.446   1.317
 1871HOH     H2 5800   0.131   0.311   1.336
 1872HOH      O 5801   3.379   0.023   3.442
 1872HOH     H1 5802   3.311   0.060   3.386
 1872HOH     H2 5803   3.425   0.100   3.478
 1873HOH      O 5804   3.769   1.500   0.152
 1873HOH     H1 5805   3.838   1.555   0.188
 1873HOH     H2 5806   3.689   1.550   0.165
 1874HOH      O 5807   2.959   2.562   3.992
 1874HOH     H1 5808   2.889   2.628   4.000
 1874HOH     H2 5809   2.982   2.564   3.899
 1875HOH      O 5810   2.417   1.939   1.045
 1875HOH     H1 5811   2.455   1.860   1.006
 1875HOH     H2 5812   2.322   1.923   1.042
 1876HOH      O 5813   1.404   0.857   3.184
 1876HOH     H1 5814   1.467   0.794   3.150
 1876HOH     H2 5815   1.365   0.814   3.260
 1877HOH      O 5816   0.149   0.965   1.456
 1877HOH     H1 5817   0.180   0.879   1.483
 1877HOH     H2 5818   0.209   0.991   1.386
 1878HOH      O 5819   1.678   1.744   1.921
 1878HOH     H1 5820   1.617   1.710   1.856
 1878HOH     H2 5821   1.649   1.706   2.003
 1879HOH      O 5822   2.532   2.606   3.485
 1879HOH     H1 5823   2.550   2.618   3.578
 1879HOH     H2 5824   2.445   2.566   3.483
 1880HOH      O 5825   3.450   1.067   3.392
 1880HOH     H1 5826   3.541   1.094   3.382
 1880HOH     H2 5827   3.451   1.003   3.463
 1881HOH      O 5828   1.361   0.186   3.516
 1881HOH     H1 5829   1.308   0.265   3.504
 1881HOH     H2 5830   1.297   0.116   3.528
 1882HOH      O 5831   2.748   1.744   3.223
 1882HOH     H1 5832   2.712   1.833   3.227
 1882HOH     H2 5833   2.670   1.687   3.227
 1883HOH      O 5834   2.236   0.650   3.378
 1883HOH     H1 5835   2.266   0.584   3.315
 1883HOH     H2 5836   2.266   0.733   3.342
 1884HOH      O 5837   2.477   1.444   2.950
 1884HOH     H1 5838   2.448   1.512   3.011
 1884HOH     H2 5839   2.465   1.484   2.863
 1885HOH      O 5840   3.215   0.054   1.564
 1885HOH     H1 5841   3.165   0.030   1.642
 1885HOH     H2 5842   3.224   0.149   1.570
 1886HOH      O 5843   2.693   1.892   2.335
 1886HOH     H1 5844   2.609   1.938   2.329
 1886HOH     H2 5845   2.678   1.810   2.289
 1887HOH      O 5846   0.642   3.366   1.800
 1887HOH     H1 5847   0.701   3.417   1.744
 1887HOH     H2 5848   0.684   3.366   1.886
 1888HOH      O 5849   1.718   1.361   0.705
 1888HOH     H1 5850   1.722   1.381   0.798
 1888HOH     H2 5851   1.774   1.427   0.663
 1889HOH      O 5852   1.150   2.980   3.616
 1889HOH     H1 5853   1.057   2.987   3.638
 1889HOH     H2 5854   1.188   3.062   3.646
 1890HOH      O 5855   2.443   1.440   1.517
 1890HOH     H1 5856   2.494   1.509   1.472
 1890HOH     H2 5857   2.446   1.465   1.609
 1891HOH      O 5858   3.963   2.446   0.469
 1891HOH     H1 5859   3.946   2.460   0.376
 1891HOH     H2 5860   4.043   2.495   0.487
 1892HOH      O 5861   2.786   3.387   0.392
 1892HOH     H1 5862   2.732   3.322   0.348
 1892HOH     H2 5863   2.746   3.399   0.478
 1893HOH      O 5864   1.656   0.415   1.168
 1893HOH     H1 5865   1.617   0.329   1.177
 1893HOH     H2 5866   1.687   0.437   1.256
 1894HOH      O 5867   3.615   2.702   1.450
 1894HOH     H1 5868   3.646   2.644   1.380
 1894HOH     H2 5869   3.522   2.684   1.457
 1895HOH      O 5870   1.958   2.456   2.586
 1895HOH     H1 5871   1.874   2.410   2.580
 1895HOH     H2 5872   1.966   2.503   2.503
 1896HOH      O 5873   1.853   0.342   2.133
 1896HOH     H1 5874   1.768   0.318   2.168
 1896HOH     H2 5875   1.873   0.274   2.069
 1897HOH      O 5876   3.052   0.560   1.408
 1897HOH     H1 5877   3.016   0.573   1.496
 1897HOH     H2 5878   3.050   0.465   1.396
 1898HOH      O 5879   1.752   0.542   1.690
 1898HOH     H1 5880   1.743   0.463   1.744
 1898HOH     H2 5881   1.754   0.510   1.600
 1899HOH      O 5882   2.945   2.433   1.580
 1899HOH     H1 5883   3.037   2.454   1.562
 1899HOH     H2 5884   2.915   2.388   1.501
 1900HOH      O 5885   3.667   1.596   2.766
 1900HOH     H1 5886   3.579   1.633   2.762
 1900HOH     H2 5887   3.653   1.504   2.789
 1901HOH      O 5888   3.469   1.561   0.024
 1901HOH     H1 5889   3.524   1.639   0.030
 1901HOH     H2 5890   3.392   1.581   0.077
 1902HOH      O 5891   1.837   3.150   4.040
 1902HOH     H1 5892   1.903   3.131   3.973
 1902HOH     H2 5893   1.833   3.245   4.044
 1903HOH      O 5894   2.202   1.012   3.755
 1903HOH     H1 5895   2.297   1.008   3.769
 1903HOH     H2 5896   2.179   0.924   3.723
 1904HOH      O 5897   2.973   3.914   3.942
 1904HOH     H1 5898   2.935   3.827   3.931
 1904HOH     H2 5899   3.002   3.917   4.033
 1905HOH      O 5900   3.743   0.747   3.837
 1905HOH     H1 5901   3.829   0.762   3.875
 1905HOH     H2 5902   3.707   0.675   3.888
 1906HOH      O 5903   3.921   1.561   0.747
 1906HOH     H1 5904   4.011   1.533   0.732
 1906HOH     H2 5905   3.929   1.643   0.795
 1907HOH      O 5906   1.801   3.764   0.906
 1907HOH     H1 5907   1.870   3.721   0.956
 1907HOH     H2 5908   1.782   3.704   0.834
 1908HOH      O 5909   1.874   1.966   0.772
 1908HOH     H1 5910   1.846   1.875   0.775
 1908HOH     H2 5911   1.944   1.967   0.707
 1909HOH      O 5912   2.594   0.007   0.754
 1909HOH     H1 5913   2.652   0.012   0.678
 1909HOH     H2 5914   2.581   0.099   0.779
 1910HOH      O 5915   0.154   1.274   1.398
 1910HOH     H1 5916   0.109   1.349   1.436
 1910HOH     H2 5917   0.167   1.214   1.471
 1911HOH      O 5918   3.930   1.953   0.599
 1911HOH     H1 5919   3.891   1.865   0.598
 1911HOH     H2 5920   4.023   1.938   0.580
 1912HOH      O 5921   0.869   3.053   0.679
 1912HOH     H1 5922   0.901   3.008   0.758
 1912HOH     H2 5923   0.775   3.064   0.693
 1913HOH      O 5924   0.084   3.165   0.793
 1913HOH     H1 5925   0.043   3.095   0.843
 1913HOH     H2 5926   0.045   3.246   0.826
 1914HOH      O 5927   3.476   1.501   2.477
 1914HOH     H1 5928   3.382   1.522   2.473
 1914HOH     H2 5929   3.519   1.578   2.439
 1915HOH      O 5930   1.530   1.895   2.268
 1915HOH     H1 5931   1.503   1.940   2.188
 1915HOH     H2 5932   1.455   1.903   2.327
 1916HOH      O 5933   3.105   3.303   2.403
 1916HOH     H1 5934   3.184   3.358   2.405
 1916HOH     H2 5935   3.129   3.224   2.452
 1917HOH      O 5936   3.038   1.175   1.058
 1917HOH     H1 5937   2.995   1.091   1.043
 1917HOH     H2 5938   3.090   1.162   1.137
 1918HOH      O 5939   2.327   3.491   2.842
 1918HOH     H1 5940   2.382   3.569   2.848
 1918HOH     H2 5941   2.330   3.467   2.750
 1919HOH      O 5942   3.851   1.897   2.899
 1919HOH     H1 5943   3.849   1.807   2.932
 1919HOH     H2 5944   3.765   1.933   2.921
 1920HOH      O 5945   1.830   2.162   2.486
 1920HOH     H1 5946   1.744   2.135   2.518
 1920HOH     H2 5947   1.818   2.254   2.462
 1921HOH      O 5948   0.406   0.165   0.895
 1921HOH     H1 5949   0.356   0.164   0.813
 1921HOH     H2 5950   0.464   0.241   0.886
 1922HOH      O 5951   3.132   0.517   2.399
 1922HOH     H1 5952   3.140   0.576   2.324
 1922HOH     H2 5953   3.126   0.575   2.474
 1923HOH      O 5954   2.045   1.931   3.759
 1923HOH     H1 5955   2.028   1.897   3.672
 1923HOH     H2 5956   2.079   2.019   3.745
 1924HOH      O 5957   2.501   3.747   2.215
 1924HOH     H1 5958   2.416   3.773   2.180
 1924HOH     H2 5959   2.480   3.703   2.298
 1925HOH      O 5960   1.827   1.309   1.563
 1925HOH     H1 5961   1.760   1.241   1.564
 1925HOH     H2 5962   1.907   1.264   1.536
 1926HOH      O 5963   3.571   1.972   2.916
 1926HOH     H1 5964   3.612   2.002   2.835
 1926HOH     H2 5965   3.491   2.024   2.922
 1927HOH      O 5966   3.496   3.618   1.001
 1927HOH     H1 5967   3.524   3.710   1.003
 1927HOH     H2 5968   3.533   3.584   0.919
 1928HOH      O 5969   0.153   3.557   3.114
 1928HOH     H1 5970   0.227   3.498   3.101
 1928HOH     H2 5971   0.079   3.511   3.076
 1929HOH      O 5972   1.305   3.556   0.321
 1929HOH     H1 5973   1.309   3.538   0.415
 1929HOH     H2 5974   1.324   3.472   0.279
 1930HOH      O 5975   1.416   2.308   2.615
 1930HOH     H1 5976   1.367   2.374   2.565
 1930HOH     H2 5977   1.365   2.298   2.696
 1931HOH      O 5978   1.594   3.630   3.092
 1931HOH     H1 5979   1.511   3.674   3.074
 1931HOH     H2 5980   1.594   3.554   3.033
 1932HOH      O 5981   1.428   0.015   3.191
 1932HOH     H1 5982   1.519   0.041   3.175
 1932HOH     H2 5983   1.394   0.083   3.249
 1933HOH      O 5984   1.778   1.132   2.362
 1933HOH     H1 5985   1.867   1.133   2.396
 1933HOH     H2 5986   1.734   1.064   2.413
 1934HOH      O 5987   1.460   0.114   0.165
 1934HOH     H1 5988   1.530   0.053   0.146
 1934HOH     H2 5989   1.413   0.125   0.082
 1935HOH      O 5990   1.285   1.817   2.672
 1935HOH     H1 5991   1.373   1.850   2.692
 1935HOH     H2 5992   1.296   1.723   2.662
 1936HOH      O 5993   3.728   2.325   2.177
 1936HOH     H1 5994   3.752   2.384   2.105
 1936HOH     H2 5995   3.812   2.290   2.208
 1937HOH      O 5996   3.327   0.813   3.094
 1937HOH     H1 5997   3.358   0.839   3.008
 1937HOH     H2 5998   3.275   0.734   3.079
 1938HOH      O 5999   0.147   1.766   0.348
 1938HOH     H1 6000   0.099   1.750   0.268
 1938HOH     H2 6001   0.239   1.750   0.325
 1939HOH      O 6002   2.060   2.393   3.124
 1939HOH     H1 6003   2.021   2.394   3.036
 1939HOH     H2 6004   2.097   2.480   3.135
 1940HOH      O 6005   3.506   1.885   0.923
 1940HOH     H1 6006   3.503   1.951   0.992
 1940HOH     H2 6007   3.541   1.931   0.847
 1941HOH      O 6008   0.696   1.677   0.866
 1941HOH     H1 6009   0.614   1.722   0.885
 1941HOH     H2 6010   0.672   1.608   0.804
 1942HOH      O 6011   0.083   3.994   3.102
 1942HOH     H1 6012   0.061   3.997   3.195
 1942HOH     H2 6013   0.144   4.066   3.089
 1943HOH      O 6014   2.284   3.308   0.897
 1943HOH     H1 6015   2.307   3.241   0.832
 1943HOH     H2 6016   2.286   3.390   0.848
 1944HOH      O 6017   0.649   3.611   3.883
 1944HOH     H1 6018   0.695   3.681   3.837
 1944HOH     H2 6019   0.557   3.631   3.871
 1945HOH      O 6020   3.231   3.167   0.500
 1945HOH     H1 6021   3.273   3.217   0.570
 1945HOH     H2 6022   3.289   3.093   0.485
 1946HOH      O 6023   3.551   1.096   1.006
 1946HOH     H1 6024   3.599   1.138   1.077
 1946HOH     H2 6025   3.472   1.148   0.996
 1947HOH      O 6026   2.191   0.895   3.196
 1947HOH     H1 6027   2.121   0.938   3.246
 1947HOH     H2 6028   2.223   0.963   3.137
 1948HOH      O 6029   2.079   2.795   2.885
 1948HOH     H1 6030   2.071   2.762   2.796
 1948HOH     H2 6031   2.059   2.888   2.877
 1949HOH      O 6032   3.702   2.309   2.850
 1949HOH     H1 6033   3.630   2.372   2.852
 1949HOH     H2 6034   3.712   2.280   2.940
 1950HOH      O 6035   1.189   3.700   3.251
 1950HOH     H1 6036   1.229   3.752   3.181
 1950HOH     H2 6037   1.123   3.647   3.207
 1951HOH      O 6038   1.824   0.789   3.905
 1951HOH     H1 6039   1.794   0.782   3.814
 1951HOH     H2 6040   1.785   0.713   3.948
 1952HOH      O 6041   0.871   2.040   1.518
 1952HOH     H1 6042   0.918   1.967   1.557
 1952HOH     H2 6043   0.797   1.999   1.472
 1953HOH      O 6044   3.093   1.932   2.068
 1953HOH     H1 6045   3.117   1.856   2.121
 1953HOH     H2 6046   3.013   1.905   2.022
 1954HOH      O 6047   1.332   2.544   0.979
 1954HOH     H1 6048   1.319   2.476   1.045
 1954HOH     H2 6049   1.418   2.580   0.999
 1955HOH      O 6050   1.877   2.401   2.009
 1955HOH     H1 6051   1.834   2.321   1.978
 1955HOH     H2 6052   1.818   2.472   1.982
 1956HOH      O 6053   0.028   0.904   2.080
 1956HOH     H1 6054   0.064   0.824   2.042
 1956HOH     H2 6055  -0.060   0.911   2.044
 1957HOH      O 6056   2.435   3.464   3.637
 1957HOH     H1 6057   2.470   3.490   3.552
 1957HOH     H2 6058   2.340   3.474   3.628
 1958HOH      O 6059   3.095   2.158   3.310
 1958HOH     H1 6060   3.019   2.109   3.341
 1958HOH     H2 6061   3.146   2.095   3.259
 1959HOH      O 6062   2.255   2.027   1.355
 1959HOH     H1 6063   2.234   2.001   1.265
 1959HOH     H2 6064   2.309   1.956   1.389
 1960HOH      O 6065   2.714   3.115   1.458
 1960HOH     H1 6066   2.709   3.194   1.405
 1960HOH     H2 6067   2.725   3.044   1.395
 1961HOH      O 6068   0.784   1.007   0.646
 1961HOH     H1 6069   0.745   0.997   0.733
 1961HOH     H2 6070   0.876   1.025   0.663
 1962HOH      O 6071   1.422   1.500   2.020
 1962HOH     H1 6072   1.381   1.463   2.098
 1962HOH     H2 6073   1.501   1.542   2.052
 1963HOH      O 6074   3.089   0.990   0.190
 1963HOH     H1 6075   3.057   1.023   0.273
 1963HOH     H2 6076   3.020   1.014   0.127
 1964HOH      O 6077   2.800   0.437   3.390
 1964HOH     H1 6078   2.877   0.475   3.432
 1964HOH     H2 6079   2.735   0.431   3.460
 1965HOH      O 6080   1.143   2.051   1.470
 1965HOH     H1 6081   1.050   2.069   1.485
 1965HOH     H2 6082   1.168   1.993   1.542
 1966HOH      O 6083   0.739   1.422   0.125
 1966HOH     H1 6084   0.733   1.347   0.065
 1966HOH     H2 6085   0.695   1.392   0.205
 1967HOH      O 6086   3.531   2.759   0.409
 1967HOH     H1 6087   3.483   2.676   0.405
 1967HOH     H2 6088   3.599   2.749   0.342
 1968HOH      O 6089   3.953   1.784   0.890
 1968HOH     H1 6090   3.918   1.776   0.978
 1968HOH     H2 6091   4.001   1.866   0.890
 1969HOH      O 6092   3.185   0.454   3.721
 1969HOH     H1 6093   3.268   0.481   3.680
 1969HOH     H2 6094   3.169   0.520   3.788
 1970HOH      O 6095   0.658   2.629   3.142
 1970HOH     H1 6096   0.720   2.626   3.215
 1970HOH     H2 6097   0.581   2.582   3.175
 1971HOH      O 6098   3.687   3.826   3.521
 1971HOH     H1 6099   3.757   3.761   3.528
 1971HOH     H2 6100   3.701   3.885   3.595
 1972HOH      O 6101   1.123   2.728   3.501
 1972HOH     H1 6102   1.061   2.757   3.434
 1972HOH     H2 6103   1.143   2.808   3.550
 1973HOH      O 6104   3.137   3.015   0.025
 1973HOH     H1 6105   3.192   2.954  -0.025
 1973HOH     H2 6106   3.095   2.960   0.091
 1974HOH      O 6107   4.026   3.191   0.499
 1974HOH     H1 6108   3.936   3.162   0.515
 1974HOH     H2 6109   4.047   3.247   0.574
 1975HOH      O 6110   1.153   1.948   0.591
 1975HOH     H1 6111   1.077   1.892   0.605
 1975HOH     H2 6112   1.152   2.008   0.666
 1976HOH      O 6113   0.982   0.501   2.319
 1976HOH     H1 6114   1.049   0.559   2.354
 1976HOH     H2 6115   0.911   0.505   2.382
 1977HOH      O 6116   3.794   2.746   3.841
 1977HOH     H1 6117   3.713   2.795   3.854
 1977HOH     H2 6118   3.833   2.784   3.762
 1978HOH      O 6119   1.586   2.261   2.225
 1978HOH     H1 6120   1.604   2.197   2.293
 1978HOH     H2 6121   1.503   2.301   2.251
 1979HOH      O 6122   2.044   3.622   2.706
 1979HOH     H1 6123   2.003   3.693   2.656
 1979HOH     H2 6124   2.104   3.666   2.766
 1980HOH      O 6125   3.169   0.637   3.928
 1980HOH     H1 6126   3.125   0.669   4.006
 1980HOH     H2 6127   3.250   0.688   3.924
 1981HOH      O 6128   3.799   1.906   1.574
 1981HOH     H1 6129   3.812   1.951   1.490
 1981HOH     H2 6130   3.849   1.959   1.637
 1982HOH      O 6131   2.825   1.436   1.325
 1982HOH     H1 6132   2.746   1.489   1.336
 1982HOH     H2 6133   2.802   1.373   1.257
 1983HOH      O 6134   1.675   1.214   0.194
 1983HOH     H1 6135   1.728   1.289   0.167
 1983HOH     H2 6136   1.738   1.142   0.205
 1984HOH      O 6137   0.799   3.367   0.723
 1984HOH     H1 6138   0.821   3.314   0.646
 1984HOH     H2 6139   0.710   3.339   0.746
 1985HOH      O 6140   1.074   1.693   1.340
 1985HOH     H1 6141   1.045   1.687   1.431
 1985HOH     H2 6142   1.072   1.602   1.309
 1986HOH      O 6143   0.618   2.229   1.700
 1986HOH     H1 6144   0.636   2.139   1.726
 1986HOH     H2 6145   0.653   2.283   1.770
 1987HOH      O 6146   1.381   0.786   1.891
 1987HOH     H1 6147   1.342   0.780   1.978
 1987HOH     H2 6148   1.457   0.727   1.895
 1988HOH      O 6149   0.616   2.801   0.110
 1988HOH     H1 6150   0.644   2.888   0.137
 1988HOH     H2 6151   0.689   2.744   0.136
 1989HOH      O 6152   0.171   0.776   2.318
 1989HOH     H1 6153   0.141   0.796   2.229
 1989HOH     H2 6154   0.204   0.860   2.351
 1990HOH      O 6155   3.857   2.731   0.494
 1990HOH     H1 6156   3.950   2.714   0.506
 1990HOH     H2 6157   3.837   2.695   0.408
 1991HOH      O 6158   3.073   3.722   3.600
 1991HOH     H1 6159   3.094   3.696   3.690
 1991HOH     H2 6160   3.101   3.813   3.594
 1992HOH      O 6161   3.198   3.647   1.647
 1992HOH     H1 6162   3.197   3.584   1.719
 1992HOH     H2 6163   3.228   3.729   1.687
 1993HOH      O 6164   0.191   2.945   2.536
 1993HOH     H1 6165   0.273   2.896   2.526
 1993HOH     H2 6166   0.166   2.931   2.627
 1994HOH      O 6167   3.219   1.183   3.479
 1994HOH     H1 6168   3.241   1.276   3.482
 1994HOH     H2 6169   3.296   1.141   3.442
 1995HOH      O 6170   3.687   1.180   3.415
 1995HOH     H1 6171   3.769   1.161   3.371
 1995HOH     H2 6172   3.708   1.251   3.477
 1996HOH      O 6173   3.063   0.322   2.078
 1996HOH     H1 6174   3.029   0.281   2.158
 1996HOH     H2 6175   3.154   0.293   2.073
 1997HOH      O 6176   0.190   3.426   0.212
 1997HOH     H1 6177   0.278   3.400   0.185
 1997HOH     H2 6178   0.136   3.349   0.198
 1998HOH      O 6179   1.021   1.142   2.618
 1998HOH     H1 6180   0.949   1.099   2.664
 1998HOH     H2 6181   1.062   1.073   2.566
 1999HOH      O 6182   2.708   0.745   3.804
 1999HOH     H1 6183   2.784   0.795   3.833
 1999HOH     H2 6184   2.712   0.749   3.708
 2000HOH      O 6185   1.722   2.653   1.999
 2000HOH     H1 6186   1.684   2.669   1.913
 2000HOH     H2 6187   1.649   2.625   2.053
 2001HOH      O 6188   2.681   3.519   2.035
 2001HOH     H1 6189   2.593   3.549   2.057
 2001HOH     H2 6190   2.678   3.424   2.047
 2002HOH      O 6191   1.853   0.204   3.245
 2002HOH     H1 6192   1.785   0.160   3.297
 2002HOH     H2 6193   1.816   0.290   3.227
 2003HOH      O 6194   0.656   2.506   3.562
 2003HOH     H1 6195   0.723   2.564   3.601
 2003HOH     H2 6196   0.656   2.429   3.619
 2004HOH      O 6197   1.337   1.591   1.236
 2004HOH     H1 6198   1.253   1.617   1.275
 2004HOH     H2 6199   1.398   1.659   1.262
 2005HOH      O 6200   2.126   1.296   1.752
 2005HOH     H1 6201   2.104   1.377   1.798
 2005HOH     H2 6202   2.123   1.320   1.660
 2006HOH      O 6203   1.231   3.372   1.106
 2006HOH     H1 6204   1.182   3.455   1.101
 2006HOH     H2 6205   1.177   3.310   1.057
 2007HOH      O 6206   3.541   2.617   3.382
 2007HOH     H1 6207   3.558   2.667   3.462
 2007HOH     H2 6208   3.476   2.552   3.407
 2008HOH      O 6209   3.176   0.900   0.904
 2008HOH     H1 6210   3.093   0.902   0.951
 2008HOH     H2 6211   3.243   0.911   0.972
 2009HOH      O 6212   2.836   1.965   2.561
 2009HOH     H1 6213   2.816   1.963   2.467
 2009HOH     H2 6214   2.919   1.918   2.569
 2010HOH      O 6215   1.564   3.584   3.822
 2010HOH     H1 6216   1.515   3.641   3.764
 2010HOH     H2 6217   1.592   3.511   3.766
 2011HOH      O 6218   1.730   1.669   3.742
 2011HOH     H1 6219   1.787   1.609   3.694
 2011HOH     H2 6220   1.654   1.681   3.685
 2012HOH      O 6221   2.458   3.719   1.707
 2012HOH     H1 6222   2.469   3.628   1.734
 2012HOH     H2 6223   2.477   3.718   1.613
 2013HOH      O 6224   2.909   3.619   0.697
 2013HOH     H1 6225   2.856   3.683   0.650
 2013HOH     H2 6226   2.864   3.608   0.781
 2014HOH      O 6227   0.362   2.861   0.207
 2014HOH     H1 6228   0.456   2.855   0.190
 2014HOH     H2 6229   0.321   2.831   0.126
 2015HOH      O 6230   3.603   3.994   0.558
 2015HOH     H1 6231   3.681   4.032   0.600
 2015HOH     H2 6232   3.541   3.982   0.630
 2016HOH      O 6233   2.002   2.396   0.293
 2016HOH     H1 6234   2.095   2.407   0.271
 2016HOH     H2 6235   1.976   2.318   0.245
 2017HOH      O 6236   1.227   3.049   0.818
 2017HOH     H1 6237   1.304   3.019   0.866
 2017HOH     H2 6238   1.189   3.117   0.873
 2018HOH      O 6239   3.311   2.460   0.813
 2018HOH     H1 6240   3.312   2.375   0.858
 2018HOH     H2 6241   3.268   2.442   0.729
 2019HOH      O 6242   3.752   1.534   2.357
 2019HOH     H1 6243   3.788   1.476   2.424
 2019HOH     H2 6244   3.692   1.478   2.307
 2020HOH      O 6245   3.906   3.169   1.185
 2020HOH     H1 6246   3.935   3.256   1.213
 2020HOH     H2 6247   3.831   3.187   1.128
 2021HOH      O 6248   0.830   1.976   0.445
 2021HOH     H1 6249   0.857   1.963   0.354
 2021HOH     H2 6250   0.876   1.909   0.494
 2022HOH      O 6251   0.424   0.924   1.268
 2022HOH     H1 6252   0.347   0.931   1.212
 2022HOH     H2 6253   0.488   0.878   1.214
 2023HOH      O 6254   2.816   1.494   0.971
 2023HOH     H1 6255   2.823   1.402   0.997
 2023HOH     H2 6256   2.761   1.534   1.038
 2024HOH      O 6257   3.174   3.106   1.374
 2024HOH     H1 6258   3.269   3.099   1.376
 2024HOH     H2 6259   3.157   3.198   1.351
 2025HOH      O 6260   2.081   0.796   0.549
 2025HOH     H1 6261   2.090   0.888   0.573
 2025HOH     H2 6262   2.105   0.748   0.629
 2026HOH      O 6263   0.933   3.060   3.453
 2026HOH     H1 6264   0.948   3.058   3.359
 2026HOH     H2 6265   0.953   3.150   3.479
 2027HOH      O 6266   1.910   2.752   3.447
 2027HOH     H1 6267   1.994   2.795   3.433
 2027HOH     H2 6268   1.849   2.825   3.464
 2028HOH      O 6269   0.331   1.722   1.665
 2028HOH     H1 6270   0.366   1.692   1.581
 2028HOH     H2 6271   0.297   1.642   1.707
 2029HOH      O 6272   3.224   3.310   1.190
 2029HOH     H1 6273   3.205   3.403   1.204
 2029HOH     H2 6274   3.151   3.278   1.136
 2030HOH      O 6275   2.216   0.982   1.485
 2030HOH     H1 6276   2.269   0.906   1.461
 2030HOH     H2 6277   2.266   1.057   1.453
 2031HOH      O 6278   1.130   1.702   0.904
 2031HOH     H1 6279   1.152   1.652   0.826
 2031HOH     H2 6280   1.205   1.690   0.962
 2032HOH      O 6281   2.705   1.687   0.338
 2032HOH     H1 6282   2.701   1.641   0.254
 2032HOH     H2 6283   2.620   1.672   0.378
 2033HOH      O 6284   1.830   1.496   2.438
 2033HOH     H1 6285   1.737   1.510   2.454
 2033HOH     H2 6286   1.839   1.501   2.343
 2034HOH      O 6287   3.424   1.250   2.090
 2034HOH     H1 6288   3.464   1.218   2.170
 2034HOH     H2 6289   3.432   1.177   2.028
 2035HOH      O 6290   0.424   2.614   3.630
 2035HOH     H1 6291   0.434   2.612   3.725
 2035HOH     H2 6292   0.502   2.569   3.597
 2036HOH      O 6293   1.491   0.501   0.088
 2036HOH     H1 6294   1.395   0.499   0.098
 2036HOH     H2 6295   1.523   0.441   0.155
 2037HOH      O 6296   2.538   2.492   0.706
 2037HOH     H1 6297   2.527   2.543   0.786
 2037HOH     H2 6298   2.597   2.544   0.652
 2038HOH      O 6299   3.924   2.639   1.468
 2038HOH     H1 6300   3.889   2.669   1.384
 2038HOH     H2 6301   4.018   2.654   1.461
 2039HOH      O 6302   0.689   0.326   2.007
 2039HOH     H1 6303   0.673   0.377   2.086
 2039HOH     H2 6304   0.685   0.390   1.935
 2040HOH      O 6305   2.768   0.431   1.835
 2040HOH     H1 6306   2.709   0.458   1.906
 2040HOH     H2 6307   2.775   0.336   1.846
 2041HOH      O 6308   0.242   0.373   0.463
 2041HOH     H1 6309   0.329   0.385   0.501
 2041HOH     H2 6310   0.185   0.430   0.515
 2042HOH      O 6311   2.768   2.550   1.758
 2042HOH     H1 6312   2.839   2.492   1.729
 2042HOH     H2 6313   2.783   2.562   1.852
 2043HOH      O 6314   2.881   3.487   3.593
 2043HOH     H1 6315   2.920   3.570   3.564
 2043HOH     H2 6316   2.873   3.496   3.688
 2044HOH      O 6317   3.842   2.946   1.869
 2044HOH     H1 6318   3.774   3.011   1.885
 2044HOH     H2 6319   3.803   2.886   1.805
 2045HOH      O 6320   2.719   1.357   3.121
 2045HOH     H1 6321   2.629   1.388   3.108
 2045HOH     H2 6322   2.770   1.402   3.053
 2046HOH      O 6323   3.304   0.477   2.890
 2046HOH     H1 6324   3.286   0.478   2.984
 2046HOH     H2 6325   3.218   0.480   2.848
 2047HOH      O 6326   0.649   3.791   3.444
 2047HOH     H1 6327   0.558   3.819   3.452
 2047HOH     H2 6328   0.686   3.807   3.531
 2048HOH      O 6329   1.970   3.013   2.624
 2048HOH     H1 6330   2.026   2.942   2.593
 2048HOH     H2 6331   1.999   3.030   2.713
 2049HOH      O 6332   2.628   3.176   0.318
 2049HOH     H1 6333   2.636   3.134   0.404
 2049HOH     H2 6334   2.534   3.177   0.300
 2050HOH      O 6335   0.243   1.994   1.146
 2050HOH     H1 6336   0.188   2.007   1.223
 2050HOH     H2 6337   0.257   1.900   1.141
 2051HOH      O 6338   0.482   3.360   3.804
 2051HOH     H1 6339   0.528   3.441   3.783
 2051HOH     H2 6340   0.411   3.356   3.740
 2052HOH      O 6341   2.544   2.708   3.062
 2052HOH     H1 6342   2.497   2.648   3.005
 2052HOH     H2 6343   2.595   2.652   3.121
 2053HOH      O 6344   3.482   2.148   2.194
 2053HOH     H1 6345   3.533   2.229   2.181
 2053HOH     H2 6346   3.495   2.125   2.286
 2054HOH      O 6347   2.300   1.117   3.465
 2054HOH     H1 6348   2.299   1.035   3.514
 2054HOH     H2 6349   2.393   1.140   3.460
 2055HOH      O 6350   0.890   2.072   3.327
 2055HOH     H1 6351   0.893   2.013   3.251
 2055HOH     H2 6352   0.855   2.018   3.398
 2056HOH      O 6353   3.071   3.928   0.180
 2056HOH     H1 6354   3.103   4.016   0.202
 2056HOH     H2 6355   3.128   3.869   0.230
 2057HOH      O 6356   1.879   0.839   3.046
 2057HOH     H1 6357   1.946   0.866   3.109
 2057HOH     H2 6358   1.817   0.912   3.044
 2058HOH      O 6359   2.297   3.745   3.359
 2058HOH     H1 6360   2.381   3.750   3.315
 2058HOH     H2 6361   2.268   3.836   3.365
 2059HOH      O 6362   1.484   2.461   3.833
 2059HOH     H1 6363   1.510   2.379   3.874
 2059HOH     H2 6364   1.389   2.453   3.820
 2060HOH      O 6365   0.668   0.180   1.624
 2060HOH     H1 6366   0.629   0.145   1.704
 2060HOH     H2 6367   0.625   0.264   1.611
 2061HOH      O 6368   1.413   1.510   0.980
 2061HOH     H1 6369   1.388   1.520   1.072
 2061HOH     H2 6370   1.465   1.588   0.960
 2062HOH      O 6371   4.020   2.915   0.214
 2062HOH     H1 6372   3.952   2.907   0.147
 2062HOH     H2 6373   4.073   2.835   0.203
 2063HOH      O 6374   2.564   1.605   2.473
 2063HOH     H1 6375   2.479   1.649   2.464
 2063HOH     H2 6376   2.572   1.553   2.393
 2064HOH      O 6377   0.891   0.074   1.794
 2064HOH     H1 6378   0.897  -0.012   1.752
 2064HOH     H2 6379   0.839   0.126   1.734
 2065HOH      O 6380   1.458   1.117   0.066
 2065HOH     H1 6381   1.495   1.029   0.060
 2065HOH     H2 6382   1.515   1.163   0.127
 2066HOH      O 6383   3.081   3.812   3.323
 2066HOH     H1 6384   3.043   3.836   3.239
 2066HOH     H2 6385   3.039   3.870   3.386
 2067HOH      O 6386   2.085   0.691   0.291
 2067HOH     H1 6387   2.080   0.728   0.379
 2067HOH     H2 6388   2.025   0.616   0.293
 2068HOH      O 6389   0.353   1.449   0.907
 2068HOH     H1 6390   0.346   1.456   1.003
 2068HOH     H2 6391   0.265   1.469   0.875
 2069HOH      O 6392   1.237   2.514   1.576
 2069HOH     H1 6393   1.225   2.609   1.572
 2069HOH     H2 6394   1.150   2.480   1.598
 2070HOH      O 6395   0.585   1.224   0.577
 2070HOH     H1 6396   0.657   1.169   0.608
 2070HOH     H2 6397   0.530   1.164   0.526
 2071HOH      O 6398   0.456   2.818   2.872
 2071HOH     H1 6399   0.455   2.819   2.968
 2071HOH     H2 6400   0.486   2.730   2.849
 2072HOH      O 6401   1.451   3.188   1.999
 2072HOH     H1 6402   1.491   3.141   2.072
 2072HOH     H2 6403   1.419   3.119   1.940
 2073HOH      O 6404   0.092   3.432   0.953
 2073HOH     H1 6405   0.184   3.417   0.974
 2073HOH     H2 6406   0.046   3.415   1.035
 2074HOH      O 6407   3.091   0.537   3.463
 2074HOH     H1 6408   3.164   0.570   3.411
 2074HOH     H2 6409   3.097   0.584   3.546
 2075HOH      O 6410   2.231   0.226   1.482
 2075HOH     H1 6411   2.220   0.131   1.486
 2075HOH     H2 6412   2.319   0.241   1.518
 2076HOH      O 6413   0.147   1.846   2.288
 2076HOH     H1 6414   0.206   1.805   2.225
 2076HOH     H2 6415   0.081   1.779   2.306
 2077HOH      O 6416   0.562   3.814   1.109
 2077HOH     H1 6417   0.473   3.785   1.090
 2077HOH     H2 6418   0.583   3.876   1.039
 2078HOH      O 6419   2.896   0.122   1.587
 2078HOH     H1 6420   2.932   0.152   1.671
 2078HOH     H2 6421   2.820   0.069   1.611
 2079HOH      O 6422   2.408   2.531   2.891
 2079HOH     H1 6423   2.332   2.505   2.838
 2079HOH     H2 6424   2.451   2.449   2.914
 2080HOH      O 6425   2.015   0.892   0.074
 2080HOH     H1 6426   2.020   0.811   0.125
 2080HOH     H2 6427   1.967   0.868  -0.005
 2081HOH      O 6428   2.624   0.159   3.099
 2081HOH     H1 6429   2.598   0.224   3.034
 2081HOH     H2 6430   2.713   0.133   3.073
 2082HOH      O 6431   3.214   2.464   3.961
 2082HOH     H1 6432   3.143   2.510   4.005
 2082HOH     H2 6433   3.175   2.430   3.881
 2083HOH      O 6434   1.262   2.810   0.659
 2083HOH     H1 6435   1.305   2.892   0.681
 2083HOH     H2 6436   1.267   2.805   0.564
 2084HOH      O 6437   1.537   3.024   3.812
 2084HOH     H1 6438   1.613   3.063   3.768
 2084HOH     H2 6439   1.553   2.930   3.808
 2085HOH      O 6440   2.005   1.554   3.651
 2085HOH     H1 6441   1.998   1.575   3.558
 2085HOH     H2 6442   2.033   1.636   3.692
 2086HOH      O 6443   2.441   1.612   0.282
 2086HOH     H1 6444   2.406   1.670   0.213
 2086HOH     H2 6445   2.365   1.563   0.312
 2087HOH      O 6446   1.809   0.209   3.623
 2087HOH     H1 6447   1.814   0.296   3.662
 2087HOH     H2 6448   1.820   0.149   3.697
 2088HOH      O 6449   0.049   3.124   1.846
 2088HOH     H1 6450  -0.018   3.062   1.875
 2088HOH     H2 6451   0.001   3.204   1.827
 2089HOH      O 6452   2.121   3.164   1.078
 2089HOH     H1 6453   2.052   3.214   1.035
 2089HOH     H2 6454   2.186   3.150   1.009
 2090HOH      O 6455   3.515   0.845   0.468
 2090HOH     H1 6456   3.592   0.815   0.421
 2090HOH     H2 6457   3.446   0.849   0.402
 2091HOH      O 6458   1.986   3.043   2.911
 2091HOH     H1 6459   2.058   3.103   2.926
 2091HOH     H2 6460   1.926   3.058   2.984
 2092HOH      O 6461   1.899   2.354   0.558
 2092HOH     H1 6462   1.927   2.360   0.467
 2092HOH     H2 6463   1.877   2.262   0.570
 2093HOH      O 6464   0.750   3.002   1.351
 2093HOH     H1 6465   0.773   2.983   1.260
 2093HOH     H2 6466   0.789   2.930   1.402
 2094HOH      O 6467   0.153   2.309   3.614
 2094HOH     H1 6468   0.222   2.332   3.551
 2094HOH     H2 6469   0.088   2.261   3.563
 2095HOH      O 6470   0.573   1.307   3.063
 2095HOH     H1 6471   0.596   1.278   2.975
 2095HOH     H2 6472   0.656   1.306   3.110
 2096HOH      O 6473   2.577   2.133   1.978
 2096HOH     H1 6474   2.646   2.174   2.030
 2096HOH     H2 6475   2.501   2.132   2.036
 2097HOH      O 6476   2.582   2.724   2.744
 2097HOH     H1 6477   2.650   2.753   2.805
 2097HOH     H2 6478   2.524   2.669   2.797
 2098HOH      O 6479   2.967   3.677   2.644
 2098HOH     H1 6480   3.030   3.724   2.699
 2098HOH     H2 6481   2.990   3.703   2.555
 2099HOH      O 6482   3.424   1.573   0.485
 2099HOH     H1 6483   3.492   1.526   0.437
 2099HOH     H2 6484   3.344   1.525   0.467
 2100HOH      O 6485   2.346   3.625   3.849
 2100HOH     H1 6486   2.408   3.575   3.795
 2100HOH     H2 6487   2.287   3.667   3.786
 2101HOH      O 6488   3.779   3.771   0.766
 2101HOH     H1 6489   3.708   3.712   0.741
 2101HOH     H2 6490   3.832   3.779   0.687
 2102HOH      O 6491   0.081   1.928   1.355
 2102HOH     H1 6492   0.002   1.979   1.370
 2102HOH     H2 6493   0.050   1.839   1.341
 2103HOH      O 6494   1.621   2.641   2.610
 2103HOH     H1 6495   1.587   2.651   2.699
 2103HOH     H2 6496   1.633   2.547   2.599
 2104HOH      O 6497   2.732   3.718   3.789
 2104HOH     H1 6498   2.675   3.736   3.864
 2104HOH     H2 6499   2.795   3.655   3.822
 2105HOH      O 6500   2.570   1.197   2.484
 2105HOH     H1 6501   2.598   1.250   2.409
 2105HOH     H2 6502   2.631   1.221   2.554
 2106HOH      O 6503   1.047   2.720   3.186
 2106HOH     H1 6504   1.106   2.789   3.156
 2106HOH     H2 6505   0.968   2.731   3.133
 2107HOH      O 6506   2.033   3.617   0.981
 2107HOH     H1 6507   1.977   3.548   0.946
 2107HOH     H2 6508   2.114   3.609   0.930
 2108HOH      O 6509   1.242   3.859   3.982
 2108HOH     H1 6510   1.295   3.806   4.042
 2108HOH     H2 6511   1.170   3.801   3.957
 2109HOH      O 6512   2.651   0.519   2.073
 2109HOH     H1 6513   2.573   0.521   2.129
 2109HOH     H2 6514   2.667   0.611   2.051
 2110HOH      O 6515   3.897   1.304   2.839
 2110HOH     H1 6516   3.939   1.257   2.766
 2110HOH     H2 6517   3.943   1.388   2.843
 2111HOH      O 6518   0.152   1.389   3.040
 2111HOH     H1 6519   0.126   1.320   3.101
 2111HOH     H2 6520   0.227   1.431   3.083
   4.02731   4.02731   4.02731   0.00000   0.00000   0.00000   0.00000   0.00000   0.00000
