Generated with MDTraj, t= 27902.0
 6520
    1MOL     C1    1   0.882   3.555   1.131
    1MOL     C2    2   0.776   3.632   1.089
    1MOL     C3    3   0.690   3.584   0.989
    1MOL     C4    4   0.718   3.468   0.928
    1MOL     C5    5   0.819   3.386   0.972
    1MOL     C6    6   0.907   3.430   1.071
    1MOL     C7    7   0.581   3.668   0.941
    1MOL     N1    8   0.490   3.727   0.906
    1MOL     C8    9   1.035   3.353   1.090
    1MOL     O1   10   1.080   3.282   0.998
    1MOL     O2   11   1.096   3.359   1.196
    1MOL     H1   12   0.942   3.594   1.213
    1MOL     H2   13   0.752   3.729   1.132
    1MOL     H3   14   0.653   3.421   0.855
    1MOL     H4   15   0.849   3.298   0.915
    2OCB     C1   16   3.430   3.659   0.857
    2OCB     C2   17   3.474   3.473   1.058
    2OCB     C3   18   3.376   3.677   0.987
    2OCB     C4   19   3.516   3.547   0.836
    2OCB     C5   20   3.531   3.450   0.935
    2OCB     C6   21   3.395   3.582   1.087
    2OCB     O1   22   3.515   3.386   1.161
    2OCB     C7   23   3.326   3.597   1.227
    2OCB     C8   24   3.598   3.443   1.261
    2OCB     O2   25   3.537   3.507   1.382
    2OCB     C9   26   3.516   3.642   1.382
    2OCB    C10   27   3.413   3.693   1.302
    2OCB    C11   28   3.409   3.837   1.293
    2OCB    C12   29   3.593   3.720   1.463
    2OCB    C13   30   3.488   3.917   1.375
    2OCB    C14   31   3.579   3.856   1.463
    2OCB     O3   32   3.682   3.924   1.523
    2OCB    C15   33   3.493   4.070   1.361
    2OCB    C16   34   3.591   4.122   1.258
    2OCB    C17   35   3.725   4.141   1.286
    2OCB    C18   36   3.792   3.969   1.438
    2OCB     O4   37   3.781   4.109   1.409
    2OCB     O5   38   3.585   3.518   0.719
    2OCB    C19   39   3.402   3.756   0.746
    2OCB    C20   40   3.513   3.868   0.738
    2OCB     O6   41   3.639   3.723   0.590
    2OCB    C21   42   3.623   3.841   0.654
    2OCB    C22   43   3.815   4.177   1.185
    2OCB    C23   44   3.776   4.201   1.056
    2OCB    C24   45   3.725   3.935   0.645
    2OCB    C25   46   3.717   4.041   0.734
    2OCB     O7   47   3.879   4.207   0.963
    2OCB     O8   48   3.833   4.112   0.749
    2OCB    C26   49   3.909   4.105   0.871
    2OCB    C27   50   3.495   3.986   0.809
    2OCB    C28   51   3.597   4.083   0.800
    2OCB    C29   52   3.549   4.151   1.128
    2OCB    C30   53   3.587   4.212   0.883
    2OCB    C31   54   3.639   4.197   1.029
    2OCB    C32   55   3.688   3.611   0.675
    2OCB    C33   56   3.356   4.134   1.351
    2OCB    C34   57   3.270   4.107   1.480
    2OCB    C35   58   3.162   4.214   1.502
    2OCB     O9   59   3.193   4.327   1.533
    2OCB    C36   60   3.180   3.639   1.210
    2OCB    C37   61   3.104   3.671   1.340
    2OCB    C38   62   2.959   3.690   1.340
    2OCB    O10   63   2.889   3.616   1.412
    2OCB    C39   64   3.263   3.814   0.743
    2OCB    C40   65   3.143   3.713   0.765
    2OCB    C41   66   3.015   3.786   0.791
    2OCB    O11   67   3.005   3.881   0.858
    2OCB    C42   68   3.455   4.291   0.864
    2OCB    C43   69   3.460   4.431   0.925
    2OCB    C44   70   3.340   4.513   0.875
    2OCB    O12   71   3.229   4.459   0.851
    2OCB    C45   72   3.707   3.344   1.299
    2OCB    C46   73   3.927   3.183   1.363
    2OCB    C47   74   3.755   3.347   1.428
    2OCB    C48   75   3.764   3.267   1.202
    2OCB    C49   76   3.870   3.183   1.231
    2OCB    C50   77   3.863   3.261   1.458
    2OCB    C51   78   3.803   3.528   0.614
    2OCB    C52   79   4.017   3.375   0.516
    2OCB    C53   80   3.891   3.590   0.527
    2OCB    C54   81   3.823   3.394   0.650
    2OCB    C55   82   3.931   3.311   0.604
    2OCB    C56   83   3.996   3.512   0.478
    2OCB    C57   84   4.060   4.090   0.845
    2OCB    C58   85   4.340   4.026   0.821
    2OCB    C59   86   4.156   4.122   0.941
    2OCB    C60   87   4.115   4.040   0.726
    2OCB    C61   88   4.248   4.002   0.715
    2OCB    C62   89   4.292   4.086   0.936
    2OCB    C63   90   3.924   3.941   1.516
    2OCB    C64   91   4.167   3.893   1.639
    2OCB    C65   92   4.034   4.012   1.479
    2OCB    C66   93   3.931   3.837   1.607
    2OCB    C67   94   4.059   3.810   1.666
    2OCB    C68   95   4.161   3.985   1.539
    2OCB    O13   96   3.957   3.182   0.640
    2OCB    O14   97   4.298   3.952   0.591
    2OCB    O15   98   4.379   4.119   1.031
    2OCB    O16   99   3.933   3.103   1.130
    2OCB    O17  100   3.924   3.263   1.584
    2OCB    O18  101   4.272   4.048   1.501
    2OCB    O19  102   4.076   3.698   1.749
    2OCB    C69  103   4.213   3.900   0.496
    2OCB    C70  104   4.056   3.788   0.293
    2OCB    C71  105   4.194   3.759   0.488
    2OCB    C72  106   4.147   3.987   0.408
    2OCB    C73  107   4.070   3.931   0.304
    2OCB    C74  108   4.109   3.706   0.394
    2OCB    O20  109   4.088   3.573   0.394
    2OCB    C75  110   3.889   3.090   1.000
    2OCB    C76  111   3.772   3.078   0.739
    2OCB    C77  112   3.760   3.042   0.977
    2OCB    C78  113   3.953   3.145   0.884
    2OCB    C79  114   3.894   3.135   0.756
    2OCB    C80  115   3.708   3.023   0.849
    2OCB    C81  116   4.345   4.162   1.155
    2OCB    C82  117   4.282   4.271   1.407
    2OCB    C83  118   4.335   4.298   1.166
    2OCB    C84  119   4.320   4.076   1.266
    2OCB    C85  120   4.288   4.130   1.387
    2OCB    C86  121   4.313   4.354   1.298
    2OCB    C87  122   4.330   4.507   1.308
    2OCB    O21  123   4.263   4.570   1.384
    2OCB    C88  124   3.709   3.478   1.972
    2OCB    O22  125   3.605   3.412   1.962
    2OCB    C89  126   3.572   2.964   0.832
    2OCB    O23  127   3.521   2.931   0.725
    2OCB    O24  128   3.044   4.189   1.502
    2OCB    O25  129   3.355   4.634   0.859
    2OCB    O26  130   2.914   3.737   0.744
    2OCB    C90  131   4.012   4.022   0.194
    2OCB    O27  132   3.985   3.961   0.088
    2OCB    O28  133   3.717   3.551   2.070
    2OCB    O29  134   4.398   4.556   1.226
    2OCB    O30  135   4.015   4.141   0.193
    2OCB    O31  136   3.499   2.943   0.930
    2OCB    O32  137   2.911   3.772   1.269
    2OCB    C91  138   3.924   3.371   1.677
    2OCB    C92  139   3.903   3.584   1.855
    2OCB    C93  140   4.021   3.473   1.670
    2OCB    C94  141   3.832   3.370   1.777
    2OCB    C95  142   3.810   3.480   1.863
    2OCB    C96  143   3.995   3.591   1.751
    2OCB    C97  144   4.121   3.480   1.559
    2OCB    C98  145   4.081   3.224   0.896
    2OCB    C99  146   4.274   3.666   0.579
    2OCB      C  147   4.327   3.926   1.249
    2OCB     H1  148   3.320   3.769   1.001
    2OCB     H2  149   3.586   3.359   0.912
    2OCB     H3  150   3.321   3.499   1.275
    2OCB     H4  151   3.655   3.527   1.218
    2OCB     H5  152   3.333   3.879   1.228
    2OCB     H6  153   3.669   3.675   1.526
    2OCB     H7  154   3.531   4.115   1.453
    2OCB     H8  155   3.793   3.900   1.352
    2OCB     H9  156   3.397   3.686   0.662
    2OCB    H10  157   3.922   4.168   1.199
    2OCB    H11  158   3.816   3.908   0.590
    2OCB    H12  159   3.885   4.010   0.922
    2OCB    H13  160   3.406   4.010   0.867
    2OCB    H14  161   3.447   4.134   1.095
    2OCB    H15  162   3.658   4.276   0.829
    2OCB    H16  163   3.734   3.660   0.762
    2OCB    H17  164   3.358   4.239   1.322
    2OCB    H18  165   3.302   4.082   1.272
    2OCB    H19  166   3.221   4.012   1.459
    2OCB    H20  167   3.324   4.078   1.569
    2OCB    H21  168   3.128   3.554   1.164
    2OCB    H22  169   3.174   3.728   1.147
    2OCB    H23  170   3.120   3.586   1.408
    2OCB    H24  171   3.145   3.755   1.397
    2OCB    H25  172   3.246   3.889   0.821
    2OCB    H26  173   3.241   3.864   0.648
    2OCB    H27  174   3.131   3.653   0.675
    2OCB    H28  175   3.161   3.648   0.851
    2OCB    H29  176   3.435   4.307   0.758
    2OCB    H30  177   3.370   4.235   0.904
    2OCB    H31  178   3.466   4.413   1.033
    2OCB    H32  179   3.552   4.484   0.901
    2OCB    H33  180   4.016   3.124   1.383
    2OCB    H34  181   3.711   3.417   1.499
    2OCB    H35  182   3.731   3.274   1.099
    2OCB    H36  183   4.111   3.326   0.494
    2OCB    H37  184   3.878   3.694   0.501
    2OCB    H38  185   3.748   3.345   0.711
    2OCB    H39  186   4.447   4.006   0.817
    2OCB    H40  187   4.119   4.160   1.036
    2OCB    H41  188   4.053   4.028   0.638
    2OCB    H42  189   4.260   3.859   1.684
    2OCB    H43  190   4.015   4.072   1.390
    2OCB    H44  191   3.843   3.779   1.634
    2OCB    H45  192   3.995   3.743   0.215
    2OCB    H46  193   4.167   4.093   0.416
    2OCB    H47  194   3.721   3.077   0.644
    2OCB    H48  195   3.707   2.994   1.059
    2OCB    H49  196   4.257   4.313   1.504
    2OCB    H50  197   4.356   4.359   1.078
    2OCB    H51  198   3.899   3.670   1.922
    2OCB    H52  199   3.757   3.291   1.783
    2OCB    H53  200   4.203   3.408   1.567
    2OCB    H54  201   4.070   3.449   1.468
    2OCB    H55  202   4.164   3.580   1.545
    2OCB    H56  203   4.147   3.205   0.812
    2OCB    H57  204   4.051   3.328   0.911
    2OCB    H58  205   4.141   3.195   0.983
    2OCB    H59  206   4.364   3.716   0.614
    2OCB    H60  207   4.217   3.643   0.669
    2OCB    H61  208   4.314   3.580   0.525
    2OCB    H62  209   4.274   3.872   1.328
    2OCB    H63  210   4.284   3.879   1.160
    2OCB    H64  211   4.432   3.901   1.261
    3Na+    Na+  212   2.781   0.315   0.334
    4Na+    Na+  213   3.055   0.852   3.080
    5Na+    Na+  214   1.988   1.042   0.917
    6Na+    Na+  215   0.986   0.248   0.105
    7Na+    Na+  216   2.771   3.784   0.563
    8Na+    Na+  217   1.827   3.814   1.275
    9Na+    Na+  218   3.131   0.580   2.256
   10Na+    Na+  219   1.406   3.032   3.279
   11Na+    Na+  220   2.981   0.401   1.425
   12HOH      O  221   2.181   3.512   2.402
   12HOH     H1  222   2.162   3.476   2.315
   12HOH     H2  223   2.111   3.478   2.458
   13HOH      O  224   3.906   2.752   3.397
   13HOH     H1  225   3.968   2.719   3.462
   13HOH     H2  226   3.833   2.691   3.399
   14HOH      O  227   0.383   1.557   2.812
   14HOH     H1  228   0.288   1.565   2.805
   14HOH     H2  229   0.398   1.464   2.827
   15HOH      O  230   2.950   3.553   3.929
   15HOH     H1  231   2.941   3.488   3.860
   15HOH     H2  232   3.042   3.581   3.923
   16HOH      O  233   2.913   0.907   1.228
   16HOH     H1  234   2.964   0.843   1.178
   16HOH     H2  235   2.925   0.989   1.180
   17HOH      O  236   2.455   1.360   3.032
   17HOH     H1  237   2.473   1.270   3.005
   17HOH     H2  238   2.363   1.373   3.008
   18HOH      O  239   2.680   2.338   2.792
   18HOH     H1  240   2.621   2.375   2.857
   18HOH     H2  241   2.705   2.252   2.827
   19HOH      O  242   0.266   1.535   0.545
   19HOH     H1  243   0.268   1.511   0.638
   19HOH     H2  244   0.283   1.630   0.545
   20HOH      O  245  -0.013   3.729   0.892
   20HOH     H1  246   0.065   3.693   0.934
   20HOH     H2  247   0.003   3.824   0.889
   21HOH      O  248   1.120   1.210   0.237
   21HOH     H1  249   1.073   1.273   0.182
   21HOH     H2  250   1.061   1.135   0.243
   22HOH      O  251   1.455   0.802   2.541
   22HOH     H1  252   1.432   0.834   2.629
   22HOH     H2  253   1.516   0.867   2.507
   23HOH      O  254   3.251   2.646   0.853
   23HOH     H1  255   3.226   2.732   0.886
   23HOH     H2  256   3.276   2.661   0.762
   24HOH      O  257   3.048   2.570   2.787
   24HOH     H1  258   2.989   2.506   2.746
   24HOH     H2  259   3.036   2.556   2.881
   25HOH      O  260   0.890   2.792   2.127
   25HOH     H1  261   0.859   2.707   2.097
   25HOH     H2  262   0.908   2.780   2.220
   26HOH      O  263   1.278   3.033   1.037
   26HOH     H1  264   1.221   2.964   1.003
   26HOH     H2  265   1.221   3.108   1.048
   27HOH      O  266   0.385   2.469   3.026
   27HOH     H1  267   0.380   2.534   3.096
   27HOH     H2  268   0.295   2.440   3.013
   28HOH      O  269   1.267   2.895   0.508
   28HOH     H1  270   1.225   2.980   0.520
   28HOH     H2  271   1.200   2.831   0.534
   29HOH      O  272   0.960   0.491   2.131
   29HOH     H1  273   0.979   0.525   2.044
   29HOH     H2  274   0.961   0.396   2.120
   30HOH      O  275   2.958   2.707   0.189
   30HOH     H1  276   3.000   2.624   0.168
   30HOH     H2  277   2.945   2.704   0.283
   31HOH      O  278   1.115   1.550   2.086
   31HOH     H1  279   1.030   1.585   2.112
   31HOH     H2  280   1.156   1.620   2.037
   32HOH      O  281   3.094   3.770   2.221
   32HOH     H1  282   3.175   3.819   2.208
   32HOH     H2  283   3.091   3.710   2.147
   33HOH      O  284   3.708   3.646   0.276
   33HOH     H1  285   3.670   3.567   0.314
   33HOH     H2  286   3.745   3.617   0.193
   34HOH      O  287   0.196   2.748   1.193
   34HOH     H1  288   0.116   2.786   1.157
   34HOH     H2  289   0.266   2.807   1.164
   35HOH      O  290   2.349   3.534   0.707
   35HOH     H1  291   2.293   3.457   0.708
   35HOH     H2  292   2.312   3.590   0.639
   36HOH      O  293   1.913   0.431   1.325
   36HOH     H1  294   1.954   0.391   1.402
   36HOH     H2  295   1.830   0.384   1.315
   37HOH      O  296   0.214   3.956   2.605
   37HOH     H1  297   0.141   3.952   2.544
   37HOH     H2  298   0.245   4.047   2.599
   38HOH      O  299   0.971   1.564   0.040
   38HOH     H1  300   0.940   1.477   0.065
   38HOH     H2  301   0.915   1.624   0.089
   39HOH      O  302   1.404   1.868   0.990
   39HOH     H1  303   1.380   1.805   0.922
   39HOH     H2  304   1.361   1.836   1.069
   40HOH      O  305   1.394   2.281   3.222
   40HOH     H1  306   1.404   2.372   3.194
   40HOH     H2  307   1.369   2.234   3.143
   41HOH      O  308   1.914   0.004   0.082
   41HOH     H1  309   2.006   0.025   0.099
   41HOH     H2  310   1.905   0.014  -0.012
   42HOH      O  311   0.499   3.504   2.624
   42HOH     H1  312   0.500   3.565   2.550
   42HOH     H2  313   0.411   3.467   2.624
   43HOH      O  314   3.793   2.129   3.925
   43HOH     H1  315   3.839   2.154   3.846
   43HOH     H2  316   3.746   2.049   3.902
   44HOH      O  317   2.719   3.381   2.881
   44HOH     H1  318   2.682   3.447   2.940
   44HOH     H2  319   2.715   3.423   2.795
   45HOH      O  320   0.648   2.242   2.983
   45HOH     H1  321   0.646   2.337   2.968
   45HOH     H2  322   0.732   2.227   3.025
   46HOH      O  323   3.824   2.258   0.957
   46HOH     H1  324   3.748   2.301   0.996
   46HOH     H2  325   3.844   2.312   0.880
   47HOH      O  326   3.754   1.746   2.392
   47HOH     H1  327   3.846   1.773   2.397
   47HOH     H2  328   3.746   1.675   2.456
   48HOH      O  329   3.149   3.187   3.763
   48HOH     H1  330   3.125   3.220   3.850
   48HOH     H2  331   3.234   3.226   3.745
   49HOH      O  332   2.182   1.220   2.418
   49HOH     H1  333   2.276   1.212   2.435
   49HOH     H2  334   2.157   1.303   2.458
   50HOH      O  335   1.292   0.722   3.449
   50HOH     H1  336   1.371   0.699   3.498
   50HOH     H2  337   1.264   0.641   3.407
   51HOH      O  338   3.477   0.954   2.915
   51HOH     H1  339   3.390   0.984   2.942
   51HOH     H2  340   3.469   0.860   2.907
   52HOH      O  341   1.501   3.163   3.088
   52HOH     H1  342   1.543   3.108   3.022
   52HOH     H2  343   1.432   3.209   3.039
   53HOH      O  344   3.751   2.042   2.679
   53HOH     H1  345   3.845   2.021   2.686
   53HOH     H2  346   3.743   2.129   2.717
   54HOH      O  347   2.756   2.039   0.894
   54HOH     H1  348   2.802   2.105   0.843
   54HOH     H2  349   2.812   1.961   0.890
   55HOH      O  350   3.325   2.881   3.737
   55HOH     H1  351   3.386   2.914   3.670
   55HOH     H2  352   3.368   2.903   3.820
   56HOH      O  353   1.200   0.985   0.935
   56HOH     H1  354   1.104   0.984   0.940
   56HOH     H2  355   1.219   0.986   0.842
   57HOH      O  356   3.746   0.649   1.922
   57HOH     H1  357   3.839   0.629   1.918
   57HOH     H2  358   3.740   0.739   1.888
   58HOH      O  359   2.598   1.759   0.231
   58HOH     H1  360   2.554   1.838   0.262
   58HOH     H2  361   2.612   1.706   0.310
   59HOH      O  362   1.478  -0.007   3.008
   59HOH     H1  363   1.489   0.054   3.081
   59HOH     H2  364   1.408   0.031   2.955
   60HOH      O  365   1.694   3.002   2.079
   60HOH     H1  366   1.753   2.929   2.060
   60HOH     H2  367   1.634   3.004   2.004
   61HOH      O  368   2.835   1.177   1.230
   61HOH     H1  369   2.801   1.178   1.320
   61HOH     H2  370   2.766   1.135   1.179
   62HOH      O  371   3.056   1.704   2.943
   62HOH     H1  372   3.074   1.795   2.920
   62HOH     H2  373   2.961   1.695   2.930
   63HOH      O  374   4.027   2.373   1.542
   63HOH     H1  375   3.933   2.355   1.543
   63HOH     H2  376   4.037   2.446   1.481
   64HOH      O  377   2.561   2.999   0.089
   64HOH     H1  378   2.489   2.944   0.057
   64HOH     H2  379   2.622   2.937   0.129
   65HOH      O  380   3.522   3.150   1.528
   65HOH     H1  381   3.528   3.235   1.570
   65HOH     H2  382   3.470   3.097   1.588
   66HOH      O  383   1.813   3.158   2.236
   66HOH     H1  384   1.800   3.246   2.200
   66HOH     H2  385   1.766   3.100   2.176
   67HOH      O  386   2.251   2.013   2.495
   67HOH     H1  387   2.257   1.952   2.421
   67HOH     H2  388   2.191   2.082   2.465
   68HOH      O  389   3.985   3.176   2.761
   68HOH     H1  390   3.909   3.135   2.802
   68HOH     H2  391   3.955   3.204   2.675
   69HOH      O  392   0.900   2.107   0.251
   69HOH     H1  393   0.886   2.119   0.157
   69HOH     H2  394   0.820   2.141   0.291
   70HOH      O  395   1.773   3.754   0.982
   70HOH     H1  396   1.830   3.690   0.940
   70HOH     H2  397   1.718   3.787   0.911
   71HOH      O  398   2.414   2.390   1.013
   71HOH     H1  399   2.465   2.387   0.932
   71HOH     H2  400   2.323   2.380   0.984
   72HOH      O  401   3.075   0.506   2.027
   72HOH     H1  402   2.988   0.465   2.024
   72HOH     H2  403   3.132   0.444   1.982
   73HOH      O  404   1.300   1.049   2.714
   73HOH     H1  405   1.297   1.121   2.652
   73HOH     H2  406   1.209   1.037   2.742
   74HOH      O  407   2.591   2.173   2.277
   74HOH     H1  408   2.672   2.200   2.319
   74HOH     H2  409   2.610   2.175   2.183
   75HOH      O  410   2.134   3.616   2.906
   75HOH     H1  411   2.114   3.644   2.816
   75HOH     H2  412   2.087   3.679   2.961
   76HOH      O  413   2.097   0.630   0.719
   76HOH     H1  414   2.090   0.544   0.761
   76HOH     H2  415   2.130   0.611   0.631
   77HOH      O  416   1.716   2.414   3.974
   77HOH     H1  417   1.706   2.497   3.928
   77HOH     H2  418   1.795   2.424   4.027
   78HOH      O  419   3.498   2.964   3.946
   78HOH     H1  420   3.507   3.008   4.030
   78HOH     H2  421   3.557   3.011   3.887
   79HOH      O  422   2.381   2.888   1.231
   79HOH     H1  423   2.332   2.924   1.305
   79HOH     H2  424   2.377   2.793   1.243
   80HOH      O  425   2.814   2.631   1.058
   80HOH     H1  426   2.884   2.605   1.118
   80HOH     H2  427   2.804   2.556   0.999
   81HOH      O  428   1.986   2.496   2.435
   81HOH     H1  429   1.991   2.590   2.455
   81HOH     H2  430   1.958   2.492   2.344
   82HOH      O  431   2.127   1.926   1.505
   82HOH     H1  432   2.105   2.018   1.491
   82HOH     H2  433   2.045   1.879   1.489
   83HOH      O  434   2.528   1.600   0.480
   83HOH     H1  435   2.551   1.646   0.560
   83HOH     H2  436   2.506   1.511   0.508
   84HOH      O  437   2.719   0.479   2.625
   84HOH     H1  438   2.668   0.416   2.676
   84HOH     H2  439   2.697   0.460   2.534
   85HOH      O  440   1.685   0.536   1.944
   85HOH     H1  441   1.688   0.595   1.868
   85HOH     H2  442   1.776   0.508   1.955
   86HOH      O  443   1.765   2.516   1.029
   86HOH     H1  444   1.748   2.609   1.043
   86HOH     H2  445   1.739   2.474   1.111
   87HOH      O  446   2.881   3.898   2.326
   87HOH     H1  447   2.821   3.828   2.354
   87HOH     H2  448   2.951   3.852   2.279
   88HOH      O  449   3.599   1.956   2.476
   88HOH     H1  450   3.649   1.882   2.442
   88HOH     H2  451   3.634   1.970   2.564
   89HOH      O  452   2.363   0.284   2.407
   89HOH     H1  453   2.407   0.361   2.442
   89HOH     H2  454   2.287   0.318   2.361
   90HOH      O  455   3.222   3.139   0.511
   90HOH     H1  456   3.135   3.178   0.520
   90HOH     H2  457   3.266   3.162   0.593
   91HOH      O  458   3.695   2.733   0.564
   91HOH     H1  459   3.644   2.803   0.524
   91HOH     H2  460   3.638   2.697   0.632
   92HOH      O  461   0.808   2.096   3.972
   92HOH     H1  462   0.730   2.136   3.933
   92HOH     H2  463   0.804   2.005   3.944
   93HOH      O  464   2.917   3.383   1.523
   93HOH     H1  465   2.985   3.327   1.486
   93HOH     H2  466   2.920   3.463   1.470
   94HOH      O  467   0.821   3.830   0.151
   94HOH     H1  468   0.806   3.842   0.057
   94HOH     H2  469   0.915   3.813   0.158
   95HOH      O  470   0.794   2.980   0.727
   95HOH     H1  471   0.863   3.015   0.783
   95HOH     H2  472   0.738   2.930   0.787
   96HOH      O  473   1.437   3.759   3.134
   96HOH     H1  474   1.494   3.771   3.210
   96HOH     H2  475   1.432   3.845   3.094
   97HOH      O  476   1.798   2.911   3.512
   97HOH     H1  477   1.757   2.866   3.586
   97HOH     H2  478   1.884   2.936   3.543
   98HOH      O  479   0.408   1.209   0.720
   98HOH     H1  480   0.463   1.222   0.642
   98HOH     H2  481   0.376   1.297   0.741
   99HOH      O  482   1.275   2.120   3.006
   99HOH     H1  483   1.219   2.047   3.031
   99HOH     H2  484   1.232   2.158   2.929
  100HOH      O  485   2.727   0.619   2.100
  100HOH     H1  486   2.647   0.583   2.063
  100HOH     H2  487   2.761   0.677   2.031
  101HOH      O  488   3.746   1.966   1.615
  101HOH     H1  489   3.690   2.042   1.629
  101HOH     H2  490   3.732   1.911   1.691
  102HOH      O  491   1.770   0.759   1.145
  102HOH     H1  492   1.821   0.730   1.220
  102HOH     H2  493   1.717   0.682   1.121
  103HOH      O  494   2.169   1.347   3.021
  103HOH     H1  495   2.093   1.328   2.966
  103HOH     H2  496   2.131   1.365   3.108
  104HOH      O  497   0.009   0.464   3.723
  104HOH     H1  498   0.032   0.371   3.724
  104HOH     H2  499  -0.040   0.477   3.804
  105HOH      O  500   0.892   3.073   1.233
  105HOH     H1  501   0.944   3.113   1.163
  105HOH     H2  502   0.805   3.113   1.223
  106HOH      O  503   2.893   0.357   3.939
  106HOH     H1  504   2.941   0.281   3.906
  106HOH     H2  505   2.862   0.330   4.026
  107HOH      O  506   1.889   2.170   1.733
  107HOH     H1  507   1.914   2.245   1.679
  107HOH     H2  508   1.801   2.147   1.704
  108HOH      O  509   0.929   2.281   2.080
  108HOH     H1  510   0.856   2.267   2.020
  108HOH     H2  511   0.903   2.234   2.159
  109HOH      O  512   3.005   3.235   0.025
  109HOH     H1  513   2.982   3.142   0.023
  109HOH     H2  514   2.922   3.281   0.011
  110HOH      O  515   3.086   3.654   1.781
  110HOH     H1  516   3.026   3.681   1.711
  110HOH     H2  517   3.136   3.582   1.742
  111HOH      O  518   0.855   1.226   0.401
  111HOH     H1  519   0.765   1.205   0.375
  111HOH     H2  520   0.890   1.275   0.326
  112HOH      O  521   1.647   2.179   3.877
  112HOH     H1  522   1.677   2.223   3.797
  112HOH     H2  523   1.673   2.238   3.948
  113HOH      O  524   2.077   3.663   3.841
  113HOH     H1  525   2.086   3.619   3.756
  113HOH     H2  526   2.055   3.753   3.819
  114HOH      O  527   3.340   2.775   2.125
  114HOH     H1  528   3.309   2.852   2.172
  114HOH     H2  529   3.267   2.713   2.127
  115HOH      O  530   3.350   3.001   0.315
  115HOH     H1  531   3.285   2.968   0.253
  115HOH     H2  532   3.298   3.040   0.386
  116HOH      O  533   2.239   0.863   2.012
  116HOH     H1  534   2.202   0.947   1.983
  116HOH     H2  535   2.330   0.883   2.033
  117HOH      O  536   3.824   2.297   3.287
  117HOH     H1  537   3.858   2.214   3.254
  117HOH     H2  538   3.839   2.294   3.382
  118HOH      O  539   2.731   0.553   1.779
  118HOH     H1  540   2.650   0.521   1.739
  118HOH     H2  541   2.722   0.649   1.778
  119HOH      O  542   1.188   2.575   3.486
  119HOH     H1  543   1.177   2.620   3.403
  119HOH     H2  544   1.170   2.642   3.552
  120HOH      O  545   3.370   2.011   1.321
  120HOH     H1  546   3.412   2.096   1.304
  120HOH     H2  547   3.443   1.950   1.332
  121HOH      O  548   2.845   1.145   2.735
  121HOH     H1  549   2.864   1.189   2.818
  121HOH     H2  550   2.779   1.079   2.757
  122HOH      O  551   1.582   3.444   2.603
  122HOH     H1  552   1.509   3.444   2.542
  122HOH     H2  553   1.577   3.529   2.647
  123HOH      O  554   3.609   2.261   2.800
  123HOH     H1  555   3.639   2.276   2.890
  123HOH     H2  556   3.633   2.341   2.754
  124HOH      O  557   3.776   2.790   2.343
  124HOH     H1  558   3.846   2.847   2.311
  124HOH     H2  559   3.698   2.818   2.294
  125HOH      O  560   3.870   2.654   4.003
  125HOH     H1  561   3.803   2.714   4.036
  125HOH     H2  562   3.823   2.600   3.939
  126HOH      O  563   2.542   2.796   2.127
  126HOH     H1  564   2.460   2.779   2.173
  126HOH     H2  565   2.609   2.793   2.196
  127HOH      O  566   0.670   0.141   2.987
  127HOH     H1  567   0.625   0.063   2.954
  127HOH     H2  568   0.746   0.106   3.033
  128HOH      O  569   3.091   1.426   0.049
  128HOH     H1  570   3.031   1.442  -0.024
  128HOH     H2  571   3.063   1.488   0.116
  129HOH      O  572   1.851   0.767   2.568
  129HOH     H1  573   1.787   0.817   2.518
  129HOH     H2  574   1.835   0.676   2.543
  130HOH      O  575   1.301   3.780   3.469
  130HOH     H1  576   1.393   3.775   3.444
  130HOH     H2  577   1.266   3.854   3.418
  131HOH      O  578   0.303   2.190   0.172
  131HOH     H1  579   0.338   2.110   0.133
  131HOH     H2  580   0.361   2.259   0.139
  132HOH      O  581   0.888   1.553   1.915
  132HOH     H1  582   0.930   1.639   1.910
  132HOH     H2  583   0.954   1.492   1.880
  133HOH      O  584   2.047   3.825   1.185
  133HOH     H1  585   2.130   3.799   1.225
  133HOH     H2  586   2.072   3.885   1.115
  134HOH      O  587   0.904   0.783   3.355
  134HOH     H1  588   0.856   0.847   3.302
  134HOH     H2  589   0.870   0.698   3.328
  135HOH      O  590   1.650   3.621   3.410
  135HOH     H1  591   1.612   3.684   3.471
  135HOH     H2  592   1.589   3.548   3.410
  136HOH      O  593   3.173   0.176   0.303
  136HOH     H1  594   3.243   0.225   0.259
  136HOH     H2  595   3.217   0.101   0.342
  137HOH      O  596   0.374   3.910   3.170
  137HOH     H1  597   0.325   3.886   3.249
  137HOH     H2  598   0.399   3.826   3.131
  138HOH      O  599   0.608   0.248   1.307
  138HOH     H1  600   0.636   0.224   1.218
  138HOH     H2  601   0.519   0.214   1.313
  139HOH      O  602   0.285   1.828   2.257
  139HOH     H1  603   0.280   1.899   2.194
  139HOH     H2  604   0.332   1.758   2.211
  140HOH      O  605   3.160   2.887   0.142
  140HOH     H1  606   3.080   2.846   0.175
  140HOH     H2  607   3.130   2.966   0.098
  141HOH      O  608   2.055   2.330   1.903
  141HOH     H1  609   2.117   2.377   1.847
  141HOH     H2  610   2.003   2.278   1.841
  142HOH      O  611   1.806   0.097   2.198
  142HOH     H1  612   1.743   0.126   2.133
  142HOH     H2  613   1.812   0.002   2.185
  143HOH      O  614   2.322   2.683   3.473
  143HOH     H1  615   2.393   2.740   3.442
  143HOH     H2  616   2.346   2.661   3.563
  144HOH      O  617   1.570   3.669   2.763
  144HOH     H1  618   1.642   3.707   2.813
  144HOH     H2  619   1.518   3.622   2.828
  145HOH      O  620   1.482   3.472   2.049
  145HOH     H1  621   1.440   3.409   1.990
  145HOH     H2  622   1.575   3.454   2.040
  146HOH      O  623   1.908   3.764   3.478
  146HOH     H1  624   1.825   3.721   3.458
  146HOH     H2  625   1.958   3.699   3.527
  147HOH      O  626   1.350   0.081   3.450
  147HOH     H1  627   1.289   0.061   3.379
  147HOH     H2  628   1.394   0.161   3.421
  148HOH      O  629   3.915   1.199   1.086
  148HOH     H1  630   3.971   1.198   1.164
  148HOH     H2  631   3.912   1.108   1.058
  149HOH      O  632   0.871   0.146   3.223
  149HOH     H1  633   0.828   0.069   3.260
  149HOH     H2  634   0.962   0.120   3.211
  150HOH      O  635   1.999   3.958   0.702
  150HOH     H1  636   1.930   3.902   0.666
  150HOH     H2  637   2.020   4.019   0.632
  151HOH      O  638   2.663   3.334   1.533
  151HOH     H1  639   2.758   3.350   1.538
  151HOH     H2  640   2.655   3.253   1.483
  152HOH      O  641   1.932   0.358   2.018
  152HOH     H1  642   1.868   0.294   1.989
  152HOH     H2  643   1.965   0.324   2.101
  153HOH      O  644   1.418   1.811   2.255
  153HOH     H1  645   1.326   1.824   2.231
  153HOH     H2  646   1.445   1.735   2.203
  154HOH      O  647   1.423   2.910   1.420
  154HOH     H1  648   1.429   2.919   1.325
  154HOH     H2  649   1.390   2.821   1.433
  155HOH      O  650   2.460   2.146   0.706
  155HOH     H1  651   2.506   2.230   0.713
  155HOH     H2  652   2.393   2.161   0.639
  156HOH      O  653   1.242   1.655   3.835
  156HOH     H1  654   1.232   1.561   3.848
  156HOH     H2  655   1.231   1.692   3.923
  157HOH      O  656   1.298   1.428   2.279
  157HOH     H1  657   1.249   1.509   2.268
  157HOH     H2  658   1.272   1.373   2.206
  158HOH      O  659   1.758   3.979   1.715
  158HOH     H1  660   1.709   3.898   1.697
  158HOH     H2  661   1.713   4.019   1.789
  159HOH      O  662   2.684   3.499   1.256
  159HOH     H1  663   2.648   3.587   1.245
  159HOH     H2  664   2.765   3.512   1.305
  160HOH      O  665   3.034   1.300   1.937
  160HOH     H1  666   2.961   1.246   1.966
  160HOH     H2  667   3.014   1.319   1.845
  161HOH      O  668   2.537   3.932   1.098
  161HOH     H1  669   2.588   4.013   1.094
  161HOH     H2  670   2.598   3.864   1.070
  162HOH      O  671   0.840   1.697   0.227
  162HOH     H1  672   0.864   1.613   0.266
  162HOH     H2  673   0.857   1.761   0.296
  163HOH      O  674   0.680   1.465   0.090
  163HOH     H1  675   0.671   1.547   0.042
  163HOH     H2  676   0.625   1.403   0.042
  164HOH      O  677   0.201   2.236   3.948
  164HOH     H1  678   0.218   2.260   4.039
  164HOH     H2  679   0.160   2.313   3.910
  165HOH      O  680   3.923   3.023   2.291
  165HOH     H1  681   3.983   2.997   2.221
  165HOH     H2  682   3.980   3.062   2.358
  166HOH      O  683   0.140   2.147   2.985
  166HOH     H1  684   0.226   2.130   2.946
  166HOH     H2  685   0.122   2.239   2.964
  167HOH      O  686   1.265   0.136   3.753
  167HOH     H1  687   1.291   0.130   3.661
  167HOH     H2  688   1.255   0.230   3.769
  168HOH      O  689   2.098   1.611   1.908
  168HOH     H1  690   2.089   1.523   1.944
  168HOH     H2  691   2.180   1.645   1.945
  169HOH      O  692   3.668   3.821   2.098
  169HOH     H1  693   3.630   3.733   2.094
  169HOH     H2  694   3.672   3.850   2.007
  170HOH      O  695   2.122   2.532   0.192
  170HOH     H1  696   2.040   2.559   0.151
  170HOH     H2  697   2.098   2.458   0.247
  171HOH      O  698   2.602   2.536   3.846
  171HOH     H1  699   2.595   2.471   3.916
  171HOH     H2  700   2.623   2.618   3.891
  172HOH      O  701   2.001   3.991   3.318
  172HOH     H1  702   2.008   3.914   3.375
  172HOH     H2  703   2.065   4.053   3.354
  173HOH      O  704   0.350   1.230   0.221
  173HOH     H1  705   0.365   1.324   0.210
  173HOH     H2  706   0.293   1.205   0.148
  174HOH      O  707   1.818   3.001   1.694
  174HOH     H1  708   1.767   2.963   1.766
  174HOH     H2  709   1.766   2.984   1.616
  175HOH      O  710   3.587   2.021   0.159
  175HOH     H1  711   3.646   1.978   0.221
  175HOH     H2  712   3.526   2.071   0.214
  176HOH      O  713   2.345   0.368   3.214
  176HOH     H1  714   2.416   0.396   3.272
  176HOH     H2  715   2.323   0.446   3.163
  177HOH      O  716   1.340   0.684   1.714
  177HOH     H1  717   1.380   0.607   1.756
  177HOH     H2  718   1.300   0.650   1.635
  178HOH      O  719   1.302   2.145   0.963
  178HOH     H1  720   1.325   2.143   0.870
  178HOH     H2  721   1.342   2.065   0.999
  179HOH      O  722   2.869   2.423   2.367
  179HOH     H1  723   2.917   2.462   2.294
  179HOH     H2  724   2.902   2.334   2.373
  180HOH      O  725   3.082   2.236   2.716
  180HOH     H1  726   3.054   2.168   2.778
  180HOH     H2  727   3.176   2.243   2.730
  181HOH      O  728   0.494   0.395   1.842
  181HOH     H1  729   0.588   0.398   1.859
  181HOH     H2  730   0.485   0.328   1.774
  182HOH      O  731   1.322   1.630   0.770
  182HOH     H1  732   1.310   1.550   0.719
  182HOH     H2  733   1.405   1.666   0.738
  183HOH      O  734   2.288   2.958   1.753
  183HOH     H1  735   2.226   3.030   1.768
  183HOH     H2  736   2.337   2.951   1.835
  184HOH      O  737   0.839   1.804   2.971
  184HOH     H1  738   0.840   1.715   2.937
  184HOH     H2  739   0.851   1.793   3.066
  185HOH      O  740   2.682   2.260   3.105
  185HOH     H1  741   2.589   2.249   3.121
  185HOH     H2  742   2.717   2.296   3.186
  186HOH      O  743   1.517   0.820   0.342
  186HOH     H1  744   1.509   0.761   0.267
  186HOH     H2  745   1.449   0.790   0.403
  187HOH      O  746   2.355   3.624   1.763
  187HOH     H1  747   2.390   3.695   1.708
  187HOH     H2  748   2.428   3.562   1.771
  188HOH      O  749   3.176   0.285   1.859
  188HOH     H1  750   3.081   0.273   1.863
  188HOH     H2  751   3.198   0.269   1.768
  189HOH      O  752   1.960   2.883   2.700
  189HOH     H1  753   1.906   2.961   2.712
  189HOH     H2  754   1.992   2.862   2.788
  190HOH      O  755   2.224   0.090   2.061
  190HOH     H1  756   2.278   0.014   2.039
  190HOH     H2  757   2.155   0.090   1.995
  191HOH      O  758   0.690   3.691   3.257
  191HOH     H1  759   0.687   3.694   3.161
  191HOH     H2  760   0.681   3.598   3.278
  192HOH      O  761   0.529   2.792   3.345
  192HOH     H1  762   0.538   2.705   3.383
  192HOH     H2  763   0.600   2.843   3.383
  193HOH      O  764   0.208   2.317   1.698
  193HOH     H1  765   0.232   2.408   1.682
  193HOH     H2  766   0.128   2.304   1.647
  194HOH      O  767   3.661   1.564   3.038
  194HOH     H1  768   3.575   1.574   2.999
  194HOH     H2  769   3.714   1.634   3.000
  195HOH      O  770   2.073   0.738   2.200
  195HOH     H1  771   2.140   0.777   2.143
  195HOH     H2  772   2.079   0.787   2.282
  196HOH      O  773   3.038   3.446   3.683
  196HOH     H1  774   3.126   3.409   3.682
  196HOH     H2  775   3.050   3.536   3.651
  197HOH      O  776   2.452   3.182   2.368
  197HOH     H1  777   2.418   3.262   2.409
  197HOH     H2  778   2.547   3.193   2.371
  198HOH      O  779   1.169   3.321   1.707
  198HOH     H1  780   1.138   3.368   1.629
  198HOH     H2  781   1.095   3.266   1.733
  199HOH      O  782   0.386   1.265   2.858
  199HOH     H1  783   0.368   1.196   2.795
  199HOH     H2  784   0.407   1.219   2.939
  200HOH      O  785   0.256   3.511   3.895
  200HOH     H1  786   0.299   3.448   3.952
  200HOH     H2  787   0.193   3.556   3.951
  201HOH      O  788   0.982   3.047   0.916
  201HOH     H1  789   1.048   3.005   0.860
  201HOH     H2  790   1.023   3.130   0.941
  202HOH      O  791   0.057   0.292   2.934
  202HOH     H1  792  -0.013   0.259   2.990
  202HOH     H2  793   0.012   0.329   2.858
  203HOH      O  794   3.482   2.116   3.735
  203HOH     H1  795   3.545   2.188   3.732
  203HOH     H2  796   3.406   2.152   3.780
  204HOH      O  797   3.278   3.336   0.028
  204HOH     H1  798   3.190   3.299   0.025
  204HOH     H2  799   3.305   3.325   0.120
  205HOH      O  800   1.646   2.842   0.060
  205HOH     H1  801   1.649   2.859  -0.034
  205HOH     H2  802   1.681   2.921   0.100
  206HOH      O  803   3.153   4.032   1.023
  206HOH     H1  804   3.104   3.968   0.971
  206HOH     H2  805   3.109   4.033   1.108
  207HOH      O  806   3.063   0.245   0.901
  207HOH     H1  807   3.121   0.318   0.876
  207HOH     H2  808   3.118   0.167   0.892
  208HOH      O  809   0.895   0.929   1.086
  208HOH     H1  810   0.880   0.976   1.004
  208HOH     H2  811   0.908   0.999   1.151
  209HOH      O  812   3.026   1.256   1.664
  209HOH     H1  813   3.021   1.161   1.675
  209HOH     H2  814   3.119   1.277   1.674
  210HOH      O  815   3.894   0.940   2.316
  210HOH     H1  816   3.901   0.911   2.225
  210HOH     H2  817   3.799   0.944   2.332
  211HOH      O  818   3.971   3.341   2.214
  211HOH     H1  819   3.941   3.431   2.218
  211HOH     H2  820   4.057   3.346   2.171
  212HOH      O  821   2.059   0.426   0.917
  212HOH     H1  822   1.972   0.392   0.896
  212HOH     H2  823   2.092   0.367   0.985
  213HOH      O  824   3.513   1.898   3.571
  213HOH     H1  825   3.460   1.835   3.620
  213HOH     H2  826   3.491   1.983   3.609
  214HOH      O  827   0.561   1.327   3.914
  214HOH     H1  828   0.467   1.311   3.906
  214HOH     H2  829   0.582   1.386   3.841
  215HOH      O  830   3.141   1.539   3.137
  215HOH     H1  831   3.121   1.589   3.057
  215HOH     H2  832   3.210   1.478   3.109
  216HOH      O  833   3.957   0.793   1.633
  216HOH     H1  834   3.941   0.885   1.657
  216HOH     H2  835   3.998   0.799   1.547
  217HOH      O  836   3.113   2.550   0.408
  217HOH     H1  837   3.156   2.563   0.323
  217HOH     H2  838   3.161   2.477   0.448
  218HOH      O  839   1.955   1.517   1.043
  218HOH     H1  840   1.879   1.527   1.100
  218HOH     H2  841   2.029   1.545   1.097
  219HOH      O  842   1.785   2.188   0.429
  219HOH     H1  843   1.802   2.176   0.523
  219HOH     H2  844   1.756   2.279   0.422
  220HOH      O  845   0.821   1.891   0.408
  220HOH     H1  846   0.871   1.958   0.362
  220HOH     H2  847   0.736   1.932   0.425
  221HOH      O  848   1.195   2.397   0.066
  221HOH     H1  849   1.155   2.327   0.014
  221HOH     H2  850   1.285   2.402   0.034
  222HOH      O  851   0.127   2.921   2.775
  222HOH     H1  852   0.151   2.981   2.705
  222HOH     H2  853   0.112   2.978   2.851
  223HOH      O  854   2.710   0.515   3.702
  223HOH     H1  855   2.653   0.588   3.677
  223HOH     H2  856   2.799   0.552   3.699
  224HOH      O  857   2.731   1.288   4.020
  224HOH     H1  858   2.752   1.359   3.959
  224HOH     H2  859   2.816   1.251   4.043
  225HOH      O  860   3.596   3.158   2.039
  225HOH     H1  861   3.567   3.248   2.025
  225HOH     H2  862   3.690   3.160   2.023
  226HOH      O  863   2.204   1.539   3.422
  226HOH     H1  864   2.186   1.459   3.371
  226HOH     H2  865   2.139   1.602   3.391
  227HOH      O  866   3.237   1.880   3.462
  227HOH     H1  867   3.262   1.792   3.432
  227HOH     H2  868   3.320   1.924   3.477
  228HOH      O  869   0.696   1.367   1.401
  228HOH     H1  870   0.641   1.289   1.410
  228HOH     H2  871   0.634   1.440   1.405
  229HOH      O  872   2.090   2.742   2.213
  229HOH     H1  873   2.145   2.818   2.193
  229HOH     H2  874   2.040   2.769   2.290
  230HOH      O  875   3.800   3.627   3.008
  230HOH     H1  876   3.801   3.717   3.040
  230HOH     H2  877   3.771   3.635   2.917
  231HOH      O  878   2.315   2.648   0.760
  231HOH     H1  879   2.368   2.699   0.821
  231HOH     H2  880   2.227   2.685   0.768
  232HOH      O  881   1.028   2.892   2.673
  232HOH     H1  882   0.962   2.824   2.660
  232HOH     H2  883   1.083   2.887   2.595
  233HOH      O  884   2.945   3.464   0.625
  233HOH     H1  885   2.993   3.417   0.694
  233HOH     H2  886   2.919   3.546   0.667
  234HOH      O  887   2.975   2.294   0.908
  234HOH     H1  888   3.067   2.312   0.885
  234HOH     H2  889   2.977   2.277   1.002
  235HOH      O  890   1.323   3.024   1.660
  235HOH     H1  891   1.356   2.998   1.574
  235HOH     H2  892   1.252   3.085   1.641
  236HOH      O  893   1.807   0.243   2.439
  236HOH     H1  894   1.782   0.335   2.432
  236HOH     H2  895   1.805   0.210   2.349
  237HOH      O  896   1.039   0.160   1.013
  237HOH     H1  897   0.979   0.091   1.044
  237HOH     H2  898   1.122   0.115   1.000
  238HOH      O  899   0.064   2.689   1.639
  238HOH     H1  900  -0.030   2.686   1.622
  238HOH     H2  901   0.103   2.632   1.572
  239HOH      O  902   1.480   1.427   2.673
  239HOH     H1  903   1.394   1.401   2.640
  239HOH     H2  904   1.504   1.502   2.618
  240HOH      O  905   1.487   3.798   0.287
  240HOH     H1  906   1.439   3.873   0.250
  240HOH     H2  907   1.421   3.749   0.336
  241HOH      O  908   0.426   3.049   2.611
  241HOH     H1  909   0.401   3.018   2.523
  241HOH     H2  910   0.487   2.983   2.643
  242HOH      O  911   4.032   3.491   2.746
  242HOH     H1  912   4.015   3.406   2.707
  242HOH     H2  913   4.032   3.552   2.672
  243HOH      O  914   1.703   2.811   1.005
  243HOH     H1  915   1.623   2.810   0.952
  243HOH     H2  916   1.722   2.904   1.018
  244HOH      O  917   3.161   0.371   0.606
  244HOH     H1  918   3.174   0.400   0.696
  244HOH     H2  919   3.215   0.431   0.554
  245HOH      O  920   3.389   3.010   3.217
  245HOH     H1  921   3.366   2.944   3.283
  245HOH     H2  922   3.411   3.088   3.268
  246HOH      O  923   1.402   0.631   0.521
  246HOH     H1  924   1.428   0.539   0.519
  246HOH     H2  925   1.309   0.630   0.501
  247HOH      O  926   1.633   0.641   1.643
  247HOH     H1  927   1.554   0.665   1.596
  247HOH     H2  928   1.702   0.696   1.605
  248HOH      O  929   3.711   3.925   0.117
  248HOH     H1  930   3.694   3.832   0.134
  248HOH     H2  931   3.803   3.928   0.094
  249HOH      O  932   3.643   2.427   1.417
  249HOH     H1  933   3.676   2.381   1.494
  249HOH     H2  934   3.720   2.471   1.380
  250HOH      O  935   0.064   0.895   4.037
  250HOH     H1  936  -0.013   0.883   3.983
  250HOH     H2  937   0.115   0.815   4.024
  251HOH      O  938   2.552   1.436   1.130
  251HOH     H1  939   2.564   1.373   1.202
  251HOH     H2  940   2.545   1.521   1.173
  252HOH      O  941   1.508   3.629   1.049
  252HOH     H1  942   1.524   3.598   0.960
  252HOH     H2  943   1.586   3.604   1.098
  253HOH      O  944   2.731   1.481   2.176
  253HOH     H1  945   2.700   1.459   2.088
  253HOH     H2  946   2.728   1.577   2.179
  254HOH      O  947   1.210   3.409   0.293
  254HOH     H1  948   1.207   3.320   0.257
  254HOH     H2  949   1.283   3.450   0.246
  255HOH      O  950   0.095   1.107   0.608
  255HOH     H1  951   0.116   1.182   0.551
  255HOH     H2  952   0.173   1.052   0.604
  256HOH      O  953   0.745   3.837   2.066
  256HOH     H1  954   0.652   3.855   2.050
  256HOH     H2  955   0.764   3.761   2.010
  257HOH      O  956   0.468   0.728   2.081
  257HOH     H1  957   0.433   0.651   2.125
  257HOH     H2  958   0.537   0.694   2.024
  258HOH      O  959   1.434   1.299   0.406
  258HOH     H1  960   1.481   1.226   0.366
  258HOH     H2  961   1.344   1.268   0.413
  259HOH      O  962   2.129   2.362   0.958
  259HOH     H1  963   2.090   2.449   0.964
  259HOH     H2  964   2.083   2.319   0.887
  260HOH      O  965   1.276   0.718   1.027
  260HOH     H1  966   1.216   0.659   0.981
  260HOH     H2  967   1.238   0.805   1.014
  261HOH      O  968   2.451   3.826   2.369
  261HOH     H1  969   2.415   3.801   2.453
  261HOH     H2  970   2.533   3.872   2.390
  262HOH      O  971   1.744   1.176   2.626
  262HOH     H1  972   1.658   1.134   2.637
  262HOH     H2  973   1.739   1.255   2.679
  263HOH      O  974   2.770   1.376   2.446
  263HOH     H1  975   2.766   1.405   2.355
  263HOH     H2  976   2.783   1.281   2.440
  264HOH      O  977   1.897   3.283   0.741
  264HOH     H1  978   1.866   3.195   0.763
  264HOH     H2  979   1.875   3.293   0.648
  265HOH      O  980   0.047   1.222   1.873
  265HOH     H1  981   0.063   1.299   1.928
  265HOH     H2  982   0.131   1.177   1.872
  266HOH      O  983   1.684   3.881   2.086
  266HOH     H1  984   1.772   3.845   2.099
  266HOH     H2  985   1.644   3.822   2.022
  267HOH      O  986   0.993   0.329   0.820
  267HOH     H1  987   0.992   0.265   0.891
  267HOH     H2  988   0.901   0.341   0.797
  268HOH      O  989   0.764   1.510   2.145
  268HOH     H1  990   0.801   1.533   2.060
  268HOH     H2  991   0.819   1.439   2.177
  269HOH      O  992   2.043   3.915   3.708
  269HOH     H1  993   1.968   3.968   3.684
  269HOH     H2  994   2.109   3.933   3.640
  270HOH      O  995   1.918   1.779   3.824
  270HOH     H1  996   1.920   1.830   3.743
  270HOH     H2  997   1.997   1.724   3.819
  271HOH      O  998   3.284   1.308   1.707
  271HOH     H1  999   3.335   1.363   1.766
  271HOH     H2 1000   3.344   1.289   1.634
  272HOH      O 1001   2.168   1.644   2.683
  272HOH     H1 1002   2.262   1.626   2.686
  272HOH     H2 1003   2.154   1.707   2.753
  273HOH      O 1004   1.725   3.746   0.028
  273HOH     H1 1005   1.772   3.680  -0.023
  273HOH     H2 1006   1.762   3.739   0.116
  274HOH      O 1007   0.267   0.910   1.726
  274HOH     H1 1008   0.319   0.830   1.727
  274HOH     H2 1009   0.220   0.908   1.643
  275HOH      O 1010   2.017   2.974   0.088
  275HOH     H1 1011   1.999   2.910   0.157
  275HOH     H2 1012   1.968   3.052   0.114
  276HOH      O 1013   3.644   3.358  -0.018
  276HOH     H1 1014   3.613   3.299   0.051
  276HOH     H2 1015   3.661   3.440   0.027
  277HOH      O 1016   2.656  -0.026   3.441
  277HOH     H1 1017   2.655   0.036   3.514
  277HOH     H2 1018   2.659   0.029   3.362
  278HOH      O 1019   1.495   2.987   1.161
  278HOH     H1 1020   1.418   3.018   1.115
  278HOH     H2 1021   1.542   2.933   1.097
  279HOH      O 1022   0.872   1.672   1.029
  279HOH     H1 1023   0.841   1.588   0.994
  279HOH     H2 1024   0.928   1.707   0.961
  280HOH      O 1025   0.369   3.255   2.792
  280HOH     H1 1026   0.409   3.193   2.730
  280HOH     H2 1027   0.299   3.297   2.742
  281HOH      O 1028   0.477   3.912   1.607
  281HOH     H1 1029   0.448   3.821   1.612
  281HOH     H2 1030   0.447   3.942   1.521
  282HOH      O 1031   1.093   3.443   2.613
  282HOH     H1 1032   1.076   3.350   2.632
  282HOH     H2 1033   1.181   3.444   2.577
  283HOH      O 1034   1.728   0.897   0.622
  283HOH     H1 1035   1.720   0.887   0.527
  283HOH     H2 1036   1.661   0.838   0.658
  284HOH      O 1037   1.249   3.833   1.876
  284HOH     H1 1038   1.168   3.785   1.856
  284HOH     H2 1039   1.221   3.906   1.931
  285HOH      O 1040   3.642   2.531   2.716
  285HOH     H1 1041   3.722   2.562   2.675
  285HOH     H2 1042   3.580   2.522   2.644
  286HOH      O 1043   3.838   0.946   0.939
  286HOH     H1 1044   3.821   0.981   0.852
  286HOH     H2 1045   3.887   0.865   0.923
  287HOH      O 1046   2.246   3.866   0.292
  287HOH     H1 1047   2.163   3.909   0.315
  287HOH     H2 1048   2.252   3.794   0.354
  288HOH      O 1049   3.108   0.788   2.143
  288HOH     H1 1050   3.106   0.881   2.166
  288HOH     H2 1051   3.191   0.776   2.097
  289HOH      O 1052   1.411   0.032   2.362
  289HOH     H1 1053   1.335  -0.018   2.391
  289HOH     H2 1054   1.378   0.085   2.289
  290HOH      O 1055   2.151   3.151   3.500
  290HOH     H1 1056   2.218   3.199   3.450
  290HOH     H2 1057   2.123   3.082   3.440
  291HOH      O 1058   3.251   3.863   3.156
  291HOH     H1 1059   3.270   3.837   3.066
  291HOH     H2 1060   3.232   3.781   3.201
  292HOH      O 1061   1.938   3.530   1.498
  292HOH     H1 1062   1.997   3.476   1.550
  292HOH     H2 1063   1.860   3.475   1.486
  293HOH      O 1064   2.549   3.835   0.440
  293HOH     H1 1065   2.504   3.914   0.411
  293HOH     H2 1066   2.508   3.764   0.389
  294HOH      O 1067   0.112   3.049   2.496
  294HOH     H1 1068   0.031   3.079   2.538
  294HOH     H2 1069   0.151   3.129   2.460
  295HOH      O 1070   1.479   0.996   3.416
  295HOH     H1 1071   1.459   1.086   3.439
  295HOH     H2 1072   1.573   0.987   3.434
  296HOH      O 1073   1.270   2.160   1.663
  296HOH     H1 1074   1.218   2.089   1.625
  296HOH     H2 1075   1.232   2.240   1.627
  297HOH      O 1076   2.995   0.685   3.252
  297HOH     H1 1077   2.929   0.632   3.297
  297HOH     H2 1078   3.054   0.715   3.321
  298HOH      O 1079   0.612   1.159   0.246
  298HOH     H1 1080   0.639   1.192   0.161
  298HOH     H2 1081   0.516   1.156   0.241
  299HOH      O 1082   1.499   3.746   1.913
  299HOH     H1 1083   1.495   3.665   1.964
  299HOH     H2 1084   1.409   3.778   1.912
  300HOH      O 1085   1.273   3.217   2.921
  300HOH     H1 1086   1.197   3.160   2.909
  300HOH     H2 1087   1.312   3.223   2.833
  301HOH      O 1088   2.887   2.117   2.182
  301HOH     H1 1089   2.944   2.061   2.235
  301HOH     H2 1090   2.870   2.067   2.103
  302HOH      O 1091   1.160   2.829   0.134
  302HOH     H1 1092   1.102   2.845   0.060
  302HOH     H2 1093   1.109   2.855   0.211
  303HOH      O 1094   1.056   2.174   3.198
  303HOH     H1 1095   1.029   2.187   3.107
  303HOH     H2 1096   1.150   2.194   3.198
  304HOH      O 1097   1.489   1.409   2.943
  304HOH     H1 1098   1.482   1.397   2.848
  304HOH     H2 1099   1.546   1.485   2.954
  305HOH      O 1100   3.754   2.319   1.644
  305HOH     H1 1101   3.717   2.239   1.683
  305HOH     H2 1102   3.743   2.386   1.712
  306HOH      O 1103   3.881   3.148   2.005
  306HOH     H1 1104   3.882   3.202   2.084
  306HOH     H2 1105   3.889   3.058   2.037
  307HOH      O 1106   2.520   3.400   1.750
  307HOH     H1 1107   2.463   3.325   1.764
  307HOH     H2 1108   2.561   3.384   1.665
  308HOH      O 1109   0.262   3.767   1.955
  308HOH     H1 1110   0.190   3.729   1.905
  308HOH     H2 1111   0.219   3.809   2.030
  309HOH      O 1112   3.245   3.437   0.579
  309HOH     H1 1113   3.245   3.376   0.653
  309HOH     H2 1114   3.168   3.492   0.592
  310HOH      O 1115   2.033   3.224   2.579
  310HOH     H1 1116   2.014   3.306   2.624
  310HOH     H2 1117   1.965   3.164   2.610
  311HOH      O 1118   2.359   3.329   1.340
  311HOH     H1 1119   2.385   3.414   1.375
  311HOH     H2 1120   2.305   3.290   1.408
  312HOH      O 1121   0.335   1.197   1.861
  312HOH     H1 1122   0.399   1.128   1.877
  312HOH     H2 1123   0.344   1.216   1.767
  313HOH      O 1124   3.712   0.777   0.212
  313HOH     H1 1125   3.710   0.860   0.165
  313HOH     H2 1126   3.672   0.714   0.152
  314HOH      O 1127   0.929   3.229   3.247
  314HOH     H1 1128   0.852   3.199   3.199
  314HOH     H2 1129   0.997   3.238   3.180
  315HOH      O 1130   2.290   2.610   1.202
  315HOH     H1 1131   2.228   2.633   1.133
  315HOH     H2 1132   2.262   2.523   1.231
  316HOH      O 1133   2.831   1.311   3.640
  316HOH     H1 1134   2.912   1.284   3.597
  316HOH     H2 1135   2.860   1.362   3.715
  317HOH      O 1136   1.335   2.402   2.655
  317HOH     H1 1137   1.382   2.322   2.630
  317HOH     H2 1138   1.390   2.440   2.724
  318HOH      O 1139   2.971   1.896   0.961
  318HOH     H1 1140   3.027   1.957   1.008
  318HOH     H2 1141   3.027   1.862   0.890
  319HOH      O 1142   0.055   0.828   1.900
  319HOH     H1 1143  -0.001   0.814   1.824
  319HOH     H2 1144   0.130   0.878   1.867
  320HOH      O 1145   2.462   3.761   0.110
  320HOH     H1 1146   2.431   3.675   0.138
  320HOH     H2 1147   2.409   3.823   0.161
  321HOH      O 1148   3.131   0.823   1.073
  321HOH     H1 1149   3.131   0.795   0.982
  321HOH     H2 1150   3.215   0.793   1.107
  322HOH      O 1151   1.729   3.382   3.730
  322HOH     H1 1152   1.770   3.351   3.649
  322HOH     H2 1153   1.641   3.407   3.704
  323HOH      O 1154   3.355   1.339   3.054
  323HOH     H1 1155   3.354   1.299   2.967
  323HOH     H2 1156   3.448   1.349   3.074
  324HOH      O 1157   3.333   2.610   3.973
  324HOH     H1 1158   3.364   2.679   4.032
  324HOH     H2 1159   3.379   2.627   3.891
  325HOH      O 1160   0.875   2.127   2.336
  325HOH     H1 1161   0.880   2.131   2.431
  325HOH     H2 1162   0.876   2.033   2.316
  326HOH      O 1163   0.241   1.732   0.154
  326HOH     H1 1164   0.283   1.780   0.225
  326HOH     H2 1165   0.184   1.669   0.198
  327HOH      O 1166   3.764   3.626   4.038
  327HOH     H1 1167   3.811   3.568   3.978
  327HOH     H2 1168   3.676   3.634   4.000
  328HOH      O 1169   0.151   1.000   2.919
  328HOH     H1 1170   0.180   0.936   2.984
  328HOH     H2 1171   0.163   0.957   2.835
  329HOH      O 1172   2.207   3.391   1.076
  329HOH     H1 1173   2.228   3.368   1.167
  329HOH     H2 1174   2.292   3.398   1.032
  330HOH      O 1175   0.953   0.809   2.035
  330HOH     H1 1176   0.864   0.773   2.041
  330HOH     H2 1177   0.961   0.839   1.945
  331HOH      O 1178   0.088   1.097   3.178
  331HOH     H1 1179   0.095   1.002   3.191
  331HOH     H2 1180   0.089   1.109   3.083
  332HOH      O 1181   0.050   3.637   2.497
  332HOH     H1 1182   0.101   3.597   2.427
  332HOH     H2 1183  -0.010   3.696   2.453
  333HOH      O 1184   0.216   0.523   1.649
  333HOH     H1 1185   0.222   0.521   1.553
  333HOH     H2 1186   0.262   0.602   1.674
  334HOH      O 1187   0.050   1.277   2.853
  334HOH     H1 1188   0.086   1.189   2.847
  334HOH     H2 1189   0.090   1.314   2.932
  335HOH      O 1190   0.600   0.420   0.298
  335HOH     H1 1191   0.644   0.503   0.317
  335HOH     H2 1192   0.506   0.440   0.307
  336HOH      O 1193   0.620   1.600   2.622
  336HOH     H1 1194   0.544   1.554   2.659
  336HOH     H2 1195   0.584   1.680   2.584
  337HOH      O 1196   1.390   2.538   3.140
  337HOH     H1 1197   1.302   2.568   3.163
  337HOH     H2 1198   1.446   2.575   3.208
  338HOH      O 1199   3.547   0.999   1.631
  338HOH     H1 1200   3.540   1.067   1.564
  338HOH     H2 1201   3.590   0.926   1.587
  339HOH      O 1202   0.494   2.010   3.639
  339HOH     H1 1203   0.415   2.059   3.662
  339HOH     H2 1204   0.470   1.919   3.653
  340HOH      O 1205   1.832   3.797   0.550
  340HOH     H1 1206   1.840   3.822   0.458
  340HOH     H2 1207   1.744   3.826   0.576
  341HOH      O 1208   3.297   3.699   2.533
  341HOH     H1 1209   3.207   3.689   2.502
  341HOH     H2 1210   3.289   3.745   2.617
  342HOH      O 1211   3.231   0.137   2.097
  342HOH     H1 1212   3.156   0.078   2.094
  342HOH     H2 1213   3.231   0.180   2.011
  343HOH      O 1214   0.788   3.308   0.310
  343HOH     H1 1215   0.815   3.354   0.231
  343HOH     H2 1216   0.777   3.217   0.281
  344HOH      O 1217   3.629   1.002   2.662
  344HOH     H1 1218   3.665   1.090   2.675
  344HOH     H2 1219   3.608   0.972   2.751
  345HOH      O 1220   2.021   2.105   3.638
  345HOH     H1 1221   2.054   2.187   3.676
  345HOH     H2 1222   2.100   2.061   3.606
  346HOH      O 1223   1.491   2.263   1.263
  346HOH     H1 1224   1.413   2.219   1.230
  346HOH     H2 1225   1.499   2.341   1.207
  347HOH      O 1226   3.152   1.074   0.409
  347HOH     H1 1227   3.191   1.016   0.474
  347HOH     H2 1228   3.063   1.042   0.399
  348HOH      O 1229   2.278   0.129   3.361
  348HOH     H1 1230   2.263   0.140   3.267
  348HOH     H2 1231   2.341   0.198   3.383
  349HOH      O 1232   3.305   0.581   3.858
  349HOH     H1 1233   3.246   0.527   3.910
  349HOH     H2 1234   3.329   0.526   3.784
  350HOH      O 1235   2.222   2.628   3.986
  350HOH     H1 1236   2.157   2.698   3.978
  350HOH     H2 1237   2.198   2.584   4.068
  351HOH      O 1238   2.972   2.195   2.471
  351HOH     H1 1239   3.056   2.179   2.428
  351HOH     H2 1240   2.996   2.224   2.559
  352HOH      O 1241   1.858   3.170   3.886
  352HOH     H1 1242   1.880   3.168   3.979
  352HOH     H2 1243   1.840   3.262   3.868
  353HOH      O 1244   3.132   1.975   2.929
  353HOH     H1 1245   3.064   2.039   2.949
  353HOH     H2 1246   3.196   1.987   2.999
  354HOH      O 1247   1.128   1.360   0.473
  354HOH     H1 1248   1.046   1.331   0.513
  354HOH     H2 1249   1.131   1.314   0.389
  355HOH      O 1250   0.453   2.347   0.373
  355HOH     H1 1251   0.506   2.425   0.360
  355HOH     H2 1252   0.398   2.367   0.449
  356HOH      O 1253   3.190   2.915   0.879
  356HOH     H1 1254   3.275   2.954   0.898
  356HOH     H2 1255   3.136   2.937   0.955
  357HOH      O 1256   1.435   1.773   1.622
  357HOH     H1 1257   1.397   1.745   1.705
  357HOH     H2 1258   1.382   1.730   1.555
  358HOH      O 1259   0.854   0.218   2.662
  358HOH     H1 1260   0.886   0.142   2.710
  358HOH     H2 1261   0.921   0.235   2.596
  359HOH      O 1262   0.954   2.598   1.659
  359HOH     H1 1263   0.976   2.518   1.707
  359HOH     H2 1264   0.948   2.665   1.727
  360HOH      O 1265   3.971   0.561   1.774
  360HOH     H1 1266   3.966   0.642   1.724
  360HOH     H2 1267   4.059   0.528   1.758
  361HOH      O 1268   3.744   2.184   0.409
  361HOH     H1 1269   3.764   2.132   0.487
  361HOH     H2 1270   3.648   2.185   0.405
  362HOH      O 1271   1.652   1.692   0.211
  362HOH     H1 1272   1.653   1.772   0.263
  362HOH     H2 1273   1.643   1.722   0.120
  363HOH      O 1274   1.917   1.095   2.420
  363HOH     H1 1275   1.996   1.149   2.424
  363HOH     H2 1276   1.861   1.130   2.489
  364HOH      O 1277   1.635   3.017   0.497
  364HOH     H1 1278   1.561   3.066   0.534
  364HOH     H2 1279   1.605   2.992   0.410
  365HOH      O 1280   0.637   1.050   2.839
  365HOH     H1 1281   0.668   0.972   2.793
  365HOH     H2 1282   0.565   1.083   2.784
  366HOH      O 1283   2.059   2.768   3.797
  366HOH     H1 1284   2.012   2.832   3.744
  366HOH     H2 1285   2.064   2.690   3.741
  367HOH      O 1286   1.968   1.715   0.377
  367HOH     H1 1287   1.979   1.719   0.282
  367HOH     H2 1288   2.009   1.795   0.409
  368HOH      O 1289   1.662   0.950   2.397
  368HOH     H1 1290   1.596   1.005   2.354
  368HOH     H2 1291   1.736   1.009   2.412
  369HOH      O 1292   2.608   3.445   0.835
  369HOH     H1 1293   2.530   3.480   0.792
  369HOH     H2 1294   2.578   3.420   0.923
  370HOH      O 1295   0.941   1.352   3.474
  370HOH     H1 1296   0.902   1.377   3.558
  370HOH     H2 1297   0.970   1.261   3.488
  371HOH      O 1298   3.993   1.896   2.721
  371HOH     H1 1299   4.086   1.900   2.743
  371HOH     H2 1300   3.992   1.870   2.629
  372HOH      O 1301   2.110   2.656   3.292
  372HOH     H1 1302   2.195   2.653   3.336
  372HOH     H2 1303   2.127   2.620   3.205
  373HOH      O 1304   1.967   1.712   3.289
  373HOH     H1 1305   2.020   1.761   3.227
  373HOH     H2 1306   1.879   1.749   3.282
  374HOH      O 1307   1.098   3.813   0.209
  374HOH     H1 1308   1.182   3.806   0.255
  374HOH     H2 1309   1.123   3.819   0.116
  375HOH      O 1310   0.132   3.281   0.242
  375HOH     H1 1311   0.148   3.258   0.334
  375HOH     H2 1312   0.096   3.201   0.203
  376HOH      O 1313   1.377   2.098   0.448
  376HOH     H1 1314   1.446   2.113   0.384
  376HOH     H2 1315   1.371   2.180   0.498
  377HOH      O 1316   2.629   2.149   3.726
  377HOH     H1 1317   2.701   2.092   3.699
  377HOH     H2 1318   2.624   2.216   3.659
  378HOH      O 1319   1.148   0.127   3.158
  378HOH     H1 1320   1.215   0.184   3.195
  378HOH     H2 1321   1.170   0.121   3.065
  379HOH      O 1322   3.369   1.712   3.732
  379HOH     H1 1323   3.300   1.655   3.766
  379HOH     H2 1324   3.449   1.660   3.738
  380HOH      O 1325   1.996   0.316   4.012
  380HOH     H1 1326   1.973   0.344   3.923
  380HOH     H2 1327   2.092   0.310   4.010
  381HOH      O 1328   1.583   1.956   3.993
  381HOH     H1 1329   1.491   1.937   3.977
  381HOH     H2 1330   1.595   2.046   3.962
  382HOH      O 1331   0.636   0.880   1.419
  382HOH     H1 1332   0.592   0.821   1.358
  382HOH     H2 1333   0.729   0.859   1.409
  383HOH      O 1334   1.264   1.629   0.437
  383HOH     H1 1335   1.219   1.549   0.463
  383HOH     H2 1336   1.356   1.610   0.450
  384HOH      O 1337   2.752   1.664   3.763
  384HOH     H1 1338   2.661   1.651   3.736
  384HOH     H2 1339   2.767   1.758   3.756
  385HOH      O 1340   3.544   1.573   2.705
  385HOH     H1 1341   3.476   1.591   2.641
  385HOH     H2 1342   3.509   1.608   2.787
  386HOH      O 1343   3.209   2.662   3.119
  386HOH     H1 1344   3.247   2.575   3.105
  386HOH     H2 1345   3.270   2.722   3.077
  387HOH      O 1346   0.979   0.919   2.907
  387HOH     H1 1347   1.016   0.975   2.975
  387HOH     H2 1348   0.945   0.843   2.954
  388HOH      O 1349   2.627   3.598   3.973
  388HOH     H1 1350   2.586   3.671   4.018
  388HOH     H2 1351   2.643   3.630   3.884
  389HOH      O 1352   0.788   0.107   1.863
  389HOH     H1 1353   0.836   0.125   1.783
  389HOH     H2 1354   0.734   0.030   1.842
  390HOH      O 1355   1.847   1.718   0.654
  390HOH     H1 1356   1.868   1.723   0.561
  390HOH     H2 1357   1.932   1.717   0.697
  391HOH      O 1358   2.160   3.286   0.674
  391HOH     H1 1359   2.216   3.222   0.719
  391HOH     H2 1360   2.081   3.290   0.727
  392HOH      O 1361   3.765   2.005   0.605
  392HOH     H1 1362   3.707   2.029   0.677
  392HOH     H2 1363   3.848   1.982   0.648
  393HOH      O 1364   3.906   0.550   0.308
  393HOH     H1 1365   3.841   0.613   0.278
  393HOH     H2 1366   3.880   0.467   0.269
  394HOH      O 1367   0.784   0.558   3.253
  394HOH     H1 1368   0.844   0.540   3.180
  394HOH     H2 1369   0.802   0.489   3.316
  395HOH      O 1370   3.854   0.058   1.949
  395HOH     H1 1371   3.795   0.015   1.887
  395HOH     H2 1372   3.914   0.108   1.893
  396HOH      O 1373   2.385   1.246   0.036
  396HOH     H1 1374   2.440   1.318   0.069
  396HOH     H2 1375   2.301   1.258   0.080
  397HOH      O 1376   1.589   1.425   2.260
  397HOH     H1 1377   1.502   1.436   2.220
  397HOH     H2 1378   1.647   1.477   2.203
  398HOH      O 1379   1.897   0.528   2.951
  398HOH     H1 1380   1.884   0.616   2.917
  398HOH     H2 1381   1.971   0.493   2.902
  399HOH      O 1382   1.463   2.684   0.557
  399HOH     H1 1383   1.404   2.744   0.511
  399HOH     H2 1384   1.481   2.615   0.493
  400HOH      O 1385   3.032   3.470   3.374
  400HOH     H1 1386   3.112   3.522   3.373
  400HOH     H2 1387   3.056   3.391   3.422
  401HOH      O 1388   1.146   1.879   2.249
  401HOH     H1 1389   1.053   1.859   2.256
  401HOH     H2 1390   1.155   1.968   2.284
  402HOH      O 1391   3.544   0.394   1.463
  402HOH     H1 1392   3.622   0.417   1.413
  402HOH     H2 1393   3.473   0.394   1.398
  403HOH      O 1394   1.832   3.032   0.763
  403HOH     H1 1395   1.864   3.034   0.854
  403HOH     H2 1396   1.738   3.018   0.771
  404HOH      O 1397   0.769   3.486   3.724
  404HOH     H1 1398   0.678   3.492   3.751
  404HOH     H2 1399   0.771   3.521   3.635
  405HOH      O 1400   3.648   3.888   1.828
  405HOH     H1 1401   3.567   3.849   1.795
  405HOH     H2 1402   3.656   3.971   1.781
  406HOH      O 1403   3.204   1.903   1.732
  406HOH     H1 1404   3.144   1.877   1.661
  406HOH     H2 1405   3.238   1.820   1.766
  407HOH      O 1406   0.791   1.953   0.753
  407HOH     H1 1407   0.824   1.866   0.731
  407HOH     H2 1408   0.850   1.985   0.821
  408HOH      O 1409   2.476   2.716   0.044
  408HOH     H1 1410   2.434   2.709   0.130
  408HOH     H2 1411   2.407   2.696  -0.019
  409HOH      O 1412   2.400   0.587   1.651
  409HOH     H1 1413   2.350   0.650   1.598
  409HOH     H2 1414   2.485   0.583   1.608
  410HOH      O 1415   3.448   2.580   2.956
  410HOH     H1 1416   3.519   2.546   2.902
  410HOH     H2 1417   3.389   2.506   2.968
  411HOH      O 1418   3.031   2.088   0.172
  411HOH     H1 1419   2.967   2.150   0.138
  411HOH     H2 1420   2.980   2.010   0.193
  412HOH      O 1421   2.905   3.548   0.964
  412HOH     H1 1422   2.831   3.533   0.904
  412HOH     H2 1423   2.893   3.638   0.994
  413HOH      O 1424   2.669   0.919   3.694
  413HOH     H1 1425   2.758   0.950   3.712
  413HOH     H2 1426   2.653   0.853   3.762
  414HOH      O 1427   0.300   3.668   3.550
  414HOH     H1 1428   0.292   3.677   3.645
  414HOH     H2 1429   0.388   3.633   3.537
  415HOH      O 1430   2.640   3.235   0.656
  415HOH     H1 1431   2.672   3.155   0.697
  415HOH     H2 1432   2.678   3.305   0.708
  416HOH      O 1433   3.566   1.608   3.282
  416HOH     H1 1434   3.582   1.608   3.187
  416HOH     H2 1435   3.643   1.567   3.320
  417HOH      O 1436   1.843   0.701   3.773
  417HOH     H1 1437   1.924   0.688   3.822
  417HOH     H2 1438   1.777   0.651   3.822
  418HOH      O 1439   3.779   1.552   2.574
  418HOH     H1 1440   3.845   1.507   2.627
  418HOH     H2 1441   3.716   1.585   2.638
  419HOH      O 1442   1.324   0.029   0.258
  419HOH     H1 1443   1.297   0.023   0.350
  419HOH     H2 1444   1.278   0.106   0.225
  420HOH      O 1445   3.856   3.295   3.566
  420HOH     H1 1446   3.922   3.244   3.518
  420HOH     H2 1447   3.830   3.237   3.638
  421HOH      O 1448   3.088   1.192   2.552
  421HOH     H1 1449   3.116   1.101   2.562
  421HOH     H2 1450   3.006   1.197   2.603
  422HOH      O 1451   2.780   1.777   2.158
  422HOH     H1 1452   2.811   1.790   2.069
  422HOH     H2 1453   2.697   1.824   2.163
  423HOH      O 1454   2.007   0.231   3.234
  423HOH     H1 1455   2.006   0.137   3.214
  423HOH     H2 1456   1.936   0.268   3.181
  424HOH      O 1457   0.431   2.688   2.529
  424HOH     H1 1458   0.423   2.644   2.444
  424HOH     H2 1459   0.392   2.627   2.591
  425HOH      O 1460   1.885   0.004   3.026
  425HOH     H1 1461   1.802  -0.037   3.000
  425HOH     H2 1462   1.867   0.098   3.024
  426HOH      O 1463   1.035   1.660   3.460
  426HOH     H1 1464   0.975   1.595   3.497
  426HOH     H2 1465   1.083   1.613   3.393
  427HOH      O 1466   3.112   1.811   0.714
  427HOH     H1 1467   3.147   1.744   0.656
  427HOH     H2 1468   3.035   1.844   0.668
  428HOH      O 1469   0.513   1.143   1.383
  428HOH     H1 1470   0.561   1.068   1.417
  428HOH     H2 1471   0.456   1.106   1.316
  429HOH      O 1472   1.052   1.847   2.754
  429HOH     H1 1473   1.039   1.867   2.846
  429HOH     H2 1474   1.039   1.753   2.747
  430HOH      O 1475   0.351   1.343   2.425
  430HOH     H1 1476   0.288   1.416   2.425
  430HOH     H2 1477   0.336   1.300   2.510
  431HOH      O 1478   3.159   3.516   2.827
  431HOH     H1 1479   3.181   3.609   2.826
  431HOH     H2 1480   3.096   3.507   2.899
  432HOH      O 1481   1.376   2.856   2.645
  432HOH     H1 1482   1.450   2.874   2.588
  432HOH     H2 1483   1.308   2.918   2.617
  433HOH      O 1484   0.916   4.009   2.771
  433HOH     H1 1485   0.875   3.927   2.742
  433HOH     H2 1486   0.986   3.981   2.830
  434HOH      O 1487   2.543   2.375   0.041
  434HOH     H1 1488   2.538   2.399   0.133
  434HOH     H2 1489   2.476   2.308   0.030
  435HOH      O 1490   3.300   0.528   1.422
  435HOH     H1 1491   3.272   0.444   1.458
  435HOH     H2 1492   3.351   0.568   1.493
  436HOH      O 1493   3.617   2.914   2.836
  436HOH     H1 1494   3.663   2.991   2.801
  436HOH     H2 1495   3.606   2.857   2.760
  437HOH      O 1496   0.905   0.071   1.303
  437HOH     H1 1497   0.968   0.003   1.326
  437HOH     H2 1498   0.855   0.034   1.230
  438HOH      O 1499   1.165   0.098   1.866
  438HOH     H1 1500   1.211   0.181   1.879
  438HOH     H2 1501   1.114   0.112   1.786
  439HOH      O 1502   3.417   0.834   2.578
  439HOH     H1 1503   3.473   0.779   2.523
  439HOH     H2 1504   3.473   0.908   2.602
  440HOH      O 1505   2.046   2.940   1.140
  440HOH     H1 1506   2.042   2.895   1.225
  440HOH     H2 1507   2.080   2.874   1.080
  441HOH      O 1508   1.933   1.215   2.893
  441HOH     H1 1509   1.963   1.138   2.843
  441HOH     H2 1510   1.838   1.201   2.903
  442HOH      O 1511   3.959   1.745   1.815
  442HOH     H1 1512   3.974   1.833   1.781
  442HOH     H2 1513   3.868   1.745   1.845
  443HOH      O 1514   1.672   1.325   1.898
  443HOH     H1 1515   1.592   1.275   1.915
  443HOH     H2 1516   1.641   1.413   1.875
  444HOH      O 1517   2.427   3.477   3.558
  444HOH     H1 1518   2.368   3.520   3.495
  444HOH     H2 1519   2.414   3.383   3.544
  445HOH      O 1520   2.967   1.534   2.596
  445HOH     H1 1521   2.967   1.612   2.541
  445HOH     H2 1522   2.902   1.476   2.555
  446HOH      O 1523   3.518   1.946   2.051
  446HOH     H1 1524   3.428   1.917   2.035
  446HOH     H2 1525   3.513   2.003   2.127
  447HOH      O 1526   3.307   0.645   3.377
  447HOH     H1 1527   3.253   0.705   3.429
  447HOH     H2 1528   3.396   0.660   3.408
  448HOH      O 1529   2.787   0.932   0.328
  448HOH     H1 1530   2.721   1.001   0.318
  448HOH     H2 1531   2.737   0.856   0.359
  449HOH      O 1532   1.741   1.893   0.343
  449HOH     H1 1533   1.786   1.977   0.338
  449HOH     H2 1534   1.811   1.829   0.350
  450HOH      O 1535   1.039   2.972   0.336
  450HOH     H1 1536   1.064   3.038   0.401
  450HOH     H2 1537   0.984   2.910   0.384
  451HOH      O 1538   0.710   0.663   1.715
  451HOH     H1 1539   0.805   0.668   1.711
  451HOH     H2 1540   0.690   0.657   1.809
  452HOH      O 1541   0.116   1.986   1.711
  452HOH     H1 1542   0.158   1.958   1.792
  452HOH     H2 1543   0.150   2.075   1.697
  453HOH      O 1544   1.728   0.517   2.444
  453HOH     H1 1545   1.670   0.554   2.378
  453HOH     H2 1546   1.678   0.522   2.525
  454HOH      O 1547   2.975   0.137   3.695
  454HOH     H1 1548   3.041   0.205   3.710
  454HOH     H2 1549   3.021   0.055   3.713
  455HOH      O 1550   3.826   0.391   2.715
  455HOH     H1 1551   3.768   0.451   2.668
  455HOH     H2 1552   3.899   0.377   2.654
  456HOH      O 1553   2.136   0.495   2.330
  456HOH     H1 1554   2.096   0.413   2.301
  456HOH     H2 1555   2.099   0.561   2.271
  457HOH      O 1556   1.399   0.937   1.789
  457HOH     H1 1557   1.383   0.844   1.776
  457HOH     H2 1558   1.483   0.940   1.836
  458HOH      O 1559   1.800   3.600   2.341
  458HOH     H1 1560   1.707   3.586   2.328
  458HOH     H2 1561   1.808   3.694   2.357
  459HOH      O 1562   2.059   0.783   3.068
  459HOH     H1 1563   2.013   0.834   3.001
  459HOH     H2 1564   2.001   0.786   3.144
  460HOH      O 1565   2.027   2.490   2.144
  460HOH     H1 1566   2.041   2.471   2.051
  460HOH     H2 1567   2.076   2.571   2.160
  461HOH      O 1568   1.247   3.626   1.135
  461HOH     H1 1569   1.243   3.581   1.220
  461HOH     H2 1570   1.340   3.643   1.121
  462HOH      O 1571   3.230   2.250   1.479
  462HOH     H1 1572   3.230   2.344   1.498
  462HOH     H2 1573   3.311   2.235   1.430
  463HOH      O 1574   0.646   2.427   0.790
  463HOH     H1 1575   0.607   2.467   0.867
  463HOH     H2 1576   0.589   2.353   0.769
  464HOH      O 1577   2.938   1.301   2.960
  464HOH     H1 1578   2.855   1.338   2.988
  464HOH     H2 1579   2.997   1.377   2.952
  465HOH      O 1580   0.663   2.510   2.885
  465HOH     H1 1581   0.585   2.545   2.926
  465HOH     H2 1582   0.637   2.491   2.795
  466HOH      O 1583   1.681   2.668   0.281
  466HOH     H1 1584   1.635   2.596   0.324
  466HOH     H2 1585   1.612   2.722   0.243
  467HOH      O 1586   3.263   1.273   3.909
  467HOH     H1 1587   3.241   1.324   3.988
  467HOH     H2 1588   3.322   1.331   3.860
  468HOH      O 1589   0.710   3.692   2.990
  468HOH     H1 1590   0.668   3.635   2.925
  468HOH     H2 1591   0.803   3.681   2.975
  469HOH      O 1592   1.386   1.503   0.127
  469HOH     H1 1593   1.316   1.567   0.112
  469HOH     H2 1594   1.463   1.556   0.148
  470HOH      O 1595   2.937   3.542   0.187
  470HOH     H1 1596   2.949   3.591   0.106
  470HOH     H2 1597   2.866   3.481   0.167
  471HOH      O 1598   0.288   1.378   3.852
  471HOH     H1 1599   0.295   1.352   3.760
  471HOH     H2 1600   0.200   1.414   3.860
  472HOH      O 1601   0.208   1.225   1.138
  472HOH     H1 1602   0.275   1.159   1.153
  472HOH     H2 1603   0.163   1.196   1.059
  473HOH      O 1604   2.405   2.486   3.056
  473HOH     H1 1605   2.417   2.528   2.971
  473HOH     H2 1606   2.312   2.496   3.075
  474HOH      O 1607   0.165   1.112   2.545
  474HOH     H1 1608   0.182   1.059   2.468
  474HOH     H2 1609   0.076   1.146   2.531
  475HOH      O 1610   3.756   1.360   0.938
  475HOH     H1 1611   3.671   1.364   0.982
  475HOH     H2 1612   3.813   1.317   1.001
  476HOH      O 1613   0.564   2.383   1.788
  476HOH     H1 1614   0.498   2.445   1.758
  476HOH     H2 1615   0.639   2.397   1.731
  477HOH      O 1616   1.110   1.978   1.291
  477HOH     H1 1617   1.129   2.065   1.256
  477HOH     H2 1618   1.016   1.967   1.278
  478HOH      O 1619   0.188   0.238   0.076
  478HOH     H1 1620   0.108   0.202   0.114
  478HOH     H2 1621   0.244   0.161   0.063
  479HOH      O 1622   2.611   2.949   1.637
  479HOH     H1 1623   2.610   2.943   1.732
  479HOH     H2 1624   2.575   3.036   1.617
  480HOH      O 1625   1.184   0.946   3.359
  480HOH     H1 1626   1.258   0.999   3.390
  480HOH     H2 1627   1.205   0.857   3.387
  481HOH      O 1628   2.927   0.972   3.780
  481HOH     H1 1629   2.936   1.056   3.826
  481HOH     H2 1630   2.993   0.916   3.819
  482HOH      O 1631   0.180   2.566   1.420
  482HOH     H1 1632   0.233   2.492   1.390
  482HOH     H2 1633   0.188   2.632   1.351
  483HOH      O 1634   0.872   3.825   0.798
  483HOH     H1 1635   0.941   3.848   0.736
  483HOH     H2 1636   0.825   3.753   0.756
  484HOH      O 1637   1.230   0.190   2.625
  484HOH     H1 1638   1.307   0.173   2.571
  484HOH     H2 1639   1.166   0.229   2.565
  485HOH      O 1640   0.069   0.822   3.194
  485HOH     H1 1641   0.081   0.732   3.226
  485HOH     H2 1642  -0.005   0.816   3.133
  486HOH      O 1643   0.198   1.419   3.057
  486HOH     H1 1644   0.261   1.375   3.000
  486HOH     H2 1645   0.252   1.475   3.114
  487HOH      O 1646   3.005   2.749   3.251
  487HOH     H1 1647   3.072   2.699   3.204
  487HOH     H2 1648   3.013   2.838   3.218
  488HOH      O 1649   2.363   0.499   1.250
  488HOH     H1 1650   2.410   0.536   1.175
  488HOH     H2 1651   2.274   0.532   1.241
  489HOH      O 1652   0.131   1.532   2.439
  489HOH     H1 1653   0.074   1.501   2.508
  489HOH     H2 1654   0.084   1.512   2.358
  490HOH      O 1655   0.880   0.747   1.272
  490HOH     H1 1656   0.832   0.680   1.222
  490HOH     H2 1657   0.903   0.813   1.207
  491HOH      O 1658   1.977   2.806   0.297
  491HOH     H1 1659   1.912   2.736   0.288
  491HOH     H2 1660   1.945   2.859   0.370
  492HOH      O 1661   3.520   2.664   1.609
  492HOH     H1 1662   3.537   2.607   1.685
  492HOH     H2 1663   3.536   2.607   1.533
  493HOH      O 1664   3.249   0.244   2.733
  493HOH     H1 1665   3.298   0.172   2.772
  493HOH     H2 1666   3.197   0.203   2.664
  494HOH      O 1667   0.796   1.063   1.664
  494HOH     H1 1668   0.848   1.047   1.585
  494HOH     H2 1669   0.711   1.025   1.645
  495HOH      O 1670   0.496   1.210   2.250
  495HOH     H1 1671   0.432   1.261   2.300
  495HOH     H2 1672   0.463   1.120   2.252
  496HOH      O 1673   3.205   2.542   1.501
  496HOH     H1 1674   3.182   2.553   1.593
  496HOH     H2 1675   3.130   2.578   1.453
  497HOH      O 1676   3.932   3.607   2.222
  497HOH     H1 1677   3.844   3.608   2.184
  497HOH     H2 1678   3.921   3.644   2.310
  498HOH      O 1679   1.834   0.814   2.092
  498HOH     H1 1680   1.775   0.743   2.116
  498HOH     H2 1681   1.922   0.779   2.108
  499HOH      O 1682   2.675   1.015   0.041
  499HOH     H1 1683   2.656   1.108   0.028
  499HOH     H2 1684   2.641   0.997   0.129
  500HOH      O 1685   1.390   1.932   0.693
  500HOH     H1 1686   1.451   2.005   0.691
  500HOH     H2 1687   1.441   1.858   0.659
  501HOH      O 1688   2.904   1.607   3.293
  501HOH     H1 1689   2.907   1.522   3.338
  501HOH     H2 1690   2.979   1.606   3.234
  502HOH      O 1691   0.735   2.457   1.595
  502HOH     H1 1692   0.772   2.402   1.525
  502HOH     H2 1693   0.793   2.533   1.599
  503HOH      O 1694   0.526   2.113   3.202
  503HOH     H1 1695   0.603   2.057   3.216
  503HOH     H2 1696   0.523   2.125   3.107
  504HOH      O 1697   1.301   0.325   1.835
  504HOH     H1 1698   1.332   0.306   1.746
  504HOH     H2 1699   1.325   0.417   1.849
  505HOH      O 1700   3.172   2.082   1.063
  505HOH     H1 1701   3.119   2.152   1.102
  505HOH     H2 1702   3.233   2.058   1.133
  506HOH      O 1703   1.623   0.351   2.160
  506HOH     H1 1704   1.678   0.406   2.215
  506HOH     H2 1705   1.626   0.393   2.074
  507HOH      O 1706   3.426   1.042   1.887
  507HOH     H1 1707   3.443   1.051   1.793
  507HOH     H2 1708   3.359   1.108   1.905
  508HOH      O 1709   3.717   0.298   2.064
  508HOH     H1 1710   3.738   0.208   2.088
  508HOH     H2 1711   3.750   0.307   1.974
  509HOH      O 1712   3.292   1.612   3.413
  509HOH     H1 1713   3.387   1.603   3.400
  509HOH     H2 1714   3.254   1.586   3.329
  510HOH      O 1715   2.072   1.325   3.264
  510HOH     H1 1716   1.985   1.356   3.290
  510HOH     H2 1717   2.067   1.230   3.272
  511HOH      O 1718   0.985   3.134   1.720
  511HOH     H1 1719   0.974   3.111   1.628
  511HOH     H2 1720   0.896   3.140   1.754
  512HOH      O 1721   3.001   3.483   3.063
  512HOH     H1 1722   3.032   3.485   3.154
  512HOH     H2 1723   2.959   3.398   3.054
  513HOH      O 1724   2.139   2.513   3.058
  513HOH     H1 1725   2.107   2.429   3.091
  513HOH     H2 1726   2.087   2.529   2.979
  514HOH      O 1727   3.607   1.231   0.367
  514HOH     H1 1728   3.624   1.174   0.442
  514HOH     H2 1729   3.685   1.286   0.360
  515HOH      O 1730   1.876   3.184   0.189
  515HOH     H1 1731   1.900   3.266   0.230
  515HOH     H2 1732   1.785   3.197   0.161
  516HOH      O 1733   1.981   2.552   0.566
  516HOH     H1 1734   2.007   2.617   0.501
  516HOH     H2 1735   1.897   2.584   0.599
  517HOH      O 1736   0.949   1.097   1.287
  517HOH     H1 1737   0.963   1.192   1.282
  517HOH     H2 1738   0.987   1.072   1.371
  518HOH      O 1739   1.681   2.993   1.469
  518HOH     H1 1740   1.586   2.983   1.480
  518HOH     H2 1741   1.703   2.936   1.396
  519HOH      O 1742   3.686   2.791   0.094
  519HOH     H1 1743   3.596   2.770   0.119
  519HOH     H2 1744   3.677   2.865   0.034
  520HOH      O 1745   1.174   2.513   1.179
  520HOH     H1 1746   1.091   2.478   1.147
  520HOH     H2 1747   1.213   2.556   1.103
  521HOH      O 1748   3.282   0.880   3.166
  521HOH     H1 1749   3.308   0.807   3.223
  521HOH     H2 1750   3.334   0.954   3.196
  522HOH      O 1751   0.385   3.322   1.064
  522HOH     H1 1752   0.343   3.383   1.124
  522HOH     H2 1753   0.342   3.338   0.980
  523HOH      O 1754   0.829   4.003   1.061
  523HOH     H1 1755   0.821   3.932   0.997
  523HOH     H2 1756   0.767   4.069   1.032
  524HOH      O 1757   3.361   1.594   2.492
  524HOH     H1 1758   3.303   1.667   2.513
  524HOH     H2 1759   3.308   1.536   2.437
  525HOH      O 1760   0.864   0.575   2.594
  525HOH     H1 1761   0.947   0.527   2.596
  525HOH     H2 1762   0.861   0.612   2.506
  526HOH      O 1763   1.471   2.547   2.864
  526HOH     H1 1764   1.472   2.531   2.958
  526HOH     H2 1765   1.389   2.594   2.849
  527HOH      O 1766   0.588   0.739   3.164
  527HOH     H1 1767   0.657   0.681   3.197
  527HOH     H2 1768   0.568   0.706   3.077
  528HOH      O 1769   2.626   3.546   2.676
  528HOH     H1 1770   2.661   3.634   2.687
  528HOH     H2 1771   2.579   3.549   2.593
  529HOH      O 1772   3.888   2.587   0.416
  529HOH     H1 1773   3.849   2.655   0.470
  529HOH     H2 1774   3.824   2.571   0.347
  530HOH      O 1775   3.739   2.437   0.708
  530HOH     H1 1776   3.658   2.474   0.743
  530HOH     H2 1777   3.739   2.465   0.616
  531HOH      O 1778   3.540   2.125   2.243
  531HOH     H1 1779   3.575   2.073   2.315
  531HOH     H2 1780   3.468   2.175   2.281
  532HOH      O 1781   0.893   3.870   3.202
  532HOH     H1 1782   0.814   3.825   3.232
  532HOH     H2 1783   0.925   3.815   3.130
  533HOH      O 1784   3.944   1.195   2.445
  533HOH     H1 1785   3.915   1.255   2.376
  533HOH     H2 1786   3.917   1.109   2.414
  534HOH      O 1787   0.613   2.309   3.577
  534HOH     H1 1788   0.551   2.283   3.509
  534HOH     H2 1789   0.689   2.254   3.562
  535HOH      O 1790   3.365   0.559   0.405
  535HOH     H1 1791   3.347   0.544   0.312
  535HOH     H2 1792   3.328   0.646   0.423
  536HOH      O 1793   0.231   1.862   2.732
  536HOH     H1 1794   0.304   1.908   2.773
  536HOH     H2 1795   0.264   1.836   2.646
  537HOH      O 1796   2.242   2.035   1.935
  537HOH     H1 1797   2.268   1.955   1.981
  537HOH     H2 1798   2.266   2.020   1.844
  538HOH      O 1799   0.987   1.816   1.875
  538HOH     H1 1800   0.972   1.863   1.793
  538HOH     H2 1801   0.975   1.882   1.943
  539HOH      O 1802   3.460   1.098   3.221
  539HOH     H1 1803   3.508   1.159   3.164
  539HOH     H2 1804   3.513   1.094   3.301
  540HOH      O 1805   0.497   3.687   0.131
  540HOH     H1 1806   0.549   3.747   0.185
  540HOH     H2 1807   0.497   3.605   0.179
  541HOH      O 1808   2.337   1.328   3.801
  541HOH     H1 1809   2.394   1.275   3.745
  541HOH     H2 1810   2.343   1.287   3.887
  542HOH      O 1811   3.728   2.943   1.528
  542HOH     H1 1812   3.680   3.022   1.500
  542HOH     H2 1813   3.770   2.968   1.610
  543HOH      O 1814   0.769   3.299   1.839
  543HOH     H1 1815   0.703   3.232   1.856
  543HOH     H2 1816   0.723   3.364   1.786
  544HOH      O 1817   2.754   2.384   2.091
  544HOH     H1 1818   2.718   2.306   2.049
  544HOH     H2 1819   2.686   2.451   2.080
  545HOH      O 1820   0.490   0.456   3.295
  545HOH     H1 1821   0.517   0.445   3.204
  545HOH     H2 1822   0.570   0.438   3.345
  546HOH      O 1823   0.866   1.254   2.115
  546HOH     H1 1824   0.942   1.257   2.057
  546HOH     H2 1825   0.800   1.204   2.067
  547HOH      O 1826   1.154   2.476   0.505
  547HOH     H1 1827   1.141   2.395   0.456
  547HOH     H2 1828   1.210   2.451   0.579
  548HOH      O 1829   3.657   0.395   2.933
  548HOH     H1 1830   3.708   0.328   2.977
  548HOH     H2 1831   3.705   0.413   2.852
  549HOH      O 1832   2.850   0.079   0.841
  549HOH     H1 1833   2.914   0.133   0.887
  549HOH     H2 1834   2.897  -0.003   0.823
  550HOH      O 1835   0.890   2.639   3.108
  550HOH     H1 1836   0.836   2.711   3.077
  550HOH     H2 1837   0.842   2.604   3.183
  551HOH      O 1838   2.393   0.966   0.674
  551HOH     H1 1839   2.364   0.995   0.588
  551HOH     H2 1840   2.489   0.971   0.670
  552HOH      O 1841   0.395   1.004   1.161
  552HOH     H1 1842   0.404   0.932   1.223
  552HOH     H2 1843   0.472   0.996   1.105
  553HOH      O 1844   0.169   2.528   1.004
  553HOH     H1 1845   0.148   2.582   1.080
  553HOH     H2 1846   0.142   2.440   1.028
  554HOH      O 1847   2.669   2.643   3.008
  554HOH     H1 1848   2.699   2.598   3.088
  554HOH     H2 1849   2.747   2.690   2.977
  555HOH      O 1850   1.832   2.137   2.188
  555HOH     H1 1851   1.853   2.076   2.259
  555HOH     H2 1852   1.915   2.151   2.143
  556HOH      O 1853   3.934   1.102   1.425
  556HOH     H1 1854   3.926   1.020   1.376
  556HOH     H2 1855   3.861   1.156   1.396
  557HOH      O 1856   0.694   1.506   0.918
  557HOH     H1 1857   0.611   1.530   0.960
  557HOH     H2 1858   0.681   1.530   0.826
  558HOH      O 1859   2.617   3.254   3.131
  558HOH     H1 1860   2.626   3.194   3.057
  558HOH     H2 1861   2.634   3.341   3.093
  559HOH      O 1862   1.003   3.683   3.021
  559HOH     H1 1863   1.022   3.599   3.061
  559HOH     H2 1864   1.087   3.716   2.991
  560HOH      O 1865   2.186   3.288   0.417
  560HOH     H1 1866   2.271   3.245   0.404
  560HOH     H2 1867   2.180   3.301   0.511
  561HOH      O 1868   2.838   2.314   0.366
  561HOH     H1 1869   2.746   2.332   0.349
  561HOH     H2 1870   2.878   2.307   0.280
  562HOH      O 1871   0.392   1.027   2.670
  562HOH     H1 1872   0.305   1.061   2.646
  562HOH     H2 1873   0.380   0.932   2.676
  563HOH      O 1874   0.481   2.752   0.279
  563HOH     H1 1875   0.409   2.773   0.339
  563HOH     H2 1876   0.546   2.709   0.334
  564HOH      O 1877   0.201   1.651   3.481
  564HOH     H1 1878   0.211   1.746   3.489
  564HOH     H2 1879   0.137   1.628   3.549
  565HOH      O 1880   1.673   2.028   2.730
  565HOH     H1 1881   1.740   2.084   2.690
  565HOH     H2 1882   1.691   1.941   2.693
  566HOH      O 1883   0.413   3.292  -0.005
  566HOH     H1 1884   0.447   3.356   0.057
  566HOH     H2 1885   0.383   3.219   0.049
  567HOH      O 1886   0.761   3.043   2.778
  567HOH     H1 1887   0.828   3.012   2.717
  567HOH     H2 1888   0.693   2.976   2.775
  568HOH      O 1889   1.618   0.690   2.268
  568HOH     H1 1890   1.629   0.771   2.318
  568HOH     H2 1891   1.527   0.691   2.240
  569HOH      O 1892   2.278   1.892   3.334
  569HOH     H1 1893   2.322   1.812   3.363
  569HOH     H2 1894   2.299   1.899   3.241
  570HOH      O 1895   0.007   1.466   2.669
  570HOH     H1 1896   0.018   1.541   2.728
  570HOH     H2 1897   0.019   1.390   2.726
  571HOH      O 1898   1.153   3.137   0.123
  571HOH     H1 1899   1.093   3.182   0.064
  571HOH     H2 1900   1.096   3.085   0.179
  572HOH      O 1901   0.623   0.149   1.032
  572HOH     H1 1902   0.617   0.208   0.957
  572HOH     H2 1903   0.533   0.117   1.045
  573HOH      O 1904   2.901   0.497   0.253
  573HOH     H1 1905   2.950   0.577   0.268
  573HOH     H2 1906   2.846   0.516   0.177
  574HOH      O 1907   2.422   2.584   0.528
  574HOH     H1 1908   2.374   2.604   0.609
  574HOH     H2 1909   2.363   2.613   0.458
  575HOH      O 1910   3.288   2.217   3.290
  575HOH     H1 1911   3.211   2.232   3.345
  575HOH     H2 1912   3.362   2.225   3.350
  576HOH      O 1913   3.724   2.567   3.320
  576HOH     H1 1914   3.695   2.621   3.247
  576HOH     H2 1915   3.798   2.517   3.285
  577HOH      O 1916   0.293   2.714   2.855
  577HOH     H1 1917   0.209   2.759   2.862
  577HOH     H2 1918   0.348   2.754   2.922
  578HOH      O 1919   1.368   1.210   0.041
  578HOH     H1 1920   1.388   1.300   0.065
  578HOH     H2 1921   1.346   1.167   0.123
  579HOH      O 1922   2.183   2.998   0.364
  579HOH     H1 1923   2.156   3.003   0.272
  579HOH     H2 1924   2.102   2.991   0.413
  580HOH      O 1925   1.401   2.692   0.211
  580HOH     H1 1926   1.319   2.739   0.199
  580HOH     H2 1927   1.434   2.678   0.123
  581HOH      O 1928   3.430   0.262   3.023
  581HOH     H1 1929   3.360   0.326   3.033
  581HOH     H2 1930   3.511   0.313   3.033
  582HOH      O 1931   0.910   2.732   3.599
  582HOH     H1 1932   0.848   2.730   3.672
  582HOH     H2 1933   0.976   2.796   3.625
  583HOH      O 1934   3.413   0.434   2.591
  583HOH     H1 1935   3.372   0.405   2.509
  583HOH     H2 1936   3.390   0.367   2.655
  584HOH      O 1937   0.879   3.674   1.482
  584HOH     H1 1938   0.821   3.667   1.559
  584HOH     H2 1939   0.920   3.588   1.475
  585HOH      O 1940   2.338   0.343   1.991
  585HOH     H1 1941   2.299   0.257   2.004
  585HOH     H2 1942   2.392   0.333   1.912
  586HOH      O 1943   3.471   1.253   1.503
  586HOH     H1 1944   3.552   1.282   1.461
  586HOH     H2 1945   3.405   1.258   1.434
  587HOH      O 1946   0.609   3.243   0.636
  587HOH     H1 1947   0.583   3.151   0.642
  587HOH     H2 1948   0.703   3.242   0.652
  588HOH      O 1949   2.381   0.379   0.737
  588HOH     H1 1950   2.410   0.295   0.774
  588HOH     H2 1951   2.339   0.355   0.654
  589HOH      O 1952   3.548   1.095   1.191
  589HOH     H1 1953   3.540   1.011   1.236
  589HOH     H2 1954   3.535   1.074   1.098
  590HOH      O 1955   3.618   0.919   2.296
  590HOH     H1 1956   3.565   0.897   2.372
  590HOH     H2 1957   3.584   1.004   2.267
  591HOH      O 1958   3.362   2.898   1.653
  591HOH     H1 1959   3.423   2.931   1.719
  591HOH     H2 1960   3.392   2.810   1.634
  592HOH      O 1961   1.923   3.493   2.579
  592HOH     H1 1962   1.896   3.571   2.628
  592HOH     H2 1963   1.849   3.474   2.522
  593HOH      O 1964   3.208   0.783   0.448
  593HOH     H1 1965   3.266   0.782   0.524
  593HOH     H2 1966   3.128   0.740   0.478
  594HOH      O 1967   3.430   0.555   0.102
  594HOH     H1 1968   3.481   0.602   0.037
  594HOH     H2 1969   3.340   0.582   0.086
  595HOH      O 1970   0.863   4.011   2.235
  595HOH     H1 1971   0.802   4.005   2.308
  595HOH     H2 1972   0.822   3.959   2.165
  596HOH      O 1973   1.134   1.002   1.875
  596HOH     H1 1974   1.214   0.998   1.823
  596HOH     H2 1975   1.088   0.920   1.854
  597HOH      O 1976   3.368   0.299   0.160
  597HOH     H1 1977   3.430   0.242   0.205
  597HOH     H2 1978   3.411   0.384   0.158
  598HOH      O 1979   3.007   2.393   3.023
  598HOH     H1 1980   2.958   2.414   3.103
  598HOH     H2 1981   2.957   2.322   2.983
  599HOH      O 1982   2.852   2.896   2.902
  599HOH     H1 1983   2.866   2.986   2.933
  599HOH     H2 1984   2.937   2.869   2.868
  600HOH      O 1985   2.435   0.238   0.978
  600HOH     H1 1986   2.524   0.218   1.006
  600HOH     H2 1987   2.420   0.328   1.008
  601HOH      O 1988   2.887   0.649   4.003
  601HOH     H1 1989   2.971   0.657   3.957
  601HOH     H2 1990   2.842   0.577   3.959
  602HOH      O 1991   1.003   1.660   1.266
  602HOH     H1 1992   0.959   1.682   1.184
  602HOH     H2 1993   0.990   1.737   1.322
  603HOH      O 1994   1.338   0.465   0.256
  603HOH     H1 1995   1.408   0.403   0.274
  603HOH     H2 1996   1.276   0.453   0.327
  604HOH      O 1997   1.145   0.455   0.492
  604HOH     H1 1998   1.069   0.513   0.498
  604HOH     H2 1999   1.169   0.438   0.584
  605HOH      O 2000   1.762   3.417   2.119
  605HOH     H1 2001   1.803   3.468   2.189
  605HOH     H2 2002   1.820   3.430   2.043
  606HOH      O 2003   3.135   3.662   0.356
  606HOH     H1 2004   3.102   3.729   0.417
  606HOH     H2 2005   3.072   3.662   0.284
  607HOH      O 2006   2.241   2.203   0.563
  607HOH     H1 2007   2.188   2.125   0.547
  607HOH     H2 2008   2.188   2.255   0.624
  608HOH      O 2009   1.199   2.076   2.419
  608HOH     H1 2010   1.268   2.141   2.431
  608HOH     H2 2011   1.223   2.005   2.479
  609HOH      O 2012   4.014   1.559   2.191
  609HOH     H1 2013   4.076   1.611   2.140
  609HOH     H2 2014   3.948   1.531   2.127
  610HOH      O 2015   2.108   0.736   0.273
  610HOH     H1 2016   2.099   0.831   0.278
  610HOH     H2 2017   2.024   0.706   0.237
  611HOH      O 2018   1.603   2.067   2.044
  611HOH     H1 2019   1.664   2.114   2.101
  611HOH     H2 2020   1.655   2.043   1.967
  612HOH      O 2021   2.631   0.447   0.209
  612HOH     H1 2022   2.624   0.479   0.119
  612HOH     H2 2023   2.549   0.472   0.251
  613HOH      O 2024   2.949   3.916   2.605
  613HOH     H1 2025   2.906   3.873   2.531
  613HOH     H2 2026   2.990   3.994   2.566
  614HOH      O 2027   1.842   0.768   2.836
  614HOH     H1 2028   1.854   0.762   2.742
  614HOH     H2 2029   1.808   0.857   2.851
  615HOH      O 2030   3.339   0.790   1.307
  615HOH     H1 2031   3.329   0.708   1.355
  615HOH     H2 2032   3.382   0.764   1.225
  616HOH      O 2033   1.380   1.969   1.918
  616HOH     H1 2034   1.340   2.052   1.891
  616HOH     H2 2035   1.452   1.994   1.975
  617HOH      O 2036   1.705   3.946   3.886
  617HOH     H1 2037   1.609   3.939   3.879
  617HOH     H2 2038   1.729   3.878   3.949
  618HOH      O 2039   0.042   0.495   2.349
  618HOH     H1 2040  -0.025   0.494   2.281
  618HOH     H2 2041   0.108   0.556   2.316
  619HOH      O 2042   1.903   1.280   1.793
  619HOH     H1 2043   1.889   1.312   1.704
  619HOH     H2 2044   1.815   1.269   1.828
  620HOH      O 2045   2.899   2.348   0.100
  620HOH     H1 2046   2.972   2.381   0.048
  620HOH     H2 2047   2.821   2.387   0.060
  621HOH      O 2048   2.459   1.362   0.711
  621HOH     H1 2049   2.398   1.425   0.748
  621HOH     H2 2050   2.516   1.338   0.784
  622HOH      O 2051   2.731   0.448   1.077
  622HOH     H1 2052   2.661   0.472   1.016
  622HOH     H2 2053   2.797   0.516   1.066
  623HOH      O 2054   0.778   1.302   2.885
  623HOH     H1 2055   0.813   1.260   2.963
  623HOH     H2 2056   0.775   1.232   2.819
  624HOH      O 2057   3.639   1.582   1.328
  624HOH     H1 2058   3.724   1.593   1.370
  624HOH     H2 2059   3.576   1.609   1.395
  625HOH      O 2060   0.901   1.308   0.092
  625HOH     H1 2061   0.809   1.329   0.078
  625HOH     H2 2062   0.927   1.259   0.015
  626HOH      O 2063   2.453   1.453   3.514
  626HOH     H1 2064   2.371   1.483   3.473
  626HOH     H2 2065   2.454   1.496   3.599
  627HOH      O 2066   1.202   3.115   2.377
  627HOH     H1 2067   1.290   3.084   2.355
  627HOH     H2 2068   1.151   3.103   2.297
  628HOH      O 2069   3.681   1.901   3.822
  628HOH     H1 2070   3.736   1.837   3.775
  628HOH     H2 2071   3.622   1.935   3.755
  629HOH      O 2072   1.810   2.821   3.147
  629HOH     H1 2073   1.891   2.838   3.100
  629HOH     H2 2074   1.748   2.792   3.080
  630HOH      O 2075   1.274   1.967  -0.025
  630HOH     H1 2076   1.273   1.899   0.042
  630HOH     H2 2077   1.199   2.023  -0.003
  631HOH      O 2078   0.551   0.172   2.678
  631HOH     H1 2079   0.646   0.185   2.688
  631HOH     H2 2080   0.522   0.143   2.764
  632HOH      O 2081   4.058   3.451   1.141
  632HOH     H1 2082   3.993   3.492   1.083
  632HOH     H2 2083   4.017   3.370   1.170
  633HOH      O 2084   0.971   0.112   0.507
  633HOH     H1 2085   0.933   0.156   0.584
  633HOH     H2 2086   0.907   0.045   0.483
  634HOH      O 2087   3.194   0.837   3.876
  634HOH     H1 2088   3.242   0.876   3.949
  634HOH     H2 2089   3.234   0.751   3.864
  635HOH      O 2090   2.310   2.952   2.371
  635HOH     H1 2091   2.372   3.024   2.355
  635HOH     H2 2092   2.225   2.994   2.374
  636HOH      O 2093   0.661   1.439   1.836
  636HOH     H1 2094   0.599   1.435   1.910
  636HOH     H2 2095   0.742   1.470   1.875
  637HOH      O 2096   3.649   0.113   1.780
  637HOH     H1 2097   3.554   0.120   1.771
  637HOH     H2 2098   3.679   0.204   1.774
  638HOH      O 2099   3.126   0.706   1.680
  638HOH     H1 2100   3.135   0.766   1.606
  638HOH     H2 2101   3.212   0.665   1.688
  639HOH      O 2102   2.509   0.645   3.585
  639HOH     H1 2103   2.530   0.685   3.501
  639HOH     H2 2104   2.474   0.717   3.637
  640HOH      O 2105   0.511   2.561   3.485
  640HOH     H1 2106   0.549   2.533   3.568
  640HOH     H2 2107   0.487   2.479   3.442
  641HOH      O 2108   1.821   1.960   2.416
  641HOH     H1 2109   1.817   1.879   2.467
  641HOH     H2 2110   1.836   2.029   2.481
  642HOH      O 2111   1.004   0.696   0.555
  642HOH     H1 2112   0.919   0.708   0.598
  642HOH     H2 2113   0.983   0.694   0.461
  643HOH      O 2114   2.885   1.843   3.392
  643HOH     H1 2115   2.895   1.896   3.313
  643HOH     H2 2116   2.917   1.756   3.366
  644HOH      O 2117   3.284   2.372   3.062
  644HOH     H1 2118   3.190   2.376   3.042
  644HOH     H2 2119   3.289   2.323   3.144
  645HOH      O 2120   2.341   1.826   2.051
  645HOH     H1 2121   2.370   1.750   2.000
  645HOH     H2 2122   2.421   1.876   2.067
  646HOH      O 2123   2.838   0.614   2.903
  646HOH     H1 2124   2.800   0.568   2.828
  646HOH     H2 2125   2.867   0.544   2.962
  647HOH      O 2126   3.111   2.962   1.774
  647HOH     H1 2127   3.180   2.914   1.728
  647HOH     H2 2128   3.041   2.971   1.709
  648HOH      O 2129   4.020  -0.008   2.427
  648HOH     H1 2130   4.021   0.057   2.357
  648HOH     H2 2131   3.932  -0.005   2.463
  649HOH      O 2132   1.573   1.077   3.173
  649HOH     H1 2133   1.550   1.144   3.239
  649HOH     H2 2134   1.530   0.998   3.204
  650HOH      O 2135   1.258   0.984   0.393
  650HOH     H1 2136   1.170   1.008   0.364
  650HOH     H2 2137   1.316   1.020   0.325
  651HOH      O 2138   0.482   2.222   0.748
  651HOH     H1 2139   0.415   2.166   0.787
  651HOH     H2 2140   0.435   2.275   0.684
  652HOH      O 2141   1.042   0.450   3.538
  652HOH     H1 2142   1.094   0.478   3.464
  652HOH     H2 2143   0.970   0.400   3.499
  653HOH      O 2144   0.138   1.244   2.131
  653HOH     H1 2145   0.142   1.247   2.227
  653HOH     H2 2146   0.051   1.209   2.112
  654HOH      O 2147   0.943   2.290   1.402
  654HOH     H1 2148   0.864   2.243   1.375
  654HOH     H2 2149   1.010   2.260   1.340
  655HOH      O 2150   3.861   1.763   2.933
  655HOH     H1 2151   3.817   1.832   2.983
  655HOH     H2 2152   3.874   1.801   2.846
  656HOH      O 2153   0.157   2.035   2.465
  656HOH     H1 2154   0.109   2.064   2.388
  656HOH     H2 2155   0.247   2.021   2.434
  657HOH      O 2156   2.128   3.746   2.286
  657HOH     H1 2157   2.118   3.674   2.348
  657HOH     H2 2158   2.207   3.726   2.237
  658HOH      O 2159   3.702   1.755   0.031
  658HOH     H1 2160   3.620   1.793   0.062
  658HOH     H2 2161   3.726   1.809  -0.045
  659HOH      O 2162   0.247   0.982   2.324
  659HOH     H1 2163   0.339   0.965   2.301
  659HOH     H2 2164   0.202   0.984   2.240
  660HOH      O 2165   0.398   2.213   1.233
  660HOH     H1 2166   0.457   2.155   1.185
  660HOH     H2 2167   0.323   2.225   1.174
  661HOH      O 2168   1.402   0.241   1.556
  661HOH     H1 2169   1.429   0.153   1.532
  661HOH     H2 2170   1.483   0.288   1.575
  662HOH      O 2171   2.022   3.576   0.626
  662HOH     H1 2172   2.015   3.539   0.714
  662HOH     H2 2173   1.941   3.626   0.616
  663HOH      O 2174   2.964   2.744   2.330
  663HOH     H1 2175   2.871   2.767   2.325
  663HOH     H2 2176   2.992   2.778   2.415
  664HOH      O 2177   0.167   2.555   2.338
  664HOH     H1 2178   0.142   2.595   2.421
  664HOH     H2 2179   0.087   2.557   2.285
  665HOH      O 2180   1.033   0.599   1.578
  665HOH     H1 2181   1.019   0.535   1.508
  665HOH     H2 2182   1.099   0.659   1.542
  666HOH      O 2183   1.713   2.549   0.765
  666HOH     H1 2184   1.699   2.644   0.769
  666HOH     H2 2185   1.728   2.523   0.855
  667HOH      O 2186   3.612   0.052   3.511
  667HOH     H1 2187   3.528   0.037   3.467
  667HOH     H2 2188   3.665  -0.024   3.488
  668HOH      O 2189   3.668   1.288   3.140
  668HOH     H1 2190   3.701   1.371   3.104
  668HOH     H2 2191   3.725   1.270   3.215
  669HOH      O 2192   2.398   2.836   0.944
  669HOH     H1 2193   2.490   2.812   0.952
  669HOH     H2 2194   2.368   2.849   1.035
  670HOH      O 2195   0.345   0.435   2.087
  670HOH     H1 2196   0.387   0.408   2.006
  670HOH     H2 2197   0.253   0.447   2.064
  671HOH      O 2198   3.132   3.402   0.847
  671HOH     H1 2199   3.072   3.466   0.886
  671HOH     H2 2200   3.199   3.388   0.914
  672HOH      O 2201   2.264   3.938   1.479
  672HOH     H1 2202   2.241   3.878   1.408
  672HOH     H2 2203   2.347   3.977   1.451
  673HOH      O 2204   0.297   2.723   3.832
  673HOH     H1 2205   0.356   2.782   3.784
  673HOH     H2 2206   0.342   2.705   3.914
  674HOH      O 2207   0.151   0.629   0.660
  674HOH     H1 2208   0.192   0.715   0.664
  674HOH     H2 2209   0.057   0.647   0.663
  675HOH      O 2210   0.714   0.244   0.530
  675HOH     H1 2211   0.771   0.218   0.457
  675HOH     H2 2212   0.635   0.191   0.518
  676HOH      O 2213   0.369   3.378   1.758
  676HOH     H1 2214   0.311   3.302   1.767
  676HOH     H2 2215   0.431   3.370   1.830
  677HOH      O 2216   0.662   1.634   3.883
  677HOH     H1 2217   0.654   1.642   3.788
  677HOH     H2 2218   0.573   1.637   3.916
  678HOH      O 2219   1.516   3.167   3.472
  678HOH     H1 2220   1.575   3.240   3.451
  678HOH     H2 2221   1.558   3.124   3.547
  679HOH      O 2222   0.165   1.808   1.517
  679HOH     H1 2223   0.115   1.863   1.577
  679HOH     H2 2224   0.213   1.870   1.461
  680HOH      O 2225   2.883   1.041   0.919
  680HOH     H1 2226   2.792   1.053   0.945
  680HOH     H2 2227   2.933   1.093   0.982
  681HOH      O 2228   1.246   1.070   1.394
  681HOH     H1 2229   1.287   1.090   1.310
  681HOH     H2 2230   1.261   0.976   1.406
  682HOH      O 2231   2.993   2.712   3.808
  682HOH     H1 2232   2.933   2.782   3.831
  682HOH     H2 2233   3.046   2.748   3.736
  683HOH      O 2234   1.473   3.456   3.626
  683HOH     H1 2235   1.399   3.400   3.648
  683HOH     H2 2236   1.460   3.535   3.678
  684HOH      O 2237   3.718   0.927   1.829
  684HOH     H1 2238   3.786   0.981   1.788
  684HOH     H2 2239   3.637   0.954   1.787
  685HOH      O 2240   2.528   3.117   2.879
  685HOH     H1 2241   2.566   3.056   2.817
  685HOH     H2 2242   2.466   3.168   2.826
  686HOH      O 2243   2.202   1.123   0.840
  686HOH     H1 2244   2.255   1.171   0.904
  686HOH     H2 2245   2.264   1.101   0.770
  687HOH      O 2246   0.826   2.539   2.062
  687HOH     H1 2247   0.769   2.504   2.131
  687HOH     H2 2248   0.892   2.471   2.048
  688HOH      O 2249   3.014   1.025   3.296
  688HOH     H1 2250   3.064   1.106   3.293
  688HOH     H2 2251   2.923   1.051   3.287
  689HOH      O 2252   2.052   1.073   3.401
  689HOH     H1 2253   2.146   1.071   3.420
  689HOH     H2 2254   2.014   1.120   3.475
  690HOH      O 2255   2.059   0.250   3.606
  690HOH     H1 2256   1.978   0.301   3.610
  690HOH     H2 2257   2.087   0.257   3.514
  691HOH      O 2258   0.062   2.802   0.053
  691HOH     H1 2259   0.142   2.750   0.054
  691HOH     H2 2260  -0.004   2.744   0.017
  692HOH      O 2261   2.301   2.717   0.305
  692HOH     H1 2262   2.257   2.801   0.321
  692HOH     H2 2263   2.236   2.664   0.258
  693HOH      O 2264   3.857   0.019   2.812
  693HOH     H1 2265   3.849   0.043   2.720
  693HOH     H2 2266   3.949  -0.006   2.822
  694HOH      O 2267   0.324   0.193   2.540
  694HOH     H1 2268   0.411   0.187   2.578
  694HOH     H2 2269   0.338   0.177   2.446
  695HOH      O 2270   0.884   1.981   1.655
  695HOH     H1 2271   0.839   1.902   1.625
  695HOH     H2 2272   0.970   1.977   1.615
  696HOH      O 2273   3.606   2.889   2.149
  696HOH     H1 2274   3.520   2.849   2.136
  696HOH     H2 2275   3.593   2.981   2.124
  697HOH      O 2276   1.226   0.443   3.031
  697HOH     H1 2277   1.239   0.529   2.991
  697HOH     H2 2278   1.132   0.427   3.023
  698HOH      O 2279   0.372   1.267   1.607
  698HOH     H1 2280   0.450   1.251   1.553
  698HOH     H2 2281   0.302   1.220   1.563
  699HOH      O 2282   3.329   1.472   0.356
  699HOH     H1 2283   3.334   1.396   0.298
  699HOH     H2 2284   3.382   1.539   0.313
  700HOH      O 2285   1.376   1.349   3.199
  700HOH     H1 2286   1.384   1.345   3.104
  700HOH     H2 2287   1.311   1.418   3.215
  701HOH      O 2288   1.018   1.028   3.163
  701HOH     H1 2289   1.086   0.977   3.209
  701HOH     H2 2290   0.946   1.033   3.226
  702HOH      O 2291   2.624   0.832   0.871
  702HOH     H1 2292   2.576   0.883   0.936
  702HOH     H2 2293   2.643   0.894   0.801
  703HOH      O 2294   0.721   1.111   1.946
  703HOH     H1 2295   0.771   1.120   1.865
  703HOH     H2 2296   0.631   1.096   1.917
  704HOH      O 2297   1.470   3.017   3.720
  704HOH     H1 2298   1.394   3.027   3.778
  704HOH     H2 2299   1.451   2.939   3.668
  705HOH      O 2300   0.343   3.078   1.318
  705HOH     H1 2301   0.323   3.009   1.254
  705HOH     H2 2302   0.300   3.050   1.398
  706HOH      O 2303   2.492   3.255   0.185
  706HOH     H1 2304   2.477   3.242   0.279
  706HOH     H2 2305   2.515   3.169   0.152
  707HOH      O 2306   2.127   0.664   1.829
  707HOH     H1 2307   2.144   0.716   1.908
  707HOH     H2 2308   2.214   0.636   1.801
  708HOH      O 2309   1.618   2.061   0.955
  708HOH     H1 2310   1.557   1.993   0.984
  708HOH     H2 2311   1.686   2.013   0.907
  709HOH      O 2312   1.372   2.434   3.661
  709HOH     H1 2313   1.415   2.397   3.585
  709HOH     H2 2314   1.282   2.451   3.633
  710HOH      O 2315   1.617   1.632   1.795
  710HOH     H1 2316   1.707   1.663   1.808
  710HOH     H2 2317   1.576   1.700   1.742
  711HOH      O 2318   2.575   1.568   1.611
  711HOH     H1 2319   2.543   1.595   1.525
  711HOH     H2 2320   2.663   1.606   1.617
  712HOH      O 2321   3.517   3.864   0.368
  712HOH     H1 2322   3.553   3.905   0.446
  712HOH     H2 2323   3.581   3.796   0.345
  713HOH      O 2324   2.852   0.788   2.676
  713HOH     H1 2325   2.838   0.740   2.758
  713HOH     H2 2326   2.916   0.856   2.699
  714HOH      O 2327   1.784   3.247   3.494
  714HOH     H1 2328   1.799   3.256   3.400
  714HOH     H2 2329   1.776   3.153   3.509
  715HOH      O 2330   3.633   1.214   3.971
  715HOH     H1 2331   3.542   1.237   3.951
  715HOH     H2 2332   3.664   1.288   4.024
  716HOH      O 2333   2.555   1.045   0.274
  716HOH     H1 2334   2.521   1.113   0.333
  716HOH     H2 2335   2.478   0.994   0.248
  717HOH      O 2336   0.490   0.156   1.711
  717HOH     H1 2337   0.479   0.061   1.713
  717HOH     H2 2338   0.575   0.169   1.668
  718HOH      O 2339   1.785   0.470   0.467
  718HOH     H1 2340   1.746   0.541   0.519
  718HOH     H2 2341   1.823   0.514   0.391
  719HOH      O 2342   2.206   2.753   2.732
  719HOH     H1 2343   2.161   2.718   2.808
  719HOH     H2 2344   2.145   2.815   2.693
  720HOH      O 2345   2.599   1.830   3.439
  720HOH     H1 2346   2.585   1.919   3.407
  720HOH     H2 2347   2.690   1.810   3.417
  721HOH      O 2348   3.704   0.043   2.189
  721HOH     H1 2349   3.646  -0.033   2.185
  721HOH     H2 2350   3.774   0.023   2.127
  722HOH      O 2351   1.535   3.906   3.354
  722HOH     H1 2352   1.620   3.948   3.366
  722HOH     H2 2353   1.472   3.976   3.365
  723HOH      O 2354   3.149   0.519   0.061
  723HOH     H1 2355   3.055   0.502   0.053
  723HOH     H2 2356   3.155   0.600   0.112
  724HOH      O 2357   0.847   1.455   2.459
  724HOH     H1 2358   0.810   1.519   2.520
  724HOH     H2 2359   0.772   1.424   2.408
  725HOH      O 2360   1.693   1.790   2.627
  725HOH     H1 2361   1.750   1.718   2.654
  725HOH     H2 2362   1.612   1.747   2.600
  726HOH      O 2363   2.777   0.313   3.552
  726HOH     H1 2364   2.842   0.263   3.602
  726HOH     H2 2365   2.741   0.376   3.614
  727HOH      O 2366   3.864   2.100   2.383
  727HOH     H1 2367   3.808   2.070   2.455
  727HOH     H2 2368   3.829   2.186   2.359
  728HOH      O 2369   1.013   2.174   2.604
  728HOH     H1 2370   0.968   2.090   2.596
  728HOH     H2 2371   1.047   2.192   2.516
  729HOH      O 2372   3.353   2.871   2.977
  729HOH     H1 2373   3.432   2.821   2.958
  729HOH     H2 2374   3.378   2.932   3.046
  730HOH      O 2375   1.633   0.258   3.246
  730HOH     H1 2376   1.715   0.294   3.211
  730HOH     H2 2377   1.660   0.177   3.290
  731HOH      O 2378   0.060   2.544   0.579
  731HOH     H1 2379  -0.008   2.557   0.513
  731HOH     H2 2380   0.039   2.607   0.648
  732HOH      O 2381   1.978   0.444   1.757
  732HOH     H1 2382   1.978   0.391   1.836
  732HOH     H2 2383   2.024   0.524   1.781
  733HOH      O 2384   0.659   1.893   3.452
  733HOH     H1 2385   0.718   1.950   3.403
  733HOH     H2 2386   0.598   1.953   3.494
  734HOH      O 2387   1.646   1.161   2.915
  734HOH     H1 2388   1.612   1.146   3.003
  734HOH     H2 2389   1.628   1.254   2.898
  735HOH      O 2390   3.858   1.363   0.179
  735HOH     H1 2391   3.895   1.300   0.241
  735HOH     H2 2392   3.822   1.432   0.235
  736HOH      O 2393   0.588   3.935   2.882
  736HOH     H1 2394   0.529   3.920   2.808
  736HOH     H2 2395   0.610   3.847   2.913
  737HOH      O 2396   2.476   3.484   2.236
  737HOH     H1 2397   2.496   3.465   2.328
  737HOH     H2 2398   2.385   3.456   2.225
  738HOH      O 2399   0.662   2.743   3.770
  738HOH     H1 2400   0.625   2.794   3.842
  738HOH     H2 2401   0.677   2.656   3.807
  739HOH      O 2402   0.523   3.796   3.905
  739HOH     H1 2403   0.485   3.762   3.987
  739HOH     H2 2404   0.552   3.885   3.928
  740HOH      O 2405   2.965   0.939   0.078
  740HOH     H1 2406   2.907   0.956   0.152
  740HOH     H2 2407   2.936   0.854   0.044
  741HOH      O 2408   1.291   2.616   0.963
  741HOH     H1 2409   1.208   2.624   0.917
  741HOH     H2 2410   1.351   2.674   0.916
  742HOH      O 2411   0.846   2.188   3.568
  742HOH     H1 2412   0.930   2.230   3.546
  742HOH     H2 2413   0.868   2.129   3.640
  743HOH      O 2414   0.063   1.516   0.938
  743HOH     H1 2415  -0.028   1.541   0.920
  743HOH     H2 2416   0.088   1.569   1.013
  744HOH      O 2417   2.018   1.691   2.428
  744HOH     H1 2418   2.085   1.658   2.488
  744HOH     H2 2419   2.068   1.731   2.357
  745HOH      O 2420   0.260   1.810   0.685
  745HOH     H1 2421   0.171   1.820   0.652
  745HOH     H2 2422   0.316   1.823   0.608
  746HOH      O 2423   3.618   0.281   3.695
  746HOH     H1 2424   3.543   0.317   3.648
  746HOH     H2 2425   3.627   0.192   3.663
  747HOH      O 2426   3.827   3.751   2.427
  747HOH     H1 2427   3.765   3.817   2.397
  747HOH     H2 2428   3.782   3.706   2.498
  748HOH      O 2429   1.760   0.984   3.430
  748HOH     H1 2430   1.810   1.060   3.400
  748HOH     H2 2431   1.823   0.912   3.427
  749HOH      O 2432   2.336   1.490   1.708
  749HOH     H1 2433   2.419   1.526   1.680
  749HOH     H2 2434   2.271   1.554   1.679
  750HOH      O 2435   0.991   2.355   0.831
  750HOH     H1 2436   1.041   2.359   0.749
  750HOH     H2 2437   0.903   2.384   0.807
  751HOH      O 2438  -0.027   3.995   3.344
  751HOH     H1 2439   0.014   4.003   3.258
  751HOH     H2 2440   0.045   3.982   3.404
  752HOH      O 2441   0.501   0.928   2.271
  752HOH     H1 2442   0.561   0.897   2.340
  752HOH     H2 2443   0.509   0.862   2.203
  753HOH      O 2444   2.755   1.120   2.380
  753HOH     H1 2445   2.714   1.124   2.294
  753HOH     H2 2446   2.765   1.026   2.396
  754HOH      O 2447   0.560   2.653   1.696
  754HOH     H1 2448   0.632   2.590   1.694
  754HOH     H2 2449   0.583   2.718   1.629
  755HOH      O 2450   0.498   0.710   0.785
  755HOH     H1 2451   0.470   0.774   0.719
  755HOH     H2 2452   0.546   0.762   0.850
  756HOH      O 2453   0.825   0.337   3.413
  756HOH     H1 2454   0.775   0.289   3.479
  756HOH     H2 2455   0.846   0.271   3.346
  757HOH      O 2456   2.288   0.799   0.873
  757HOH     H1 2457   2.324   0.842   0.795
  757HOH     H2 2458   2.221   0.740   0.838
  758HOH      O 2459   2.375   0.690   3.941
  758HOH     H1 2460   2.466   0.710   3.960
  758HOH     H2 2461   2.326   0.767   3.971
  759HOH      O 2462   1.754   2.515   2.087
  759HOH     H1 2463   1.848   2.501   2.099
  759HOH     H2 2464   1.724   2.437   2.040
  760HOH      O 2465   1.846   0.964   1.423
  760HOH     H1 2466   1.807   1.013   1.351
  760HOH     H2 2467   1.853   0.875   1.389
  761HOH      O 2468   2.345   2.981   3.281
  761HOH     H1 2469   2.432   2.963   3.317
  761HOH     H2 2470   2.348   2.948   3.192
  762HOH      O 2471   1.418   2.278   2.191
  762HOH     H1 2472   1.463   2.193   2.194
  762HOH     H2 2473   1.407   2.296   2.098
  763HOH      O 2474   0.842   1.986   1.245
  763HOH     H1 2475   0.786   1.917   1.209
  763HOH     H2 2476   0.786   2.063   1.250
  764HOH      O 2477   2.634   0.513   1.511
  764HOH     H1 2478   2.655   0.605   1.492
  764HOH     H2 2479   2.661   0.466   1.432
  765HOH      O 2480   3.926   0.298   0.591
  765HOH     H1 2481   3.889   0.251   0.516
  765HOH     H2 2482   3.900   0.246   0.667
  766HOH      O 2483   2.745   0.851   2.415
  766HOH     H1 2484   2.763   0.828   2.506
  766HOH     H2 2485   2.796   0.788   2.363
  767HOH      O 2486   1.609   4.001   0.517
  767HOH     H1 2487   1.538   3.985   0.455
  767HOH     H2 2488   1.632   4.093   0.504
  768HOH      O 2489   1.927   1.184   3.616
  768HOH     H1 2490   1.849   1.196   3.670
  768HOH     H2 2491   1.975   1.266   3.625
  769HOH      O 2492   3.209   1.619   1.900
  769HOH     H1 2493   3.137   1.597   1.960
  769HOH     H2 2494   3.266   1.542   1.904
  770HOH      O 2495   0.030   2.997   3.075
  770HOH     H1 2496   0.053   3.084   3.107
  770HOH     H2 2497  -0.066   2.996   3.074
  771HOH      O 2498   0.074   0.413   2.021
  771HOH     H1 2499   0.041   0.484   1.966
  771HOH     H2 2500   0.047   0.333   1.977
  772HOH      O 2501   2.881   1.849   0.577
  772HOH     H1 2502   2.803   1.902   0.560
  772HOH     H2 2503   2.911   1.821   0.490
  773HOH      O 2504   0.174   0.683   3.654
  773HOH     H1 2505   0.115   0.610   3.670
  773HOH     H2 2506   0.229   0.654   3.581
  774HOH      O 2507   0.657   0.550   1.191
  774HOH     H1 2508   0.666   0.500   1.273
  774HOH     H2 2509   0.573   0.522   1.156
  775HOH      O 2510   1.623   0.091   0.830
  775HOH     H1 2511   1.558   0.076   0.761
  775HOH     H2 2512   1.641   0.004   0.865
  776HOH      O 2513   1.844   1.715   1.936
  776HOH     H1 2514   1.834   1.704   2.031
  776HOH     H2 2515   1.933   1.685   1.919
  777HOH      O 2516   2.239   1.819   2.297
  777HOH     H1 2517   2.279   1.856   2.218
  777HOH     H2 2518   2.261   1.726   2.294
  778HOH      O 2519   1.092   3.846   0.591
  778HOH     H1 2520   1.130   3.793   0.521
  778HOH     H2 2521   1.125   3.934   0.575
  779HOH      O 2522   0.056   1.819  -0.026
  779HOH     H1 2523   0.132   1.794   0.028
  779HOH     H2 2524   0.029   1.904   0.008
  780HOH      O 2525   3.934   0.732   0.583
  780HOH     H1 2526   3.944   0.722   0.488
  780HOH     H2 2527   3.849   0.691   0.602
  781HOH      O 2528   1.017   2.418   3.755
  781HOH     H1 2529   1.020   2.399   3.661
  781HOH     H2 2530   1.071   2.496   3.766
  782HOH      O 2531   2.198   0.083   0.083
  782HOH     H1 2532   2.251   0.059   0.008
  782HOH     H2 2533   2.261   0.102   0.152
  783HOH      O 2534   2.926   2.468   3.632
  783HOH     H1 2535   2.932   2.544   3.689
  783HOH     H2 2536   2.956   2.395   3.685
  784HOH      O 2537   3.536   1.980   2.873
  784HOH     H1 2538   3.572   2.036   2.804
  784HOH     H2 2539   3.468   1.930   2.830
  785HOH      O 2540   0.437   1.642   2.099
  785HOH     H1 2541   0.457   1.550   2.079
  785HOH     H2 2542   0.521   1.687   2.092
  786HOH      O 2543   2.260   2.031   3.080
  786HOH     H1 2544   2.310   2.108   3.107
  786HOH     H2 2545   2.218   2.057   2.998
  787HOH      O 2546   2.507   0.202   4.028
  787HOH     H1 2547   2.466   0.160   3.953
  787HOH     H2 2548   2.459   0.285   4.038
  788HOH      O 2549   0.220   1.497   1.966
  788HOH     H1 2550   0.224   1.416   2.016
  788HOH     H2 2551   0.306   1.538   1.980
  789HOH      O 2552   2.044   2.024   3.349
  789HOH     H1 2553   2.121   1.977   3.316
  789HOH     H2 2554   2.078   2.075   3.422
  790HOH      O 2555   2.230   0.808   1.554
  790HOH     H1 2556   2.278   0.890   1.565
  790HOH     H2 2557   2.139   0.830   1.577
  791HOH      O 2558   2.611   3.871   3.839
  791HOH     H1 2559   2.529   3.837   3.873
  791HOH     H2 2560   2.624   3.824   3.756
  792HOH      O 2561   3.201   0.092   0.652
  792HOH     H1 2562   3.192   0.181   0.617
  792HOH     H2 2563   3.113   0.055   0.645
  793HOH      O 2564   0.627   1.550   3.074
  793HOH     H1 2565   0.685   1.494   3.126
  793HOH     H2 2566   0.662   1.543   2.985
  794HOH      O 2567   0.882   0.645   3.608
  794HOH     H1 2568   0.912   0.708   3.541
  794HOH     H2 2569   0.947   0.575   3.605
  795HOH      O 2570   2.183   1.335   0.252
  795HOH     H1 2571   2.147   1.321   0.340
  795HOH     H2 2572   2.187   1.430   0.241
  796HOH      O 2573   3.770   2.925   3.070
  796HOH     H1 2574   3.719   2.959   2.997
  796HOH     H2 2575   3.726   2.958   3.148
  797HOH      O 2576   3.474   3.603   2.158
  797HOH     H1 2577   3.403   3.562   2.108
  797HOH     H2 2578   3.554   3.575   2.112
  798HOH      O 2579   0.412   3.154   3.035
  798HOH     H1 2580   0.345   3.188   3.094
  798HOH     H2 2581   0.401   3.204   2.954
  799HOH      O 2582   0.486   3.937   0.397
  799HOH     H1 2583   0.417   3.875   0.418
  799HOH     H2 2584   0.479   4.004   0.465
  800HOH      O 2585   0.427   1.480   0.282
  800HOH     H1 2586   0.497   1.526   0.235
  800HOH     H2 2587   0.381   1.549   0.329
  801HOH      O 2588   2.964   3.149   1.348
  801HOH     H1 2589   2.923   3.223   1.304
  801HOH     H2 2590   2.891   3.102   1.390
  802HOH      O 2591   1.259   1.291   3.503
  802HOH     H1 2592   1.248   1.374   3.550
  802HOH     H2 2593   1.243   1.314   3.411
  803HOH      O 2594   3.627   2.867   2.562
  803HOH     H1 2595   3.644   2.944   2.508
  803HOH     H2 2596   3.683   2.798   2.525
  804HOH      O 2597   1.025   2.383   1.789
  804HOH     H1 2598   0.955   2.317   1.793
  804HOH     H2 2599   1.074   2.370   1.870
  805HOH      O 2600   1.759   0.189   0.474
  805HOH     H1 2601   1.771   0.282   0.494
  805HOH     H2 2602   1.847   0.157   0.454
  806HOH      O 2603   1.703   3.308   2.864
  806HOH     H1 2604   1.774   3.372   2.871
  806HOH     H2 2605   1.624   3.361   2.855
  807HOH      O 2606   0.931   0.652   2.342
  807HOH     H1 2607   0.975   0.731   2.311
  807HOH     H2 2608   0.935   0.591   2.269
  808HOH      O 2609   2.399   2.660   2.436
  808HOH     H1 2610   2.323   2.718   2.439
  808HOH     H2 2611   2.361   2.572   2.434
  809HOH      O 2612   3.819   2.981   3.630
  809HOH     H1 2613   3.803   2.887   3.643
  809HOH     H2 2614   3.804   3.020   3.716
  810HOH      O 2615   3.687   2.558   0.225
  810HOH     H1 2616   3.629   2.517   0.160
  810HOH     H2 2617   3.711   2.641   0.185
  811HOH      O 2618   0.928   2.117   0.949
  811HOH     H1 2619   0.951   2.119   1.042
  811HOH     H2 2620   0.973   2.193   0.911
  812HOH      O 2621   1.502   1.612   2.501
  812HOH     H1 2622   1.477   1.692   2.454
  812HOH     H2 2623   1.529   1.552   2.431
  813HOH      O 2624   0.215   2.022   1.377
  813HOH     H1 2625   0.123   2.045   1.369
  813HOH     H2 2626   0.262   2.093   1.334
  814HOH      O 2627   2.229   1.783   4.037
  814HOH     H1 2628   2.222   1.755   3.946
  814HOH     H2 2629   2.139   1.780   4.070
  815HOH      O 2630   1.797   3.313   3.222
  815HOH     H1 2631   1.805   3.246   3.154
  815HOH     H2 2632   1.887   3.337   3.242
  816HOH      O 2633   0.371   0.110   3.859
  816HOH     H1 2634   0.348   0.068   3.942
  816HOH     H2 2635   0.288   0.146   3.827
  817HOH      O 2636   3.038   3.857   2.848
  817HOH     H1 2637   2.970   3.860   2.916
  817HOH     H2 2638   2.991   3.869   2.766
  818HOH      O 2639   1.688   2.340   1.896
  818HOH     H1 2640   1.622   2.275   1.872
  818HOH     H2 2641   1.769   2.309   1.856
  819HOH      O 2642   1.355   2.276   1.890
  819HOH     H1 2643   1.277   2.313   1.932
  819HOH     H2 2644   1.325   2.248   1.804
  820HOH      O 2645   2.310   2.086   1.305
  820HOH     H1 2646   2.393   2.108   1.346
  820HOH     H2 2647   2.258   2.167   1.311
  821HOH      O 2648   1.258   2.767   2.261
  821HOH     H1 2649   1.190   2.761   2.328
  821HOH     H2 2650   1.293   2.678   2.254
  822HOH      O 2651   2.978   0.690   0.538
  822HOH     H1 2652   2.914   0.623   0.563
  822HOH     H2 2653   2.931   0.773   0.550
  823HOH      O 2654   3.540   3.950   2.556
  823HOH     H1 2655   3.470   3.937   2.621
  823HOH     H2 2656   3.495   3.989   2.481
  824HOH      O 2657   1.499   1.398   1.623
  824HOH     H1 2658   1.482   1.450   1.701
  824HOH     H2 2659   1.435   1.326   1.627
  825HOH      O 2660   0.156   1.780   1.957
  825HOH     H1 2661   0.081   1.743   1.910
  825HOH     H2 2662   0.211   1.704   1.977
  826HOH      O 2663   2.302   0.950   3.712
  826HOH     H1 2664   2.272   0.920   3.798
  826HOH     H2 2665   2.380   1.001   3.731
  827HOH      O 2666   3.320   1.558   1.432
  827HOH     H1 2667   3.299   1.636   1.380
  827HOH     H2 2668   3.388   1.587   1.493
  828HOH      O 2669   0.525   3.706   1.934
  828HOH     H1 2670   0.441   3.753   1.938
  828HOH     H2 2671   0.505   3.618   1.966
  829HOH      O 2672   2.432   1.270   2.539
  829HOH     H1 2673   2.382   1.273   2.621
  829HOH     H2 2674   2.495   1.199   2.552
  830HOH      O 2675   2.960   0.220   2.941
  830HOH     H1 2676   2.929   0.280   3.008
  830HOH     H2 2677   3.050   0.200   2.965
  831HOH      O 2678   2.184   3.444   1.611
  831HOH     H1 2679   2.196   3.383   1.684
  831HOH     H2 2680   2.235   3.522   1.636
  832HOH      O 2681   0.528   3.642   1.315
  832HOH     H1 2682   0.469   3.600   1.252
  832HOH     H2 2683   0.615   3.633   1.275
  833HOH      O 2684   1.583   1.171   0.938
  833HOH     H1 2685   1.540   1.256   0.945
  833HOH     H2 2686   1.529   1.123   0.875
  834HOH      O 2687   2.194   1.723   3.782
  834HOH     H1 2688   2.195   1.753   3.691
  834HOH     H2 2689   2.197   1.628   3.776
  835HOH      O 2690   1.692   3.378   0.131
  835HOH     H1 2691   1.684   3.463   0.174
  835HOH     H2 2692   1.630   3.382   0.058
  836HOH      O 2693   0.945   1.653   1.552
  836HOH     H1 2694   0.855   1.687   1.549
  836HOH     H2 2695   0.942   1.582   1.616
  837HOH      O 2696   2.038   3.670   0.231
  837HOH     H1 2697   2.112   3.725   0.254
  837HOH     H2 2698   2.075   3.601   0.175
  838HOH      O 2699   2.939   0.941   0.669
  838HOH     H1 2700   2.928   0.963   0.761
  838HOH     H2 2701   3.034   0.937   0.656
  839HOH      O 2702   3.386   1.830   0.428
  839HOH     H1 2703   3.353   1.911   0.390
  839HOH     H2 2704   3.308   1.778   0.444
  840HOH      O 2705   2.316   1.794   0.464
  840HOH     H1 2706   2.380   1.724   0.478
  840HOH     H2 2707   2.282   1.813   0.552
  841HOH      O 2708   1.286   1.883   2.609
  841HOH     H1 2709   1.342   1.884   2.687
  841HOH     H2 2710   1.197   1.878   2.643
  842HOH      O 2711   2.941   1.621   0.164
  842HOH     H1 2712   2.888   1.559   0.214
  842HOH     H2 2713   2.878   1.687   0.134
  843HOH      O 2714   2.832   3.753   3.469
  843HOH     H1 2715   2.802   3.679   3.416
  843HOH     H2 2716   2.770   3.823   3.449
  844HOH      O 2717   0.424   0.770   1.284
  844HOH     H1 2718   0.350   0.757   1.344
  844HOH     H2 2719   0.427   0.689   1.232
  845HOH      O 2720   3.816   1.702   3.662
  845HOH     H1 2721   3.740   1.645   3.667
  845HOH     H2 2722   3.827   1.720   3.568
  846HOH      O 2723   3.157   3.943   1.783
  846HOH     H1 2724   3.077   3.974   1.826
  846HOH     H2 2725   3.147   3.847   1.780
  847HOH      O 2726   1.611   0.351   1.018
  847HOH     H1 2727   1.635   0.324   1.107
  847HOH     H2 2728   1.587   0.269   0.974
  848HOH      O 2729   0.554   3.449   2.936
  848HOH     H1 2730   0.637   3.403   2.946
  848HOH     H2 2731   0.498   3.388   2.888
  849HOH      O 2732   3.605   3.923   3.865
  849HOH     H1 2733   3.675   3.898   3.806
  849HOH     H2 2734   3.634   3.894   3.952
  850HOH      O 2735   2.781   2.949   2.462
  850HOH     H1 2736   2.710   2.896   2.425
  850HOH     H2 2737   2.779   2.929   2.556
  851HOH      O 2738   1.092   1.866   3.025
  851HOH     H1 2739   1.080   1.781   2.983
  851HOH     H2 2740   1.015   1.876   3.082
  852HOH      O 2741   2.772   0.330   1.320
  852HOH     H1 2742   2.697   0.272   1.331
  852HOH     H2 2743   2.756   0.375   1.237
  853HOH      O 2744   3.121   2.290   2.207
  853HOH     H1 2745   3.047   2.233   2.224
  853HOH     H2 2746   3.145   2.272   2.116
  854HOH      O 2747   2.280   0.615   3.065
  854HOH     H1 2748   2.199   0.666   3.066
  854HOH     H2 2749   2.290   0.587   2.974
  855HOH      O 2750   2.762   1.746   1.499
  855HOH     H1 2751   2.760   1.689   1.422
  855HOH     H2 2752   2.692   1.810   1.483
  856HOH      O 2753   2.087   2.166   2.122
  856HOH     H1 2754   2.120   2.106   2.054
  856HOH     H2 2755   2.074   2.249   2.077
  857HOH      O 2756   3.870   0.939   3.824
  857HOH     H1 2757   3.787   0.912   3.864
  857HOH     H2 2758   3.887   0.873   3.756
  858HOH      O 2759   2.336   2.002   1.657
  858HOH     H1 2760   2.286   1.951   1.593
  858HOH     H2 2761   2.313   2.093   1.638
  859HOH      O 2762   3.874   0.510   3.493
  859HOH     H1 2763   3.841   0.441   3.436
  859HOH     H2 2764   3.909   0.463   3.569
  860HOH      O 2765   1.852   1.928   0.824
  860HOH     H1 2766   1.868   1.839   0.793
  860HOH     H2 2767   1.919   1.943   0.890
  861HOH      O 2768   0.458   2.008   1.886
  861HOH     H1 2769   0.382   2.032   1.939
  861HOH     H2 2770   0.422   1.952   1.818
  862HOH      O 2771   1.243   3.567   3.120
  862HOH     H1 2772   1.310   3.636   3.116
  862HOH     H2 2773   1.230   3.551   3.213
  863HOH      O 2774   3.790   2.348   2.342
  863HOH     H1 2775   3.742   2.390   2.413
  863HOH     H2 2776   3.800   2.417   2.276
  864HOH      O 2777   3.196   3.309   1.113
  864HOH     H1 2778   3.113   3.270   1.085
  864HOH     H2 2779   3.261   3.241   1.094
  865HOH      O 2780   0.833   3.546   1.987
  865HOH     H1 2781   0.835   3.463   1.939
  865HOH     H2 2782   0.833   3.520   2.079
  866HOH      O 2783   2.866   3.519   2.283
  866HOH     H1 2784   2.911   3.524   2.199
  866HOH     H2 2785   2.913   3.451   2.331
  867HOH      O 2786   0.953   0.403   3.074
  867HOH     H1 2787   0.893   0.397   3.000
  867HOH     H2 2788   0.934   0.327   3.129
  868HOH      O 2789   0.607   2.710   0.510
  868HOH     H1 2790   0.628   2.618   0.493
  868HOH     H2 2791   0.572   2.710   0.599
  869HOH      O 2792   0.167   1.317   0.411
  869HOH     H1 2793   0.229   1.302   0.340
  869HOH     H2 2794   0.197   1.399   0.451
  870HOH      O 2795   0.604   2.426   2.630
  870HOH     H1 2796   0.512   2.439   2.651
  870HOH     H2 2797   0.610   2.335   2.601
  871HOH      O 2798   0.406   0.446   2.750
  871HOH     H1 2799   0.326   0.455   2.802
  871HOH     H2 2800   0.430   0.354   2.758
  872HOH      O 2801   2.935   1.492   3.857
  872HOH     H1 2802   2.863   1.552   3.837
  872HOH     H2 2803   3.010   1.529   3.811
  873HOH      O 2804   0.644   0.427   2.220
  873HOH     H1 2805   0.597   0.343   2.227
  873HOH     H2 2806   0.686   0.437   2.306
  874HOH      O 2807   2.155   2.379   1.254
  874HOH     H1 2808   2.152   2.364   1.160
  874HOH     H2 2809   2.074   2.340   1.287
  875HOH      O 2810   0.911   1.806   3.239
  875HOH     H1 2811   0.917   1.888   3.287
  875HOH     H2 2812   0.932   1.739   3.304
  876HOH      O 2813   3.644   0.656   2.186
  876HOH     H1 2814   3.638   0.742   2.227
  876HOH     H2 2815   3.642   0.674   2.092
  877HOH      O 2816   2.301   3.749   1.286
  877HOH     H1 2817   2.377   3.767   1.232
  877HOH     H2 2818   2.334   3.693   1.356
  878HOH      O 2819   1.233   1.367   3.905
  878HOH     H1 2820   1.145   1.330   3.894
  878HOH     H2 2821   1.257   1.343   3.995
  879HOH      O 2822   2.529   2.563   1.748
  879HOH     H1 2823   2.608   2.618   1.745
  879HOH     H2 2824   2.466   2.607   1.692
  880HOH      O 2825   0.821   0.913   0.076
  880HOH     H1 2826   0.832   0.830   0.030
  880HOH     H2 2827   0.749   0.957   0.030
  881HOH      O 2828   3.260   1.232   2.091
  881HOH     H1 2829   3.187   1.179   2.125
  881HOH     H2 2830   3.220   1.283   2.021
  882HOH      O 2831   3.509   3.381   1.722
  882HOH     H1 2832   3.559   3.371   1.803
  882HOH     H2 2833   3.474   3.470   1.727
  883HOH      O 2834   2.609   1.710   2.458
  883HOH     H1 2835   2.681   1.661   2.498
  883HOH     H2 2836   2.548   1.643   2.427
  884HOH      O 2837   1.884   1.599   3.577
  884HOH     H1 2838   1.807   1.607   3.633
  884HOH     H2 2839   1.898   1.688   3.543
  885HOH      O 2840   0.365   1.789   3.738
  885HOH     H1 2841   0.358   1.715   3.798
  885HOH     H2 2842   0.289   1.781   3.681
  886HOH      O 2843   2.529   3.916   1.940
  886HOH     H1 2844   2.473   3.967   1.881
  886HOH     H2 2845   2.479   3.835   1.955
  887HOH      O 2846   2.694   0.236   3.156
  887HOH     H1 2847   2.615   0.210   3.107
  887HOH     H2 2848   2.697   0.331   3.148
  888HOH      O 2849   0.741   3.556   2.731
  888HOH     H1 2850   0.795   3.478   2.714
  888HOH     H2 2851   0.656   3.535   2.690
  889HOH      O 2852   1.812   1.515   0.332
  889HOH     H1 2853   1.755   1.560   0.270
  889HOH     H2 2854   1.882   1.579   0.351
  890HOH      O 2855   2.913   0.478   0.749
  890HOH     H1 2856   2.945   0.507   0.834
  890HOH     H2 2857   2.964   0.400   0.729
  891HOH      O 2858   2.546   1.907   2.220
  891HOH     H1 2859   2.555   1.998   2.247
  891HOH     H2 2860   2.575   1.857   2.297
  892HOH      O 2861   2.666   3.731   0.791
  892HOH     H1 2862   2.630   3.658   0.842
  892HOH     H2 2863   2.761   3.722   0.801
  893HOH      O 2864   2.990   3.313   0.392
  893HOH     H1 2865   2.951   3.351   0.471
  893HOH     H2 2866   3.027   3.388   0.346
  894HOH      O 2867   1.668   0.539   2.700
  894HOH     H1 2868   1.739   0.479   2.722
  894HOH     H2 2869   1.647   0.584   2.782
  895HOH      O 2870   2.418   3.906   0.744
  895HOH     H1 2871   2.498   3.884   0.791
  895HOH     H2 2872   2.434   3.993   0.708
  896HOH      O 2873   1.736   0.532   3.524
  896HOH     H1 2874   1.821   0.561   3.559
  896HOH     H2 2875   1.735   0.564   3.434
  897HOH      O 2876   0.635   0.366   3.788
  897HOH     H1 2877   0.568   0.395   3.850
  897HOH     H2 2878   0.681   0.447   3.764
  898HOH      O 2879   2.507   1.291   1.370
  898HOH     H1 2880   2.572   1.266   1.436
  898HOH     H2 2881   2.428   1.309   1.421
  899HOH      O 2882   2.430   0.935   1.078
  899HOH     H1 2883   2.358   0.942   1.141
  899HOH     H2 2884   2.397   0.875   1.011
  900HOH      O 2885   2.385   1.261   1.870
  900HOH     H1 2886   2.365   1.337   1.815
  900HOH     H2 2887   2.314   1.258   1.934
  901HOH      O 2888   2.159   0.547   0.441
  901HOH     H1 2889   2.124   0.617   0.386
  901HOH     H2 2890   2.184   0.478   0.380
  902HOH      O 2891   3.878   2.564   1.360
  902HOH     H1 2892   3.912   2.525   1.279
  902HOH     H2 2893   3.871   2.657   1.340
  903HOH      O 2894   2.464   3.740   2.884
  903HOH     H1 2895   2.518   3.816   2.905
  903HOH     H2 2896   2.527   3.669   2.871
  904HOH      O 2897   3.391   1.648   2.933
  904HOH     H1 2898   3.356   1.728   2.893
  904HOH     H2 2899   3.314   1.593   2.947
  905HOH      O 2900   0.414   2.873   3.022
  905HOH     H1 2901   0.474   2.843   3.091
  905HOH     H2 2902   0.415   2.968   3.030
  906HOH      O 2903   2.047   2.822   0.762
  906HOH     H1 2904   2.119   2.835   0.700
  906HOH     H2 2905   1.977   2.878   0.729
  907HOH      O 2906   2.566   2.523   1.215
  907HOH     H1 2907   2.489   2.496   1.165
  907HOH     H2 2908   2.638   2.516   1.153
  908HOH      O 2909   1.543   3.434   3.216
  908HOH     H1 2910   1.627   3.388   3.213
  908HOH     H2 2911   1.479   3.365   3.230
  909HOH      O 2912   0.699   0.822   0.900
  909HOH     H1 2913   0.764   0.809   0.968
  909HOH     H2 2914   0.685   0.917   0.898
  910HOH      O 2915   1.629   3.740   1.649
  910HOH     H1 2916   1.582   3.685   1.587
  910HOH     H2 2917   1.571   3.746   1.725
  911HOH      O 2918   1.829   0.021   1.179
  911HOH     H1 2919   1.783   0.104   1.184
  911HOH     H2 2920   1.863   0.017   1.090
  912HOH      O 2921   3.178   2.296   1.940
  912HOH     H1 2922   3.256   2.347   1.961
  912HOH     H2 2923   3.195   2.264   1.851
  913HOH      O 2924   0.883   3.234   2.095
  913HOH     H1 2925   0.891   3.304   2.160
  913HOH     H2 2926   0.819   3.268   2.032
  914HOH      O 2927   1.084   3.390   3.000
  914HOH     H1 2928   1.141   3.460   3.031
  914HOH     H2 2929   1.143   3.325   2.962
  915HOH      O 2930   3.381   3.170   0.735
  915HOH     H1 2931   3.414   3.081   0.745
  915HOH     H2 2932   3.424   3.220   0.804
  916HOH      O 2933   2.439   1.595   2.720
  916HOH     H1 2934   2.481   1.548   2.792
  916HOH     H2 2935   2.501   1.666   2.699
  917HOH      O 2936   3.343   3.164   2.880
  917HOH     H1 2937   3.410   3.151   2.812
  917HOH     H2 2938   3.311   3.076   2.899
  918HOH      O 2939   2.885   3.968   0.451
  918HOH     H1 2940   2.917   4.056   0.471
  918HOH     H2 2941   2.902   3.958   0.358
  919HOH      O 2942   2.039   0.295   1.542
  919HOH     H1 2943   2.018   0.350   1.618
  919HOH     H2 2944   2.132   0.275   1.552
  920HOH      O 2945   1.170   0.383   3.999
  920HOH     H1 2946   1.216   0.428   4.070
  920HOH     H2 2947   1.195   0.431   3.921
  921HOH      O 2948   1.452   3.238   0.625
  921HOH     H1 2949   1.357   3.246   0.615
  921HOH     H2 2950   1.488   3.299   0.560
  922HOH      O 2951   3.707   3.384   3.173
  922HOH     H1 2952   3.755   3.462   3.145
  922HOH     H2 2953   3.724   3.378   3.267
  923HOH      O 2954   3.716   1.422   3.573
  923HOH     H1 2955   3.810   1.423   3.552
  923HOH     H2 2956   3.699   1.332   3.602
  924HOH      O 2957   0.988   0.975   3.769
  924HOH     H1 2958   0.898   1.003   3.789
  924HOH     H2 2959   0.995   0.982   3.674
  925HOH      O 2960   0.321   0.688   1.010
  925HOH     H1 2961   0.352   0.646   0.930
  925HOH     H2 2962   0.344   0.627   1.080
  926HOH      O 2963   2.533   0.736   2.615
  926HOH     H1 2964   2.462   0.716   2.554
  926HOH     H2 2965   2.597   0.667   2.601
  927HOH      O 2966   1.017   1.073   2.693
  927HOH     H1 2967   0.970   1.017   2.755
  927HOH     H2 2968   0.968   1.065   2.612
  928HOH      O 2969   3.419   0.348   1.696
  928HOH     H1 2970   3.476   0.356   1.619
  928HOH     H2 2971   3.331   0.339   1.660
  929HOH      O 2972   0.068   0.603   3.336
  929HOH     H1 2973  -0.011   0.570   3.379
  929HOH     H2 2974   0.095   0.532   3.278
  930HOH      O 2975   3.058   1.262   3.511
  930HOH     H1 2976   3.100   1.273   3.426
  930HOH     H2 2977   3.099   1.184   3.549
  931HOH      O 2978   1.802   1.058   0.050
  931HOH     H1 2979   1.790   1.022  -0.039
  931HOH     H2 2980   1.782   1.151   0.041
  932HOH      O 2981   0.827   0.187   3.962
  932HOH     H1 2982   0.761   0.143   4.014
  932HOH     H2 2983   0.778   0.250   3.909
  933HOH      O 2984   1.339   3.419   2.464
  933HOH     H1 2985   1.315   3.334   2.428
  933HOH     H2 2986   1.334   3.479   2.389
  934HOH      O 2987   3.155   1.457   2.788
  934HOH     H1 2988   3.097   1.448   2.712
  934HOH     H2 2989   3.131   1.542   2.826
  935HOH      O 2990   0.190   1.147   1.417
  935HOH     H1 2991   0.095   1.137   1.422
  935HOH     H2 2992   0.205   1.188   1.331
  936HOH      O 2993   3.869   1.580   1.467
  936HOH     H1 2994   3.950   1.601   1.420
  936HOH     H2 2995   3.898   1.534   1.545
  937HOH      O 2996   0.055   3.549   0.041
  937HOH     H1 2997   0.079   3.536   0.133
  937HOH     H2 2998  -0.010   3.481   0.023
  938HOH      O 2999   0.492   1.578   1.394
  938HOH     H1 3000   0.455   1.553   1.479
  938HOH     H2 3001   0.422   1.559   1.331
  939HOH      O 3002   3.077   2.443   3.402
  939HOH     H1 3003   3.015   2.443   3.475
  939HOH     H2 3004   3.023   2.463   3.325
  940HOH      O 3005   2.063   1.026   2.723
  940HOH     H1 3006   2.089   0.961   2.659
  940HOH     H2 3007   2.106   1.107   2.694
  941HOH      O 3008   1.991   3.010   3.678
  941HOH     H1 3009   2.058   3.056   3.628
  941HOH     H2 3010   1.976   3.066   3.754
  942HOH      O 3011   1.203   2.428   1.584
  942HOH     H1 3012   1.163   2.411   1.670
  942HOH     H2 3013   1.141   2.486   1.540
  943HOH      O 3014   4.031   1.845   0.525
  943HOH     H1 3015   4.005   1.880   0.441
  943HOH     H2 3016   4.001   1.754   0.523
  944HOH      O 3017   0.912   2.519   0.287
  944HOH     H1 3018   0.997   2.476   0.286
  944HOH     H2 3019   0.875   2.497   0.372
  945HOH      O 3020   3.257   2.512   0.196
  945HOH     H1 3021   3.297   2.425   0.192
  945HOH     H2 3022   3.250   2.539   0.104
  946HOH      O 3023   2.835   1.201   3.239
  946HOH     H1 3024   2.815   1.218   3.147
  946HOH     H2 3025   2.781   1.263   3.288
  947HOH      O 3026   1.056   3.012   2.153
  947HOH     H1 3027   1.007   2.930   2.162
  947HOH     H2 3028   0.989   3.079   2.139
  948HOH      O 3029   0.079   1.853   1.085
  948HOH     H1 3030   0.006   1.846   1.024
  948HOH     H2 3031   0.067   1.939   1.126
  949HOH      O 3032   2.108   0.597   1.185
  949HOH     H1 3033   2.110   0.521   1.127
  949HOH     H2 3034   2.047   0.573   1.255
  950HOH      O 3035   2.545   2.541   2.026
  950HOH     H1 3036   2.539   2.555   1.932
  950HOH     H2 3037   2.574   2.626   2.061
  951HOH      O 3038   1.202   3.499   3.780
  951HOH     H1 3039   1.195   3.590   3.750
  951HOH     H2 3040   1.141   3.492   3.853
  952HOH      O 3041   2.751   2.535   0.622
  952HOH     H1 3042   2.809   2.546   0.697
  952HOH     H2 3043   2.787   2.593   0.555
  953HOH      O 3044   1.153   2.223   1.197
  953HOH     H1 3045   1.192   2.221   1.110
  953HOH     H2 3046   1.163   2.314   1.225
  954HOH      O 3047   1.798   0.544   0.157
  954HOH     H1 3048   1.838   0.629   0.137
  954HOH     H2 3049   1.704   0.560   0.151
  955HOH      O 3050   2.233   3.728   0.515
  955HOH     H1 3051   2.273   3.772   0.590
  955HOH     H2 3052   2.167   3.670   0.554
  956HOH      O 3053   3.301   1.028   0.023
  956HOH     H1 3054   3.326   1.069   0.107
  956HOH     H2 3055   3.306   1.100  -0.040
  957HOH      O 3056   3.701   1.728   2.130
  957HOH     H1 3057   3.623   1.783   2.141
  957HOH     H2 3058   3.733   1.715   2.219
  958HOH      O 3059   3.003   3.973   3.162
  958HOH     H1 3060   2.999   4.057   3.208
  958HOH     H2 3061   3.095   3.946   3.170
  959HOH      O 3062   3.431   3.187   0.995
  959HOH     H1 3063   3.453   3.095   0.978
  959HOH     H2 3064   3.477   3.208   1.076
  960HOH      O 3065   2.674   0.951   0.629
  960HOH     H1 3066   2.767   0.971   0.636
  960HOH     H2 3067   2.670   0.882   0.563
  961HOH      O 3068   1.898   1.379   2.240
  961HOH     H1 3069   1.849   1.320   2.299
  961HOH     H2 3070   1.859   1.465   2.255
  962HOH      O 3071   2.634   1.575   3.245
  962HOH     H1 3072   2.606   1.510   3.310
  962HOH     H2 3073   2.726   1.590   3.264
  963HOH      O 3074   3.574   0.835   3.770
  963HOH     H1 3075   3.601   0.791   3.690
  963HOH     H2 3076   3.486   0.867   3.751
  964HOH      O 3077   0.685   2.208   1.321
  964HOH     H1 3078   0.629   2.175   1.391
  964HOH     H2 3079   0.626   2.262   1.267
  965HOH      O 3080   2.824   1.138   2.028
  965HOH     H1 3081   2.807   1.049   2.000
  965HOH     H2 3082   2.748   1.163   2.080
  966HOH      O 3083   0.883   2.838   1.109
  966HOH     H1 3084   0.905   2.880   1.026
  966HOH     H2 3085   0.895   2.907   1.174
  967HOH      O 3086   2.488   0.984   1.448
  967HOH     H1 3087   2.440   1.018   1.524
  967HOH     H2 3088   2.423   0.981   1.379
  968HOH      O 3089   0.963   3.444   3.913
  968HOH     H1 3090   0.930   3.483   3.994
  968HOH     H2 3091   0.895   3.464   3.848
  969HOH      O 3092   3.469   2.508   2.501
  969HOH     H1 3093   3.457   2.598   2.469
  969HOH     H2 3094   3.393   2.492   2.557
  970HOH      O 3095   2.792   1.692   2.925
  970HOH     H1 3096   2.757   1.604   2.942
  970HOH     H2 3097   2.725   1.735   2.873
  971HOH      O 3098  -0.010   3.667   3.638
  971HOH     H1 3099   0.004   3.597   3.575
  971HOH     H2 3100   0.066   3.725   3.626
  972HOH      O 3101   3.579   2.123   1.769
  972HOH     H1 3102   3.581   2.144   1.863
  972HOH     H2 3103   3.486   2.122   1.747
  973HOH      O 3104   0.000   0.893   3.465
  973HOH     H1 3105   0.070   0.935   3.515
  973HOH     H2 3106   0.041   0.868   3.382
  974HOH      O 3107   1.851   2.775   2.022
  974HOH     H1 3108   1.805   2.691   2.028
  974HOH     H2 3109   1.943   2.754   2.034
  975HOH      O 3110   3.659   2.010   0.882
  975HOH     H1 3111   3.597   1.945   0.915
  975HOH     H2 3112   3.620   2.094   0.904
  976HOH      O 3113   2.260   2.237   1.577
  976HOH     H1 3114   2.200   2.306   1.549
  976HOH     H2 3115   2.337   2.283   1.609
  977HOH      O 3116   3.627   2.410   4.025
  977HOH     H1 3117   3.619   2.357   3.946
  977HOH     H2 3118   3.698   2.370   4.074
  978HOH      O 3119   0.059   2.690   2.594
  978HOH     H1 3120   0.069   2.615   2.653
  978HOH     H2 3121   0.120   2.755   2.627
  979HOH      O 3122   0.985   0.408   1.377
  979HOH     H1 3123   0.902   0.456   1.379
  979HOH     H2 3124   0.959   0.316   1.385
  980HOH      O 3125   2.226   2.959   3.918
  980HOH     H1 3126   2.143   2.982   3.959
  980HOH     H2 3127   2.209   2.876   3.872
  981HOH      O 3128   0.987   1.261   3.846
  981HOH     H1 3129   0.914   1.312   3.810
  981HOH     H2 3130   0.995   1.187   3.786
  982HOH      O 3131   1.177   2.898   0.812
  982HOH     H1 3132   1.147   2.832   0.748
  982HOH     H2 3133   1.269   2.911   0.791
  983HOH      O 3134   1.790   1.290   0.453
  983HOH     H1 3135   1.785   1.332   0.539
  983HOH     H2 3136   1.793   1.363   0.391
  984HOH      O 3137   0.492   0.981   1.889
  984HOH     H1 3138   0.511   0.917   1.957
  984HOH     H2 3139   0.419   0.944   1.840
  985HOH      O 3140   2.808   3.022   0.706
  985HOH     H1 3141   2.832   3.053   0.619
  985HOH     H2 3142   2.772   2.934   0.690
  986HOH      O 3143   0.705   2.516   0.125
  986HOH     H1 3144   0.756   2.521   0.044
  986HOH     H2 3145   0.769   2.528   0.195
  987HOH      O 3146   2.034   0.204   2.625
  987HOH     H1 3147   1.952   0.178   2.583
  987HOH     H2 3148   2.100   0.150   2.582
  988HOH      O 3149   0.614   2.144   0.312
  988HOH     H1 3150   0.606   2.106   0.399
  988HOH     H2 3151   0.562   2.224   0.315
  989HOH      O 3152   1.292   2.468   2.334
  989HOH     H1 3153   1.336   2.403   2.279
  989HOH     H2 3154   1.312   2.442   2.423
  990HOH      O 3155   3.458   1.675   0.209
  990HOH     H1 3156   3.443   1.729   0.131
  990HOH     H2 3157   3.445   1.734   0.283
  991HOH      O 3158   0.200   1.154   4.006
  991HOH     H1 3159   0.144   1.077   3.993
  991HOH     H2 3160   0.155   1.225   3.959
  992HOH      O 3161   3.816   1.182   3.716
  992HOH     H1 3162   3.752   1.198   3.784
  992HOH     H2 3163   3.847   1.093   3.733
  993HOH      O 3164   1.489   1.625   2.048
  993HOH     H1 3165   1.398   1.614   2.019
  993HOH     H2 3166   1.538   1.639   1.968
  994HOH      O 3167   0.375   3.015   3.733
  994HOH     H1 3168   0.453   3.052   3.776
  994HOH     H2 3169   0.307   3.081   3.748
  995HOH      O 3170   1.681   2.260   1.516
  995HOH     H1 3171   1.608   2.296   1.466
  995HOH     H2 3172   1.640   2.206   1.583
  996HOH      O 3173   1.592   3.870   1.319
  996HOH     H1 3174   1.523   3.823   1.366
  996HOH     H2 3175   1.609   3.948   1.372
  997HOH      O 3176   3.011   2.261   1.185
  997HOH     H1 3177   2.994   2.199   1.256
  997HOH     H2 3178   3.031   2.344   1.229
  998HOH      O 3179   2.543   2.906   0.486
  998HOH     H1 3180   2.465   2.860   0.515
  998HOH     H2 3181   2.610   2.883   0.550
  999HOH      O 3182   3.055   1.790   1.537
  999HOH     H1 3183   2.973   1.819   1.578
  999HOH     H2 3184   3.046   1.695   1.531
 1000HOH      O 3185   3.262   3.569   3.258
 1000HOH     H1 3186   3.318   3.503   3.219
 1000HOH     H2 3187   3.317   3.613   3.323
 1001HOH      O 3188   1.740   1.949   1.832
 1001HOH     H1 3189   1.765   1.871   1.882
 1001HOH     H2 3190   1.823   1.990   1.808
 1002HOH      O 3191   3.473   2.837   1.167
 1002HOH     H1 3192   3.461   2.866   1.076
 1002HOH     H2 3193   3.473   2.918   1.218
 1003HOH      O 3194   1.939   3.351   1.913
 1003HOH     H1 3195   1.902   3.397   1.838
 1003HOH     H2 3196   1.951   3.261   1.883
 1004HOH      O 3197   1.119   3.334   3.538
 1004HOH     H1 3198   1.063   3.399   3.495
 1004HOH     H2 3199   1.120   3.362   3.630
 1005HOH      O 3200   2.272   1.276   1.550
 1005HOH     H1 3201   2.278   1.332   1.627
 1005HOH     H2 3202   2.278   1.187   1.584
 1006HOH      O 3203   1.542   1.100   0.267
 1006HOH     H1 3204   1.577   1.110   0.178
 1006HOH     H2 3205   1.568   1.011   0.292
 1007HOH      O 3206   1.269   1.152   2.101
 1007HOH     H1 3207   1.246   1.084   2.038
 1007HOH     H2 3208   1.216   1.132   2.178
 1008HOH      O 3209   1.479   3.500   2.957
 1008HOH     H1 3210   1.389   3.514   2.988
 1008HOH     H2 3211   1.529   3.483   3.037
 1009HOH      O 3212   1.123   0.855   2.239
 1009HOH     H1 3213   1.109   0.948   2.257
 1009HOH     H2 3214   1.057   0.834   2.173
 1010HOH      O 3215   2.057   2.928   3.366
 1010HOH     H1 3216   2.135   2.877   3.343
 1010HOH     H2 3217   1.988   2.863   3.378
 1011HOH      O 3218   0.209   3.769   3.333
 1011HOH     H1 3219   0.246   3.718   3.406
 1011HOH     H2 3220   0.141   3.713   3.296
 1012HOH      O 3221   1.496   2.491   1.121
 1012HOH     H1 3222   1.538   2.543   1.189
 1012HOH     H2 3223   1.444   2.554   1.071
 1013HOH      O 3224   0.507   3.540   3.779
 1013HOH     H1 3225   0.529   3.619   3.828
 1013HOH     H2 3226   0.419   3.517   3.810
 1014HOH      O 3227   2.510   0.875   2.099
 1014HOH     H1 3228   2.596   0.871   2.057
 1014HOH     H2 3229   2.502   0.791   2.145
 1015HOH      O 3230   2.925   2.420   1.893
 1015HOH     H1 3231   3.012   2.379   1.894
 1015HOH     H2 3232   2.885   2.392   1.975
 1016HOH      O 3233   2.549   0.363   2.849
 1016HOH     H1 3234   2.509   0.299   2.908
 1016HOH     H2 3235   2.480   0.428   2.835
 1017HOH      O 3236   0.714   1.961   2.789
 1017HOH     H1 3237   0.751   1.927   2.871
 1017HOH     H2 3238   0.634   1.911   2.776
 1018HOH      O 3239   1.017   0.390   1.747
 1018HOH     H1 3240   1.026   0.468   1.692
 1018HOH     H2 3241   1.106   0.370   1.777
 1019HOH      O 3242   0.043   2.837   3.796
 1019HOH     H1 3243   0.037   2.932   3.800
 1019HOH     H2 3244   0.130   2.817   3.831
 1020HOH      O 3245   3.924   3.272   2.498
 1020HOH     H1 3246   3.834   3.248   2.475
 1020HOH     H2 3247   3.956   3.319   2.421
 1021HOH      O 3248   1.758   2.906   2.355
 1021HOH     H1 3249   1.781   2.990   2.315
 1021HOH     H2 3250   1.691   2.870   2.298
 1022HOH      O 3251   1.930   1.907   1.129
 1022HOH     H1 3252   1.901   1.975   1.191
 1022HOH     H2 3253   1.861   1.841   1.133
 1023HOH      O 3254   3.170   0.357   3.702
 1023HOH     H1 3255   3.252   0.356   3.652
 1023HOH     H2 3256   3.193   0.321   3.788
 1024HOH      O 3257   1.219   0.793   1.467
 1024HOH     H1 3258   1.312   0.802   1.487
 1024HOH     H2 3259   1.216   0.733   1.392
 1025HOH      O 3260   3.863   1.497   1.979
 1025HOH     H1 3261   3.775   1.524   1.953
 1025HOH     H2 3262   3.879   1.417   1.929
 1026HOH      O 3263   1.314   3.421   1.328
 1026HOH     H1 3264   1.376   3.350   1.312
 1026HOH     H2 3265   1.233   3.393   1.285
 1027HOH      O 3266   3.887   1.226   3.320
 1027HOH     H1 3267   3.930   1.312   3.312
 1027HOH     H2 3268   3.939   1.179   3.385
 1028HOH      O 3269   0.658   0.180   3.571
 1028HOH     H1 3270   0.596   0.108   3.588
 1028HOH     H2 3271   0.632   0.248   3.632
 1029HOH      O 3272   3.587   1.396   2.380
 1029HOH     H1 3273   3.677   1.397   2.413
 1029HOH     H2 3274   3.534   1.429   2.453
 1030HOH      O 3275   3.231   1.069   3.717
 1030HOH     H1 3276   3.212   0.988   3.764
 1030HOH     H2 3277   3.227   1.137   3.784
 1031HOH      O 3278   0.918   2.785   1.843
 1031HOH     H1 3279   0.921   2.785   1.938
 1031HOH     H2 3280   0.971   2.861   1.817
 1032HOH      O 3281   1.906   3.043   0.428
 1032HOH     H1 3282   1.888   3.097   0.351
 1032HOH     H2 3283   1.835   3.063   0.488
 1033HOH      O 3284   3.199   0.245   3.322
 1033HOH     H1 3285   3.205   0.329   3.275
 1033HOH     H2 3286   3.106   0.223   3.321
 1034HOH      O 3287   1.088   3.815   0.993
 1034HOH     H1 3288   1.002   3.795   0.956
 1034HOH     H2 3289   1.098   3.754   1.066
 1035HOH      O 3290   2.353   0.059   1.771
 1035HOH     H1 3291   2.262   0.031   1.762
 1035HOH     H2 3292   2.365   0.123   1.700
 1036HOH      O 3293   0.465   2.214   1.581
 1036HOH     H1 3294   0.379   2.234   1.619
 1036HOH     H2 3295   0.520   2.192   1.657
 1037HOH      O 3296   1.744   0.052   3.381
 1037HOH     H1 3297   1.749   0.058   3.477
 1037HOH     H2 3298   1.826   0.008   3.356
 1038HOH      O 3299   0.468   0.908   0.622
 1038HOH     H1 3300   0.426   0.938   0.541
 1038HOH     H2 3301   0.481   0.987   0.674
 1039HOH      O 3302   1.999   1.371   0.804
 1039HOH     H1 3303   2.007   1.381   0.899
 1039HOH     H2 3304   2.007   1.277   0.789
 1040HOH      O 3305   1.600   1.881   1.441
 1040HOH     H1 3306   1.587   1.798   1.394
 1040HOH     H2 3307   1.548   1.872   1.521
 1041HOH      O 3308   3.040   1.521   2.077
 1041HOH     H1 3309   2.982   1.537   2.152
 1041HOH     H2 3310   3.031   1.427   2.060
 1042HOH      O 3311   3.202   2.567   1.758
 1042HOH     H1 3312   3.140   2.626   1.802
 1042HOH     H2 3313   3.263   2.540   1.828
 1043HOH      O 3314   0.771   3.633   0.609
 1043HOH     H1 3315   0.726   3.712   0.580
 1043HOH     H2 3316   0.730   3.562   0.559
 1044HOH      O 3317   3.940   2.219   3.704
 1044HOH     H1 3318   3.972   2.159   3.637
 1044HOH     H2 3319   3.926   2.302   3.658
 1045HOH      O 3320   2.058   1.373   2.026
 1045HOH     H1 3321   1.994   1.377   2.098
 1045HOH     H2 3322   2.010   1.329   1.955
 1046HOH      O 3323   2.820   2.619   1.774
 1046HOH     H1 3324   2.892   2.679   1.792
 1046HOH     H2 3325   2.851   2.534   1.802
 1047HOH      O 3326   2.658   1.318   3.401
 1047HOH     H1 3327   2.688   1.292   3.488
 1047HOH     H2 3328   2.577   1.366   3.416
 1048HOH      O 3329   2.810   1.996   2.469
 1048HOH     H1 3330   2.719   2.017   2.491
 1048HOH     H2 3331   2.856   2.079   2.482
 1049HOH      O 3332   1.541   3.535   1.454
 1049HOH     H1 3333   1.468   3.512   1.398
 1049HOH     H2 3334   1.519   3.498   1.539
 1050HOH      O 3335   2.513   1.843   2.883
 1050HOH     H1 3336   2.489   1.792   2.960
 1050HOH     H2 3337   2.430   1.860   2.838
 1051HOH      O 3338   3.257   2.049   0.798
 1051HOH     H1 3339   3.220   1.970   0.758
 1051HOH     H2 3340   3.220   2.050   0.887
 1052HOH      O 3341   2.498   2.396   1.456
 1052HOH     H1 3342   2.533   2.444   1.381
 1052HOH     H2 3343   2.537   2.439   1.532
 1053HOH      O 3344   0.468   3.318   3.608
 1053HOH     H1 3345   0.379   3.337   3.639
 1053HOH     H2 3346   0.505   3.404   3.588
 1054HOH      O 3347   2.912   3.377   1.804
 1054HOH     H1 3348   2.890   3.286   1.820
 1054HOH     H2 3349   2.911   3.387   1.709
 1055HOH      O 3350   1.982   3.591   0.916
 1055HOH     H1 3351   2.005   3.684   0.922
 1055HOH     H2 3352   2.033   3.550   0.986
 1056HOH      O 3353   1.358   0.729   2.137
 1056HOH     H1 3354   1.281   0.749   2.190
 1056HOH     H2 3355   1.383   0.813   2.098
 1057HOH      O 3356   0.625   3.832   3.597
 1057HOH     H1 3357   0.559   3.763   3.597
 1057HOH     H2 3358   0.574   3.913   3.608
 1058HOH      O 3359   1.565   2.144   0.254
 1058HOH     H1 3360   1.575   2.056   0.218
 1058HOH     H2 3361   1.652   2.166   0.288
 1059HOH      O 3362   1.937   1.589   1.629
 1059HOH     H1 3363   2.007   1.616   1.570
 1059HOH     H2 3364   1.978   1.588   1.716
 1060HOH      O 3365   3.036   2.557   1.219
 1060HOH     H1 3366   3.128   2.558   1.194
 1060HOH     H2 3367   3.017   2.648   1.242
 1061HOH      O 3368   1.399   1.176   3.728
 1061HOH     H1 3369   1.357   1.210   3.649
 1061HOH     H2 3370   1.365   1.231   3.799
 1062HOH      O 3371   1.148   3.755   3.681
 1062HOH     H1 3372   1.221   3.765   3.621
 1062HOH     H2 3373   1.076   3.724   3.627
 1063HOH      O 3374   2.907   1.748   2.424
 1063HOH     H1 3375   2.864   1.731   2.341
 1063HOH     H2 3376   2.869   1.830   2.454
 1064HOH      O 3377   2.396   3.396   3.973
 1064HOH     H1 3378   2.449   3.476   3.976
 1064HOH     H2 3379   2.434   3.340   4.040
 1065HOH      O 3380   4.053   3.112   3.508
 1065HOH     H1 3381   3.972   3.064   3.519
 1065HOH     H2 3382   4.053   3.139   3.416
 1066HOH      O 3383   3.476   1.155   2.272
 1066HOH     H1 3384   3.496   1.233   2.324
 1066HOH     H2 3385   3.407   1.184   2.212
 1067HOH      O 3386   3.582   0.124   0.215
 1067HOH     H1 3387   3.613   0.164   0.134
 1067HOH     H2 3388   3.568   0.032   0.191
 1068HOH      O 3389   1.099   1.916   0.225
 1068HOH     H1 3390   1.024   1.976   0.222
 1068HOH     H2 3391   1.123   1.913   0.318
 1069HOH      O 3392   0.752   3.643   2.279
 1069HOH     H1 3393   0.765   3.725   2.230
 1069HOH     H2 3394   0.819   3.646   2.347
 1070HOH      O 3395   0.850   2.216   0.519
 1070HOH     H1 3396   0.812   2.134   0.550
 1070HOH     H2 3397   0.945   2.203   0.526
 1071HOH      O 3398   0.572   2.866  -0.025
 1071HOH     H1 3399   0.573   2.825   0.062
 1071HOH     H2 3400   0.497   2.925  -0.023
 1072HOH      O 3401   3.862   2.687   1.868
 1072HOH     H1 3402   3.943   2.677   1.918
 1072HOH     H2 3403   3.887   2.669   1.777
 1073HOH      O 3404   0.422   2.313   3.367
 1073HOH     H1 3405   0.467   2.249   3.311
 1073HOH     H2 3406   0.336   2.324   3.325
 1074HOH      O 3407   1.990   1.223   1.058
 1074HOH     H1 3408   1.914   1.256   1.106
 1074HOH     H2 3409   2.065   1.247   1.112
 1075HOH      O 3410   0.626   1.980   0.115
 1075HOH     H1 3411   0.675   2.028   0.049
 1075HOH     H2 3412   0.619   2.040   0.189
 1076HOH      O 3413   0.572   3.134   0.996
 1076HOH     H1 3414   0.513   3.203   1.025
 1076HOH     H2 3415   0.543   3.113   0.907
 1077HOH      O 3416   2.507   1.469   2.375
 1077HOH     H1 3417   2.597   1.437   2.372
 1077HOH     H2 3418   2.459   1.400   2.421
 1078HOH      O 3419   0.761   0.380   1.884
 1078HOH     H1 3420   0.748   0.286   1.899
 1078HOH     H2 3421   0.843   0.386   1.835
 1079HOH      O 3422   3.639   2.412   1.063
 1079HOH     H1 3423   3.544   2.416   1.048
 1079HOH     H2 3424   3.661   2.500   1.095
 1080HOH      O 3425   2.806   3.956   2.947
 1080HOH     H1 3426   2.819   4.031   2.889
 1080HOH     H2 3427   2.873   3.965   3.015
 1081HOH      O 3428   0.194   2.036   1.984
 1081HOH     H1 3429   0.163   1.946   1.996
 1081HOH     H2 3430   0.154   2.085   2.057
 1082HOH      O 3431   1.833   3.115   3.008
 1082HOH     H1 3432   1.820   3.199   2.963
 1082HOH     H2 3433   1.763   3.059   2.973
 1083HOH      O 3434   0.405   1.044   3.813
 1083HOH     H1 3435   0.336   1.024   3.749
 1083HOH     H2 3436   0.364   1.105   3.874
 1084HOH      O 3437   2.439   1.633   3.069
 1084HOH     H1 3438   2.425   1.539   3.064
 1084HOH     H2 3439   2.491   1.646   3.149
 1085HOH      O 3440   0.571   2.264   2.046
 1085HOH     H1 3441   0.561   2.297   1.957
 1085HOH     H2 3442   0.482   2.263   2.081
 1086HOH      O 3443   0.264   2.860   3.434
 1086HOH     H1 3444   0.356   2.861   3.409
 1086HOH     H2 3445   0.241   2.952   3.446
 1087HOH      O 3446   0.966   3.640   2.458
 1087HOH     H1 3447   1.050   3.683   2.446
 1087HOH     H2 3448   0.984   3.566   2.516
 1088HOH      O 3449   0.725   0.649   3.989
 1088HOH     H1 3450   0.645   0.626   4.036
 1088HOH     H2 3451   0.695   0.695   3.911
 1089HOH      O 3452   1.301   0.430   2.294
 1089HOH     H1 3453   1.385   0.404   2.332
 1089HOH     H2 3454   1.319   0.512   2.249
 1090HOH      O 3455   1.468   2.167   2.572
 1090HOH     H1 3456   1.481   2.135   2.483
 1090HOH     H2 3457   1.538   2.127   2.623
 1091HOH      O 3458   2.263   2.048   3.562
 1091HOH     H1 3459   2.323   2.026   3.633
 1091HOH     H2 3460   2.288   1.990   3.490
 1092HOH      O 3461   1.541   1.542   1.399
 1092HOH     H1 3462   1.548   1.493   1.481
 1092HOH     H2 3463   1.451   1.526   1.369
 1093HOH      O 3464   0.421   2.896   1.104
 1093HOH     H1 3465   0.479   2.971   1.087
 1093HOH     H2 3466   0.479   2.829   1.140
 1094HOH      O 3467   1.154   1.930   1.571
 1094HOH     H1 3468   1.208   1.854   1.590
 1094HOH     H2 3469   1.137   1.925   1.477
 1095HOH      O 3470   0.630   1.036   3.128
 1095HOH     H1 3471   0.670   1.040   3.041
 1095HOH     H2 3472   0.584   0.952   3.130
 1096HOH      O 3473   3.778   3.108   0.308
 1096HOH     H1 3474   3.704   3.072   0.358
 1096HOH     H2 3475   3.844   3.125   0.375
 1097HOH      O 3476   0.957   3.523   3.440
 1097HOH     H1 3477   0.956   3.606   3.487
 1097HOH     H2 3478   0.869   3.515   3.404
 1098HOH      O 3479   1.959   0.870   0.767
 1098HOH     H1 3480   1.987   0.779   0.753
 1098HOH     H2 3481   1.885   0.882   0.708
 1099HOH      O 3482   3.116   0.504   2.713
 1099HOH     H1 3483   3.036   0.506   2.660
 1099HOH     H2 3484   3.151   0.416   2.699
 1100HOH      O 3485   1.774   3.636   3.175
 1100HOH     H1 3486   1.736   3.648   3.262
 1100HOH     H2 3487   1.777   3.542   3.162
 1101HOH      O 3488   0.710   0.642   0.380
 1101HOH     H1 3489   0.720   0.626   0.474
 1101HOH     H2 3490   0.696   0.736   0.373
 1102HOH      O 3491   0.280   2.853   1.506
 1102HOH     H1 3492   0.265   2.761   1.484
 1102HOH     H2 3493   0.238   2.864   1.591
 1103HOH      O 3494   0.629   1.843   2.038
 1103HOH     H1 3495   0.573   1.910   2.001
 1103HOH     H2 3496   0.682   1.812   1.964
 1104HOH      O 3497   1.613   2.610   1.326
 1104HOH     H1 3498   1.701   2.641   1.345
 1104HOH     H2 3499   1.581   2.575   1.409
 1105HOH      O 3500   0.422   1.754   0.419
 1105HOH     H1 3501   0.489   1.735   0.353
 1105HOH     H2 3502   0.371   1.826   0.383
 1106HOH      O 3503   3.283   3.977   0.434
 1106HOH     H1 3504   3.369   3.938   0.429
 1106HOH     H2 3505   3.273   4.003   0.525
 1107HOH      O 3506   0.947   2.920   3.971
 1107HOH     H1 3507   0.863   2.879   3.992
 1107HOH     H2 3508   0.924   3.009   3.944
 1108HOH      O 3509   1.787   0.959   0.983
 1108HOH     H1 3510   1.709   1.014   0.996
 1108HOH     H2 3511   1.763   0.875   1.021
 1109HOH      O 3512   3.106   2.860   2.823
 1109HOH     H1 3513   3.170   2.842   2.891
 1109HOH     H2 3514   3.086   2.775   2.785
 1110HOH      O 3515   2.210   2.522   1.772
 1110HOH     H1 3516   2.287   2.469   1.793
 1110HOH     H2 3517   2.242   2.612   1.767
 1111HOH      O 3518   2.150   3.835   0.888
 1111HOH     H1 3519   2.106   3.872   0.812
 1111HOH     H2 3520   2.243   3.832   0.863
 1112HOH      O 3521   2.744   3.972   1.710
 1112HOH     H1 3522   2.801   3.902   1.680
 1112HOH     H2 3523   2.686   3.931   1.775
 1113HOH      O 3524   0.519   3.191   2.266
 1113HOH     H1 3525   0.566   3.268   2.296
 1113HOH     H2 3526   0.586   3.122   2.260
 1114HOH      O 3527   2.251   0.914   3.251
 1114HOH     H1 3528   2.217   0.859   3.179
 1114HOH     H2 3529   2.298   0.984   3.207
 1115HOH      O 3530   3.945   3.228   3.263
 1115HOH     H1 3531   3.892   3.149   3.274
 1115HOH     H2 3532   3.924   3.260   3.175
 1116HOH      O 3533   1.848   2.016   0.042
 1116HOH     H1 3534   1.758   2.014   0.010
 1116HOH     H2 3535   1.897   2.058  -0.028
 1117HOH      O 3536   1.970   0.821   3.365
 1117HOH     H1 3537   2.035   0.761   3.402
 1117HOH     H2 3538   2.009   0.908   3.378
 1118HOH      O 3539   0.037   3.462   3.436
 1118HOH     H1 3540   0.036   3.379   3.387
 1118HOH     H2 3541   0.052   3.529   3.370
 1119HOH      O 3542   3.103   0.841   3.453
 1119HOH     H1 3543   3.059   0.866   3.535
 1119HOH     H2 3544   3.082   0.913   3.392
 1120HOH      O 3545   2.919   1.520   0.483
 1120HOH     H1 3546   2.956   1.433   0.497
 1120HOH     H2 3547   2.883   1.516   0.394
 1121HOH      O 3548   3.211   1.409   2.370
 1121HOH     H1 3549   3.208   1.364   2.286
 1121HOH     H2 3550   3.173   1.346   2.432
 1122HOH      O 3551   0.760   0.755   0.642
 1122HOH     H1 3552   0.677   0.798   0.621
 1122HOH     H2 3553   0.767   0.763   0.737
 1123HOH      O 3554   1.681   1.710   3.953
 1123HOH     H1 3555   1.632   1.790   3.969
 1123HOH     H2 3556   1.745   1.733   3.886
 1124HOH      O 3557   2.439   0.194   3.044
 1124HOH     H1 3558   2.378   0.120   3.035
 1124HOH     H2 3559   2.395   0.253   3.105
 1125HOH      O 3560   2.714   3.572   1.843
 1125HOH     H1 3561   2.773   3.503   1.872
 1125HOH     H2 3562   2.633   3.526   1.822
 1126HOH      O 3563   1.607   2.439   2.340
 1126HOH     H1 3564   1.663   2.438   2.263
 1126HOH     H2 3565   1.584   2.347   2.354
 1127HOH      O 3566   2.615   2.191   1.931
 1127HOH     H1 3567   2.687   2.181   1.868
 1127HOH     H2 3568   2.541   2.221   1.879
 1128HOH      O 3569   0.967   1.418   0.894
 1128HOH     H1 3570   0.872   1.418   0.892
 1128HOH     H2 3571   0.994   1.420   0.803
 1129HOH      O 3572   1.124   2.896   3.670
 1129HOH     H1 3573   1.099   2.947   3.747
 1129HOH     H2 3574   1.171   2.820   3.706
 1130HOH      O 3575   0.959   1.348   1.263
 1130HOH     H1 3576   0.979   1.440   1.247
 1130HOH     H2 3577   0.882   1.350   1.319
 1131HOH      O 3578   3.615   2.331   2.057
 1131HOH     H1 3579   3.704   2.365   2.067
 1131HOH     H2 3580   3.605   2.269   2.129
 1132HOH      O 3581   1.315   3.262   3.360
 1132HOH     H1 3582   1.384   3.234   3.419
 1132HOH     H2 3583   1.236   3.266   3.415
 1133HOH      O 3584   0.246   3.558   2.281
 1133HOH     H1 3585   0.216   3.648   2.272
 1133HOH     H2 3586   0.340   3.565   2.300
 1134HOH      O 3587   2.034   0.847   1.106
 1134HOH     H1 3588   2.061   0.760   1.136
 1134HOH     H2 3589   1.946   0.834   1.071
 1135HOH      O 3590   3.365   2.461   1.960
 1135HOH     H1 3591   3.377   2.550   1.993
 1135HOH     H2 3592   3.451   2.420   1.971
 1136HOH      O 3593   2.442   3.800   3.463
 1136HOH     H1 3594   2.422   3.784   3.370
 1136HOH     H2 3595   2.531   3.835   3.463
 1137HOH      O 3596   3.829   3.522   3.787
 1137HOH     H1 3597   3.898   3.581   3.757
 1137HOH     H2 3598   3.838   3.445   3.729
 1138HOH      O 3599   0.845   3.180   3.930
 1138HOH     H1 3600   0.894   3.263   3.928
 1138HOH     H2 3601   0.770   3.197   3.873
 1139HOH      O 3602   2.819   1.917   0.248
 1139HOH     H1 3603   2.781   2.004   0.260
 1139HOH     H2 3604   2.744   1.861   0.230
 1140HOH      O 3605   0.047   0.195   1.822
 1140HOH     H1 3606   0.018   0.195   1.731
 1140HOH     H2 3607   0.137   0.163   1.819
 1141HOH      O 3608   0.461   1.532   1.026
 1141HOH     H1 3609   0.427   1.610   0.982
 1141HOH     H2 3610   0.397   1.513   1.095
 1142HOH      O 3611   0.681   0.919   0.387
 1142HOH     H1 3612   0.740   0.969   0.443
 1142HOH     H2 3613   0.666   0.976   0.311
 1143HOH      O 3614   2.820   2.489   2.635
 1143HOH     H1 3615   2.775   2.428   2.694
 1143HOH     H2 3616   2.806   2.453   2.548
 1144HOH      O 3617   1.882   1.585   2.725
 1144HOH     H1 3618   1.956   1.637   2.691
 1144HOH     H2 3619   1.898   1.579   2.819
 1145HOH      O 3620   3.994   1.406   3.613
 1145HOH     H1 3621   4.021   1.454   3.691
 1145HOH     H2 3622   3.983   1.316   3.643
 1146HOH      O 3623   2.155   2.166   2.844
 1146HOH     H1 3624   2.244   2.184   2.812
 1146HOH     H2 3625   2.102   2.237   2.808
 1147HOH      O 3626   3.836   2.820   1.294
 1147HOH     H1 3627   3.797   2.870   1.366
 1147HOH     H2 3628   3.890   2.884   1.247
 1148HOH      O 3629   0.764   1.087   3.812
 1148HOH     H1 3630   0.685   1.057   3.859
 1148HOH     H2 3631   0.731   1.153   3.751
 1149HOH      O 3632   3.997   3.887   2.080
 1149HOH     H1 3633   3.960   3.958   2.028
 1149HOH     H2 3634   3.924   3.826   2.093
 1150HOH      O 3635   0.629   3.132   1.254
 1150HOH     H1 3636   0.620   3.108   1.161
 1150HOH     H2 3637   0.545   3.107   1.293
 1151HOH      O 3638   3.656   0.685   0.494
 1151HOH     H1 3639   3.647   0.683   0.399
 1151HOH     H2 3640   3.619   0.601   0.523
 1152HOH      O 3641   2.528   1.645   1.919
 1152HOH     H1 3642   2.577   1.703   1.862
 1152HOH     H2 3643   2.579   1.564   1.920
 1153HOH      O 3644   1.752   1.397   1.553
 1153HOH     H1 3645   1.667   1.384   1.596
 1153HOH     H2 3646   1.786   1.478   1.591
 1154HOH      O 3647   3.302   1.195   2.818
 1154HOH     H1 3648   3.264   1.274   2.779
 1154HOH     H2 3649   3.395   1.201   2.797
 1155HOH      O 3650   1.605   2.896   3.296
 1155HOH     H1 3651   1.660   2.889   3.375
 1155HOH     H2 3652   1.662   2.869   3.225
 1156HOH      O 3653   2.142   0.399   3.386
 1156HOH     H1 3654   2.229   0.397   3.346
 1156HOH     H2 3655   2.085   0.356   3.323
 1157HOH      O 3656   2.657   1.079   1.066
 1157HOH     H1 3657   2.574   1.033   1.075
 1157HOH     H2 3658   2.635   1.157   1.014
 1158HOH      O 3659   3.225   0.619   2.471
 1158HOH     H1 3660   3.235   0.567   2.551
 1158HOH     H2 3661   3.285   0.693   2.483
 1159HOH      O 3662   1.271   1.759   1.194
 1159HOH     H1 3663   1.240   1.820   1.262
 1159HOH     H2 3664   1.200   1.696   1.184
 1160HOH      O 3665   1.330   3.785   0.826
 1160HOH     H1 3666   1.282   3.854   0.779
 1160HOH     H2 3667   1.262   3.724   0.854
 1161HOH      O 3668   1.969   2.270   0.160
 1161HOH     H1 3669   1.948   2.273   0.254
 1161HOH     H2 3670   1.951   2.180   0.135
 1162HOH      O 3671   1.213   1.665   1.482
 1162HOH     H1 3672   1.120   1.683   1.496
 1162HOH     H2 3673   1.214   1.583   1.433
 1163HOH      O 3674   1.665   1.492   3.750
 1163HOH     H1 3675   1.651   1.519   3.841
 1163HOH     H2 3676   1.664   1.397   3.753
 1164HOH      O 3677   0.465   1.541   1.684
 1164HOH     H1 3678   0.412   1.464   1.663
 1164HOH     H2 3679   0.534   1.508   1.741
 1165HOH      O 3680   3.836   1.219   2.711
 1165HOH     H1 3681   3.881   1.221   2.627
 1165HOH     H2 3682   3.906   1.234   2.776
 1166HOH      O 3683   1.104   2.147   0.541
 1166HOH     H1 3684   1.145   2.164   0.457
 1166HOH     H2 3685   1.120   2.054   0.558
 1167HOH      O 3686   2.177   3.508   0.046
 1167HOH     H1 3687   2.259   3.465   0.023
 1167HOH     H2 3688   2.144   3.543  -0.036
 1168HOH      O 3689   0.426   2.549   0.943
 1168HOH     H1 3690   0.426   2.594   1.028
 1168HOH     H2 3691   0.334   2.535   0.923
 1169HOH      O 3692   3.186   3.225   3.111
 1169HOH     H1 3693   3.098   3.234   3.075
 1169HOH     H2 3694   3.239   3.197   3.036
 1170HOH      O 3695   0.597   0.956   3.987
 1170HOH     H1 3696   0.519   0.982   3.939
 1170HOH     H2 3697   0.572   0.874   4.031
 1171HOH      O 3698   0.829   1.461   3.709
 1171HOH     H1 3699   0.824   1.488   3.801
 1171HOH     H2 3700   0.773   1.523   3.663
 1172HOH      O 3701   0.793   2.612   1.264
 1172HOH     H1 3702   0.842   2.540   1.225
 1172HOH     H2 3703   0.826   2.690   1.220
 1173HOH      O 3704   1.964   1.422   2.504
 1173HOH     H1 3705   1.968   1.464   2.418
 1173HOH     H2 3706   1.914   1.481   2.558
 1174HOH      O 3707   1.695   1.749   1.162
 1174HOH     H1 3708   1.669   1.669   1.117
 1174HOH     H2 3709   1.614   1.784   1.198
 1175HOH      O 3710   1.061   2.737   2.446
 1175HOH     H1 3711   0.991   2.697   2.394
 1175HOH     H2 3712   1.087   2.668   2.507
 1176HOH      O 3713   0.969   0.221   2.100
 1176HOH     H1 3714   1.017   0.177   2.030
 1176HOH     H2 3715   0.916   0.152   2.140
 1177HOH      O 3716   3.000   0.573   3.678
 1177HOH     H1 3717   3.026   0.527   3.757
 1177HOH     H2 3718   3.020   0.512   3.607
 1178HOH      O 3719   0.680   2.398   2.272
 1178HOH     H1 3720   0.591   2.397   2.235
 1178HOH     H2 3721   0.710   2.308   2.265
 1179HOH      O 3722   3.626   0.089   3.183
 1179HOH     H1 3723   3.532   0.099   3.167
 1179HOH     H2 3724   3.636   0.103   3.277
 1180HOH      O 3725   1.352   3.111   0.330
 1180HOH     H1 3726   1.271   3.102   0.280
 1180HOH     H2 3727   1.350   3.039   0.392
 1181HOH      O 3728   3.522   2.369   3.366
 1181HOH     H1 3729   3.607   2.412   3.368
 1181HOH     H2 3730   3.459   2.440   3.376
 1182HOH      O 3731   3.121   2.627   2.153
 1182HOH     H1 3732   3.075   2.661   2.230
 1182HOH     H2 3733   3.117   2.532   2.164
 1183HOH      O 3734   1.067   1.294   1.882
 1183HOH     H1 3735   1.037   1.307   1.792
 1183HOH     H2 3736   1.075   1.199   1.891
 1184HOH      O 3737   0.909   1.396   1.632
 1184HOH     H1 3738   0.830   1.389   1.685
 1184HOH     H2 3739   0.878   1.384   1.542
 1185HOH      O 3740   2.376   3.146   1.127
 1185HOH     H1 3741   2.399   3.057   1.155
 1185HOH     H2 3742   2.358   3.193   1.209
 1186HOH      O 3743   2.341   0.897   0.199
 1186HOH     H1 3744   2.365   0.824   0.257
 1186HOH     H2 3745   2.246   0.903   0.206
 1187HOH      O 3746   0.387   1.626   3.988
 1187HOH     H1 3747   0.382   1.530   3.989
 1187HOH     H2 3748   0.342   1.653   4.068
 1188HOH      O 3749   0.503   2.729   0.754
 1188HOH     H1 3750   0.408   2.735   0.749
 1188HOH     H2 3751   0.520   2.656   0.814
 1189HOH      O 3752   1.428   3.362   1.000
 1189HOH     H1 3753   1.453   3.454   1.006
 1189HOH     H2 3754   1.456   3.325   1.084
 1190HOH      O 3755   2.368   3.736   3.795
 1190HOH     H1 3756   2.396   3.720   3.705
 1190HOH     H2 3757   2.272   3.732   3.792
 1191HOH      O 3758   3.840   0.185   3.068
 1191HOH     H1 3759   3.833   0.116   3.002
 1191HOH     H2 3760   3.765   0.170   3.125
 1192HOH      O 3761   3.204   0.481   3.192
 1192HOH     H1 3762   3.256   0.536   3.250
 1192HOH     H2 3763   3.223   0.513   3.104
 1193HOH      O 3764   1.302   1.589   3.568
 1193HOH     H1 3765   1.229   1.616   3.512
 1193HOH     H2 3766   1.281   1.623   3.654
 1194HOH      O 3767   1.645   1.505   1.010
 1194HOH     H1 3768   1.561   1.475   0.975
 1194HOH     H2 3769   1.700   1.517   0.932
 1195HOH      O 3770   3.074   2.211   0.514
 1195HOH     H1 3771   3.019   2.199   0.591
 1195HOH     H2 3772   3.018   2.258   0.452
 1196HOH      O 3773   3.990   2.788   1.070
 1196HOH     H1 3774   3.977   2.876   1.036
 1196HOH     H2 3775   3.947   2.731   1.006
 1197HOH      O 3776   1.767   2.262   3.639
 1197HOH     H1 3777   1.722   2.237   3.558
 1197HOH     H2 3778   1.836   2.196   3.648
 1198HOH      O 3779   1.223   0.576   1.269
 1198HOH     H1 3780   1.266   0.583   1.183
 1198HOH     H2 3781   1.161   0.504   1.258
 1199HOH      O 3782   0.548   1.944   2.280
 1199HOH     H1 3783   0.562   1.933   2.186
 1199HOH     H2 3784   0.593   1.870   2.320
 1200HOH      O 3785   1.836   3.985   2.494
 1200HOH     H1 3786   1.921   4.006   2.456
 1200HOH     H2 3787   1.786   4.066   2.487
 1201HOH      O 3788   1.544   3.052   0.824
 1201HOH     H1 3789   1.521   3.085   0.737
 1201HOH     H2 3790   1.512   3.119   0.885
 1202HOH      O 3791   3.034   2.145   3.394
 1202HOH     H1 3792   3.057   2.052   3.393
 1202HOH     H2 3793   3.052   2.174   3.484
 1203HOH      O 3794   2.677   3.335   2.116
 1203HOH     H1 3795   2.650   3.426   2.124
 1203HOH     H2 3796   2.709   3.312   2.204
 1204HOH      O 3797   0.364   3.347   1.400
 1204HOH     H1 3798   0.437   3.332   1.461
 1204HOH     H2 3799   0.350   3.261   1.360
 1205HOH      O 3800   0.078   1.731   3.741
 1205HOH     H1 3801  -0.013   1.722   3.711
 1205HOH     H2 3802   0.071   1.777   3.825
 1206HOH      O 3803   2.601   1.743   0.718
 1206HOH     H1 3804   2.559   1.770   0.799
 1206HOH     H2 3805   2.652   1.819   0.691
 1207HOH      O 3806   3.950   2.046   1.362
 1207HOH     H1 3807   3.924   2.125   1.408
 1207HOH     H2 3808   3.934   1.975   1.425
 1208HOH      O 3809   1.484   0.533   3.391
 1208HOH     H1 3810   1.555   0.487   3.346
 1208HOH     H2 3811   1.473   0.484   3.473
 1209HOH      O 3812   0.278   3.529   1.204
 1209HOH     H1 3813   0.191   3.494   1.183
 1209HOH     H2 3814   0.300   3.490   1.288
 1210HOH      O 3815   2.917   2.132   2.942
 1210HOH     H1 3816   2.897   2.107   3.032
 1210HOH     H2 3817   2.853   2.084   2.889
 1211HOH      O 3818   2.305   0.063   2.544
 1211HOH     H1 3819   2.337   0.137   2.492
 1211HOH     H2 3820   2.378   0.001   2.544
 1212HOH      O 3821   0.230   3.262   2.340
 1212HOH     H1 3822   0.300   3.196   2.341
 1212HOH     H2 3823   0.213   3.276   2.247
 1213HOH      O 3824   1.555   0.305   0.259
 1213HOH     H1 3825   1.620   0.255   0.308
 1213HOH     H2 3826   1.586   0.302   0.168
 1214HOH      O 3827   1.109   2.315   0.299
 1214HOH     H1 3828   1.140   2.352   0.217
 1214HOH     H2 3829   1.073   2.230   0.275
 1215HOH      O 3830   0.979   0.754   3.925
 1215HOH     H1 3831   1.001   0.831   3.873
 1215HOH     H2 3832   0.896   0.722   3.889
 1216HOH      O 3833   1.866   0.931   1.830
 1216HOH     H1 3834   1.877   0.881   1.911
 1216HOH     H2 3835   1.928   1.004   1.837
 1217HOH      O 3836   0.214   2.748   0.421
 1217HOH     H1 3837   0.220   2.671   0.364
 1217HOH     H2 3838   0.192   2.713   0.507
 1218HOH      O 3839   2.465   1.573   3.777
 1218HOH     H1 3840   2.423   1.488   3.793
 1218HOH     H2 3841   2.474   1.612   3.864
 1219HOH      O 3842   3.928   0.278   1.594
 1219HOH     H1 3843   3.969   0.323   1.520
 1219HOH     H2 3844   3.859   0.225   1.554
 1220HOH      O 3845   0.778   1.558   2.850
 1220HOH     H1 3846   0.772   1.463   2.859
 1220HOH     H2 3847   0.732   1.577   2.768
 1221HOH      O 3848   3.564   2.644   0.824
 1221HOH     H1 3849   3.476   2.627   0.860
 1221HOH     H2 3850   3.565   2.739   0.809
 1222HOH      O 3851   1.018   3.535   0.689
 1222HOH     H1 3852   1.033   3.533   0.784
 1222HOH     H2 3853   0.948   3.598   0.677
 1223HOH      O 3854   2.778   3.452   3.430
 1223HOH     H1 3855   2.863   3.462   3.386
 1223HOH     H2 3856   2.730   3.391   3.375
 1224HOH      O 3857   3.153   0.942   2.528
 1224HOH     H1 3858   3.238   0.904   2.552
 1224HOH     H2 3859   3.155   0.942   2.432
 1225HOH      O 3860   0.742   3.426   3.300
 1225HOH     H1 3861   0.674   3.388   3.245
 1225HOH     H2 3862   0.819   3.371   3.285
 1226HOH      O 3863  -0.006   0.199   2.246
 1226HOH     H1 3864   0.010   0.293   2.256
 1226HOH     H2 3865   0.007   0.183   2.153
 1227HOH      O 3866   1.048   3.892   1.395
 1227HOH     H1 3867   0.995   3.820   1.430
 1227HOH     H2 3868   1.132   3.852   1.374
 1228HOH      O 3869   1.597   3.093   0.217
 1228HOH     H1 3870   1.507   3.088   0.247
 1228HOH     H2 3871   1.600   3.172   0.163
 1229HOH      O 3872   2.724   3.890   0.100
 1229HOH     H1 3873   2.704   3.980   0.126
 1229HOH     H2 3874   2.654   3.837   0.139
 1230HOH      O 3875   2.276   1.207   2.126
 1230HOH     H1 3876   2.241   1.194   2.214
 1230HOH     H2 3877   2.220   1.275   2.088
 1231HOH      O 3878   3.330   1.760   1.129
 1231HOH     H1 3879   3.395   1.791   1.065
 1231HOH     H2 3880   3.355   1.801   1.211
 1232HOH      O 3881   1.548   2.102   1.677
 1232HOH     H1 3882   1.599   2.046   1.735
 1232HOH     H2 3883   1.460   2.066   1.680
 1233HOH      O 3884   1.003   2.574   0.025
 1233HOH     H1 3885   1.075   2.513   0.007
 1233HOH     H2 3886   0.978   2.555   0.116
 1234HOH      O 3887   3.524   2.974   1.855
 1234HOH     H1 3888   3.568   2.899   1.894
 1234HOH     H2 3889   3.544   3.047   1.914
 1235HOH      O 3890   2.844   2.107   1.491
 1235HOH     H1 3891   2.783   2.088   1.420
 1235HOH     H2 3892   2.931   2.102   1.450
 1236HOH      O 3893   0.754   0.138   1.569
 1236HOH     H1 3894   0.738   0.129   1.475
 1236HOH     H2 3895   0.848   0.149   1.577
 1237HOH      O 3896   2.748   1.439   0.267
 1237HOH     H1 3897   2.726   1.388   0.189
 1237HOH     H2 3898   2.711   1.389   0.340
 1238HOH      O 3899   1.795   0.613   3.279
 1238HOH     H1 3900   1.842   0.691   3.308
 1238HOH     H2 3901   1.807   0.612   3.184
 1239HOH      O 3902   2.153   1.781   3.098
 1239HOH     H1 3903   2.220   1.724   3.059
 1239HOH     H2 3904   2.186   1.870   3.084
 1240HOH      O 3905   0.140   0.400   0.460
 1240HOH     H1 3906   0.055   0.376   0.496
 1240HOH     H2 3907   0.174   0.467   0.520
 1241HOH      O 3908   2.135   1.319   1.280
 1241HOH     H1 3909   2.061   1.378   1.294
 1241HOH     H2 3910   2.183   1.320   1.363
 1242HOH      O 3911   1.232   0.434   0.761
 1242HOH     H1 3912   1.211   0.519   0.801
 1242HOH     H2 3913   1.152   0.383   0.772
 1243HOH      O 3914   2.253   1.557   2.250
 1243HOH     H1 3915   2.198   1.486   2.217
 1243HOH     H2 3916   2.328   1.512   2.289
 1244HOH      O 3917   2.048   2.287   3.181
 1244HOH     H1 3918   1.954   2.293   3.197
 1244HOH     H2 3919   2.072   2.200   3.213
 1245HOH      O 3920   0.300   1.435   0.823
 1245HOH     H1 3921   0.362   1.464   0.889
 1245HOH     H2 3922   0.215   1.460   0.857
 1246HOH      O 3923   0.775   0.200   0.231
 1246HOH     H1 3924   0.715   0.268   0.262
 1246HOH     H2 3925   0.718   0.127   0.208
 1247HOH      O 3926   0.211   3.381   3.184
 1247HOH     H1 3927   0.168   3.338   3.111
 1247HOH     H2 3928   0.206   3.475   3.163
 1248HOH      O 3929   0.329   1.733   2.509
 1248HOH     H1 3930   0.262   1.671   2.481
 1248HOH     H2 3931   0.342   1.790   2.434
 1249HOH      O 3932   0.594   2.886   2.118
 1249HOH     H1 3933   0.689   2.876   2.114
 1249HOH     H2 3934   0.560   2.801   2.093
 1250HOH      O 3935   1.281   2.926   3.107
 1250HOH     H1 3936   1.205   2.972   3.071
 1250HOH     H2 3937   1.295   2.853   3.047
 1251HOH      O 3938   0.479   0.741   0.063
 1251HOH     H1 3939   0.462   0.710   0.152
 1251HOH     H2 3940   0.394   0.734   0.019
 1252HOH      O 3941   1.854   1.136   0.746
 1252HOH     H1 3942   1.817   1.063   0.696
 1252HOH     H2 3943   1.779   1.180   0.785
 1253HOH      O 3944   2.306   3.453   3.050
 1253HOH     H1 3945   2.263   3.483   2.970
 1253HOH     H2 3946   2.394   3.429   3.022
 1254HOH      O 3947   2.756   0.164   2.763
 1254HOH     H1 3948   2.674   0.209   2.785
 1254HOH     H2 3949   2.822   0.208   2.817
 1255HOH      O 3950   2.363   3.235   3.371
 1255HOH     H1 3951   2.389   3.283   3.292
 1255HOH     H2 3952   2.344   3.147   3.340
 1256HOH      O 3953   1.269   1.335   2.529
 1256HOH     H1 3954   1.311   1.347   2.444
 1256HOH     H2 3955   1.195   1.397   2.528
 1257HOH      O 3956   2.599   3.535   3.076
 1257HOH     H1 3957   2.680   3.585   3.082
 1257HOH     H2 3958   2.531   3.595   3.106
 1258HOH      O 3959   2.407   3.739   3.176
 1258HOH     H1 3960   2.359   3.738   3.093
 1258HOH     H2 3961   2.479   3.801   3.161
 1259HOH      O 3962   2.537   3.469   0.509
 1259HOH     H1 3963   2.487   3.478   0.590
 1259HOH     H2 3964   2.496   3.395   0.465
 1260HOH      O 3965   1.489   1.827   2.873
 1260HOH     H1 3966   1.525   1.757   2.927
 1260HOH     H2 3967   1.566   1.879   2.848
 1261HOH      O 3968   1.088   3.114   0.595
 1261HOH     H1 3969   1.137   3.152   0.667
 1261HOH     H2 3970   0.997   3.138   0.613
 1262HOH      O 3971   0.581   0.022   4.010
 1262HOH     H1 3972   0.548   0.050   4.096
 1262HOH     H2 3973   0.526   0.069   3.947
 1263HOH      O 3974   1.326   0.511   1.511
 1263HOH     H1 3975   1.365   0.423   1.507
 1263HOH     H2 3976   1.290   0.525   1.423
 1264HOH      O 3977   2.831   0.866   3.059
 1264HOH     H1 3978   2.759   0.805   3.075
 1264HOH     H2 3979   2.788   0.947   3.032
 1265HOH      O 3980   1.807   0.939   3.150
 1265HOH     H1 3981   1.807   0.898   3.236
 1265HOH     H2 3982   1.734   1.001   3.153
 1266HOH      O 3983   2.005   1.923   2.817
 1266HOH     H1 3984   2.038   2.012   2.827
 1266HOH     H2 3985   1.940   1.913   2.887
 1267HOH      O 3986   1.332   1.784   3.191
 1267HOH     H1 3987   1.414   1.766   3.144
 1267HOH     H2 3988   1.277   1.828   3.126
 1268HOH      O 3989   1.456   3.921   1.076
 1268HOH     H1 3990   1.462   3.840   1.027
 1268HOH     H2 3991   1.496   3.901   1.161
 1269HOH      O 3992   1.730   1.323   1.225
 1269HOH     H1 3993   1.704   1.384   1.156
 1269HOH     H2 3994   1.666   1.338   1.295
 1270HOH      O 3995   3.089   0.309   1.209
 1270HOH     H1 3996   3.068   0.227   1.165
 1270HOH     H2 3997   3.134   0.362   1.143
 1271HOH      O 3998   2.931   0.222   0.165
 1271HOH     H1 3999   2.914   0.154   0.100
 1271HOH     H2 4000   3.020   0.206   0.195
 1272HOH      O 4001   0.749   3.823   2.610
 1272HOH     H1 4002   0.813   3.753   2.602
 1272HOH     H2 4003   0.685   3.791   2.673
 1273HOH      O 4004   0.519   1.957   1.466
 1273HOH     H1 4005   0.426   1.950   1.448
 1273HOH     H2 4006   0.525   2.026   1.533
 1274HOH      O 4007   1.486   2.654   2.111
 1274HOH     H1 4008   1.529   2.614   2.035
 1274HOH     H2 4009   1.523   2.609   2.187
 1275HOH      O 4010   3.590   1.556   3.768
 1275HOH     H1 4011   3.656   1.542   3.836
 1275HOH     H2 4012   3.609   1.489   3.702
 1276HOH      O 4013   1.744   1.472   0.716
 1276HOH     H1 4014   1.765   1.558   0.681
 1276HOH     H2 4015   1.828   1.426   0.722
 1277HOH      O 4016   3.744   0.551   1.359
 1277HOH     H1 4017   3.756   0.604   1.281
 1277HOH     H2 4018   3.818   0.490   1.358
 1278HOH      O 4019   0.031   2.662   2.083
 1278HOH     H1 4020   0.114   2.638   2.040
 1278HOH     H2 4021   0.049   2.746   2.125
 1279HOH      O 4022   0.681   3.548   1.702
 1279HOH     H1 4023   0.615   3.581   1.641
 1279HOH     H2 4024   0.650   3.577   1.788
 1280HOH      O 4025   0.503   0.167   0.206
 1280HOH     H1 4026   0.504   0.123   0.291
 1280HOH     H2 4027   0.490   0.260   0.227
 1281HOH      O 4028   0.719   3.381   2.254
 1281HOH     H1 4029   0.725   3.476   2.263
 1281HOH     H2 4030   0.751   3.347   2.337
 1282HOH      O 4031   3.675   0.957   0.420
 1282HOH     H1 4032   3.681   0.862   0.413
 1282HOH     H2 4033   3.720   0.990   0.342
 1283HOH      O 4034   3.859   0.303   0.128
 1283HOH     H1 4035   3.928   0.239   0.142
 1283HOH     H2 4036   3.795   0.257   0.072
 1284HOH      O 4037   2.968   0.981   1.661
 1284HOH     H1 4038   3.038   0.968   1.597
 1284HOH     H2 4039   2.978   0.909   1.722
 1285HOH      O 4040   1.678   0.216   4.006
 1285HOH     H1 4041   1.743   0.174   3.951
 1285HOH     H2 4042   1.613   0.147   4.022
 1286HOH      O 4043   0.084   0.221   3.734
 1286HOH     H1 4044   0.027   0.193   3.807
 1286HOH     H2 4045   0.041   0.185   3.656
 1287HOH      O 4046   2.287   3.258   1.877
 1287HOH     H1 4047   2.342   3.215   1.943
 1287HOH     H2 4048   2.202   3.215   1.887
 1288HOH      O 4049   1.167   1.871   0.490
 1288HOH     H1 4050   1.170   1.775   0.494
 1288HOH     H2 4051   1.249   1.899   0.529
 1289HOH      O 4052   2.806   1.507   1.774
 1289HOH     H1 4053   2.747   1.477   1.843
 1289HOH     H2 4054   2.850   1.427   1.743
 1290HOH      O 4055   0.235   3.690   0.967
 1290HOH     H1 4056   0.317   3.725   0.932
 1290HOH     H2 4057   0.262   3.641   1.045
 1291HOH      O 4058   2.398   3.738   2.118
 1291HOH     H1 4059   2.448   3.656   2.123
 1291HOH     H2 4060   2.421   3.785   2.198
 1292HOH      O 4061   3.427   3.597  -0.016
 1292HOH     H1 4062   3.390   3.509  -0.007
 1292HOH     H2 4063   3.379   3.649   0.049
 1293HOH      O 4064   1.512   3.354   3.953
 1293HOH     H1 4065   1.510   3.284   3.888
 1293HOH     H2 4066   1.515   3.434   3.900
 1294HOH      O 4067   3.669   1.790   1.865
 1294HOH     H1 4068   3.625   1.872   1.891
 1294HOH     H2 4069   3.669   1.737   1.944
 1295HOH      O 4070   0.252   3.434   2.567
 1295HOH     H1 4071   0.176   3.492   2.566
 1295HOH     H2 4072   0.231   3.367   2.502
 1296HOH      O 4073   0.705   3.870   1.775
 1296HOH     H1 4074   0.658   3.804   1.826
 1296HOH     H2 4075   0.646   3.889   1.701
 1297HOH      O 4076   0.747   3.055   0.236
 1297HOH     H1 4077   0.754   3.063   0.141
 1297HOH     H2 4078   0.772   2.964   0.254
 1298HOH      O 4079   0.740   3.276   2.908
 1298HOH     H1 4080   0.739   3.195   2.856
 1298HOH     H2 4081   0.831   3.284   2.937
 1299HOH      O 4082   3.516   1.726   0.659
 1299HOH     H1 4083   3.516   1.633   0.636
 1299HOH     H2 4084   3.483   1.770   0.580
 1300HOH      O 4085   0.618   3.457   0.456
 1300HOH     H1 4086   0.659   3.398   0.392
 1300HOH     H2 4087   0.595   3.400   0.530
 1301HOH      O 4088   0.516   2.098   2.671
 1301HOH     H1 4089   0.600   2.112   2.713
 1301HOH     H2 4090   0.451   2.125   2.736
 1302HOH      O 4091   2.476   3.203   0.454
 1302HOH     H1 4092   2.556   3.211   0.506
 1302HOH     H2 4093   2.456   3.110   0.454
 1303HOH      O 4094   0.710   2.769   1.477
 1303HOH     H1 4095   0.789   2.822   1.468
 1303HOH     H2 4096   0.711   2.712   1.400
 1304HOH      O 4097   0.829   3.788   3.893
 1304HOH     H1 4098   0.857   3.807   3.803
 1304HOH     H2 4099   0.736   3.766   3.885
 1305HOH      O 4100   0.439   0.011   3.605
 1305HOH     H1 4101   0.439   0.029   3.699
 1305HOH     H2 4102   0.347   0.000   3.583
 1306HOH      O 4103   1.849   1.484   3.047
 1306HOH     H1 4104   1.851   1.501   3.141
 1306HOH     H2 4105   1.884   1.395   3.038
 1307HOH      O 4106   1.064   2.979   2.934
 1307HOH     H1 4107   0.980   2.946   2.964
 1307HOH     H2 4108   1.069   2.953   2.842
 1308HOH      O 4109   1.267   2.925   3.426
 1308HOH     H1 4110   1.252   2.914   3.520
 1308HOH     H2 4111   1.186   2.894   3.385
 1309HOH      O 4112   3.446   1.831   0.890
 1309HOH     H1 4113   3.380   1.899   0.876
 1309HOH     H2 4114   3.459   1.792   0.803
 1310HOH      O 4115   2.703   3.696   2.403
 1310HOH     H1 4116   2.758   3.623   2.375
 1310HOH     H2 4117   2.615   3.671   2.374
 1311HOH      O 4118   3.148   3.247   1.922
 1311HOH     H1 4119   3.056   3.275   1.923
 1311HOH     H2 4120   3.145   3.155   1.895
 1312HOH      O 4121   1.054   0.620   0.917
 1312HOH     H1 4122   0.981   0.564   0.944
 1312HOH     H2 4123   1.028   0.653   0.831
 1313HOH      O 4124   2.772   3.599   0.425
 1313HOH     H1 4125   2.816   3.565   0.347
 1313HOH     H2 4126   2.711   3.530   0.450
 1314HOH      O 4127   3.081   0.711   0.824
 1314HOH     H1 4128   3.051   0.719   0.733
 1314HOH     H2 4129   3.153   0.649   0.820
 1315HOH      O 4130   3.260   0.284   3.956
 1315HOH     H1 4131   3.279   0.306   4.047
 1315HOH     H2 4132   3.299   0.197   3.944
 1316HOH      O 4133   2.051   3.093   2.342
 1316HOH     H1 4134   2.041   3.143   2.424
 1316HOH     H2 4135   1.971   3.112   2.293
 1317HOH      O 4136   0.771   2.894   3.036
 1317HOH     H1 4137   0.761   2.960   3.105
 1317HOH     H2 4138   0.754   2.941   2.955
 1318HOH      O 4139   1.429   3.511   1.703
 1318HOH     H1 4140   1.370   3.580   1.672
 1318HOH     H2 4141   1.371   3.436   1.720
 1319HOH      O 4142   0.005   2.354   0.798
 1319HOH     H1 4143   0.054   2.325   0.721
 1319HOH     H2 4144  -0.003   2.449   0.787
 1320HOH      O 4145   2.055   2.584   3.603
 1320HOH     H1 4146   2.053   2.598   3.508
 1320HOH     H2 4147   2.128   2.523   3.616
 1321HOH      O 4148   2.974   1.161   3.977
 1321HOH     H1 4149   2.978   1.075   4.020
 1321HOH     H2 4150   3.050   1.208   4.012
 1322HOH      O 4151   1.772   2.576   3.578
 1322HOH     H1 4152   1.736   2.548   3.494
 1322HOH     H2 4153   1.860   2.537   3.581
 1323HOH      O 4154   2.629   0.832   1.687
 1323HOH     H1 4155   2.676   0.814   1.606
 1323HOH     H2 4156   2.557   0.889   1.662
 1324HOH      O 4157   0.853   1.833   3.936
 1324HOH     H1 4158   0.888   1.817   4.023
 1324HOH     H2 4159   0.792   1.761   3.921
 1325HOH      O 4160   3.680   3.805   1.066
 1325HOH     H1 4161   3.657   3.890   1.027
 1325HOH     H2 4162   3.603   3.750   1.050
 1326HOH      O 4163   3.455   1.843   4.029
 1326HOH     H1 4164   3.491   1.923   4.069
 1326HOH     H2 4165   3.434   1.869   3.939
 1327HOH      O 4166   2.768   2.732   3.476
 1327HOH     H1 4167   2.830   2.724   3.403
 1327HOH     H2 4168   2.710   2.657   3.466
 1328HOH      O 4169   1.551   2.123   2.993
 1328HOH     H1 4170   1.457   2.123   3.012
 1328HOH     H2 4171   1.559   2.071   2.913
 1329HOH      O 4172   3.296   3.439   3.800
 1329HOH     H1 4173   3.294   3.421   3.894
 1329HOH     H2 4174   3.389   3.449   3.779
 1330HOH      O 4175   2.255   0.323   0.263
 1330HOH     H1 4176   2.293   0.364   0.185
 1330HOH     H2 4177   2.170   0.289   0.233
 1331HOH      O 4178   3.196   1.624   0.531
 1331HOH     H1 4179   3.247   1.566   0.475
 1331HOH     H2 4180   3.108   1.620   0.495
 1332HOH      O 4181   1.698   2.695   2.917
 1332HOH     H1 4182   1.646   2.622   2.883
 1332HOH     H2 4183   1.787   2.660   2.923
 1333HOH      O 4184   2.083   3.997   2.383
 1333HOH     H1 4185   2.086   3.907   2.349
 1333HOH     H2 4186   2.173   4.017   2.406
 1334HOH      O 4187   1.229   0.050   0.504
 1334HOH     H1 4188   1.137   0.073   0.505
 1334HOH     H2 4189   1.265   0.093   0.582
 1335HOH      O 4190   3.380   1.191   0.219
 1335HOH     H1 4191   3.464   1.191   0.266
 1335HOH     H2 4192   3.316   1.167   0.286
 1336HOH      O 4193   0.410   0.648   2.567
 1336HOH     H1 4194   0.422   0.566   2.615
 1336HOH     H2 4195   0.415   0.623   2.475
 1337HOH      O 4196   2.625   2.204   1.118
 1337HOH     H1 4197   2.541   2.240   1.091
 1337HOH     H2 4198   2.669   2.182   1.036
 1338HOH      O 4199   1.811   0.137   1.509
 1338HOH     H1 4200   1.799   0.079   1.584
 1338HOH     H2 4201   1.906   0.148   1.502
 1339HOH      O 4202   0.019   2.455   3.489
 1339HOH     H1 4203   0.048   2.546   3.495
 1339HOH     H2 4204   0.086   2.411   3.438
 1340HOH      O 4205   1.710   3.591   1.258
 1340HOH     H1 4206   1.648   3.561   1.325
 1340HOH     H2 4207   1.788   3.538   1.272
 1341HOH      O 4208   0.968   2.777   1.455
 1341HOH     H1 4209   1.053   2.748   1.423
 1341HOH     H2 4210   0.950   2.720   1.530
 1342HOH      O 4211   0.209   2.010   3.247
 1342HOH     H1 4212   0.195   2.068   3.172
 1342HOH     H2 4213   0.167   1.927   3.221
 1343HOH      O 4214   3.572   0.668   3.416
 1343HOH     H1 4215   3.582   0.664   3.321
 1343HOH     H2 4216   3.661   0.662   3.450
 1344HOH      O 4217   2.659   2.817   0.971
 1344HOH     H1 4218   2.699   2.874   1.037
 1344HOH     H2 4219   2.708   2.735   0.977
 1345HOH      O 4220   2.877   3.826   3.876
 1345HOH     H1 4221   2.785   3.830   3.851
 1345HOH     H2 4222   2.891   3.735   3.903
 1346HOH      O 4223   0.663   1.779   1.136
 1346HOH     H1 4224   0.616   1.711   1.183
 1346HOH     H2 4225   0.719   1.732   1.074
 1347HOH      O 4226   2.408   2.395   3.484
 1347HOH     H1 4227   2.361   2.446   3.550
 1347HOH     H2 4228   2.487   2.364   3.528
 1348HOH      O 4229   1.829   3.800   2.729
 1348HOH     H1 4230   1.781   3.845   2.799
 1348HOH     H2 4231   1.815   3.855   2.651
 1349HOH      O 4232   0.268   1.244   3.604
 1349HOH     H1 4233   0.291   1.262   3.513
 1349HOH     H2 4234   0.225   1.159   3.602
 1350HOH      O 4235   2.998   4.037   2.032
 1350HOH     H1 4236   2.978   3.951   1.996
 1350HOH     H2 4237   2.914   4.082   2.034
 1351HOH      O 4238   2.214   0.048   2.799
 1351HOH     H1 4239   2.267   0.054   2.720
 1351HOH     H2 4240   2.129   0.085   2.774
 1352HOH      O 4241   3.762   1.594   0.277
 1352HOH     H1 4242   3.736   1.631   0.193
 1352HOH     H2 4243   3.765   1.669   0.337
 1353HOH      O 4244   2.794   0.029   1.455
 1353HOH     H1 4245   2.775  -0.012   1.539
 1353HOH     H2 4246   2.870   0.085   1.472
 1354HOH      O 4247   3.006   4.024   1.258
 1354HOH     H1 4248   3.001   4.078   1.337
 1354HOH     H2 4249   2.967   3.941   1.284
 1355HOH      O 4250   3.552   1.298   2.768
 1355HOH     H1 4251   3.547   1.390   2.741
 1355HOH     H2 4252   3.646   1.282   2.780
 1356HOH      O 4253   1.382   3.247   1.924
 1356HOH     H1 4254   1.298   3.275   1.887
 1356HOH     H2 4255   1.377   3.152   1.925
 1357HOH      O 4256   2.642   0.150   0.240
 1357HOH     H1 4257   2.617   0.177   0.152
 1357HOH     H2 4258   2.564   0.108   0.275
 1358HOH      O 4259   2.919   0.154   2.320
 1358HOH     H1 4260   2.911   0.058   2.321
 1358HOH     H2 4261   2.855   0.182   2.254
 1359HOH      O 4262   3.548   1.889   3.309
 1359HOH     H1 4263   3.542   1.794   3.306
 1359HOH     H2 4264   3.548   1.911   3.402
 1360HOH      O 4265   2.120   2.346   3.745
 1360HOH     H1 4266   2.092   2.431   3.780
 1360HOH     H2 4267   2.150   2.297   3.822
 1361HOH      O 4268   3.894   0.263   3.357
 1361HOH     H1 4269   3.946   0.200   3.307
 1361HOH     H2 4270   3.842   0.208   3.416
 1362HOH      O 4271   0.329   3.007   0.011
 1362HOH     H1 4272   0.282   2.933  -0.027
 1362HOH     H2 4273   0.274   3.037   0.083
 1363HOH      O 4274   0.549   2.967   1.582
 1363HOH     H1 4275   0.612   2.908   1.541
 1363HOH     H2 4276   0.465   2.942   1.544
 1364HOH      O 4277   3.827   0.516   0.752
 1364HOH     H1 4278   3.736   0.484   0.755
 1364HOH     H2 4279   3.871   0.456   0.692
 1365HOH      O 4280   0.294   2.671   0.084
 1365HOH     H1 4281   0.255   2.602   0.139
 1365HOH     H2 4282   0.386   2.674   0.111
 1366HOH      O 4283   1.061   1.302   3.111
 1366HOH     H1 4284   1.100   1.311   3.025
 1366HOH     H2 4285   1.062   1.207   3.129
 1367HOH      O 4286   2.263   0.041   1.061
 1367HOH     H1 4287   2.287   0.129   1.031
 1367HOH     H2 4288   2.346  -0.001   1.083
 1368HOH      O 4289   2.623   0.441   3.966
 1368HOH     H1 4290   2.568   0.476   3.896
 1368HOH     H2 4291   2.707   0.425   3.924
 1369HOH      O 4292   3.942   1.699   3.407
 1369HOH     H1 4293   4.006   1.732   3.344
 1369HOH     H2 4294   3.952   1.604   3.403
 1370HOH      O 4295   3.907   0.851   1.327
 1370HOH     H1 4296   3.992   0.836   1.287
 1370HOH     H2 4297   3.848   0.792   1.281
 1371HOH      O 4298   0.100   0.935   0.275
 1371HOH     H1 4299   0.064   0.940   0.187
 1371HOH     H2 4300   0.107   0.841   0.293
 1372HOH      O 4301   2.931   0.042   3.999
 1372HOH     H1 4302   2.891  -0.025   3.944
 1372HOH     H2 4303   2.994  -0.005   4.053
 1373HOH      O 4304   1.929   1.490   1.348
 1373HOH     H1 4305   1.852   1.468   1.295
 1373HOH     H2 4306   1.893   1.510   1.434
 1374HOH      O 4307   2.377   2.981   2.648
 1374HOH     H1 4308   2.317   2.910   2.671
 1374HOH     H2 4309   2.435   2.942   2.582
 1375HOH      O 4310   3.581   0.628   2.471
 1375HOH     H1 4311   3.617   0.596   2.388
 1375HOH     H2 4312   3.542   0.550   2.511
 1376HOH      O 4313   2.347   1.158   0.482
 1376HOH     H1 4314   2.388   1.224   0.539
 1376HOH     H2 4315   2.254   1.181   0.482
 1377HOH      O 4316   1.130   1.800   0.834
 1377HOH     H1 4317   1.201   1.738   0.819
 1377HOH     H2 4318   1.172   1.886   0.830
 1378HOH      O 4319   3.346   2.261   2.348
 1378HOH     H1 4320   3.262   2.277   2.304
 1378HOH     H2 4321   3.366   2.344   2.390
 1379HOH      O 4322   2.840   3.815   1.959
 1379HOH     H1 4323   2.763   3.776   1.918
 1379HOH     H2 4324   2.897   3.740   1.978
 1380HOH      O 4325   3.377   0.082   1.804
 1380HOH     H1 4326   3.350   0.174   1.802
 1380HOH     H2 4327   3.298   0.034   1.780
 1381HOH      O 4328   2.676   0.795   3.926
 1381HOH     H1 4329   2.763   0.769   3.955
 1381HOH     H2 4330   2.654   0.871   3.980
 1382HOH      O 4331   2.373   2.344   1.918
 1382HOH     H1 4332   2.324   2.292   1.981
 1382HOH     H2 4333   2.422   2.406   1.972
 1383HOH      O 4334   0.893   2.414   1.116
 1383HOH     H1 4335   0.933   2.414   1.029
 1383HOH     H2 4336   0.807   2.372   1.102
 1384HOH      O 4337   3.378   2.285   0.107
 1384HOH     H1 4338   3.327   2.263   0.030
 1384HOH     H2 4339   3.467   2.297   0.074
 1385HOH      O 4340   1.803   0.288   3.023
 1385HOH     H1 4341   1.824   0.379   3.000
 1385HOH     H2 4342   1.758   0.254   2.945
 1386HOH      O 4343   2.696   0.638   0.705
 1386HOH     H1 4344   2.667   0.687   0.783
 1386HOH     H2 4345   2.762   0.578   0.739
 1387HOH      O 4346   2.664   0.005   2.539
 1387HOH     H1 4347   2.703   0.046   2.616
 1387HOH     H2 4348   2.731   0.013   2.471
 1388HOH      O 4349   1.612   3.709   3.721
 1388HOH     H1 4350   1.706   3.726   3.719
 1388HOH     H2 4351   1.590   3.704   3.814
 1389HOH      O 4352   3.971   1.538   0.548
 1389HOH     H1 4353   3.920   1.459   0.568
 1389HOH     H2 4354   3.979   1.583   0.632
 1390HOH      O 4355   0.794   1.337   0.676
 1390HOH     H1 4356   0.767   1.260   0.626
 1390HOH     H2 4357   0.742   1.409   0.641
 1391HOH      O 4358   3.613   1.174   2.033
 1391HOH     H1 4359   3.574   1.173   2.121
 1391HOH     H2 4360   3.567   1.106   1.985
 1392HOH      O 4361   0.927   3.079   3.507
 1392HOH     H1 4362   0.890   3.128   3.433
 1392HOH     H2 4363   0.998   3.136   3.539
 1393HOH      O 4364   1.729   2.412   2.599
 1393HOH     H1 4365   1.673   2.433   2.524
 1393HOH     H2 4366   1.738   2.495   2.646
 1394HOH      O 4367   3.231   2.325   0.802
 1394HOH     H1 4368   3.249   2.357   0.713
 1394HOH     H2 4369   3.264   2.235   0.803
 1395HOH      O 4370   2.641   0.540   3.090
 1395HOH     H1 4371   2.589   0.619   3.103
 1395HOH     H2 4372   2.685   0.555   3.006
 1396HOH      O 4373   0.153   0.863   1.482
 1396HOH     H1 4374   0.157   0.826   1.394
 1396HOH     H2 4375   0.186   0.952   1.471
 1397HOH      O 4376   1.824   3.341   1.020
 1397HOH     H1 4377   1.860   3.347   0.932
 1397HOH     H2 4378   1.742   3.391   1.016
 1398HOH      O 4379   0.188   3.353   2.078
 1398HOH     H1 4380   0.181   3.339   1.983
 1398HOH     H2 4381   0.178   3.448   2.089
 1399HOH      O 4382   3.078   1.530   1.540
 1399HOH     H1 4383   3.167   1.525   1.508
 1399HOH     H2 4384   3.082   1.493   1.629
 1400HOH      O 4385   2.427   0.053   0.367
 1400HOH     H1 4386   2.345   0.007   0.348
 1400HOH     H2 4387   2.401   0.125   0.425
 1401HOH      O 4388   4.026   3.622   3.209
 1401HOH     H1 4389   3.934   3.649   3.211
 1401HOH     H2 4390   4.048   3.620   3.116
 1402HOH      O 4391   2.815   3.270   3.635
 1402HOH     H1 4392   2.792   3.346   3.582
 1402HOH     H2 4393   2.908   3.283   3.656
 1403HOH      O 4394   3.447   0.743   1.055
 1403HOH     H1 4395   3.477   0.823   1.013
 1403HOH     H2 4396   3.410   0.690   0.984
 1404HOH      O 4397   1.894   1.881   3.552
 1404HOH     H1 4398   1.897   1.964   3.599
 1404HOH     H2 4399   1.934   1.899   3.467
 1405HOH      O 4400   1.948   1.765   0.112
 1405HOH     H1 4401   1.923   1.857   0.101
 1405HOH     H2 4402   1.884   1.716   0.059
 1406HOH      O 4403   0.851   2.839   0.501
 1406HOH     H1 4404   0.766   2.802   0.480
 1406HOH     H2 4405   0.832   2.911   0.561
 1407HOH      O 4406   3.102   0.112   2.524
 1407HOH     H1 4407   3.183   0.091   2.477
 1407HOH     H2 4408   3.042   0.143   2.456
 1408HOH      O 4409   0.043   0.460   0.020
 1408HOH     H1 4410  -0.041   0.448   0.064
 1408HOH     H2 4411   0.082   0.372   0.019
 1409HOH      O 4412   3.003   3.163   3.421
 1409HOH     H1 4413   2.909   3.172   3.433
 1409HOH     H2 4414   3.021   3.072   3.445
 1410HOH      O 4415   2.597   1.711   1.180
 1410HOH     H1 4416   2.685   1.679   1.157
 1410HOH     H2 4417   2.565   1.753   1.101
 1411HOH      O 4418   2.806   3.156   1.928
 1411HOH     H1 4419   2.870   3.132   1.995
 1411HOH     H2 4420   2.753   3.224   1.968
 1412HOH      O 4421   1.764   2.309   3.227
 1412HOH     H1 4422   1.686   2.271   3.269
 1412HOH     H2 4423   1.746   2.403   3.225
 1413HOH      O 4424   2.269   3.575   3.357
 1413HOH     H1 4425   2.288   3.600   3.267
 1413HOH     H2 4426   2.272   3.657   3.406
 1414HOH      O 4427   3.103   1.979   2.272
 1414HOH     H1 4428   3.078   1.888   2.289
 1414HOH     H2 4429   3.174   1.972   2.208
 1415HOH      O 4430   3.712   3.562   2.632
 1415HOH     H1 4431   3.756   3.481   2.606
 1415HOH     H2 4432   3.646   3.576   2.565
 1416HOH      O 4433   2.091   0.848   2.447
 1416HOH     H1 4434   2.017   0.808   2.494
 1416HOH     H2 4435   2.060   0.935   2.424
 1417HOH      O 4436   0.653   3.127   3.179
 1417HOH     H1 4437   0.590   3.150   3.111
 1417HOH     H2 4438   0.615   3.161   3.260
 1418HOH      O 4439   0.422   2.449   1.366
 1418HOH     H1 4440   0.438   2.406   1.450
 1418HOH     H2 4441   0.423   2.377   1.302
 1419HOH      O 4442   0.021   1.462   3.297
 1419HOH     H1 4443   0.056   1.437   3.211
 1419HOH     H2 4444   0.098   1.468   3.353
 1420HOH      O 4445   2.680   1.264   0.478
 1420HOH     H1 4446   2.676   1.168   0.478
 1420HOH     H2 4447   2.678   1.288   0.571
 1421HOH      O 4448   3.441   3.079   1.262
 1421HOH     H1 4449   3.487   3.113   1.338
 1421HOH     H2 4450   3.370   3.141   1.247
 1422HOH      O 4451   2.114   3.806   2.724
 1422HOH     H1 4452   2.145   3.867   2.791
 1422HOH     H2 4453   2.024   3.833   2.707
 1423HOH      O 4454   3.910   1.062   1.695
 1423HOH     H1 4455   3.976   1.112   1.743
 1423HOH     H2 4456   3.903   1.107   1.610
 1424HOH      O 4457   2.676   2.708   2.351
 1424HOH     H1 4458   2.744   2.641   2.358
 1424HOH     H2 4459   2.605   2.676   2.406
 1425HOH      O 4460   1.161   2.393   2.045
 1425HOH     H1 4461   1.193   2.437   2.124
 1425HOH     H2 4462   1.086   2.341   2.074
 1426HOH      O 4463   2.260   0.274   0.517
 1426HOH     H1 4464   2.282   0.324   0.438
 1426HOH     H2 4465   2.179   0.315   0.549
 1427HOH      O 4466   1.974   0.273   0.262
 1427HOH     H1 4467   1.920   0.351   0.268
 1427HOH     H2 4468   1.962   0.243   0.172
 1428HOH      O 4469   1.784   3.338   1.344
 1428HOH     H1 4470   1.852   3.282   1.305
 1428HOH     H2 4471   1.778   3.308   1.434
 1429HOH      O 4472   3.365   0.009   3.352
 1429HOH     H1 4473   3.330   0.091   3.317
 1429HOH     H2 4474   3.335  -0.058   3.291
 1430HOH      O 4475   1.423   2.414   3.952
 1430HOH     H1 4476   1.515   2.395   3.969
 1430HOH     H2 4477   1.409   2.385   3.861
 1431HOH      O 4478   3.771   3.145   3.862
 1431HOH     H1 4479   3.807   3.091   3.933
 1431HOH     H2 4480   3.729   3.218   3.908
 1432HOH      O 4481   0.579   2.191   3.848
 1432HOH     H1 4482   0.534   2.144   3.918
 1432HOH     H2 4483   0.560   2.141   3.769
 1433HOH      O 4484   2.622   0.140   0.696
 1433HOH     H1 4485   2.620   0.084   0.618
 1433HOH     H2 4486   2.699   0.111   0.745
 1434HOH      O 4487   3.882   1.231   2.177
 1434HOH     H1 4488   3.820   1.266   2.113
 1434HOH     H2 4489   3.874   1.136   2.169
 1435HOH      O 4490   0.011   1.514   1.691
 1435HOH     H1 4491   0.079   1.456   1.726
 1435HOH     H2 4492   0.006   1.586   1.754
 1436HOH      O 4493   3.070   1.057   2.217
 1436HOH     H1 4494   2.986   1.042   2.175
 1436HOH     H2 4495   3.051   1.114   2.291
 1437HOH      O 4496   3.927   0.685   0.913
 1437HOH     H1 4497   4.011   0.705   0.872
 1437HOH     H2 4498   3.882   0.629   0.849
 1438HOH      O 4499   3.546   1.439   0.095
 1438HOH     H1 4500   3.529   1.529   0.125
 1438HOH     H2 4501   3.608   1.404   0.159
 1439HOH      O 4502   2.530   2.963   1.917
 1439HOH     H1 4503   2.549   3.043   1.967
 1439HOH     H2 4504   2.541   2.892   1.981
 1440HOH      O 4505   0.505   2.351   0.051
 1440HOH     H1 4506   0.582   2.385   0.095
 1440HOH     H2 4507   0.535   2.330  -0.038
 1441HOH      O 4508   2.512   2.458   0.769
 1441HOH     H1 4509   2.571   2.464   0.694
 1441HOH     H2 4510   2.432   2.503   0.740
 1442HOH      O 4511   2.139   0.298   1.161
 1442HOH     H1 4512   2.058   0.287   1.212
 1442HOH     H2 4513   2.192   0.222   1.183
 1443HOH      O 4514   1.763   0.043   3.658
 1443HOH     H1 4515   1.769   0.137   3.675
 1443HOH     H2 4516   1.760   0.004   3.745
 1444HOH      O 4517   0.399   0.146   3.146
 1444HOH     H1 4518   0.487   0.172   3.173
 1444HOH     H2 4519   0.396   0.052   3.161
 1445HOH      O 4520   2.255   1.601   1.169
 1445HOH     H1 4521   2.205   1.587   1.249
 1445HOH     H2 4522   2.277   1.694   1.170
 1446HOH      O 4523   3.968   1.188   0.343
 1446HOH     H1 4524   3.994   1.097   0.328
 1446HOH     H2 4525   4.050   1.233   0.360
 1447HOH      O 4526   0.152   3.003   0.222
 1447HOH     H1 4527   0.131   2.927   0.169
 1447HOH     H2 4528   0.208   2.970   0.292
 1448HOH      O 4529   2.460   3.575   1.482
 1448HOH     H1 4530   2.513   3.648   1.515
 1448HOH     H2 4531   2.524   3.505   1.465
 1449HOH      O 4532   1.097   0.240   0.306
 1449HOH     H1 4533   1.110   0.292   0.386
 1449HOH     H2 4534   1.050   0.162   0.335
 1450HOH      O 4535   0.527   2.644   1.191
 1450HOH     H1 4536   0.622   2.640   1.200
 1450HOH     H2 4537   0.494   2.584   1.258
 1451HOH      O 4538   2.687   1.384   2.745
 1451HOH     H1 4539   2.630   1.341   2.681
 1451HOH     H2 4540   2.775   1.356   2.721
 1452HOH      O 4541   3.307   1.972   3.155
 1452HOH     H1 4542   3.393   1.957   3.195
 1452HOH     H2 4543   3.282   2.059   3.185
 1453HOH      O 4544   1.731   0.960   3.812
 1453HOH     H1 4545   1.795   0.890   3.798
 1453HOH     H2 4546   1.648   0.924   3.781
 1454HOH      O 4547   3.067   1.239   1.111
 1454HOH     H1 4548   3.004   1.221   1.180
 1454HOH     H2 4549   3.053   1.331   1.089
 1455HOH      O 4550   1.229   0.494   3.749
 1455HOH     H1 4551   1.161   0.491   3.681
 1455HOH     H2 4552   1.293   0.557   3.716
 1456HOH      O 4553   1.432   0.866   3.790
 1456HOH     H1 4554   1.431   0.946   3.737
 1456HOH     H2 4555   1.359   0.876   3.851
 1457HOH      O 4556   0.294   3.424   0.816
 1457HOH     H1 4557   0.325   3.433   0.726
 1457HOH     H2 4558   0.279   3.515   0.845
 1458HOH      O 4559  -0.014   0.414   1.385
 1458HOH     H1 4560  -0.015   0.404   1.289
 1458HOH     H2 4561   0.071   0.453   1.404
 1459HOH      O 4562   1.297   2.390   0.722
 1459HOH     H1 4563   1.392   2.389   0.737
 1459HOH     H2 4564   1.259   2.401   0.809
 1460HOH      O 4565   1.145   3.939   3.315
 1460HOH     H1 4566   1.064   3.892   3.299
 1460HOH     H2 4567   1.159   3.992   3.237
 1461HOH      O 4568   2.391   2.359   2.352
 1461HOH     H1 4569   2.430   2.393   2.271
 1461HOH     H2 4570   2.432   2.274   2.364
 1462HOH      O 4571   1.178   0.922   0.645
 1462HOH     H1 4572   1.227   0.946   0.566
 1462HOH     H2 4573   1.120   0.851   0.617
 1463HOH      O 4574   3.694   2.662   3.067
 1463HOH     H1 4575   3.730   2.750   3.055
 1463HOH     H2 4576   3.611   2.663   3.019
 1464HOH      O 4577   1.197   1.681   2.462
 1464HOH     H1 4578   1.161   1.729   2.387
 1464HOH     H2 4579   1.254   1.744   2.506
 1465HOH      O 4580   0.807   2.195   1.828
 1465HOH     H1 4581   0.712   2.197   1.836
 1465HOH     H2 4582   0.825   2.125   1.765
 1466HOH      O 4583   2.863   3.716   1.636
 1466HOH     H1 4584   2.791   3.667   1.675
 1466HOH     H2 4585   2.865   3.687   1.545
 1467HOH      O 4586   1.657   0.365   1.617
 1467HOH     H1 4587   1.731   0.348   1.559
 1467HOH     H2 4588   1.666   0.458   1.641
 1468HOH      O 4589   2.933   0.172   3.305
 1468HOH     H1 4590   2.877   0.196   3.379
 1468HOH     H2 4591   2.881   0.193   3.227
 1469HOH      O 4592   3.857   2.462   2.091
 1469HOH     H1 4593   3.867   2.557   2.104
 1469HOH     H2 4594   3.939   2.435   2.050
 1470HOH      O 4595   3.297   1.916   2.504
 1470HOH     H1 4596   3.389   1.923   2.478
 1470HOH     H2 4597   3.250   1.973   2.443
 1471HOH      O 4598   1.836   1.054   0.350
 1471HOH     H1 4599   1.796   1.067   0.265
 1471HOH     H2 4600   1.816   1.134   0.398
 1472HOH      O 4601   0.506   3.453   2.047
 1472HOH     H1 4602   0.421   3.457   2.091
 1472HOH     H2 4603   0.562   3.404   2.107
 1473HOH      O 4604   0.993   0.935   1.508
 1473HOH     H1 4605   1.079   0.897   1.525
 1473HOH     H2 4606   0.957   0.882   1.437
 1474HOH      O 4607   3.084   2.892   2.539
 1474HOH     H1 4608   3.132   2.886   2.622
 1474HOH     H2 4609   3.031   2.972   2.547
 1475HOH      O 4610   2.479   0.525   0.962
 1475HOH     H1 4611   2.442   0.610   0.942
 1475HOH     H2 4612   2.459   0.471   0.886
 1476HOH      O 4613   3.535   3.637   2.444
 1476HOH     H1 4614   3.459   3.679   2.485
 1476HOH     H2 4615   3.522   3.650   2.350
 1477HOH      O 4616   3.191   1.306   0.796
 1477HOH     H1 4617   3.201   1.233   0.858
 1477HOH     H2 4618   3.230   1.381   0.841
 1478HOH      O 4619   1.637   3.363   1.801
 1478HOH     H1 4620   1.590   3.444   1.783
 1478HOH     H2 4621   1.568   3.300   1.822
 1479HOH      O 4622   1.859   3.860   0.293
 1479HOH     H1 4623   1.935   3.805   0.273
 1479HOH     H2 4624   1.858   3.926   0.223
 1480HOH      O 4625   0.703   0.758   2.728
 1480HOH     H1 4626   0.777   0.715   2.685
 1480HOH     H2 4627   0.683   0.701   2.802
 1481HOH      O 4628   2.873   1.474   1.366
 1481HOH     H1 4629   2.947   1.521   1.404
 1481HOH     H2 4630   2.851   1.525   1.287
 1482HOH      O 4631   3.977   2.413   1.149
 1482HOH     H1 4632   4.040   2.349   1.183
 1482HOH     H2 4633   3.944   2.373   1.069
 1483HOH      O 4634   4.008   2.305   0.316
 1483HOH     H1 4635   3.979   2.384   0.360
 1483HOH     H2 4636   3.930   2.270   0.273
 1484HOH      O 4637   2.737   2.822   1.274
 1484HOH     H1 4638   2.826   2.813   1.308
 1484HOH     H2 4639   2.733   2.762   1.200
 1485HOH      O 4640   2.439   0.223   3.588
 1485HOH     H1 4641   2.511   0.185   3.639
 1485HOH     H2 4642   2.395   0.282   3.649
 1486HOH      O 4643   2.577   2.152   1.366
 1486HOH     H1 4644   2.561   2.241   1.397
 1486HOH     H2 4645   2.603   2.162   1.274
 1487HOH      O 4646   1.506   0.031   0.053
 1487HOH     H1 4647   1.433   0.031   0.115
 1487HOH     H2 4648   1.576  -0.016   0.099
 1488HOH      O 4649   1.575   1.032   1.226
 1488HOH     H1 4650   1.624   1.114   1.224
 1488HOH     H2 4651   1.490   1.055   1.187
 1489HOH      O 4652   2.224   0.344   3.842
 1489HOH     H1 4653   2.169   0.284   3.792
 1489HOH     H2 4654   2.236   0.419   3.783
 1490HOH      O 4655   3.529   1.698   1.604
 1490HOH     H1 4656   3.561   1.693   1.694
 1490HOH     H2 4657   3.597   1.747   1.557
 1491HOH      O 4658   2.048   1.667   0.818
 1491HOH     H1 4659   2.134   1.625   0.810
 1491HOH     H2 4660   2.003   1.615   0.884
 1492HOH      O 4661   0.242   2.629   1.926
 1492HOH     H1 4662   0.326   2.621   1.971
 1492HOH     H2 4663   0.256   2.699   1.862
 1493HOH      O 4664   0.176   0.366   3.200
 1493HOH     H1 4665   0.154   0.343   3.110
 1493HOH     H2 4666   0.241   0.300   3.226
 1494HOH      O 4667   0.653   1.631   3.592
 1494HOH     H1 4668   0.584   1.570   3.565
 1494HOH     H2 4669   0.640   1.708   3.537
 1495HOH      O 4670   0.343   2.506   2.683
 1495HOH     H1 4671   0.344   2.547   2.770
 1495HOH     H2 4672   0.256   2.467   2.676
 1496HOH      O 4673   2.485   0.258   1.316
 1496HOH     H1 4674   2.436   0.337   1.290
 1496HOH     H2 4675   2.493   0.207   1.236
 1497HOH      O 4676   1.411   3.518   0.145
 1497HOH     H1 4677   1.450   3.446   0.096
 1497HOH     H2 4678   1.413   3.592   0.085
 1498HOH      O 4679   3.263   3.445   2.592
 1498HOH     H1 4680   3.259   3.536   2.563
 1498HOH     H2 4681   3.232   3.447   2.682
 1499HOH      O 4682   2.436   3.184   2.099
 1499HOH     H1 4683   2.420   3.200   2.192
 1499HOH     H2 4684   2.509   3.242   2.078
 1500HOH      O 4685   3.074   2.016   1.373
 1500HOH     H1 4686   3.154   2.066   1.389
 1500HOH     H2 4687   3.089   1.932   1.416
 1501HOH      O 4688   0.857   2.073   3.326
 1501HOH     H1 4689   0.824   2.133   3.393
 1501HOH     H2 4690   0.926   2.121   3.281
 1502HOH      O 4691   1.599   2.955   2.913
 1502HOH     H1 4692   1.644   2.871   2.903
 1502HOH     H2 4693   1.530   2.954   2.846
 1503HOH      O 4694   0.941   1.979   3.701
 1503HOH     H1 4695   0.923   1.937   3.785
 1503HOH     H2 4696   0.981   1.909   3.648
 1504HOH      O 4697   3.797   3.627   3.403
 1504HOH     H1 4698   3.855   3.561   3.442
 1504HOH     H2 4699   3.709   3.592   3.418
 1505HOH      O 4700   0.973   0.801   1.748
 1505HOH     H1 4701   1.007   0.727   1.698
 1505HOH     H2 4702   0.949   0.866   1.681
 1506HOH      O 4703   2.248   1.081   3.026
 1506HOH     H1 4704   2.219   1.172   3.022
 1506HOH     H2 4705   2.167   1.030   3.028
 1507HOH      O 4706   3.836   2.584   2.541
 1507HOH     H1 4707   3.851   2.641   2.466
 1507HOH     H2 4708   3.916   2.589   2.592
 1508HOH      O 4709   3.182   3.935   0.035
 1508HOH     H1 4710   3.250   3.881   0.076
 1508HOH     H2 4711   3.230   3.991  -0.026
 1509HOH      O 4712   1.830   3.279   1.630
 1509HOH     H1 4713   1.755   3.302   1.684
 1509HOH     H2 4714   1.840   3.184   1.642
 1510HOH      O 4715   1.405   4.031   1.695
 1510HOH     H1 4716   1.461   4.058   1.768
 1510HOH     H2 4717   1.339   3.975   1.735
 1511HOH      O 4718   2.172   0.536   3.640
 1511HOH     H1 4719   2.153   0.478   3.566
 1511HOH     H2 4720   2.185   0.622   3.601
 1512HOH      O 4721   0.340   0.393   0.266
 1512HOH     H1 4722   0.319   0.363   0.177
 1512HOH     H2 4723   0.260   0.374   0.316
 1513HOH      O 4724   0.335   3.066   2.120
 1513HOH     H1 4725   0.416   3.081   2.169
 1513HOH     H2 4726   0.319   3.148   2.074
 1514HOH      O 4727   3.617   3.371   0.329
 1514HOH     H1 4728   3.624   3.351   0.422
 1514HOH     H2 4729   3.523   3.372   0.312
 1515HOH      O 4730   3.893   1.001   0.671
 1515HOH     H1 4731   3.980   1.039   0.663
 1515HOH     H2 4732   3.902   0.913   0.634
 1516HOH      O 4733   2.057   3.565   3.591
 1516HOH     H1 4734   2.071   3.476   3.623
 1516HOH     H2 4735   2.112   3.572   3.514
 1517HOH      O 4736   2.356   2.570   3.715
 1517HOH     H1 4737   2.441   2.549   3.753
 1517HOH     H2 4738   2.301   2.595   3.789
 1518HOH      O 4739   0.882   3.783   3.540
 1518HOH     H1 4740   0.908   3.870   3.572
 1518HOH     H2 4741   0.787   3.784   3.541
 1519HOH      O 4742   1.474   0.884   1.466
 1519HOH     H1 4743   1.519   0.943   1.406
 1519HOH     H2 4744   1.502   0.912   1.553
 1520HOH      O 4745   3.581   0.668   2.901
 1520HOH     H1 4746   3.655   0.702   2.850
 1520HOH     H2 4747   3.591   0.573   2.897
 1521HOH      O 4748   2.449   1.136   2.864
 1521HOH     H1 4749   2.366   1.109   2.903
 1521HOH     H2 4750   2.451   1.092   2.779
 1522HOH      O 4751   1.543   0.665   2.931
 1522HOH     H1 4752   1.538   0.745   2.879
 1522HOH     H2 4753   1.559   0.696   3.020
 1523HOH      O 4754   0.881   1.851   2.304
 1523HOH     H1 4755   0.854   1.855   2.396
 1523HOH     H2 4756   0.808   1.807   2.260
 1524HOH      O 4757   2.063   1.037   1.564
 1524HOH     H1 4758   2.078   1.119   1.517
 1524HOH     H2 4759   1.978   1.007   1.533
 1525HOH      O 4760   2.690   2.033   2.793
 1525HOH     H1 4761   2.621   1.979   2.831
 1525HOH     H2 4762   2.688   2.013   2.699
 1526HOH      O 4763   0.907   1.074   0.598
 1526HOH     H1 4764   0.993   1.034   0.585
 1526HOH     H2 4765   0.902   1.142   0.531
 1527HOH      O 4766   3.486   0.525   1.912
 1527HOH     H1 4767   3.581   0.528   1.909
 1527HOH     H2 4768   3.462   0.453   1.853
 1528HOH      O 4769   0.484   1.284   3.153
 1528HOH     H1 4770   0.539   1.207   3.145
 1528HOH     H2 4771   0.545   1.357   3.156
 1529HOH      O 4772   2.542   1.156   3.670
 1529HOH     H1 4773   2.592   1.079   3.697
 1529HOH     H2 4774   2.603   1.229   3.679
 1530HOH      O 4775   2.740   3.356   0.048
 1530HOH     H1 4776   2.656   3.310   0.049
 1530HOH     H2 4777   2.721   3.439   0.005
 1531HOH      O 4778   2.340   0.457   0.034
 1531HOH     H1 4779   2.307   0.425  -0.050
 1531HOH     H2 4780   2.353   0.551   0.021
 1532HOH      O 4781   3.477   2.189   0.360
 1532HOH     H1 4782   3.447   2.275   0.330
 1532HOH     H2 4783   3.397   2.136   0.364
 1533HOH      O 4784   3.514   1.415   1.105
 1533HOH     H1 4785   3.545   1.498   1.142
 1533HOH     H2 4786   3.425   1.405   1.140
 1534HOH      O 4787   1.505   2.784   0.824
 1534HOH     H1 4788   1.531   2.875   0.810
 1534HOH     H2 4789   1.490   2.750   0.736
 1535HOH      O 4790   3.336   0.557   2.157
 1535HOH     H1 4791   3.353   0.596   2.071
 1535HOH     H2 4792   3.416   0.511   2.179
 1536HOH      O 4793   0.157   2.493   3.799
 1536HOH     H1 4794   0.106   2.525   3.724
 1536HOH     H2 4795   0.225   2.559   3.811
 1537HOH      O 4796   1.342   0.172   0.718
 1537HOH     H1 4797   1.320   0.136   0.804
 1537HOH     H2 4798   1.316   0.264   0.724
 1538HOH      O 4799   3.797   3.830   3.695
 1538HOH     H1 4800   3.742   3.803   3.621
 1538HOH     H2 4801   3.882   3.789   3.677
 1539HOH      O 4802   0.360   1.816   1.719
 1539HOH     H1 4803   0.431   1.753   1.711
 1539HOH     H2 4804   0.302   1.796   1.646
 1540HOH      O 4805   2.560   2.088   3.374
 1540HOH     H1 4806   2.487   2.134   3.334
 1540HOH     H2 4807   2.635   2.146   3.361
 1541HOH      O 4808   1.528   2.063   2.332
 1541HOH     H1 4809   1.493   1.997   2.273
 1541HOH     H2 4810   1.610   2.027   2.363
 1542HOH      O 4811   3.799   2.269   0.135
 1542HOH     H1 4812   3.797   2.219   0.054
 1542HOH     H2 4813   3.781   2.205   0.204
 1543HOH      O 4814   2.449   1.679   1.409
 1543HOH     H1 4815   2.479   1.695   1.320
 1543HOH     H2 4816   2.472   1.758   1.457
 1544HOH      O 4817   3.720   0.692   1.121
 1544HOH     H1 4818   3.631   0.720   1.098
 1544HOH     H2 4819   3.776   0.728   1.052
 1545HOH      O 4820   0.487   2.632   2.060
 1545HOH     H1 4821   0.475   2.558   2.118
 1545HOH     H2 4822   0.565   2.609   2.008
 1546HOH      O 4823   1.426   1.384   0.920
 1546HOH     H1 4824   1.350   1.382   0.979
 1546HOH     H2 4825   1.387   1.388   0.832
 1547HOH      O 4826   2.329   2.998   1.474
 1547HOH     H1 4827   2.275   3.077   1.477
 1547HOH     H2 4828   2.332   2.968   1.565
 1548HOH      O 4829   3.388   0.645   1.638
 1548HOH     H1 4830   3.466   0.699   1.624
 1548HOH     H2 4831   3.406   0.598   1.719
 1549HOH      O 4832   3.380   3.719   3.726
 1549HOH     H1 4833   3.444   3.754   3.788
 1549HOH     H2 4834   3.330   3.655   3.777
 1550HOH      O 4835   0.907   1.718   0.616
 1550HOH     H1 4836   0.987   1.733   0.666
 1550HOH     H2 4837   0.915   1.775   0.540
 1551HOH      O 4838   1.172   2.672   3.821
 1551HOH     H1 4839   1.259   2.698   3.851
 1551HOH     H2 4840   1.119   2.668   3.901
 1552HOH      O 4841   2.532   1.982   2.535
 1552HOH     H1 4842   2.519   1.887   2.543
 1552HOH     H2 4843   2.444   2.017   2.524
 1553HOH      O 4844   0.717   2.463   3.828
 1553HOH     H1 4845   0.798   2.424   3.795
 1553HOH     H2 4846   0.647   2.410   3.790
 1554HOH      O 4847   3.523   2.931   3.563
 1554HOH     H1 4848   3.599   2.879   3.539
 1554HOH     H2 4849   3.546   3.021   3.539
 1555HOH      O 4850   3.212   0.969   0.703
 1555HOH     H1 4851   3.277   0.900   0.716
 1555HOH     H2 4852   3.218   1.023   0.781
 1556HOH      O 4853   1.265   2.747   2.858
 1556HOH     H1 4854   1.187   2.709   2.818
 1556HOH     H2 4855   1.318   2.776   2.784
 1557HOH      O 4856   1.472   3.714   3.978
 1557HOH     H1 4857   1.543   3.756   4.027
 1557HOH     H2 4858   1.419   3.787   3.946
 1558HOH      O 4859   2.206   2.109   3.910
 1558HOH     H1 4860   2.155   2.088   3.832
 1558HOH     H2 4861   2.291   2.067   3.896
 1559HOH      O 4862   1.603   3.834   0.779
 1559HOH     H1 4863   1.508   3.829   0.791
 1559HOH     H2 4864   1.614   3.883   0.697
 1560HOH      O 4865   1.210   0.276   1.218
 1560HOH     H1 4866   1.147   0.275   1.146
 1560HOH     H2 4867   1.158   0.253   1.295
 1561HOH      O 4868   0.509   3.563   3.444
 1561HOH     H1 4869   0.487   3.492   3.384
 1561HOH     H2 4870   0.554   3.627   3.389
 1562HOH      O 4871   2.564   1.041   2.602
 1562HOH     H1 4872   2.641   1.065   2.550
 1562HOH     H2 4873   2.564   0.945   2.602
 1563HOH      O 4874   1.557   2.216   3.424
 1563HOH     H1 4875   1.494   2.237   3.354
 1563HOH     H2 4876   1.531   2.129   3.453
 1564HOH      O 4877   2.183   0.796   3.509
 1564HOH     H1 4878   2.219   0.848   3.581
 1564HOH     H2 4879   2.192   0.853   3.432
 1565HOH      O 4880   3.504   3.201   3.525
 1565HOH     H1 4881   3.555   3.280   3.505
 1565HOH     H2 4882   3.416   3.222   3.492
 1566HOH      O 4883   4.046   2.091   0.804
 1566HOH     H1 4884   3.983   2.034   0.849
 1566HOH     H2 4885   4.021   2.180   0.830
 1567HOH      O 4886   2.722   0.097   1.961
 1567HOH     H1 4887   2.761   0.093   1.873
 1567HOH     H2 4888   2.647   0.038   1.957
 1568HOH      O 4889   1.492   2.534   1.842
 1568HOH     H1 4890   1.569   2.478   1.829
 1568HOH     H2 4891   1.427   2.476   1.881
 1569HOH      O 4892   1.125   0.446   2.528
 1569HOH     H1 4893   1.149   0.536   2.549
 1569HOH     H2 4894   1.186   0.420   2.459
 1570HOH      O 4895   1.535   3.263   1.249
 1570HOH     H1 4896   1.622   3.293   1.273
 1570HOH     H2 4897   1.546   3.170   1.231
 1571HOH      O 4898   3.772   0.063   2.567
 1571HOH     H1 4899   3.695   0.007   2.573
 1571HOH     H2 4900   3.739   0.147   2.536
 1572HOH      O 4901   2.819   2.191   1.764
 1572HOH     H1 4902   2.865   2.274   1.775
 1572HOH     H2 4903   2.826   2.172   1.670
 1573HOH      O 4904   0.160   3.825   2.272
 1573HOH     H1 4905   0.171   3.884   2.346
 1573HOH     H2 4906   0.085   3.860   2.223
 1574HOH      O 4907   1.537   1.557   0.454
 1574HOH     H1 4908   1.592   1.590   0.383
 1574HOH     H2 4909   1.518   1.466   0.429
 1575HOH      O 4910   1.665   0.968   1.648
 1575HOH     H1 4911   1.720   0.977   1.726
 1575HOH     H2 4912   1.727   0.942   1.579
 1576HOH      O 4913   2.847   2.217   0.704
 1576HOH     H1 4914   2.893   2.247   0.782
 1576HOH     H2 4915   2.819   2.297   0.660
 1577HOH      O 4916   2.978   2.790   1.378
 1577HOH     H1 4917   3.067   2.824   1.386
 1577HOH     H2 4918   2.941   2.797   1.466
 1578HOH      O 4919   3.350   2.475   0.564
 1578HOH     H1 4920   3.350   2.570   0.563
 1578HOH     H2 4921   3.433   2.450   0.523
 1579HOH      O 4922   3.034   2.717   1.895
 1579HOH     H1 4923   3.057   2.712   1.988
 1579HOH     H2 4924   3.062   2.805   1.869
 1580HOH      O 4925   3.143   0.881   1.460
 1580HOH     H1 4926   3.070   0.901   1.402
 1580HOH     H2 4927   3.218   0.868   1.402
 1581HOH      O 4928   3.665   0.707   3.162
 1581HOH     H1 4929   3.746   0.747   3.129
 1581HOH     H2 4930   3.616   0.684   3.083
 1582HOH      O 4931   2.184   1.331   2.667
 1582HOH     H1 4932   2.196   1.381   2.749
 1582HOH     H2 4933   2.128   1.386   2.613
 1583HOH      O 4934   1.290   1.423   1.309
 1583HOH     H1 4935   1.224   1.366   1.349
 1583HOH     H2 4936   1.283   1.407   1.215
 1584HOH      O 4937   3.155   0.747   2.864
 1584HOH     H1 4938   3.159   0.812   2.793
 1584HOH     H2 4939   3.135   0.665   2.819
 1585HOH      O 4940   2.636   1.364   1.941
 1585HOH     H1 4941   2.559   1.321   1.902
 1585HOH     H2 4942   2.710   1.318   1.902
 1586HOH      O 4943   2.062   1.252   0.497
 1586HOH     H1 4944   1.984   1.282   0.452
 1586HOH     H2 4945   2.035   1.244   0.589
 1587HOH      O 4946   1.558   1.547   3.486
 1587HOH     H1 4947   1.466   1.551   3.511
 1587HOH     H2 4948   1.604   1.530   3.568
 1588HOH      O 4949   3.857   1.320   0.661
 1588HOH     H1 4950   3.887   1.230   0.645
 1588HOH     H2 4951   3.848   1.326   0.756
 1589HOH      O 4952   1.000   3.046   1.485
 1589HOH     H1 4953   1.007   2.952   1.469
 1589HOH     H2 4954   0.958   3.081   1.407
 1590HOH      O 4955   0.138   0.819   0.872
 1590HOH     H1 4956   0.211   0.779   0.919
 1590HOH     H2 4957   0.152   0.914   0.881
 1591HOH      O 4958   1.472   0.132   1.237
 1591HOH     H1 4959   1.464   0.059   1.175
 1591HOH     H2 4960   1.384   0.170   1.240
 1592HOH      O 4961   0.801   1.048   3.329
 1592HOH     H1 4962   0.749   1.038   3.410
 1592HOH     H2 4963   0.735   1.047   3.259
 1593HOH      O 4964   2.413   0.563   2.145
 1593HOH     H1 4965   2.345   0.550   2.212
 1593HOH     H2 4966   2.392   0.498   2.077
 1594HOH      O 4967   2.644   2.401   3.614
 1594HOH     H1 4968   2.740   2.409   3.621
 1594HOH     H2 4969   2.612   2.430   3.699
 1595HOH      O 4970   2.775   1.292   1.529
 1595HOH     H1 4971   2.784   1.354   1.456
 1595HOH     H2 4972   2.863   1.284   1.565
 1596HOH      O 4973   1.657   2.695   1.683
 1596HOH     H1 4974   1.600   2.642   1.737
 1596HOH     H2 4975   1.635   2.785   1.706
 1597HOH      O 4976   2.900   2.712   0.447
 1597HOH     H1 4977   2.925   2.798   0.482
 1597HOH     H2 4978   2.979   2.659   0.457
 1598HOH      O 4979   3.645   3.799   2.813
 1598HOH     H1 4980   3.640   3.731   2.746
 1598HOH     H2 4981   3.719   3.853   2.787
 1599HOH      O 4982   2.702   2.813   2.684
 1599HOH     H1 4983   2.736   2.835   2.771
 1599HOH     H2 4984   2.722   2.720   2.673
 1600HOH      O 4985   1.785   2.586   3.276
 1600HOH     H1 4986   1.877   2.562   3.286
 1600HOH     H2 4987   1.786   2.668   3.227
 1601HOH      O 4988   2.355   1.039   1.695
 1601HOH     H1 4989   2.322   0.995   1.774
 1601HOH     H2 4990   2.420   1.100   1.728
 1602HOH      O 4991   2.494   1.097   3.243
 1602HOH     H1 4992   2.437   1.091   3.319
 1602HOH     H2 4993   2.567   1.153   3.272
 1603HOH      O 4994   0.448   3.348   3.285
 1603HOH     H1 4995   0.358   3.353   3.253
 1603HOH     H2 4996   0.448   3.274   3.346
 1604HOH      O 4997   1.226   0.976   3.900
 1604HOH     H1 4998   1.143   0.962   3.855
 1604HOH     H2 4999   1.249   1.067   3.881
 1605HOH      O 5000   0.551   2.850   2.756
 1605HOH     H1 5001   0.491   2.799   2.702
 1605HOH     H2 5002   0.514   2.844   2.845
 1606HOH      O 5003   2.946   0.629   1.318
 1606HOH     H1 5004   2.889   0.705   1.333
 1606HOH     H2 5005   2.971   0.636   1.227
 1607HOH      O 5006   1.311   3.541   0.618
 1607HOH     H1 5007   1.384   3.533   0.678
 1607HOH     H2 5008   1.233   3.540   0.674
 1608HOH      O 5009   0.321   0.204   2.877
 1608HOH     H1 5010   0.227   0.222   2.877
 1608HOH     H2 5011   0.341   0.180   2.967
 1609HOH      O 5012   1.858   2.180   2.592
 1609HOH     H1 5013   1.816   2.266   2.589
 1609HOH     H2 5014   1.938   2.191   2.541
 1610HOH      O 5015   2.943   0.221   0.468
 1610HOH     H1 5016   3.014   0.224   0.403
 1610HOH     H2 5017   2.976   0.274   0.540
 1611HOH      O 5018   0.913   1.068   0.861
 1611HOH     H1 5019   0.888   1.157   0.887
 1611HOH     H2 5020   0.902   1.067   0.766
 1612HOH      O 5021   1.737   2.131   1.223
 1612HOH     H1 5022   1.656   2.153   1.268
 1612HOH     H2 5023   1.712   2.115   1.132
 1613HOH      O 5024   2.164   3.461   2.129
 1613HOH     H1 5025   2.114   3.410   2.066
 1613HOH     H2 5026   2.139   3.552   2.111
 1614HOH      O 5027   2.499   3.388   1.074
 1614HOH     H1 5028   2.538   3.440   1.144
 1614HOH     H2 5029   2.478   3.304   1.115
 1615HOH      O 5030   1.099   3.842   3.959
 1615HOH     H1 5031   1.128   3.813   3.872
 1615HOH     H2 5032   1.003   3.839   3.954
 1616HOH      O 5033   1.568   1.287   3.382
 1616HOH     H1 5034   1.500   1.321   3.324
 1616HOH     H2 5035   1.582   1.357   3.446
 1617HOH      O 5036   0.392   2.219   2.914
 1617HOH     H1 5037   0.362   2.300   2.955
 1617HOH     H2 5038   0.484   2.212   2.938
 1618HOH      O 5039   1.120   1.305   2.812
 1618HOH     H1 5040   1.101   1.366   2.741
 1618HOH     H2 5041   1.093   1.220   2.778
 1619HOH      O 5042   2.048   1.432   3.728
 1619HOH     H1 5043   2.028   1.491   3.655
 1619HOH     H2 5044   2.137   1.403   3.712
 1620HOH      O 5045   0.131   2.172   0.490
 1620HOH     H1 5046   0.107   2.238   0.425
 1620HOH     H2 5047   0.048   2.140   0.524
 1621HOH      O 5048   1.011   2.881   3.337
 1621HOH     H1 5049   0.946   2.811   3.329
 1621HOH     H2 5050   0.976   2.939   3.405
 1622HOH      O 5051   2.496   3.823   1.612
 1622HOH     H1 5052   2.420   3.879   1.597
 1622HOH     H2 5053   2.552   3.836   1.536
 1623HOH      O 5054   0.280   3.005   0.478
 1623HOH     H1 5055   0.349   2.986   0.542
 1623HOH     H2 5056   0.251   2.918   0.448
 1624HOH      O 5057   0.902   0.453   0.065
 1624HOH     H1 5058   0.816   0.487   0.039
 1624HOH     H2 5059   0.958   0.471  -0.010
 1625HOH      O 5060   3.855   3.035   1.755
 1625HOH     H1 5061   3.851   3.117   1.706
 1625HOH     H2 5062   3.842   3.061   1.846
 1626HOH      O 5063   0.641   4.025   2.478
 1626HOH     H1 5064   0.592   4.070   2.547
 1626HOH     H2 5065   0.684   3.953   2.523
 1627HOH      O 5066   3.761   3.901   3.393
 1627HOH     H1 5067   3.844   3.941   3.368
 1627HOH     H2 5068   3.779   3.807   3.396
 1628HOH      O 5069   3.651   0.732   1.574
 1628HOH     H1 5070   3.644   0.673   1.499
 1628HOH     H2 5071   3.743   0.758   1.576
 1629HOH      O 5072   3.219   1.069   0.948
 1629HOH     H1 5073   3.239   0.987   0.994
 1629HOH     H2 5074   3.171   1.122   1.011
 1630HOH      O 5075   1.261   4.030   0.938
 1630HOH     H1 5076   1.207   3.956   0.966
 1630HOH     H2 5077   1.351   3.998   0.945
 1631HOH      O 5078   2.663   1.100   3.022
 1631HOH     H1 5079   2.611   1.071   3.097
 1631HOH     H2 5080   2.599   1.110   2.951
 1632HOH      O 5081   2.350   0.552   2.764
 1632HOH     H1 5082   2.289   0.532   2.694
 1632HOH     H2 5083   2.385   0.639   2.740
 1633HOH      O 5084   3.417   3.708   3.441
 1633HOH     H1 5085   3.397   3.711   3.534
 1633HOH     H2 5086   3.437   3.799   3.418
 1634HOH      O 5087   2.313   3.071   0.836
 1634HOH     H1 5088   2.328   3.145   0.895
 1634HOH     H2 5089   2.347   2.995   0.883
 1635HOH      O 5090   3.196   3.415   1.676
 1635HOH     H1 5091   3.210   3.373   1.591
 1635HOH     H2 5092   3.181   3.342   1.737
 1636HOH      O 5093   1.191   3.795   2.463
 1636HOH     H1 5094   1.281   3.789   2.495
 1636HOH     H2 5095   1.193   3.866   2.399
 1637HOH      O 5096   2.008   2.917   2.982
 1637HOH     H1 5097   1.960   2.998   2.999
 1637HOH     H2 5098   2.098   2.935   3.008
 1638HOH      O 5099   2.706   3.809   2.731
 1638HOH     H1 5100   2.700   3.873   2.660
 1638HOH     H2 5101   2.736   3.859   2.807
 1639HOH      O 5102   3.493   1.377   1.900
 1639HOH     H1 5103   3.497   1.442   1.970
 1639HOH     H2 5104   3.533   1.299   1.938
 1640HOH      O 5105   0.477   3.647   2.385
 1640HOH     H1 5106   0.461   3.739   2.366
 1640HOH     H2 5107   0.563   3.629   2.346
 1641HOH      O 5108   0.621   2.055   0.583
 1641HOH     H1 5109   0.562   2.112   0.633
 1641HOH     H2 5110   0.675   2.013   0.650
 1642HOH      O 5111   3.904   0.818   3.009
 1642HOH     H1 5112   3.910   0.791   2.917
 1642HOH     H2 5113   3.869   0.907   3.005
 1643HOH      O 5114   2.961   2.632   0.777
 1643HOH     H1 5115   2.969   2.723   0.747
 1643HOH     H2 5116   3.039   2.618   0.831
 1644HOH      O 5117   1.493   0.913   2.827
 1644HOH     H1 5118   1.412   0.960   2.806
 1644HOH     H2 5119   1.552   0.979   2.861
 1645HOH      O 5120   3.228   2.821   3.401
 1645HOH     H1 5121   3.179   2.832   3.319
 1645HOH     H2 5122   3.169   2.854   3.468
 1646HOH      O 5123   3.348   3.883   2.195
 1646HOH     H1 5124   3.432   3.843   2.169
 1646HOH     H2 5125   3.329   3.945   2.125
 1647HOH      O 5126   2.291   1.901   0.717
 1647HOH     H1 5127   2.289   1.869   0.807
 1647HOH     H2 5128   2.347   1.978   0.720
 1648HOH      O 5129   2.622   3.080   3.618
 1648HOH     H1 5130   2.550   3.121   3.666
 1648HOH     H2 5131   2.697   3.136   3.635
 1649HOH      O 5132   3.600   3.392   2.286
 1649HOH     H1 5133   3.558   3.452   2.348
 1649HOH     H2 5134   3.612   3.443   2.206
 1650HOH      O 5135   3.820   3.018   3.355
 1650HOH     H1 5136   3.777   3.035   3.439
 1650HOH     H2 5137   3.849   2.927   3.361
 1651HOH      O 5138   1.806   0.304   0.815
 1651HOH     H1 5139   1.744   0.372   0.842
 1651HOH     H2 5140   1.760   0.222   0.830
 1652HOH      O 5141   3.797   2.482   3.565
 1652HOH     H1 5142   3.765   2.505   3.478
 1652HOH     H2 5143   3.892   2.480   3.556
 1653HOH      O 5144   0.571   1.722   0.212
 1653HOH     H1 5145   0.667   1.721   0.217
 1653HOH     H2 5146   0.552   1.787   0.144
 1654HOH      O 5147   2.723   0.266   2.155
 1654HOH     H1 5148   2.722   0.184   2.105
 1654HOH     H2 5149   2.754   0.332   2.093
 1655HOH      O 5150   1.554   2.336   0.790
 1655HOH     H1 5151   1.566   2.284   0.869
 1655HOH     H2 5152   1.576   2.426   0.816
 1656HOH      O 5153   3.891   0.984   2.043
 1656HOH     H1 5154   3.847   0.996   1.959
 1656HOH     H2 5155   3.967   0.930   2.023
 1657HOH      O 5156   2.057   3.093   1.845
 1657HOH     H1 5157   1.991   3.059   1.785
 1657HOH     H2 5158   2.067   3.025   1.912
 1658HOH      O 5159   0.635   0.421   2.507
 1658HOH     H1 5160   0.708   0.462   2.554
 1658HOH     H2 5161   0.615   0.342   2.558
 1659HOH      O 5162   0.344   0.993   0.397
 1659HOH     H1 5163   0.352   1.071   0.341
 1659HOH     H2 5164   0.261   0.954   0.371
 1660HOH      O 5165   2.801   0.527   3.337
 1660HOH     H1 5166   2.733   0.505   3.274
 1660HOH     H2 5167   2.787   0.467   3.410
 1661HOH      O 5168   0.752   3.300   1.412
 1661HOH     H1 5169   0.710   3.291   1.497
 1661HOH     H2 5170   0.704   3.240   1.355
 1662HOH      O 5171   1.451   2.531   1.554
 1662HOH     H1 5172   1.461   2.533   1.649
 1662HOH     H2 5173   1.384   2.465   1.538
 1663HOH      O 5174   3.885   0.751   3.630
 1663HOH     H1 5175   3.927   0.794   3.556
 1663HOH     H2 5176   3.867   0.662   3.598
 1664HOH      O 5177   3.284   3.239   3.364
 1664HOH     H1 5178   3.259   3.239   3.271
 1664HOH     H2 5179   3.205   3.211   3.410
 1665HOH      O 5180   3.049   2.992   3.162
 1665HOH     H1 5181   3.122   3.051   3.180
 1665HOH     H2 5182   2.971   3.042   3.184
 1666HOH      O 5183   2.724   3.173   3.363
 1666HOH     H1 5184   2.646   3.212   3.324
 1666HOH     H2 5185   2.691   3.122   3.438
 1667HOH      O 5186   3.073   3.530   2.055
 1667HOH     H1 5187   3.162   3.496   2.053
 1667HOH     H2 5188   3.043   3.524   1.964
 1668HOH      O 5189   2.394   3.536   0.265
 1668HOH     H1 5190   2.458   3.504   0.329
 1668HOH     H2 5191   2.315   3.486   0.284
 1669HOH      O 5192   1.779   1.648   2.236
 1669HOH     H1 5193   1.848   1.685   2.293
 1669HOH     H2 5194   1.706   1.710   2.244
 1670HOH      O 5195   0.180   1.091   0.878
 1670HOH     H1 5196   0.109   1.129   0.828
 1670HOH     H2 5197   0.259   1.109   0.828
 1671HOH      O 5198   0.097   2.955   1.723
 1671HOH     H1 5199   0.126   2.864   1.716
 1671HOH     H2 5200   0.005   2.948   1.749
 1672HOH      O 5201   1.722   0.261   2.776
 1672HOH     H1 5202   1.636   0.303   2.786
 1672HOH     H2 5203   1.720   0.223   2.688
 1673HOH      O 5204   3.295   2.623   1.228
 1673HOH     H1 5205   3.301   2.613   1.323
 1673HOH     H2 5206   3.363   2.687   1.206
 1674HOH      O 5207   0.634   0.689   3.708
 1674HOH     H1 5208   0.569   0.736   3.655
 1674HOH     H2 5209   0.702   0.664   3.645
 1675HOH      O 5210   2.103   3.699   1.872
 1675HOH     H1 5211   2.180   3.648   1.848
 1675HOH     H2 5212   2.095   3.765   1.804
 1676HOH      O 5213   3.437   0.056   2.846
 1676HOH     H1 5214   3.435   0.098   2.932
 1676HOH     H2 5215   3.521   0.083   2.808
 1677HOH      O 5216   2.392   2.395   2.684
 1677HOH     H1 5217   2.404   2.477   2.730
 1677HOH     H2 5218   2.467   2.390   2.624
 1678HOH      O 5219   2.177   1.671   1.530
 1678HOH     H1 5220   2.250   1.660   1.469
 1678HOH     H2 5221   2.164   1.765   1.536
 1679HOH      O 5222   2.497   1.902   0.953
 1679HOH     H1 5223   2.544   1.986   0.951
 1679HOH     H2 5224   2.415   1.921   0.997
 1680HOH      O 5225   0.305   4.013   0.063
 1680HOH     H1 5226   0.245   3.949   0.025
 1680HOH     H2 5227   0.329   3.977   0.148
 1681HOH      O 5228   2.961   0.766   1.876
 1681HOH     H1 5229   3.024   0.750   1.946
 1681HOH     H2 5230   3.010   0.751   1.795
 1682HOH      O 5231   2.332   2.726   1.618
 1682HOH     H1 5232   2.403   2.737   1.555
 1682HOH     H2 5233   2.329   2.809   1.665
 1683HOH      O 5234   1.041   2.247   3.961
 1683HOH     H1 5235   1.053   2.292   3.878
 1683HOH     H2 5236   0.965   2.190   3.947
 1684HOH      O 5237   0.641   0.881   2.512
 1684HOH     H1 5238   0.560   0.913   2.553
 1684HOH     H2 5239   0.673   0.815   2.573
 1685HOH      O 5240   1.985   1.472   3.986
 1685HOH     H1 5241   2.071   1.456   4.025
 1685HOH     H2 5242   2.000   1.465   3.892
 1686HOH      O 5243   3.881   0.042   3.905
 1686HOH     H1 5244   3.877  -0.033   3.845
 1686HOH     H2 5245   3.912   0.005   3.988
 1687HOH      O 5246   2.083   0.997   0.270
 1687HOH     H1 5247   2.124   1.082   0.254
 1687HOH     H2 5248   1.991   1.018   0.288
 1688HOH      O 5249   0.091   2.369   1.934
 1688HOH     H1 5250   0.132   2.455   1.932
 1688HOH     H2 5251   0.133   2.321   1.862
 1689HOH      O 5252   3.467   2.265   1.289
 1689HOH     H1 5253   3.451   2.310   1.205
 1689HOH     H2 5254   3.527   2.323   1.335
 1690HOH      O 5255   2.797   3.840   1.034
 1690HOH     H1 5256   2.855   3.891   0.977
 1690HOH     H2 5257   2.842   3.840   1.119
 1691HOH      O 5258   0.770   3.960   0.393
 1691HOH     H1 5259   0.808   3.899   0.330
 1691HOH     H2 5260   0.675   3.952   0.380
 1692HOH      O 5261   1.812   3.129   2.670
 1692HOH     H1 5262   1.728   3.088   2.649
 1692HOH     H2 5263   1.789   3.196   2.735
 1693HOH      O 5264   0.378   2.019   3.946
 1693HOH     H1 5265   0.342   1.931   3.934
 1693HOH     H2 5266   0.302   2.077   3.939
 1694HOH      O 5267   0.824   2.598   2.414
 1694HOH     H1 5268   0.808   2.616   2.507
 1694HOH     H2 5269   0.797   2.507   2.403
 1695HOH      O 5270   3.388   1.214   0.602
 1695HOH     H1 5271   3.441   1.148   0.645
 1695HOH     H2 5272   3.343   1.260   0.673
 1696HOH      O 5273   2.670   2.045   0.594
 1696HOH     H1 5274   2.600   2.056   0.657
 1696HOH     H2 5275   2.743   2.097   0.629
 1697HOH      O 5276   0.093   4.011   3.103
 1697HOH     H1 5277   0.078   3.989   3.011
 1697HOH     H2 5278   0.188   4.017   3.111
 1698HOH      O 5279   2.644   0.733   0.450
 1698HOH     H1 5280   2.548   0.739   0.447
 1698HOH     H2 5281   2.662   0.679   0.527
 1699HOH      O 5282   0.888   3.303   0.598
 1699HOH     H1 5283   0.859   3.325   0.510
 1699HOH     H2 5284   0.945   3.375   0.624
 1700HOH      O 5285   1.573   0.960   2.072
 1700HOH     H1 5286   1.667   0.946   2.066
 1700HOH     H2 5287   1.563   1.040   2.122
 1701HOH      O 5288   3.464   0.272   2.175
 1701HOH     H1 5289   3.547   0.301   2.137
 1701HOH     H2 5290   3.424   0.218   2.108
 1702HOH      O 5291   1.670   3.840   2.963
 1702HOH     H1 5292   1.604   3.906   2.984
 1702HOH     H2 5293   1.660   3.774   3.031
 1703HOH      O 5294   3.905   0.463   1.095
 1703HOH     H1 5295   3.916   0.544   1.046
 1703HOH     H2 5296   3.912   0.393   1.030
 1704HOH      O 5297   3.450   3.440   3.091
 1704HOH     H1 5298   3.436   3.390   3.011
 1704HOH     H2 5299   3.544   3.432   3.108
 1705HOH      O 5300   2.149   2.071   0.152
 1705HOH     H1 5301   2.112   2.158   0.165
 1705HOH     H2 5302   2.179   2.071   0.061
 1706HOH      O 5303   3.886   3.354   0.184
 1706HOH     H1 5304   3.814   3.344   0.245
 1706HOH     H2 5305   3.965   3.340   0.237
 1707HOH      O 5306   1.120   0.099   4.022
 1707HOH     H1 5307   1.199   0.143   3.990
 1707HOH     H2 5308   1.134   0.007   4.001
 1708HOH      O 5309   3.590   2.428   0.444
 1708HOH     H1 5310   3.604   2.494   0.375
 1708HOH     H2 5311   3.657   2.361   0.426
 1709HOH      O 5312   3.387   0.924   3.542
 1709HOH     H1 5313   3.420   0.961   3.460
 1709HOH     H2 5314   3.311   0.977   3.564
 1710HOH      O 5315   0.579   0.291   0.797
 1710HOH     H1 5316   0.625   0.299   0.713
 1710HOH     H2 5317   0.514   0.360   0.795
 1711HOH      O 5318   2.962   0.489   1.643
 1711HOH     H1 5319   3.025   0.553   1.674
 1711HOH     H2 5320   2.882   0.509   1.692
 1712HOH      O 5321   3.312   1.846   2.776
 1712HOH     H1 5322   3.242   1.897   2.817
 1712HOH     H2 5323   3.296   1.855   2.682
 1713HOH      O 5324   1.524   1.150   2.256
 1713HOH     H1 5325   1.432   1.148   2.231
 1713HOH     H2 5326   1.543   1.242   2.272
 1714HOH      O 5327   2.543   2.900   3.431
 1714HOH     H1 5328   2.554   2.958   3.507
 1714HOH     H2 5329   2.628   2.856   3.423
 1715HOH      O 5330   0.123   2.885   2.204
 1715HOH     H1 5331   0.189   2.936   2.156
 1715HOH     H2 5332   0.146   2.898   2.296
 1716HOH      O 5333   0.557   3.241   1.603
 1716HOH     H1 5334   0.553   3.149   1.627
 1716HOH     H2 5335   0.501   3.285   1.667
 1717HOH      O 5336   0.137   3.197   1.851
 1717HOH     H1 5337   0.128   3.126   1.788
 1717HOH     H2 5338   0.052   3.199   1.896
 1718HOH      O 5339   1.664   1.219   3.753
 1718HOH     H1 5340   1.569   1.219   3.739
 1718HOH     H2 5341   1.682   1.135   3.794
 1719HOH      O 5342   3.092   2.878   0.606
 1719HOH     H1 5343   3.076   2.947   0.542
 1719HOH     H2 5344   3.116   2.924   0.686
 1720HOH      O 5345   2.097   2.243   2.396
 1720HOH     H1 5346   2.088   2.210   2.307
 1720HOH     H2 5347   2.129   2.333   2.386
 1721HOH      O 5348   0.872   1.943   2.571
 1721HOH     H1 5349   0.945   1.929   2.632
 1721HOH     H2 5350   0.797   1.961   2.627
 1722HOH      O 5351   2.018   0.038   1.865
 1722HOH     H1 5352   1.948   0.104   1.866
 1722HOH     H2 5353   2.005  -0.009   1.783
 1723HOH      O 5354   2.380   3.164   3.786
 1723HOH     H1 5355   2.346   3.079   3.813
 1723HOH     H2 5356   2.375   3.218   3.864
 1724HOH      O 5357   1.837   2.708   1.455
 1724HOH     H1 5358   1.803   2.682   1.540
 1724HOH     H2 5359   1.927   2.673   1.454
 1725HOH      O 5360   3.682   3.129   2.384
 1725HOH     H1 5361   3.658   3.210   2.339
 1725HOH     H2 5362   3.739   3.084   2.322
 1726HOH      O 5363   1.037   0.694   0.278
 1726HOH     H1 5364   0.949   0.662   0.258
 1726HOH     H2 5365   1.095   0.642   0.222
 1727HOH      O 5366   3.656   0.244   2.438
 1727HOH     H1 5367   3.581   0.251   2.378
 1727HOH     H2 5368   3.726   0.209   2.384
 1728HOH      O 5369   3.392   0.787   0.664
 1728HOH     H1 5370   3.402   0.710   0.720
 1728HOH     H2 5371   3.481   0.808   0.636
 1729HOH      O 5372   2.877   0.667   1.008
 1729HOH     H1 5373   2.806   0.729   0.989
 1729HOH     H2 5374   2.948   0.694   0.949
 1730HOH      O 5375   1.817   1.406   3.340
 1730HOH     H1 5376   1.744   1.350   3.367
 1730HOH     H2 5377   1.816   1.478   3.402
 1731HOH      O 5378   1.872   2.624   0.091
 1731HOH     H1 5379   1.845   2.669   0.010
 1731HOH     H2 5380   1.803   2.645   0.154
 1732HOH      O 5381   3.322   2.535   3.416
 1732HOH     H1 5382   3.293   2.625   3.400
 1732HOH     H2 5383   3.242   2.484   3.416
 1733HOH      O 5384   3.033   1.278   0.569
 1733HOH     H1 5385   3.090   1.216   0.523
 1733HOH     H2 5386   3.079   1.298   0.650
 1734HOH      O 5387   2.317   0.319   1.581
 1734HOH     H1 5388   2.374   0.314   1.504
 1734HOH     H2 5389   2.343   0.400   1.626
 1735HOH      O 5390   0.323   0.128   2.265
 1735HOH     H1 5391   0.367   0.179   2.196
 1735HOH     H2 5392   0.233   0.160   2.265
 1736HOH      O 5393   2.845   3.323   1.114
 1736HOH     H1 5394   2.774   3.346   1.173
 1736HOH     H2 5395   2.862   3.402   1.064
 1737HOH      O 5396   1.629   1.738   3.272
 1737HOH     H1 5397   1.603   1.669   3.332
 1737HOH     H2 5398   1.584   1.817   3.304
 1738HOH      O 5399   0.481   0.802   3.440
 1738HOH     H1 5400   0.509   0.782   3.350
 1738HOH     H2 5401   0.400   0.752   3.451
 1739HOH      O 5402   1.402   3.220   2.686
 1739HOH     H1 5403   1.460   3.294   2.703
 1739HOH     H2 5404   1.440   3.176   2.611
 1740HOH      O 5405   3.541   1.451   0.586
 1740HOH     H1 5406   3.619   1.425   0.536
 1740HOH     H2 5407   3.471   1.395   0.552
 1741HOH      O 5408   0.161   2.297   3.323
 1741HOH     H1 5409   0.117   2.312   3.239
 1741HOH     H2 5410   0.116   2.221   3.361
 1742HOH      O 5411   2.003   3.785   3.098
 1742HOH     H1 5412   1.971   3.875   3.101
 1742HOH     H2 5413   1.936   3.734   3.143
 1743HOH      O 5414   1.015   3.433   1.465
 1743HOH     H1 5415   1.069   3.387   1.401
 1743HOH     H2 5416   0.927   3.396   1.453
 1744HOH      O 5417   0.207   2.700   0.784
 1744HOH     H1 5418   0.130   2.756   0.768
 1744HOH     H2 5419   0.178   2.639   0.852
 1745HOH      O 5420   3.546   0.941   0.936
 1745HOH     H1 5421   3.635   0.906   0.945
 1745HOH     H2 5422   3.537   0.960   0.842
 1746HOH      O 5423   1.803   2.292   2.957
 1746HOH     H1 5424   1.767   2.285   3.045
 1746HOH     H2 5425   1.802   2.203   2.923
 1747HOH      O 5426   2.838   2.006   3.618
 1747HOH     H1 5427   2.906   1.950   3.656
 1747HOH     H2 5428   2.836   1.982   3.526
 1748HOH      O 5429   3.736   3.197   2.872
 1748HOH     H1 5430   3.750   3.255   2.947
 1748HOH     H2 5431   3.660   3.233   2.827
 1749HOH      O 5432   2.718   1.417   2.996
 1749HOH     H1 5433   2.712   1.400   2.902
 1749HOH     H2 5434   2.633   1.389   3.031
 1750HOH      O 5435   3.230   2.912   1.401
 1750HOH     H1 5436   3.299   2.894   1.336
 1750HOH     H2 5437   3.278   2.934   1.481
 1751HOH      O 5438   2.730   0.886   1.936
 1751HOH     H1 5439   2.697   0.892   1.846
 1751HOH     H2 5440   2.818   0.848   1.926
 1752HOH      O 5441   0.588   3.209   3.825
 1752HOH     H1 5442   0.534   3.251   3.893
 1752HOH     H2 5443   0.573   3.263   3.747
 1753HOH      O 5444   3.605   1.891   1.345
 1753HOH     H1 5445   3.666   1.856   1.281
 1753HOH     H2 5446   3.660   1.918   1.419
 1754HOH      O 5447   3.104   1.991   3.876
 1754HOH     H1 5448   3.126   1.937   3.952
 1754HOH     H2 5449   3.103   1.929   3.803
 1755HOH      O 5450   1.483   0.651   0.130
 1755HOH     H1 5451   1.408   0.695   0.090
 1755HOH     H2 5452   1.445   0.576   0.175
 1756HOH      O 5453   0.311   0.592   3.458
 1756HOH     H1 5454   0.372   0.541   3.403
 1756HOH     H2 5455   0.229   0.590   3.410
 1757HOH      O 5456   0.284   3.820   3.779
 1757HOH     H1 5457   0.372   3.806   3.816
 1757HOH     H2 5458   0.225   3.806   3.853
 1758HOH      O 5459   1.551   1.729   0.659
 1758HOH     H1 5460   1.575   1.659   0.598
 1758HOH     H2 5461   1.633   1.777   0.674
 1759HOH      O 5462   0.700   1.768   1.531
 1759HOH     H1 5463   0.637   1.707   1.493
 1759HOH     H2 5464   0.667   1.854   1.508
 1760HOH      O 5465   3.799   0.753   2.753
 1760HOH     H1 5466   3.776   0.830   2.702
 1760HOH     H2 5467   3.869   0.711   2.703
 1761HOH      O 5468   0.128   2.242   2.656
 1761HOH     H1 5469   0.088   2.159   2.681
 1761HOH     H2 5470   0.179   2.222   2.578
 1762HOH      O 5471   3.330   2.762   0.613
 1762HOH     H1 5472   3.366   2.826   0.675
 1762HOH     H2 5473   3.247   2.800   0.585
 1763HOH      O 5474   2.984   3.053   2.149
 1763HOH     H1 5475   3.018   3.047   2.238
 1763HOH     H2 5476   3.011   2.971   2.108
 1764HOH      O 5477   2.983   3.876   0.209
 1764HOH     H1 5478   3.054   3.896   0.148
 1764HOH     H2 5479   2.907   3.862   0.154
 1765HOH      O 5480   2.587   3.926   3.103
 1765HOH     H1 5481   2.675   3.923   3.065
 1765HOH     H2 5482   2.546   4.002   3.063
 1766HOH      O 5483   0.411   0.667   1.767
 1766HOH     H1 5484   0.504   0.675   1.744
 1766HOH     H2 5485   0.399   0.575   1.789
 1767HOH      O 5486   0.799   0.367   2.873
 1767HOH     H1 5487   0.744   0.295   2.905
 1767HOH     H2 5488   0.832   0.336   2.789
 1768HOH      O 5489   0.380   2.377   2.203
 1768HOH     H1 5490   0.352   2.308   2.263
 1768HOH     H2 5491   0.313   2.444   2.210
 1769HOH      O 5492   3.818   0.139   0.390
 1769HOH     H1 5493   3.753   0.151   0.321
 1769HOH     H2 5494   3.902   0.145   0.344
 1770HOH      O 5495   1.430   2.762   3.632
 1770HOH     H1 5496   1.462   2.718   3.553
 1770HOH     H2 5497   1.400   2.691   3.688
 1771HOH      O 5498   2.328   3.255   2.666
 1771HOH     H1 5499   2.234   3.240   2.655
 1771HOH     H2 5500   2.369   3.172   2.643
 1772HOH      O 5501   1.810   3.074   1.044
 1772HOH     H1 5502   1.828   3.166   1.063
 1772HOH     H2 5503   1.884   3.027   1.082
 1773HOH      O 5504   3.867   2.888   2.057
 1773HOH     H1 5505   3.780   2.863   2.090
 1773HOH     H2 5506   3.879   2.833   1.980
 1774HOH      O 5507   1.569   3.075   2.503
 1774HOH     H1 5508   1.643   3.132   2.481
 1774HOH     H2 5509   1.559   3.018   2.426
 1775HOH      O 5510   2.950   0.440   3.087
 1775HOH     H1 5511   3.043   0.450   3.105
 1775HOH     H2 5512   2.906   0.490   3.156
 1776HOH      O 5513   2.850   1.635   1.139
 1776HOH     H1 5514   2.867   1.568   1.074
 1776HOH     H2 5515   2.892   1.714   1.104
 1777HOH      O 5516   3.108   2.476   3.940
 1777HOH     H1 5517   3.062   2.541   3.888
 1777HOH     H2 5518   3.194   2.515   3.957
 1778HOH      O 5519   0.676   2.242   1.054
 1778HOH     H1 5520   0.741   2.201   0.998
 1778HOH     H2 5521   0.604   2.179   1.058
 1779HOH      O 5522   0.478   1.372   2.039
 1779HOH     H1 5523   0.511   1.317   2.110
 1779HOH     H2 5524   0.416   1.315   1.993
 1780HOH      O 5525   2.790   2.936   3.805
 1780HOH     H1 5526   2.729   3.009   3.816
 1780HOH     H2 5527   2.793   2.920   3.711
 1781HOH      O 5528   2.324   0.707   2.459
 1781HOH     H1 5529   2.251   0.645   2.446
 1781HOH     H2 5530   2.282   0.793   2.461
 1782HOH      O 5531   1.475   0.785   3.234
 1782HOH     H1 5532   1.452   0.703   3.277
 1782HOH     H2 5533   1.458   0.852   3.299
 1783HOH      O 5534   0.419   2.907   2.356
 1783HOH     H1 5535   0.439   2.890   2.264
 1783HOH     H2 5536   0.416   2.819   2.396
 1784HOH      O 5537   1.262   0.736   4.027
 1784HOH     H1 5538   1.266   0.822   3.987
 1784HOH     H2 5539   1.203   0.686   3.971
 1785HOH      O 5540   1.057   2.232   2.869
 1785HOH     H1 5541   1.034   2.324   2.878
 1785HOH     H2 5542   1.046   2.213   2.776
 1786HOH      O 5543   1.839   3.557   3.923
 1786HOH     H1 5544   1.934   3.560   3.914
 1786HOH     H2 5545   1.812   3.488   3.863
 1787HOH      O 5546   0.421   1.499   3.462
 1787HOH     H1 5547   0.418   1.498   3.366
 1787HOH     H2 5548   0.335   1.533   3.488
 1788HOH      O 5549   1.464   0.636   3.701
 1788HOH     H1 5550   1.544   0.641   3.648
 1788HOH     H2 5551   1.452   0.725   3.735
 1789HOH      O 5552   1.755   1.352   0.048
 1789HOH     H1 5553   1.816   1.390  -0.014
 1789HOH     H2 5554   1.790   1.376   0.134
 1790HOH      O 5555   0.308   1.986   0.355
 1790HOH     H1 5556   0.306   2.065   0.300
 1790HOH     H2 5557   0.259   2.009   0.433
 1791HOH      O 5558   1.035   3.149   2.575
 1791HOH     H1 5559   1.053   3.070   2.624
 1791HOH     H2 5560   1.104   3.154   2.509
 1792HOH      O 5561   3.358   0.022   3.895
 1792HOH     H1 5562   3.435  -0.034   3.885
 1792HOH     H2 5563   3.333   0.044   3.806
 1793HOH      O 5564   1.210   3.616   1.591
 1793HOH     H1 5565   1.182   3.564   1.515
 1793HOH     H2 5566   1.129   3.640   1.635
 1794HOH      O 5567   2.555   2.706   1.438
 1794HOH     H1 5568   2.558   2.635   1.374
 1794HOH     H2 5569   2.605   2.777   1.397
 1795HOH      O 5570   3.336   2.249   2.807
 1795HOH     H1 5571   3.342   2.269   2.900
 1795HOH     H2 5572   3.425   2.226   2.781
 1796HOH      O 5573   2.653   1.344   0.900
 1796HOH     H1 5574   2.624   1.393   0.977
 1796HOH     H2 5575   2.740   1.379   0.881
 1797HOH      O 5576   0.991   0.985   0.285
 1797HOH     H1 5577   1.013   0.892   0.283
 1797HOH     H2 5578   0.915   0.993   0.226
 1798HOH      O 5579   0.594   1.346   3.606
 1798HOH     H1 5580   0.507   1.366   3.574
 1798HOH     H2 5581   0.637   1.302   3.533
 1799HOH      O 5582   0.623   0.579   2.927
 1799HOH     H1 5583   0.540   0.568   2.882
 1799HOH     H2 5584   0.669   0.496   2.912
 1800HOH      O 5585   1.435   2.957   2.295
 1800HOH     H1 5586   1.363   2.894   2.291
 1800HOH     H2 5587   1.464   2.966   2.204
 1801HOH      O 5588   2.639   3.653   3.658
 1801HOH     H1 5589   2.569   3.592   3.636
 1801HOH     H2 5590   2.698   3.650   3.582
 1802HOH      O 5591   3.122   1.539   3.641
 1802HOH     H1 5592   3.175   1.549   3.562
 1802HOH     H2 5593   3.073   1.458   3.626
 1803HOH      O 5594   0.037   1.613   0.292
 1803HOH     H1 5595  -0.038   1.581   0.241
 1803HOH     H2 5596   0.024   1.577   0.380
 1804HOH      O 5597   2.901   3.181   2.892
 1804HOH     H1 5598   2.890   3.201   2.985
 1804HOH     H2 5599   2.842   3.242   2.848
 1805HOH      O 5600   3.372   3.731   2.943
 1805HOH     H1 5601   3.459   3.765   2.922
 1805HOH     H2 5602   3.388   3.644   2.979
 1806HOH      O 5603   3.628   2.520   1.809
 1806HOH     H1 5604   3.626   2.490   1.900
 1806HOH     H2 5605   3.693   2.590   1.808
 1807HOH      O 5606   1.224   0.076   2.899
 1807HOH     H1 5607   1.191  -0.009   2.869
 1807HOH     H2 5608   1.220   0.132   2.822
 1808HOH      O 5609   0.509   2.967   0.635
 1808HOH     H1 5610   0.503   2.890   0.692
 1808HOH     H2 5611   0.565   2.939   0.563
 1809HOH      O 5612   2.377   3.810   2.620
 1809HOH     H1 5613   2.285   3.807   2.646
 1809HOH     H2 5614   2.425   3.788   2.700
 1810HOH      O 5615   3.361   0.076   2.378
 1810HOH     H1 5616   3.342   0.001   2.321
 1810HOH     H2 5617   3.377   0.148   2.317
 1811HOH      O 5618   3.285   3.885   2.711
 1811HOH     H1 5619   3.199   3.865   2.750
 1811HOH     H2 5620   3.336   3.922   2.783
 1812HOH      O 5621   1.382   0.198   2.125
 1812HOH     H1 5622   1.464   0.245   2.137
 1812HOH     H2 5623   1.314   0.264   2.138
 1813HOH      O 5624   2.060   0.631   3.899
 1813HOH     H1 5625   2.090   0.610   3.810
 1813HOH     H2 5626   2.110   0.572   3.955
 1814HOH      O 5627   0.484   2.039   1.051
 1814HOH     H1 5628   0.423   2.027   0.979
 1814HOH     H2 5629   0.521   1.952   1.066
 1815HOH      O 5630   3.215   2.946   2.293
 1815HOH     H1 5631   3.182   2.905   2.374
 1815HOH     H2 5632   3.261   3.024   2.323
 1816HOH      O 5633   1.070   1.485   2.614
 1816HOH     H1 5634   0.991   1.478   2.561
 1816HOH     H2 5635   1.125   1.549   2.568
 1817HOH      O 5636   2.819   1.556   0.734
 1817HOH     H1 5637   2.748   1.616   0.710
 1817HOH     H2 5638   2.858   1.530   0.650
 1818HOH      O 5639   0.365   2.828   1.797
 1818HOH     H1 5640   0.403   2.907   1.836
 1818HOH     H2 5641   0.434   2.792   1.741
 1819HOH      O 5642   1.196   0.705   2.522
 1819HOH     H1 5643   1.289   0.725   2.527
 1819HOH     H2 5644   1.165   0.749   2.443
 1820HOH      O 5645   0.320   1.738   0.958
 1820HOH     H1 5646   0.305   1.773   0.871
 1820HOH     H2 5647   0.246   1.770   1.010
 1821HOH      O 5648   0.986   0.271   2.413
 1821HOH     H1 5649   1.025   0.347   2.456
 1821HOH     H2 5650   0.977   0.296   2.321
 1822HOH      O 5651   1.583   0.666   0.725
 1822HOH     H1 5652   1.499   0.652   0.681
 1822HOH     H2 5653   1.571   0.628   0.812
 1823HOH      O 5654   3.564   2.977   0.456
 1823HOH     H1 5655   3.486   2.973   0.401
 1823HOH     H2 5656   3.532   2.996   0.544
 1824HOH      O 5657   2.257   1.604   0.224
 1824HOH     H1 5658   2.235   1.666   0.294
 1824HOH     H2 5659   2.255   1.657   0.144
 1825HOH      O 5660   0.486   3.109   3.405
 1825HOH     H1 5661   0.524   3.033   3.450
 1825HOH     H2 5662   0.467   3.171   3.476
 1826HOH      O 5663   1.950   3.805   2.068
 1826HOH     H1 5664   2.019   3.811   2.134
 1826HOH     H2 5665   1.993   3.767   1.992
 1827HOH      O 5666   3.161   0.764   0.184
 1827HOH     H1 5667   3.140   0.847   0.142
 1827HOH     H2 5668   3.211   0.787   0.262
 1828HOH      O 5669   1.722   3.616   0.294
 1828HOH     H1 5670   1.791   3.681   0.304
 1828HOH     H2 5671   1.642   3.666   0.280
 1829HOH      O 5672   1.360   1.178   1.627
 1829HOH     H1 5673   1.397   1.093   1.647
 1829HOH     H2 5674   1.294   1.161   1.560
 1830HOH      O 5675   3.548   3.379   2.803
 1830HOH     H1 5676   3.473   3.353   2.750
 1830HOH     H2 5677   3.590   3.449   2.753
 1831HOH      O 5678   3.560   3.147   0.140
 1831HOH     H1 5679   3.642   3.155   0.189
 1831HOH     H2 5680   3.495   3.125   0.206
 1832HOH      O 5681   1.530   0.621   1.078
 1832HOH     H1 5682   1.528   0.533   1.040
 1832HOH     H2 5683   1.447   0.660   1.051
 1833HOH      O 5684   3.619   1.114   3.444
 1833HOH     H1 5685   3.643   1.049   3.511
 1833HOH     H2 5686   3.703   1.148   3.412
 1834HOH      O 5687   0.880  -0.018   3.714
 1834HOH     H1 5688   0.856   0.051   3.652
 1834HOH     H2 5689   0.882   0.026   3.799
 1835HOH      O 5690   3.081   2.941   3.632
 1835HOH     H1 5691   3.164   2.912   3.671
 1835HOH     H2 5692   3.063   3.025   3.675
 1836HOH      O 5693   2.240   4.030   3.062
 1836HOH     H1 5694   2.231   4.013   2.968
 1836HOH     H2 5695   2.182   3.966   3.104
 1837HOH      O 5696   3.361   0.388   3.502
 1837HOH     H1 5697   3.295   0.341   3.452
 1837HOH     H2 5698   3.364   0.475   3.462
 1838HOH      O 5699   1.462   0.409   2.860
 1838HOH     H1 5700   1.488   0.494   2.897
 1838HOH     H2 5701   1.381   0.387   2.904
 1839HOH      O 5702   1.254   2.659   1.390
 1839HOH     H1 5703   1.330   2.621   1.433
 1839HOH     H2 5704   1.239   2.603   1.314
 1840HOH      O 5705   1.102   2.718   0.623
 1840HOH     H1 5706   1.009   2.724   0.601
 1840HOH     H2 5707   1.129   2.633   0.587
 1841HOH      O 5708   1.777   2.153   0.692
 1841HOH     H1 5709   1.687   2.171   0.720
 1841HOH     H2 5710   1.794   2.064   0.721
 1842HOH      O 5711   2.507   0.776   3.128
 1842HOH     H1 5712   2.425   0.763   3.080
 1842HOH     H2 5713   2.479   0.802   3.216
 1843HOH      O 5714   1.633   1.642   3.019
 1843HOH     H1 5715   1.644   1.675   3.108
 1843HOH     H2 5716   1.703   1.578   3.008
 1844HOH      O 5717   1.916   2.528   2.864
 1844HOH     H1 5718   1.963   2.488   2.791
 1844HOH     H2 5719   1.860   2.458   2.899
 1845HOH      O 5720   1.254   1.731   1.930
 1845HOH     H1 5721   1.305   1.811   1.921
 1845HOH     H2 5722   1.165   1.756   1.904
 1846HOH      O 5723   0.034   2.417   0.065
 1846HOH     H1 5724  -0.059   2.426   0.084
 1846HOH     H2 5725   0.045   2.462  -0.019
 1847HOH      O 5726   2.725   1.118   1.716
 1847HOH     H1 5727   2.802   1.065   1.697
 1847HOH     H2 5728   2.729   1.190   1.653
 1848HOH      O 5729   2.266   1.893   2.756
 1848HOH     H1 5730   2.276   1.938   2.672
 1848HOH     H2 5731   2.172   1.899   2.775
 1849HOH      O 5732   2.133   0.476   2.609
 1849HOH     H1 5733   2.134   0.381   2.603
 1849HOH     H2 5734   2.109   0.506   2.521
 1850HOH      O 5735   3.549   0.154   0.482
 1850HOH     H1 5736   3.640   0.151   0.514
 1850HOH     H2 5737   3.556   0.138   0.388
 1851HOH      O 5738   2.686   2.790   0.704
 1851HOH     H1 5739   2.676   2.806   0.798
 1851HOH     H2 5740   2.696   2.695   0.697
 1852HOH      O 5741   2.926   3.052   0.451
 1852HOH     H1 5742   2.864   3.022   0.384
 1852HOH     H2 5743   2.957   3.137   0.418
 1853HOH      O 5744   1.418   2.701   3.952
 1853HOH     H1 5745   1.511   2.722   3.946
 1853HOH     H2 5746   1.416   2.605   3.951
 1854HOH      O 5747   3.761   0.476   3.848
 1854HOH     H1 5748   3.703   0.437   3.782
 1854HOH     H2 5749   3.730   0.439   3.931
 1855HOH      O 5750   0.216   2.264   1.050
 1855HOH     H1 5751   0.268   2.237   0.975
 1855HOH     H2 5752   0.144   2.201   1.054
 1856HOH      O 5753   1.970   0.035   0.946
 1856HOH     H1 5754   1.963  -0.012   0.863
 1856HOH     H2 5755   2.063   0.028   0.969
 1857HOH      O 5756   3.943   2.081   3.170
 1857HOH     H1 5757   3.874   2.034   3.124
 1857HOH     H2 5758   4.000   2.114   3.100
 1858HOH      O 5759   3.323   3.338   0.298
 1858HOH     H1 5760   3.274   3.256   0.308
 1858HOH     H2 5761   3.302   3.388   0.377
 1859HOH      O 5762   0.018   3.295   2.996
 1859HOH     H1 5763  -0.006   3.387   2.985
 1859HOH     H2 5764  -0.002   3.255   2.912
 1860HOH      O 5765   3.224   2.032   0.361
 1860HOH     H1 5766   3.183   2.052   0.277
 1860HOH     H2 5767   3.181   2.090   0.423
 1861HOH      O 5768   1.937   2.277   1.385
 1861HOH     H1 5769   1.891   2.284   1.469
 1861HOH     H2 5770   1.874   2.234   1.327
 1862HOH      O 5771   0.607   1.080   0.945
 1862HOH     H1 5772   0.547   1.122   0.884
 1862HOH     H2 5773   0.656   1.152   0.985
 1863HOH      O 5774   0.275   2.049   0.806
 1863HOH     H1 5775   0.181   2.068   0.803
 1863HOH     H2 5776   0.282   1.958   0.776
 1864HOH      O 5777   3.884   3.027   0.059
 1864HOH     H1 5778   3.953   2.961   0.062
 1864HOH     H2 5779   3.861   3.042   0.151
 1865HOH      O 5780   0.813   2.613   3.380
 1865HOH     H1 5781   0.849   2.663   3.453
 1865HOH     H2 5782   0.782   2.532   3.421
 1866HOH      O 5783   3.246   1.564   0.867
 1866HOH     H1 5784   3.252   1.633   0.933
 1866HOH     H2 5785   3.255   1.610   0.784
 1867HOH      O 5786   0.737   1.285   1.061
 1867HOH     H1 5787   0.719   1.377   1.041
 1867HOH     H2 5788   0.783   1.288   1.145
 1868HOH      O 5789   2.256   0.921   1.283
 1868HOH     H1 5790   2.174   0.925   1.233
 1868HOH     H2 5791   2.248   0.842   1.336
 1869HOH      O 5792   2.552   0.406   3.380
 1869HOH     H1 5793   2.544   0.472   3.450
 1869HOH     H2 5794   2.576   0.326   3.426
 1870HOH      O 5795   1.430   0.533   1.937
 1870HOH     H1 5796   1.526   0.533   1.935
 1870HOH     H2 5797   1.408   0.598   2.004
 1871HOH      O 5798   0.382   0.467   0.773
 1871HOH     H1 5799   0.293   0.484   0.740
 1871HOH     H2 5800   0.424   0.552   0.772
 1872HOH      O 5801   3.274   2.499   2.672
 1872HOH     H1 5802   3.186   2.529   2.695
 1872HOH     H2 5803   3.277   2.408   2.702
 1873HOH      O 5804   0.507   1.794   2.904
 1873HOH     H1 5805   0.457   1.717   2.874
 1873HOH     H2 5806   0.523   1.777   2.997
 1874HOH      O 5807   2.086   2.356   0.387
 1874HOH     H1 5808   2.169   2.348   0.433
 1874HOH     H2 5809   2.038   2.423   0.437
 1875HOH      O 5810   0.050   0.352   2.592
 1875HOH     H1 5811   0.060   0.401   2.511
 1875HOH     H2 5812   0.123   0.289   2.591
 1876HOH      O 5813   3.993   2.114   1.104
 1876HOH     H1 5814   3.922   2.161   1.061
 1876HOH     H2 5815   3.955   2.082   1.185
 1877HOH      O 5816   0.346   3.279   0.475
 1877HOH     H1 5817   0.298   3.202   0.504
 1877HOH     H2 5818   0.415   3.290   0.540
 1878HOH      O 5819   3.350   0.789   1.974
 1878HOH     H1 5820   3.357   0.877   1.937
 1878HOH     H2 5821   3.425   0.742   1.937
 1879HOH      O 5822   2.781   2.237   3.379
 1879HOH     H1 5823   2.874   2.213   3.379
 1879HOH     H2 5824   2.775   2.305   3.446
 1880HOH      O 5825   0.780   2.718   2.688
 1880HOH     H1 5826   0.692   2.750   2.708
 1880HOH     H2 5827   0.805   2.665   2.764
 1881HOH      O 5828   3.586   2.360   3.720
 1881HOH     H1 5829   3.653   2.398   3.663
 1881HOH     H2 5830   3.504   2.399   3.691
 1882HOH      O 5831   2.384   0.988   3.972
 1882HOH     H1 5832   2.426   1.074   3.977
 1882HOH     H2 5833   2.389   0.953   4.060
 1883HOH      O 5834   3.766   1.869   0.333
 1883HOH     H1 5835   3.760   1.904   0.422
 1883HOH     H2 5836   3.855   1.889   0.306
 1884HOH      O 5837   2.084   2.592   1.454
 1884HOH     H1 5838   2.120   2.543   1.381
 1884HOH     H2 5839   2.156   2.649   1.483
 1885HOH      O 5840   1.041   0.089   1.589
 1885HOH     H1 5841   1.120   0.140   1.572
 1885HOH     H2 5842   1.026   0.040   1.509
 1886HOH      O 5843   1.163   1.556   3.257
 1886HOH     H1 5844   1.106   1.506   3.199
 1886HOH     H2 5845   1.181   1.637   3.209
 1887HOH      O 5846   2.690   0.131   1.059
 1887HOH     H1 5847   2.716   0.083   0.980
 1887HOH     H2 5848   2.773   0.164   1.094
 1888HOH      O 5849   2.150   3.195   1.489
 1888HOH     H1 5850   2.093   3.198   1.412
 1888HOH     H2 5851   2.141   3.282   1.528
 1889HOH      O 5852   3.754   0.385   1.800
 1889HOH     H1 5853   3.764   0.478   1.820
 1889HOH     H2 5854   3.825   0.366   1.739
 1890HOH      O 5855   1.785   0.783   0.363
 1890HOH     H1 5856   1.828   0.859   0.324
 1890HOH     H2 5857   1.692   0.797   0.345
 1891HOH      O 5858   0.433   0.153   0.495
 1891HOH     H1 5859   0.388   0.228   0.457
 1891HOH     H2 5860   0.393   0.142   0.581
 1892HOH      O 5861   1.071   2.326   3.491
 1892HOH     H1 5862   1.088   2.269   3.417
 1892HOH     H2 5863   1.095   2.413   3.461
 1893HOH      O 5864   0.326   2.651   3.218
 1893HOH     H1 5865   0.240   2.693   3.221
 1893HOH     H2 5866   0.382   2.707   3.273
 1894HOH      O 5867   0.430   0.557   2.333
 1894HOH     H1 5868   0.505   0.501   2.351
 1894HOH     H2 5869   0.388   0.518   2.256
 1895HOH      O 5870   1.329   1.113   1.142
 1895HOH     H1 5871   1.316   1.048   1.073
 1895HOH     H2 5872   1.295   1.195   1.105
 1896HOH      O 5873   2.291   4.023   3.863
 1896HOH     H1 5874   2.217   4.025   3.802
 1896HOH     H2 5875   2.325   3.933   3.855
 1897HOH      O 5876   1.426   2.408   0.351
 1897HOH     H1 5877   1.373   2.471   0.302
 1897HOH     H2 5878   1.460   2.348   0.285
 1898HOH      O 5879   3.186   3.284   1.421
 1898HOH     H1 5880   3.148   3.197   1.411
 1898HOH     H2 5881   3.209   3.311   1.332
 1899HOH      O 5882   0.734   1.229   2.356
 1899HOH     H1 5883   0.643   1.223   2.324
 1899HOH     H2 5884   0.785   1.248   2.277
 1900HOH      O 5885   1.242   3.208   0.800
 1900HOH     H1 5886   1.326   3.241   0.832
 1900HOH     H2 5887   1.181   3.220   0.874
 1901HOH      O 5888   3.378   2.421   1.035
 1901HOH     H1 5889   3.322   2.389   0.964
 1901HOH     H2 5890   3.342   2.506   1.059
 1902HOH      O 5891   2.376   0.744   0.507
 1902HOH     H1 5892   2.290   0.703   0.512
 1902HOH     H2 5893   2.378   0.806   0.580
 1903HOH      O 5894   0.960   2.484   2.903
 1903HOH     H1 5895   0.866   2.485   2.886
 1903HOH     H2 5896   0.972   2.548   2.973
 1904HOH      O 5897   1.763   0.214   1.832
 1904HOH     H1 5898   1.678   0.192   1.870
 1904HOH     H2 5899   1.742   0.272   1.759
 1905HOH      O 5900   1.975   2.775   2.460
 1905HOH     H1 5901   1.973   2.816   2.547
 1905HOH     H2 5902   1.901   2.814   2.414
 1906HOH      O 5903   2.969   1.480   0.949
 1906HOH     H1 5904   2.931   1.477   0.861
 1906HOH     H2 5905   3.055   1.520   0.937
 1907HOH      O 5906   3.262   2.222   3.884
 1907HOH     H1 5907   3.214   2.139   3.880
 1907HOH     H2 5908   3.194   2.289   3.887
 1908HOH      O 5909   2.458   2.632   2.831
 1908HOH     H1 5910   2.445   2.719   2.793
 1908HOH     H2 5911   2.529   2.645   2.895
 1909HOH      O 5912   0.405   2.112   2.419
 1909HOH     H1 5913   0.454   2.116   2.501
 1909HOH     H2 5914   0.446   2.040   2.371
 1910HOH      O 5915   2.978   2.225   3.731
 1910HOH     H1 5916   3.037   2.163   3.774
 1910HOH     H2 5917   2.890   2.189   3.748
 1911HOH      O 5918   2.073   0.244   2.261
 1911HOH     H1 5919   2.153   0.210   2.220
 1911HOH     H2 5920   2.018   0.167   2.274
 1912HOH      O 5921   3.815   1.505   3.967
 1912HOH     H1 5922   3.782   1.586   4.007
 1912HOH     H2 5923   3.827   1.445   4.041
 1913HOH      O 5924   4.026   0.700   2.551
 1913HOH     H1 5925   3.973   0.758   2.497
 1913HOH     H2 5926   4.047   0.626   2.495
 1914HOH      O 5927   0.039   1.485   3.871
 1914HOH     H1 5928   0.081   1.571   3.869
 1914HOH     H2 5929  -0.052   1.504   3.893
 1915HOH      O 5930   2.616   2.071   0.319
 1915HOH     H1 5931   2.645   2.077   0.410
 1915HOH     H2 5932   2.521   2.058   0.326
 1916HOH      O 5933   2.084   1.077   1.842
 1916HOH     H1 5934   2.088   1.054   1.749
 1916HOH     H2 5935   2.057   1.169   1.842
 1917HOH      O 5936   2.248   3.969   3.568
 1917HOH     H1 5937   2.334   3.929   3.549
 1917HOH     H2 5938   2.249   4.050   3.518
 1918HOH      O 5939   2.639   3.105   1.365
 1918HOH     H1 5940   2.683   3.046   1.303
 1918HOH     H2 5941   2.567   3.052   1.400
 1919HOH      O 5942   3.666   0.228   3.955
 1919HOH     H1 5943   3.695   0.137   3.945
 1919HOH     H2 5944   3.622   0.248   3.872
 1920HOH      O 5945   3.737   1.063   2.969
 1920HOH     H1 5946   3.749   1.138   3.028
 1920HOH     H2 5947   3.642   1.052   2.966
 1921HOH      O 5948   2.680   0.393   0.528
 1921HOH     H1 5949   2.639   0.326   0.582
 1921HOH     H2 5950   2.674   0.473   0.581
 1922HOH      O 5951   2.247   1.902   1.110
 1922HOH     H1 5952   2.153   1.914   1.101
 1922HOH     H2 5953   2.271   1.958   1.184
 1923HOH      O 5954   0.106   3.798   3.981
 1923HOH     H1 5955   0.039   3.848   4.028
 1923HOH     H2 5956   0.092   3.707   4.009
 1924HOH      O 5957   1.334   1.388   0.665
 1924HOH     H1 5958   1.259   1.354   0.616
 1924HOH     H2 5959   1.408   1.379   0.605
 1925HOH      O 5960   3.058   3.186   2.650
 1925HOH     H1 5961   3.144   3.218   2.676
 1925HOH     H2 5962   3.023   3.143   2.728
 1926HOH      O 5963   0.596   1.011   3.583
 1926HOH     H1 5964   0.553   0.937   3.540
 1926HOH     H2 5965   0.541   1.028   3.660
 1927HOH      O 5966   2.081   2.389   2.670
 1927HOH     H1 5967   2.174   2.402   2.650
 1927HOH     H2 5968   2.038   2.392   2.584
 1928HOH      O 5969   3.850   2.448   2.968
 1928HOH     H1 5970   3.842   2.540   2.990
 1928HOH     H2 5971   3.772   2.407   3.005
 1929HOH      O 5972   0.424   1.817   3.240
 1929HOH     H1 5973   0.362   1.890   3.247
 1929HOH     H2 5974   0.489   1.836   3.307
 1930HOH      O 5975   2.012   2.287   0.701
 1930HOH     H1 5976   1.990   2.373   0.664
 1930HOH     H2 5977   1.930   2.238   0.698
 1931HOH      O 5978   1.401   3.928   3.806
 1931HOH     H1 5979   1.346   4.005   3.788
 1931HOH     H2 5980   1.419   3.891   3.720
 1932HOH      O 5981   2.424   3.465   2.502
 1932HOH     H1 5982   2.348   3.517   2.477
 1932HOH     H2 5983   2.399   3.425   2.585
 1933HOH      O 5984   0.035   2.154   2.199
 1933HOH     H1 5985   0.031   2.247   2.176
 1933HOH     H2 5986  -0.051   2.135   2.235
 1934HOH      O 5987   3.718   2.736   3.637
 1934HOH     H1 5988   3.634   2.728   3.683
 1934HOH     H2 5989   3.751   2.646   3.632
 1935HOH      O 5990   1.208   0.694   2.923
 1935HOH     H1 5991   1.163   0.766   2.878
 1935HOH     H2 5992   1.300   0.720   2.923
 1936HOH      O 5993   0.834   1.434   3.241
 1936HOH     H1 5994   0.899   1.401   3.180
 1936HOH     H2 5995   0.872   1.420   3.327
 1937HOH      O 5996   1.172   3.867   2.771
 1937HOH     H1 5997   1.178   3.907   2.684
 1937HOH     H2 5998   1.172   3.773   2.754
 1938HOH      O 5999   0.105   2.456   3.051
 1938HOH     H1 6000   0.103   2.550   3.065
 1938HOH     H2 6001   0.014   2.427   3.066
 1939HOH      O 6002   1.171   1.331   1.056
 1939HOH     H1 6003   1.111   1.357   0.985
 1939HOH     H2 6004   1.114   1.310   1.129
 1940HOH      O 6005   2.888   0.621   2.324
 1940HOH     H1 6006   2.825   0.590   2.259
 1940HOH     H2 6007   2.864   0.575   2.405
 1941HOH      O 6008   3.717   1.296   1.336
 1941HOH     H1 6009   3.677   1.381   1.318
 1941HOH     H2 6010   3.688   1.240   1.264
 1942HOH      O 6011   2.582   1.142   2.172
 1942HOH     H1 6012   2.510   1.199   2.146
 1942HOH     H2 6013   2.547   1.053   2.164
 1943HOH      O 6014   3.814   2.667   1.602
 1943HOH     H1 6015   3.822   2.608   1.527
 1943HOH     H2 6016   3.750   2.733   1.574
 1944HOH      O 6017   3.718   1.959   3.069
 1944HOH     H1 6018   3.640   1.974   3.015
 1944HOH     H2 6019   3.683   1.931   3.154
 1945HOH      O 6020   1.854   1.845   1.488
 1945HOH     H1 6021   1.853   1.752   1.512
 1945HOH     H2 6022   1.763   1.865   1.467
 1946HOH      O 6023   3.073   3.704   3.598
 1946HOH     H1 6024   2.984   3.726   3.570
 1946HOH     H2 6025   3.101   3.779   3.651
 1947HOH      O 6026   0.418   3.651   1.600
 1947HOH     H1 6027   0.418   3.642   1.505
 1947HOH     H2 6028   0.375   3.571   1.632
 1948HOH      O 6029   0.123   3.610   2.972
 1948HOH     H1 6030   0.213   3.632   2.949
 1948HOH     H2 6031   0.088   3.567   2.894
 1949HOH      O 6032   0.853   3.554   0.167
 1949HOH     H1 6033   0.820   3.644   0.169
 1949HOH     H2 6034   0.894   3.542   0.253
 1950HOH      O 6035   1.865   3.794   1.509
 1950HOH     H1 6036   1.909   3.710   1.524
 1950HOH     H2 6037   1.808   3.805   1.584
 1951HOH      O 6038   0.819   3.289   2.504
 1951HOH     H1 6039   0.777   3.258   2.585
 1951HOH     H2 6040   0.899   3.237   2.498
 1952HOH      O 6041   4.016   1.968   0.276
 1952HOH     H1 6042   4.039   2.059   0.294
 1952HOH     H2 6043   4.018   1.961   0.181
 1953HOH      O 6044   3.317   3.233   2.373
 1953HOH     H1 6045   3.305   3.287   2.295
 1953HOH     H2 6046   3.302   3.292   2.447
 1954HOH      O 6047   2.024   2.610   0.966
 1954HOH     H1 6048   1.935   2.584   0.990
 1954HOH     H2 6049   2.013   2.686   0.909
 1955HOH      O 6050   2.526   0.013   1.397
 1955HOH     H1 6051   2.612   0.022   1.437
 1955HOH     H2 6052   2.502   0.103   1.372
 1956HOH      O 6053   3.802   1.610   0.805
 1956HOH     H1 6054   3.785   1.526   0.848
 1956HOH     H2 6055   3.720   1.630   0.760
 1957HOH      O 6056   3.470   3.121   2.623
 1957HOH     H1 6057   3.466   3.131   2.528
 1957HOH     H2 6058   3.493   3.029   2.636
 1958HOH      O 6059   2.592   0.851   3.423
 1958HOH     H1 6060   2.621   0.923   3.367
 1958HOH     H2 6061   2.625   0.873   3.510
 1959HOH      O 6062   0.424   0.426   3.958
 1959HOH     H1 6063   0.375   0.508   3.952
 1959HOH     H2 6064   0.360   0.359   3.933
 1960HOH      O 6065   1.368   0.277   3.210
 1960HOH     H1 6066   1.462   0.272   3.223
 1960HOH     H2 6067   1.355   0.357   3.159
 1961HOH      O 6068   1.087   2.518   2.621
 1961HOH     H1 6069   1.155   2.450   2.619
 1961HOH     H2 6070   1.024   2.487   2.686
 1962HOH      O 6071   2.824   1.958   1.938
 1962HOH     H1 6072   2.818   2.033   1.879
 1962HOH     H2 6073   2.775   1.889   1.895
 1963HOH      O 6074   3.559   3.470   3.757
 1963HOH     H1 6075   3.647   3.506   3.747
 1963HOH     H2 6076   3.557   3.436   3.846
 1964HOH      O 6077   2.263   1.491   0.928
 1964HOH     H1 6078   2.261   1.396   0.942
 1964HOH     H2 6079   2.234   1.528   1.011
 1965HOH      O 6080   2.068   3.369   3.191
 1965HOH     H1 6081   2.068   3.407   3.279
 1965HOH     H2 6082   2.158   3.381   3.160
 1966HOH      O 6083   1.288   1.921   3.714
 1966HOH     H1 6084   1.260   1.975   3.788
 1966HOH     H2 6085   1.268   1.831   3.741
 1967HOH      O 6086   0.090   3.940   2.837
 1967HOH     H1 6087   0.045   3.856   2.837
 1967HOH     H2 6088   0.152   3.935   2.765
 1968HOH      O 6089   2.198   3.014   2.105
 1968HOH     H1 6090   2.277   3.053   2.142
 1968HOH     H2 6091   2.126   3.057   2.152
 1969HOH      O 6092   3.827   3.554   1.002
 1969HOH     H1 6093   3.807   3.621   1.067
 1969HOH     H2 6094   3.845   3.603   0.922
 1970HOH      O 6095   2.638   3.771   1.324
 1970HOH     H1 6096   2.634   3.863   1.296
 1970HOH     H2 6097   2.730   3.758   1.348
 1971HOH      O 6098   0.709   0.470   1.436
 1971HOH     H1 6099   0.662   0.386   1.431
 1971HOH     H2 6100   0.675   0.512   1.515
 1972HOH      O 6101   2.874   2.847   1.617
 1972HOH     H1 6102   2.794   2.899   1.616
 1972HOH     H2 6103   2.854   2.774   1.676
 1973HOH      O 6104   0.167   3.296   3.649
 1973HOH     H1 6105   0.124   3.376   3.621
 1973HOH     H2 6106   0.115   3.226   3.611
 1974HOH      O 6107   2.434   1.979   3.813
 1974HOH     H1 6108   2.496   2.050   3.799
 1974HOH     H2 6109   2.484   1.912   3.859
 1975HOH      O 6110   3.505   1.530   2.104
 1975HOH     H1 6111   3.484   1.491   2.188
 1975HOH     H2 6112   3.577   1.591   2.123
 1976HOH      O 6113   1.369   1.300   1.862
 1976HOH     H1 6114   1.375   1.234   1.793
 1976HOH     H2 6115   1.289   1.277   1.909
 1977HOH      O 6116   3.057   1.048   2.961
 1977HOH     H1 6117   2.988   1.109   2.988
 1977HOH     H2 6118   3.120   1.103   2.914
 1978HOH      O 6119   2.640   0.420   2.379
 1978HOH     H1 6120   2.618   0.488   2.316
 1978HOH     H2 6121   2.679   0.350   2.326
 1979HOH      O 6122   0.270   1.247   3.315
 1979HOH     H1 6123   0.216   1.191   3.259
 1979HOH     H2 6124   0.342   1.275   3.259
 1980HOH      O 6125   1.732   2.646   3.839
 1980HOH     H1 6126   1.752   2.619   3.750
 1980HOH     H2 6127   1.737   2.741   3.838
 1981HOH      O 6128   3.322   3.771   0.189
 1981HOH     H1 6129   3.383   3.808   0.253
 1981HOH     H2 6130   3.257   3.724   0.242
 1982HOH      O 6131   3.582   3.490   3.491
 1982HOH     H1 6132   3.516   3.555   3.465
 1982HOH     H2 6133   3.558   3.468   3.581
 1983HOH      O 6134   0.023   2.717   3.122
 1983HOH     H1 6135   0.038   2.803   3.085
 1983HOH     H2 6136  -0.018   2.734   3.207
 1984HOH      O 6137   0.238   0.653   3.937
 1984HOH     H1 6138   0.239   0.671   3.843
 1984HOH     H2 6139   0.165   0.591   3.948
 1985HOH      O 6140   2.346   2.008   0.299
 1985HOH     H1 6141   2.268   2.028   0.248
 1985HOH     H2 6142   2.320   1.932   0.353
 1986HOH      O 6143   2.909   3.232   3.157
 1986HOH     H1 6144   2.819   3.249   3.186
 1986HOH     H2 6145   2.962   3.247   3.235
 1987HOH      O 6146   3.229   1.877   2.036
 1987HOH     H1 6147   3.199   1.948   1.979
 1987HOH     H2 6148   3.212   1.797   1.986
 1988HOH      O 6149   1.803   0.323   3.701
 1988HOH     H1 6150   1.805   0.364   3.788
 1988HOH     H2 6151   1.760   0.388   3.645
 1989HOH      O 6152   1.964   0.742   1.655
 1989HOH     H1 6153   2.018   0.688   1.713
 1989HOH     H2 6154   1.925   0.807   1.713
 1990HOH      O 6155   0.157   1.557   1.469
 1990HOH     H1 6156   0.176   1.651   1.477
 1990HOH     H2 6157   0.113   1.535   1.550
 1991HOH      O 6158   0.204   0.799   2.749
 1991HOH     H1 6159   0.263   0.727   2.727
 1991HOH     H2 6160   0.120   0.774   2.709
 1992HOH      O 6161   2.582   2.525   3.285
 1992HOH     H1 6162   2.533   2.541   3.205
 1992HOH     H2 6163   2.521   2.480   3.343
 1993HOH      O 6164   3.296   0.507   2.940
 1993HOH     H1 6165   3.270   0.454   2.865
 1993HOH     H2 6166   3.314   0.594   2.904
 1994HOH      O 6167   2.645   0.083   3.724
 1994HOH     H1 6168   2.626   0.017   3.791
 1994HOH     H2 6169   2.739   0.080   3.712
 1995HOH      O 6170   2.539   1.925   1.503
 1995HOH     H1 6171   2.552   1.994   1.437
 1995HOH     H2 6172   2.474   1.961   1.563
 1996HOH      O 6173   1.466   1.941   3.442
 1996HOH     H1 6174   1.402   1.897   3.386
 1996HOH     H2 6175   1.434   1.925   3.531
 1997HOH      O 6176   2.900   2.988   0.035
 1997HOH     H1 6177   2.872   2.968  -0.054
 1997HOH     H2 6178   2.834   2.947   0.091
 1998HOH      O 6179   2.512   1.779   3.990
 1998HOH     H1 6180   2.425   1.812   4.012
 1998HOH     H2 6181   2.556   1.770   4.075
 1999HOH      O 6182   3.609   2.283   3.090
 1999HOH     H1 6183   3.538   2.219   3.089
 1999HOH     H2 6184   3.639   2.284   3.181
 2000HOH      O 6185   2.997   3.351   2.452
 2000HOH     H1 6186   2.999   3.281   2.517
 2000HOH     H2 6187   3.065   3.412   2.480
 2001HOH      O 6188   1.538   2.929   1.843
 2001HOH     H1 6189   1.497   2.912   1.927
 2001HOH     H2 6190   1.465   2.954   1.786
 2002HOH      O 6191   1.920   0.806   0.087
 2002HOH     H1 6192   1.974   0.780   0.013
 2002HOH     H2 6193   1.899   0.898   0.069
 2003HOH      O 6194   0.702   0.630   1.994
 2003HOH     H1 6195   0.740   0.553   1.951
 2003HOH     H2 6196   0.692   0.604   2.086
 2004HOH      O 6197   0.513   0.188   2.069
 2004HOH     H1 6198   0.600   0.147   2.072
 2004HOH     H2 6199   0.498   0.206   1.976
 2005HOH      O 6200   1.243   3.681   0.398
 2005HOH     H1 6201   1.219   3.632   0.319
 2005HOH     H2 6202   1.256   3.613   0.465
 2006HOH      O 6203   2.382   2.279   3.240
 2006HOH     H1 6204   2.388   2.345   3.171
 2006HOH     H2 6205   2.362   2.329   3.319
 2007HOH      O 6206   2.573   2.454   0.312
 2007HOH     H1 6207   2.650   2.511   0.315
 2007HOH     H2 6208   2.516   2.486   0.382
 2008HOH      O 6209   1.670   3.463   0.523
 2008HOH     H1 6210   1.750   3.415   0.503
 2008HOH     H2 6211   1.657   3.521   0.448
 2009HOH      O 6212   3.785   1.010   0.060
 2009HOH     H1 6213   3.738   1.089   0.032
 2009HOH     H2 6214   3.876   1.026   0.035
 2010HOH      O 6215   2.335   1.244   1.056
 2010HOH     H1 6216   2.407   1.307   1.057
 2010HOH     H2 6217   2.301   1.245   1.146
 2011HOH      O 6218   3.050   3.637   2.487
 2011HOH     H1 6219   3.043   3.627   2.392
 2011HOH     H2 6220   2.960   3.642   2.517
 2012HOH      O 6221   2.801   1.949   3.153
 2012HOH     H1 6222   2.717   1.993   3.170
 2012HOH     H2 6223   2.777   1.863   3.118
 2013HOH      O 6224   1.986   3.215   1.230
 2013HOH     H1 6225   2.004   3.262   1.148
 2013HOH     H2 6226   2.016   3.126   1.214
 2014HOH      O 6227   2.498   1.471   0.136
 2014HOH     H1 6228   2.567   1.511   0.190
 2014HOH     H2 6229   2.416   1.503   0.174
 2015HOH      O 6230   1.516   0.045   1.940
 2015HOH     H1 6231   1.533  -0.024   2.004
 2015HOH     H2 6232   1.452   0.102   1.983
 2016HOH      O 6233   2.028   1.985   0.372
 2016HOH     H1 6234   2.042   2.059   0.429
 2016HOH     H2 6235   2.074   2.007   0.291
 2017HOH      O 6236   3.287   0.092   3.645
 2017HOH     H1 6237   3.346   0.159   3.609
 2017HOH     H2 6238   3.255   0.044   3.569
 2018HOH      O 6239   3.545   0.428   0.547
 2018HOH     H1 6240   3.465   0.469   0.514
 2018HOH     H2 6241   3.530   0.334   0.538
 2019HOH      O 6242   3.639   0.672   3.964
 2019HOH     H1 6243   3.622   0.748   3.909
 2019HOH     H2 6244   3.680   0.608   3.906
 2020HOH      O 6245   3.977   2.835   0.667
 2020HOH     H1 6246   3.886   2.818   0.642
 2020HOH     H2 6247   3.985   2.930   0.661
 2021HOH      O 6248   0.665   1.599   0.652
 2021HOH     H1 6249   0.752   1.635   0.636
 2021HOH     H2 6250   0.607   1.653   0.599
 2022HOH      O 6251   2.135   3.332   3.692
 2022HOH     H1 6252   2.124   3.264   3.626
 2022HOH     H2 6253   2.214   3.308   3.740
 2023HOH      O 6254   2.078   3.911   1.658
 2023HOH     H1 6255   2.147   3.916   1.591
 2023HOH     H2 6256   1.996   3.911   1.609
 2024HOH      O 6257   3.100   3.929   3.751
 2024HOH     H1 6258   3.175   3.946   3.808
 2024HOH     H2 6259   3.031   3.899   3.810
 2025HOH      O 6260   2.738   0.838   1.429
 2025HOH     H1 6261   2.806   0.860   1.366
 2025HOH     H2 6262   2.675   0.911   1.422
 2026HOH      O 6263   1.931   3.365   0.468
 2026HOH     H1 6264   1.965   3.427   0.532
 2026HOH     H2 6265   2.008   3.339   0.417
 2027HOH      O 6266   2.859   0.367   1.931
 2027HOH     H1 6267   2.871   0.317   1.850
 2027HOH     H2 6268   2.827   0.453   1.901
 2028HOH      O 6269   1.992   0.346   0.615
 2028HOH     H1 6270   1.938   0.396   0.554
 2028HOH     H2 6271   1.933   0.322   0.687
 2029HOH      O 6272   0.071   2.702   3.578
 2029HOH     H1 6273   0.137   2.748   3.527
 2029HOH     H2 6274   0.075   2.743   3.664
 2030HOH      O 6275   0.386   3.664   2.897
 2030HOH     H1 6276   0.441   3.587   2.907
 2030HOH     H2 6277   0.418   3.706   2.816
 2031HOH      O 6278   1.325   2.919   2.022
 2031HOH     H1 6279   1.349   2.838   2.067
 2031HOH     H2 6280   1.235   2.937   2.049
 2032HOH      O 6281   0.061   1.641   2.839
 2032HOH     H1 6282  -0.026   1.657   2.876
 2032HOH     H2 6283   0.090   1.727   2.808
 2033HOH      O 6284   2.865   2.517   3.231
 2033HOH     H1 6285   2.770   2.528   3.242
 2033HOH     H2 6286   2.900   2.606   3.231
 2034HOH      O 6287   0.970   3.703   1.762
 2034HOH     H1 6288   0.941   3.655   1.840
 2034HOH     H2 6289   0.903   3.769   1.748
 2035HOH      O 6290   2.933   0.164   1.742
 2035HOH     H1 6291   2.893   0.079   1.720
 2035HOH     H2 6292   2.954   0.203   1.658
 2036HOH      O 6293   0.700   2.458   0.523
 2036HOH     H1 6294   0.677   2.459   0.616
 2036HOH     H2 6295   0.732   2.369   0.508
 2037HOH      O 6296   2.272   2.910   0.612
 2037HOH     H1 6297   2.325   2.955   0.678
 2037HOH     H2 6298   2.279   2.965   0.534
 2038HOH      O 6299   2.717   3.240   2.364
 2038HOH     H1 6300   2.756   3.154   2.380
 2038HOH     H2 6301   2.775   3.301   2.408
 2039HOH      O 6302   1.766   0.478   3.924
 2039HOH     H1 6303   1.684   0.431   3.939
 2039HOH     H2 6304   1.817   0.465   4.004
 2040HOH      O 6305   0.295   2.352   0.588
 2040HOH     H1 6306   0.247   2.271   0.568
 2040HOH     H2 6307   0.230   2.421   0.578
 2041HOH      O 6308   3.333   3.439   1.993
 2041HOH     H1 6309   3.276   3.365   1.978
 2041HOH     H2 6310   3.422   3.403   1.989
 2042HOH      O 6311   1.269   3.017   3.902
 2042HOH     H1 6312   1.298   2.952   3.966
 2042HOH     H2 6313   1.230   3.087   3.956
 2043HOH      O 6314   0.437   3.820   2.666
 2043HOH     H1 6315   0.479   3.848   2.584
 2043HOH     H2 6316   0.345   3.842   2.655
 2044HOH      O 6317   1.676   2.441   0.488
 2044HOH     H1 6318   1.581   2.426   0.485
 2044HOH     H2 6319   1.691   2.477   0.576
 2045HOH      O 6320   3.429   2.609   3.666
 2045HOH     H1 6321   3.380   2.687   3.693
 2045HOH     H2 6322   3.388   2.582   3.584
 2046HOH      O 6323   0.781   0.535   0.964
 2046HOH     H1 6324   0.732   0.530   1.046
 2046HOH     H2 6325   0.740   0.605   0.915
 2047HOH      O 6326   0.579   3.068   1.893
 2047HOH     H1 6327   0.599   2.995   1.834
 2047HOH     H2 6328   0.554   3.025   1.975
 2048HOH      O 6329   4.037   2.476   2.746
 2048HOH     H1 6330   4.055   2.384   2.727
 2048HOH     H2 6331   3.984   2.474   2.826
 2049HOH      O 6332   2.326   1.082   3.464
 2049HOH     H1 6333   2.357   1.152   3.521
 2049HOH     H2 6334   2.321   1.005   3.521
 2050HOH      O 6335   1.339   3.835   1.465
 2050HOH     H1 6336   1.324   3.753   1.512
 2050HOH     H2 6337   1.325   3.903   1.531
 2051HOH      O 6338   2.812   3.678   3.153
 2051HOH     H1 6339   2.886   3.626   3.121
 2051HOH     H2 6340   2.853   3.755   3.193
 2052HOH      O 6341   0.224   2.482   0.285
 2052HOH     H1 6342   0.152   2.437   0.241
 2052HOH     H2 6343   0.292   2.415   0.295
 2053HOH      O 6344   0.416   3.444   0.231
 2053HOH     H1 6345   0.491   3.464   0.286
 2053HOH     H2 6346   0.357   3.394   0.288
 2054HOH      O 6347   1.701   0.258   1.287
 2054HOH     H1 6348   1.719   0.217   1.372
 2054HOH     H2 6349   1.618   0.219   1.259
 2055HOH      O 6350   1.272   3.539   2.211
 2055HOH     H1 6351   1.205   3.588   2.163
 2055HOH     H2 6352   1.348   3.540   2.153
 2056HOH      O 6353   1.591   3.540   0.816
 2056HOH     H1 6354   1.592   3.604   0.745
 2056HOH     H2 6355   1.602   3.456   0.772
 2057HOH      O 6356   1.172   3.528   0.909
 2057HOH     H1 6357   1.171   3.434   0.928
 2057HOH     H2 6358   1.195   3.568   0.993
 2058HOH      O 6359   3.198   1.221   3.270
 2058HOH     H1 6360   3.287   1.187   3.267
 2058HOH     H2 6361   3.194   1.284   3.198
 2059HOH      O 6362   0.886   1.038   2.457
 2059HOH     H1 6363   0.836   0.956   2.462
 2059HOH     H2 6364   0.825   1.100   2.417
 2060HOH      O 6365   1.084   1.587   2.905
 2060HOH     H1 6366   1.016   1.549   2.848
 2060HOH     H2 6367   1.159   1.529   2.896
 2061HOH      O 6368   0.465   3.890   2.260
 2061HOH     H1 6369   0.399   3.950   2.224
 2061HOH     H2 6370   0.536   3.947   2.288
 2062HOH      O 6371   3.073   3.023   1.105
 2062HOH     H1 6372   3.051   3.036   1.197
 2062HOH     H2 6373   2.989   3.027   1.059
 2063HOH      O 6374   0.998   1.074   3.514
 2063HOH     H1 6375   0.937   1.055   3.442
 2063HOH     H2 6376   1.082   1.042   3.482
 2064HOH      O 6377   1.442   3.797   2.562
 2064HOH     H1 6378   1.482   3.742   2.629
 2064HOH     H2 6379   1.504   3.868   2.548
 2065HOH      O 6380   1.202   1.689   0.066
 2065HOH     H1 6381   1.179   1.738   0.145
 2065HOH     H2 6382   1.121   1.644   0.041
 2066HOH      O 6383   3.742   3.865   3.096
 2066HOH     H1 6384   3.690   3.908   3.028
 2066HOH     H2 6385   3.748   3.930   3.166
 2067HOH      O 6386   2.077   0.055   0.397
 2067HOH     H1 6387   2.127   0.112   0.456
 2067HOH     H2 6388   2.020   0.114   0.348
 2068HOH      O 6389   1.138   2.657   3.229
 2068HOH     H1 6390   1.119   2.750   3.243
 2068HOH     H2 6391   1.061   2.623   3.184
 2069HOH      O 6392   0.179   3.967   3.522
 2069HOH     H1 6393   0.206   3.896   3.464
 2069HOH     H2 6394   0.184   3.928   3.610
 2070HOH      O 6395   1.460   0.390   2.565
 2070HOH     H1 6396   1.397   0.345   2.621
 2070HOH     H2 6397   1.485   0.467   2.615
 2071HOH      O 6398   2.741   1.761   1.777
 2071HOH     H1 6399   2.760   1.796   1.690
 2071HOH     H2 6400   2.779   1.673   1.777
 2072HOH      O 6401  -0.016   1.796   2.478
 2072HOH     H1 6402   0.044   1.862   2.442
 2072HOH     H2 6403   0.021   1.712   2.452
 2073HOH      O 6404   0.111   0.669   0.324
 2073HOH     H1 6405   0.169   0.597   0.349
 2073HOH     H2 6406   0.030   0.625   0.296
 2074HOH      O 6407   4.021   2.079   0.032
 2074HOH     H1 6408   4.073   2.154   0.003
 2074HOH     H2 6409   3.931   2.100   0.005
 2075HOH      O 6410   3.864   1.855   0.912
 2075HOH     H1 6411   3.850   1.782   0.852
 2075HOH     H2 6412   3.780   1.899   0.916
 2076HOH      O 6413   2.794   3.069   1.004
 2076HOH     H1 6414   2.784   3.164   1.013
 2076HOH     H2 6415   2.788   3.053   0.910
 2077HOH      O 6416   3.614   0.968   0.688
 2077HOH     H1 6417   3.632   0.956   0.595
 2077HOH     H2 6418   3.692   1.013   0.722
 2078HOH      O 6419   1.892   0.686   1.386
 2078HOH     H1 6420   1.919   0.694   1.477
 2078HOH     H2 6421   1.897   0.593   1.367
 2079HOH      O 6422   2.382   1.734   3.572
 2079HOH     H1 6423   2.417   1.675   3.638
 2079HOH     H2 6424   2.459   1.772   3.530
 2080HOH      O 6425   3.988   2.090   3.432
 2080HOH     H1 6426   3.979   2.072   3.339
 2080HOH     H2 6427   4.003   2.005   3.472
 2081HOH      O 6428   0.673   2.943   3.535
 2081HOH     H1 6429   0.674   2.870   3.597
 2081HOH     H2 6430   0.756   2.988   3.552
 2082HOH      O 6431   1.788   2.767   0.531
 2082HOH     H1 6432   1.776   2.861   0.541
 2082HOH     H2 6433   1.744   2.745   0.449
 2083HOH      O 6434   3.830   2.616   0.921
 2083HOH     H1 6435   3.744   2.635   0.959
 2083HOH     H2 6436   3.815   2.537   0.869
 2084HOH      O 6437   3.846   0.477   2.208
 2084HOH     H1 6438   3.778   0.544   2.194
 2084HOH     H2 6439   3.809   0.398   2.169
 2085HOH      O 6440   0.121   0.756   1.235
 2085HOH     H1 6441   0.146   0.765   1.143
 2085HOH     H2 6442   0.147   0.667   1.258
 2086HOH      O 6443   1.125   1.123   2.338
 2086HOH     H1 6444   1.136   1.214   2.367
 2086HOH     H2 6445   1.041   1.096   2.374
 2087HOH      O 6446   3.248   1.238   1.361
 2087HOH     H1 6447   3.164   1.242   1.407
 2087HOH     H2 6448   3.226   1.245   1.268
 2088HOH      O 6449   0.553   1.277   0.484
 2088HOH     H1 6450   0.569   1.221   0.408
 2088HOH     H2 6451   0.489   1.341   0.453
 2089HOH      O 6452   1.172   0.520   3.306
 2089HOH     H1 6453   1.164   0.600   3.254
 2089HOH     H2 6454   1.170   0.449   3.241
 2090HOH      O 6455   1.118   0.028   2.304
 2090HOH     H1 6456   1.103   0.121   2.323
 2090HOH     H2 6457   1.030  -0.007   2.288
 2091HOH      O 6458   1.954   3.415   2.929
 2091HOH     H1 6459   2.033   3.448   2.886
 2091HOH     H2 6460   1.979   3.408   3.021
 2092HOH      O 6461   1.705   2.933   3.832
 2092HOH     H1 6462   1.621   2.970   3.804
 2092HOH     H2 6463   1.765   3.008   3.832
 2093HOH      O 6464   1.956   2.470   1.664
 2093HOH     H1 6465   2.016   2.513   1.724
 2093HOH     H2 6466   1.987   2.495   1.577
 2094HOH      O 6467   2.720   2.884   0.280
 2094HOH     H1 6468   2.646   2.869   0.340
 2094HOH     H2 6469   2.770   2.802   0.282
 2095HOH      O 6470   1.816   2.008   3.031
 2095HOH     H1 6471   1.822   2.032   3.124
 2095HOH     H2 6472   1.727   2.033   3.006
 2096HOH      O 6473   0.159   0.970   3.715
 2096HOH     H1 6474   0.164   0.876   3.701
 2096HOH     H2 6475   0.074   0.984   3.756
 2097HOH      O 6476   0.658   1.688   2.332
 2097HOH     H1 6477   0.631   1.625   2.398
 2097HOH     H2 6478   0.700   1.635   2.264
 2098HOH      O 6479   0.378   1.567   3.190
 2098HOH     H1 6480   0.456   1.565   3.135
 2098HOH     H2 6481   0.378   1.655   3.228
 2099HOH      O 6482   3.107   0.348   2.292
 2099HOH     H1 6483   3.169   0.299   2.237
 2099HOH     H2 6484   3.051   0.281   2.331
 2100HOH      O 6485   3.313   2.145   1.735
 2100HOH     H1 6486   3.314   2.170   1.642
 2100HOH     H2 6487   3.254   2.070   1.738
 2101HOH      O 6488   0.087   1.764   3.173
 2101HOH     H1 6489   0.018   1.762   3.106
 2101HOH     H2 6490   0.121   1.674   3.174
 2102HOH      O 6491   0.123   3.103   3.867
 2102HOH     H1 6492   0.036   3.133   3.842
 2102HOH     H2 6493   0.170   3.183   3.891
 2103HOH      O 6494   0.987   3.504   0.415
 2103HOH     H1 6495   1.043   3.528   0.489
 2103HOH     H2 6496   1.044   3.453   0.358
 2104HOH      O 6497   0.289   2.180   3.634
 2104HOH     H1 6498   0.327   2.244   3.573
 2104HOH     H2 6499   0.243   2.234   3.698
 2105HOH      O 6500   3.428   2.743   0.165
 2105HOH     H1 6501   3.399   2.659   0.199
 2105HOH     H2 6502   3.352   2.800   0.176
 2106HOH      O 6503   3.651   2.653   1.168
 2106HOH     H1 6504   3.583   2.720   1.158
 2106HOH     H2 6505   3.721   2.696   1.216
 2107HOH      O 6506   3.142   1.749   0.016
 2107HOH     H1 6507   3.080   1.687   0.054
 2107HOH     H2 6508   3.219   1.744   0.073
 2108HOH      O 6509   3.047   1.824   3.676
 2108HOH     H1 6510   3.092   1.818   3.591
 2108HOH     H2 6511   3.049   1.735   3.710
 2109HOH      O 6512   2.286   2.997   3.011
 2109HOH     H1 6513   2.282   3.074   3.068
 2109HOH     H2 6514   2.366   3.010   2.960
 2110HOH      O 6515   0.215   1.933   3.513
 2110HOH     H1 6516   0.238   1.999   3.579
 2110HOH     H2 6517   0.248   1.968   3.431
 2111HOH      O 6518   0.271   1.481   1.215
 2111HOH     H1 6519   0.230   1.400   1.185
 2111HOH     H2 6520   0.208   1.520   1.275
   4.02731   4.02731   4.02731   0.00000   0.00000   0.00000   0.00000   0.00000   0.00000
