Generated with MDTraj, t= 27903.0
 6520
    1MOL     C1    1   0.960   3.640   1.094
    1MOL     C2    2   0.842   3.705   1.096
    1MOL     C3    3   0.747   3.682   0.990
    1MOL     C4    4   0.778   3.584   0.889
    1MOL     C5    5   0.904   3.521   0.885
    1MOL     C6    6   0.994   3.550   0.990
    1MOL     C7    7   0.621   3.745   0.997
    1MOL     N1    8   0.522   3.797   1.005
    1MOL     C8    9   1.130   3.480   0.987
    1MOL     O1   10   1.164   3.428   0.883
    1MOL     O2   11   1.213   3.476   1.075
    1MOL     H1   12   1.036   3.650   1.171
    1MOL     H2   13   0.815   3.776   1.174
    1MOL     H3   14   0.703   3.567   0.813
    1MOL     H4   15   0.921   3.439   0.816
    2OCB     C1   16   3.457   3.671   0.840
    2OCB     C2   17   3.534   3.534   1.069
    2OCB     C3   18   3.403   3.707   0.966
    2OCB     C4   19   3.540   3.562   0.830
    2OCB     C5   20   3.583   3.494   0.948
    2OCB     C6   21   3.438   3.638   1.085
    2OCB     O1   22   3.595   3.470   1.176
    2OCB     C7   23   3.382   3.669   1.219
    2OCB     C8   24   3.688   3.543   1.259
    2OCB     O2   25   3.614   3.597   1.366
    2OCB     C9   26   3.583   3.724   1.362
    2OCB    C10   27   3.468   3.769   1.288
    2OCB    C11   28   3.451   3.909   1.272
    2OCB    C12   29   3.665   3.816   1.428
    2OCB    C13   30   3.535   3.999   1.332
    2OCB    C14   31   3.637   3.950   1.414
    2OCB     O3   32   3.734   4.034   1.464
    2OCB    C15   33   3.523   4.149   1.300
    2OCB    C16   34   3.604   4.181   1.177
    2OCB    C17   35   3.737   4.223   1.202
    2OCB    C18   36   3.831   4.088   1.374
    2OCB     O4   37   3.786   4.215   1.333
    2OCB     O5   38   3.603   3.516   0.720
    2OCB    C19   39   3.424   3.747   0.716
    2OCB    C20   40   3.533   3.856   0.686
    2OCB     O6   41   3.680   3.696   0.580
    2OCB    C21   42   3.653   3.823   0.621
    2OCB    C22   43   3.823   4.251   1.098
    2OCB    C23   44   3.776   4.250   0.964
    2OCB    C24   45   3.750   3.919   0.608
    2OCB    C25   46   3.740   4.050   0.663
    2OCB     O7   47   3.871   4.268   0.865
    2OCB     O8   48   3.850   4.139   0.660
    2OCB    C26   49   3.915   4.154   0.790
    2OCB    C27   50   3.517   3.986   0.734
    2OCB    C28   51   3.620   4.084   0.724
    2OCB    C29   52   3.561   4.184   1.046
    2OCB    C30   53   3.594   4.221   0.791
    2OCB    C31   54   3.643   4.217   0.939
    2OCB    C32   55   3.720   3.591   0.678
    2OCB    C33   56   3.380   4.198   1.297
    2OCB    C34   57   3.293   4.186   1.424
    2OCB    C35   58   3.167   4.269   1.412
    2OCB     O9   59   3.158   4.382   1.467
    2OCB    C36   60   3.226   3.700   1.211
    2OCB    C37   61   3.167   3.736   1.351
    2OCB    C38   62   3.019   3.756   1.353
    2OCB    O10   63   2.966   3.710   1.449
    2OCB    C39   64   3.273   3.788   0.703
    2OCB    C40   65   3.163   3.679   0.729
    2OCB    C41   66   3.029   3.715   0.662
    2OCB    O11   67   2.982   3.828   0.688
    2OCB    C42   68   3.449   4.276   0.785
    2OCB    C43   69   3.434   4.425   0.847
    2OCB    C44   70   3.305   4.488   0.794
    2OCB    O12   71   3.203   4.434   0.822
    2OCB    C45   72   3.798   3.448   1.314
    2OCB    C46   73   4.017   3.298   1.397
    2OCB    C47   74   3.862   3.474   1.438
    2OCB    C48   75   3.842   3.337   1.242
    2OCB    C49   76   3.952   3.265   1.281
    2OCB    C50   77   3.976   3.401   1.479
    2OCB    C51   78   3.830   3.495   0.633
    2OCB    C52   79   4.062   3.347   0.594
    2OCB    C53   80   3.931   3.539   0.554
    2OCB    C54   81   3.842   3.370   0.691
    2OCB    C55   82   3.958   3.295   0.671
    2OCB    C56   83   4.053   3.474   0.537
    2OCB    C57   84   4.068   4.152   0.768
    2OCB    C58   85   4.339   4.141   0.726
    2OCB    C59   86   4.151   4.208   0.863
    2OCB    C60   87   4.116   4.080   0.659
    2OCB    C61   88   4.254   4.066   0.648
    2OCB    C62   89   4.287   4.203   0.840
    2OCB    C63   90   3.971   4.094   1.442
    2OCB    C64   91   4.243   4.079   1.546
    2OCB    C65   92   4.073   4.190   1.407
    2OCB    C66   93   4.015   3.996   1.532
    2OCB    C67   94   4.142   3.993   1.586
    2OCB    C68   95   4.208   4.182   1.459
    2OCB    O13   96   3.979   3.166   0.719
    2OCB    O14   97   4.319   3.980   0.560
    2OCB    O15   98   4.381   4.247   0.935
    2OCB    O16   99   4.000   3.160   1.207
    2OCB    O17  100   4.039   3.443   1.599
    2OCB    O18  101   4.302   4.271   1.421
    2OCB    O19  102   4.180   3.896   1.681
    2OCB    C69  103   4.247   3.887   0.479
    2OCB    C70  104   4.110   3.700   0.324
    2OCB    C71  105   4.248   3.752   0.520
    2OCB    C72  106   4.186   3.921   0.363
    2OCB    C73  107   4.114   3.832   0.285
    2OCB    C74  108   4.176   3.666   0.438
    2OCB    O20  109   4.163   3.530   0.472
    2OCB    C75  110   3.942   3.125   1.088
    2OCB    C76  111   3.810   3.067   0.851
    2OCB    C77  112   3.823   3.057   1.087
    2OCB    C78  113   4.004   3.161   0.963
    2OCB    C79  114   3.931   3.133   0.848
    2OCB    C80  115   3.757   3.024   0.974
    2OCB    C81  116   4.342   4.304   1.050
    2OCB    C82  117   4.274   4.458   1.273
    2OCB    C83  118   4.312   4.435   1.034
    2OCB    C84  119   4.334   4.238   1.175
    2OCB    C85  120   4.302   4.319   1.292
    2OCB    C86  121   4.278   4.514   1.143
    2OCB    C87  122   4.243   4.657   1.131
    2OCB    O21  123   4.184   4.713   1.229
    2OCB    C88  124   3.875   3.664   1.986
    2OCB    O22  125   3.782   3.592   1.992
    2OCB    C89  126   3.633   2.940   0.982
    2OCB    O23  127   3.578   2.915   0.876
    2OCB    O24  128   3.067   4.227   1.358
    2OCB    O25  129   3.310   4.600   0.745
    2OCB    O26  130   2.971   3.635   0.590
    2OCB    C90  131   4.026   3.874   0.163
    2OCB    O27  132   3.946   3.799   0.112
    2OCB    O28  133   3.915   3.717   2.087
    2OCB    O29  134   4.285   4.720   1.036
    2OCB    O30  135   4.027   3.989   0.127
    2OCB    O31  136   3.582   2.917   1.090
    2OCB    O32  137   2.957   3.825   1.273
    2OCB    C91  138   4.028   3.562   1.668
    2OCB    C92  139   4.040   3.787   1.835
    2OCB    C93  140   4.109   3.666   1.635
    2OCB    C94  141   3.943   3.569   1.778
    2OCB    C95  142   3.953   3.680   1.859
    2OCB    C96  143   4.105   3.783   1.713
    2OCB    C97  144   4.196   3.661   1.507
    2OCB    C98  145   4.137   3.232   0.953
    2OCB    C99  146   4.316   3.707   0.643
    2OCB      C  147   4.394   4.099   1.185
    2OCB     H1  148   3.331   3.789   0.975
    2OCB     H2  149   3.656   3.415   0.934
    2OCB     H3  150   3.388   3.581   1.282
    2OCB     H4  151   3.741   3.617   1.198
    2OCB     H5  152   3.379   3.941   1.197
    2OCB     H6  153   3.746   3.782   1.492
    2OCB     H7  154   3.571   4.198   1.385
    2OCB     H8  155   3.830   4.019   1.288
    2OCB     H9  156   3.435   3.679   0.631
    2OCB    H10  157   3.930   4.268   1.111
    2OCB    H11  158   3.852   3.896   0.579
    2OCB    H12  159   3.893   4.068   0.854
    2OCB    H13  160   3.429   4.015   0.791
    2OCB    H14  161   3.455   4.170   1.027
    2OCB    H15  162   3.659   4.290   0.736
    2OCB    H16  163   3.769   3.642   0.762
    2OCB    H17  164   3.375   4.305   1.277
    2OCB    H18  165   3.324   4.154   1.213
    2OCB    H19  166   3.270   4.079   1.428
    2OCB    H20  167   3.354   4.211   1.511
    2OCB    H21  168   3.168   3.612   1.179
    2OCB    H22  169   3.201   3.778   1.138
    2OCB    H23  170   3.193   3.660   1.424
    2OCB    H24  171   3.200   3.834   1.387
    2OCB    H25  172   3.250   3.871   0.770
    2OCB    H26  173   3.265   3.831   0.603
    2OCB    H27  174   3.201   3.582   0.696
    2OCB    H28  175   3.158   3.677   0.838
    2OCB    H29  176   3.411   4.290   0.683
    2OCB    H30  177   3.374   4.209   0.829
    2OCB    H31  178   3.423   4.423   0.956
    2OCB    H32  179   3.522   4.489   0.838
    2OCB    H33  180   4.113   3.255   1.425
    2OCB    H34  181   3.824   3.558   1.496
    2OCB    H35  182   3.797   3.322   1.144
    2OCB    H36  183   4.158   3.295   0.590
    2OCB    H37  184   3.922   3.643   0.523
    2OCB    H38  185   3.758   3.333   0.749
    2OCB    H39  186   4.446   4.137   0.706
    2OCB    H40  187   4.111   4.247   0.955
    2OCB    H41  188   4.056   4.038   0.579
    2OCB    H42  189   4.344   4.067   1.583
    2OCB    H43  190   4.048   4.273   1.341
    2OCB    H44  191   3.948   3.917   1.562
    2OCB    H45  192   4.064   3.626   0.260
    2OCB    H46  193   4.197   4.026   0.335
    2OCB    H47  194   3.760   3.061   0.754
    2OCB    H48  195   3.780   3.029   1.183
    2OCB    H49  196   4.246   4.509   1.364
    2OCB    H50  197   4.316   4.478   0.934
    2OCB    H51  198   4.048   3.868   1.907
    2OCB    H52  199   3.882   3.482   1.801
    2OCB    H53  200   4.141   3.685   1.417
    2OCB    H54  201   4.273   3.738   1.511
    2OCB    H55  202   4.238   3.561   1.494
    2OCB    H56  203   4.194   3.183   0.873
    2OCB    H57  204   4.135   3.339   0.932
    2OCB    H58  205   4.181   3.229   1.053
    2OCB    H59  206   4.361   3.611   0.618
    2OCB    H60  207   4.405   3.768   0.659
    2OCB    H61  208   4.240   3.694   0.720
    2OCB    H62  209   4.372   4.043   1.094
    2OCB    H63  210   4.503   4.094   1.197
    2OCB    H64  211   4.334   4.049   1.261
    3Na+    Na+  212   2.784   0.479   0.242
    4Na+    Na+  213   3.220   0.871   2.806
    5Na+    Na+  214   2.045   0.922   1.115
    6Na+    Na+  215   1.057   0.448   0.115
    7Na+    Na+  216   2.763   3.756   0.595
    8Na+    Na+  217   1.797   3.965   1.145
    9Na+    Na+  218   3.367   0.386   2.099
   10Na+    Na+  219   1.249   3.103   3.176
   11Na+    Na+  220   3.036   0.454   1.277
   12HOH      O  221   1.917   3.783   2.299
   12HOH     H1  222   1.930   3.866   2.345
   12HOH     H2  223   1.824   3.763   2.312
   13HOH      O  224   3.597   2.682   3.292
   13HOH     H1  225   3.688   2.682   3.263
   13HOH     H2  226   3.599   2.718   3.380
   14HOH      O  227   0.419   1.574   2.355
   14HOH     H1  228   0.402   1.527   2.273
   14HOH     H2  229   0.332   1.593   2.390
   15HOH      O  230   3.269   3.224   0.069
   15HOH     H1  231   3.174   3.228   0.064
   15HOH     H2  232   3.287   3.173   0.148
   16HOH      O  233   2.913   0.902   1.406
   16HOH     H1  234   2.875   0.908   1.318
   16HOH     H2  235   3.005   0.880   1.391
   17HOH      O  236   2.146   1.427   3.033
   17HOH     H1  237   2.128   1.343   3.076
   17HOH     H2  238   2.105   1.492   3.090
   18HOH      O  239   2.382   2.423   2.902
   18HOH     H1  240   2.355   2.478   2.976
   18HOH     H2  241   2.476   2.435   2.896
   19HOH      O  242   0.322   1.380   0.211
   19HOH     H1  243   0.366   1.365   0.127
   19HOH     H2  244   0.246   1.434   0.189
   20HOH      O  245   0.001   3.583   0.876
   20HOH     H1  246   0.008   3.490   0.854
   20HOH     H2  247   0.091   3.615   0.872
   21HOH      O  248   1.056   1.582   0.432
   21HOH     H1  249   1.069   1.676   0.418
   21HOH     H2  250   0.974   1.562   0.386
   22HOH      O  251   1.603   0.949   2.218
   22HOH     H1  252   1.514   0.984   2.223
   22HOH     H2  253   1.592   0.860   2.183
   23HOH      O  254   3.337   2.569   1.236
   23HOH     H1  255   3.339   2.663   1.216
   23HOH     H2  256   3.305   2.529   1.155
   24HOH      O  257   2.900   2.631   2.786
   24HOH     H1  258   2.856   2.629   2.701
   24HOH     H2  259   2.900   2.539   2.815
   25HOH      O  260   0.893   2.735   1.975
   25HOH     H1  261   0.833   2.803   1.944
   25HOH     H2  262   0.837   2.659   1.989
   26HOH      O  263   1.435   3.416   0.889
   26HOH     H1  264   1.346   3.379   0.890
   26HOH     H2  265   1.421   3.510   0.880
   27HOH      O  266   0.383   2.276   2.802
   27HOH     H1  267   0.320   2.344   2.830
   27HOH     H2  268   0.420   2.311   2.721
   28HOH      O  269   0.982   3.140   0.562
   28HOH     H1  270   1.035   3.110   0.636
   28HOH     H2  271   0.892   3.128   0.591
   29HOH      O  272   1.095   0.863   1.942
   29HOH     H1  273   1.002   0.880   1.928
   29HOH     H2  274   1.110   0.885   2.034
   30HOH      O  275   2.614   2.355   0.015
   30HOH     H1  276   2.692   2.320   0.058
   30HOH     H2  277   2.647   2.427  -0.039
   31HOH      O  278   1.278   1.586   1.946
   31HOH     H1  279   1.353   1.572   2.004
   31HOH     H2  280   1.307   1.655   1.886
   32HOH      O  281   3.100   3.590   2.174
   32HOH     H1  282   3.056   3.510   2.147
   32HOH     H2  283   3.085   3.651   2.101
   33HOH      O  284   3.578   3.546   0.285
   33HOH     H1  285   3.495   3.585   0.311
   33HOH     H2  286   3.601   3.489   0.359
   34HOH      O  287   0.313   2.869   0.944
   34HOH     H1  288   0.337   2.781   0.915
   34HOH     H2  289   0.393   2.902   0.986
   35HOH      O  290   2.140   3.703   0.844
   35HOH     H1  291   2.162   3.688   0.752
   35HOH     H2  292   2.225   3.707   0.888
   36HOH      O  293   2.039   0.189   1.415
   36HOH     H1  294   2.063   0.166   1.326
   36HOH     H2  295   2.092   0.131   1.470
   37HOH      O  296   0.383   3.919   2.650
   37HOH     H1  297   0.417   3.958   2.569
   37HOH     H2  298   0.320   3.982   2.683
   38HOH      O  299   1.222   1.442   3.718
   38HOH     H1  300   1.178   1.357   3.725
   38HOH     H2  301   1.176   1.486   3.647
   39HOH      O  302   1.445   1.870   0.778
   39HOH     H1  303   1.520   1.822   0.813
   39HOH     H2  304   1.482   1.950   0.741
   40HOH      O  305   1.278   2.424   3.346
   40HOH     H1  306   1.228   2.496   3.384
   40HOH     H2  307   1.357   2.465   3.313
   41HOH      O  308   1.881   0.221   0.311
   41HOH     H1  309   1.863   0.236   0.218
   41HOH     H2  310   1.802   0.177   0.343
   42HOH      O  311   0.444   3.609   2.638
   42HOH     H1  312   0.442   3.533   2.696
   42HOH     H2  313   0.422   3.683   2.694
   43HOH      O  314   3.782   1.971   3.841
   43HOH     H1  315   3.734   1.890   3.822
   43HOH     H2  316   3.856   1.970   3.781
   44HOH      O  317   2.720   3.535   2.536
   44HOH     H1  318   2.632   3.572   2.539
   44HOH     H2  319   2.707   3.441   2.546
   45HOH      O  320   0.892   1.869   2.774
   45HOH     H1  321   0.954   1.897   2.842
   45HOH     H2  322   0.913   1.924   2.699
   46HOH      O  323   3.776   2.282   1.199
   46HOH     H1  324   3.851   2.234   1.164
   46HOH     H2  325   3.815   2.359   1.240
   47HOH      O  326   3.289   1.472   2.237
   47HOH     H1  327   3.274   1.553   2.188
   47HOH     H2  328   3.205   1.426   2.233
   48HOH      O  329   2.908   2.957   3.546
   48HOH     H1  330   2.855   2.952   3.626
   48HOH     H2  331   2.986   3.006   3.571
   49HOH      O  332   1.811   1.405   2.496
   49HOH     H1  333   1.760   1.433   2.572
   49HOH     H2  334   1.887   1.360   2.533
   50HOH      O  335   1.532   0.452   3.603
   50HOH     H1  336   1.568   0.497   3.527
   50HOH     H2  337   1.608   0.412   3.646
   51HOH      O  338   3.663   1.029   2.742
   51HOH     H1  339   3.712   1.068   2.814
   51HOH     H2  340   3.730   0.988   2.687
   52HOH      O  341   1.413   3.084   3.007
   52HOH     H1  342   1.390   3.143   2.935
   52HOH     H2  343   1.434   3.001   2.964
   53HOH      O  344   3.591   1.632   2.241
   53HOH     H1  345   3.554   1.705   2.290
   53HOH     H2  346   3.673   1.665   2.206
   54HOH      O  347   2.682   1.904   1.261
   54HOH     H1  348   2.606   1.851   1.285
   54HOH     H2  349   2.691   1.892   1.167
   55HOH      O  350   2.739   3.284   3.391
   55HOH     H1  351   2.831   3.269   3.416
   55HOH     H2  352   2.689   3.265   3.470
   56HOH      O  353   0.896   1.147   0.885
   56HOH     H1  354   0.948   1.224   0.907
   56HOH     H2  355   0.892   1.147   0.789
   57HOH      O  356   3.774   1.065   1.897
   57HOH     H1  357   3.839   1.006   1.935
   57HOH     H2  358   3.740   1.115   1.972
   58HOH      O  359   2.428   1.985   0.569
   58HOH     H1  360   2.354   2.022   0.521
   58HOH     H2  361   2.406   1.892   0.578
   59HOH      O  362   1.354   3.850   3.255
   59HOH     H1  363   1.323   3.870   3.344
   59HOH     H2  364   1.280   3.873   3.199
   60HOH      O  365   1.669   3.108   2.149
   60HOH     H1  366   1.588   3.059   2.135
   60HOH     H2  367   1.688   3.098   2.242
   61HOH      O  368   2.904   1.318   0.759
   61HOH     H1  369   2.847   1.381   0.714
   61HOH     H2  370   2.906   1.348   0.850
   62HOH      O  371   3.207   1.743   2.981
   62HOH     H1  372   3.231   1.713   2.894
   62HOH     H2  373   3.127   1.793   2.968
   63HOH      O  374   3.570   2.640   1.487
   63HOH     H1  375   3.506   2.609   1.423
   63HOH     H2  376   3.639   2.680   1.435
   64HOH      O  377   2.584   2.831   0.343
   64HOH     H1  378   2.639   2.806   0.268
   64HOH     H2  379   2.501   2.785   0.329
   65HOH      O  380   3.656   3.302   1.714
   65HOH     H1  381   3.607   3.346   1.783
   65HOH     H2  382   3.610   3.218   1.702
   66HOH      O  383   1.950   2.900   2.247
   66HOH     H1  384   1.936   2.920   2.155
   66HOH     H2  385   1.874   2.846   2.271
   67HOH      O  386   2.085   2.006   2.305
   67HOH     H1  387   2.116   2.096   2.290
   67HOH     H2  388   2.103   1.961   2.223
   68HOH      O  389   3.784   2.822   3.116
   68HOH     H1  390   3.811   2.877   3.042
   68HOH     H2  391   3.734   2.881   3.172
   69HOH      O  392   0.787   2.101   3.874
   69HOH     H1  393   0.837   2.020   3.869
   69HOH     H2  394   0.698   2.074   3.897
   70HOH      O  395   1.947   3.959   0.968
   70HOH     H1  396   2.023   3.984   0.916
   70HOH     H2  397   1.873   3.966   0.908
   71HOH      O  398   2.227   2.189   1.323
   71HOH     H1  399   2.200   2.202   1.232
   71HOH     H2  400   2.294   2.121   1.318
   72HOH      O  401   3.468   0.455   1.883
   72HOH     H1  402   3.465   0.550   1.873
   72HOH     H2  403   3.543   0.429   1.830
   73HOH      O  404   1.569   1.124   2.775
   73HOH     H1  405   1.572   1.144   2.681
   73HOH     H2  406   1.484   1.082   2.788
   74HOH      O  407   2.450   2.121   2.162
   74HOH     H1  408   2.362   2.144   2.131
   74HOH     H2  409   2.481   2.056   2.099
   75HOH      O  410   2.294   3.734   2.519
   75HOH     H1  411   2.294   3.742   2.424
   75HOH     H2  412   2.291   3.640   2.536
   76HOH      O  413   2.186   0.512   1.140
   76HOH     H1  414   2.141   0.510   1.224
   76HOH     H2  415   2.279   0.500   1.162
   77HOH      O  416   1.913   2.391   0.189
   77HOH     H1  417   1.861   2.471   0.181
   77HOH     H2  418   1.899   2.345   0.106
   78HOH      O  419   3.667   3.167   0.162
   78HOH     H1  420   3.706   3.228   0.224
   78HOH     H2  421   3.663   3.215   0.080
   79HOH      O  422   2.331   2.825   1.158
   79HOH     H1  423   2.341   2.782   1.073
   79HOH     H2  424   2.279   2.764   1.210
   80HOH      O  425   2.629   2.402   1.197
   80HOH     H1  426   2.665   2.316   1.217
   80HOH     H2  427   2.551   2.409   1.251
   81HOH      O  428   2.079   2.567   2.257
   81HOH     H1  429   2.093   2.653   2.217
   81HOH     H2  430   2.029   2.586   2.337
   82HOH      O  431   1.910   2.073   1.241
   82HOH     H1  432   1.845   2.004   1.252
   82HOH     H2  433   1.963   2.069   1.320
   83HOH      O  434   2.715   1.494   0.650
   83HOH     H1  435   2.705   1.535   0.736
   83HOH     H2  436   2.626   1.471   0.624
   84HOH      O  437   2.803   0.343   2.653
   84HOH     H1  438   2.821   0.250   2.648
   84HOH     H2  439   2.812   0.375   2.563
   85HOH      O  440   2.107   0.607   2.014
   85HOH     H1  441   2.053   0.528   2.013
   85HOH     H2  442   2.098   0.644   1.927
   86HOH      O  443   1.816   2.576   1.220
   86HOH     H1  444   1.731   2.594   1.180
   86HOH     H2  445   1.838   2.657   1.266
   87HOH      O  446   2.903   3.323   2.374
   87HOH     H1  447   2.952   3.368   2.442
   87HOH     H2  448   2.812   3.348   2.389
   88HOH      O  449   3.517   1.829   2.398
   88HOH     H1  450   3.501   1.797   2.487
   88HOH     H2  451   3.469   1.911   2.393
   89HOH      O  452   2.940   0.447   2.078
   89HOH     H1  453   3.019   0.407   2.041
   89HOH     H2  454   2.953   0.444   2.172
   90HOH      O  455   3.242   2.844   0.995
   90HOH     H1  456   3.233   2.933   0.961
   90HOH     H2  457   3.255   2.856   1.090
   91HOH      O  458   3.723   2.783   0.625
   91HOH     H1  459   3.788   2.847   0.598
   91HOH     H2  460   3.701   2.807   0.715
   92HOH      O  461   0.907   1.865   3.882
   92HOH     H1  462   0.857   1.784   3.874
   92HOH     H2  463   0.999   1.837   3.875
   93HOH      O  464   3.000   3.431   1.460
   93HOH     H1  465   3.094   3.422   1.476
   93HOH     H2  466   2.987   3.525   1.448
   94HOH      O  467   0.904   0.191   0.515
   94HOH     H1  468   0.983   0.174   0.464
   94HOH     H2  469   0.837   0.212   0.450
   95HOH      O  470   0.663   3.153   0.543
   95HOH     H1  471   0.608   3.106   0.480
   95HOH     H2  472   0.669   3.094   0.618
   96HOH      O  473   1.556   3.693   2.883
   96HOH     H1  474   1.646   3.663   2.897
   96HOH     H2  475   1.550   3.775   2.932
   97HOH      O  476   1.675   3.069   3.189
   97HOH     H1  477   1.586   3.035   3.185
   97HOH     H2  478   1.725   3.012   3.130
   98HOH      O  479   0.559   1.422   0.619
   98HOH     H1  480   0.480   1.461   0.656
   98HOH     H2  481   0.532   1.388   0.534
   99HOH      O  482   1.631   2.424   3.025
   99HOH     H1  483   1.669   2.347   2.983
   99HOH     H2  484   1.659   2.497   2.970
  100HOH      O  485   2.835   0.467   1.811
  100HOH     H1  486   2.862   0.422   1.891
  100HOH     H2  487   2.857   0.559   1.827
  101HOH      O  488   3.670   1.781   1.352
  101HOH     H1  489   3.686   1.754   1.443
  101HOH     H2  490   3.696   1.873   1.349
  102HOH      O  491   1.420   0.168   1.292
  102HOH     H1  492   1.345   0.196   1.346
  102HOH     H2  493   1.491   0.226   1.318
  103HOH      O  494   2.330   0.507   2.886
  103HOH     H1  495   2.238   0.528   2.873
  103HOH     H2  496   2.353   0.450   2.813
  104HOH      O  497   3.868   0.338   3.627
  104HOH     H1  498   3.878   0.243   3.629
  104HOH     H2  499   3.777   0.351   3.598
  105HOH      O  500   1.082   3.377   1.292
  105HOH     H1  501   1.135   3.415   1.222
  105HOH     H2  502   1.008   3.336   1.248
  106HOH      O  503   3.032   0.341   3.898
  106HOH     H1  504   2.981   0.356   3.978
  106HOH     H2  505   3.114   0.302   3.929
  107HOH      O  506   1.865   1.999   1.610
  107HOH     H1  507   1.904   2.074   1.566
  107HOH     H2  508   1.891   1.924   1.555
  108HOH      O  509   0.857   1.992   1.867
  108HOH     H1  510   0.927   1.936   1.833
  108HOH     H2  511   0.781   1.934   1.873
  109HOH      O  512   2.934   3.199   0.233
  109HOH     H1  513   2.860   3.142   0.211
  109HOH     H2  514   2.934   3.202   0.329
  110HOH      O  515   3.438   3.670   1.716
  110HOH     H1  516   3.364   3.617   1.688
  110HOH     H2  517   3.490   3.612   1.772
  111HOH      O  518   1.226   1.104   3.860
  111HOH     H1  519   1.312   1.096   3.901
  111HOH     H2  520   1.177   1.161   3.919
  112HOH      O  521   1.343   1.815   3.564
  112HOH     H1  522   1.414   1.789   3.505
  112HOH     H2  523   1.364   1.905   3.590
  113HOH      O  524   1.887   3.701   3.790
  113HOH     H1  525   1.828   3.749   3.732
  113HOH     H2  526   1.920   3.767   3.851
  114HOH      O  527   3.308   2.779   2.405
  114HOH     H1  528   3.355   2.705   2.443
  114HOH     H2  529   3.222   2.744   2.383
  115HOH      O  530   3.116   2.970   0.442
  115HOH     H1  531   3.125   2.924   0.525
  115HOH     H2  532   3.027   3.007   0.444
  116HOH      O  533   1.928   1.006   1.953
  116HOH     H1  534   2.015   1.038   1.930
  116HOH     H2  535   1.869   1.052   1.894
  117HOH      O  536   0.077   2.422   3.081
  117HOH     H1  537   0.033   2.337   3.082
  117HOH     H2  538   0.123   2.425   2.997
  118HOH      O  539   2.596   0.375   1.749
  118HOH     H1  540   2.557   0.406   1.831
  118HOH     H2  541   2.687   0.404   1.754
  119HOH      O  542   1.101   2.651   3.441
  119HOH     H1  543   1.181   2.697   3.464
  119HOH     H2  544   1.045   2.660   3.518
  120HOH      O  545   3.172   1.885   1.291
  120HOH     H1  546   3.253   1.833   1.286
  120HOH     H2  547   3.133   1.861   1.375
  121HOH      O  548   3.075   0.869   2.420
  121HOH     H1  549   3.144   0.819   2.464
  121HOH     H2  550   2.998   0.857   2.476
  122HOH      O  551   1.541   3.390   2.447
  122HOH     H1  552   1.491   3.316   2.481
  122HOH     H2  553   1.555   3.446   2.523
  123HOH      O  554   4.001   2.173   3.123
  123HOH     H1  555   4.026   2.115   3.051
  123HOH     H2  556   3.908   2.189   3.110
  124HOH      O  557   3.771   2.996   2.412
  124HOH     H1  558   3.685   2.988   2.453
  124HOH     H2  559   3.789   2.908   2.378
  125HOH      O  560   3.694   2.636   0.230
  125HOH     H1  561   3.693   2.730   0.212
  125HOH     H2  562   3.608   2.605   0.201
  126HOH      O  563   2.212   2.969   2.321
  126HOH     H1  564   2.249   2.888   2.287
  126HOH     H2  565   2.117   2.955   2.321
  127HOH      O  566   0.798   3.991   3.400
  127HOH     H1  567   0.735   4.001   3.472
  127HOH     H2  568   0.746   4.007   3.321
  128HOH      O  569   3.070   1.467   3.952
  128HOH     H1  570   2.999   1.434   4.007
  128HOH     H2  571   3.103   1.543   3.999
  129HOH      O  572   2.075   0.778   2.768
  129HOH     H1  573   1.984   0.804   2.760
  129HOH     H2  574   2.077   0.687   2.739
  130HOH      O  575   1.300   3.454   3.657
  130HOH     H1  576   1.366   3.505   3.611
  130HOH     H2  577   1.236   3.518   3.687
  131HOH      O  578   0.413   2.285   0.127
  131HOH     H1  579   0.352   2.235   0.072
  131HOH     H2  580   0.357   2.326   0.193
  132HOH      O  581   1.038   1.492   2.037
  132HOH     H1  582   1.022   1.582   2.066
  132HOH     H2  583   1.117   1.498   1.984
  133HOH      O  584   2.005   3.901   1.259
  133HOH     H1  585   2.060   3.867   1.329
  133HOH     H2  586   2.063   3.960   1.210
  134HOH      O  587   0.900   0.716   3.377
  134HOH     H1  588   0.805   0.729   3.370
  134HOH     H2  589   0.911   0.665   3.457
  135HOH      O  590   1.721   3.541   3.270
  135HOH     H1  591   1.776   3.612   3.235
  135HOH     H2  592   1.753   3.462   3.227
  136HOH      O  593   3.217   0.273   0.036
  136HOH     H1  594   3.310   0.286   0.052
  136HOH     H2  595   3.189   0.213   0.105
  137HOH      O  596   4.011   3.938   3.512
  137HOH     H1  597   3.999   3.844   3.494
  137HOH     H2  598   3.942   3.981   3.461
  138HOH      O  599   0.583   0.546   1.337
  138HOH     H1  600   0.677   0.560   1.335
  138HOH     H2  601   0.564   0.496   1.257
  139HOH      O  602   0.530   1.922   2.360
  139HOH     H1  603   0.473   1.875   2.299
  139HOH     H2  604   0.588   1.854   2.395
  140HOH      O  605   3.036   2.604   0.715
  140HOH     H1  606   2.951   2.648   0.705
  140HOH     H2  607   3.100   2.669   0.686
  141HOH      O  608   2.240   2.694   1.637
  141HOH     H1  609   2.172   2.755   1.665
  141HOH     H2  610   2.322   2.742   1.645
  142HOH      O  611   1.685   3.908   2.043
  142HOH     H1  612   1.630   3.976   2.082
  142HOH     H2  613   1.705   3.942   1.955
  143HOH      O  614   1.952   2.524   3.577
  143HOH     H1  615   1.947   2.553   3.668
  143HOH     H2  616   1.995   2.439   3.582
  144HOH      O  617   1.576   3.466   2.723
  144HOH     H1  618   1.665   3.475   2.687
  144HOH     H2  619   1.567   3.542   2.780
  145HOH      O  620   1.093   3.687   2.088
  145HOH     H1  621   1.103   3.675   1.994
  145HOH     H2  622   1.154   3.758   2.110
  146HOH      O  623   2.031   3.460   3.804
  146HOH     H1  624   2.004   3.384   3.752
  146HOH     H2  625   1.957   3.520   3.799
  147HOH      O  626   1.284   0.285   3.196
  147HOH     H1  627   1.366   0.321   3.164
  147HOH     H2  628   1.220   0.354   3.181
  148HOH      O  629   3.656   1.362   0.664
  148HOH     H1  630   3.679   1.279   0.623
  148HOH     H2  631   3.626   1.417   0.592
  149HOH      O  632   0.765   3.856   3.075
  149HOH     H1  633   0.790   3.803   3.151
  149HOH     H2  634   0.697   3.804   3.032
  150HOH      O  635   1.958   0.182   0.756
  150HOH     H1  636   2.005   0.167   0.838
  150HOH     H2  637   1.884   0.237   0.781
  151HOH      O  638   2.673   3.239   1.507
  151HOH     H1  639   2.720   3.257   1.425
  151HOH     H2  640   2.733   3.270   1.576
  152HOH      O  641   2.009   0.437   2.361
  152HOH     H1  642   2.085   0.474   2.407
  152HOH     H2  643   1.936   0.494   2.385
  153HOH      O  644   1.508   2.269   2.430
  153HOH     H1  645   1.465   2.205   2.487
  153HOH     H2  646   1.443   2.289   2.363
  154HOH      O  647   1.284   2.863   1.727
  154HOH     H1  648   1.308   2.949   1.759
  154HOH     H2  649   1.256   2.815   1.805
  155HOH      O  650   2.178   2.151   0.857
  155HOH     H1  651   2.119   2.127   0.785
  155HOH     H2  652   2.214   2.235   0.832
  156HOH      O  653   1.457   1.543   3.944
  156HOH     H1  654   1.546   1.514   3.925
  156HOH     H2  655   1.401   1.487   3.889
  157HOH      O  656   1.505   1.547   2.099
  157HOH     H1  657   1.539   1.627   2.139
  157HOH     H2  658   1.583   1.499   2.073
  158HOH      O  659   1.536   0.054   1.779
  158HOH     H1  660   1.625   0.020   1.790
  158HOH     H2  661   1.482  -0.024   1.765
  159HOH      O  662   2.744   3.587   1.338
  159HOH     H1  663   2.815   3.645   1.365
  159HOH     H2  664   2.775   3.546   1.258
  160HOH      O  665   3.048   1.333   2.104
  160HOH     H1  666   3.007   1.338   2.191
  160HOH     H2  667   3.066   1.240   2.091
  161HOH      O  668   2.709   3.944   1.237
  161HOH     H1  669   2.789   3.893   1.253
  161HOH     H2  670   2.725   4.028   1.279
  162HOH      O  671   0.864   1.502   0.039
  162HOH     H1  672   0.771   1.517   0.053
  162HOH     H2  673   0.902   1.499   0.127
  163HOH      O  674   0.692   1.441   3.662
  163HOH     H1  675   0.643   1.507   3.613
  163HOH     H2  676   0.678   1.360   3.613
  164HOH      O  677   0.117   2.199   3.780
  164HOH     H1  678   0.065   2.150   3.716
  164HOH     H2  679   0.163   2.265   3.727
  165HOH      O  680   0.173   2.886   2.523
  165HOH     H1  681   0.203   2.798   2.545
  165HOH     H2  682   0.168   2.887   2.427
  166HOH      O  683   0.337   1.919   2.621
  166HOH     H1  684   0.370   1.835   2.652
  166HOH     H2  685   0.365   1.925   2.530
  167HOH      O  686   0.939   4.025   3.948
  167HOH     H1  687   0.845   4.037   3.933
  167HOH     H2  688   0.950   3.932   3.966
  168HOH      O  689   2.176   1.788   2.136
  168HOH     H1  690   2.251   1.731   2.116
  168HOH     H2  691   2.132   1.744   2.209
  169HOH      O  692   3.733   3.968   2.082
  169HOH     H1  693   3.772   3.883   2.104
  169HOH     H2  694   3.670   3.948   2.014
  170HOH      O  695   2.005   2.742   0.122
  170HOH     H1  696   1.984   2.724   0.214
  170HOH     H2  697   2.100   2.733   0.118
  171HOH      O  698   2.824   2.315   3.772
  171HOH     H1  699   2.890   2.253   3.801
  171HOH     H2  700   2.775   2.269   3.704
  172HOH      O  701   2.118   3.799   3.343
  172HOH     H1  702   2.162   3.725   3.385
  172HOH     H2  703   2.104   3.862   3.414
  173HOH      O  704   0.309   0.624   0.179
  173HOH     H1  705   0.259   0.675   0.116
  173HOH     H2  706   0.275   0.535   0.171
  174HOH      O  707   1.728   2.994   1.761
  174HOH     H1  708   1.644   3.028   1.791
  174HOH     H2  709   1.790   3.019   1.830
  175HOH      O  710   3.375   2.313   0.349
  175HOH     H1  711   3.442   2.252   0.319
  175HOH     H2  712   3.365   2.294   0.442
  176HOH      O  713   2.587   0.310   3.237
  176HOH     H1  714   2.558   0.227   3.200
  176HOH     H2  715   2.566   0.375   3.170
  177HOH      O  716   1.464   0.670   1.869
  177HOH     H1  717   1.447   0.618   1.947
  177HOH     H2  718   1.552   0.645   1.841
  178HOH      O  719   1.359   1.714   1.033
  178HOH     H1  720   1.296   1.644   1.052
  178HOH     H2  721   1.352   1.727   0.939
  179HOH      O  722   2.740   2.417   2.581
  179HOH     H1  723   2.762   2.348   2.519
  179HOH     H2  724   2.654   2.393   2.615
  180HOH      O  725   2.944   1.997   2.635
  180HOH     H1  726   2.982   2.080   2.606
  180HOH     H2  727   2.878   2.022   2.700
  181HOH      O  728   0.285   0.440   1.768
  181HOH     H1  729   0.339   0.364   1.788
  181HOH     H2  730   0.249   0.467   1.853
  182HOH      O  731   1.611   1.452   0.878
  182HOH     H1  732   1.540   1.492   0.827
  182HOH     H2  733   1.616   1.362   0.847
  183HOH      O  734   2.581   3.167   1.824
  183HOH     H1  735   2.607   3.204   1.908
  183HOH     H2  736   2.517   3.228   1.789
  184HOH      O  737   0.563   1.736   3.016
  184HOH     H1  738   0.547   1.678   3.090
  184HOH     H2  739   0.653   1.767   3.028
  185HOH      O  740   2.336   2.307   3.250
  185HOH     H1  741   2.359   2.239   3.186
  185HOH     H2  742   2.354   2.389   3.204
  186HOH      O  743   1.667   0.753   0.414
  186HOH     H1  744   1.609   0.822   0.382
  186HOH     H2  745   1.624   0.720   0.493
  187HOH      O  746   2.161   3.367   1.860
  187HOH     H1  747   2.088   3.373   1.798
  187HOH     H2  748   2.135   3.424   1.932
  188HOH      O  749   3.136   0.388   1.728
  188HOH     H1  750   3.041   0.396   1.732
  188HOH     H2  751   3.155   0.366   1.636
  189HOH      O  752   1.701   2.664   2.515
  189HOH     H1  753   1.611   2.684   2.491
  189HOH     H2  754   1.694   2.604   2.589
  190HOH      O  755   2.332   0.138   2.318
  190HOH     H1  756   2.419   0.124   2.280
  190HOH     H2  757   2.277   0.070   2.277
  191HOH      O  758   0.675   3.347   3.161
  191HOH     H1  759   0.722   3.311   3.085
  191HOH     H2  760   0.588   3.307   3.156
  192HOH      O  761   0.786   2.478   3.018
  192HOH     H1  762   0.841   2.524   3.081
  192HOH     H2  763   0.818   2.505   2.933
  193HOH      O  764   0.131   2.309   1.994
  193HOH     H1  765   0.224   2.319   1.974
  193HOH     H2  766   0.087   2.331   1.912
  194HOH      O  767   3.754   1.542   2.706
  194HOH     H1  768   3.765   1.602   2.781
  194HOH     H2  769   3.843   1.520   2.680
  195HOH      O  770   2.138   0.766   2.272
  195HOH     H1  771   2.089   0.691   2.238
  195HOH     H2  772   2.071   0.823   2.311
  196HOH      O  773   3.420   3.116   3.900
  196HOH     H1  774   3.367   3.159   3.967
  196HOH     H2  775   3.363   3.048   3.865
  197HOH      O  776   2.642   3.272   2.509
  197HOH     H1  777   2.559   3.298   2.469
  197HOH     H2  778   2.618   3.203   2.570
  198HOH      O  779   0.962   3.379   1.681
  198HOH     H1  780   0.993   3.460   1.641
  198HOH     H2  781   1.020   3.311   1.646
  199HOH      O  782   0.224   0.823   2.542
  199HOH     H1  783   0.273   0.869   2.474
  199HOH     H2  784   0.224   0.883   2.616
  200HOH      O  785   0.459   3.460   3.983
  200HOH     H1  786   0.381   3.507   4.015
  200HOH     H2  787   0.424   3.378   3.948
  201HOH      O  788   1.092   3.166   0.947
  201HOH     H1  789   1.126   3.099   0.887
  201HOH     H2  790   1.135   3.247   0.920
  202HOH      O  791   0.224   0.116   2.665
  202HOH     H1  792   0.171   0.083   2.593
  202HOH     H2  793   0.267   0.194   2.629
  203HOH      O  794   3.438   2.136   3.683
  203HOH     H1  795   3.389   2.179   3.753
  203HOH     H2  796   3.404   2.047   3.681
  204HOH      O  797   2.890   3.439   0.137
  204HOH     H1  798   2.885   3.349   0.170
  204HOH     H2  799   2.978   3.468   0.160
  205HOH      O  800   1.511   2.857   0.313
  205HOH     H1  801   1.570   2.921   0.272
  205HOH     H2  802   1.446   2.838   0.246
  206HOH      O  803   3.254  -0.000   0.998
  206HOH     H1  804   3.194   0.016   1.071
  206HOH     H2  805   3.199   0.004   0.920
  207HOH      O  806   2.807   0.173   0.774
  207HOH     H1  807   2.839   0.262   0.766
  207HOH     H2  808   2.737   0.178   0.840
  208HOH      O  809   0.956   0.656   0.875
  208HOH     H1  810   0.871   0.682   0.909
  208HOH     H2  811   0.978   0.577   0.924
  209HOH      O  812   3.203   1.166   1.481
  209HOH     H1  813   3.169   1.186   1.568
  209HOH     H2  814   3.164   1.232   1.424
  210HOH      O  815   3.933   0.944   2.167
  210HOH     H1  816   3.881   0.870   2.197
  210HOH     H2  817   3.983   0.911   2.093
  211HOH      O  818   3.738   3.311   2.075
  211HOH     H1  819   3.761   3.395   2.036
  211HOH     H2  820   3.797   3.303   2.150
  212HOH      O  821   1.885   0.536   1.467
  212HOH     H1  822   1.799   0.513   1.501
  212HOH     H2  823   1.867   0.595   1.394
  213HOH      O  824   3.352   1.876   3.635
  213HOH     H1  825   3.360   1.901   3.543
  213HOH     H2  826   3.423   1.812   3.649
  214HOH      O  827   0.589   1.552   0.065
  214HOH     H1  828   0.545   1.469   0.047
  214HOH     H2  829   0.522   1.606   0.108
  215HOH      O  830   3.096   1.578   3.170
  215HOH     H1  831   3.145   1.573   3.252
  215HOH     H2  832   3.153   1.628   3.112
  216HOH      O  833   0.044   0.936   1.919
  216HOH     H1  834   0.010   0.883   1.847
  216HOH     H2  835   0.138   0.943   1.900
  217HOH      O  836   3.213   2.587   0.910
  217HOH     H1  837   3.160   2.585   0.830
  217HOH     H2  838   3.239   2.679   0.919
  218HOH      O  839   2.366   1.518   0.871
  218HOH     H1  840   2.378   1.528   0.965
  218HOH     H2  841   2.272   1.504   0.860
  219HOH      O  842   1.634   2.201   0.374
  219HOH     H1  843   1.642   2.264   0.303
  219HOH     H2  844   1.710   2.217   0.429
  220HOH      O  845   0.999   1.857   0.443
  220HOH     H1  846   0.991   1.952   0.443
  220HOH     H2  847   0.912   1.825   0.467
  221HOH      O  848   1.184   2.139   0.290
  221HOH     H1  849   1.136   2.095   0.220
  221HOH     H2  850   1.234   2.207   0.245
  222HOH      O  851   3.881   2.748   2.653
  222HOH     H1  852   3.886   2.744   2.558
  222HOH     H2  853   3.813   2.813   2.671
  223HOH      O  854   2.550   0.623   3.946
  223HOH     H1  855   2.576   0.554   4.007
  223HOH     H2  856   2.627   0.635   3.890
  224HOH      O  857   2.945   1.385   0.173
  224HOH     H1  858   2.886   1.314   0.198
  224HOH     H2  859   2.968   1.427   0.256
  225HOH      O  860   3.356   3.207   1.985
  225HOH     H1  861   3.292   3.247   1.926
  225HOH     H2  862   3.378   3.275   2.048
  226HOH      O  863   2.014   1.690   3.737
  226HOH     H1  864   2.059   1.722   3.815
  226HOH     H2  865   2.085   1.674   3.674
  227HOH      O  866   3.328   1.843   3.310
  227HOH     H1  867   3.317   1.755   3.345
  227HOH     H2  868   3.242   1.884   3.321
  228HOH      O  869   0.535   1.444   1.270
  228HOH     H1  870   0.567   1.435   1.180
  228HOH     H2  871   0.488   1.527   1.271
  229HOH      O  872   2.041   2.868   1.732
  229HOH     H1  873   2.025   2.947   1.680
  229HOH     H2  874   2.093   2.900   1.807
  230HOH      O  875   0.039   3.535   3.178
  230HOH     H1  876  -0.009   3.510   3.098
  230HOH     H2  877   0.121   3.487   3.173
  231HOH      O  878   2.489   2.508   0.749
  231HOH     H1  879   2.488   2.426   0.798
  231HOH     H2  880   2.519   2.483   0.661
  232HOH      O  881   0.976   2.694   2.365
  232HOH     H1  882   1.028   2.614   2.373
  232HOH     H2  883   0.891   2.664   2.334
  233HOH      O  884   2.725   3.373   0.408
  233HOH     H1  885   2.711   3.299   0.348
  233HOH     H2  886   2.820   3.381   0.416
  234HOH      O  887   3.074   2.022   1.072
  234HOH     H1  888   3.105   1.987   1.156
  234HOH     H2  889   3.010   2.089   1.097
  235HOH      O  890   1.082   2.943   1.555
  235HOH     H1  891   1.165   2.927   1.600
  235HOH     H2  892   1.029   2.866   1.576
  236HOH      O  893   1.559   0.382   2.243
  236HOH     H1  894   1.489   0.345   2.296
  236HOH     H2  895   1.639   0.358   2.289
  237HOH      O  896   1.246   0.571   1.091
  237HOH     H1  897   1.152   0.556   1.100
  237HOH     H2  898   1.284   0.483   1.085
  238HOH      O  899   3.989   2.785   1.727
  238HOH     H1  900   4.048   2.710   1.717
  238HOH     H2  901   4.025   2.852   1.670
  239HOH      O  902   1.330   1.535   2.761
  239HOH     H1  903   1.382   1.613   2.782
  239HOH     H2  904   1.317   1.539   2.666
  240HOH      O  905   0.807   0.129   0.191
  240HOH     H1  906   0.800   0.034   0.192
  240HOH     H2  907   0.721   0.160   0.218
  241HOH      O  908   0.736   3.000   2.203
  241HOH     H1  909   0.659   2.978   2.256
  241HOH     H2  910   0.729   2.944   2.126
  242HOH      O  911   0.146   3.713   2.599
  242HOH     H1  912   0.091   3.669   2.663
  242HOH     H2  913   0.228   3.731   2.645
  243HOH      O  914   1.579   2.814   1.253
  243HOH     H1  915   1.586   2.797   1.347
  243HOH     H2  916   1.524   2.743   1.220
  244HOH      O  917   3.068   0.563   0.617
  244HOH     H1  918   3.134   0.512   0.664
  244HOH     H2  919   3.103   0.653   0.617
  245HOH      O  920   3.397   2.925   3.598
  245HOH     H1  921   3.489   2.942   3.578
  245HOH     H2  922   3.400   2.870   3.677
  246HOH      O  923   1.508   0.619   0.601
  246HOH     H1  924   1.488   0.535   0.558
  246HOH     H2  925   1.422   0.654   0.625
  247HOH      O  926   1.604   0.350   1.620
  247HOH     H1  927   1.668   0.279   1.624
  247HOH     H2  928   1.624   0.404   1.696
  248HOH      O  929   3.749   3.759   0.280
  248HOH     H1  930   3.694   3.681   0.275
  248HOH     H2  931   3.822   3.742   0.220
  249HOH      O  932   3.176   2.778   1.579
  249HOH     H1  933   3.204   2.698   1.535
  249HOH     H2  934   3.082   2.784   1.559
  250HOH      O  935   0.199   0.383   0.175
  250HOH     H1  936   0.114   0.414   0.143
  250HOH     H2  937   0.205   0.293   0.144
  251HOH      O  938   2.890   1.370   1.057
  251HOH     H1  939   2.929   1.297   1.104
  251HOH     H2  940   2.899   1.445   1.117
  252HOH      O  941   1.772   3.411   0.547
  252HOH     H1  942   1.679   3.402   0.572
  252HOH     H2  943   1.806   3.478   0.606
  253HOH      O  944   2.457   1.472   2.321
  253HOH     H1  945   2.530   1.528   2.294
  253HOH     H2  946   2.471   1.390   2.274
  254HOH      O  947   1.012   3.435   0.511
  254HOH     H1  948   0.919   3.417   0.524
  254HOH     H2  949   1.041   3.364   0.453
  255HOH      O  950   0.212   1.193   0.374
  255HOH     H1  951   0.247   1.265   0.321
  255HOH     H2  952   0.256   1.115   0.341
  256HOH      O  953   0.762   4.021   2.262
  256HOH     H1  954   0.694   4.033   2.328
  256HOH     H2  955   0.724   3.961   2.198
  257HOH      O  956   0.599   0.663   1.870
  257HOH     H1  957   0.572   0.697   1.956
  257HOH     H2  958   0.521   0.619   1.836
  258HOH      O  959   1.800   1.146   0.531
  258HOH     H1  960   1.805   1.076   0.465
  258HOH     H2  961   1.714   1.185   0.518
  259HOH      O  962   1.712   2.144   0.891
  259HOH     H1  963   1.660   2.167   0.814
  259HOH     H2  964   1.746   2.227   0.923
  260HOH      O  965   1.652   0.768   1.363
  260HOH     H1  966   1.629   0.683   1.401
  260HOH     H2  967   1.580   0.787   1.303
  261HOH      O  968   2.648   0.221   2.181
  261HOH     H1  969   2.608   0.148   2.135
  261HOH     H2  970   2.741   0.197   2.187
  262HOH      O  971   1.999   1.733   3.001
  262HOH     H1  972   2.029   1.713   3.090
  262HOH     H2  973   2.079   1.746   2.951
  263HOH      O  974   2.522   1.009   2.441
  263HOH     H1  975   2.461   1.082   2.431
  263HOH     H2  976   2.607   1.046   2.420
  264HOH      O  977   1.898   3.772   0.559
  264HOH     H1  978   1.898   3.684   0.598
  264HOH     H2  979   1.809   3.804   0.573
  265HOH      O  980   0.057   1.120   1.315
  265HOH     H1  981   0.028   1.174   1.241
  265HOH     H2  982   0.017   1.035   1.299
  266HOH      O  983   1.418   3.818   1.839
  266HOH     H1  984   1.418   3.779   1.927
  266HOH     H2  985   1.325   3.829   1.818
  267HOH      O  986   0.962   0.340   0.839
  267HOH     H1  987   0.949   0.245   0.837
  267HOH     H2  988   0.923   0.372   0.758
  268HOH      O  989   0.483   1.410   2.075
  268HOH     H1  990   0.460   1.318   2.082
  268HOH     H2  991   0.576   1.410   2.050
  269HOH      O  992   1.730   3.878   3.638
  269HOH     H1  993   1.692   3.862   3.551
  269HOH     H2  994   1.663   3.928   3.685
  270HOH      O  995   1.664   1.730   3.995
  270HOH     H1  996   1.629   1.808   4.038
  270HOH     H2  997   1.599   1.662   4.010
  271HOH      O  998   3.375   1.367   1.330
  271HOH     H1  999   3.430   1.334   1.401
  271HOH     H2 1000   3.286   1.339   1.353
  272HOH      O 1001   2.343   1.743   2.961
  272HOH     H1 1002   2.436   1.739   2.939
  272HOH     H2 1003   2.303   1.674   2.909
  273HOH      O 1004   1.681   3.842   4.009
  273HOH     H1 1005   1.608   3.877   3.958
  273HOH     H2 1006   1.759   3.885   3.973
  274HOH      O 1007   3.959   0.868   1.662
  274HOH     H1 1008   3.972   0.963   1.664
  274HOH     H2 1009   4.032   0.835   1.609
  275HOH      O 1010   1.927   3.001   0.084
  275HOH     H1 1011   2.013   3.035   0.060
  275HOH     H2 1012   1.944   2.916   0.125
  276HOH      O 1013   3.623   3.449   0.008
  276HOH     H1 1014   3.552   3.501   0.046
  276HOH     H2 1015   3.697   3.509   0.005
  277HOH      O 1016   2.766   0.131   3.640
  277HOH     H1 1017   2.821   0.172   3.573
  277HOH     H2 1018   2.821   0.130   3.719
  278HOH      O 1019   1.361   2.970   1.377
  278HOH     H1 1020   1.369   2.950   1.284
  278HOH     H2 1021   1.375   2.886   1.421
  279HOH      O 1022   1.010   1.589   0.687
  279HOH     H1 1023   0.915   1.604   0.682
  279HOH     H2 1024   1.036   1.572   0.596
  280HOH      O 1025   0.248   3.026   2.907
  280HOH     H1 1026   0.218   2.946   2.950
  280HOH     H2 1027   0.343   3.017   2.902
  281HOH      O 1028   0.865   3.960   1.515
  281HOH     H1 1029   0.829   3.920   1.594
  281HOH     H2 1030   0.799   3.943   1.448
  282HOH      O 1031   0.825   3.234   2.350
  282HOH     H1 1032   0.875   3.288   2.289
  282HOH     H2 1033   0.804   3.155   2.300
  283HOH      O 1034   1.706   0.853   0.890
  283HOH     H1 1035   1.720   0.861   0.985
  283HOH     H2 1036   1.644   0.924   0.870
  284HOH      O 1037   1.010   0.098   1.930
  284HOH     H1 1038   0.937   0.048   1.894
  284HOH     H2 1039   1.029   0.164   1.864
  285HOH      O 1040   3.299   2.475   2.534
  285HOH     H1 1041   3.384   2.501   2.570
  285HOH     H2 1042   3.241   2.469   2.610
  286HOH      O 1043   0.219   0.979   0.709
  286HOH     H1 1044   0.144   0.962   0.652
  286HOH     H2 1045   0.208   1.071   0.735
  287HOH      O 1046   2.045   0.006   0.166
  287HOH     H1 1047   2.011   0.079   0.217
  287HOH     H2 1048   2.139   0.022   0.159
  288HOH      O 1049   3.248   0.605   2.091
  288HOH     H1 1050   3.286   0.690   2.115
  288HOH     H2 1051   3.218   0.618   2.001
  289HOH      O 1052   1.300   3.941   2.625
  289HOH     H1 1053   1.294   3.867   2.685
  289HOH     H2 1054   1.360   3.912   2.556
  290HOH      O 1055   1.933   3.286   3.618
  290HOH     H1 1056   1.854   3.241   3.588
  290HOH     H2 1057   2.004   3.225   3.599
  291HOH      O 1058   3.547   3.897   3.178
  291HOH     H1 1059   3.595   3.968   3.134
  291HOH     H2 1060   3.613   3.830   3.195
  292HOH      O 1061   2.154   3.747   1.431
  292HOH     H1 1062   2.150   3.652   1.433
  292HOH     H2 1063   2.247   3.767   1.418
  293HOH      O 1064   2.538   3.793   0.589
  293HOH     H1 1065   2.516   3.764   0.677
  293HOH     H2 1066   2.454   3.817   0.550
  294HOH      O 1067   3.683   2.427   2.439
  294HOH     H1 1068   3.725   2.452   2.522
  294HOH     H2 1069   3.681   2.332   2.441
  295HOH      O 1070   1.587   1.128   3.730
  295HOH     H1 1071   1.548   1.087   3.652
  295HOH     H2 1072   1.639   1.200   3.694
  296HOH      O 1073   1.541   2.011   1.604
  296HOH     H1 1074   1.472   1.962   1.559
  296HOH     H2 1075   1.622   1.982   1.561
  297HOH      O 1076   3.142   0.587   3.047
  297HOH     H1 1077   3.207   0.657   3.045
  297HOH     H2 1078   3.098   0.597   3.131
  298HOH      O 1079   0.330   1.077   3.737
  298HOH     H1 1080   0.416   1.114   3.756
  298HOH     H2 1081   0.289   1.141   3.679
  299HOH      O 1082   1.110   3.664   1.793
  299HOH     H1 1083   1.106   3.760   1.791
  299HOH     H2 1084   1.125   3.639   1.702
  300HOH      O 1085   1.102   3.114   2.850
  300HOH     H1 1086   1.031   3.100   2.788
  300HOH     H2 1087   1.182   3.105   2.798
  301HOH      O 1088   2.886   1.950   2.219
  301HOH     H1 1089   2.879   1.951   2.123
  301HOH     H2 1090   2.796   1.960   2.250
  302HOH      O 1091   1.327   2.847   0.122
  302HOH     H1 1092   1.291   2.936   0.125
  302HOH     H2 1093   1.295   2.811   0.039
  303HOH      O 1094   0.823   1.785   3.113
  303HOH     H1 1095   0.861   1.869   3.088
  303HOH     H2 1096   0.864   1.764   3.197
  304HOH      O 1097   1.537   1.676   2.897
  304HOH     H1 1098   1.528   1.732   2.974
  304HOH     H2 1099   1.613   1.621   2.916
  305HOH      O 1100   3.367   2.420   1.531
  305HOH     H1 1101   3.288   2.470   1.548
  305HOH     H2 1102   3.352   2.336   1.575
  306HOH      O 1103   0.443   2.904   1.794
  306HOH     H1 1104   0.427   2.981   1.739
  306HOH     H2 1105   0.360   2.887   1.838
  307HOH      O 1106   2.651   3.495   1.785
  307HOH     H1 1107   2.567   3.449   1.777
  307HOH     H2 1108   2.713   3.438   1.741
  308HOH      O 1109   0.166   3.528   2.008
  308HOH     H1 1110   0.114   3.601   1.976
  308HOH     H2 1111   0.151   3.528   2.103
  309HOH      O 1112   3.527   3.332   0.472
  309HOH     H1 1113   3.545   3.344   0.565
  309HOH     H2 1114   3.519   3.238   0.461
  310HOH      O 1115   1.653   3.477   2.214
  310HOH     H1 1116   1.606   3.433   2.285
  310HOH     H2 1117   1.643   3.570   2.232
  311HOH      O 1118   2.129   3.440   1.444
  311HOH     H1 1119   2.084   3.402   1.369
  311HOH     H2 1120   2.221   3.441   1.419
  312HOH      O 1121   0.299   1.153   1.670
  312HOH     H1 1122   0.322   1.063   1.651
  312HOH     H2 1123   0.344   1.204   1.603
  313HOH      O 1124   3.545   0.468   3.727
  313HOH     H1 1125   3.532   0.538   3.791
  313HOH     H2 1126   3.527   0.510   3.642
  314HOH      O 1127   0.873   2.998   3.191
  314HOH     H1 1128   0.836   2.942   3.123
  314HOH     H2 1129   0.846   2.957   3.274
  315HOH      O 1130   2.401   2.422   1.333
  315HOH     H1 1131   2.325   2.364   1.339
  315HOH     H2 1132   2.363   2.510   1.324
  316HOH      O 1133   2.980   1.075   3.740
  316HOH     H1 1134   3.073   1.065   3.759
  316HOH     H2 1135   2.969   1.167   3.718
  317HOH      O 1136   1.815   2.289   2.417
  317HOH     H1 1137   1.726   2.259   2.435
  317HOH     H2 1138   1.868   2.209   2.424
  318HOH      O 1139   3.286   1.748   0.833
  318HOH     H1 1140   3.308   1.832   0.874
  318HOH     H2 1141   3.198   1.729   0.864
  319HOH      O 1142   0.279   1.180   1.933
  319HOH     H1 1143   0.349   1.126   1.969
  319HOH     H2 1144   0.292   1.177   1.839
  320HOH      O 1145   2.324   3.964   0.537
  320HOH     H1 1146   2.290   3.995   0.453
  320HOH     H2 1147   2.250   3.971   0.597
  321HOH      O 1148   3.174   0.965   0.900
  321HOH     H1 1149   3.160   0.909   0.976
  321HOH     H2 1150   3.261   1.002   0.913
  322HOH      O 1151   1.701   3.457   3.719
  322HOH     H1 1152   1.764   3.528   3.729
  322HOH     H2 1153   1.628   3.497   3.670
  323HOH      O 1154   3.538   1.311   2.968
  323HOH     H1 1155   3.548   1.337   2.876
  323HOH     H2 1156   3.454   1.264   2.970
  324HOH      O 1157   2.938   2.733   3.817
  324HOH     H1 1158   2.884   2.793   3.766
  324HOH     H2 1159   2.875   2.673   3.858
  325HOH      O 1160   0.843   1.889   2.194
  325HOH     H1 1161   0.808   1.800   2.202
  325HOH     H2 1162   0.903   1.884   2.120
  326HOH      O 1163  -0.005   1.793   0.101
  326HOH     H1 1164  -0.017   1.887   0.091
  326HOH     H2 1165   0.061   1.784   0.169
  327HOH      O 1166   4.018   3.334   0.103
  327HOH     H1 1167   3.979   3.266   0.048
  327HOH     H2 1168   3.958   3.343   0.177
  328HOH      O 1169   0.348   0.784   2.881
  328HOH     H1 1170   0.401   0.731   2.821
  328HOH     H2 1171   0.281   0.724   2.913
  329HOH      O 1172   1.878   3.770   1.571
  329HOH     H1 1173   1.835   3.685   1.580
  329HOH     H2 1174   1.969   3.749   1.548
  330HOH      O 1175   0.761   1.119   2.092
  330HOH     H1 1176   0.742   1.119   2.186
  330HOH     H2 1177   0.834   1.058   2.082
  331HOH      O 1178  -0.000   1.186   3.394
  331HOH     H1 1179   0.083   1.224   3.422
  331HOH     H2 1180   0.024   1.100   3.357
  332HOH      O 1181  -0.012   3.300   2.212
  332HOH     H1 1182   0.039   3.223   2.238
  332HOH     H2 1183   0.043   3.374   2.237
  333HOH      O 1184   0.105   0.673   1.551
  333HOH     H1 1185   0.110   0.719   1.468
  333HOH     H2 1186   0.192   0.636   1.563
  334HOH      O 1187   0.011   1.417   2.756
  334HOH     H1 1188   0.030   1.342   2.814
  334HOH     H2 1189   0.083   1.478   2.772
  335HOH      O 1190   0.747   0.399   0.399
  335HOH     H1 1191   0.736   0.446   0.481
  335HOH     H2 1192   0.820   0.443   0.355
  336HOH      O 1193   0.596   1.459   2.531
  336HOH     H1 1194   0.534   1.466   2.603
  336HOH     H2 1195   0.556   1.510   2.460
  337HOH      O 1196   1.139   2.560   3.049
  337HOH     H1 1197   1.106   2.569   2.960
  337HOH     H2 1198   1.076   2.501   3.092
  338HOH      O 1199   3.316   1.000   1.708
  338HOH     H1 1200   3.288   1.041   1.626
  338HOH     H2 1201   3.410   1.014   1.710
  339HOH      O 1202   0.541   1.891   3.405
  339HOH     H1 1203   0.475   1.959   3.391
  339HOH     H2 1204   0.561   1.896   3.498
  340HOH      O 1205   2.016   3.778   0.307
  340HOH     H1 1206   1.966   3.780   0.389
  340HOH     H2 1207   2.032   3.869   0.285
  341HOH      O 1208   3.326   3.473   2.372
  341HOH     H1 1209   3.361   3.562   2.370
  341HOH     H2 1210   3.231   3.485   2.374
  342HOH      O 1211   3.220   3.954   2.027
  342HOH     H1 1212   3.222   3.891   1.955
  342HOH     H2 1213   3.128   3.958   2.053
  343HOH      O 1214   0.569   3.604   0.377
  343HOH     H1 1215   0.621   3.683   0.364
  343HOH     H2 1216   0.629   3.542   0.418
  344HOH      O 1217   3.680   0.764   2.601
  344HOH     H1 1218   3.745   0.770   2.530
  344HOH     H2 1219   3.600   0.798   2.562
  345HOH      O 1220   2.207   2.173   3.525
  345HOH     H1 1221   2.119   2.204   3.546
  345HOH     H2 1222   2.222   2.202   3.435
  346HOH      O 1223   1.499   1.976   1.099
  346HOH     H1 1224   1.532   1.975   1.010
  346HOH     H2 1225   1.439   1.901   1.104
  347HOH      O 1226   3.053   1.040   0.517
  347HOH     H1 1227   3.078   1.132   0.518
  347HOH     H2 1228   3.122   0.996   0.568
  348HOH      O 1229   2.554   0.264   3.531
  348HOH     H1 1230   2.630   0.211   3.553
  348HOH     H2 1231   2.557   0.272   3.436
  349HOH      O 1232   3.289   0.666   3.285
  349HOH     H1 1233   3.373   0.674   3.240
  349HOH     H2 1234   3.273   0.572   3.288
  350HOH      O 1235   2.388   2.986   0.058
  350HOH     H1 1236   2.306   2.986   0.009
  350HOH     H2 1237   2.372   3.043   0.132
  351HOH      O 1238   3.166   1.818   2.543
  351HOH     H1 1239   3.191   1.833   2.453
  351HOH     H2 1240   3.117   1.896   2.568
  352HOH      O 1241   1.783   3.027   3.894
  352HOH     H1 1242   1.735   3.110   3.897
  352HOH     H2 1243   1.840   3.030   3.971
  353HOH      O 1244   3.330   1.993   2.987
  353HOH     H1 1245   3.277   2.040   3.052
  353HOH     H2 1246   3.295   1.903   2.988
  354HOH      O 1247   1.249   0.720   0.617
  354HOH     H1 1248   1.263   0.716   0.522
  354HOH     H2 1249   1.156   0.736   0.626
  355HOH      O 1250   0.252   2.423   0.321
  355HOH     H1 1251   0.211   2.439   0.236
  355HOH     H2 1252   0.190   2.458   0.385
  356HOH      O 1253   3.358   2.850   1.243
  356HOH     H1 1254   3.436   2.873   1.193
  356HOH     H2 1255   3.355   2.915   1.313
  357HOH      O 1256   1.423   1.761   1.556
  357HOH     H1 1257   1.403   1.667   1.548
  357HOH     H2 1258   1.348   1.805   1.517
  358HOH      O 1259   0.998   3.955   2.964
  358HOH     H1 1260   0.912   3.938   3.002
  358HOH     H2 1261   1.046   4.004   3.031
  359HOH      O 1262   0.871   2.190   1.637
  359HOH     H1 1263   0.809   2.117   1.627
  359HOH     H2 1264   0.820   2.268   1.616
  360HOH      O 1265   4.052   0.592   2.174
  360HOH     H1 1266   3.962   0.623   2.160
  360HOH     H2 1267   4.064   0.525   2.106
  361HOH      O 1268   3.671   2.343   0.456
  361HOH     H1 1269   3.660   2.293   0.375
  361HOH     H2 1270   3.644   2.282   0.525
  362HOH      O 1271   1.840   1.516   0.321
  362HOH     H1 1272   1.784   1.535   0.397
  362HOH     H2 1273   1.780   1.521   0.246
  363HOH      O 1274   1.873   1.179   2.811
  363HOH     H1 1275   1.788   1.144   2.783
  363HOH     H2 1276   1.854   1.223   2.894
  364HOH      O 1277   1.922   2.678   0.921
  364HOH     H1 1278   1.839   2.714   0.953
  364HOH     H2 1279   1.944   2.732   0.845
  365HOH      O 1280   0.469   0.628   2.678
  365HOH     H1 1281   0.477   0.701   2.618
  365HOH     H2 1282   0.428   0.559   2.627
  366HOH      O 1283   1.996   2.927   3.753
  366HOH     H1 1284   1.964   2.868   3.685
  366HOH     H2 1285   1.919   2.947   3.807
  367HOH      O 1286   1.959   2.147   0.651
  367HOH     H1 1287   1.864   2.153   0.666
  367HOH     H2 1288   1.974   2.203   0.575
  368HOH      O 1289   1.247   1.160   2.331
  368HOH     H1 1290   1.327   1.187   2.285
  368HOH     H2 1291   1.247   1.212   2.411
  369HOH      O 1292   2.632   3.457   1.063
  369HOH     H1 1293   2.705   3.517   1.081
  369HOH     H2 1294   2.662   3.405   0.988
  370HOH      O 1295   0.938   1.286   3.685
  370HOH     H1 1296   0.869   1.351   3.668
  370HOH     H2 1297   0.968   1.260   3.598
  371HOH      O 1298   3.760   1.827   2.617
  371HOH     H1 1299   3.753   1.736   2.645
  371HOH     H2 1300   3.808   1.823   2.534
  372HOH      O 1301   1.893   2.784   3.546
  372HOH     H1 1302   1.931   2.697   3.560
  372HOH     H2 1303   1.854   2.779   3.459
  373HOH      O 1304   2.060   1.881   3.482
  373HOH     H1 1305   2.109   1.805   3.511
  373HOH     H2 1306   2.127   1.941   3.448
  374HOH      O 1307   0.694   3.840   0.415
  374HOH     H1 1308   0.638   3.917   0.409
  374HOH     H2 1309   0.762   3.854   0.350
  375HOH      O 1310   0.228   3.085   0.406
  375HOH     H1 1311   0.294   3.105   0.471
  375HOH     H2 1312   0.268   3.110   0.322
  376HOH      O 1313   1.279   2.498   0.762
  376HOH     H1 1314   1.229   2.510   0.681
  376HOH     H2 1315   1.238   2.423   0.805
  377HOH      O 1316   2.140   1.995   0.060
  377HOH     H1 1317   2.060   1.947   0.037
  377HOH     H2 1318   2.128   2.081   0.021
  378HOH      O 1319   1.079   0.046   3.192
  378HOH     H1 1320   1.103   0.138   3.199
  378HOH     H2 1321   1.011   0.033   3.259
  379HOH      O 1322   3.146   1.925   3.790
  379HOH     H1 1323   3.198   1.936   3.870
  379HOH     H2 1324   3.210   1.919   3.720
  380HOH      O 1325   1.827   0.257   0.056
  380HOH     H1 1326   1.887   0.252  -0.018
  380HOH     H2 1327   1.754   0.310   0.024
  381HOH      O 1328   1.420   1.806   3.856
  381HOH     H1 1329   1.376   1.799   3.771
  381HOH     H2 1330   1.431   1.716   3.885
  382HOH      O 1331   0.785   1.130   1.279
  382HOH     H1 1332   0.699   1.090   1.269
  382HOH     H2 1333   0.846   1.057   1.279
  383HOH      O 1334   1.219   2.077   0.698
  383HOH     H1 1335   1.314   2.062   0.695
  383HOH     H2 1336   1.183   1.993   0.726
  384HOH      O 1337   2.263   1.207   3.544
  384HOH     H1 1338   2.213   1.125   3.547
  384HOH     H2 1339   2.341   1.189   3.596
  385HOH      O 1340   3.581   1.144   2.488
  385HOH     H1 1341   3.639   1.115   2.558
  385HOH     H2 1342   3.588   1.239   2.487
  386HOH      O 1343   3.335   2.704   3.205
  386HOH     H1 1344   3.274   2.656   3.262
  386HOH     H2 1345   3.415   2.712   3.256
  387HOH      O 1346   0.991   0.848   3.133
  387HOH     H1 1347   0.993   0.780   3.200
  387HOH     H2 1348   0.910   0.897   3.151
  388HOH      O 1349   2.240   3.620   3.891
  388HOH     H1 1350   2.299   3.547   3.873
  388HOH     H2 1351   2.153   3.585   3.877
  389HOH      O 1352   0.665   0.312   2.201
  389HOH     H1 1353   0.569   0.317   2.194
  389HOH     H2 1354   0.695   0.297   2.112
  390HOH      O 1355   1.999   1.423   0.723
  390HOH     H1 1356   2.083   1.389   0.691
  390HOH     H2 1357   1.960   1.351   0.773
  391HOH      O 1358   2.085   3.312   0.852
  391HOH     H1 1359   2.028   3.236   0.861
  391HOH     H2 1360   2.030   3.386   0.879
  392HOH      O 1361   0.108   2.091   0.809
  392HOH     H1 1362   0.145   2.057   0.891
  392HOH     H2 1363   0.038   2.150   0.837
  393HOH      O 1364   3.864   0.504   0.360
  393HOH     H1 1365   3.848   0.456   0.278
  393HOH     H2 1366   3.925   0.449   0.408
  394HOH      O 1367   0.849   0.207   3.494
  394HOH     H1 1368   0.838   0.121   3.454
  394HOH     H2 1369   0.913   0.193   3.564
  395HOH      O 1370   0.128   0.139   1.990
  395HOH     H1 1371   0.136   0.053   2.030
  395HOH     H2 1372   0.061   0.128   1.922
  396HOH      O 1373   2.237   1.662   3.926
  396HOH     H1 1374   2.244   1.630   4.016
  396HOH     H2 1375   2.314   1.717   3.914
  397HOH      O 1376   1.867   1.478   2.235
  397HOH     H1 1377   1.816   1.424   2.174
  397HOH     H2 1378   1.846   1.442   2.321
  398HOH      O 1379   1.442   0.335   2.525
  398HOH     H1 1380   1.354   0.360   2.494
  398HOH     H2 1381   1.461   0.398   2.594
  399HOH      O 1382   1.159   2.623   1.083
  399HOH     H1 1383   1.148   2.677   1.161
  399HOH     H2 1384   1.118   2.673   1.013
  400HOH      O 1385   3.028   3.512   3.033
  400HOH     H1 1386   2.998   3.544   3.117
  400HOH     H2 1387   2.991   3.424   3.026
  401HOH      O 1388   1.148   2.030   1.980
  401HOH     H1 1389   1.225   2.070   2.019
  401HOH     H2 1390   1.086   2.102   1.968
  402HOH      O 1391   3.654   0.563   1.159
  402HOH     H1 1392   3.708   0.624   1.209
  402HOH     H2 1393   3.703   0.481   1.159
  403HOH      O 1394   1.757   3.036   0.690
  403HOH     H1 1395   1.692   3.107   0.691
  403HOH     H2 1396   1.822   3.063   0.756
  404HOH      O 1397   0.937   3.755   3.985
  404HOH     H1 1398   0.915   3.672   4.027
  404HOH     H2 1399   0.936   3.736   3.891
  405HOH      O 1400   3.545   0.062   1.810
  405HOH     H1 1401   3.565   0.139   1.756
  405HOH     H2 1402   3.518  -0.005   1.748
  406HOH      O 1403   3.070   1.451   1.869
  406HOH     H1 1404   3.077   1.369   1.821
  406HOH     H2 1405   3.070   1.425   1.961
  407HOH      O 1406   1.076   1.818   0.810
  407HOH     H1 1407   1.085   1.790   0.901
  407HOH     H2 1408   1.056   1.738   0.762
  408HOH      O 1409   2.741   2.546   3.855
  408HOH     H1 1410   2.676   2.561   3.787
  408HOH     H2 1411   2.784   2.464   3.831
  409HOH      O 1412   2.453   0.665   1.723
  409HOH     H1 1413   2.497   0.653   1.807
  409HOH     H2 1414   2.392   0.738   1.739
  410HOH      O 1415   3.727   2.242   3.090
  410HOH     H1 1416   3.764   2.310   3.147
  410HOH     H2 1417   3.641   2.223   3.128
  411HOH      O 1418   2.938   1.796   0.527
  411HOH     H1 1419   2.972   1.810   0.439
  411HOH     H2 1420   2.855   1.748   0.513
  412HOH      O 1421   2.883   3.555   1.076
  412HOH     H1 1422   2.902   3.647   1.057
  412HOH     H2 1423   2.967   3.510   1.064
  413HOH      O 1424   2.640   0.936   3.342
  413HOH     H1 1425   2.599   1.021   3.360
  413HOH     H2 1426   2.714   0.932   3.403
  414HOH      O 1427   0.270   3.362   3.172
  414HOH     H1 1428   0.324   3.437   3.199
  414HOH     H2 1429   0.331   3.304   3.127
  415HOH      O 1430   2.605   3.077   1.161
  415HOH     H1 1431   2.622   2.983   1.175
  415HOH     H2 1432   2.517   3.080   1.125
  416HOH      O 1433   3.895   1.607   3.159
  416HOH     H1 1434   3.832   1.542   3.191
  416HOH     H2 1435   3.981   1.569   3.179
  417HOH      O 1436   2.036   0.813   3.878
  417HOH     H1 1437   1.994   0.750   3.935
  417HOH     H2 1438   2.072   0.880   3.937
  418HOH      O 1439   0.047   1.647   2.146
  418HOH     H1 1440  -0.028   1.588   2.147
  418HOH     H2 1441   0.109   1.606   2.085
  419HOH      O 1442   1.385   0.142   0.172
  419HOH     H1 1443   1.327   0.217   0.158
  419HOH     H2 1444   1.325   0.067   0.180
  420HOH      O 1445   0.188   2.920   3.989
  420HOH     H1 1446   0.142   2.906   3.906
  420HOH     H2 1447   0.123   2.897   4.056
  421HOH      O 1448   2.926   0.628   2.561
  421HOH     H1 1449   2.935   0.596   2.471
  421HOH     H2 1450   2.831   0.635   2.574
  422HOH      O 1451   2.490   1.972   1.934
  422HOH     H1 1452   2.438   1.951   1.856
  422HOH     H2 1453   2.571   2.010   1.899
  423HOH      O 1454   2.219   0.224   3.099
  423HOH     H1 1455   2.194   0.249   3.188
  423HOH     H2 1456   2.219   0.129   3.100
  424HOH      O 1457   0.292   2.611   2.534
  424HOH     H1 1458   0.370   2.599   2.589
  424HOH     H2 1459   0.261   2.522   2.517
  425HOH      O 1460   1.694   0.043   3.192
  425HOH     H1 1461   1.706   0.116   3.132
  425HOH     H2 1462   1.707   0.080   3.279
  426HOH      O 1463   1.161   1.651   3.057
  426HOH     H1 1464   1.103   1.590   3.102
  426HOH     H2 1465   1.247   1.610   3.062
  427HOH      O 1466   3.039   1.767   1.004
  427HOH     H1 1467   2.995   1.746   0.922
  427HOH     H2 1468   3.038   1.863   1.008
  428HOH      O 1469   0.509   1.083   1.247
  428HOH     H1 1470   0.447   1.016   1.277
  428HOH     H2 1471   0.516   1.068   1.153
  429HOH      O 1472   1.224   1.915   2.671
  429HOH     H1 1473   1.171   1.854   2.619
  429HOH     H2 1474   1.188   1.907   2.760
  430HOH      O 1475   0.268   1.225   2.213
  430HOH     H1 1476   0.185   1.195   2.251
  430HOH     H2 1477   0.248   1.241   2.120
  431HOH      O 1478   3.340   3.453   2.849
  431HOH     H1 1479   3.271   3.458   2.782
  431HOH     H2 1480   3.343   3.542   2.886
  432HOH      O 1481   1.279   2.542   2.580
  432HOH     H1 1482   1.299   2.449   2.580
  432HOH     H2 1483   1.342   2.580   2.518
  433HOH      O 1484   0.806   3.628   2.784
  433HOH     H1 1485   0.895   3.602   2.806
  433HOH     H2 1486   0.813   3.664   2.695
  434HOH      O 1487   2.715   1.955   0.164
  434HOH     H1 1488   2.626   1.978   0.138
  434HOH     H2 1489   2.733   2.011   0.239
  435HOH      O 1490   3.312   0.580   1.505
  435HOH     H1 1491   3.253   0.641   1.460
  435HOH     H2 1492   3.276   0.493   1.486
  436HOH      O 1493   3.557   3.163   2.673
  436HOH     H1 1494   3.476   3.154   2.723
  436HOH     H2 1495   3.529   3.192   2.587
  437HOH      O 1496   1.117   0.270   1.246
  437HOH     H1 1497   1.050   0.246   1.310
  437HOH     H2 1498   1.134   0.190   1.198
  438HOH      O 1499   1.068   0.254   1.716
  438HOH     H1 1500   1.042   0.253   1.624
  438HOH     H2 1501   1.139   0.317   1.720
  439HOH      O 1502   3.278   0.770   2.598
  439HOH     H1 1503   3.350   0.809   2.549
  439HOH     H2 1504   3.298   0.677   2.602
  440HOH      O 1505   2.033   2.991   1.129
  440HOH     H1 1506   1.946   2.953   1.119
  440HOH     H2 1507   2.077   2.935   1.193
  441HOH      O 1508   1.776   1.564   2.967
  441HOH     H1 1509   1.809   1.474   2.969
  441HOH     H2 1510   1.855   1.619   2.969
  442HOH      O 1511   3.816   2.141   1.575
  442HOH     H1 1512   3.762   2.100   1.642
  442HOH     H2 1513   3.798   2.235   1.585
  443HOH      O 1514   1.509   1.167   1.946
  443HOH     H1 1515   1.476   1.080   1.923
  443HOH     H2 1516   1.466   1.226   1.885
  444HOH      O 1517   2.888   3.750   3.536
  444HOH     H1 1518   2.861   3.797   3.616
  444HOH     H2 1519   2.951   3.809   3.494
  445HOH      O 1520   2.795   1.461   2.731
  445HOH     H1 1521   2.853   1.518   2.782
  445HOH     H2 1522   2.738   1.521   2.683
  446HOH      O 1523   3.410   1.982   1.951
  446HOH     H1 1524   3.427   1.890   1.973
  446HOH     H2 1525   3.377   1.979   1.861
  447HOH      O 1526   2.964   0.836   3.172
  447HOH     H1 1527   3.023   0.891   3.223
  447HOH     H2 1528   2.910   0.791   3.238
  448HOH      O 1529   2.850   0.907   0.375
  448HOH     H1 1530   2.912   0.968   0.414
  448HOH     H2 1531   2.787   0.890   0.445
  449HOH      O 1532   1.499   1.718   0.404
  449HOH     H1 1533   1.479   1.665   0.480
  449HOH     H2 1534   1.437   1.791   0.408
  450HOH      O 1535   1.312   3.425   0.294
  450HOH     H1 1536   1.279   3.480   0.223
  450HOH     H2 1537   1.250   3.352   0.298
  451HOH      O 1538   0.680   0.825   1.634
  451HOH     H1 1539   0.624   0.774   1.692
  451HOH     H2 1540   0.621   0.853   1.563
  452HOH      O 1541   3.743   2.388   1.635
  452HOH     H1 1542   3.672   2.396   1.699
  452HOH     H2 1543   3.718   2.447   1.564
  453HOH      O 1544   1.548   0.554   2.648
  453HOH     H1 1545   1.597   0.610   2.709
  453HOH     H2 1546   1.542   0.605   2.568
  454HOH      O 1547   3.230   0.058   3.702
  454HOH     H1 1548   3.210   0.003   3.778
  454HOH     H2 1549   3.325   0.064   3.700
  455HOH      O 1550   0.557   0.044   3.267
  455HOH     H1 1551   0.519   0.068   3.183
  455HOH     H2 1552   0.538   0.119   3.324
  456HOH      O 1553   2.274   0.535   2.417
  456HOH     H1 1554   2.282   0.499   2.329
  456HOH     H2 1555   2.351   0.590   2.428
  457HOH      O 1556   1.380   0.940   1.899
  457HOH     H1 1557   1.433   0.865   1.925
  457HOH     H2 1558   1.301   0.902   1.862
  458HOH      O 1559   1.333   3.540   2.319
  458HOH     H1 1560   1.417   3.496   2.332
  458HOH     H2 1561   1.297   3.548   2.407
  459HOH      O 1562   1.847   0.322   3.228
  459HOH     H1 1563   1.846   0.279   3.142
  459HOH     H2 1564   1.816   0.254   3.288
  460HOH      O 1565   2.390   2.765   2.167
  460HOH     H1 1566   2.401   2.670   2.171
  460HOH     H2 1567   2.477   2.799   2.189
  461HOH      O 1568   1.415   3.665   1.173
  461HOH     H1 1569   1.478   3.609   1.128
  461HOH     H2 1570   1.330   3.625   1.155
  462HOH      O 1571   3.341   2.167   1.654
  462HOH     H1 1572   3.319   2.214   1.735
  462HOH     H2 1573   3.275   2.099   1.646
  463HOH      O 1574   0.612   2.425   0.580
  463HOH     H1 1575   0.575   2.507   0.615
  463HOH     H2 1576   0.548   2.358   0.604
  464HOH      O 1577   2.822   1.507   3.120
  464HOH     H1 1578   2.826   1.412   3.124
  464HOH     H2 1579   2.910   1.536   3.145
  465HOH      O 1580   0.468   2.676   2.783
  465HOH     H1 1581   0.499   2.609   2.844
  465HOH     H2 1582   0.377   2.690   2.807
  466HOH      O 1583   1.437   2.580   0.474
  466HOH     H1 1584   1.508   2.645   0.472
  466HOH     H2 1585   1.376   2.613   0.539
  467HOH      O 1586   3.120   1.613   3.732
  467HOH     H1 1587   3.134   1.565   3.814
  467HOH     H2 1588   3.114   1.705   3.759
  468HOH      O 1589   0.778   3.257   2.913
  468HOH     H1 1590   0.788   3.181   2.855
  468HOH     H2 1591   0.838   3.323   2.877
  469HOH      O 1592   1.632   1.260   0.187
  469HOH     H1 1593   1.630   1.346   0.144
  469HOH     H2 1594   1.623   1.280   0.280
  470HOH      O 1595   2.827   3.626   4.002
  470HOH     H1 1596   2.845   3.552   4.060
  470HOH     H2 1597   2.761   3.593   3.941
  471HOH      O 1598   0.402   1.061   2.987
  471HOH     H1 1599   0.363   1.008   3.057
  471HOH     H2 1600   0.429   0.998   2.921
  472HOH      O 1601   0.172   1.227   0.802
  472HOH     H1 1602   0.249   1.223   0.858
  472HOH     H2 1603   0.187   1.302   0.745
  473HOH      O 1604   2.039   2.869   3.073
  473HOH     H1 1605   2.009   2.932   3.007
  473HOH     H2 1606   2.060   2.791   3.023
  474HOH      O 1607   3.889   1.442   2.145
  474HOH     H1 1608   3.806   1.398   2.127
  474HOH     H2 1609   3.956   1.378   2.120
  475HOH      O 1610   3.963   1.557   0.361
  475HOH     H1 1611   3.887   1.523   0.313
  475HOH     H2 1612   3.965   1.506   0.442
  476HOH      O 1613   0.548   2.402   1.698
  476HOH     H1 1614   0.543   2.351   1.617
  476HOH     H2 1615   0.544   2.336   1.768
  477HOH      O 1616   1.001   1.847   1.152
  477HOH     H1 1617   1.030   1.929   1.191
  477HOH     H2 1618   0.919   1.869   1.108
  478HOH      O 1619   4.007   0.196   3.998
  478HOH     H1 1620   4.013   0.105   4.027
  478HOH     H2 1621   3.917   0.205   3.966
  479HOH      O 1622   2.732   2.911   1.851
  479HOH     H1 1623   2.671   2.982   1.831
  479HOH     H2 1624   2.807   2.954   1.891
  480HOH      O 1625   1.411   0.765   3.445
  480HOH     H1 1626   1.470   0.755   3.371
  480HOH     H2 1627   1.334   0.714   3.422
  481HOH      O 1628   2.763   0.965   3.579
  481HOH     H1 1629   2.828   1.008   3.634
  481HOH     H2 1630   2.720   0.902   3.637
  482HOH      O 1631   0.041   2.753   1.382
  482HOH     H1 1632   0.071   2.766   1.292
  482HOH     H2 1633  -0.016   2.828   1.400
  483HOH      O 1634   1.122   0.078   1.068
  483HOH     H1 1635   1.179   0.008   1.099
  483HOH     H2 1636   1.120   0.066   0.973
  484HOH      O 1637   1.156   0.289   2.756
  484HOH     H1 1638   1.170   0.241   2.674
  484HOH     H2 1639   1.063   0.275   2.776
  485HOH      O 1640   0.296   0.943   3.205
  485HOH     H1 1641   0.200   0.940   3.212
  485HOH     H2 1642   0.323   0.852   3.213
  486HOH      O 1643   0.336   1.481   3.167
  486HOH     H1 1644   0.390   1.526   3.232
  486HOH     H2 1645   0.387   1.403   3.144
  487HOH      O 1646   2.892   2.825   3.325
  487HOH     H1 1647   2.851   2.896   3.274
  487HOH     H2 1648   2.906   2.864   3.411
  488HOH      O 1649   2.428   0.415   1.211
  488HOH     H1 1650   2.491   0.445   1.146
  488HOH     H2 1651   2.460   0.451   1.294
  489HOH      O 1652   0.002   1.898   2.049
  489HOH     H1 1653   0.053   1.958   2.105
  489HOH     H2 1654   0.031   1.811   2.076
  490HOH      O 1655   0.835   0.598   1.259
  490HOH     H1 1656   0.817   0.690   1.238
  490HOH     H2 1657   0.888   0.567   1.186
  491HOH      O 1658   1.686   3.054   0.205
  491HOH     H1 1659   1.780   3.047   0.188
  491HOH     H2 1660   1.667   3.147   0.197
  492HOH      O 1661   3.211   2.308   1.850
  492HOH     H1 1662   3.247   2.387   1.890
  492HOH     H2 1663   3.157   2.341   1.777
  493HOH      O 1664   3.286   0.067   2.926
  493HOH     H1 1665   3.215   0.042   2.985
  493HOH     H2 1666   3.360   0.084   2.983
  494HOH      O 1667   1.004   1.199   1.760
  494HOH     H1 1668   1.033   1.213   1.669
  494HOH     H2 1669   1.082   1.216   1.813
  495HOH      O 1670   0.759   1.209   2.385
  495HOH     H1 1671   0.809   1.283   2.419
  495HOH     H2 1672   0.677   1.210   2.435
  496HOH      O 1673   2.883   2.683   2.035
  496HOH     H1 1674   2.957   2.716   1.983
  496HOH     H2 1675   2.842   2.762   2.070
  497HOH      O 1676   0.044   3.814   2.253
  497HOH     H1 1677  -0.021   3.778   2.192
  497HOH     H2 1678   0.123   3.824   2.200
  498HOH      O 1679   1.819   0.642   2.344
  498HOH     H1 1680   1.834   0.711   2.279
  498HOH     H2 1681   1.741   0.671   2.392
  499HOH      O 1682   2.864   1.051   0.116
  499HOH     H1 1683   2.820   1.109   0.179
  499HOH     H2 1684   2.886   0.973   0.166
  500HOH      O 1685   1.386   2.221   0.993
  500HOH     H1 1686   1.413   2.146   1.046
  500HOH     H2 1687   1.461   2.238   0.936
  501HOH      O 1688   3.483   1.523   3.147
  501HOH     H1 1689   3.480   1.466   3.069
  501HOH     H2 1690   3.564   1.499   3.190
  502HOH      O 1691   0.662   2.623   1.330
  502HOH     H1 1692   0.660   2.704   1.381
  502HOH     H2 1693   0.577   2.621   1.284
  503HOH      O 1694   0.169   1.929   3.154
  503HOH     H1 1695   0.258   1.914   3.122
  503HOH     H2 1696   0.113   1.896   3.084
  504HOH      O 1697   1.231   0.466   1.813
  504HOH     H1 1698   1.273   0.417   1.884
  504HOH     H2 1699   1.173   0.528   1.857
  505HOH      O 1700   3.326   2.006   0.941
  505HOH     H1 1701   3.244   2.031   0.981
  505HOH     H2 1702   3.393   2.051   0.992
  506HOH      O 1703   1.346   0.353   2.041
  506HOH     H1 1704   1.430   0.320   2.010
  506HOH     H2 1705   1.369   0.431   2.093
  507HOH      O 1706   3.262   1.116   2.095
  507HOH     H1 1707   3.278   1.108   2.189
  507HOH     H2 1708   3.199   1.045   2.076
  508HOH      O 1709   0.031   0.407   1.956
  508HOH     H1 1710  -0.002   0.412   1.867
  508HOH     H2 1711   0.050   0.314   1.970
  509HOH      O 1712   3.732   1.401   3.247
  509HOH     H1 1713   3.781   1.388   3.328
  509HOH     H2 1714   3.692   1.316   3.229
  510HOH      O 1715   2.197   0.906   3.032
  510HOH     H1 1716   2.248   0.961   2.972
  510HOH     H2 1717   2.162   0.837   2.977
  511HOH      O 1718   0.685   3.341   1.581
  511HOH     H1 1719   0.768   3.335   1.628
  511HOH     H2 1720   0.708   3.382   1.497
  512HOH      O 1721   2.922   3.489   3.307
  512HOH     H1 1722   2.971   3.534   3.376
  512HOH     H2 1723   2.847   3.449   3.352
  513HOH      O 1724   1.788   2.786   3.285
  513HOH     H1 1725   1.699   2.781   3.249
  513HOH     H2 1726   1.826   2.862   3.242
  514HOH      O 1727   3.440   1.448   0.103
  514HOH     H1 1728   3.387   1.369   0.107
  514HOH     H2 1729   3.396   1.510   0.161
  515HOH      O 1730   2.329   3.191   0.279
  515HOH     H1 1731   2.265   3.262   0.286
  515HOH     H2 1732   2.406   3.232   0.242
  516HOH      O 1733   1.663   2.740   0.517
  516HOH     H1 1734   1.624   2.793   0.448
  516HOH     H2 1735   1.666   2.799   0.593
  517HOH      O 1736   0.664   1.591   0.913
  517HOH     H1 1737   0.713   1.547   0.982
  517HOH     H2 1738   0.578   1.550   0.915
  518HOH      O 1739   1.684   2.811   1.568
  518HOH     H1 1740   1.685   2.734   1.626
  518HOH     H2 1741   1.718   2.881   1.623
  519HOH      O 1742   3.396   2.810   0.469
  519HOH     H1 1743   3.461   2.740   0.469
  519HOH     H2 1744   3.367   2.816   0.560
  520HOH      O 1745   1.310   2.260   1.397
  520HOH     H1 1746   1.273   2.312   1.325
  520HOH     H2 1747   1.242   2.261   1.464
  521HOH      O 1748   3.653   1.126   3.285
  521HOH     H1 1749   3.557   1.125   3.292
  521HOH     H2 1750   3.682   1.061   3.349
  522HOH      O 1751   0.633   3.307   1.029
  522HOH     H1 1752   0.597   3.228   1.069
  522HOH     H2 1753   0.623   3.293   0.935
  523HOH      O 1754   0.837   0.047   1.117
  523HOH     H1 1755   0.931   0.064   1.110
  523HOH     H2 1756   0.816  -0.002   1.038
  524HOH      O 1757   3.485   1.457   2.434
  524HOH     H1 1758   3.409   1.460   2.375
  524HOH     H2 1759   3.550   1.513   2.392
  525HOH      O 1760   1.086   0.529   2.501
  525HOH     H1 1761   1.018   0.488   2.553
  525HOH     H2 1762   1.054   0.522   2.411
  526HOH      O 1763   1.357   2.674   3.088
  526HOH     H1 1764   1.400   2.623   3.156
  526HOH     H2 1765   1.276   2.625   3.070
  527HOH      O 1766   0.623   1.029   2.724
  527HOH     H1 1767   0.660   0.950   2.763
  527HOH     H2 1768   0.602   1.004   2.634
  528HOH      O 1769   2.343   3.483   2.609
  528HOH     H1 1770   2.249   3.473   2.621
  528HOH     H2 1771   2.380   3.473   2.697
  529HOH      O 1772   0.016   2.255   0.602
  529HOH     H1 1773   0.079   2.201   0.649
  529HOH     H2 1774  -0.069   2.229   0.637
  530HOH      O 1775   3.537   2.453   0.778
  530HOH     H1 1776   3.517   2.388   0.710
  530HOH     H2 1777   3.621   2.491   0.752
  531HOH      O 1778   3.165   1.882   2.267
  531HOH     H1 1779   3.223   1.879   2.191
  531HOH     H2 1780   3.085   1.923   2.235
  532HOH      O 1781   0.906   3.375   3.309
  532HOH     H1 1782   0.819   3.352   3.276
  532HOH     H2 1783   0.967   3.325   3.255
  533HOH      O 1784   3.812   1.314   2.393
  533HOH     H1 1785   3.797   1.389   2.452
  533HOH     H2 1786   3.864   1.350   2.321
  534HOH      O 1787   0.860   2.089   3.466
  534HOH     H1 1788   0.792   2.120   3.406
  534HOH     H2 1789   0.940   2.131   3.434
  535HOH      O 1790   3.241   0.630   0.331
  535HOH     H1 1791   3.260   0.537   0.344
  535HOH     H2 1792   3.244   0.668   0.419
  536HOH      O 1793   3.984   1.518   2.525
  536HOH     H1 1794   4.057   1.542   2.468
  536HOH     H2 1795   4.024   1.471   2.598
  537HOH      O 1796   2.381   2.120   1.590
  537HOH     H1 1797   2.421   2.207   1.601
  537HOH     H2 1798   2.418   2.087   1.509
  538HOH      O 1799   1.041   1.842   1.703
  538HOH     H1 1800   0.995   1.835   1.619
  538HOH     H2 1801   1.125   1.882   1.682
  539HOH      O 1802   3.400   1.198   3.453
  539HOH     H1 1803   3.446   1.152   3.523
  539HOH     H2 1804   3.371   1.280   3.492
  540HOH      O 1805   0.664   3.739   3.740
  540HOH     H1 1806   0.757   3.718   3.743
  540HOH     H2 1807   0.629   3.683   3.671
  541HOH      O 1808   2.645   1.421   3.626
  541HOH     H1 1809   2.689   1.460   3.702
  541HOH     H2 1810   2.602   1.496   3.583
  542HOH      O 1811   3.815   3.094   1.628
  542HOH     H1 1812   3.816   3.189   1.632
  542HOH     H2 1813   3.835   3.066   1.717
  543HOH      O 1814   0.772   3.899   1.795
  543HOH     H1 1815   0.779   3.805   1.809
  543HOH     H2 1816   0.678   3.914   1.782
  544HOH      O 1817   2.649   2.004   2.317
  544HOH     H1 1818   2.582   2.061   2.278
  544HOH     H2 1819   2.623   1.996   2.409
  545HOH      O 1820   0.660   0.332   3.337
  545HOH     H1 1821   0.653   0.424   3.360
  545HOH     H2 1822   0.718   0.294   3.402
  546HOH      O 1823   0.538   1.051   1.938
  546HOH     H1 1824   0.571   1.086   2.021
  546HOH     H2 1825   0.579   1.106   1.871
  547HOH      O 1826   0.951   2.520   0.740
  547HOH     H1 1827   0.957   2.431   0.775
  547HOH     H2 1828   0.899   2.511   0.660
  548HOH      O 1829   3.865   0.713   3.372
  548HOH     H1 1830   3.810   0.639   3.344
  548HOH     H2 1831   3.954   0.677   3.374
  549HOH      O 1832   3.040   4.036   0.810
  549HOH     H1 1833   2.957   4.083   0.819
  549HOH     H2 1834   3.016   3.953   0.768
  550HOH      O 1835   0.935   2.552   3.252
  550HOH     H1 1836   0.995   2.597   3.311
  550HOH     H2 1837   0.892   2.486   3.306
  551HOH      O 1838   2.328   0.814   0.900
  551HOH     H1 1839   2.327   0.905   0.928
  551HOH     H2 1840   2.240   0.781   0.923
  552HOH      O 1841   0.394   1.166   0.915
  552HOH     H1 1842   0.464   1.205   0.967
  552HOH     H2 1843   0.441   1.121   0.843
  553HOH      O 1844   0.839   2.600   1.032
  553HOH     H1 1845   0.790   2.553   1.099
  553HOH     H2 1846   0.874   2.531   0.975
  554HOH      O 1847   2.337   2.846   2.775
  554HOH     H1 1848   2.432   2.834   2.778
  554HOH     H2 1849   2.322   2.936   2.803
  555HOH      O 1850   1.845   2.474   2.059
  555HOH     H1 1851   1.923   2.487   2.113
  555HOH     H2 1852   1.880   2.457   1.971
  556HOH      O 1853   3.692   1.048   1.187
  556HOH     H1 1854   3.727   0.975   1.138
  556HOH     H2 1855   3.728   1.126   1.145
  557HOH      O 1856   0.509   1.888   0.856
  557HOH     H1 1857   0.542   1.937   0.781
  557HOH     H2 1858   0.498   1.799   0.823
  558HOH      O 1859   2.406   3.442   3.523
  558HOH     H1 1860   2.418   3.379   3.595
  558HOH     H2 1861   2.480   3.502   3.532
  559HOH      O 1862   1.055   3.609   3.236
  559HOH     H1 1863   1.003   3.529   3.236
  559HOH     H2 1864   1.143   3.580   3.260
  560HOH      O 1865   2.468   3.131   0.674
  560HOH     H1 1866   2.390   3.165   0.630
  560HOH     H2 1867   2.438   3.051   0.718
  561HOH      O 1868   2.938   2.170   0.327
  561HOH     H1 1869   2.936   2.265   0.321
  561HOH     H2 1870   2.904   2.151   0.415
  562HOH      O 1871   0.509   0.848   2.472
  562HOH     H1 1872   0.478   0.933   2.441
  562HOH     H2 1873   0.579   0.824   2.411
  563HOH      O 1874   0.480   2.779   0.444
  563HOH     H1 1875   0.483   2.734   0.528
  563HOH     H2 1876   0.387   2.791   0.426
  564HOH      O 1877   0.305   1.838   4.007
  564HOH     H1 1878   0.299   1.931   3.983
  564HOH     H2 1879   0.247   1.794   3.945
  565HOH      O 1880   1.805   1.932   2.360
  565HOH     H1 1881   1.900   1.928   2.374
  565HOH     H2 1882   1.770   1.963   2.444
  566HOH      O 1883   0.707   3.589   4.003
  566HOH     H1 1884   0.623   3.543   3.995
  566HOH     H2 1885   0.695   3.670   3.953
  567HOH      O 1886   0.674   2.748   2.601
  567HOH     H1 1887   0.592   2.727   2.646
  567HOH     H2 1888   0.672   2.843   2.593
  568HOH      O 1889   1.584   1.201   2.471
  568HOH     H1 1890   1.584   1.290   2.506
  568HOH     H2 1891   1.548   1.210   2.383
  569HOH      O 1892   2.687   1.909   3.007
  569HOH     H1 1893   2.664   1.912   3.099
  569HOH     H2 1894   2.667   1.820   2.979
  570HOH      O 1895   0.153   0.993   2.767
  570HOH     H1 1896   0.115   0.920   2.816
  570HOH     H2 1897   0.187   1.051   2.834
  571HOH      O 1898   1.191   3.236  -0.004
  571HOH     H1 1899   1.224   3.228   0.085
  571HOH     H2 1900   1.166   3.147  -0.029
  572HOH      O 1901   0.633   0.070   0.876
  572HOH     H1 1902   0.552   0.078   0.927
  572HOH     H2 1903   0.631  -0.020   0.844
  573HOH      O 1904   3.063   0.784   0.200
  573HOH     H1 1905   3.013   0.787   0.281
  573HOH     H2 1906   3.149   0.752   0.225
  574HOH      O 1907   2.231   2.376   0.649
  574HOH     H1 1908   2.144   2.398   0.680
  574HOH     H2 1909   2.228   2.395   0.555
  575HOH      O 1910   3.057   2.538   3.039
  575HOH     H1 1911   2.978   2.489   3.016
  575HOH     H2 1912   3.050   2.552   3.133
  576HOH      O 1913   3.948   2.591   3.223
  576HOH     H1 1914   3.919   2.637   3.145
  576HOH     H2 1915   4.021   2.537   3.194
  577HOH      O 1916   3.798   2.483   2.667
  577HOH     H1 1917   3.829   2.572   2.687
  577HOH     H2 1918   3.767   2.449   2.751
  578HOH      O 1919   1.480   1.111   3.974
  578HOH     H1 1920   1.518   1.096   3.887
  578HOH     H2 1921   1.547   1.162   4.020
  579HOH      O 1922   2.204   2.970   0.363
  579HOH     H1 1923   2.117   2.994   0.393
  579HOH     H2 1924   2.250   3.053   0.353
  580HOH      O 1925   0.933   2.821   0.466
  580HOH     H1 1926   0.874   2.877   0.516
  580HOH     H2 1927   0.925   2.853   0.376
  581HOH      O 1928   3.848   0.282   3.048
  581HOH     H1 1929   3.862   0.229   2.970
  581HOH     H2 1930   3.827   0.219   3.117
  582HOH      O 1931   0.723   2.672   3.800
  582HOH     H1 1932   0.797   2.629   3.843
  582HOH     H2 1933   0.737   2.765   3.816
  583HOH      O 1934   0.079   0.590   2.702
  583HOH     H1 1935   0.086   0.668   2.648
  583HOH     H2 1936   0.153   0.535   2.675
  584HOH      O 1937   0.675   3.708   1.505
  584HOH     H1 1938   0.695   3.640   1.441
  584HOH     H2 1939   0.702   3.671   1.589
  585HOH      O 1940   2.299   0.432   2.166
  585HOH     H1 1941   2.308   0.338   2.184
  585HOH     H2 1942   2.219   0.439   2.114
  586HOH      O 1943   3.505   0.850   1.315
  586HOH     H1 1944   3.555   0.917   1.268
  586HOH     H2 1945   3.569   0.783   1.336
  587HOH      O 1946   0.574   2.954   0.949
  587HOH     H1 1947   0.659   2.957   0.907
  587HOH     H2 1948   0.590   2.987   1.038
  588HOH      O 1949   2.384   0.356   0.629
  588HOH     H1 1950   2.449   0.292   0.602
  588HOH     H2 1951   2.300   0.312   0.617
  589HOH      O 1952   3.450   1.048   0.978
  589HOH     H1 1953   3.449   0.953   0.964
  589HOH     H2 1954   3.528   1.078   0.932
  590HOH      O 1955   3.222   1.131   2.363
  590HOH     H1 1956   3.165   1.059   2.388
  590HOH     H2 1957   3.276   1.147   2.440
  591HOH      O 1958   3.246   3.029   1.630
  591HOH     H1 1959   3.331   3.022   1.675
  591HOH     H2 1960   3.226   2.940   1.603
  592HOH      O 1961   1.213   3.345   2.168
  592HOH     H1 1962   1.236   3.364   2.077
  592HOH     H2 1963   1.263   3.409   2.219
  593HOH      O 1964   3.459   0.928   0.233
  593HOH     H1 1965   3.400   0.926   0.308
  593HOH     H2 1966   3.510   0.847   0.241
  594HOH      O 1967   3.328   0.795   3.947
  594HOH     H1 1968   3.357   0.879   3.982
  594HOH     H2 1969   3.236   0.789   3.972
  595HOH      O 1970   0.767   0.500   2.360
  595HOH     H1 1971   0.854   0.520   2.326
  595HOH     H2 1972   0.727   0.443   2.294
  596HOH      O 1973   1.223   1.019   1.619
  596HOH     H1 1974   1.219   1.018   1.714
  596HOH     H2 1975   1.135   0.994   1.590
  597HOH      O 1976   3.519   0.242   3.822
  597HOH     H1 1977   3.524   0.323   3.771
  597HOH     H2 1978   3.509   0.173   3.756
  598HOH      O 1979   2.863   2.356   2.932
  598HOH     H1 1980   2.827   2.358   3.021
  598HOH     H2 1981   2.851   2.265   2.904
  599HOH      O 1982   2.753   2.639   3.110
  599HOH     H1 1983   2.710   2.698   3.172
  599HOH     H2 1984   2.823   2.598   3.160
  600HOH      O 1985   2.493   0.162   1.258
  600HOH     H1 1986   2.569   0.164   1.316
  600HOH     H2 1987   2.467   0.253   1.248
  601HOH      O 1988   2.770   0.564   3.586
  601HOH     H1 1989   2.803   0.600   3.668
  601HOH     H2 1990   2.830   0.492   3.566
  602HOH      O 1991   0.967   1.575   1.152
  602HOH     H1 1992   0.996   1.666   1.155
  602HOH     H2 1993   0.889   1.572   1.208
  603HOH      O 1994   1.519   0.536   0.210
  603HOH     H1 1995   1.500   0.630   0.207
  603HOH     H2 1996   1.615   0.531   0.210
  604HOH      O 1997   1.395   0.958   0.783
  604HOH     H1 1998   1.379   0.927   0.694
  604HOH     H2 1999   1.336   0.907   0.838
  605HOH      O 2000   1.399   3.667   2.069
  605HOH     H1 2001   1.402   3.650   2.163
  605HOH     H2 2002   1.357   3.590   2.032
  606HOH      O 2003   3.040   0.119   0.418
  606HOH     H1 2004   3.072   0.030   0.405
  606HOH     H2 2005   3.090   0.153   0.492
  607HOH      O 2006   1.968   2.210   0.386
  607HOH     H1 2007   1.945   2.134   0.333
  607HOH     H2 2008   1.978   2.281   0.323
  608HOH      O 2009   1.111   2.058   2.365
  608HOH     H1 2010   1.186   2.007   2.336
  608HOH     H2 2011   1.070   2.089   2.284
  609HOH      O 2012   4.019   1.801   1.802
  609HOH     H1 2013   4.018   1.874   1.864
  609HOH     H2 2014   3.970   1.732   1.845
  610HOH      O 2015   2.411   0.966   0.430
  610HOH     H1 2016   2.487   0.987   0.375
  610HOH     H2 2017   2.345   0.934   0.369
  611HOH      O 2018   1.409   2.153   2.029
  611HOH     H1 2019   1.472   2.124   2.095
  611HOH     H2 2020   1.463   2.173   1.952
  612HOH      O 2021   2.569   0.381   0.409
  612HOH     H1 2022   2.500   0.377   0.343
  612HOH     H2 2023   2.576   0.292   0.442
  613HOH      O 2024   2.793   3.910   2.735
  613HOH     H1 2025   2.822   3.823   2.761
  613HOH     H2 2026   2.750   3.896   2.651
  614HOH      O 2027   1.670   0.896   2.491
  614HOH     H1 2028   1.652   0.896   2.585
  614HOH     H2 2029   1.656   0.987   2.464
  615HOH      O 2030   3.391   0.636   1.109
  615HOH     H1 2031   3.475   0.595   1.128
  615HOH     H2 2032   3.412   0.712   1.056
  616HOH      O 2033   1.264   2.019   1.717
  616HOH     H1 2034   1.353   2.043   1.692
  616HOH     H2 2035   1.263   2.028   1.812
  617HOH      O 2036   1.278   3.949   3.876
  617HOH     H1 2037   1.255   4.038   3.850
  617HOH     H2 2038   1.268   3.949   3.971
  618HOH      O 2039   0.381   0.215   3.043
  618HOH     H1 2040   0.456   0.196   2.987
  618HOH     H2 2041   0.305   0.186   2.992
  619HOH      O 2042   1.822   0.804   2.124
  619HOH     H1 2043   1.885   0.846   2.066
  619HOH     H2 2044   1.786   0.875   2.177
  620HOH      O 2045   3.097   1.962   0.223
  620HOH     H1 2046   3.036   1.889   0.227
  620HOH     H2 2047   3.049   2.036   0.260
  621HOH      O 2048   2.217   1.261   0.598
  621HOH     H1 2049   2.187   1.312   0.523
  621HOH     H2 2050   2.175   1.176   0.588
  622HOH      O 2051   2.851   0.555   1.157
  622HOH     H1 2052   2.886   0.585   1.073
  622HOH     H2 2053   2.775   0.502   1.133
  623HOH      O 2054   1.069   1.459   2.800
  623HOH     H1 2055   0.992   1.503   2.764
  623HOH     H2 2056   1.129   1.531   2.820
  624HOH      O 2057   3.672   1.658   1.040
  624HOH     H1 2058   3.685   1.625   1.129
  624HOH     H2 2059   3.629   1.587   0.994
  625HOH      O 2060   1.041   1.279   3.954
  625HOH     H1 2061   0.982   1.264   3.880
  625HOH     H2 2062   1.008   1.359   3.995
  626HOH      O 2063   2.280   1.477   3.356
  626HOH     H1 2064   2.370   1.459   3.328
  626HOH     H2 2065   2.251   1.397   3.398
  627HOH      O 2066   0.994   2.948   2.090
  627HOH     H1 2067   0.915   2.990   2.124
  627HOH     H2 2068   0.963   2.864   2.057
  628HOH      O 2069   3.716   2.125   3.548
  628HOH     H1 2070   3.689   2.061   3.482
  628HOH     H2 2071   3.647   2.120   3.614
  629HOH      O 2072   1.730   2.858   3.003
  629HOH     H1 2073   1.784   2.802   2.947
  629HOH     H2 2074   1.649   2.869   2.954
  630HOH      O 2075   1.191   2.194   3.767
  630HOH     H1 2076   1.189   2.137   3.844
  630HOH     H2 2077   1.136   2.269   3.792
  631HOH      O 2078   0.658   3.913   2.800
  631HOH     H1 2079   0.747   3.878   2.788
  631HOH     H2 2080   0.609   3.880   2.725
  632HOH      O 2081   0.114   3.861   1.158
  632HOH     H1 2082   0.040   3.821   1.113
  632HOH     H2 2083   0.087   3.864   1.250
  633HOH      O 2084   1.384   0.098   0.476
  633HOH     H1 2085   1.427   0.075   0.558
  633HOH     H2 2086   1.444   0.066   0.408
  634HOH      O 2087   3.031   0.528   3.704
  634HOH     H1 2088   3.115   0.573   3.713
  634HOH     H2 2089   3.026   0.470   3.780
  635HOH      O 2090   2.136   3.284   2.343
  635HOH     H1 2091   2.168   3.269   2.254
  635HOH     H2 2092   2.041   3.295   2.332
  636HOH      O 2093   0.418   1.282   1.459
  636HOH     H1 2094   0.416   1.235   1.375
  636HOH     H2 2095   0.430   1.374   1.434
  637HOH      O 2096   3.910   0.102   1.875
  637HOH     H1 2097   3.854   0.175   1.849
  637HOH     H2 2098   3.861   0.056   1.942
  638HOH      O 2099   3.082   0.676   1.848
  638HOH     H1 2100   3.008   0.714   1.802
  638HOH     H2 2101   3.110   0.603   1.792
  639HOH      O 2102   2.380   0.829   3.366
  639HOH     H1 2103   2.328   0.908   3.351
  639HOH     H2 2104   2.469   0.854   3.342
  640HOH      O 2105   0.809   2.367   3.442
  640HOH     H1 2106   0.752   2.319   3.381
  640HOH     H2 2107   0.759   2.370   3.524
  641HOH      O 2108   1.634   2.037   2.195
  641HOH     H1 2109   1.700   2.068   2.133
  641HOH     H2 2110   1.683   1.982   2.256
  642HOH      O 2111   1.192   0.819   0.938
  642HOH     H1 2112   1.120   0.803   0.877
  642HOH     H2 2113   1.220   0.732   0.965
  643HOH      O 2114   3.081   1.903   3.397
  643HOH     H1 2115   3.069   1.972   3.462
  643HOH     H2 2116   3.058   1.822   3.444
  644HOH      O 2117   3.219   2.366   2.907
  644HOH     H1 2118   3.158   2.423   2.955
  644HOH     H2 2119   3.199   2.278   2.939
  645HOH      O 2120   2.712   1.725   1.618
  645HOH     H1 2121   2.793   1.724   1.567
  645HOH     H2 2122   2.740   1.709   1.708
  646HOH      O 2123   2.946   0.286   2.916
  646HOH     H1 2124   2.929   0.193   2.933
  646HOH     H2 2125   2.875   0.313   2.857
  647HOH      O 2126   2.991   3.115   1.687
  647HOH     H1 2127   3.084   3.095   1.686
  647HOH     H2 2128   2.961   3.085   1.773
  648HOH      O 2129   0.098   3.948   2.479
  648HOH     H1 2130   0.064   3.920   2.394
  648HOH     H2 2131   0.128   3.866   2.520
  649HOH      O 2132   1.768   1.052   3.171
  649HOH     H1 2133   1.834   0.988   3.198
  649HOH     H2 2134   1.806   1.095   3.095
  650HOH      O 2135   1.811   1.193   0.803
  650HOH     H1 2136   1.721   1.179   0.833
  650HOH     H2 2137   1.804   1.188   0.707
  651HOH      O 2138   0.631   2.413   0.963
  651HOH     H1 2139   0.567   2.380   0.901
  651HOH     H2 2140   0.667   2.334   1.004
  652HOH      O 2141   1.374   0.470   3.842
  652HOH     H1 2142   1.445   0.438   3.787
  652HOH     H2 2143   1.365   0.563   3.819
  653HOH      O 2144   0.244   1.528   1.998
  653HOH     H1 2145   0.238   1.518   1.903
  653HOH     H2 2146   0.314   1.468   2.024
  654HOH      O 2147   0.697   1.995   1.562
  654HOH     H1 2148   0.745   1.925   1.517
  654HOH     H2 2149   0.637   2.029   1.495
  655HOH      O 2150   0.043   1.746   2.833
  655HOH     H1 2151  -0.049   1.764   2.854
  655HOH     H2 2152   0.057   1.791   2.750
  656HOH      O 2153   3.703   2.092   2.156
  656HOH     H1 2154   3.722   2.160   2.091
  656HOH     H2 2155   3.657   2.138   2.226
  657HOH      O 2156   2.098   3.516   2.072
  657HOH     H1 2157   2.064   3.603   2.051
  657HOH     H2 2158   2.035   3.480   2.133
  658HOH      O 2159   3.809   1.658  -0.014
  658HOH     H1 2160   3.880   1.715   0.019
  658HOH     H2 2161   3.731   1.688   0.033
  659HOH      O 2162   0.699   0.790   2.300
  659HOH     H1 2163   0.729   0.700   2.312
  659HOH     H2 2164   0.775   0.844   2.324
  660HOH      O 2165   0.270   1.723   1.142
  660HOH     H1 2166   0.348   1.745   1.193
  660HOH     H2 2167   0.238   1.642   1.181
  661HOH      O 2168   1.343   0.220   1.535
  661HOH     H1 2169   1.426   0.237   1.579
  661HOH     H2 2170   1.295   0.302   1.541
  662HOH      O 2171   2.281   3.762   1.117
  662HOH     H1 2172   2.220   3.690   1.105
  662HOH     H2 2173   2.352   3.725   1.170
  663HOH      O 2174   3.051   2.858   2.529
  663HOH     H1 2175   3.134   2.905   2.525
  663HOH     H2 2176   3.070   2.781   2.583
  664HOH      O 2177   3.663   2.157   2.425
  664HOH     H1 2178   3.708   2.132   2.506
  664HOH     H2 2179   3.572   2.129   2.439
  665HOH      O 2180   0.731   0.227   1.295
  665HOH     H1 2181   0.763   0.153   1.244
  665HOH     H2 2182   0.676   0.276   1.234
  666HOH      O 2183   1.801   2.404   1.007
  666HOH     H1 2184   1.853   2.460   1.064
  666HOH     H2 2185   1.718   2.393   1.054
  667HOH      O 2186   3.603   3.571   3.590
  667HOH     H1 2187   3.553   3.563   3.509
  667HOH     H2 2188   3.579   3.494   3.641
  668HOH      O 2189   3.771   1.167   2.970
  668HOH     H1 2190   3.697   1.224   2.991
  668HOH     H2 2191   3.847   1.210   3.009
  669HOH      O 2192   2.366   2.920   0.848
  669HOH     H1 2193   2.428   2.915   0.920
  669HOH     H2 2194   2.313   2.841   0.857
  670HOH      O 2195   0.502   0.728   2.114
  670HOH     H1 2196   0.428   0.690   2.161
  670HOH     H2 2197   0.565   0.751   2.183
  671HOH      O 2198   3.168   3.113   0.898
  671HOH     H1 2199   3.149   3.136   0.989
  671HOH     H2 2200   3.082   3.108   0.856
  672HOH      O 2201   2.429   3.883   1.387
  672HOH     H1 2202   2.444   3.789   1.380
  672HOH     H2 2203   2.510   3.923   1.357
  673HOH      O 2204   0.445   2.547   3.784
  673HOH     H1 2205   0.514   2.600   3.824
  673HOH     H2 2206   0.380   2.611   3.755
  674HOH      O 2207   0.344   0.720   0.635
  674HOH     H1 2208   0.311   0.671   0.560
  674HOH     H2 2209   0.289   0.799   0.637
  675HOH      O 2210   0.484   0.303   0.260
  675HOH     H1 2211   0.395   0.337   0.270
  675HOH     H2 2212   0.534   0.346   0.329
  676HOH      O 2213   0.352   3.214   1.860
  676HOH     H1 2214   0.261   3.187   1.856
  676HOH     H2 2215   0.370   3.251   1.773
  677HOH      O 2216   0.760   1.644   3.841
  677HOH     H1 2217   0.701   1.627   3.914
  677HOH     H2 2218   0.764   1.560   3.794
  678HOH      O 2219   1.370   3.224   3.340
  678HOH     H1 2220   1.459   3.250   3.363
  678HOH     H2 2221   1.325   3.219   3.424
  679HOH      O 2222   4.035   2.040   1.460
  679HOH     H1 2223   3.952   2.073   1.493
  679HOH     H2 2224   4.036   2.064   1.368
  680HOH      O 2225   3.178   1.307   0.571
  680HOH     H1 2226   3.134   1.331   0.653
  680HOH     H2 2227   3.260   1.267   0.599
  681HOH      O 2228   1.045   1.017   1.097
  681HOH     H1 2229   0.981   1.047   1.032
  681HOH     H2 2230   1.105   0.961   1.048
  682HOH      O 2231   2.697   2.759   0.100
  682HOH     H1 2232   2.647   2.707   0.037
  682HOH     H2 2233   2.772   2.705   0.121
  683HOH      O 2234   1.571   3.373   3.420
  683HOH     H1 2235   1.622   3.438   3.372
  683HOH     H2 2236   1.504   3.425   3.466
  684HOH      O 2237   3.574   1.057   1.709
  684HOH     H1 2238   3.623   1.076   1.629
  684HOH     H2 2239   3.641   1.038   1.774
  685HOH      O 2240   2.292   3.387   2.969
  685HOH     H1 2241   2.223   3.443   2.933
  685HOH     H2 2242   2.321   3.433   3.048
  686HOH      O 2243   2.271   1.012   1.148
  686HOH     H1 2244   2.326   0.949   1.194
  686HOH     H2 2245   2.308   1.097   1.170
  687HOH      O 2246   0.783   2.487   1.965
  687HOH     H1 2247   0.729   2.471   2.042
  687HOH     H2 2248   0.835   2.407   1.954
  688HOH      O 2249   3.386   1.026   2.714
  688HOH     H1 2250   3.478   1.004   2.700
  688HOH     H2 2251   3.382   1.121   2.705
  689HOH      O 2252   1.981   0.872   3.221
  689HOH     H1 2253   2.055   0.873   3.160
  689HOH     H2 2254   1.959   0.780   3.230
  690HOH      O 2255   2.508   0.888   3.820
  690HOH     H1 2256   2.526   0.835   3.897
  690HOH     H2 2257   2.518   0.828   3.746
  691HOH      O 2258   3.639   2.907   0.127
  691HOH     H1 2259   3.634   3.002   0.139
  691HOH     H2 2260   3.548   2.878   0.133
  692HOH      O 2261   2.297   2.717   0.388
  692HOH     H1 2262   2.285   2.807   0.358
  692HOH     H2 2263   2.285   2.721   0.483
  693HOH      O 2264   3.944   3.810   2.979
  693HOH     H1 2265   3.911   3.803   2.890
  693HOH     H2 2266   4.030   3.768   2.976
  694HOH      O 2267   4.016   0.207   2.440
  694HOH     H1 2268   3.965   0.270   2.390
  694HOH     H2 2269   3.979   0.122   2.417
  695HOH      O 2270   0.461   1.590   1.714
  695HOH     H1 2271   0.392   1.651   1.739
  695HOH     H2 2272   0.422   1.503   1.728
  696HOH      O 2273   3.214   2.997   2.071
  696HOH     H1 2274   3.180   3.027   2.156
  696HOH     H2 2275   3.265   3.071   2.039
  697HOH      O 2276   1.505   0.409   3.092
  697HOH     H1 2277   1.510   0.351   3.016
  697HOH     H2 2278   1.508   0.497   3.055
  698HOH      O 2279   0.144   1.498   1.130
  698HOH     H1 2280   0.060   1.520   1.170
  698HOH     H2 2281   0.149   1.402   1.136
  699HOH      O 2282   3.199   1.275   0.145
  699HOH     H1 2283   3.135   1.297   0.077
  699HOH     H2 2284   3.171   1.325   0.222
  700HOH      O 2285   1.540   1.364   3.167
  700HOH     H1 2286   1.475   1.330   3.106
  700HOH     H2 2287   1.504   1.447   3.198
  701HOH      O 2288   0.851   1.249   3.239
  701HOH     H1 2289   0.882   1.297   3.162
  701HOH     H2 2290   0.930   1.235   3.292
  702HOH      O 2291   2.732   0.884   1.209
  702HOH     H1 2292   2.712   0.793   1.187
  702HOH     H2 2293   2.703   0.934   1.132
  703HOH      O 2294   0.327   0.875   1.923
  703HOH     H1 2295   0.407   0.924   1.905
  703HOH     H2 2296   0.347   0.826   2.002
  704HOH      O 2297   1.384   2.957   3.714
  704HOH     H1 2298   1.353   3.047   3.728
  704HOH     H2 2299   1.474   2.967   3.685
  705HOH      O 2300   0.674   3.054   1.200
  705HOH     H1 2301   0.632   3.011   1.275
  705HOH     H2 2302   0.764   3.068   1.229
  706HOH      O 2303   2.617   3.223   3.635
  706HOH     H1 2304   2.540   3.190   3.681
  706HOH     H2 2305   2.683   3.234   3.704
  707HOH      O 2306   2.505   0.867   1.956
  707HOH     H1 2307   2.511   0.941   1.896
  707HOH     H2 2308   2.458   0.902   2.032
  708HOH      O 2309   1.510   2.256   0.733
  708HOH     H1 2310   1.505   2.351   0.731
  708HOH     H2 2311   1.464   2.228   0.654
  709HOH      O 2312   1.205   2.510   3.949
  709HOH     H1 2313   1.284   2.496   3.897
  709HOH     H2 2314   1.230   2.485   4.038
  710HOH      O 2315   1.603   1.779   1.754
  710HOH     H1 2316   1.627   1.869   1.774
  710HOH     H2 2317   1.544   1.786   1.679
  711HOH      O 2318   2.851   1.422   1.609
  711HOH     H1 2319   2.862   1.386   1.521
  711HOH     H2 2320   2.834   1.345   1.664
  712HOH      O 2321   3.655   4.008   0.325
  712HOH     H1 2322   3.602   4.004   0.404
  712HOH     H2 2323   3.674   3.917   0.303
  713HOH      O 2324   2.642   0.580   2.745
  713HOH     H1 2325   2.569   0.549   2.799
  713HOH     H2 2326   2.677   0.501   2.704
  714HOH      O 2327   1.739   3.169   3.446
  714HOH     H1 2328   1.686   3.245   3.423
  714HOH     H2 2329   1.757   3.126   3.363
  715HOH      O 2330   3.768   0.660   0.096
  715HOH     H1 2331   3.707   0.662   0.170
  715HOH     H2 2332   3.836   0.599   0.123
  716HOH      O 2333   2.308   1.442   0.232
  716HOH     H1 2334   2.236   1.495   0.200
  716HOH     H2 2335   2.346   1.493   0.304
  717HOH      O 2336   0.373   0.303   1.998
  717HOH     H1 2337   0.296   0.246   2.001
  717HOH     H2 2338   0.442   0.247   1.962
  718HOH      O 2339   1.748   0.629   0.739
  718HOH     H1 2340   1.734   0.707   0.794
  718HOH     H2 2341   1.672   0.627   0.681
  719HOH      O 2342   1.854   2.746   2.806
  719HOH     H1 2343   1.848   2.654   2.833
  719HOH     H2 2344   1.946   2.757   2.781
  720HOH      O 2345   2.274   1.677   3.534
  720HOH     H1 2346   2.281   1.604   3.472
  720HOH     H2 2347   2.364   1.710   3.542
  721HOH      O 2348   3.674   0.197   2.134
  721HOH     H1 2349   3.687   0.102   2.128
  721HOH     H2 2350   3.594   0.213   2.084
  722HOH      O 2351   1.595   3.817   3.371
  722HOH     H1 2352   1.672   3.817   3.315
  722HOH     H2 2353   1.524   3.846   3.315
  723HOH      O 2354   2.745   0.704   0.193
  723HOH     H1 2355   2.759   0.783   0.244
  723HOH     H2 2356   2.689   0.732   0.120
  724HOH      O 2357   0.850   1.603   2.708
  724HOH     H1 2358   0.871   1.691   2.740
  724HOH     H2 2359   0.758   1.590   2.730
  725HOH      O 2360   1.789   1.723   2.669
  725HOH     H1 2361   1.739   1.800   2.644
  725HOH     H2 2362   1.748   1.691   2.749
  726HOH      O 2363   3.131   0.204   3.466
  726HOH     H1 2364   3.150   0.261   3.540
  726HOH     H2 2365   3.122   0.117   3.505
  727HOH      O 2366   3.356   2.137   2.207
  727HOH     H1 2367   3.420   2.086   2.256
  727HOH     H2 2368   3.378   2.121   2.115
  728HOH      O 2369   1.316   2.132   2.578
  728HOH     H1 2370   1.288   2.057   2.631
  728HOH     H2 2371   1.257   2.132   2.503
  729HOH      O 2372   3.239   2.874   2.994
  729HOH     H1 2373   3.301   2.861   2.922
  729HOH     H2 2374   3.270   2.816   3.063
  730HOH      O 2375   1.761   0.158   3.450
  730HOH     H1 2376   1.732   0.207   3.527
  730HOH     H2 2377   1.851   0.132   3.471
  731HOH      O 2378   0.090   2.396   0.949
  731HOH     H1 2379   0.006   2.440   0.963
  731HOH     H2 2380   0.133   2.449   0.882
  732HOH      O 2381   2.018   0.378   2.109
  732HOH     H1 2382   2.017   0.391   2.204
  732HOH     H2 2383   1.933   0.412   2.080
  733HOH      O 2384   0.871   1.810   3.613
  733HOH     H1 2385   0.899   1.806   3.705
  733HOH     H2 2386   0.897   1.898   3.584
  734HOH      O 2387   1.801   1.317   3.078
  734HOH     H1 2388   1.712   1.326   3.114
  734HOH     H2 2389   1.858   1.331   3.153
  735HOH      O 2390   3.549   1.709   0.111
  735HOH     H1 2391   3.567   1.615   0.108
  735HOH     H2 2392   3.492   1.719   0.187
  736HOH      O 2393   0.603   3.646   2.985
  736HOH     H1 2394   0.666   3.641   2.913
  736HOH     H2 2395   0.584   3.555   3.007
  737HOH      O 2396   2.403   3.373   1.738
  737HOH     H1 2397   2.396   3.346   1.646
  737HOH     H2 2398   2.312   3.384   1.766
  738HOH      O 2399   0.909   3.205   0.117
  738HOH     H1 2400   0.821   3.220   0.153
  738HOH     H2 2401   0.907   3.115   0.087
  739HOH      O 2402   0.361   3.721   3.794
  739HOH     H1 2403   0.363   3.782   3.720
  739HOH     H2 2404   0.452   3.692   3.802
  740HOH      O 2405   2.792   0.681   3.823
  740HOH     H1 2406   2.879   0.642   3.831
  740HOH     H2 2407   2.805   0.774   3.837
  741HOH      O 2408   1.140   2.584   1.430
  741HOH     H1 2409   1.221   2.635   1.428
  741HOH     H2 2410   1.095   2.614   1.509
  742HOH      O 2411   1.073   2.260   3.413
  742HOH     H1 2412   1.000   2.315   3.441
  742HOH     H2 2413   1.133   2.320   3.369
  743HOH      O 2414   0.715   1.749   0.424
  743HOH     H1 2415   0.697   1.707   0.509
  743HOH     H2 2416   0.643   1.810   0.413
  744HOH      O 2417   2.058   1.652   2.330
  744HOH     H1 2418   2.109   1.571   2.337
  744HOH     H2 2419   1.976   1.625   2.288
  745HOH      O 2420   0.544   2.046   0.626
  745HOH     H1 2421   0.517   2.021   0.538
  745HOH     H2 2422   0.502   2.131   0.641
  746HOH      O 2423   3.723   3.978   3.462
  746HOH     H1 2424   3.730   3.920   3.538
  746HOH     H2 2425   3.701   3.919   3.389
  747HOH      O 2426   3.791   4.036   2.362
  747HOH     H1 2427   3.775   3.960   2.418
  747HOH     H2 2428   3.816   3.999   2.277
  748HOH      O 2429   1.993   0.779   3.589
  748HOH     H1 2430   2.008   0.794   3.682
  748HOH     H2 2431   2.036   0.853   3.546
  749HOH      O 2432   2.070   1.369   1.655
  749HOH     H1 2433   2.017   1.413   1.588
  749HOH     H2 2434   2.068   1.429   1.730
  750HOH      O 2435   1.093   2.208   1.038
  750HOH     H1 2436   1.105   2.243   1.127
  750HOH     H2 2437   1.179   2.173   1.015
  751HOH      O 2438   0.293   0.034   3.893
  751HOH     H1 2439   0.211  -0.014   3.898
  751HOH     H2 2440   0.352  -0.010   3.954
  752HOH      O 2441   0.908   0.947   2.348
  752HOH     H1 2442   0.924   0.918   2.437
  752HOH     H2 2443   0.899   1.042   2.354
  753HOH      O 2444   2.754   1.092   2.336
  753HOH     H1 2445   2.814   1.033   2.291
  753HOH     H2 2446   2.806   1.169   2.357
  754HOH      O 2447   0.406   2.408   2.090
  754HOH     H1 2448   0.395   2.476   2.157
  754HOH     H2 2449   0.494   2.375   2.104
  755HOH      O 2450   0.739   0.915   0.545
  755HOH     H1 2451   0.719   1.005   0.568
  755HOH     H2 2452   0.660   0.882   0.503
  756HOH      O 2453   1.259   0.437   3.540
  756HOH     H1 2454   1.354   0.442   3.552
  756HOH     H2 2455   1.244   0.480   3.456
  757HOH      O 2456   2.451   0.586   0.806
  757HOH     H1 2457   2.416   0.675   0.808
  757HOH     H2 2458   2.374   0.531   0.820
  758HOH      O 2459   2.435   0.720   0.238
  758HOH     H1 2460   2.489   0.794   0.210
  758HOH     H2 2461   2.450   0.714   0.333
  759HOH      O 2462   1.632   2.706   1.980
  759HOH     H1 2463   1.674   2.647   1.917
  759HOH     H2 2464   1.705   2.753   2.021
  760HOH      O 2465   1.952   0.888   1.502
  760HOH     H1 2466   1.861   0.891   1.533
  760HOH     H2 2467   1.973   0.979   1.482
  761HOH      O 2468   2.521   2.931   2.997
  761HOH     H1 2469   2.519   2.836   3.007
  761HOH     H2 2470   2.608   2.956   3.028
  762HOH      O 2471   1.399   2.517   2.205
  762HOH     H1 2472   1.347   2.455   2.258
  762HOH     H2 2473   1.472   2.466   2.172
  763HOH      O 2474   0.761   1.602   1.348
  763HOH     H1 2475   0.757   1.633   1.439
  763HOH     H2 2476   0.686   1.544   1.339
  764HOH      O 2477   2.520   0.729   1.356
  764HOH     H1 2478   2.426   0.723   1.374
  764HOH     H2 2479   2.525   0.734   1.260
  765HOH      O 2480   3.985   0.287   0.501
  765HOH     H1 2481   3.940   0.220   0.449
  765HOH     H2 2482   4.022   0.240   0.575
  766HOH      O 2483   2.471   0.728   2.411
  766HOH     H1 2484   2.485   0.823   2.408
  766HOH     H2 2485   2.475   0.701   2.319
  767HOH      O 2486   1.615   0.216   0.270
  767HOH     H1 2487   1.665   0.217   0.189
  767HOH     H2 2488   1.528   0.186   0.244
  768HOH      O 2489   2.019   1.065   3.408
  768HOH     H1 2490   2.016   0.989   3.350
  768HOH     H2 2491   2.092   1.118   3.376
  769HOH      O 2492   2.795   1.251   1.810
  769HOH     H1 2493   2.823   1.167   1.847
  769HOH     H2 2494   2.785   1.309   1.886
  770HOH      O 2495   3.695   2.917   2.700
  770HOH     H1 2496   3.645   2.989   2.661
  770HOH     H2 2497   3.693   2.936   2.794
  771HOH      O 2498   0.252   0.688   2.264
  771HOH     H1 2499   0.233   0.716   2.353
  771HOH     H2 2500   0.173   0.643   2.235
  772HOH      O 2501   2.875   2.091   0.590
  772HOH     H1 2502   2.923   2.119   0.668
  772HOH     H2 2503   2.881   1.996   0.591
  773HOH      O 2504   0.090   0.524   3.641
  773HOH     H1 2505   0.104   0.586   3.713
  773HOH     H2 2506   0.007   0.482   3.661
  774HOH      O 2507   0.561   0.784   1.169
  774HOH     H1 2508   0.534   0.720   1.236
  774HOH     H2 2509   0.487   0.844   1.163
  775HOH      O 2510   1.715   0.369   0.493
  775HOH     H1 2511   1.775   0.419   0.438
  775HOH     H2 2512   1.653   0.330   0.431
  776HOH      O 2513   1.823   2.060   1.896
  776HOH     H1 2514   1.870   1.978   1.913
  776HOH     H2 2515   1.840   2.079   1.803
  777HOH      O 2516   2.243   1.949   1.758
  777HOH     H1 2517   2.292   1.999   1.692
  777HOH     H2 2518   2.267   1.858   1.741
  778HOH      O 2519   1.187   3.823   0.695
  778HOH     H1 2520   1.187   3.728   0.688
  778HOH     H2 2521   1.097   3.847   0.714
  779HOH      O 2522   3.602   1.991   0.031
  779HOH     H1 2523   3.572   1.902   0.046
  779HOH     H2 2524   3.653   1.987  -0.050
  780HOH      O 2525   0.048   0.822   0.363
  780HOH     H1 2526   0.019   0.794   0.276
  780HOH     H2 2527   0.089   0.744   0.401
  781HOH      O 2528   0.963   2.705   3.958
  781HOH     H1 2529   1.003   2.726   3.874
  781HOH     H2 2530   1.020   2.638   3.996
  782HOH      O 2531   2.294   0.118   0.237
  782HOH     H1 2532   2.367   0.109   0.175
  782HOH     H2 2533   2.295   0.210   0.263
  783HOH      O 2534   2.907   2.502   3.543
  783HOH     H1 2535   2.819   2.533   3.523
  783HOH     H2 2536   2.897   2.450   3.623
  784HOH      O 2537   3.743   2.090   2.660
  784HOH     H1 2538   3.765   1.997   2.662
  784HOH     H2 2539   3.652   2.094   2.688
  785HOH      O 2540   0.446   1.804   2.105
  785HOH     H1 2541   0.422   1.894   2.083
  785HOH     H2 2542   0.367   1.753   2.087
  786HOH      O 2543   2.296   2.582   3.179
  786HOH     H1 2544   2.320   2.662   3.226
  786HOH     H2 2545   2.203   2.572   3.196
  787HOH      O 2546   2.657   4.048   0.324
  787HOH     H1 2547   2.651   3.986   0.251
  787HOH     H2 2548   2.668   3.994   0.401
  788HOH      O 2549   0.210   1.454   1.718
  788HOH     H1 2550   0.235   1.366   1.689
  788HOH     H2 2551   0.186   1.501   1.638
  789HOH      O 2552   1.983   2.013   3.235
  789HOH     H1 2553   1.992   1.977   3.323
  789HOH     H2 2554   2.066   1.993   3.192
  790HOH      O 2555   2.309   0.929   1.743
  790HOH     H1 2556   2.290   0.987   1.669
  790HOH     H2 2557   2.252   0.959   1.813
  791HOH      O 2558   3.246   3.790   3.613
  791HOH     H1 2559   3.239   3.694   3.612
  791HOH     H2 2560   3.315   3.808   3.677
  792HOH      O 2561   3.179   0.212   0.643
  792HOH     H1 2562   3.188   0.283   0.707
  792HOH     H2 2563   3.144   0.138   0.692
  793HOH      O 2564   0.777   1.521   3.332
  793HOH     H1 2565   0.793   1.438   3.376
  793HOH     H2 2566   0.801   1.505   3.241
  794HOH      O 2567   1.108   0.613   3.697
  794HOH     H1 2568   1.128   0.532   3.651
  794HOH     H2 2569   1.186   0.667   3.685
  795HOH      O 2570   2.035   1.840   0.354
  795HOH     H1 2571   2.029   1.884   0.269
  795HOH     H2 2572   1.944   1.832   0.383
  796HOH      O 2573   3.544   3.327   3.236
  796HOH     H1 2574   3.528   3.422   3.242
  796HOH     H2 2575   3.477   3.296   3.175
  797HOH      O 2576   3.767   3.670   2.293
  797HOH     H1 2577   3.768   3.578   2.319
  797HOH     H2 2578   3.830   3.675   2.221
  798HOH      O 2579   0.407   2.660   3.089
  798HOH     H1 2580   0.449   2.586   3.046
  798HOH     H2 2581   0.471   2.690   3.154
  799HOH      O 2582   0.419   3.957   0.076
  799HOH     H1 2583   0.393   3.869   0.105
  799HOH     H2 2584   0.494   3.979   0.130
  800HOH      O 2585   3.671   1.222   0.039
  800HOH     H1 2586   3.711   1.290  -0.016
  800HOH     H2 2587   3.745   1.169   0.067
  801HOH      O 2588   3.076   3.364   1.022
  801HOH     H1 2589   3.160   3.331   1.054
  801HOH     H2 2590   3.099   3.423   0.950
  802HOH      O 2591   1.549   1.130   3.293
  802HOH     H1 2592   1.535   1.213   3.249
  802HOH     H2 2593   1.634   1.099   3.260
  803HOH      O 2594   3.417   2.546   2.987
  803HOH     H1 2595   3.394   2.596   3.066
  803HOH     H2 2596   3.342   2.489   2.972
  804HOH      O 2597   0.961   2.261   1.935
  804HOH     H1 2598   1.000   2.327   1.878
  804HOH     H2 2599   0.894   2.220   1.880
  805HOH      O 2600   1.743   0.347   0.766
  805HOH     H1 2601   1.759   0.440   0.780
  805HOH     H2 2602   1.717   0.340   0.674
  806HOH      O 2603   1.825   3.250   2.833
  806HOH     H1 2604   1.778   3.237   2.915
  806HOH     H2 2605   1.759   3.279   2.771
  807HOH      O 2606   1.009   0.548   2.244
  807HOH     H1 2607   1.056   0.484   2.190
  807HOH     H2 2608   1.008   0.628   2.191
  808HOH      O 2609   2.485   2.341   2.643
  808HOH     H1 2610   2.467   2.247   2.652
  808HOH     H2 2611   2.427   2.382   2.707
  809HOH      O 2612   3.415   2.773   3.816
  809HOH     H1 2613   3.453   2.718   3.885
  809HOH     H2 2614   3.324   2.784   3.844
  810HOH      O 2615   3.359   2.827   0.172
  810HOH     H1 2616   3.333   2.782   0.252
  810HOH     H2 2617   3.277   2.863   0.137
  811HOH      O 2618   0.996   2.123   1.337
  811HOH     H1 2619   0.959   2.197   1.289
  811HOH     H2 2620   1.029   2.162   1.419
  812HOH      O 2621   1.589   1.402   2.670
  812HOH     H1 2622   1.546   1.363   2.746
  812HOH     H2 2623   1.528   1.469   2.639
  813HOH      O 2624   0.462   1.993   1.083
  813HOH     H1 2625   0.407   2.070   1.067
  813HOH     H2 2626   0.467   1.949   0.998
  814HOH      O 2627   1.806   1.820   0.482
  814HOH     H1 2628   1.825   1.777   0.566
  814HOH     H2 2629   1.721   1.785   0.456
  815HOH      O 2630   1.782   3.557   2.937
  815HOH     H1 2631   1.783   3.478   2.991
  815HOH     H2 2632   1.861   3.604   2.964
  816HOH      O 2633   0.045   3.920   3.876
  816HOH     H1 2634   0.088   3.835   3.871
  816HOH     H2 2635   0.007   3.922   3.964
  817HOH      O 2636   3.015   3.530   2.539
  817HOH     H1 2637   2.971   3.610   2.513
  817HOH     H2 2638   3.054   3.550   2.625
  818HOH      O 2639   1.614   2.353   2.164
  818HOH     H1 2640   1.685   2.379   2.105
  818HOH     H2 2641   1.657   2.298   2.229
  819HOH      O 2642   1.253   2.336   2.353
  819HOH     H1 2643   1.241   2.246   2.324
  819HOH     H2 2644   1.166   2.365   2.378
  820HOH      O 2645   1.941   2.024   0.973
  820HOH     H1 2646   1.850   2.039   0.948
  820HOH     H2 2647   1.942   2.031   1.068
  821HOH      O 2648   1.103   2.941   2.348
  821HOH     H1 2649   1.089   2.948   2.254
  821HOH     H2 2650   1.077   2.851   2.369
  822HOH      O 2651   2.867   0.771   0.742
  822HOH     H1 2652   2.814   0.788   0.664
  822HOH     H2 2653   2.874   0.855   0.786
  823HOH      O 2654   3.439   0.062   2.388
  823HOH     H1 2655   3.403   0.013   2.314
  823HOH     H2 2656   3.534   0.054   2.378
  824HOH      O 2657   1.426   1.184   1.567
  824HOH     H1 2658   1.389   1.262   1.609
  824HOH     H2 2659   1.370   1.112   1.594
  825HOH      O 2660   4.030   1.782   1.526
  825HOH     H1 2661   4.007   1.797   1.618
  825HOH     H2 2662   4.026   1.870   1.486
  826HOH      O 2663   2.477   1.173   3.727
  826HOH     H1 2664   2.555   1.226   3.710
  826HOH     H2 2665   2.505   1.109   3.793
  827HOH      O 2666   3.179   1.559   1.143
  827HOH     H1 2667   3.258   1.610   1.160
  827HOH     H2 2668   3.132   1.609   1.076
  828HOH      O 2669   0.400   3.836   1.814
  828HOH     H1 2670   0.316   3.847   1.768
  828HOH     H2 2671   0.403   3.744   1.838
  829HOH      O 2672   2.464   1.329   2.624
  829HOH     H1 2673   2.415   1.256   2.584
  829HOH     H2 2674   2.553   1.295   2.633
  830HOH      O 2675   3.228   4.004   2.526
  830HOH     H1 2676   3.195   3.934   2.469
  830HOH     H2 2677   3.300   4.043   2.478
  831HOH      O 2678   2.434   3.344   1.443
  831HOH     H1 2679   2.527   3.330   1.462
  831HOH     H2 2680   2.422   3.305   1.357
  832HOH      O 2681   0.509   3.908   1.426
  832HOH     H1 2682   0.549   3.829   1.462
  832HOH     H2 2683   0.454   3.877   1.354
  833HOH      O 2684   2.009   1.061   0.930
  833HOH     H1 2685   2.043   1.037   0.844
  833HOH     H2 2686   1.920   1.093   0.913
  834HOH      O 2687   1.872   2.223   3.978
  834HOH     H1 2688   1.964   2.227   3.953
  834HOH     H2 2689   1.828   2.186   3.902
  835HOH      O 2690   2.125   3.418   0.256
  835HOH     H1 2691   2.126   3.392   0.164
  835HOH     H2 2692   2.188   3.490   0.262
  836HOH      O 2693   0.960   1.541   1.592
  836HOH     H1 2694   0.927   1.474   1.533
  836HOH     H2 2695   0.893   1.548   1.660
  837HOH      O 2696   2.432   3.482   0.233
  837HOH     H1 2697   2.365   3.550   0.223
  837HOH     H2 2698   2.436   3.466   0.327
  838HOH      O 2699   2.672   0.981   0.967
  838HOH     H1 2700   2.759   1.000   0.931
  838HOH     H2 2701   2.628   1.066   0.968
  839HOH      O 2702   3.127   1.698   0.047
  839HOH     H1 2703   3.167   1.783   0.029
  839HOH     H2 2704   3.068   1.714   0.121
  840HOH      O 2705   2.473   1.741   0.718
  840HOH     H1 2706   2.460   1.799   0.793
  840HOH     H2 2707   2.462   1.653   0.754
  841HOH      O 2708   1.510   1.843   2.589
  841HOH     H1 2709   1.513   1.755   2.552
  841HOH     H2 2710   1.418   1.857   2.611
  842HOH      O 2711   2.754   1.536   3.853
  842HOH     H1 2712   2.701   1.500   3.925
  842HOH     H2 2713   2.731   1.629   3.851
  843HOH      O 2714   2.750   3.841   3.285
  843HOH     H1 2715   2.783   3.824   3.373
  843HOH     H2 2716   2.791   3.924   3.260
  844HOH      O 2717   0.272   0.937   1.292
  844HOH     H1 2718   0.227   0.867   1.245
  844HOH     H2 2719   0.217   1.014   1.281
  845HOH      O 2720   3.945   1.777   3.640
  845HOH     H1 2721   3.972   1.804   3.552
  845HOH     H2 2722   3.895   1.697   3.626
  846HOH      O 2723   3.443   3.911   1.618
  846HOH     H1 2724   3.440   3.907   1.523
  846HOH     H2 2725   3.437   3.819   1.646
  847HOH      O 2726   1.716   0.165   1.416
  847HOH     H1 2727   1.804   0.162   1.454
  847HOH     H2 2728   1.692   0.073   1.405
  848HOH      O 2729   0.441   3.585   3.258
  848HOH     H1 2730   0.439   3.674   3.294
  848HOH     H2 2731   0.524   3.580   3.212
  849HOH      O 2732   3.256   3.884   3.921
  849HOH     H1 2733   3.298   3.799   3.914
  849HOH     H2 2734   3.324   3.941   3.957
  850HOH      O 2735   2.583   3.053   2.681
  850HOH     H1 2736   2.616   2.970   2.714
  850HOH     H2 2737   2.488   3.047   2.690
  851HOH      O 2738   1.407   1.834   3.082
  851HOH     H1 2739   1.374   1.923   3.095
  851HOH     H2 2740   1.414   1.797   3.170
  852HOH      O 2741   2.515   0.454   1.482
  852HOH     H1 2742   2.574   0.514   1.528
  852HOH     H2 2743   2.479   0.399   1.551
  853HOH      O 2744   2.783   2.245   2.375
  853HOH     H1 2745   2.741   2.308   2.316
  853HOH     H2 2746   2.738   2.163   2.359
  854HOH      O 2747   1.798   0.186   2.988
  854HOH     H1 2748   1.841   0.112   2.947
  854HOH     H2 2749   1.802   0.256   2.922
  855HOH      O 2750   2.998   1.696   1.484
  855HOH     H1 2751   2.993   1.792   1.481
  855HOH     H2 2752   3.052   1.678   1.561
  856HOH      O 2753   2.305   2.425   1.721
  856HOH     H1 2754   2.363   2.395   1.651
  856HOH     H2 2755   2.274   2.511   1.692
  857HOH      O 2756   0.036   0.571   4.012
  857HOH     H1 2757  -0.033   0.607   3.957
  857HOH     H2 2758   0.116   0.584   3.961
  858HOH      O 2759   2.010   1.854   1.430
  858HOH     H1 2760   2.099   1.819   1.417
  858HOH     H2 2761   1.961   1.821   1.355
  859HOH      O 2762   3.770   0.953   3.461
  859HOH     H1 2763   3.692   0.922   3.508
  859HOH     H2 2764   3.809   0.873   3.425
  860HOH      O 2765   1.694   1.758   0.820
  860HOH     H1 2766   1.780   1.783   0.787
  860HOH     H2 2767   1.712   1.700   0.893
  861HOH      O 2768   0.429   2.079   2.025
  861HOH     H1 2769   0.396   2.168   2.037
  861HOH     H2 2770   0.497   2.087   1.958
  862HOH      O 2771   1.290   3.431   2.973
  862HOH     H1 2772   1.335   3.512   2.951
  862HOH     H2 2773   1.279   3.434   3.068
  863HOH      O 2774   3.641   2.533   2.180
  863HOH     H1 2775   3.599   2.618   2.191
  863HOH     H2 2776   3.654   2.500   2.269
  864HOH      O 2777   3.479   3.120   1.235
  864HOH     H1 2778   3.546   3.156   1.294
  864HOH     H2 2779   3.523   3.046   1.192
  865HOH      O 2780   0.869   3.484   1.903
  865HOH     H1 2781   0.900   3.431   1.977
  865HOH     H2 2782   0.905   3.441   1.826
  866HOH      O 2783   2.504   3.610   2.048
  866HOH     H1 2784   2.570   3.584   1.984
  866HOH     H2 2785   2.484   3.530   2.096
  867HOH      O 2786   1.164   0.185   3.452
  867HOH     H1 2787   1.209   0.205   3.370
  867HOH     H2 2788   1.175   0.264   3.505
  868HOH      O 2789   0.439   2.614   0.694
  868HOH     H1 2790   0.446   2.606   0.789
  868HOH     H2 2791   0.347   2.594   0.675
  869HOH      O 2792   3.982   1.080   0.386
  869HOH     H1 2793   4.059   1.132   0.408
  869HOH     H2 2794   4.014   0.990   0.383
  870HOH      O 2795   4.024   1.961   2.380
  870HOH     H1 2796   3.941   1.946   2.335
  870HOH     H2 2797   4.072   2.019   2.322
  871HOH      O 2798   0.728   0.579   2.743
  871HOH     H1 2799   0.633   0.584   2.754
  871HOH     H2 2800   0.741   0.517   2.672
  872HOH      O 2801   2.977   1.345   3.748
  872HOH     H1 2802   3.061   1.371   3.786
  872HOH     H2 2803   2.915   1.410   3.782
  873HOH      O 2804   0.611   0.137   2.908
  873HOH     H1 2805   0.621   0.052   2.864
  873HOH     H2 2806   0.691   0.185   2.887
  874HOH      O 2807   2.074   2.261   1.092
  874HOH     H1 2808   2.088   2.232   1.002
  874HOH     H2 2809   2.007   2.202   1.126
  875HOH      O 2810   0.953   1.795   3.346
  875HOH     H1 2811   0.925   1.805   3.437
  875HOH     H2 2812   1.027   1.855   3.336
  876HOH      O 2813   3.505   0.817   2.190
  876HOH     H1 2814   3.575   0.875   2.221
  876HOH     H2 2815   3.526   0.802   2.098
  877HOH      O 2816   2.464   3.604   1.331
  877HOH     H1 2817   2.559   3.609   1.325
  877HOH     H2 2818   2.447   3.514   1.361
  878HOH      O 2819   1.178   0.957   3.625
  878HOH     H1 2820   1.272   0.956   3.604
  878HOH     H2 2821   1.172   1.009   3.705
  879HOH      O 2822   2.540   2.378   1.876
  879HOH     H1 2823   2.584   2.460   1.899
  879HOH     H2 2824   2.448   2.400   1.872
  880HOH      O 2825   0.661   0.967   0.014
  880HOH     H1 2826   0.693   0.936  -0.071
  880HOH     H2 2827   0.633   0.888   0.060
  881HOH      O 2828   3.687   1.016   2.274
  881HOH     H1 2829   3.649   1.064   2.348
  881HOH     H2 2830   3.770   1.059   2.257
  882HOH      O 2831   3.536   3.482   1.885
  882HOH     H1 2832   3.631   3.487   1.896
  882HOH     H2 2833   3.503   3.461   1.973
  883HOH      O 2834   2.667   1.638   2.300
  883HOH     H1 2835   2.658   1.655   2.206
  883HOH     H2 2836   2.728   1.706   2.330
  884HOH      O 2837   1.953   2.001   3.758
  884HOH     H1 2838   1.933   2.073   3.699
  884HOH     H2 2839   1.990   1.933   3.701
  885HOH      O 2840   0.589   1.813   3.649
  885HOH     H1 2841   0.676   1.787   3.619
  885HOH     H2 2842   0.602   1.837   3.741
  886HOH      O 2843   2.438   0.045   2.018
  886HOH     H1 2844   2.420   0.100   1.941
  886HOH     H2 2845   2.386  -0.034   2.004
  887HOH      O 2846   2.871   0.445   3.174
  887HOH     H1 2847   2.813   0.479   3.106
  887HOH     H2 2848   2.935   0.392   3.127
  888HOH      O 2849   0.659   3.404   2.675
  888HOH     H1 2850   0.694   3.489   2.701
  888HOH     H2 2851   0.608   3.375   2.751
  889HOH      O 2852   2.028   1.318   0.411
  889HOH     H1 2853   1.955   1.259   0.429
  889HOH     H2 2854   1.987   1.403   0.394
  890HOH      O 2855   2.992   0.634   0.934
  890HOH     H1 2856   3.081   0.608   0.907
  890HOH     H2 2857   2.949   0.659   0.852
  891HOH      O 2858   2.367   2.333   2.379
  891HOH     H1 2859   2.413   2.270   2.324
  891HOH     H2 2860   2.415   2.332   2.462
  892HOH      O 2861   2.716   3.842   0.813
  892HOH     H1 2862   2.650   3.904   0.842
  892HOH     H2 2863   2.769   3.825   0.891
  893HOH      O 2864   2.591   3.381   0.071
  893HOH     H1 2865   2.525   3.431   0.119
  893HOH     H2 2866   2.671   3.432   0.080
  894HOH      O 2867   1.694   0.156   2.724
  894HOH     H1 2868   1.604   0.152   2.757
  894HOH     H2 2869   1.690   0.120   2.636
  895HOH      O 2870   2.543   3.884   1.041
  895HOH     H1 2871   2.453   3.910   1.061
  895HOH     H2 2872   2.588   3.884   1.125
  896HOH      O 2873   2.250   0.944   3.669
  896HOH     H1 2874   2.343   0.928   3.684
  896HOH     H2 2875   2.206   0.876   3.721
  897HOH      O 2876   0.640   0.551   3.506
  897HOH     H1 2877   0.601   0.629   3.546
  897HOH     H2 2878   0.686   0.508   3.578
  898HOH      O 2879   2.263   1.139   1.561
  898HOH     H1 2880   2.274   1.213   1.621
  898HOH     H2 2881   2.282   1.175   1.474
  899HOH      O 2882   2.496   0.715   1.091
  899HOH     H1 2883   2.450   0.758   1.019
  899HOH     H2 2884   2.552   0.650   1.049
  900HOH      O 2885   2.054   1.532   1.866
  900HOH     H1 2886   1.969   1.577   1.869
  900HOH     H2 2887   2.082   1.528   1.958
  901HOH      O 2888   2.035   0.621   0.723
  901HOH     H1 2889   1.942   0.618   0.701
  901HOH     H2 2890   2.080   0.607   0.640
  902HOH      O 2891   0.168   2.611   1.598
  902HOH     H1 2892   0.261   2.619   1.619
  902HOH     H2 2893   0.157   2.662   1.518
  903HOH      O 2894   2.261   3.783   2.933
  903HOH     H1 2895   2.338   3.747   2.977
  903HOH     H2 2896   2.296   3.855   2.880
  904HOH      O 2897   3.795   1.722   2.904
  904HOH     H1 2898   3.824   1.685   2.988
  904HOH     H2 2899   3.721   1.777   2.927
  905HOH      O 2900   0.279   2.501   3.272
  905HOH     H1 2901   0.271   2.552   3.191
  905HOH     H2 2902   0.253   2.412   3.247
  906HOH      O 2903   2.012   2.490   0.705
  906HOH     H1 2904   1.950   2.481   0.633
  906HOH     H2 2905   1.958   2.514   0.780
  907HOH      O 2906   3.061   2.377   1.607
  907HOH     H1 2907   3.092   2.446   1.548
  907HOH     H2 2908   2.967   2.372   1.590
  908HOH      O 2909   1.333   3.577   3.270
  908HOH     H1 2910   1.343   3.671   3.261
  908HOH     H2 2911   1.422   3.543   3.271
  909HOH      O 2912   0.695   0.683   0.970
  909HOH     H1 2913   0.647   0.716   1.045
  909HOH     H2 2914   0.631   0.629   0.922
  910HOH      O 2915   1.452   3.814   1.407
  910HOH     H1 2916   1.449   3.719   1.420
  910HOH     H2 2917   1.406   3.828   1.324
  911HOH      O 2918   1.857   0.170   1.136
  911HOH     H1 2919   1.818   0.230   1.200
  911HOH     H2 2920   1.925   0.221   1.093
  912HOH      O 2921   3.075   2.068   1.922
  912HOH     H1 2922   3.120   2.152   1.928
  912HOH     H2 2923   3.129   2.016   1.862
  913HOH      O 2924   0.711   3.078   1.610
  913HOH     H1 2925   0.747   3.099   1.696
  913HOH     H2 2926   0.690   3.163   1.571
  914HOH      O 2927   0.853   3.188   2.620
  914HOH     H1 2928   0.821   3.187   2.530
  914HOH     H2 2929   0.928   3.247   2.618
  915HOH      O 2930   3.420   3.107   0.763
  915HOH     H1 2931   3.468   3.040   0.812
  915HOH     H2 2932   3.347   3.131   0.819
  916HOH      O 2933   2.578   1.577   2.589
  916HOH     H1 2934   2.598   1.569   2.495
  916HOH     H2 2935   2.523   1.501   2.608
  917HOH      O 2936   3.346   3.169   2.870
  917HOH     H1 2937   3.250   3.171   2.866
  917HOH     H2 2938   3.372   3.261   2.860
  918HOH      O 2939   2.799   3.989   0.549
  918HOH     H1 2940   2.830   3.998   0.639
  918HOH     H2 2941   2.871   4.021   0.495
  919HOH      O 2942   2.175   0.190   1.974
  919HOH     H1 2943   2.100   0.245   1.995
  919HOH     H2 2944   2.212   0.229   1.895
  920HOH      O 2945   1.308   0.425   0.062
  920HOH     H1 2946   1.381   0.468   0.107
  920HOH     H2 2947   1.333   0.427  -0.030
  921HOH      O 2948   1.338   3.089   0.557
  921HOH     H1 2949   1.268   3.135   0.510
  921HOH     H2 2950   1.415   3.101   0.502
  922HOH      O 2951   3.914   3.038   2.987
  922HOH     H1 2952   3.971   3.084   3.048
  922HOH     H2 2953   3.968   3.027   2.908
  923HOH      O 2954   3.787   1.528   3.637
  923HOH     H1 2955   3.784   1.447   3.586
  923HOH     H2 2956   3.761   1.501   3.725
  924HOH      O 2957   0.785   1.015   3.731
  924HOH     H1 2958   0.855   1.070   3.696
  924HOH     H2 2959   0.827   0.931   3.747
  925HOH      O 2960   0.458   0.641   0.861
  925HOH     H1 2961   0.413   0.679   0.936
  925HOH     H2 2962   0.405   0.667   0.786
  926HOH      O 2963   2.416   0.344   2.671
  926HOH     H1 2964   2.335   0.298   2.653
  926HOH     H2 2965   2.467   0.338   2.590
  927HOH      O 2966   1.286   1.062   2.892
  927HOH     H1 2967   1.201   1.086   2.854
  927HOH     H2 2968   1.267   1.046   2.985
  928HOH      O 2969   3.581   0.503   1.558
  928HOH     H1 2970   3.623   0.568   1.502
  928HOH     H2 2971   3.488   0.525   1.557
  929HOH      O 2972   0.480   0.439   3.165
  929HOH     H1 2973   0.424   0.382   3.113
  929HOH     H2 2974   0.532   0.380   3.219
  930HOH      O 2975   3.138   0.839   3.468
  930HOH     H1 2976   3.191   0.773   3.423
  930HOH     H2 2977   3.184   0.853   3.551
  931HOH      O 2978   1.797   1.055   0.188
  931HOH     H1 2979   1.730   1.005   0.141
  931HOH     H2 2980   1.772   1.146   0.176
  932HOH      O 2981   1.016   0.479   3.913
  932HOH     H1 2982   0.959   0.419   3.864
  932HOH     H2 2983   1.065   0.526   3.845
  933HOH      O 2984   0.941   3.362   2.134
  933HOH     H1 2985   1.034   3.367   2.152
  933HOH     H2 2986   0.905   3.443   2.172
  934HOH      O 2987   3.094   1.450   2.923
  934HOH     H1 2988   3.140   1.520   2.875
  934HOH     H2 2989   3.085   1.484   3.012
  935HOH      O 2990   3.995   1.255   1.097
  935HOH     H1 2991   3.904   1.281   1.109
  935HOH     H2 2992   3.993   1.188   1.029
  936HOH      O 2993   3.933   1.598   1.279
  936HOH     H1 2994   3.855   1.551   1.310
  936HOH     H2 2995   3.937   1.677   1.334
  937HOH      O 2996   0.218   3.480   0.111
  937HOH     H1 2997   0.140   3.426   0.101
  937HOH     H2 2998   0.249   3.460   0.200
  938HOH      O 2999   0.394   1.513   0.983
  938HOH     H1 3000   0.336   1.585   1.007
  938HOH     H2 3001   0.336   1.451   0.938
  939HOH      O 3002   2.969   2.576   3.306
  939HOH     H1 3003   2.932   2.663   3.320
  939HOH     H2 3004   2.936   2.524   3.380
  940HOH      O 3005   2.034   1.319   2.647
  940HOH     H1 3006   2.108   1.262   2.624
  940HOH     H2 3007   1.982   1.267   2.707
  941HOH      O 3008   1.655   2.968   3.635
  941HOH     H1 3009   1.694   3.029   3.572
  941HOH     H2 3010   1.711   2.974   3.712
  942HOH      O 3011   1.124   2.212   1.578
  942HOH     H1 3012   1.033   2.225   1.603
  942HOH     H2 3013   1.156   2.145   1.639
  943HOH      O 3014   0.165   2.034   0.487
  943HOH     H1 3015   0.122   1.974   0.426
  943HOH     H2 3016   0.142   1.999   0.574
  944HOH      O 3017   0.571   3.028   0.317
  944HOH     H1 3018   0.583   2.940   0.351
  944HOH     H2 3019   0.482   3.028   0.282
  945HOH      O 3020   2.919   2.597   0.110
  945HOH     H1 3021   3.015   2.597   0.114
  945HOH     H2 3022   2.895   2.505   0.102
  946HOH      O 3023   2.853   1.228   3.163
  946HOH     H1 3024   2.828   1.138   3.142
  946HOH     H2 3025   2.907   1.220   3.241
  947HOH      O 3026   0.713   2.637   1.721
  947HOH     H1 3027   0.680   2.582   1.650
  947HOH     H2 3028   0.729   2.576   1.793
  948HOH      O 3029   3.721   2.047   1.346
  948HOH     H1 3030   3.700   2.122   1.290
  948HOH     H2 3031   3.733   2.085   1.433
  949HOH      O 3032   2.138   0.446   1.430
  949HOH     H1 3033   2.051   0.486   1.436
  949HOH     H2 3034   2.121   0.352   1.433
  950HOH      O 3035   2.453   2.853   1.700
  950HOH     H1 3036   2.466   2.901   1.618
  950HOH     H2 3037   2.535   2.866   1.748
  951HOH      O 3038   1.181   3.212   3.607
  951HOH     H1 3039   1.223   3.298   3.615
  951HOH     H2 3040   1.125   3.206   3.684
  952HOH      O 3041   2.815   2.159   0.950
  952HOH     H1 3042   2.858   2.195   1.028
  952HOH     H2 3043   2.796   2.236   0.896
  953HOH      O 3044   1.260   1.962   1.425
  953HOH     H1 3045   1.291   2.043   1.384
  953HOH     H2 3046   1.166   1.976   1.437
  954HOH      O 3047   1.790   0.563   0.125
  954HOH     H1 3048   1.860   0.524   0.074
  954HOH     H2 3049   1.755   0.632   0.069
  955HOH      O 3050   2.088   3.963   0.708
  955HOH     H1 3051   2.042   4.047   0.705
  955HOH     H2 3052   2.027   3.900   0.669
  956HOH      O 3053   3.309   0.872   3.690
  956HOH     H1 3054   3.313   0.833   3.778
  956HOH     H2 3055   3.301   0.966   3.706
  957HOH      O 3056   3.376   1.705   2.061
  957HOH     H1 3057   3.460   1.691   2.106
  957HOH     H2 3058   3.379   1.645   1.986
  958HOH      O 3059   3.350   3.900   2.754
  958HOH     H1 3060   3.298   3.914   2.675
  958HOH     H2 3061   3.310   3.956   2.820
  959HOH      O 3062   2.958   2.703   1.050
  959HOH     H1 3063   3.053   2.717   1.045
  959HOH     H2 3064   2.921   2.769   0.991
  960HOH      O 3065   2.476   1.235   0.179
  960HOH     H1 3066   2.424   1.200   0.106
  960HOH     H2 3067   2.419   1.301   0.218
  961HOH      O 3068   2.034   1.172   2.242
  961HOH     H1 3069   1.949   1.166   2.198
  961HOH     H2 3070   2.050   1.266   2.250
  962HOH      O 3071   2.602   1.446   3.250
  962HOH     H1 3072   2.545   1.492   3.188
  962HOH     H2 3073   2.690   1.454   3.213
  963HOH      O 3074   3.478   1.233   3.837
  963HOH     H1 3075   3.524   1.228   3.921
  963HOH     H2 3076   3.530   1.179   3.778
  964HOH      O 3077   0.753   1.873   1.045
  964HOH     H1 3078   0.781   1.841   0.959
  964HOH     H2 3079   0.663   1.903   1.031
  965HOH      O 3080   2.923   1.057   1.968
  965HOH     H1 3081   3.008   1.016   1.952
  965HOH     H2 3082   2.878   0.996   2.027
  966HOH      O 3083   0.971   2.859   1.322
  966HOH     H1 3084   0.939   2.788   1.378
  966HOH     H2 3085   1.029   2.910   1.379
  967HOH      O 3086   2.901   1.590   1.255
  967HOH     H1 3087   2.973   1.638   1.214
  967HOH     H2 3088   2.914   1.604   1.349
  968HOH      O 3089   1.044   3.454  -0.010
  968HOH     H1 3090   0.980   3.415   0.049
  968HOH     H2 3091   1.108   3.385  -0.027
  969HOH      O 3092   3.422   2.852   2.787
  969HOH     H1 3093   3.503   2.886   2.826
  969HOH     H2 3094   3.452   2.783   2.727
  970HOH      O 3095   3.242   1.635   2.735
  970HOH     H1 3096   3.236   1.700   2.665
  970HOH     H2 3097   3.303   1.569   2.702
  971HOH      O 3098   0.097   3.237   3.752
  971HOH     H1 3099   0.019   3.210   3.800
  971HOH     H2 3100   0.167   3.238   3.817
  972HOH      O 3101   3.470   1.970   1.526
  972HOH     H1 3102   3.434   2.038   1.583
  972HOH     H2 3103   3.528   2.017   1.466
  973HOH      O 3104   0.556   0.814   3.585
  973HOH     H1 3105   0.569   0.837   3.492
  973HOH     H2 3106   0.555   0.899   3.630
  974HOH      O 3107   1.887   3.089   1.969
  974HOH     H1 3108   1.812   3.076   2.028
  974HOH     H2 3109   1.952   3.136   2.022
  975HOH      O 3110   3.603   2.131   0.649
  975HOH     H1 3111   3.606   2.056   0.589
  975HOH     H2 3112   3.512   2.135   0.678
  976HOH      O 3113   2.020   2.210   1.526
  976HOH     H1 3114   2.025   2.269   1.451
  976HOH     H2 3115   2.097   2.154   1.518
  977HOH      O 3116   3.233   2.536   0.263
  977HOH     H1 3117   3.171   2.567   0.329
  977HOH     H2 3118   3.281   2.466   0.308
  978HOH      O 3119   3.566   2.331   2.900
  978HOH     H1 3120   3.638   2.296   2.953
  978HOH     H2 3121   3.533   2.405   2.951
  979HOH      O 3122   0.607   0.382   1.107
  979HOH     H1 3123   0.551   0.321   1.059
  979HOH     H2 3124   0.669   0.414   1.042
  980HOH      O 3125   2.512   2.850   3.865
  980HOH     H1 3126   2.483   2.915   3.929
  980HOH     H2 3127   2.504   2.766   3.911
  981HOH      O 3128   1.133   1.583   3.496
  981HOH     H1 3129   1.180   1.666   3.498
  981HOH     H2 3130   1.063   1.596   3.432
  982HOH      O 3131   1.454   2.904   0.737
  982HOH     H1 3132   1.510   2.981   0.749
  982HOH     H2 3133   1.390   2.931   0.672
  983HOH      O 3134   2.105   1.220   0.154
  983HOH     H1 3135   2.077   1.233   0.244
  983HOH     H2 3136   2.177   1.282   0.142
  984HOH      O 3137   0.776   0.857   1.989
  984HOH     H1 3138   0.694   0.907   1.995
  984HOH     H2 3139   0.756   0.787   1.927
  985HOH      O 3140   2.664   3.298   0.798
  985HOH     H1 3141   2.731   3.231   0.816
  985HOH     H2 3142   2.591   3.249   0.762
  986HOH      O 3143   0.729   2.333   0.074
  986HOH     H1 3144   0.775   2.282   0.007
  986HOH     H2 3145   0.636   2.315   0.059
  987HOH      O 3146   2.171   3.997   2.581
  987HOH     H1 3147   2.185   3.902   2.574
  987HOH     H2 3148   2.103   4.007   2.647
  988HOH      O 3149   0.828   2.160   0.265
  988HOH     H1 3150   0.826   2.243   0.218
  988HOH     H2 3151   0.883   2.178   0.341
  989HOH      O 3152   1.281   2.191   2.851
  989HOH     H1 3153   1.304   2.182   2.759
  989HOH     H2 3154   1.324   2.117   2.894
  990HOH      O 3155   3.599   1.946   0.447
  990HOH     H1 3156   3.537   1.978   0.381
  990HOH     H2 3157   3.555   1.871   0.486
  991HOH      O 3158   0.223   0.624   3.837
  991HOH     H1 3159   0.307   0.670   3.836
  991HOH     H2 3160   0.244   0.535   3.811
  992HOH      O 3161   3.865   0.630   3.824
  992HOH     H1 3162   3.844   0.654   3.733
  992HOH     H2 3163   3.787   0.653   3.873
  993HOH      O 3164   1.794   1.659   1.909
  993HOH     H1 3165   1.719   1.695   1.862
  993HOH     H2 3166   1.833   1.734   1.954
  994HOH      O 3167   0.707   2.938   3.873
  994HOH     H1 3168   0.636   2.968   3.816
  994HOH     H2 3169   0.662   2.893   3.945
  995HOH      O 3170   1.656   2.001   1.323
  995HOH     H1 3171   1.625   2.084   1.358
  995HOH     H2 3172   1.610   1.992   1.239
  996HOH      O 3173   1.580  -0.015   1.132
  996HOH     H1 3174   1.516  -0.031   1.063
  996HOH     H2 3175   1.538   0.051   1.188
  997HOH      O 3176   2.873   2.517   1.377
  997HOH     H1 3177   2.803   2.471   1.331
  997HOH     H2 3178   2.848   2.509   1.470
  998HOH      O 3179   2.681   2.950   0.600
  998HOH     H1 3180   2.619   3.021   0.619
  998HOH     H2 3181   2.662   2.925   0.510
  999HOH      O 3182   3.096   1.355   1.325
  999HOH     H1 3183   3.126   1.443   1.300
  999HOH     H2 3184   3.030   1.333   1.259
 1000HOH      O 3185   3.389   3.707   2.950
 1000HOH     H1 3186   3.388   3.767   2.874
 1000HOH     H2 3187   3.442   3.752   3.015
 1001HOH      O 3188   2.006   2.458   1.822
 1001HOH     H1 3189   2.097   2.432   1.840
 1001HOH     H2 3190   1.978   2.400   1.751
 1002HOH      O 3191   3.727   2.770   1.305
 1002HOH     H1 3192   3.694   2.820   1.230
 1002HOH     H2 3193   3.793   2.827   1.344
 1003HOH      O 3194   1.983   3.395   1.676
 1003HOH     H1 3195   1.899   3.439   1.664
 1003HOH     H2 3196   2.035   3.420   1.599
 1004HOH      O 3197   0.586   3.258   3.512
 1004HOH     H1 3198   0.534   3.225   3.438
 1004HOH     H2 3199   0.654   3.192   3.525
 1005HOH      O 3200   2.388   1.331   1.711
 1005HOH     H1 3201   2.428   1.398   1.767
 1005HOH     H2 3202   2.380   1.374   1.626
 1006HOH      O 3203   1.471   0.939   0.431
 1006HOH     H1 3204   1.421   0.977   0.359
 1006HOH     H2 3205   1.489   1.013   0.489
 1007HOH      O 3206   0.747   1.390   2.037
 1007HOH     H1 3207   0.837   1.423   2.029
 1007HOH     H2 3208   0.757   1.296   2.051
 1008HOH      O 3209   1.388   3.282   2.779
 1008HOH     H1 3210   1.342   3.334   2.844
 1008HOH     H2 3211   1.449   3.343   2.738
 1009HOH      O 3212   1.319   0.830   2.353
 1009HOH     H1 3213   1.287   0.860   2.438
 1009HOH     H2 3214   1.264   0.876   2.289
 1010HOH      O 3215   2.084   3.073   3.549
 1010HOH     H1 3216   2.060   3.060   3.457
 1010HOH     H2 3217   2.048   2.998   3.595
 1011HOH      O 3218   0.193   3.218   3.489
 1011HOH     H1 3219   0.174   3.233   3.581
 1011HOH     H2 3220   0.108   3.196   3.450
 1012HOH      O 3221   1.560   2.393   1.136
 1012HOH     H1 3222   1.531   2.482   1.157
 1012HOH     H2 3223   1.481   2.348   1.106
 1013HOH      O 3224   0.301   3.160   3.928
 1013HOH     H1 3225   0.377   3.153   3.870
 1013HOH     H2 3226   0.260   3.074   3.923
 1014HOH      O 3227   2.769   0.644   2.203
 1014HOH     H1 3228   2.688   0.618   2.158
 1014HOH     H2 3229   2.839   0.606   2.150
 1015HOH      O 3230   2.677   2.154   1.806
 1015HOH     H1 3231   2.730   2.139   1.884
 1015HOH     H2 3232   2.628   2.234   1.826
 1016HOH      O 3233   2.571   0.461   3.002
 1016HOH     H1 3234   2.595   0.545   3.040
 1016HOH     H2 3235   2.482   0.472   2.970
 1017HOH      O 3236   0.451   1.695   2.753
 1017HOH     H1 3237   0.496   1.698   2.838
 1017HOH     H2 3238   0.397   1.616   2.758
 1018HOH      O 3239   1.037   0.591   1.947
 1018HOH     H1 3240   0.957   0.609   1.898
 1018HOH     H2 3241   1.085   0.674   1.945
 1019HOH      O 3242   3.318   2.628   3.505
 1019HOH     H1 3243   3.246   2.641   3.567
 1019HOH     H2 3244   3.345   2.537   3.518
 1020HOH      O 3245   3.789   3.415   2.358
 1020HOH     H1 3246   3.800   3.412   2.453
 1020HOH     H2 3247   3.874   3.388   2.323
 1021HOH      O 3248   1.716   3.099   2.411
 1021HOH     H1 3249   1.638   3.095   2.467
 1021HOH     H2 3250   1.787   3.066   2.465
 1022HOH      O 3251   1.883   1.781   1.197
 1022HOH     H1 3252   1.808   1.723   1.206
 1022HOH     H2 3253   1.916   1.766   1.109
 1023HOH      O 3254   3.499   0.080   3.627
 1023HOH     H1 3255   3.592   0.062   3.616
 1023HOH     H2 3256   3.468   0.098   3.538
 1024HOH      O 3257   1.306   0.841   1.421
 1024HOH     H1 3258   1.340   0.766   1.469
 1024HOH     H2 3259   1.289   0.907   1.489
 1025HOH      O 3260   3.906   1.417   1.595
 1025HOH     H1 3261   3.995   1.452   1.585
 1025HOH     H2 3262   3.917   1.338   1.647
 1026HOH      O 3263   1.391   3.357   1.235
 1026HOH     H1 3264   1.362   3.267   1.221
 1026HOH     H2 3265   1.341   3.409   1.173
 1027HOH      O 3266   0.028   1.261   3.113
 1027HOH     H1 3267   0.020   1.341   3.165
 1027HOH     H2 3268  -0.026   1.197   3.159
 1028HOH      O 3269   0.175   0.222   3.529
 1028HOH     H1 3270   0.164   0.315   3.549
 1028HOH     H2 3271   0.176   0.219   3.433
 1029HOH      O 3272   3.925   1.026   2.591
 1029HOH     H1 3273   3.998   1.026   2.653
 1029HOH     H2 3274   3.934   0.943   2.543
 1030HOH      O 3275   3.302   1.429   3.573
 1030HOH     H1 3276   3.327   1.470   3.656
 1030HOH     H2 3277   3.206   1.438   3.570
 1031HOH      O 3278   0.680   2.919   1.928
 1031HOH     H1 3279   0.612   2.896   1.864
 1031HOH     H2 3280   0.694   3.013   1.914
 1032HOH      O 3281   1.955   3.003   0.474
 1032HOH     H1 3282   1.886   3.009   0.540
 1032HOH     H2 3283   1.979   3.094   0.455
 1033HOH      O 3284   3.423   0.404   2.989
 1033HOH     H1 3285   3.460   0.491   2.982
 1033HOH     H2 3286   3.372   0.406   3.070
 1034HOH      O 3287   1.228   3.876   1.156
 1034HOH     H1 3288   1.171   3.822   1.212
 1034HOH     H2 3289   1.305   3.821   1.141
 1035HOH      O 3290   2.268   0.052   1.520
 1035HOH     H1 3291   2.315  -0.006   1.459
 1035HOH     H2 3292   2.335   0.077   1.584
 1036HOH      O 3293   0.578   2.122   1.789
 1036HOH     H1 3294   0.545   2.070   1.716
 1036HOH     H2 3295   0.671   2.130   1.772
 1037HOH      O 3296   2.136  -0.010   3.502
 1037HOH     H1 3297   2.114   0.065   3.446
 1037HOH     H2 3298   2.138   0.026   3.591
 1038HOH      O 3299   0.698   1.181   0.650
 1038HOH     H1 3300   0.656   1.121   0.712
 1038HOH     H2 3301   0.634   1.250   0.636
 1039HOH      O 3302   2.372   1.185   0.894
 1039HOH     H1 3303   2.394   1.126   0.822
 1039HOH     H2 3304   2.456   1.208   0.933
 1040HOH      O 3305   1.531   1.653   1.270
 1040HOH     H1 3306   1.448   1.667   1.226
 1040HOH     H2 3307   1.531   1.560   1.293
 1041HOH      O 3308   2.969   1.278   2.345
 1041HOH     H1 3309   3.058   1.245   2.331
 1041HOH     H2 3310   2.979   1.346   2.412
 1042HOH      O 3311   3.386   2.796   1.966
 1042HOH     H1 3312   3.456   2.773   2.027
 1042HOH     H2 3313   3.346   2.874   2.003
 1043HOH      O 3314   0.684   3.839   0.701
 1043HOH     H1 3315   0.708   3.839   0.608
 1043HOH     H2 3316   0.589   3.826   0.700
 1044HOH      O 3317   0.180   1.733   3.766
 1044HOH     H1 3318   0.106   1.794   3.769
 1044HOH     H2 3319   0.164   1.680   3.688
 1045HOH      O 3320   1.992   1.847   1.940
 1045HOH     H1 3321   2.048   1.805   2.005
 1045HOH     H2 3322   2.051   1.866   1.867
 1046HOH      O 3323   2.632   2.638   2.281
 1046HOH     H1 3324   2.576   2.635   2.358
 1046HOH     H2 3325   2.706   2.694   2.307
 1047HOH      O 3326   3.048   1.074   3.333
 1047HOH     H1 3327   3.087   1.005   3.386
 1047HOH     H2 3328   2.973   1.104   3.383
 1048HOH      O 3329   2.825   1.840   2.455
 1048HOH     H1 3330   2.867   1.854   2.370
 1048HOH     H2 3331   2.864   1.907   2.512
 1049HOH      O 3332   1.588   3.277   1.451
 1049HOH     H1 3333   1.552   3.279   1.363
 1049HOH     H2 3334   1.512   3.267   1.508
 1050HOH      O 3335   2.643   1.828   2.655
 1050HOH     H1 3336   2.705   1.833   2.583
 1050HOH     H2 3337   2.605   1.740   2.648
 1051HOH      O 3338   3.336   2.018   0.350
 1051HOH     H1 3339   3.317   2.004   0.443
 1051HOH     H2 3340   3.262   1.977   0.304
 1052HOH      O 3341   2.526   2.369   1.558
 1052HOH     H1 3342   2.597   2.431   1.574
 1052HOH     H2 3343   2.481   2.404   1.480
 1053HOH      O 3344   0.528   3.529   3.584
 1053HOH     H1 3345   0.556   3.446   3.546
 1053HOH     H2 3346   0.433   3.530   3.572
 1054HOH      O 3347   2.862   3.360   1.665
 1054HOH     H1 3348   2.910   3.382   1.585
 1054HOH     H2 3349   2.895   3.273   1.688
 1055HOH      O 3350   1.966   3.598   1.001
 1055HOH     H1 3351   2.017   3.579   1.080
 1055HOH     H2 3352   2.024   3.650   0.946
 1056HOH      O 3353   1.133   0.947   2.197
 1056HOH     H1 3354   1.163   1.034   2.221
 1056HOH     H2 3355   1.042   0.943   2.226
 1057HOH      O 3356   0.824   3.434   3.561
 1057HOH     H1 3357   0.857   3.402   3.477
 1057HOH     H2 3358   0.729   3.428   3.553
 1058HOH      O 3359   1.430   2.081   3.935
 1058HOH     H1 3360   1.415   2.077   4.030
 1058HOH     H2 3361   1.439   1.990   3.909
 1059HOH      O 3362   1.822   1.405   1.372
 1059HOH     H1 3363   1.732   1.376   1.354
 1059HOH     H2 3364   1.813   1.467   1.444
 1060HOH      O 3365   2.785   2.496   0.966
 1060HOH     H1 3366   2.735   2.469   1.043
 1060HOH     H2 3367   2.865   2.536   1.001
 1061HOH      O 3368   1.458   1.023   3.516
 1061HOH     H1 3369   1.453   0.931   3.489
 1061HOH     H2 3370   1.479   1.070   3.435
 1062HOH      O 3371   0.923   3.655   3.708
 1062HOH     H1 3372   0.971   3.710   3.645
 1062HOH     H2 3373   0.879   3.590   3.653
 1063HOH      O 3374   2.921   1.675   2.647
 1063HOH     H1 3375   2.843   1.686   2.593
 1063HOH     H2 3376   2.974   1.753   2.629
 1064HOH      O 3377   2.436   3.436   3.836
 1064HOH     H1 3378   2.457   3.349   3.870
 1064HOH     H2 3379   2.521   3.478   3.825
 1065HOH      O 3380   0.217   2.693   3.667
 1065HOH     H1 3381   0.161   2.688   3.744
 1065HOH     H2 3382   0.157   2.693   3.593
 1066HOH      O 3383   3.456   1.245   1.963
 1066HOH     H1 3384   3.378   1.208   2.005
 1066HOH     H2 3385   3.479   1.182   1.895
 1067HOH      O 3386   3.516   0.271   0.074
 1067HOH     H1 3387   3.591   0.320   0.108
 1067HOH     H2 3388   3.536   0.260  -0.019
 1068HOH      O 3389   1.117   1.687   3.863
 1068HOH     H1 3390   1.157   1.630   3.798
 1068HOH     H2 3391   1.091   1.628   3.934
 1069HOH      O 3392   0.677   3.625   1.798
 1069HOH     H1 3393   0.607   3.559   1.803
 1069HOH     H2 3394   0.750   3.585   1.845
 1070HOH      O 3395   0.942   2.248   0.825
 1070HOH     H1 3396   0.873   2.198   0.868
 1070HOH     H2 3397   1.022   2.226   0.873
 1071HOH      O 3398   0.573   2.788   0.043
 1071HOH     H1 3399   0.620   2.729   0.102
 1071HOH     H2 3400   0.486   2.796   0.083
 1072HOH      O 3401   3.766   2.706   1.870
 1072HOH     H1 3402   3.823   2.740   1.801
 1072HOH     H2 3403   3.680   2.699   1.828
 1073HOH      O 3404   0.645   2.223   3.305
 1073HOH     H1 3405   0.623   2.203   3.214
 1073HOH     H2 3406   0.584   2.169   3.356
 1074HOH      O 3407   1.934   1.103   1.215
 1074HOH     H1 3408   1.840   1.083   1.215
 1074HOH     H2 3409   1.941   1.185   1.264
 1075HOH      O 3410   0.540   2.105   0.284
 1075HOH     H1 3411   0.635   2.117   0.285
 1075HOH     H2 3412   0.508   2.172   0.224
 1076HOH      O 3413   0.789   3.013   0.779
 1076HOH     H1 3414   0.767   2.924   0.753
 1076HOH     H2 3415   0.867   3.004   0.834
 1077HOH      O 3416   2.186   1.432   2.380
 1077HOH     H1 3417   2.185   1.424   2.475
 1077HOH     H2 3418   2.278   1.440   2.357
 1078HOH      O 3419   0.387   0.613   1.539
 1078HOH     H1 3420   0.366   0.533   1.587
 1078HOH     H2 3421   0.459   0.588   1.481
 1079HOH      O 3422   3.561   2.286   1.393
 1079HOH     H1 3423   3.489   2.328   1.440
 1079HOH     H2 3424   3.598   2.356   1.339
 1080HOH      O 3425   2.765   0.075   2.926
 1080HOH     H1 3426   2.685   0.120   2.899
 1080HOH     H2 3427   2.782   0.013   2.855
 1081HOH      O 3428   3.715   2.051   1.813
 1081HOH     H1 3429   3.772   2.114   1.856
 1081HOH     H2 3430   3.651   2.026   1.879
 1082HOH      O 3431   1.789   3.316   3.109
 1082HOH     H1 3432   1.753   3.236   3.148
 1082HOH     H2 3433   1.884   3.306   3.118
 1083HOH      O 3434   0.407   1.172   3.336
 1083HOH     H1 3435   0.443   1.211   3.256
 1083HOH     H2 3436   0.356   1.097   3.305
 1084HOH      O 3437   2.944   1.787   2.917
 1084HOH     H1 3438   2.925   1.759   2.828
 1084HOH     H2 3439   2.873   1.847   2.940
 1085HOH      O 3440   0.670   1.813   1.915
 1085HOH     H1 3441   0.697   1.729   1.877
 1085HOH     H2 3442   0.591   1.793   1.965
 1086HOH      O 3443   0.313   2.377   3.508
 1086HOH     H1 3444   0.299   2.427   3.427
 1086HOH     H2 3445   0.393   2.414   3.545
 1087HOH      O 3446   0.588   3.368   2.411
 1087HOH     H1 3447   0.616   3.402   2.496
 1087HOH     H2 3448   0.664   3.322   2.377
 1088HOH      O 3449   0.653   0.585   3.875
 1088HOH     H1 3450   0.646   0.493   3.849
 1088HOH     H2 3451   0.726   0.618   3.822
 1089HOH      O 3452   1.239   0.248   2.262
 1089HOH     H1 3453   1.145   0.230   2.264
 1089HOH     H2 3454   1.256   0.277   2.172
 1090HOH      O 3455   1.787   2.050   2.617
 1090HOH     H1 3456   1.727   2.048   2.691
 1090HOH     H2 3457   1.874   2.044   2.656
 1091HOH      O 3458   1.933   2.239   3.557
 1091HOH     H1 3459   1.855   2.284   3.588
 1091HOH     H2 3460   1.911   2.212   3.468
 1092HOH      O 3461   1.786   1.147   2.153
 1092HOH     H1 3462   1.783   1.114   2.063
 1092HOH     H2 3463   1.718   1.098   2.199
 1093HOH      O 3464   0.954   2.861   1.059
 1093HOH     H1 3465   0.917   2.772   1.061
 1093HOH     H2 3466   0.950   2.890   1.150
 1094HOH      O 3467   0.984   1.781   1.449
 1094HOH     H1 3468   0.941   1.791   1.364
 1094HOH     H2 3469   0.975   1.688   1.470
 1095HOH      O 3470   0.737   1.169   2.919
 1095HOH     H1 3471   0.829   1.165   2.894
 1095HOH     H2 3472   0.692   1.115   2.854
 1096HOH      O 3473  -0.015   3.116   0.327
 1096HOH     H1 3474   0.020   3.071   0.249
 1096HOH     H2 3475   0.059   3.119   0.388
 1097HOH      O 3476   0.450   3.204   3.086
 1097HOH     H1 3477   0.433   3.162   3.170
 1097HOH     H2 3478   0.484   3.133   3.030
 1098HOH      O 3479   2.080   0.713   0.996
 1098HOH     H1 3480   2.104   0.631   1.039
 1098HOH     H2 3481   2.038   0.686   0.914
 1099HOH      O 3482   3.036   0.719   2.797
 1099HOH     H1 3483   3.017   0.677   2.713
 1099HOH     H2 3484   3.067   0.648   2.853
 1100HOH      O 3485   1.854   3.800   3.239
 1100HOH     H1 3486   1.831   3.892   3.244
 1100HOH     H2 3487   1.924   3.789   3.304
 1101HOH      O 3488   0.908   0.644   0.369
 1101HOH     H1 3489   0.968   0.668   0.440
 1101HOH     H2 3490   0.844   0.715   0.367
 1102HOH      O 3491   0.231   3.065   1.324
 1102HOH     H1 3492   0.198   3.118   1.252
 1102HOH     H2 3493   0.229   2.976   1.291
 1103HOH      O 3494   0.760   1.581   1.765
 1103HOH     H1 3495   0.739   1.527   1.842
 1103HOH     H2 3496   0.675   1.594   1.722
 1104HOH      O 3497   1.394   2.700   1.526
 1104HOH     H1 3498   1.346   2.755   1.588
 1104HOH     H2 3499   1.471   2.671   1.574
 1105HOH      O 3500   0.436   1.910   0.397
 1105HOH     H1 3501   0.471   1.985   0.348
 1105HOH     H2 3502   0.362   1.945   0.445
 1106HOH      O 3503   3.335   0.375   0.450
 1106HOH     H1 3504   3.395   0.303   0.430
 1106HOH     H2 3505   3.268   0.335   0.506
 1107HOH      O 3506   1.064   2.995   3.985
 1107HOH     H1 3507   1.073   2.900   3.979
 1107HOH     H2 3508   1.006   3.017   3.912
 1108HOH      O 3509   1.817   0.825   1.147
 1108HOH     H1 3510   1.803   0.743   1.098
 1108HOH     H2 3511   1.780   0.808   1.234
 1109HOH      O 3512   2.953   2.876   2.945
 1109HOH     H1 3513   2.911   2.811   2.888
 1109HOH     H2 3514   3.018   2.826   2.994
 1110HOH      O 3515   2.233   2.644   1.330
 1110HOH     H1 3516   2.164   2.578   1.337
 1110HOH     H2 3517   2.226   2.693   1.413
 1111HOH      O 3518   2.201   3.493   1.127
 1111HOH     H1 3519   2.139   3.421   1.137
 1111HOH     H2 3520   2.286   3.453   1.146
 1112HOH      O 3521   3.153   4.023   1.716
 1112HOH     H1 3522   3.131   3.931   1.698
 1112HOH     H2 3523   3.246   4.030   1.693
 1113HOH      O 3524   0.711   3.715   2.126
 1113HOH     H1 3525   0.788   3.665   2.153
 1113HOH     H2 3526   0.731   3.744   2.037
 1114HOH      O 3527   2.081   0.496   3.080
 1114HOH     H1 3528   2.166   0.539   3.078
 1114HOH     H2 3529   2.096   0.410   3.041
 1115HOH      O 3530   3.740   3.257   2.891
 1115HOH     H1 3531   3.689   3.238   2.812
 1115HOH     H2 3532   3.786   3.175   2.910
 1116HOH      O 3533   1.465   2.063   0.540
 1116HOH     H1 3534   1.543   2.085   0.490
 1116HOH     H2 3535   1.421   1.995   0.489
 1117HOH      O 3536   2.218   0.479   3.406
 1117HOH     H1 3537   2.260   0.542   3.464
 1117HOH     H2 3538   2.236   0.511   3.317
 1118HOH      O 3539   3.627   2.996   3.263
 1118HOH     H1 3540   3.637   3.028   3.353
 1118HOH     H2 3541   3.535   3.009   3.243
 1119HOH      O 3542   2.810   0.667   3.340
 1119HOH     H1 3543   2.791   0.646   3.431
 1119HOH     H2 3544   2.833   0.582   3.300
 1120HOH      O 3545   2.829   1.546   0.391
 1120HOH     H1 3546   2.801   1.491   0.464
 1120HOH     H2 3547   2.748   1.574   0.349
 1121HOH      O 3548   3.274   1.270   2.628
 1121HOH     H1 3549   3.228   1.339   2.580
 1121HOH     H2 3550   3.321   1.317   2.697
 1122HOH      O 3551   0.971   0.799   0.622
 1122HOH     H1 3552   0.949   0.742   0.695
 1122HOH     H2 3553   0.888   0.836   0.593
 1123HOH      O 3554   1.554   1.539   0.209
 1123HOH     H1 3555   1.527   1.601   0.277
 1123HOH     H2 3556   1.511   1.570   0.129
 1124HOH      O 3557   2.536   0.221   2.887
 1124HOH     H1 3558   2.543   0.287   2.956
 1124HOH     H2 3559   2.508   0.271   2.810
 1125HOH      O 3560   2.553   3.769   1.762
 1125HOH     H1 3561   2.596   3.831   1.704
 1125HOH     H2 3562   2.600   3.687   1.748
 1126HOH      O 3563   1.462   2.709   2.380
 1126HOH     H1 3564   1.486   2.634   2.325
 1126HOH     H2 3565   1.431   2.775   2.319
 1127HOH      O 3566   2.684   2.388   2.185
 1127HOH     H1 3567   2.630   2.373   2.108
 1127HOH     H2 3568   2.676   2.482   2.202
 1128HOH      O 3569   1.254   1.303   0.529
 1128HOH     H1 3570   1.231   1.214   0.503
 1128HOH     H2 3571   1.171   1.343   0.553
 1129HOH      O 3572   1.229   2.796   3.875
 1129HOH     H1 3573   1.278   2.714   3.873
 1129HOH     H2 3574   1.279   2.856   3.820
 1130HOH      O 3575   0.782   1.379   1.104
 1130HOH     H1 3576   0.862   1.432   1.108
 1130HOH     H2 3577   0.798   1.307   1.166
 1131HOH      O 3578   3.230   2.407   2.277
 1131HOH     H1 3579   3.259   2.445   2.360
 1131HOH     H2 3580   3.286   2.331   2.265
 1132HOH      O 3581   1.041   3.203   3.124
 1132HOH     H1 3582   0.981   3.128   3.122
 1132HOH     H2 3583   1.048   3.230   3.033
 1133HOH      O 3584   0.142   3.536   2.304
 1133HOH     H1 3585   0.084   3.610   2.325
 1133HOH     H2 3586   0.225   3.558   2.345
 1134HOH      O 3587   2.101   0.802   1.310
 1134HOH     H1 3588   2.171   0.761   1.361
 1134HOH     H2 3589   2.035   0.826   1.375
 1135HOH      O 3590   2.828   2.239   2.029
 1135HOH     H1 3591   2.918   2.273   2.023
 1135HOH     H2 3592   2.790   2.286   2.103
 1136HOH      O 3593   2.501   0.051   3.175
 1136HOH     H1 3594   2.509  -0.042   3.156
 1136HOH     H2 3595   2.409   0.062   3.201
 1137HOH      O 3596   0.020   3.518   3.670
 1137HOH     H1 3597   0.030   3.432   3.710
 1137HOH     H2 3598   0.004   3.577   3.743
 1138HOH      O 3599   0.957   3.323   3.781
 1138HOH     H1 3600   0.917   3.395   3.732
 1138HOH     H2 3601   0.953   3.351   3.873
 1139HOH      O 3602   2.640   1.811   0.534
 1139HOH     H1 3603   2.571   1.876   0.525
 1139HOH     H2 3604   2.619   1.763   0.614
 1140HOH      O 3605   3.986   0.394   1.674
 1140HOH     H1 3606   4.043   0.444   1.616
 1140HOH     H2 3607   3.958   0.319   1.620
 1141HOH      O 3608   3.939   1.481   0.777
 1141HOH     H1 3609   3.856   1.500   0.822
 1141HOH     H2 3610   3.995   1.556   0.799
 1142HOH      O 3611   0.683   1.103   0.276
 1142HOH     H1 3612   0.605   1.057   0.307
 1142HOH     H2 3613   0.686   1.084   0.183
 1143HOH      O 3614   2.632   2.495   2.871
 1143HOH     H1 3615   2.696   2.435   2.831
 1143HOH     H2 3616   2.676   2.528   2.949
 1144HOH      O 3617   2.223   1.903   2.754
 1144HOH     H1 3618   2.300   1.863   2.793
 1144HOH     H2 3619   2.184   1.833   2.701
 1145HOH      O 3620   3.897   1.073   3.821
 1145HOH     H1 3621   3.963   1.004   3.827
 1145HOH     H2 3622   3.934   1.146   3.870
 1146HOH      O 3623   2.300   1.977   3.154
 1146HOH     H1 3624   2.294   1.902   3.096
 1146HOH     H2 3625   2.307   2.052   3.095
 1147HOH      O 3626   3.888   2.974   1.407
 1147HOH     H1 3627   3.859   3.025   1.481
 1147HOH     H2 3628   3.944   3.034   1.357
 1148HOH      O 3629   1.037   1.205   3.444
 1148HOH     H1 3630   1.055   1.114   3.420
 1148HOH     H2 3631   1.124   1.246   3.450
 1149HOH      O 3632   0.285   3.916   2.085
 1149HOH     H1 3633   0.330   3.925   2.169
 1149HOH     H2 3634   0.356   3.901   2.022
 1150HOH      O 3635   0.911   3.214   1.160
 1150HOH     H1 3636   0.824   3.236   1.127
 1150HOH     H2 3637   0.960   3.189   1.082
 1151HOH      O 3638   3.564   0.653   3.913
 1151HOH     H1 3639   3.484   0.704   3.927
 1151HOH     H2 3640   3.616   0.669   3.991
 1152HOH      O 3641   2.638   1.722   2.014
 1152HOH     H1 3642   2.723   1.733   1.971
 1152HOH     H2 3643   2.596   1.808   2.006
 1153HOH      O 3644   1.593   1.477   1.702
 1153HOH     H1 3645   1.553   1.397   1.737
 1153HOH     H2 3646   1.632   1.519   1.779
 1154HOH      O 3647   2.963   1.207   2.897
 1154HOH     H1 3648   2.985   1.297   2.874
 1154HOH     H2 3649   2.905   1.215   2.973
 1155HOH      O 3650   1.373   2.897   3.241
 1155HOH     H1 3651   1.337   2.852   3.317
 1155HOH     H2 3652   1.353   2.838   3.168
 1156HOH      O 3653   2.060   0.473   3.733
 1156HOH     H1 3654   2.132   0.531   3.708
 1156HOH     H2 3655   1.997   0.482   3.662
 1157HOH      O 3656   2.588   1.065   1.357
 1157HOH     H1 3657   2.631   0.990   1.317
 1157HOH     H2 3658   2.578   1.041   1.449
 1158HOH      O 3659   3.055   0.566   2.310
 1158HOH     H1 3660   3.121   0.615   2.261
 1158HOH     H2 3661   3.107   0.512   2.370
 1159HOH      O 3662   1.227   1.450   1.107
 1159HOH     H1 3663   1.161   1.499   1.155
 1159HOH     H2 3664   1.178   1.404   1.039
 1160HOH      O 3665   1.381   3.935   0.877
 1160HOH     H1 3666   1.290   3.912   0.855
 1160HOH     H2 3667   1.401   4.008   0.818
 1161HOH      O 3668   1.829   2.482   0.526
 1161HOH     H1 3669   1.773   2.472   0.450
 1161HOH     H2 3670   1.769   2.489   0.600
 1162HOH      O 3671   1.262   1.517   1.585
 1162HOH     H1 3672   1.245   1.452   1.517
 1162HOH     H2 3673   1.188   1.577   1.579
 1163HOH      O 3674   1.689   1.386   3.915
 1163HOH     H1 3675   1.756   1.330   3.955
 1163HOH     H2 3676   1.662   1.340   3.836
 1164HOH      O 3677   0.113   1.536   1.469
 1164HOH     H1 3678   0.069   1.508   1.389
 1164HOH     H2 3679   0.070   1.619   1.491
 1165HOH      O 3680   0.069   1.070   2.356
 1165HOH     H1 3681   0.006   1.024   2.300
 1165HOH     H2 3682   0.016   1.101   2.430
 1166HOH      O 3683   0.818   1.914   0.767
 1166HOH     H1 3684   0.913   1.899   0.767
 1166HOH     H2 3685   0.782   1.839   0.719
 1167HOH      O 3686   2.267   3.689   0.138
 1167HOH     H1 3687   2.272   3.688   0.043
 1167HOH     H2 3688   2.178   3.719   0.158
 1168HOH      O 3689   0.766   2.740   0.736
 1168HOH     H1 3690   0.686   2.690   0.753
 1168HOH     H2 3691   0.835   2.691   0.781
 1169HOH      O 3692   3.404   3.089   3.135
 1169HOH     H1 3693   3.414   3.100   3.041
 1169HOH     H2 3694   3.309   3.082   3.149
 1170HOH      O 3695   0.106   0.951   3.837
 1170HOH     H1 3696   0.087   0.893   3.763
 1170HOH     H2 3697   0.161   1.020   3.799
 1171HOH      O 3698   1.135   1.992   3.458
 1171HOH     H1 3699   1.204   1.979   3.523
 1171HOH     H2 3700   1.103   2.081   3.473
 1172HOH      O 3701   0.821   2.450   1.478
 1172HOH     H1 3702   0.903   2.499   1.485
 1172HOH     H2 3703   0.760   2.512   1.438
 1173HOH      O 3704   2.045   1.766   2.579
 1173HOH     H1 3705   2.055   1.726   2.493
 1173HOH     H2 3706   1.955   1.747   2.604
 1174HOH      O 3707   2.152   1.672   1.106
 1174HOH     H1 3708   2.133   1.612   1.178
 1174HOH     H2 3709   2.099   1.639   1.033
 1175HOH      O 3710   0.975   2.405   2.380
 1175HOH     H1 3711   0.968   2.320   2.335
 1175HOH     H2 3712   0.885   2.427   2.402
 1176HOH      O 3713   0.978   0.172   2.213
 1176HOH     H1 3714   0.887   0.145   2.213
 1176HOH     H2 3715   1.007   0.158   2.122
 1177HOH      O 3716   2.871   0.315   3.436
 1177HOH     H1 3717   2.849   0.336   3.345
 1177HOH     H2 3718   2.957   0.273   3.430
 1178HOH      O 3719   0.690   2.107   2.262
 1178HOH     H1 3720   0.601   2.073   2.269
 1178HOH     H2 3721   0.746   2.031   2.277
 1179HOH      O 3722   3.846   0.162   3.301
 1179HOH     H1 3723   3.890   0.104   3.239
 1179HOH     H2 3724   3.782   0.106   3.345
 1180HOH      O 3725   1.544   3.244   0.420
 1180HOH     H1 3726   1.508   3.331   0.404
 1180HOH     H2 3727   1.639   3.256   0.418
 1181HOH      O 3728   3.170   2.835   3.887
 1181HOH     H1 3729   3.148   2.845   3.979
 1181HOH     H2 3730   3.090   2.803   3.846
 1182HOH      O 3731   2.801   2.680   2.487
 1182HOH     H1 3732   2.879   2.670   2.432
 1182HOH     H2 3733   2.769   2.591   2.499
 1183HOH      O 3734   0.697   1.126   1.715
 1183HOH     H1 3735   0.780   1.156   1.752
 1183HOH     H2 3736   0.715   1.036   1.686
 1184HOH      O 3737   0.872   1.317   1.443
 1184HOH     H1 3738   0.790   1.331   1.491
 1184HOH     H2 3739   0.855   1.239   1.389
 1185HOH      O 3740   2.803   3.253   1.273
 1185HOH     H1 3741   2.853   3.316   1.220
 1185HOH     H2 3742   2.752   3.203   1.210
 1186HOH      O 3743   1.895   1.246   4.014
 1186HOH     H1 3744   1.943   1.227   4.095
 1186HOH     H2 3745   1.953   1.216   3.944
 1187HOH      O 3746   0.026   1.298   3.962
 1187HOH     H1 3747   0.112   1.334   3.981
 1187HOH     H2 3748  -0.009   1.273   4.048
 1188HOH      O 3749   0.114   2.860   1.130
 1188HOH     H1 3750   0.037   2.889   1.082
 1188HOH     H2 3751   0.178   2.838   1.062
 1189HOH      O 3752   1.655   3.068   1.213
 1189HOH     H1 3753   1.671   3.091   1.305
 1189HOH     H2 3754   1.612   2.982   1.218
 1190HOH      O 3755   2.348   3.880   3.875
 1190HOH     H1 3756   2.416   3.910   3.814
 1190HOH     H2 3757   2.352   3.785   3.870
 1191HOH      O 3758   0.062   0.434   3.162
 1191HOH     H1 3759  -0.005   0.409   3.099
 1191HOH     H2 3760   0.064   0.362   3.225
 1192HOH      O 3761   3.553   0.667   3.217
 1192HOH     H1 3762   3.556   0.760   3.196
 1192HOH     H2 3763   3.617   0.626   3.159
 1193HOH      O 3764   1.298   1.269   3.445
 1193HOH     H1 3765   1.322   1.203   3.511
 1193HOH     H2 3766   1.365   1.336   3.452
 1194HOH      O 3767   1.734   1.584   1.083
 1194HOH     H1 3768   1.664   1.587   1.148
 1194HOH     H2 3769   1.701   1.523   1.016
 1195HOH      O 3770   3.119   2.380   0.506
 1195HOH     H1 3771   3.038   2.345   0.544
 1195HOH     H2 3772   3.110   2.475   0.513
 1196HOH      O 3773   3.912   2.691   0.874
 1196HOH     H1 3774   3.870   2.734   0.800
 1196HOH     H2 3775   3.876   2.602   0.874
 1197HOH      O 3776   1.743   2.354   3.709
 1197HOH     H1 3777   1.799   2.398   3.773
 1197HOH     H2 3778   1.693   2.291   3.760
 1198HOH      O 3779   0.972   0.626   1.558
 1198HOH     H1 3780   0.919   0.607   1.480
 1198HOH     H2 3781   0.922   0.590   1.630
 1199HOH      O 3782   0.720   1.644   2.211
 1199HOH     H1 3783   0.630   1.656   2.240
 1199HOH     H2 3784   0.725   1.552   2.183
 1200HOH      O 3785   1.615   3.747   2.241
 1200HOH     H1 3786   1.603   3.805   2.166
 1200HOH     H2 3787   1.573   3.793   2.314
 1201HOH      O 3788   1.549   3.206   0.755
 1201HOH     H1 3789   1.486   3.204   0.683
 1201HOH     H2 3790   1.538   3.292   0.795
 1202HOH      O 3791   3.092   2.157   3.529
 1202HOH     H1 3792   3.152   2.174   3.602
 1202HOH     H2 3793   3.091   2.239   3.479
 1203HOH      O 3794   2.666   3.169   2.091
 1203HOH     H1 3795   2.759   3.148   2.087
 1203HOH     H2 3796   2.636   3.130   2.173
 1204HOH      O 3797   0.435   3.245   1.385
 1204HOH     H1 3798   0.349   3.204   1.388
 1204HOH     H2 3799   0.493   3.181   1.426
 1205HOH      O 3800   0.402   1.725   0.200
 1205HOH     H1 3801   0.379   1.782   0.127
 1205HOH     H2 3802   0.400   1.783   0.276
 1206HOH      O 3803   2.719   1.866   0.940
 1206HOH     H1 3804   2.762   1.951   0.936
 1206HOH     H2 3805   2.625   1.886   0.943
 1207HOH      O 3806   3.242   2.254   1.289
 1207HOH     H1 3807   3.287   2.184   1.243
 1207HOH     H2 3808   3.307   2.287   1.351
 1208HOH      O 3809   1.868   0.622   3.188
 1208HOH     H1 3810   1.867   0.585   3.276
 1208HOH     H2 3811   1.954   0.599   3.153
 1209HOH      O 3812   0.416   3.417   1.181
 1209HOH     H1 3813   0.333   3.458   1.207
 1209HOH     H2 3814   0.439   3.361   1.255
 1210HOH      O 3815   3.183   2.199   3.145
 1210HOH     H1 3816   3.190   2.230   3.235
 1210HOH     H2 3817   3.090   2.176   3.135
 1211HOH      O 3818   2.470   0.059   2.559
 1211HOH     H1 3819   2.496   0.143   2.521
 1211HOH     H2 3820   2.386   0.039   2.517
 1212HOH      O 3821   0.463   2.944   2.310
 1212HOH     H1 3822   0.465   3.019   2.250
 1212HOH     H2 3823   0.456   2.983   2.397
 1213HOH      O 3824   1.925   0.655   0.347
 1213HOH     H1 3825   1.840   0.654   0.392
 1213HOH     H2 3826   1.904   0.640   0.255
 1214HOH      O 3827   1.219   2.382   0.451
 1214HOH     H1 3828   1.309   2.362   0.426
 1214HOH     H2 3829   1.165   2.327   0.394
 1215HOH      O 3830   0.880   0.775   3.843
 1215HOH     H1 3831   0.923   0.783   3.929
 1215HOH     H2 3832   0.946   0.735   3.787
 1216HOH      O 3833   1.789   0.525   2.071
 1216HOH     H1 3834   1.734   0.484   2.137
 1216HOH     H2 3835   1.789   0.618   2.094
 1217HOH      O 3836   0.072   2.510   0.526
 1217HOH     H1 3837   0.043   2.428   0.566
 1217HOH     H2 3838  -0.001   2.535   0.468
 1218HOH      O 3839   2.708   1.908   3.612
 1218HOH     H1 3840   2.732   1.995   3.582
 1218HOH     H2 3841   2.700   1.916   3.707
 1219HOH      O 3842   3.754   0.658   1.401
 1219HOH     H1 3843   3.825   0.598   1.378
 1219HOH     H2 3844   3.793   0.717   1.465
 1220HOH      O 3845   0.555   1.318   3.146
 1220HOH     H1 3846   0.583   1.381   3.080
 1220HOH     H2 3847   0.631   1.260   3.157
 1221HOH      O 3848   3.806   2.458   0.975
 1221HOH     H1 3849   3.718   2.420   0.968
 1221HOH     H2 3850   3.806   2.501   1.061
 1222HOH      O 3851   0.928   3.846   0.787
 1222HOH     H1 3852   0.837   3.846   0.759
 1222HOH     H2 3853   0.950   3.754   0.800
 1223HOH      O 3854   2.563   3.759   3.064
 1223HOH     H1 3855   2.625   3.727   2.999
 1223HOH     H2 3856   2.611   3.757   3.147
 1224HOH      O 3857   3.480   0.884   2.465
 1224HOH     H1 3858   3.463   0.870   2.371
 1224HOH     H2 3859   3.496   0.978   2.472
 1225HOH      O 3860   0.412   3.126   3.342
 1225HOH     H1 3861   0.392   3.046   3.391
 1225HOH     H2 3862   0.339   3.185   3.363
 1226HOH      O 3863   3.894   0.322   2.217
 1226HOH     H1 3864   3.806   0.293   2.191
 1226HOH     H2 3865   3.946   0.314   2.137
 1227HOH      O 3866   1.098   3.777   1.410
 1227HOH     H1 3867   1.151   3.843   1.454
 1227HOH     H2 3868   1.016   3.822   1.390
 1228HOH      O 3869   1.388   3.169   0.205
 1228HOH     H1 3870   1.430   3.191   0.288
 1228HOH     H2 3871   1.459   3.170   0.141
 1229HOH      O 3872   2.469   3.858   0.236
 1229HOH     H1 3873   2.457   3.934   0.180
 1229HOH     H2 3874   2.394   3.802   0.216
 1230HOH      O 3875   2.268   1.119   2.377
 1230HOH     H1 3876   2.240   1.043   2.429
 1230HOH     H2 3877   2.192   1.138   2.322
 1231HOH      O 3878   3.591   1.898   0.944
 1231HOH     H1 3879   3.622   1.814   0.978
 1231HOH     H2 3880   3.598   1.958   1.018
 1232HOH      O 3881   1.572   2.212   1.789
 1232HOH     H1 3882   1.570   2.140   1.727
 1232HOH     H2 3883   1.652   2.198   1.840
 1233HOH      O 3884   0.836   2.871   0.177
 1233HOH     H1 3885   0.872   2.849   0.091
 1233HOH     H2 3886   0.770   2.803   0.193
 1234HOH      O 3887   3.499   3.075   1.755
 1234HOH     H1 3888   3.532   2.988   1.731
 1234HOH     H2 3889   3.491   3.072   1.850
 1235HOH      O 3890   3.236   1.931   1.738
 1235HOH     H1 3891   3.179   1.967   1.671
 1235HOH     H2 3892   3.214   1.838   1.741
 1236HOH      O 3893   0.672   0.366   1.637
 1236HOH     H1 3894   0.616   0.299   1.677
 1236HOH     H2 3895   0.660   0.355   1.543
 1237HOH      O 3896   2.717   1.224   0.268
 1237HOH     H1 3897   2.715   1.208   0.362
 1237HOH     H2 3898   2.625   1.223   0.242
 1238HOH      O 3899   2.058   0.236   3.396
 1238HOH     H1 3900   1.988   0.292   3.362
 1238HOH     H2 3901   2.130   0.296   3.417
 1239HOH      O 3902   2.498   1.426   2.898
 1239HOH     H1 3903   2.505   1.368   2.823
 1239HOH     H2 3904   2.405   1.430   2.917
 1240HOH      O 3905   0.126   0.534   0.551
 1240HOH     H1 3906   0.069   0.460   0.529
 1240HOH     H2 3907   0.091   0.566   0.635
 1241HOH      O 3908   1.837   1.207   1.754
 1241HOH     H1 3909   1.791   1.161   1.683
 1241HOH     H2 3910   1.887   1.275   1.710
 1242HOH      O 3911   1.242   0.325   0.797
 1242HOH     H1 3912   1.290   0.340   0.879
 1242HOH     H2 3913   1.150   0.323   0.823
 1243HOH      O 3914   2.241   1.485   2.075
 1243HOH     H1 3915   2.269   1.394   2.063
 1243HOH     H2 3916   2.192   1.484   2.157
 1244HOH      O 3917   2.003   2.603   3.271
 1244HOH     H1 3918   1.954   2.671   3.224
 1244HOH     H2 3919   1.944   2.575   3.341
 1245HOH      O 3920   0.113   1.668   0.890
 1245HOH     H1 3921   0.043   1.730   0.912
 1245HOH     H2 3922   0.149   1.642   0.975
 1246HOH      O 3923   0.817   0.413   0.098
 1246HOH     H1 3924   0.810   0.323   0.130
 1246HOH     H2 3925   0.729   0.448   0.106
 1247HOH      O 3926   0.155   2.812   3.057
 1247HOH     H1 3927   0.231   2.754   3.063
 1247HOH     H2 3928   0.131   2.829   3.147
 1248HOH      O 3929   0.164   1.641   2.402
 1248HOH     H1 3930   0.141   1.645   2.309
 1248HOH     H2 3931   0.130   1.723   2.438
 1249HOH      O 3932   0.120   2.639   2.025
 1249HOH     H1 3933   0.170   2.557   2.033
 1249HOH     H2 3934   0.030   2.610   2.007
 1250HOH      O 3935   1.131   2.903   3.092
 1250HOH     H1 3936   1.053   2.930   3.140
 1250HOH     H2 3937   1.128   2.807   3.094
 1251HOH      O 3938   0.577   0.705   0.085
 1251HOH     H1 3939   0.591   0.658   0.002
 1251HOH     H2 3940   0.486   0.688   0.107
 1252HOH      O 3941   2.488   1.077   0.676
 1252HOH     H1 3942   2.453   1.039   0.596
 1252HOH     H2 3943   2.491   1.171   0.658
 1253HOH      O 3944   1.764   3.747   2.592
 1253HOH     H1 3945   1.834   3.788   2.643
 1253HOH     H2 3946   1.778   3.653   2.604
 1254HOH      O 3947   2.974   0.086   2.627
 1254HOH     H1 3948   2.918   0.018   2.665
 1254HOH     H2 3949   3.051   0.039   2.594
 1255HOH      O 3950   2.166   3.386   3.360
 1255HOH     H1 3951   2.254   3.422   3.366
 1255HOH     H2 3952   2.129   3.398   3.448
 1256HOH      O 3953   1.195   1.342   2.544
 1256HOH     H1 3954   1.122   1.372   2.490
 1256HOH     H2 3955   1.204   1.409   2.611
 1257HOH      O 3956   1.997   3.676   3.007
 1257HOH     H1 3957   2.083   3.697   2.969
 1257HOH     H2 3958   2.013   3.674   3.101
 1258HOH      O 3959   2.424   3.533   3.169
 1258HOH     H1 3960   2.436   3.503   3.259
 1258HOH     H2 3961   2.474   3.614   3.164
 1259HOH      O 3962   2.688   3.533   0.628
 1259HOH     H1 3963   2.673   3.470   0.698
 1259HOH     H2 3964   2.699   3.481   0.549
 1260HOH      O 3965   1.919   2.474   2.938
 1260HOH     H1 3966   2.011   2.479   2.912
 1260HOH     H2 3967   1.921   2.456   3.032
 1261HOH      O 3968   1.144   3.001   0.747
 1261HOH     H1 3969   1.128   2.912   0.777
 1261HOH     H2 3970   1.197   2.990   0.668
 1262HOH      O 3971   0.772   0.406   3.687
 1262HOH     H1 3972   0.764   0.357   3.769
 1262HOH     H2 3973   0.825   0.350   3.631
 1263HOH      O 3974   1.332   0.645   1.620
 1263HOH     H1 3975   1.363   0.647   1.710
 1263HOH     H2 3976   1.272   0.570   1.617
 1264HOH      O 3977   3.097   0.969   2.991
 1264HOH     H1 3978   3.044   1.047   2.976
 1264HOH     H2 3979   3.043   0.914   3.048
 1265HOH      O 3980   1.695   0.620   2.971
 1265HOH     H1 3981   1.716   0.543   2.918
 1265HOH     H2 3982   1.758   0.618   3.043
 1266HOH      O 3983   2.016   2.076   2.794
 1266HOH     H1 3984   2.092   2.019   2.780
 1266HOH     H2 3985   2.050   2.165   2.781
 1267HOH      O 3986   1.372   2.251   3.153
 1267HOH     H1 3987   1.402   2.282   3.068
 1267HOH     H2 3988   1.308   2.317   3.181
 1268HOH      O 3989   2.090   0.257   1.025
 1268HOH     H1 3990   2.151   0.184   1.033
 1268HOH     H2 3991   2.145   0.335   1.032
 1269HOH      O 3992   1.661   1.097   1.233
 1269HOH     H1 3993   1.605   1.130   1.163
 1269HOH     H2 3994   1.600   1.057   1.295
 1270HOH      O 3995   3.165   0.396   1.100
 1270HOH     H1 3996   3.250   0.434   1.122
 1270HOH     H2 3997   3.161   0.400   1.005
 1271HOH      O 3998   2.693   0.386   0.054
 1271HOH     H1 3999   2.669   0.362  -0.035
 1271HOH     H2 4000   2.720   0.305   0.095
 1272HOH      O 4001   0.644   3.754   2.527
 1272HOH     H1 4002   0.609   3.799   2.451
 1272HOH     H2 4003   0.574   3.696   2.556
 1273HOH      O 4004   0.509   2.004   1.341
 1273HOH     H1 4005   0.501   2.029   1.249
 1273HOH     H2 4006   0.420   2.013   1.376
 1274HOH      O 4007   1.407   2.800   2.124
 1274HOH     H1 4008   1.474   2.775   2.061
 1274HOH     H2 4009   1.368   2.717   2.152
 1275HOH      O 4010   3.544   1.687   3.670
 1275HOH     H1 4011   3.620   1.646   3.628
 1275HOH     H2 4012   3.515   1.624   3.736
 1276HOH      O 4013   2.152   1.302   1.011
 1276HOH     H1 4014   2.082   1.241   0.989
 1276HOH     H2 4015   2.232   1.260   0.979
 1277HOH      O 4016   3.805   0.868   1.044
 1277HOH     H1 4017   3.769   0.807   0.980
 1277HOH     H2 4018   3.894   0.885   1.013
 1278HOH      O 4019   3.818   2.723   2.346
 1278HOH     H1 4020   3.834   2.752   2.256
 1278HOH     H2 4021   3.800   2.629   2.338
 1279HOH      O 4022   0.521   0.079   1.768
 1279HOH     H1 4023   0.533   0.097   1.675
 1279HOH     H2 4024   0.482  -0.009   1.770
 1280HOH      O 4025   0.656   0.254   3.899
 1280HOH     H1 4026   0.618   0.320   3.957
 1280HOH     H2 4027   0.593   0.247   3.827
 1281HOH      O 4028   0.442   3.147   2.510
 1281HOH     H1 4029   0.352   3.158   2.539
 1281HOH     H2 4030   0.468   3.234   2.480
 1282HOH      O 4031   3.887   1.117   0.145
 1282HOH     H1 4032   3.912   1.033   0.106
 1282HOH     H2 4033   3.926   1.116   0.233
 1283HOH      O 4034   3.784   0.309   0.163
 1283HOH     H1 4035   3.807   0.314   0.070
 1283HOH     H2 4036   3.842   0.242   0.198
 1284HOH      O 4037   3.104   1.219   1.739
 1284HOH     H1 4038   3.137   1.142   1.785
 1284HOH     H2 4039   3.011   1.201   1.726
 1285HOH      O 4040   1.548   0.099   3.922
 1285HOH     H1 4041   1.553   0.095   4.017
 1285HOH     H2 4042   1.457   0.079   3.901
 1286HOH      O 4043   0.185   0.191   3.256
 1286HOH     H1 4044   0.232   0.212   3.176
 1286HOH     H2 4045   0.115   0.131   3.228
 1287HOH      O 4046   2.196   3.192   2.066
 1287HOH     H1 4047   2.204   3.235   1.981
 1287HOH     H2 4048   2.195   3.098   2.046
 1288HOH      O 4049   1.199   1.794   0.152
 1288HOH     H1 4050   1.110   1.829   0.155
 1288HOH     H2 4051   1.225   1.803   0.060
 1289HOH      O 4052   2.472   1.522   1.920
 1289HOH     H1 4053   2.427   1.488   1.997
 1289HOH     H2 4054   2.538   1.582   1.955
 1290HOH      O 4055   0.248   3.709   0.984
 1290HOH     H1 4056   0.335   3.749   0.975
 1290HOH     H2 4057   0.197   3.772   1.035
 1291HOH      O 4058   2.317   3.585   2.277
 1291HOH     H1 4059   2.260   3.567   2.202
 1291HOH     H2 4060   2.374   3.509   2.282
 1292HOH      O 4061   3.160   3.556   0.210
 1292HOH     H1 4062   3.202   3.510   0.282
 1292HOH     H2 4063   3.139   3.643   0.246
 1293HOH      O 4064   1.661   3.269   3.913
 1293HOH     H1 4065   1.571   3.250   3.884
 1293HOH     H2 4066   1.691   3.338   3.853
 1294HOH      O 4067   3.641   1.801   1.656
 1294HOH     H1 4068   3.689   1.842   1.727
 1294HOH     H2 4069   3.586   1.870   1.620
 1295HOH      O 4070   0.157   3.163   2.552
 1295HOH     H1 4071   0.082   3.166   2.494
 1295HOH     H2 4072   0.184   3.071   2.553
 1296HOH      O 4073   0.669   0.249   1.921
 1296HOH     H1 4074   0.734   0.289   1.863
 1296HOH     H2 4075   0.632   0.178   1.870
 1297HOH      O 4076   0.639   3.294   0.230
 1297HOH     H1 4077   0.559   3.341   0.253
 1297HOH     H2 4078   0.617   3.202   0.240
 1298HOH      O 4079   0.431   3.396   2.858
 1298HOH     H1 4080   0.434   3.320   2.916
 1298HOH     H2 4081   0.338   3.418   2.851
 1299HOH      O 4082   3.850   1.948   0.447
 1299HOH     H1 4083   3.757   1.934   0.428
 1299HOH     H2 4084   3.878   2.013   0.383
 1300HOH      O 4085   0.378   3.419   0.321
 1300HOH     H1 4086   0.433   3.497   0.333
 1300HOH     H2 4087   0.400   3.363   0.396
 1301HOH      O 4088   0.509   2.343   2.563
 1301HOH     H1 4089   0.430   2.337   2.509
 1301HOH     H2 4090   0.543   2.253   2.565
 1302HOH      O 4091   2.630   3.145   3.930
 1302HOH     H1 4092   2.620   3.227   3.978
 1302HOH     H2 4093   2.669   3.085   3.994
 1303HOH      O 4094   0.601   2.853   1.534
 1303HOH     H1 4095   0.640   2.921   1.588
 1303HOH     H2 4096   0.547   2.802   1.595
 1304HOH      O 4097   0.654  -0.010   3.949
 1304HOH     H1 4098   0.565  -0.044   3.944
 1304HOH     H2 4099   0.644   0.085   3.936
 1305HOH      O 4100   0.277   3.924   3.606
 1305HOH     H1 4101   0.233   4.009   3.614
 1305HOH     H2 4102   0.211   3.867   3.568
 1306HOH      O 4103   2.071   1.633   3.247
 1306HOH     H1 4104   2.001   1.657   3.307
 1306HOH     H2 4105   2.136   1.589   3.302
 1307HOH      O 4106   1.065   2.695   2.636
 1307HOH     H1 4107   1.025   2.683   2.550
 1307HOH     H2 4108   1.151   2.654   2.628
 1308HOH      O 4109   1.124   3.098   3.376
 1308HOH     H1 4110   1.149   3.117   3.467
 1308HOH     H2 4111   1.028   3.102   3.377
 1309HOH      O 4112   3.272   1.944   0.592
 1309HOH     H1 4113   3.194   1.948   0.647
 1309HOH     H2 4114   3.345   1.935   0.654
 1310HOH      O 4115   2.509   3.713   2.726
 1310HOH     H1 4116   2.448   3.699   2.654
 1310HOH     H2 4117   2.484   3.798   2.762
 1311HOH      O 4118   3.216   3.503   1.699
 1311HOH     H1 4119   3.247   3.442   1.632
 1311HOH     H2 4120   3.183   3.447   1.769
 1312HOH      O 4121   1.003   0.461   1.080
 1312HOH     H1 4122   0.984   0.417   0.997
 1312HOH     H2 4123   1.034   0.392   1.138
 1313HOH      O 4124   2.777   3.755   0.335
 1313HOH     H1 4125   2.696   3.707   0.351
 1313HOH     H2 4126   2.776   3.772   0.240
 1314HOH      O 4127   3.221   0.800   0.648
 1314HOH     H1 4128   3.221   0.854   0.727
 1314HOH     H2 4129   3.261   0.717   0.675
 1315HOH      O 4130   3.731   3.952   3.772
 1315HOH     H1 4131   3.715   3.950   3.866
 1315HOH     H2 4132   3.802   4.014   3.760
 1316HOH      O 4133   1.581   3.373   1.902
 1316HOH     H1 4134   1.602   3.361   1.994
 1316HOH     H2 4135   1.607   3.463   1.883
 1317HOH      O 4136   0.520   2.452   2.969
 1317HOH     H1 4137   0.506   2.372   2.918
 1317HOH     H2 4138   0.613   2.453   2.988
 1318HOH      O 4139   1.364   3.318   1.655
 1318HOH     H1 4140   1.405   3.250   1.707
 1318HOH     H2 4141   1.290   3.275   1.612
 1319HOH      O 4142   3.936   2.008   1.176
 1319HOH     H1 4143   3.930   1.928   1.124
 1319HOH     H2 4144   3.862   2.003   1.237
 1320HOH      O 4145   1.441   2.633   3.832
 1320HOH     H1 4146   1.497   2.614   3.756
 1320HOH     H2 4147   1.503   2.649   3.903
 1321HOH      O 4148   3.231   1.109   3.820
 1321HOH     H1 4149   3.228   1.084   3.912
 1321HOH     H2 4150   3.315   1.154   3.809
 1322HOH      O 4151   1.327   2.776   3.491
 1322HOH     H1 4152   1.406   2.736   3.527
 1322HOH     H2 4153   1.326   2.864   3.529
 1323HOH      O 4154   2.858   1.030   1.646
 1323HOH     H1 4155   2.762   1.031   1.653
 1323HOH     H2 4156   2.875   0.984   1.565
 1324HOH      O 4157   1.379   2.080   3.587
 1324HOH     H1 4158   1.431   2.135   3.528
 1324HOH     H2 4159   1.347   2.141   3.654
 1325HOH      O 4160   3.674   3.840   0.986
 1325HOH     H1 4161   3.593   3.791   0.977
 1325HOH     H2 4162   3.650   3.931   0.968
 1326HOH      O 4163   3.280   1.961   0.013
 1326HOH     H1 4164   3.205   1.979   0.070
 1326HOH     H2 4165   3.357   1.987   0.065
 1327HOH      O 4166   2.338   3.150   3.609
 1327HOH     H1 4167   2.249   3.129   3.582
 1327HOH     H2 4168   2.387   3.158   3.527
 1328HOH      O 4169   1.530   2.233   3.371
 1328HOH     H1 4170   1.541   2.319   3.411
 1328HOH     H2 4171   1.464   2.245   3.303
 1329HOH      O 4172   2.886   3.230   3.721
 1329HOH     H1 4173   2.971   3.199   3.750
 1329HOH     H2 4174   2.905   3.310   3.672
 1330HOH      O 4175   2.068   0.397   0.373
 1330HOH     H1 4176   1.993   0.341   0.354
 1330HOH     H2 4177   2.032   0.486   0.373
 1331HOH      O 4178   2.915   1.739   0.225
 1331HOH     H1 4179   2.823   1.758   0.206
 1331HOH     H2 4180   2.916   1.646   0.250
 1332HOH      O 4181   2.008   3.029   2.830
 1332HOH     H1 4182   2.049   3.051   2.746
 1332HOH     H2 4183   1.953   3.105   2.849
 1333HOH      O 4184   1.959   3.740   2.033
 1333HOH     H1 4185   1.909   3.809   1.989
 1333HOH     H2 4186   1.938   3.751   2.125
 1334HOH      O 4187   1.126   0.102   0.379
 1334HOH     H1 4188   1.114   0.009   0.360
 1334HOH     H2 4189   1.218   0.110   0.407
 1335HOH      O 4190   3.301   1.047   0.040
 1335HOH     H1 4191   3.345   1.003   0.112
 1335HOH     H2 4192   3.263   1.126   0.079
 1336HOH      O 4193   0.725   0.826   2.861
 1336HOH     H1 4194   0.738   0.743   2.815
 1336HOH     H2 4195   0.710   0.801   2.952
 1337HOH      O 4196   2.733   2.171   1.358
 1337HOH     H1 4197   2.696   2.093   1.317
 1337HOH     H2 4198   2.749   2.146   1.449
 1338HOH      O 4199   1.772   3.934   1.789
 1338HOH     H1 4200   1.748   3.869   1.723
 1338HOH     H2 4201   1.866   3.925   1.800
 1339HOH      O 4202   0.110   2.231   3.341
 1339HOH     H1 4203   0.189   2.193   3.303
 1339HOH     H2 4204   0.043   2.220   3.273
 1340HOH      O 4205   1.703   3.706   1.138
 1340HOH     H1 4206   1.711   3.720   1.233
 1340HOH     H2 4207   1.791   3.678   1.111
 1341HOH      O 4208   0.982   2.661   1.660
 1341HOH     H1 4209   0.997   2.606   1.737
 1341HOH     H2 4210   0.888   2.681   1.663
 1342HOH      O 4211   0.082   1.870   3.396
 1342HOH     H1 4212  -0.004   1.843   3.365
 1342HOH     H2 4213   0.120   1.920   3.324
 1343HOH      O 4214   3.564   0.822   3.620
 1343HOH     H1 4215   3.475   0.853   3.633
 1343HOH     H2 4216   3.553   0.733   3.585
 1344HOH      O 4217   2.606   2.751   1.166
 1344HOH     H1 4218   2.629   2.676   1.111
 1344HOH     H2 4219   2.514   2.768   1.146
 1345HOH      O 4220   2.704   3.885   0.043
 1345HOH     H1 4221   2.719   3.796   0.013
 1345HOH     H2 4222   2.792   3.925   0.044
 1346HOH      O 4223   0.484   1.736   1.307
 1346HOH     H1 4224   0.475   1.831   1.311
 1346HOH     H2 4225   0.574   1.719   1.334
 1347HOH      O 4226   2.300   2.508   3.776
 1347HOH     H1 4227   2.313   2.577   3.710
 1347HOH     H2 4228   2.316   2.426   3.728
 1348HOH      O 4229   1.545   3.865   2.492
 1348HOH     H1 4230   1.566   3.958   2.507
 1348HOH     H2 4231   1.605   3.818   2.550
 1349HOH      O 4232   0.020   0.875   3.578
 1349HOH     H1 4233  -0.064   0.906   3.547
 1349HOH     H2 4234   0.051   0.816   3.510
 1350HOH      O 4235   2.650   3.909   2.468
 1350HOH     H1 4236   2.594   3.974   2.511
 1350HOH     H2 4237   2.599   3.881   2.392
 1351HOH      O 4238   2.178   0.242   2.538
 1351HOH     H1 4239   2.189   0.255   2.444
 1351HOH     H2 4240   2.177   0.147   2.550
 1352HOH      O 4241   0.054   1.790   0.382
 1352HOH     H1 4242  -0.031   1.834   0.382
 1352HOH     H2 4243   0.032   1.697   0.381
 1353HOH      O 4244   2.927   0.163   1.641
 1353HOH     H1 4245   2.991   0.094   1.659
 1353HOH     H2 4246   2.956   0.202   1.559
 1354HOH      O 4247   3.061   0.023   1.183
 1354HOH     H1 4248   3.052   0.099   1.242
 1354HOH     H2 4249   2.998  -0.040   1.218
 1355HOH      O 4250   3.277   1.250   2.956
 1355HOH     H1 4251   3.221   1.188   3.002
 1355HOH     H2 4252   3.219   1.323   2.935
 1356HOH      O 4253   1.252   3.455   1.902
 1356HOH     H1 4254   1.175   3.503   1.870
 1356HOH     H2 4255   1.311   3.451   1.826
 1357HOH      O 4256   2.830   0.227   0.234
 1357HOH     H1 4257   2.798   0.146   0.274
 1357HOH     H2 4258   2.919   0.237   0.268
 1358HOH      O 4259   3.109   3.806   2.360
 1358HOH     H1 4260   3.016   3.800   2.380
 1358HOH     H2 4261   3.123   3.737   2.295
 1359HOH      O 4262   3.468   2.175   3.158
 1359HOH     H1 4263   3.479   2.135   3.072
 1359HOH     H2 4264   3.375   2.198   3.162
 1360HOH      O 4265   1.752   2.544   3.950
 1360HOH     H1 4266   1.842   2.531   3.919
 1360HOH     H2 4267   1.753   2.630   3.992
 1361HOH      O 4268   3.720   0.416   3.336
 1361HOH     H1 4269   3.776   0.338   3.339
 1361HOH     H2 4270   3.718   0.441   3.244
 1362HOH      O 4271   0.339   2.717   0.183
 1362HOH     H1 4272   0.367   2.625   0.187
 1362HOH     H2 4273   0.287   2.729   0.263
 1363HOH      O 4274   0.425   3.402   1.642
 1363HOH     H1 4275   0.515   3.397   1.609
 1363HOH     H2 4276   0.375   3.346   1.583
 1364HOH      O 4277   3.802   0.569   0.667
 1364HOH     H1 4278   3.790   0.498   0.603
 1364HOH     H2 4279   3.815   0.647   0.613
 1365HOH      O 4280   0.194   2.441   0.048
 1365HOH     H1 4281   0.245   2.496  -0.012
 1365HOH     H2 4282   0.103   2.457   0.023
 1366HOH      O 4283   1.159   1.397   3.217
 1366HOH     H1 4284   1.187   1.368   3.130
 1366HOH     H2 4285   1.197   1.332   3.276
 1367HOH      O 4286   2.652   0.191   0.991
 1367HOH     H1 4287   2.561   0.219   0.980
 1367HOH     H2 4288   2.648   0.121   1.056
 1368HOH      O 4289   2.468   4.029   0.027
 1368HOH     H1 4290   2.545   3.975   0.008
 1368HOH     H2 4291   2.396   3.985  -0.020
 1369HOH      O 4292   3.605   1.967   3.343
 1369HOH     H1 4293   3.536   1.901   3.336
 1369HOH     H2 4294   3.585   2.030   3.273
 1370HOH      O 4295   3.966   0.921   0.751
 1370HOH     H1 4296   3.961   1.016   0.756
 1370HOH     H2 4297   3.900   0.897   0.686
 1371HOH      O 4298   0.433   0.377  -0.013
 1371HOH     H1 4299   0.423   0.346   0.077
 1371HOH     H2 4300   0.347   0.363  -0.053
 1372HOH      O 4301   2.978   0.073   3.799
 1372HOH     H1 4302   3.049   0.053   3.738
 1372HOH     H2 4303   2.998   0.160   3.832
 1373HOH      O 4304   2.106   1.441   1.256
 1373HOH     H1 4305   2.105   1.388   1.176
 1373HOH     H2 4306   2.014   1.463   1.272
 1374HOH      O 4307   1.870   2.911   2.551
 1374HOH     H1 4308   1.851   2.866   2.634
 1374HOH     H2 4309   1.823   2.861   2.485
 1375HOH      O 4310   3.412   0.528   2.523
 1375HOH     H1 4311   3.451   0.483   2.598
 1375HOH     H2 4312   3.378   0.458   2.469
 1376HOH      O 4313   2.561   1.506   0.049
 1376HOH     H1 4314   2.524   1.440   0.108
 1376HOH     H2 4315   2.590   1.576   0.107
 1377HOH      O 4316   1.264   1.700   0.626
 1377HOH     H1 4317   1.199   1.743   0.571
 1377HOH     H2 4318   1.302   1.771   0.678
 1378HOH      O 4319   2.999   2.594   2.303
 1378HOH     H1 4320   3.042   2.511   2.284
 1378HOH     H2 4321   2.976   2.630   2.217
 1379HOH      O 4322   2.577   3.878   2.205
 1379HOH     H1 4323   2.549   3.789   2.183
 1379HOH     H2 4324   2.545   3.931   2.132
 1380HOH      O 4325   3.641   0.259   1.647
 1380HOH     H1 4326   3.676   0.215   1.570
 1380HOH     H2 4327   3.632   0.351   1.620
 1381HOH      O 4328   2.820   0.958   3.920
 1381HOH     H1 4329   2.857   1.011   3.850
 1381HOH     H2 4330   2.842   1.005   4.000
 1382HOH      O 4331   2.177   2.213   2.158
 1382HOH     H1 4332   2.144   2.233   2.071
 1382HOH     H2 4333   2.171   2.296   2.206
 1383HOH      O 4334   0.571   2.268   1.469
 1383HOH     H1 4335   0.646   2.308   1.424
 1383HOH     H2 4336   0.523   2.224   1.399
 1384HOH      O 4337   2.934   2.328   0.080
 1384HOH     H1 4338   2.982   2.291   0.154
 1384HOH     H2 4339   2.986   2.305   0.004
 1385HOH      O 4340   1.556   3.944   2.985
 1385HOH     H1 4341   1.537   3.984   3.069
 1385HOH     H2 4342   1.504   3.993   2.922
 1386HOH      O 4343   2.918   1.014   0.877
 1386HOH     H1 4344   2.932   1.086   0.816
 1386HOH     H2 4345   3.005   0.990   0.907
 1387HOH      O 4346   2.570   0.310   2.422
 1387HOH     H1 4347   2.612   0.396   2.425
 1387HOH     H2 4348   2.604   0.269   2.342
 1388HOH      O 4349   1.515   3.623   3.560
 1388HOH     H1 4350   1.469   3.699   3.595
 1388HOH     H2 4351   1.567   3.658   3.487
 1389HOH      O 4352   0.261   1.648   0.435
 1389HOH     H1 4353   0.189   1.709   0.420
 1389HOH     H2 4354   0.296   1.630   0.347
 1390HOH      O 4355   1.140   0.995   0.470
 1390HOH     H1 4356   1.093   0.924   0.513
 1390HOH     H2 4357   1.073   1.042   0.421
 1391HOH      O 4358   3.635   1.371   2.119
 1391HOH     H1 4359   3.564   1.340   2.062
 1391HOH     H2 4360   3.591   1.420   2.188
 1392HOH      O 4361   0.774   3.134   3.668
 1392HOH     H1 4362   0.763   3.107   3.759
 1392HOH     H2 4363   0.826   3.215   3.674
 1393HOH      O 4364   1.959   2.496   2.523
 1393HOH     H1 4365   1.901   2.427   2.492
 1393HOH     H2 4366   1.902   2.572   2.532
 1394HOH      O 4367   3.487   2.142   1.136
 1394HOH     H1 4368   3.538   2.167   1.213
 1394HOH     H2 4369   3.468   2.225   1.092
 1395HOH      O 4370   2.622   0.676   3.132
 1395HOH     H1 4371   2.692   0.685   3.068
 1395HOH     H2 4372   2.664   0.691   3.217
 1396HOH      O 4373   3.980   0.852   1.278
 1396HOH     H1 4374   4.041   0.785   1.246
 1396HOH     H2 4375   3.920   0.867   1.205
 1397HOH      O 4376   1.781   3.578   0.747
 1397HOH     H1 4377   1.823   3.567   0.832
 1397HOH     H2 4378   1.695   3.615   0.768
 1398HOH      O 4379   0.165   3.109   2.280
 1398HOH     H1 4380   0.170   3.017   2.254
 1398HOH     H2 4381   0.248   3.146   2.249
 1399HOH      O 4382   3.308   1.486   0.900
 1399HOH     H1 4383   3.319   1.576   0.871
 1399HOH     H2 4384   3.278   1.493   0.990
 1400HOH      O 4385   2.444   3.692   0.866
 1400HOH     H1 4386   2.465   3.636   0.940
 1400HOH     H2 4387   2.505   3.766   0.874
 1401HOH      O 4388   3.968   3.116   3.391
 1401HOH     H1 4389   3.894   3.174   3.402
 1401HOH     H2 4390   3.982   3.111   3.296
 1402HOH      O 4391   3.147   3.057   3.610
 1402HOH     H1 4392   3.189   3.138   3.580
 1402HOH     H2 4393   3.205   2.987   3.582
 1403HOH      O 4394   3.432   0.790   0.890
 1403HOH     H1 4395   3.516   0.780   0.845
 1403HOH     H2 4396   3.374   0.729   0.845
 1404HOH      O 4397   1.802   2.202   3.333
 1404HOH     H1 4398   1.708   2.196   3.317
 1404HOH     H2 4399   1.841   2.141   3.272
 1405HOH      O 4400   1.917   1.893   4.019
 1405HOH     H1 4401   1.857   1.820   4.003
 1405HOH     H2 4402   1.935   1.928   3.932
 1406HOH      O 4403   1.090   3.241   0.325
 1406HOH     H1 4404   1.036   3.223   0.248
 1406HOH     H2 4405   1.056   3.182   0.393
 1407HOH      O 4406   3.123   0.314   2.509
 1407HOH     H1 4407   3.051   0.251   2.502
 1407HOH     H2 4408   3.123   0.340   2.601
 1408HOH      O 4409   0.213   0.322   3.843
 1408HOH     H1 4410   0.222   0.271   3.763
 1408HOH     H2 4411   0.152   0.272   3.897
 1409HOH      O 4412   2.489   3.144   3.371
 1409HOH     H1 4413   2.573   3.158   3.414
 1409HOH     H2 4414   2.510   3.145   3.278
 1410HOH      O 4415   2.615   1.517   1.199
 1410HOH     H1 4416   2.697   1.479   1.232
 1410HOH     H2 4417   2.577   1.561   1.275
 1411HOH      O 4418   2.940   3.081   1.966
 1411HOH     H1 4419   3.014   3.024   1.985
 1411HOH     H2 4420   2.973   3.170   1.977
 1412HOH      O 4421   1.700   2.453   3.452
 1412HOH     H1 4422   1.721   2.365   3.422
 1412HOH     H2 4423   1.693   2.445   3.547
 1413HOH      O 4424   2.241   3.660   3.523
 1413HOH     H1 4425   2.294   3.584   3.548
 1413HOH     H2 4426   2.203   3.690   3.605
 1414HOH      O 4427   3.063   1.443   2.548
 1414HOH     H1 4428   2.987   1.456   2.606
 1414HOH     H2 4429   3.125   1.511   2.576
 1415HOH      O 4430   3.923   3.908   2.698
 1415HOH     H1 4431   3.865   3.837   2.670
 1415HOH     H2 4432   3.990   3.913   2.630
 1416HOH      O 4433   2.244   0.872   2.533
 1416HOH     H1 4434   2.242   0.802   2.468
 1416HOH     H2 4435   2.177   0.848   2.596
 1417HOH      O 4436   0.711   2.802   3.075
 1417HOH     H1 4437   0.684   2.762   3.158
 1417HOH     H2 4438   0.701   2.733   3.010
 1418HOH      O 4439   0.340   2.819   1.447
 1418HOH     H1 4440   0.415   2.874   1.423
 1418HOH     H2 4441   0.359   2.791   1.537
 1419HOH      O 4442   0.085   1.455   3.293
 1419HOH     H1 4443   0.172   1.436   3.256
 1419HOH     H2 4444   0.103   1.515   3.366
 1420HOH      O 4445   2.781   1.180   0.530
 1420HOH     H1 4446   2.728   1.168   0.609
 1420HOH     H2 4447   2.870   1.157   0.556
 1421HOH      O 4448   3.540   3.297   1.465
 1421HOH     H1 4449   3.598   3.289   1.541
 1421HOH     H2 4450   3.583   3.362   1.409
 1422HOH      O 4451   1.992   0.041   2.769
 1422HOH     H1 4452   1.968  -0.019   2.840
 1422HOH     H2 4453   1.910   0.057   2.722
 1423HOH      O 4454   0.044   1.146   1.601
 1423HOH     H1 4455   0.057   1.158   1.506
 1423HOH     H2 4456   0.131   1.159   1.639
 1424HOH      O 4457   2.608   2.751   2.721
 1424HOH     H1 4458   2.626   2.666   2.760
 1424HOH     H2 4459   2.634   2.741   2.629
 1425HOH      O 4460   0.966   2.184   2.195
 1425HOH     H1 4461   0.985   2.219   2.108
 1425HOH     H2 4462   0.884   2.135   2.184
 1426HOH      O 4463   2.140   0.268   0.589
 1426HOH     H1 4464   2.104   0.300   0.506
 1426HOH     H2 4465   2.063   0.244   0.640
 1427HOH      O 4466   2.336   0.393   0.271
 1427HOH     H1 4467   2.257   0.405   0.323
 1427HOH     H2 4468   2.323   0.448   0.193
 1428HOH      O 4469   1.853   3.221   1.397
 1428HOH     H1 4470   1.766   3.257   1.416
 1428HOH     H2 4471   1.884   3.186   1.481
 1429HOH      O 4472   3.543   0.171   3.092
 1429HOH     H1 4473   3.512   0.248   3.044
 1429HOH     H2 4474   3.611   0.134   3.036
 1430HOH      O 4475   1.577   2.391   0.077
 1430HOH     H1 4476   1.595   2.314   0.023
 1430HOH     H2 4477   1.616   2.464   0.028
 1431HOH      O 4478   3.946   3.150   3.912
 1431HOH     H1 4479   3.867   3.128   3.864
 1431HOH     H2 4480   3.951   3.086   3.983
 1432HOH      O 4481   0.602   2.402   3.620
 1432HOH     H1 4482   0.546   2.460   3.673
 1432HOH     H2 4483   0.562   2.316   3.630
 1433HOH      O 4484   2.526   0.128   0.569
 1433HOH     H1 4485   2.455   0.069   0.546
 1433HOH     H2 4486   2.606   0.076   0.553
 1434HOH      O 4487   3.839   1.590   1.895
 1434HOH     H1 4488   3.744   1.590   1.902
 1434HOH     H2 4489   3.868   1.522   1.956
 1435HOH      O 4490   3.730   1.079   1.449
 1435HOH     H1 4491   3.825   1.081   1.433
 1435HOH     H2 4492   3.693   1.051   1.365
 1436HOH      O 4493   2.908   0.880   2.202
 1436HOH     H1 4494   2.863   0.796   2.198
 1436HOH     H2 4495   2.980   0.865   2.264
 1437HOH      O 4496   0.059   0.666   0.833
 1437HOH     H1 4497   0.125   0.684   0.900
 1437HOH     H2 4498   0.021   0.751   0.813
 1438HOH      O 4499   3.402   1.490   3.839
 1438HOH     H1 4500   3.413   1.395   3.833
 1438HOH     H2 4501   3.414   1.510   3.932
 1439HOH      O 4502   2.604   3.036   2.327
 1439HOH     H1 4503   2.684   3.027   2.380
 1439HOH     H2 4504   2.543   3.082   2.384
 1440HOH      O 4505   0.258   2.101   3.988
 1440HOH     H1 4506   0.204   2.136   3.918
 1440HOH     H2 4507   0.197   2.075   4.057
 1441HOH      O 4508   2.376   2.648   0.951
 1441HOH     H1 4509   2.295   2.597   0.952
 1441HOH     H2 4510   2.434   2.599   0.892
 1442HOH      O 4511   2.068   4.005   1.723
 1442HOH     H1 4512   2.121   3.974   1.650
 1442HOH     H2 4513   2.128   4.056   1.777
 1443HOH      O 4514   1.442   3.870   3.688
 1443HOH     H1 4515   1.389   3.902   3.761
 1443HOH     H2 4516   1.404   3.912   3.611
 1444HOH      O 4517   0.013   4.027   3.147
 1444HOH     H1 4518   0.045   3.942   3.180
 1444HOH     H2 4519   0.042   4.029   3.056
 1445HOH      O 4520   2.311   1.431   1.457
 1445HOH     H1 4521   2.255   1.423   1.379
 1445HOH     H2 4522   2.328   1.525   1.465
 1446HOH      O 4523   0.265   0.869   0.063
 1446HOH     H1 4524   0.330   0.825   0.008
 1446HOH     H2 4525   0.203   0.906   0.000
 1447HOH      O 4526   0.226   2.744   0.442
 1447HOH     H1 4527   0.178   2.662   0.447
 1447HOH     H2 4528   0.179   2.804   0.500
 1448HOH      O 4529   2.350   3.834   1.964
 1448HOH     H1 4530   2.319   3.825   1.874
 1448HOH     H2 4531   2.392   3.749   1.983
 1449HOH      O 4532   1.053   0.379   0.339
 1449HOH     H1 4533   1.095   0.297   0.366
 1449HOH     H2 4534   1.035   0.425   0.420
 1450HOH      O 4535   0.373   2.672   1.226
 1450HOH     H1 4536   0.334   2.727   1.294
 1450HOH     H2 4537   0.324   2.590   1.230
 1451HOH      O 4538   2.705   1.229   2.628
 1451HOH     H1 4539   2.735   1.313   2.661
 1451HOH     H2 4540   2.711   1.170   2.703
 1452HOH      O 4541   3.162   2.357   3.366
 1452HOH     H1 4542   3.229   2.382   3.430
 1452HOH     H2 4543   3.112   2.437   3.351
 1453HOH      O 4544   2.144   0.938   0.081
 1453HOH     H1 4545   2.120   1.028   0.106
 1453HOH     H2 4546   2.162   0.894   0.165
 1454HOH      O 4547   3.556   1.437   0.922
 1454HOH     H1 4548   3.587   1.407   0.837
 1454HOH     H2 4549   3.460   1.437   0.914
 1455HOH      O 4550   1.293   0.192   3.873
 1455HOH     H1 4551   1.358   0.255   3.842
 1455HOH     H2 4552   1.230   0.245   3.921
 1456HOH      O 4553   1.693   0.232   3.715
 1456HOH     H1 4554   1.634   0.173   3.761
 1456HOH     H2 4555   1.776   0.226   3.763
 1457HOH      O 4556   0.371   3.451   0.903
 1457HOH     H1 4557   0.403   3.424   0.990
 1457HOH     H2 4558   0.340   3.540   0.916
 1458HOH      O 4559   3.955   0.500   1.277
 1458HOH     H1 4560   3.945   0.495   1.182
 1458HOH     H2 4561   4.041   0.540   1.289
 1459HOH      O 4562   1.083   2.405   1.225
 1459HOH     H1 4563   1.096   2.471   1.292
 1459HOH     H2 4564   1.103   2.450   1.143
 1460HOH      O 4565   1.004   3.801   3.480
 1460HOH     H1 4566   1.029   3.739   3.412
 1460HOH     H2 4567   0.937   3.856   3.440
 1461HOH      O 4568   2.516   2.060   2.661
 1461HOH     H1 4569   2.546   1.970   2.663
 1461HOH     H2 4570   2.432   2.056   2.616
 1462HOH      O 4571   1.537   1.171   0.900
 1462HOH     H1 4572   1.494   1.187   0.984
 1462HOH     H2 4573   1.474   1.119   0.851
 1463HOH      O 4574   3.616   2.997   2.941
 1463HOH     H1 4575   3.607   3.089   2.918
 1463HOH     H2 4576   3.626   2.998   3.037
 1464HOH      O 4577   1.436   1.583   2.490
 1464HOH     H1 4578   1.507   1.583   2.426
 1464HOH     H2 4579   1.364   1.628   2.446
 1465HOH      O 4580   0.621   1.733   1.557
 1465HOH     H1 4581   0.553   1.680   1.598
 1465HOH     H2 4582   0.612   1.819   1.596
 1466HOH      O 4583   3.120   3.777   1.680
 1466HOH     H1 4584   3.159   3.694   1.706
 1466HOH     H2 4585   3.071   3.756   1.601
 1467HOH      O 4586   1.826   0.259   2.349
 1467HOH     H1 4587   1.890   0.330   2.348
 1467HOH     H2 4588   1.879   0.179   2.351
 1468HOH      O 4589   3.231   0.378   3.271
 1468HOH     H1 4590   3.197   0.331   3.346
 1468HOH     H2 4591   3.186   0.341   3.195
 1469HOH      O 4592   3.554   2.793   2.192
 1469HOH     H1 4593   3.591   2.877   2.163
 1469HOH     H2 4594   3.492   2.817   2.261
 1470HOH      O 4595   3.490   1.474   2.687
 1470HOH     H1 4596   3.480   1.459   2.593
 1470HOH     H2 4597   3.582   1.497   2.698
 1471HOH      O 4598   1.926   0.945   0.390
 1471HOH     H1 4599   1.919   0.850   0.387
 1471HOH     H2 4600   1.868   0.975   0.320
 1472HOH      O 4601   0.432   3.177   2.155
 1472HOH     H1 4602   0.470   3.259   2.185
 1472HOH     H2 4603   0.408   3.194   2.063
 1473HOH      O 4604   0.929   0.909   1.316
 1473HOH     H1 4605   1.005   0.934   1.262
 1473HOH     H2 4606   0.958   0.921   1.406
 1474HOH      O 4607   3.275   3.037   2.636
 1474HOH     H1 4608   3.306   2.967   2.694
 1474HOH     H2 4609   3.198   3.072   2.680
 1475HOH      O 4610   2.612   0.481   1.009
 1475HOH     H1 4611   2.580   0.519   0.927
 1475HOH     H2 4612   2.628   0.389   0.988
 1476HOH      O 4613   3.726   3.776   2.535
 1476HOH     H1 4614   3.654   3.731   2.580
 1476HOH     H2 4615   3.749   3.718   2.463
 1477HOH      O 4616   3.334   1.633   0.291
 1477HOH     H1 4617   3.361   1.633   0.383
 1477HOH     H2 4618   3.242   1.605   0.293
 1478HOH      O 4619   1.742   3.496   1.642
 1478HOH     H1 4620   1.667   3.447   1.608
 1478HOH     H2 4621   1.704   3.555   1.707
 1479HOH      O 4622   1.918   3.956   3.933
 1479HOH     H1 4623   1.980   3.966   4.005
 1479HOH     H2 4624   1.945   4.022   3.869
 1480HOH      O 4625   1.047   0.849   2.826
 1480HOH     H1 4626   0.958   0.884   2.819
 1480HOH     H2 4627   1.057   0.827   2.919
 1481HOH      O 4628   3.017   1.149   1.174
 1481HOH     H1 4629   3.012   1.055   1.157
 1481HOH     H2 4630   3.109   1.171   1.161
 1482HOH      O 4631   0.030   2.398   1.752
 1482HOH     H1 4632   0.073   2.452   1.686
 1482HOH     H2 4633  -0.063   2.419   1.745
 1483HOH      O 4634   3.994   2.185   0.333
 1483HOH     H1 4635   3.942   2.254   0.374
 1483HOH     H2 4636   4.076   2.184   0.383
 1484HOH      O 4637   2.625   2.746   1.438
 1484HOH     H1 4638   2.565   2.821   1.438
 1484HOH     H2 4639   2.635   2.723   1.346
 1485HOH      O 4640   2.608   0.349   3.809
 1485HOH     H1 4641   2.664   0.408   3.758
 1485HOH     H2 4642   2.560   0.298   3.743
 1486HOH      O 4643   2.388   1.970   1.335
 1486HOH     H1 4644   2.357   1.938   1.251
 1486HOH     H2 4645   2.389   1.893   1.392
 1487HOH      O 4646   1.541   3.829   0.321
 1487HOH     H1 4647   1.476   3.836   0.251
 1487HOH     H2 4648   1.603   3.763   0.290
 1488HOH      O 4649   1.668   0.998   1.600
 1488HOH     H1 4650   1.597   1.062   1.599
 1488HOH     H2 4651   1.648   0.939   1.528
 1489HOH      O 4652   2.571   0.935   0.120
 1489HOH     H1 4653   2.656   0.970   0.092
 1489HOH     H2 4654   2.511   1.010   0.112
 1490HOH      O 4655   3.684   1.423   1.349
 1490HOH     H1 4656   3.732   1.384   1.422
 1490HOH     H2 4657   3.603   1.371   1.342
 1491HOH      O 4658   1.980   1.561   0.954
 1491HOH     H1 4659   1.961   1.513   0.873
 1491HOH     H2 4660   1.915   1.529   1.016
 1492HOH      O 4661   3.886   2.531   2.037
 1492HOH     H1 4662   3.850   2.574   1.960
 1492HOH     H2 4663   3.809   2.516   2.093
 1493HOH      O 4664   0.769   0.223   3.121
 1493HOH     H1 4665   0.701   0.158   3.103
 1493HOH     H2 4666   0.744   0.260   3.206
 1494HOH      O 4667   0.378   1.536   3.814
 1494HOH     H1 4668   0.410   1.520   3.726
 1494HOH     H2 4669   0.310   1.603   3.804
 1495HOH      O 4670   4.038   2.334   2.633
 1495HOH     H1 4671   3.972   2.402   2.619
 1495HOH     H2 4672   3.988   2.253   2.644
 1496HOH      O 4673   2.292   0.683   1.477
 1496HOH     H1 4674   2.338   0.690   1.561
 1496HOH     H2 4675   2.281   0.589   1.464
 1497HOH      O 4676   1.264   3.619   0.018
 1497HOH     H1 4677   1.181   3.577   0.039
 1497HOH     H2 4678   1.298   3.570  -0.057
 1498HOH      O 4679   3.566   3.576   2.640
 1498HOH     H1 4680   3.474   3.560   2.620
 1498HOH     H2 4681   3.578   3.536   2.727
 1499HOH      O 4682   2.376   3.154   2.434
 1499HOH     H1 4683   2.322   3.233   2.430
 1499HOH     H2 4684   2.323   3.086   2.391
 1500HOH      O 4685   3.086   2.083   1.591
 1500HOH     H1 4686   3.040   2.030   1.526
 1500HOH     H2 4687   3.061   2.173   1.571
 1501HOH      O 4688   0.575   2.047   3.106
 1501HOH     H1 4689   0.642   1.982   3.127
 1501HOH     H2 4690   0.556   2.033   3.013
 1502HOH      O 4691   1.439   2.864   2.855
 1502HOH     H1 4692   1.406   2.799   2.917
 1502HOH     H2 4693   1.369   2.872   2.790
 1503HOH      O 4694   1.174   2.064   3.204
 1503HOH     H1 4695   1.165   2.054   3.298
 1503HOH     H2 4696   1.251   2.120   3.193
 1504HOH      O 4697   3.772   3.309   3.360
 1504HOH     H1 4698   3.692   3.314   3.308
 1504HOH     H2 4699   3.807   3.398   3.360
 1505HOH      O 4700   0.981   0.901   1.574
 1505HOH     H1 4701   0.886   0.910   1.580
 1505HOH     H2 4702   0.996   0.807   1.576
 1506HOH      O 4703   2.681   0.923   2.767
 1506HOH     H1 4704   2.642   0.837   2.780
 1506HOH     H2 4705   2.728   0.916   2.684
 1507HOH      O 4706   3.489   2.577   2.709
 1507HOH     H1 4707   3.433   2.567   2.786
 1507HOH     H2 4708   3.575   2.545   2.738
 1508HOH      O 4709   2.991   3.835   4.042
 1508HOH     H1 4710   2.959   3.750   4.011
 1508HOH     H2 4711   3.068   3.852   3.988
 1509HOH      O 4712   1.935   3.142   1.630
 1509HOH     H1 4713   1.940   3.233   1.657
 1509HOH     H2 4714   1.877   3.100   1.693
 1510HOH      O 4715   1.585   0.275   1.919
 1510HOH     H1 4716   1.550   0.215   1.852
 1510HOH     H2 4717   1.672   0.298   1.886
 1511HOH      O 4718   2.353   1.081   4.015
 1511HOH     H1 4719   2.286   1.017   4.041
 1511HOH     H2 4720   2.311   1.132   3.945
 1512HOH      O 4721   0.537   0.809   0.385
 1512HOH     H1 4722   0.587   0.734   0.354
 1512HOH     H2 4723   0.446   0.790   0.361
 1513HOH      O 4724   0.199   2.907   1.938
 1513HOH     H1 4725   0.157   2.822   1.952
 1513HOH     H2 4726   0.247   2.923   2.019
 1514HOH      O 4727   3.249   3.403   0.403
 1514HOH     H1 4728   3.335   3.409   0.444
 1514HOH     H2 4729   3.248   3.316   0.364
 1515HOH      O 4730   0.249   1.416   0.616
 1515HOH     H1 4731   0.250   1.357   0.541
 1515HOH     H2 4732   0.249   1.504   0.577
 1516HOH      O 4733   2.517   3.985   3.637
 1516HOH     H1 4734   2.604   4.001   3.673
 1516HOH     H2 4735   2.484   4.072   3.614
 1517HOH      O 4736   2.411   2.615   3.994
 1517HOH     H1 4737   2.350   2.596   4.065
 1517HOH     H2 4738   2.372   2.574   3.917
 1518HOH      O 4739   0.634   4.022   3.600
 1518HOH     H1 4740   0.631   3.936   3.641
 1518HOH     H2 4741   0.576   4.077   3.653
 1519HOH      O 4742   1.509   0.508   1.425
 1519HOH     H1 4743   1.536   0.428   1.470
 1519HOH     H2 4744   1.445   0.548   1.484
 1520HOH      O 4745   3.747   0.541   3.074
 1520HOH     H1 4746   3.780   0.451   3.071
 1520HOH     H2 4747   3.718   0.559   2.985
 1521HOH      O 4748   2.768   0.972   3.023
 1521HOH     H1 4749   2.734   0.935   2.941
 1521HOH     H2 4750   2.815   0.899   3.064
 1522HOH      O 4751   1.210   1.009   3.170
 1522HOH     H1 4752   1.139   0.949   3.151
 1522HOH     H2 4753   1.282   0.953   3.200
 1523HOH      O 4754   1.076   1.767   2.286
 1523HOH     H1 4755   0.994   1.815   2.300
 1523HOH     H2 4756   1.086   1.764   2.191
 1524HOH      O 4757   1.713   1.387   1.992
 1524HOH     H1 4758   1.704   1.295   1.969
 1524HOH     H2 4759   1.772   1.423   1.927
 1525HOH      O 4760   2.729   2.086   2.827
 1525HOH     H1 4761   2.702   2.028   2.898
 1525HOH     H2 4762   2.654   2.086   2.767
 1526HOH      O 4763   1.293   0.570   0.374
 1526HOH     H1 4764   1.372   0.541   0.328
 1526HOH     H2 4765   1.271   0.498   0.432
 1527HOH      O 4766   3.798   0.644   2.124
 1527HOH     H1 4767   3.732   0.588   2.165
 1527HOH     H2 4768   3.763   0.661   2.037
 1528HOH      O 4769   0.229   1.188   2.580
 1528HOH     H1 4770   0.158   1.251   2.570
 1528HOH     H2 4771   0.202   1.132   2.652
 1529HOH      O 4772   2.912   1.330   3.460
 1529HOH     H1 4773   2.821   1.303   3.455
 1529HOH     H2 4774   2.932   1.331   3.553
 1530HOH      O 4775   2.670   3.554   3.761
 1530HOH     H1 4776   2.752   3.520   3.724
 1530HOH     H2 4777   2.629   3.601   3.688
 1531HOH      O 4778   2.235   0.605   0.100
 1531HOH     H1 4779   2.282   0.642   0.026
 1531HOH     H2 4780   2.269   0.651   0.176
 1532HOH      O 4781   3.330   2.239   0.626
 1532HOH     H1 4782   3.273   2.291   0.569
 1532HOH     H2 4783   3.272   2.171   0.662
 1533HOH      O 4784   3.566   1.778   0.702
 1533HOH     H1 4785   3.534   1.824   0.779
 1533HOH     H2 4786   3.659   1.763   0.719
 1534HOH      O 4787   1.454   3.068   1.025
 1534HOH     H1 4788   1.453   3.154   0.982
 1534HOH     H2 4789   1.529   3.072   1.084
 1535HOH      O 4790   3.553   0.513   2.225
 1535HOH     H1 4791   3.553   0.608   2.211
 1535HOH     H2 4792   3.586   0.503   2.314
 1536HOH      O 4793   3.825   2.367   3.675
 1536HOH     H1 4794   3.781   2.297   3.626
 1536HOH     H2 4795   3.911   2.375   3.633
 1537HOH      O 4796   1.311   0.349   0.523
 1537HOH     H1 4797   1.277   0.318   0.607
 1537HOH     H2 4798   1.341   0.269   0.479
 1538HOH      O 4799   3.843   3.596   3.978
 1538HOH     H1 4800   3.888   3.526   4.026
 1538HOH     H2 4801   3.896   3.674   3.994
 1539HOH      O 4802   0.269   1.956   1.455
 1539HOH     H1 4803   0.268   1.869   1.494
 1539HOH     H2 4804   0.177   1.981   1.449
 1540HOH      O 4805   2.587   1.932   3.257
 1540HOH     H1 4806   2.492   1.928   3.266
 1540HOH     H2 4807   2.619   1.863   3.316
 1541HOH      O 4808   1.386   1.951   2.333
 1541HOH     H1 4809   1.419   1.966   2.422
 1541HOH     H2 4810   1.461   1.972   2.277
 1542HOH      O 4811   3.953   2.462   0.034
 1542HOH     H1 4812   3.905   2.532  -0.010
 1542HOH     H2 4813   3.922   2.382  -0.008
 1543HOH      O 4814   2.281   1.671   1.762
 1543HOH     H1 4815   2.350   1.631   1.816
 1543HOH     H2 4816   2.202   1.621   1.784
 1544HOH      O 4817   3.693   0.679   0.888
 1544HOH     H1 4818   3.686   0.610   0.954
 1544HOH     H2 4819   3.728   0.635   0.811
 1545HOH      O 4820   0.228   2.352   2.467
 1545HOH     H1 4821   0.168   2.321   2.534
 1545HOH     H2 4822   0.172   2.377   2.394
 1546HOH      O 4823   1.413   1.252   1.154
 1546HOH     H1 4824   1.367   1.180   1.196
 1546HOH     H2 4825   1.347   1.321   1.144
 1547HOH      O 4826   2.311   3.052   1.289
 1547HOH     H1 4827   2.312   2.971   1.239
 1547HOH     H2 4828   2.286   3.119   1.226
 1548HOH      O 4829   3.412   0.719   1.757
 1548HOH     H1 4830   3.389   0.812   1.750
 1548HOH     H2 4831   3.386   0.681   1.673
 1549HOH      O 4832   3.173   3.478   3.965
 1549HOH     H1 4833   3.161   3.550   4.028
 1549HOH     H2 4834   3.217   3.410   4.016
 1550HOH      O 4835   1.326   1.899   0.372
 1550HOH     H1 4836   1.266   1.974   0.374
 1550HOH     H2 4837   1.280   1.833   0.320
 1551HOH      O 4838   1.161   2.684   0.515
 1551HOH     H1 4839   1.083   2.728   0.481
 1551HOH     H2 4840   1.153   2.594   0.483
 1552HOH      O 4841   2.387   2.164   2.978
 1552HOH     H1 4842   2.368   2.251   2.943
 1552HOH     H2 4843   2.452   2.127   2.918
 1553HOH      O 4844   0.909   2.277   3.723
 1553HOH     H1 4845   0.934   2.222   3.648
 1553HOH     H2 4846   0.864   2.218   3.782
 1554HOH      O 4847   3.728   2.998   3.854
 1554HOH     H1 4848   3.667   2.951   3.912
 1554HOH     H2 4849   3.671   3.048   3.796
 1555HOH      O 4850   3.327   0.996   0.456
 1555HOH     H1 4851   3.285   0.933   0.515
 1555HOH     H2 4852   3.357   1.066   0.514
 1556HOH      O 4853   0.856   2.624   2.796
 1556HOH     H1 4854   0.782   2.657   2.745
 1556HOH     H2 4855   0.933   2.642   2.742
 1557HOH      O 4856   1.207   3.701   3.774
 1557HOH     H1 4857   1.259   3.763   3.824
 1557HOH     H2 4858   1.121   3.702   3.816
 1558HOH      O 4859   2.172   2.443   0.116
 1558HOH     H1 4860   2.085   2.429   0.154
 1558HOH     H2 4861   2.230   2.387   0.167
 1559HOH      O 4862   1.736   3.986   0.813
 1559HOH     H1 4863   1.675   3.916   0.836
 1559HOH     H2 4864   1.716   4.005   0.721
 1560HOH      O 4865   1.191   0.440   1.464
 1560HOH     H1 4866   1.172   0.416   1.374
 1560HOH     H2 4867   1.110   0.481   1.495
 1561HOH      O 4868   0.507   3.047   3.721
 1561HOH     H1 4869   0.536   3.117   3.662
 1561HOH     H2 4870   0.458   2.987   3.665
 1562HOH      O 4871   2.878   0.920   2.587
 1562HOH     H1 4872   2.858   1.012   2.571
 1562HOH     H2 4873   2.956   0.922   2.643
 1563HOH      O 4874   1.672   2.111   3.795
 1563HOH     H1 4875   1.579   2.118   3.817
 1563HOH     H2 4876   1.679   2.029   3.746
 1564HOH      O 4877   1.959   0.547   3.479
 1564HOH     H1 4878   1.965   0.635   3.516
 1564HOH     H2 4879   2.044   0.534   3.437
 1565HOH      O 4880   3.310   3.251   3.539
 1565HOH     H1 4881   3.400   3.233   3.567
 1565HOH     H2 4882   3.320   3.293   3.453
 1566HOH      O 4883   3.834   2.215   0.772
 1566HOH     H1 4884   3.816   2.305   0.800
 1566HOH     H2 4885   3.750   2.183   0.740
 1567HOH      O 4886   2.748   3.941   1.984
 1567HOH     H1 4887   2.710   3.947   2.072
 1567HOH     H2 4888   2.672   3.932   1.927
 1568HOH      O 4889   1.404   2.448   1.830
 1568HOH     H1 4890   1.443   2.465   1.916
 1568HOH     H2 4891   1.458   2.380   1.791
 1569HOH      O 4892   1.173   0.140   2.527
 1569HOH     H1 4893   1.215   0.148   2.441
 1569HOH     H2 4894   1.205   0.057   2.561
 1570HOH      O 4895   1.242   2.929   1.098
 1570HOH     H1 4896   1.299   2.992   1.054
 1570HOH     H2 4897   1.154   2.955   1.073
 1571HOH      O 4898  -0.001   0.133   2.880
 1571HOH     H1 4899   0.071   0.144   2.818
 1571HOH     H2 4900  -0.065   0.080   2.832
 1572HOH      O 4901   2.768   2.019   1.611
 1572HOH     H1 4902   2.744   2.071   1.688
 1572HOH     H2 4903   2.705   1.947   1.610
 1573HOH      O 4904   0.315   0.176   2.375
 1573HOH     H1 4905   0.223   0.157   2.356
 1573HOH     H2 4906   0.340   0.241   2.310
 1574HOH      O 4907   1.564   1.284   0.483
 1574HOH     H1 4908   1.574   1.355   0.546
 1574HOH     H2 4909   1.476   1.296   0.447
 1575HOH      O 4910   1.715   0.519   1.802
 1575HOH     H1 4911   1.803   0.536   1.768
 1575HOH     H2 4912   1.724   0.529   1.897
 1576HOH      O 4913   3.091   2.159   0.778
 1576HOH     H1 4914   3.080   2.096   0.849
 1576HOH     H2 4915   3.114   2.240   0.822
 1577HOH      O 4916   2.953   3.062   1.422
 1577HOH     H1 4917   2.893   3.135   1.409
 1577HOH     H2 4918   2.984   3.072   1.512
 1578HOH      O 4919   3.409   2.347   0.993
 1578HOH     H1 4920   3.321   2.325   0.962
 1578HOH     H2 4921   3.457   2.370   0.914
 1579HOH      O 4922   3.100   2.768   1.873
 1579HOH     H1 4923   3.175   2.816   1.905
 1579HOH     H2 4924   3.099   2.784   1.779
 1580HOH      O 4925   3.224   0.931   1.329
 1580HOH     H1 4926   3.211   1.022   1.357
 1580HOH     H2 4927   3.319   0.918   1.333
 1581HOH      O 4928   4.038   0.953   3.231
 1581HOH     H1 4929   3.986   0.891   3.281
 1581HOH     H2 4930   4.024   0.928   3.140
 1582HOH      O 4931   2.212   1.555   2.820
 1582HOH     H1 4932   2.199   1.518   2.732
 1582HOH     H2 4933   2.161   1.499   2.877
 1583HOH      O 4934   1.565   1.378   1.341
 1583HOH     H1 4935   1.502   1.330   1.288
 1583HOH     H2 4936   1.526   1.378   1.429
 1584HOH      O 4937   3.406   0.770   2.918
 1584HOH     H1 4938   3.454   0.825   2.980
 1584HOH     H2 4939   3.471   0.707   2.887
 1585HOH      O 4940   2.337   1.204   2.057
 1585HOH     H1 4941   2.331   1.123   2.107
 1585HOH     H2 4942   2.401   1.186   1.988
 1586HOH      O 4943   2.419   1.544   0.457
 1586HOH     H1 4944   2.430   1.490   0.535
 1586HOH     H2 4945   2.335   1.588   0.469
 1587HOH      O 4946   1.688   1.388   3.642
 1587HOH     H1 4947   1.717   1.479   3.637
 1587HOH     H2 4948   1.759   1.337   3.603
 1588HOH      O 4949   3.787   0.816   0.525
 1588HOH     H1 4950   3.741   0.753   0.469
 1588HOH     H2 4951   3.879   0.807   0.500
 1589HOH      O 4952   1.102   3.204   1.533
 1589HOH     H1 4953   1.114   3.109   1.529
 1589HOH     H2 4954   1.089   3.231   1.443
 1590HOH      O 4955   0.508   0.955   0.750
 1590HOH     H1 4956   0.418   0.927   0.735
 1590HOH     H2 4957   0.557   0.874   0.765
 1591HOH      O 4958   1.441   0.144   0.766
 1591HOH     H1 4959   1.517   0.200   0.782
 1591HOH     H2 4960   1.368   0.205   0.761
 1592HOH      O 4961   1.192   0.620   3.344
 1592HOH     H1 4962   1.100   0.637   3.367
 1592HOH     H2 4963   1.187   0.581   3.256
 1593HOH      O 4964   2.479   0.649   2.150
 1593HOH     H1 4965   2.492   0.719   2.086
 1593HOH     H2 4966   2.386   0.629   2.145
 1594HOH      O 4967   2.733   2.935   3.756
 1594HOH     H1 4968   2.727   3.026   3.783
 1594HOH     H2 4969   2.647   2.898   3.775
 1595HOH      O 4970   2.807   1.247   1.379
 1595HOH     H1 4971   2.885   1.198   1.353
 1595HOH     H2 4972   2.739   1.180   1.386
 1596HOH      O 4973   1.608   2.543   1.632
 1596HOH     H1 4974   1.694   2.501   1.633
 1596HOH     H2 4975   1.555   2.492   1.693
 1597HOH      O 4976   2.789   2.647   0.498
 1597HOH     H1 4977   2.786   2.646   0.594
 1597HOH     H2 4978   2.700   2.670   0.472
 1598HOH      O 4979   3.732   4.018   2.973
 1598HOH     H1 4980   3.794   3.947   2.992
 1598HOH     H2 4981   3.691   3.992   2.890
 1599HOH      O 4982   2.321   3.123   2.823
 1599HOH     H1 4983   2.312   3.206   2.870
 1599HOH     H2 4984   2.231   3.095   2.809
 1600HOH      O 4985   1.584   2.694   3.611
 1600HOH     H1 4986   1.609   2.784   3.631
 1600HOH     H2 4987   1.655   2.661   3.556
 1601HOH      O 4988   2.541   1.149   1.886
 1601HOH     H1 4989   2.635   1.139   1.875
 1601HOH     H2 4990   2.516   1.213   1.820
 1602HOH      O 4991   2.258   1.099   3.266
 1602HOH     H1 4992   2.303   1.071   3.187
 1602HOH     H2 4993   2.321   1.153   3.313
 1603HOH      O 4994   0.094   2.853   3.345
 1603HOH     H1 4995   0.038   2.928   3.363
 1603HOH     H2 4996   0.033   2.781   3.328
 1604HOH      O 4997   1.142   1.192   0.160
 1604HOH     H1 4998   1.093   1.201   0.079
 1604HOH     H2 4999   1.176   1.280   0.177
 1605HOH      O 5000   0.069   2.682   2.830
 1605HOH     H1 5001  -0.006   2.714   2.780
 1605HOH     H2 5002   0.104   2.760   2.873
 1606HOH      O 5003   3.169   0.645   1.246
 1606HOH     H1 5004   3.142   0.736   1.230
 1606HOH     H2 5005   3.254   0.638   1.203
 1607HOH      O 5006   1.449   3.518   0.528
 1607HOH     H1 5007   1.363   3.527   0.568
 1607HOH     H2 5008   1.437   3.542   0.437
 1608HOH      O 5009   0.434   3.819   3.394
 1608HOH     H1 5010   0.481   3.899   3.371
 1608HOH     H2 5011   0.359   3.849   3.445
 1609HOH      O 5012   2.210   2.472   2.552
 1609HOH     H1 5013   2.118   2.477   2.527
 1609HOH     H2 5014   2.254   2.435   2.475
 1610HOH      O 5015   2.992   0.506   0.128
 1610HOH     H1 5016   3.074   0.466   0.099
 1610HOH     H2 5017   3.016   0.596   0.153
 1611HOH      O 5018   0.652   1.110   1.007
 1611HOH     H1 5019   0.699   1.181   1.050
 1611HOH     H2 5020   0.711   1.080   0.938
 1612HOH      O 5021   1.711   1.773   1.455
 1612HOH     H1 5022   1.626   1.733   1.432
 1612HOH     H2 5023   1.717   1.849   1.398
 1613HOH      O 5024   2.442   3.366   2.173
 1613HOH     H1 5025   2.373   3.318   2.127
 1613HOH     H2 5026   2.523   3.324   2.144
 1614HOH      O 5027   2.416   3.312   1.169
 1614HOH     H1 5028   2.385   3.270   1.090
 1614HOH     H2 5029   2.504   3.342   1.147
 1615HOH      O 5030   0.874   3.863   0.200
 1615HOH     H1 5031   0.879   3.836   0.108
 1615HOH     H2 5032   0.925   3.797   0.247
 1616HOH      O 5033   1.880   1.660   3.437
 1616HOH     H1 5034   1.906   1.747   3.466
 1616HOH     H2 5035   1.802   1.639   3.488
 1617HOH      O 5036   0.616   2.109   2.544
 1617HOH     H1 5037   0.585   2.037   2.489
 1617HOH     H2 5038   0.617   2.073   2.632
 1618HOH      O 5039   0.873   1.503   3.073
 1618HOH     H1 5040   0.847   1.595   3.079
 1618HOH     H2 5041   0.919   1.497   2.990
 1619HOH      O 5042   2.129   2.241   3.963
 1619HOH     H1 5043   2.219   2.238   3.930
 1619HOH     H2 5044   2.127   2.319   4.019
 1620HOH      O 5045   0.435   2.294   0.806
 1620HOH     H1 5046   0.395   2.251   0.882
 1620HOH     H2 5047   0.368   2.289   0.737
 1621HOH      O 5048   0.775   2.958   3.457
 1621HOH     H1 5049   0.773   2.868   3.488
 1621HOH     H2 5050   0.761   3.011   3.536
 1622HOH      O 5051   2.688   4.014   1.699
 1622HOH     H1 5052   2.716   3.941   1.645
 1622HOH     H2 5053   2.725   4.091   1.656
 1623HOH      O 5054   0.384   3.075   0.740
 1623HOH     H1 5055   0.372   2.982   0.758
 1623HOH     H2 5056   0.408   3.113   0.824
 1624HOH      O 5057   1.165   0.692   0.137
 1624HOH     H1 5058   1.208   0.663   0.217
 1624HOH     H2 5059   1.138   0.782   0.156
 1625HOH      O 5060   0.088   3.082   1.770
 1625HOH     H1 5061   0.058   3.153   1.826
 1625HOH     H2 5062   0.108   3.010   1.830
 1626HOH      O 5063   0.918   0.208   2.614
 1626HOH     H1 5064   0.973   0.173   2.545
 1626HOH     H2 5065   0.922   0.142   2.684
 1627HOH      O 5066   3.938   0.075   3.710
 1627HOH     H1 5067   3.997   0.038   3.776
 1627HOH     H2 5068   3.970   0.039   3.627
 1628HOH      O 5069   3.865   0.708   1.840
 1628HOH     H1 5070   3.900   0.627   1.803
 1628HOH     H2 5071   3.888   0.776   1.776
 1629HOH      O 5072   3.395   1.161   0.660
 1629HOH     H1 5073   3.448   1.240   0.673
 1629HOH     H2 5074   3.406   1.112   0.742
 1630HOH      O 5075   1.603   0.290   1.011
 1630HOH     H1 5076   1.674   0.298   0.947
 1630HOH     H2 5077   1.620   0.206   1.055
 1631HOH      O 5078   2.804   0.685   2.929
 1631HOH     H1 5079   2.766   0.657   2.845
 1631HOH     H2 5080   2.883   0.733   2.904
 1632HOH      O 5081   2.104   0.529   2.659
 1632HOH     H1 5082   2.157   0.545   2.581
 1632HOH     H2 5083   2.109   0.434   2.671
 1633HOH      O 5084   3.389   3.509   3.414
 1633HOH     H1 5085   3.310   3.483   3.368
 1633HOH     H2 5086   3.357   3.560   3.489
 1634HOH      O 5087   1.953   3.078   0.891
 1634HOH     H1 5088   1.989   3.055   0.977
 1634HOH     H2 5089   1.984   3.008   0.833
 1635HOH      O 5090   3.120   3.329   1.901
 1635HOH     H1 5091   3.046   3.388   1.887
 1635HOH     H2 5092   3.110   3.299   1.991
 1636HOH      O 5093   1.184   3.606   2.540
 1636HOH     H1 5094   1.110   3.659   2.509
 1636HOH     H2 5095   1.206   3.643   2.625
 1637HOH      O 5096   2.007   3.011   3.282
 1637HOH     H1 5097   2.020   3.103   3.260
 1637HOH     H2 5098   2.022   2.964   3.200
 1638HOH      O 5099   2.720   3.590   2.882
 1638HOH     H1 5100   2.651   3.615   2.820
 1638HOH     H2 5101   2.760   3.512   2.845
 1639HOH      O 5102   3.514   1.315   1.585
 1639HOH     H1 5103   3.573   1.390   1.598
 1639HOH     H2 5104   3.544   1.250   1.649
 1640HOH      O 5105   0.564   3.429   2.067
 1640HOH     H1 5106   0.636   3.490   2.083
 1640HOH     H2 5107   0.504   3.478   2.012
 1641HOH      O 5108   0.956   2.123   0.535
 1641HOH     H1 5109   0.904   2.103   0.612
 1641HOH     H2 5110   1.043   2.142   0.569
 1642HOH      O 5111   0.010   0.837   2.995
 1642HOH     H1 5112   0.056   0.759   3.027
 1642HOH     H2 5113  -0.047   0.805   2.925
 1643HOH      O 5114   3.134   2.349   0.987
 1643HOH     H1 5115   3.078   2.362   1.064
 1643HOH     H2 5116   3.163   2.437   0.964
 1644HOH      O 5117   1.324   1.332   2.991
 1644HOH     H1 5118   1.332   1.399   2.922
 1644HOH     H2 5119   1.297   1.253   2.944
 1645HOH      O 5120   3.588   2.712   3.567
 1645HOH     H1 5121   3.498   2.715   3.534
 1645HOH     H2 5122   3.580   2.730   3.661
 1646HOH      O 5123   3.489   3.668   2.323
 1646HOH     H1 5124   3.583   3.680   2.310
 1646HOH     H2 5125   3.450   3.751   2.294
 1647HOH      O 5126   1.964   1.872   0.743
 1647HOH     H1 5127   1.959   1.935   0.815
 1647HOH     H2 5128   2.004   1.921   0.671
 1648HOH      O 5129   2.561   3.671   3.545
 1648HOH     H1 5130   2.605   3.706   3.468
 1648HOH     H2 5131   2.503   3.741   3.573
 1649HOH      O 5132   3.489   3.443   2.144
 1649HOH     H1 5133   3.454   3.500   2.213
 1649HOH     H2 5134   3.564   3.400   2.183
 1650HOH      O 5135   3.934   2.943   3.584
 1650HOH     H1 5136   3.980   2.999   3.521
 1650HOH     H2 5137   3.932   2.857   3.543
 1651HOH      O 5138   1.690   0.531   1.206
 1651HOH     H1 5139   1.669   0.467   1.138
 1651HOH     H2 5140   1.617   0.525   1.267
 1652HOH      O 5141   3.645   2.403   3.332
 1652HOH     H1 5142   3.623   2.493   3.307
 1652HOH     H2 5143   3.725   2.413   3.384
 1653HOH      O 5144   0.438   1.341   3.994
 1653HOH     H1 5145   0.477   1.271   3.942
 1653HOH     H2 5146   0.407   1.404   3.929
 1654HOH      O 5147   3.013   3.770   1.979
 1654HOH     H1 5148   3.016   3.723   1.895
 1654HOH     H2 5149   2.932   3.821   1.974
 1655HOH      O 5150   1.437   2.626   1.112
 1655HOH     H1 5151   1.467   2.664   1.030
 1655HOH     H2 5152   1.349   2.592   1.092
 1656HOH      O 5153  -0.001   1.217   2.051
 1656HOH     H1 5154  -0.018   1.124   2.041
 1656HOH     H2 5155   0.051   1.240   1.974
 1657HOH      O 5156   2.235   2.940   1.938
 1657HOH     H1 5157   2.289   2.950   1.859
 1657HOH     H2 5158   2.289   2.886   1.996
 1658HOH      O 5159   0.677   0.339   2.558
 1658HOH     H1 5160   0.708   0.410   2.501
 1658HOH     H2 5161   0.752   0.280   2.564
 1659HOH      O 5162   0.387   1.052   0.199
 1659HOH     H1 5163   0.319   0.986   0.187
 1659HOH     H2 5164   0.443   1.044   0.122
 1660HOH      O 5165   3.096   0.143   3.141
 1660HOH     H1 5166   3.154   0.085   3.190
 1660HOH     H2 5167   3.008   0.110   3.160
 1661HOH      O 5168   0.665   3.491   1.308
 1661HOH     H1 5169   0.745   3.492   1.255
 1661HOH     H2 5170   0.596   3.465   1.247
 1662HOH      O 5171   1.612   2.269   1.403
 1662HOH     H1 5172   1.588   2.276   1.311
 1662HOH     H2 5173   1.528   2.270   1.450
 1663HOH      O 5174   3.632   1.051   3.731
 1663HOH     H1 5175   3.630   0.956   3.718
 1663HOH     H2 5176   3.721   1.070   3.761
 1664HOH      O 5177   3.268   3.480   3.159
 1664HOH     H1 5178   3.325   3.556   3.143
 1664HOH     H2 5179   3.190   3.497   3.105
 1665HOH      O 5180   2.772   2.988   3.105
 1665HOH     H1 5181   2.820   2.934   3.042
 1665HOH     H2 5182   2.808   3.076   3.092
 1666HOH      O 5183   2.514   3.204   3.085
 1666HOH     H1 5184   2.450   3.264   3.045
 1666HOH     H2 5185   2.500   3.121   3.040
 1667HOH      O 5186   2.947   3.552   1.825
 1667HOH     H1 5187   2.926   3.519   1.738
 1667HOH     H2 5188   2.862   3.564   1.868
 1668HOH      O 5189   2.385   3.450   0.502
 1668HOH     H1 5190   2.372   3.365   0.544
 1668HOH     H2 5191   2.438   3.499   0.565
 1669HOH      O 5192   1.660   1.660   2.354
 1669HOH     H1 5193   1.707   1.743   2.350
 1669HOH     H2 5194   1.727   1.594   2.335
 1670HOH      O 5195   0.405   1.649   0.688
 1670HOH     H1 5196   0.326   1.661   0.739
 1670HOH     H2 5197   0.383   1.683   0.601
 1671HOH      O 5198   0.308   3.092   1.596
 1671HOH     H1 5199   0.279   3.033   1.526
 1671HOH     H2 5200   0.233   3.100   1.654
 1672HOH      O 5201   1.173   3.738   3.020
 1672HOH     H1 5202   1.104   3.791   2.980
 1672HOH     H2 5203   1.135   3.707   3.102
 1673HOH      O 5204   2.909   2.799   1.498
 1673HOH     H1 5205   2.832   2.756   1.462
 1673HOH     H2 5206   2.903   2.889   1.466
 1674HOH      O 5207   0.578   1.210   3.805
 1674HOH     H1 5208   0.632   1.285   3.779
 1674HOH     H2 5209   0.636   1.134   3.795
 1675HOH      O 5210   2.005   0.032   2.362
 1675HOH     H1 5211   2.062   0.011   2.289
 1675HOH     H2 5212   2.059   0.019   2.440
 1676HOH      O 5213   3.373   0.244   2.729
 1676HOH     H1 5214   3.317   0.166   2.731
 1676HOH     H2 5215   3.356   0.288   2.812
 1677HOH      O 5216   2.461   2.639   2.493
 1677HOH     H1 5217   2.468   2.676   2.581
 1677HOH     H2 5218   2.367   2.635   2.476
 1678HOH      O 5219   2.346   1.720   1.485
 1678HOH     H1 5220   2.312   1.714   1.575
 1678HOH     H2 5221   2.433   1.681   1.490
 1679HOH      O 5222   2.430   1.956   0.918
 1679HOH     H1 5223   2.359   1.956   0.982
 1679HOH     H2 5224   2.398   2.011   0.847
 1680HOH      O 5225   0.227   0.121   0.140
 1680HOH     H1 5226   0.153   0.067   0.113
 1680HOH     H2 5227   0.304   0.075   0.108
 1681HOH      O 5228   2.838   0.756   1.756
 1681HOH     H1 5229   2.769   0.727   1.696
 1681HOH     H2 5230   2.831   0.852   1.755
 1682HOH      O 5231   2.099   2.992   1.469
 1682HOH     H1 5232   2.160   3.052   1.426
 1682HOH     H2 5233   2.052   3.046   1.532
 1683HOH      O 5234   1.001   2.004   0.109
 1683HOH     H1 5235   0.955   1.973   0.031
 1683HOH     H2 5236   0.934   2.050   0.160
 1684HOH      O 5237   1.150   0.796   2.586
 1684HOH     H1 5238   1.153   0.703   2.561
 1684HOH     H2 5239   1.101   0.797   2.668
 1685HOH      O 5240   2.114   1.594   0.156
 1685HOH     H1 5241   2.094   1.662   0.221
 1685HOH     H2 5242   2.031   1.578   0.111
 1686HOH      O 5243   3.712   3.887   4.027
 1686HOH     H1 5244   3.699   3.817   3.963
 1686HOH     H2 5245   3.785   3.856   4.081
 1687HOH      O 5246   1.748   1.670   3.699
 1687HOH     H1 5247   1.840   1.662   3.726
 1687HOH     H2 5248   1.703   1.703   3.777
 1688HOH      O 5249   3.814   2.274   1.942
 1688HOH     H1 5250   3.740   2.329   1.917
 1688HOH     H2 5251   3.892   2.326   1.921
 1689HOH      O 5252   2.959   2.217   1.198
 1689HOH     H1 5253   2.892   2.204   1.266
 1689HOH     H2 5254   3.040   2.233   1.247
 1690HOH      O 5255   2.926   3.805   1.014
 1690HOH     H1 5256   2.992   3.854   0.965
 1690HOH     H2 5257   2.946   3.823   1.106
 1691HOH      O 5258   1.015   0.076   0.777
 1691HOH     H1 5259   0.993   0.114   0.692
 1691HOH     H2 5260   0.987  -0.015   0.771
 1692HOH      O 5261   1.472   3.147   2.555
 1692HOH     H1 5262   1.390   3.153   2.506
 1692HOH     H2 5263   1.445   3.152   2.647
 1693HOH      O 5264   0.564   1.960   3.913
 1693HOH     H1 5265   0.504   2.029   3.885
 1693HOH     H2 5266   0.509   1.898   3.961
 1694HOH      O 5267   0.667   2.380   2.195
 1694HOH     H1 5268   0.695   2.421   2.276
 1694HOH     H2 5269   0.678   2.286   2.210
 1695HOH      O 5270   3.550   1.186   0.309
 1695HOH     H1 5271   3.567   1.193   0.215
 1695HOH     H2 5272   3.481   1.120   0.316
 1696HOH      O 5273   2.473   2.249   0.684
 1696HOH     H1 5274   2.473   2.156   0.663
 1696HOH     H2 5275   2.386   2.279   0.661
 1697HOH      O 5276   0.187   3.803   3.245
 1697HOH     H1 5277   0.162   3.711   3.248
 1697HOH     H2 5278   0.283   3.803   3.256
 1698HOH      O 5279   2.585   0.595   0.577
 1698HOH     H1 5280   2.545   0.533   0.516
 1698HOH     H2 5281   2.546   0.574   0.662
 1699HOH      O 5282   0.729   3.436   0.525
 1699HOH     H1 5283   0.713   3.344   0.501
 1699HOH     H2 5284   0.719   3.437   0.620
 1700HOH      O 5285   1.961   0.945   2.374
 1700HOH     H1 5286   1.875   0.967   2.409
 1700HOH     H2 5287   1.991   1.024   2.330
 1701HOH      O 5288   3.423   0.172   2.032
 1701HOH     H1 5289   3.448   0.125   1.952
 1701HOH     H2 5290   3.346   0.124   2.064
 1702HOH      O 5291   1.829   3.929   2.928
 1702HOH     H1 5292   1.843   3.900   3.018
 1702HOH     H2 5293   1.734   3.920   2.914
 1703HOH      O 5294   3.948   0.510   0.997
 1703HOH     H1 5295   3.983   0.569   0.930
 1703HOH     H2 5296   3.930   0.429   0.950
 1704HOH      O 5297   3.930   3.455   2.975
 1704HOH     H1 5298   3.857   3.395   2.961
 1704HOH     H2 5299   3.940   3.500   2.891
 1705HOH      O 5300   2.432   1.998   0.186
 1705HOH     H1 5301   2.351   1.977   0.140
 1705HOH     H2 5302   2.415   2.082   0.229
 1706HOH      O 5303   3.830   3.334   0.325
 1706HOH     H1 5304   3.852   3.385   0.402
 1706HOH     H2 5305   3.873   3.249   0.339
 1707HOH      O 5306   1.083   0.203   0.042
 1707HOH     H1 5307   1.045   0.174   0.125
 1707HOH     H2 5308   1.048   0.141  -0.022
 1708HOH      O 5309   3.759   2.504   0.649
 1708HOH     H1 5310   3.733   2.593   0.626
 1708HOH     H2 5311   3.764   2.458   0.565
 1709HOH      O 5312   3.542   0.910   3.099
 1709HOH     H1 5313   3.613   0.974   3.091
 1709HOH     H2 5314   3.469   0.962   3.133
 1710HOH      O 5315   0.674   0.369   0.836
 1710HOH     H1 5316   0.660   0.276   0.820
 1710HOH     H2 5317   0.653   0.411   0.752
 1711HOH      O 5318   2.866   0.443   1.462
 1711HOH     H1 5319   2.896   0.434   1.552
 1711HOH     H2 5320   2.811   0.521   1.462
 1712HOH      O 5321   3.427   2.137   2.760
 1712HOH     H1 5322   3.443   2.218   2.809
 1712HOH     H2 5323   3.407   2.072   2.827
 1713HOH      O 5324   1.439   1.277   2.216
 1713HOH     H1 5325   1.458   1.370   2.207
 1713HOH     H2 5326   1.456   1.241   2.129
 1714HOH      O 5327   2.327   2.764   3.674
 1714HOH     H1 5328   2.301   2.856   3.675
 1714HOH     H2 5329   2.419   2.765   3.700
 1715HOH      O 5330   0.092   2.859   2.222
 1715HOH     H1 5331   0.005   2.887   2.194
 1715HOH     H2 5332   0.116   2.790   2.160
 1716HOH      O 5333   0.404   3.563   1.891
 1716HOH     H1 5334   0.400   3.537   1.799
 1716HOH     H2 5335   0.315   3.552   1.923
 1717HOH      O 5336   0.017   3.293   1.921
 1717HOH     H1 5337  -0.017   3.296   2.011
 1717HOH     H2 5338   0.064   3.376   1.911
 1718HOH      O 5339   1.899   1.226   3.588
 1718HOH     H1 5340   1.908   1.169   3.512
 1718HOH     H2 5341   1.973   1.203   3.644
 1719HOH      O 5342   3.392   2.723   0.747
 1719HOH     H1 5343   3.411   2.634   0.777
 1719HOH     H2 5344   3.444   2.780   0.804
 1720HOH      O 5345   2.198   2.214   1.868
 1720HOH     H1 5346   2.243   2.268   1.803
 1720HOH     H2 5347   2.216   2.124   1.840
 1721HOH      O 5348   0.620   1.766   2.558
 1721HOH     H1 5349   0.706   1.749   2.596
 1721HOH     H2 5350   0.558   1.737   2.625
 1722HOH      O 5351   2.026   3.767   2.674
 1722HOH     H1 5352   2.036   3.695   2.612
 1722HOH     H2 5353   2.054   3.731   2.758
 1723HOH      O 5354   2.182   3.084   3.869
 1723HOH     H1 5355   2.111   3.036   3.827
 1723HOH     H2 5356   2.243   3.105   3.799
 1724HOH      O 5357   1.880   2.849   1.360
 1724HOH     H1 5358   1.956   2.893   1.399
 1724HOH     H2 5359   1.810   2.859   1.424
 1725HOH      O 5360   3.684   3.035   2.123
 1725HOH     H1 5361   3.659   3.120   2.086
 1725HOH     H2 5362   3.699   3.053   2.216
 1726HOH      O 5363   1.462   0.814   0.089
 1726HOH     H1 5364   1.456   0.890   0.146
 1726HOH     H2 5365   1.372   0.784   0.078
 1727HOH      O 5366   3.762   0.483   2.467
 1727HOH     H1 5367   3.782   0.394   2.436
 1727HOH     H2 5368   3.712   0.469   2.547
 1728HOH      O 5369   3.545   0.650   0.256
 1728HOH     H1 5370   3.505   0.577   0.209
 1728HOH     H2 5371   3.538   0.626   0.349
 1729HOH      O 5372   3.009   0.833   1.113
 1729HOH     H1 5373   2.919   0.865   1.113
 1729HOH     H2 5374   3.009   0.763   1.047
 1730HOH      O 5375   1.973   1.338   3.296
 1730HOH     H1 5376   1.954   1.310   3.386
 1730HOH     H2 5377   1.957   1.432   3.296
 1731HOH      O 5378   1.934   2.715   0.400
 1731HOH     H1 5379   1.860   2.684   0.452
 1731HOH     H2 5380   1.937   2.810   0.417
 1732HOH      O 5381   3.117   2.935   0.128
 1732HOH     H1 5382   3.044   2.993   0.110
 1732HOH     H2 5383   3.109   2.913   0.221
 1733HOH      O 5384   3.107   1.498   0.390
 1733HOH     H1 5385   3.027   1.537   0.425
 1733HOH     H2 5386   3.140   1.443   0.461
 1734HOH      O 5387   2.281   0.410   1.827
 1734HOH     H1 5388   2.360   0.451   1.793
 1734HOH     H2 5389   2.210   0.453   1.780
 1735HOH      O 5390   0.085   0.520   2.426
 1735HOH     H1 5391   0.023   0.531   2.354
 1735HOH     H2 5392   0.031   0.489   2.499
 1736HOH      O 5393   2.878   3.165   0.971
 1736HOH     H1 5394   2.900   3.092   1.030
 1736HOH     H2 5395   2.919   3.241   1.011
 1737HOH      O 5396   1.745   1.797   3.182
 1737HOH     H1 5397   1.815   1.857   3.158
 1737HOH     H2 5398   1.733   1.742   3.105
 1738HOH      O 5399   0.569   0.675   3.084
 1738HOH     H1 5400   0.481   0.698   3.056
 1738HOH     H2 5401   0.565   0.580   3.100
 1739HOH      O 5402   1.098   3.355   2.609
 1739HOH     H1 5403   1.120   3.442   2.574
 1739HOH     H2 5404   1.122   3.295   2.538
 1740HOH      O 5405   3.561   1.427   0.406
 1740HOH     H1 5406   3.531   1.344   0.369
 1740HOH     H2 5407   3.487   1.486   0.393
 1741HOH      O 5408   0.307   2.173   3.145
 1741HOH     H1 5409   0.374   2.171   3.076
 1741HOH     H2 5410   0.227   2.144   3.101
 1742HOH      O 5411   2.237   3.946   3.143
 1742HOH     H1 5412   2.222   3.891   3.066
 1742HOH     H2 5413   2.204   3.894   3.217
 1743HOH      O 5414   1.415   3.535   1.474
 1743HOH     H1 5415   1.408   3.469   1.405
 1743HOH     H2 5416   1.372   3.496   1.549
 1744HOH      O 5417   0.143   2.618   0.772
 1744HOH     H1 5418   0.105   2.570   0.698
 1744HOH     H2 5419   0.078   2.686   0.792
 1745HOH      O 5420   3.656   1.108   0.820
 1745HOH     H1 5421   3.747   1.115   0.849
 1745HOH     H2 5422   3.661   1.094   0.725
 1746HOH      O 5423   1.521   2.515   3.260
 1746HOH     H1 5424   1.577   2.513   3.337
 1746HOH     H2 5425   1.579   2.491   3.188
 1747HOH      O 5426   2.774   2.149   3.547
 1747HOH     H1 5427   2.861   2.179   3.521
 1747HOH     H2 5428   2.717   2.175   3.474
 1748HOH      O 5429   0.024   3.008   2.749
 1748HOH     H1 5430   0.111   3.013   2.787
 1748HOH     H2 5431   0.037   2.964   2.665
 1749HOH      O 5432   2.609   1.657   2.960
 1749HOH     H1 5433   2.676   1.633   3.024
 1749HOH     H2 5434   2.577   1.573   2.927
 1750HOH      O 5435   3.263   3.289   1.512
 1750HOH     H1 5436   3.348   3.276   1.471
 1750HOH     H2 5437   3.245   3.205   1.556
 1751HOH      O 5438   2.606   1.259   2.180
 1751HOH     H1 5439   2.651   1.192   2.230
 1751HOH     H2 5440   2.550   1.211   2.119
 1752HOH      O 5441   0.810   3.498   0.215
 1752HOH     H1 5442   0.763   3.421   0.248
 1752HOH     H2 5443   0.758   3.526   0.139
 1753HOH      O 5444   3.393   1.700   1.243
 1753HOH     H1 5445   3.368   1.657   1.324
 1753HOH     H2 5446   3.485   1.724   1.256
 1754HOH      O 5447   2.997   2.162   3.893
 1754HOH     H1 5448   3.085   2.191   3.869
 1754HOH     H2 5449   2.990   2.074   3.858
 1755HOH      O 5450   1.695   0.748   3.986
 1755HOH     H1 5451   1.722   0.762   3.895
 1755HOH     H2 5452   1.603   0.774   3.988
 1756HOH      O 5453   0.344   0.699   3.301
 1756HOH     H1 5454   0.432   0.725   3.326
 1756HOH     H2 5455   0.354   0.609   3.269
 1757HOH      O 5456   0.229   3.496   3.493
 1757HOH     H1 5457   0.165   3.527   3.557
 1757HOH     H2 5458   0.207   3.404   3.480
 1758HOH      O 5459   1.772   1.556   0.602
 1758HOH     H1 5460   1.847   1.500   0.625
 1758HOH     H2 5461   1.706   1.536   0.668
 1759HOH      O 5462   0.275   1.800   1.778
 1759HOH     H1 5463   0.180   1.791   1.775
 1759HOH     H2 5464   0.290   1.881   1.826
 1760HOH      O 5465   3.607   0.591   2.853
 1760HOH     H1 5466   3.656   0.651   2.796
 1760HOH     H2 5467   3.596   0.512   2.800
 1761HOH      O 5468   0.071   1.987   2.645
 1761HOH     H1 5469   0.031   2.004   2.560
 1761HOH     H2 5470   0.162   1.966   2.625
 1762HOH      O 5471   3.141   2.851   0.679
 1762HOH     H1 5472   3.217   2.822   0.728
 1762HOH     H2 5473   3.082   2.887   0.746
 1763HOH      O 5474   2.794   2.899   2.177
 1763HOH     H1 5475   2.840   2.904   2.261
 1763HOH     H2 5476   2.716   2.953   2.190
 1764HOH      O 5477   3.235   4.036   0.197
 1764HOH     H1 5478   3.312   4.036   0.140
 1764HOH     H2 5479   3.187   3.957   0.173
 1765HOH      O 5480   2.830   0.051   3.180
 1765HOH     H1 5481   2.814   0.020   3.091
 1765HOH     H2 5482   2.748   0.092   3.207
 1766HOH      O 5483   0.374   0.902   1.552
 1766HOH     H1 5484   0.323   0.911   1.472
 1766HOH     H2 5485   0.379   0.807   1.567
 1767HOH      O 5486   0.922   0.248   2.915
 1767HOH     H1 5487   0.925   0.344   2.920
 1767HOH     H2 5488   0.889   0.221   3.000
 1768HOH      O 5489   0.071   2.411   2.254
 1768HOH     H1 5490   0.052   2.339   2.193
 1768HOH     H2 5491   0.020   2.484   2.219
 1769HOH      O 5492   3.900   0.085   0.324
 1769HOH     H1 5493   3.810   0.054   0.319
 1769HOH     H2 5494   3.945   0.040   0.253
 1770HOH      O 5495   1.318   2.333   0.154
 1770HOH     H1 5496   1.404   2.350   0.116
 1770HOH     H2 5497   1.290   2.418   0.190
 1771HOH      O 5498   2.091   3.104   2.581
 1771HOH     H1 5499   2.131   3.156   2.512
 1771HOH     H2 5500   2.026   3.050   2.536
 1772HOH      O 5501   1.704   2.822   0.963
 1772HOH     H1 5502   1.677   2.875   0.889
 1772HOH     H2 5503   1.629   2.821   1.022
 1773HOH      O 5504   3.861   2.824   2.092
 1773HOH     H1 5505   3.820   2.910   2.098
 1773HOH     H2 5506   3.827   2.787   2.010
 1774HOH      O 5507   1.247   2.914   2.656
 1774HOH     H1 5508   1.165   2.867   2.638
 1774HOH     H2 5509   1.267   2.958   2.574
 1775HOH      O 5510   3.147   0.429   2.827
 1775HOH     H1 5511   3.091   0.351   2.833
 1775HOH     H2 5512   3.137   0.472   2.911
 1776HOH      O 5513   2.930   1.937   1.428
 1776HOH     H1 5514   2.881   1.893   1.358
 1776HOH     H2 5515   2.863   1.983   1.479
 1777HOH      O 5516   3.118   2.567   3.683
 1777HOH     H1 5517   3.042   2.547   3.628
 1777HOH     H2 5518   3.086   2.632   3.745
 1778HOH      O 5519   0.768   2.175   1.178
 1778HOH     H1 5520   0.753   2.142   1.089
 1778HOH     H2 5521   0.804   2.101   1.226
 1779HOH      O 5522   0.627   1.358   1.608
 1779HOH     H1 5523   0.568   1.326   1.540
 1779HOH     H2 5524   0.650   1.280   1.658
 1780HOH      O 5525   2.740   3.014   0.167
 1780HOH     H1 5526   2.740   2.926   0.129
 1780HOH     H2 5527   2.662   3.016   0.222
 1781HOH      O 5528   2.398   1.046   2.686
 1781HOH     H1 5529   2.483   1.030   2.645
 1781HOH     H2 5530   2.336   0.999   2.631
 1782HOH      O 5531   1.607   0.834   3.213
 1782HOH     H1 5532   1.657   0.913   3.194
 1782HOH     H2 5533   1.648   0.767   3.158
 1783HOH      O 5534   0.368   2.613   2.243
 1783HOH     H1 5535   0.412   2.699   2.238
 1783HOH     H2 5536   0.330   2.610   2.331
 1784HOH      O 5537   1.361   1.061   0.191
 1784HOH     H1 5538   1.414   1.080   0.114
 1784HOH     H2 5539   1.281   1.112   0.178
 1785HOH      O 5540   1.512   1.992   2.822
 1785HOH     H1 5541   1.486   1.919   2.879
 1785HOH     H2 5542   1.509   1.956   2.734
 1786HOH      O 5543   1.737   3.686   0.195
 1786HOH     H1 5544   1.823   3.717   0.225
 1786HOH     H2 5545   1.720   3.736   0.115
 1787HOH      O 5546   0.479   1.584   3.549
 1787HOH     H1 5547   0.518   1.665   3.581
 1787HOH     H2 5548   0.497   1.585   3.455
 1788HOH      O 5549   1.950   0.227   3.823
 1788HOH     H1 5550   1.978   0.311   3.786
 1788HOH     H2 5551   2.018   0.165   3.796
 1789HOH      O 5552   1.898   1.539   0.045
 1789HOH     H1 5553   1.830   1.594   0.006
 1789HOH     H2 5554   1.897   1.459  -0.008
 1790HOH      O 5555   0.323   2.298   0.564
 1790HOH     H1 5556   0.329   2.348   0.483
 1790HOH     H2 5557   0.261   2.227   0.545
 1791HOH      O 5558   0.508   2.989   2.943
 1791HOH     H1 5559   0.541   2.927   3.008
 1791HOH     H2 5560   0.568   2.979   2.869
 1792HOH      O 5561   3.472   3.744   3.768
 1792HOH     H1 5562   3.545   3.805   3.784
 1792HOH     H2 5563   3.515   3.666   3.733
 1793HOH      O 5564   1.117   3.539   1.518
 1793HOH     H1 5565   1.091   3.615   1.466
 1793HOH     H2 5566   1.123   3.468   1.454
 1794HOH      O 5567   2.669   2.611   1.891
 1794HOH     H1 5568   2.634   2.694   1.857
 1794HOH     H2 5569   2.747   2.637   1.941
 1795HOH      O 5570   3.072   2.202   2.417
 1795HOH     H1 5571   3.117   2.269   2.366
 1795HOH     H2 5572   2.979   2.220   2.405
 1796HOH      O 5573   2.610   1.224   1.029
 1796HOH     H1 5574   2.685   1.284   1.034
 1796HOH     H2 5575   2.556   1.247   1.105
 1797HOH      O 5576   0.936   1.181   0.371
 1797HOH     H1 5577   0.851   1.150   0.339
 1797HOH     H2 5578   0.994   1.174   0.295
 1798HOH      O 5579   0.621   1.247   3.488
 1798HOH     H1 5580   0.541   1.222   3.442
 1798HOH     H2 5581   0.690   1.196   3.447
 1799HOH      O 5582   0.857   0.538   2.980
 1799HOH     H1 5583   0.786   0.506   3.035
 1799HOH     H2 5584   0.814   0.561   2.897
 1800HOH      O 5585   1.216   3.175   2.418
 1800HOH     H1 5586   1.168   3.095   2.399
 1800HOH     H2 5587   1.211   3.226   2.337
 1801HOH      O 5588   2.942   3.495   3.638
 1801HOH     H1 5589   3.020   3.502   3.693
 1801HOH     H2 5590   2.919   3.585   3.617
 1802HOH      O 5591   3.296   1.573   3.349
 1802HOH     H1 5592   3.298   1.498   3.409
 1802HOH     H2 5593   3.363   1.554   3.284
 1803HOH      O 5594   0.112   1.543   0.114
 1803HOH     H1 5595   0.096   1.635   0.091
 1803HOH     H2 5596   0.052   1.526   0.187
 1804HOH      O 5597   2.813   3.198   2.816
 1804HOH     H1 5598   2.735   3.178   2.765
 1804HOH     H2 5599   2.780   3.234   2.898
 1805HOH      O 5600   3.613   3.966   2.733
 1805HOH     H1 5601   3.520   3.945   2.737
 1805HOH     H2 5602   3.642   3.932   2.649
 1806HOH      O 5603   3.334   2.510   2.009
 1806HOH     H1 5604   3.305   2.601   2.004
 1806HOH     H2 5605   3.299   2.479   2.092
 1807HOH      O 5606   1.426   0.093   2.799
 1807HOH     H1 5607   1.381   0.030   2.744
 1807HOH     H2 5608   1.356   0.133   2.852
 1808HOH      O 5609   0.565   3.311   0.768
 1808HOH     H1 5610   0.578   3.241   0.705
 1808HOH     H2 5611   0.481   3.350   0.744
 1809HOH      O 5612   2.368   0.005   2.833
 1809HOH     H1 5613   2.429   0.074   2.862
 1809HOH     H2 5614   2.360   0.020   2.739
 1810HOH      O 5615   3.433   3.888   2.181
 1810HOH     H1 5616   3.501   3.872   2.115
 1810HOH     H2 5617   3.354   3.906   2.130
 1811HOH      O 5618   2.866   3.754   2.459
 1811HOH     H1 5619   2.808   3.829   2.469
 1811HOH     H2 5620   2.807   3.678   2.468
 1812HOH      O 5621   1.458   0.043   2.180
 1812HOH     H1 5622   1.478   0.003   2.265
 1812HOH     H2 5623   1.395   0.112   2.201
 1813HOH      O 5624   2.044   1.158   3.816
 1813HOH     H1 5625   2.094   1.082   3.788
 1813HOH     H2 5626   2.106   1.231   3.813
 1814HOH      O 5627   0.694   2.139   0.909
 1814HOH     H1 5628   0.712   2.049   0.881
 1814HOH     H2 5629   0.655   2.181   0.832
 1815HOH      O 5630   3.487   3.002   2.414
 1815HOH     H1 5631   3.473   3.095   2.433
 1815HOH     H2 5632   3.408   2.959   2.446
 1816HOH      O 5633   1.147   1.635   2.521
 1816HOH     H1 5634   1.065   1.589   2.538
 1816HOH     H2 5635   1.134   1.676   2.436
 1817HOH      O 5636   2.711   1.589   0.913
 1817HOH     H1 5637   2.717   1.684   0.902
 1817HOH     H2 5638   2.719   1.575   1.007
 1818HOH      O 5639   0.428   2.659   1.678
 1818HOH     H1 5640   0.470   2.716   1.743
 1818HOH     H2 5641   0.461   2.571   1.698
 1819HOH      O 5642   1.542   0.694   2.414
 1819HOH     H1 5643   1.595   0.765   2.449
 1819HOH     H2 5644   1.459   0.735   2.390
 1820HOH      O 5645   0.166   1.977   1.065
 1820HOH     H1 5646   0.102   1.982   1.137
 1820HOH     H2 5647   0.210   1.893   1.078
 1821HOH      O 5648   1.017   3.910   2.303
 1821HOH     H1 5649   0.960   3.986   2.285
 1821HOH     H2 5650   1.072   3.902   2.225
 1822HOH      O 5651   1.433   0.815   1.177
 1822HOH     H1 5652   1.366   0.796   1.242
 1822HOH     H2 5653   1.429   0.740   1.117
 1823HOH      O 5654   3.785   3.029   0.479
 1823HOH     H1 5655   3.829   3.086   0.416
 1823HOH     H2 5656   3.693   3.055   0.476
 1824HOH      O 5657   2.163   1.649   0.517
 1824HOH     H1 5658   2.123   1.644   0.604
 1824HOH     H2 5659   2.105   1.705   0.467
 1825HOH      O 5660   0.595   2.755   3.320
 1825HOH     H1 5661   0.648   2.708   3.385
 1825HOH     H2 5662   0.536   2.809   3.372
 1826HOH      O 5663   1.662   3.651   1.866
 1826HOH     H1 5664   1.697   3.709   1.933
 1826HOH     H2 5665   1.580   3.692   1.840
 1827HOH      O 5666   3.061   0.798   3.965
 1827HOH     H1 5667   3.053   0.791   4.060
 1827HOH     H2 5668   2.984   0.849   3.939
 1828HOH      O 5669   1.711   3.349   0.187
 1828HOH     H1 5670   1.751   3.433   0.209
 1828HOH     H2 5671   1.711   3.347   0.092
 1829HOH      O 5672   1.154   1.304   1.447
 1829HOH     H1 5673   1.060   1.322   1.443
 1829HOH     H2 5674   1.169   1.242   1.376
 1830HOH      O 5675   3.901   3.469   2.653
 1830HOH     H1 5676   3.945   3.396   2.609
 1830HOH     H2 5677   3.825   3.430   2.696
 1831HOH      O 5678   3.479   3.075   0.506
 1831HOH     H1 5679   3.466   3.089   0.600
 1831HOH     H2 5680   3.449   2.986   0.490
 1832HOH      O 5681   1.344   0.311   1.053
 1832HOH     H1 5682   1.437   0.305   1.077
 1832HOH     H2 5683   1.306   0.230   1.088
 1833HOH      O 5684   3.819   1.278   3.537
 1833HOH     H1 5685   3.803   1.206   3.599
 1833HOH     H2 5686   3.895   1.250   3.487
 1834HOH      O 5687   1.031   0.163   3.726
 1834HOH     H1 5688   0.986   0.088   3.764
 1834HOH     H2 5689   1.122   0.153   3.752
 1835HOH      O 5690   2.615   2.710   3.580
 1835HOH     H1 5691   2.683   2.767   3.617
 1835HOH     H2 5692   2.609   2.737   3.488
 1836HOH      O 5693   2.120   0.290   2.854
 1836HOH     H1 5694   2.162   0.260   2.935
 1836HOH     H2 5695   2.088   0.210   2.812
 1837HOH      O 5696   3.424   0.149   3.346
 1837HOH     H1 5697   3.478   0.144   3.267
 1837HOH     H2 5698   3.380   0.233   3.340
 1838HOH      O 5699   1.335   0.515   2.854
 1838HOH     H1 5700   1.392   0.515   2.777
 1838HOH     H2 5701   1.249   0.491   2.820
 1839HOH      O 5702   1.089   2.430   1.778
 1839HOH     H1 5703   1.096   2.422   1.683
 1839HOH     H2 5704   1.179   2.441   1.808
 1840HOH      O 5705   1.134   2.738   0.816
 1840HOH     H1 5706   1.083   2.670   0.771
 1840HOH     H2 5707   1.225   2.710   0.806
 1841HOH      O 5708   1.717   2.473   0.761
 1841HOH     H1 5709   1.684   2.552   0.804
 1841HOH     H2 5710   1.759   2.423   0.831
 1842HOH      O 5711   2.516   0.729   3.593
 1842HOH     H1 5712   2.558   0.651   3.557
 1842HOH     H2 5713   2.498   0.783   3.516
 1843HOH      O 5714   1.825   1.925   2.927
 1843HOH     H1 5715   1.873   1.852   2.965
 1843HOH     H2 5716   1.893   1.981   2.889
 1844HOH      O 5717   1.702   2.444   2.730
 1844HOH     H1 5718   1.770   2.429   2.797
 1844HOH     H2 5719   1.673   2.356   2.706
 1845HOH      O 5720   1.052   1.772   2.014
 1845HOH     H1 5721   1.094   1.852   1.983
 1845HOH     H2 5722   1.041   1.718   1.935
 1846HOH      O 5723   3.942   2.465   0.306
 1846HOH     H1 5724   3.949   2.431   0.217
 1846HOH     H2 5725   3.862   2.518   0.305
 1847HOH      O 5726   2.564   0.945   1.583
 1847HOH     H1 5727   2.589   0.856   1.558
 1847HOH     H2 5728   2.485   0.934   1.637
 1848HOH      O 5729   2.299   2.027   2.518
 1848HOH     H1 5730   2.235   2.013   2.448
 1848HOH     H2 5731   2.252   2.009   2.599
 1849HOH      O 5732   2.302   0.617   3.179
 1849HOH     H1 5733   2.309   0.698   3.230
 1849HOH     H2 5734   2.392   0.596   3.155
 1850HOH      O 5735   3.553   0.241   0.361
 1850HOH     H1 5736   3.575   0.157   0.320
 1850HOH     H2 5737   3.627   0.298   0.342
 1851HOH      O 5738   2.717   2.670   0.771
 1851HOH     H1 5739   2.747   2.611   0.840
 1851HOH     H2 5740   2.623   2.653   0.764
 1852HOH      O 5741   2.995   3.399   0.463
 1852HOH     H1 5742   3.090   3.398   0.452
 1852HOH     H2 5743   2.976   3.485   0.501
 1853HOH      O 5744   1.307   2.595   0.238
 1853HOH     H1 5745   1.359   2.602   0.318
 1853HOH     H2 5746   1.280   2.685   0.220
 1854HOH      O 5747   3.791   0.348   3.903
 1854HOH     H1 5748   3.849   0.400   3.846
 1854HOH     H2 5749   3.717   0.325   3.847
 1855HOH      O 5750   0.293   2.404   1.380
 1855HOH     H1 5751   0.321   2.324   1.424
 1855HOH     H2 5752   0.329   2.475   1.433
 1856HOH      O 5753   2.212   0.032   1.204
 1856HOH     H1 5754   2.261  -0.042   1.168
 1856HOH     H2 5755   2.277   0.082   1.253
 1857HOH      O 5756   3.990   2.030   2.906
 1857HOH     H1 5757   3.923   1.962   2.913
 1857HOH     H2 5758   4.010   2.035   2.812
 1858HOH      O 5759   3.271   3.129   0.317
 1858HOH     H1 5760   3.211   3.068   0.361
 1858HOH     H2 5761   3.355   3.117   0.361
 1859HOH      O 5762   0.160   3.379   2.848
 1859HOH     H1 5763   0.137   3.321   2.921
 1859HOH     H2 5764   0.151   3.324   2.770
 1860HOH      O 5765   2.879   2.425   0.363
 1860HOH     H1 5766   2.873   2.512   0.325
 1860HOH     H2 5767   2.846   2.434   0.452
 1861HOH      O 5768   1.803   2.327   1.635
 1861HOH     H1 5769   1.881   2.276   1.612
 1861HOH     H2 5770   1.739   2.306   1.566
 1862HOH      O 5771   0.967   1.246   0.626
 1862HOH     H1 5772   0.959   1.226   0.533
 1862HOH     H2 5773   0.878   1.263   0.655
 1863HOH      O 5774   0.289   2.213   0.999
 1863HOH     H1 5775   0.249   2.130   1.025
 1863HOH     H2 5776   0.214   2.271   0.982
 1864HOH      O 5777   3.959   2.938   0.066
 1864HOH     H1 5778   3.946   2.862   0.010
 1864HOH     H2 5779   3.880   2.943   0.120
 1865HOH      O 5780   1.003   2.533   3.718
 1865HOH     H1 5781   1.051   2.538   3.801
 1865HOH     H2 5782   0.971   2.443   3.714
 1866HOH      O 5783   3.407   1.618   0.550
 1866HOH     H1 5784   3.482   1.656   0.596
 1866HOH     H2 5785   3.331   1.650   0.598
 1867HOH      O 5786   0.734   1.612   0.660
 1867HOH     H1 5787   0.683   1.539   0.624
 1867HOH     H2 5788   0.712   1.614   0.753
 1868HOH      O 5789   1.958   1.181   1.487
 1868HOH     H1 5790   2.017   1.222   1.551
 1868HOH     H2 5791   1.910   1.254   1.448
 1869HOH      O 5792   2.320   0.537   3.717
 1869HOH     H1 5793   2.302   0.494   3.801
 1869HOH     H2 5794   2.407   0.577   3.729
 1870HOH      O 5795   1.432   0.589   2.143
 1870HOH     H1 5796   1.381   0.644   2.203
 1870HOH     H2 5797   1.488   0.537   2.201
 1871HOH      O 5798   0.588   0.515   0.618
 1871HOH     H1 5799   0.544   0.561   0.690
 1871HOH     H2 5800   0.523   0.511   0.548
 1872HOH      O 5801   3.161   2.694   2.714
 1872HOH     H1 5802   3.224   2.672   2.782
 1872HOH     H2 5803   3.077   2.665   2.749
 1873HOH      O 5804   0.383   1.365   2.743
 1873HOH     H1 5805   0.311   1.367   2.806
 1873HOH     H2 5806   0.353   1.307   2.673
 1874HOH      O 5807   2.129   2.493   0.403
 1874HOH     H1 5808   2.196   2.561   0.394
 1874HOH     H2 5809   2.046   2.542   0.410
 1875HOH      O 5810   3.798   0.207   2.610
 1875HOH     H1 5811   3.775   0.114   2.616
 1875HOH     H2 5812   3.884   0.208   2.569
 1876HOH      O 5813   3.376   1.686   1.510
 1876HOH     H1 5814   3.399   1.777   1.527
 1876HOH     H2 5815   3.444   1.635   1.555
 1877HOH      O 5816   0.375   3.284   0.559
 1877HOH     H1 5817   0.371   3.212   0.622
 1877HOH     H2 5818   0.284   3.312   0.547
 1878HOH      O 5819   3.153   0.924   1.912
 1878HOH     H1 5820   3.227   0.935   1.852
 1878HOH     H2 5821   3.131   0.831   1.905
 1879HOH      O 5822   2.575   1.676   3.519
 1879HOH     H1 5823   2.605   1.756   3.562
 1879HOH     H2 5824   2.631   1.668   3.441
 1880HOH      O 5825   0.720   2.474   2.460
 1880HOH     H1 5826   0.647   2.424   2.497
 1880HOH     H2 5827   0.715   2.559   2.502
 1881HOH      O 5828   3.438   2.603   0.010
 1881HOH     H1 5829   3.383   2.526   0.023
 1881HOH     H2 5830   3.405   2.666   0.074
 1882HOH      O 5831   2.238   1.340   3.820
 1882HOH     H1 5832   2.301   1.342   3.748
 1882HOH     H2 5833   2.237   1.430   3.853
 1883HOH      O 5834   3.609   2.217   0.208
 1883HOH     H1 5835   3.685   2.262   0.170
 1883HOH     H2 5836   3.599   2.138   0.155
 1884HOH      O 5837   2.042   2.437   1.326
 1884HOH     H1 5838   1.958   2.483   1.323
 1884HOH     H2 5839   2.043   2.384   1.246
 1885HOH      O 5840   1.250   3.987   1.513
 1885HOH     H1 5841   1.281   4.077   1.504
 1885HOH     H2 5842   1.326   3.934   1.494
 1886HOH      O 5843   1.391   1.573   3.256
 1886HOH     H1 5844   1.297   1.559   3.264
 1886HOH     H2 5845   1.428   1.530   3.333
 1887HOH      O 5846   2.778   0.188   1.348
 1887HOH     H1 5847   2.873   0.193   1.357
 1887HOH     H2 5848   2.748   0.278   1.357
 1888HOH      O 5849   2.010   3.308   1.196
 1888HOH     H1 5850   2.017   3.227   1.146
 1888HOH     H2 5851   1.946   3.288   1.265
 1889HOH      O 5852   3.606   0.726   1.936
 1889HOH     H1 5853   3.688   0.731   1.886
 1889HOH     H2 5854   3.537   0.735   1.871
 1890HOH      O 5855   2.038   0.965   0.657
 1890HOH     H1 5856   2.066   0.874   0.653
 1890HOH     H2 5857   2.014   0.987   0.567
 1891HOH      O 5858   0.541   0.052   0.324
 1891HOH     H1 5859   0.482   0.018   0.391
 1891HOH     H2 5860   0.510   0.142   0.309
 1892HOH      O 5861   0.928   2.043   3.077
 1892HOH     H1 5862   0.913   2.123   3.027
 1892HOH     H2 5863   0.992   2.069   3.144
 1893HOH      O 5864   0.011   2.401   3.531
 1893HOH     H1 5865   0.029   2.326   3.475
 1893HOH     H2 5866   0.097   2.432   3.559
 1894HOH      O 5867   0.457   1.107   2.390
 1894HOH     H1 5868   0.423   1.149   2.469
 1894HOH     H2 5869   0.392   1.127   2.322
 1895HOH      O 5870   1.241   1.089   1.290
 1895HOH     H1 5871   1.278   1.008   1.326
 1895HOH     H2 5872   1.166   1.059   1.238
 1896HOH      O 5873   2.173   0.048   3.792
 1896HOH     H1 5874   2.220  -0.031   3.819
 1896HOH     H2 5875   2.241   0.112   3.772
 1897HOH      O 5876   1.570   1.895   0.168
 1897HOH     H1 5877   1.609   1.981   0.181
 1897HOH     H2 5878   1.513   1.883   0.244
 1898HOH      O 5879   3.255   3.300   1.231
 1898HOH     H1 5880   3.242   3.308   1.325
 1898HOH     H2 5881   3.316   3.227   1.221
 1899HOH      O 5882   0.893   1.458   2.436
 1899HOH     H1 5883   0.845   1.494   2.361
 1899HOH     H2 5884   0.841   1.484   2.512
 1900HOH      O 5885   1.202   3.563   0.661
 1900HOH     H1 5886   1.200   3.513   0.743
 1900HOH     H2 5887   1.128   3.530   0.611
 1901HOH      O 5888   3.139   2.567   1.414
 1901HOH     H1 5889   3.193   2.533   1.343
 1901HOH     H2 5890   3.052   2.577   1.376
 1902HOH      O 5891   2.677   0.846   0.567
 1902HOH     H1 5892   2.638   0.759   0.560
 1902HOH     H2 5893   2.615   0.896   0.621
 1903HOH      O 5894   0.628   1.963   2.792
 1903HOH     H1 5895   0.707   1.909   2.794
 1903HOH     H2 5896   0.559   1.906   2.824
 1904HOH      O 5897   1.612   0.123   2.445
 1904HOH     H1 5898   1.688   0.177   2.422
 1904HOH     H2 5899   1.545   0.187   2.470
 1905HOH      O 5900   1.761   2.693   2.239
 1905HOH     H1 5901   1.725   2.690   2.328
 1905HOH     H2 5902   1.736   2.608   2.201
 1906HOH      O 5903   2.987   1.652   0.745
 1906HOH     H1 5904   3.059   1.622   0.690
 1906HOH     H2 5905   2.932   1.703   0.686
 1907HOH      O 5906   3.221   2.325   3.800
 1907HOH     H1 5907   3.271   2.334   3.881
 1907HOH     H2 5908   3.189   2.413   3.781
 1908HOH      O 5909   2.134   2.678   2.770
 1908HOH     H1 5910   2.215   2.727   2.781
 1908HOH     H2 5911   2.155   2.612   2.704
 1909HOH      O 5912   0.129   2.103   2.186
 1909HOH     H1 5913   0.119   2.170   2.119
 1909HOH     H2 5914   0.204   2.133   2.238
 1910HOH      O 5915   2.550   2.246   3.394
 1910HOH     H1 5916   2.513   2.234   3.481
 1910HOH     H2 5917   2.473   2.257   3.337
 1911HOH      O 5918   1.801   0.396   2.799
 1911HOH     H1 5919   1.882   0.410   2.749
 1911HOH     H2 5920   1.749   0.337   2.744
 1912HOH      O 5921   3.809   1.399   3.916
 1912HOH     H1 5922   3.889   1.364   3.878
 1912HOH     H2 5923   3.835   1.483   3.953
 1913HOH      O 5924   0.337   0.421   2.559
 1913HOH     H1 5925   0.384   0.373   2.491
 1913HOH     H2 5926   0.253   0.444   2.518
 1914HOH      O 5927   0.249   1.276   3.529
 1914HOH     H1 5928   0.252   1.368   3.501
 1914HOH     H2 5929   0.303   1.230   3.464
 1915HOH      O 5930   2.638   2.139   0.437
 1915HOH     H1 5931   2.601   2.069   0.490
 1915HOH     H2 5932   2.674   2.201   0.500
 1916HOH      O 5933   2.139   1.129   1.867
 1916HOH     H1 5934   2.107   1.192   1.802
 1916HOH     H2 5935   2.194   1.181   1.926
 1917HOH      O 5936   2.334   0.229   3.647
 1917HOH     H1 5937   2.297   0.317   3.654
 1917HOH     H2 5938   2.410   0.239   3.590
 1918HOH      O 5939   2.521   2.998   1.470
 1918HOH     H1 5940   2.460   3.034   1.406
 1918HOH     H2 5941   2.582   3.070   1.488
 1919HOH      O 5942   3.451  -0.003   0.020
 1919HOH     H1 5943   3.543  -0.029   0.029
 1919HOH     H2 5944   3.454   0.093   0.017
 1920HOH      O 5945   3.878   0.728   2.802
 1920HOH     H1 5946   3.932   0.652   2.780
 1920HOH     H2 5947   3.829   0.746   2.722
 1921HOH      O 5948   2.841   0.546   0.460
 1921HOH     H1 5949   2.760   0.548   0.510
 1921HOH     H2 5950   2.910   0.547   0.526
 1922HOH      O 5951   2.237   1.916   1.112
 1922HOH     H1 5952   2.155   1.963   1.130
 1922HOH     H2 5953   2.211   1.824   1.111
 1923HOH      O 5954   0.145   3.668   3.932
 1923HOH     H1 5955   0.162   3.617   4.012
 1923HOH     H2 5956   0.229   3.672   3.887
 1924HOH      O 5957   1.422   1.493   0.651
 1924HOH     H1 5958   1.354   1.558   0.632
 1924HOH     H2 5959   1.385   1.411   0.619
 1925HOH      O 5960   3.061   3.094   2.805
 1925HOH     H1 5961   3.053   3.016   2.860
 1925HOH     H2 5962   2.972   3.114   2.778
 1926HOH      O 5963   0.637   0.816   3.306
 1926HOH     H1 5964   0.681   0.896   3.276
 1926HOH     H2 5965   0.604   0.775   3.226
 1927HOH      O 5966   2.140   2.329   2.755
 1927HOH     H1 5967   2.184   2.395   2.809
 1927HOH     H2 5968   2.155   2.359   2.665
 1928HOH      O 5969   3.713   2.613   2.938
 1928HOH     H1 5970   3.617   2.615   2.941
 1928HOH     H2 5971   3.739   2.682   3.000
 1929HOH      O 5972   3.834   1.823   3.361
 1929HOH     H1 5973   3.830   1.769   3.282
 1929HOH     H2 5974   3.752   1.872   3.361
 1930HOH      O 5975   2.229   2.659   0.659
 1930HOH     H1 5976   2.291   2.591   0.687
 1930HOH     H2 5977   2.144   2.617   0.663
 1931HOH      O 5978   1.249   3.933   3.478
 1931HOH     H1 5979   1.178   3.870   3.491
 1931HOH     H2 5980   1.204   4.017   3.465
 1932HOH      O 5981   2.043   3.585   2.447
 1932HOH     H1 5982   2.012   3.649   2.383
 1932HOH     H2 5983   2.090   3.519   2.396
 1933HOH      O 5984   3.608   2.454   1.905
 1933HOH     H1 5985   3.634   2.496   1.987
 1933HOH     H2 5986   3.514   2.440   1.914
 1934HOH      O 5987   3.711   2.531   3.914
 1934HOH     H1 5988   3.619   2.515   3.932
 1934HOH     H2 5989   3.733   2.470   3.843
 1935HOH      O 5990   1.389   0.884   2.734
 1935HOH     H1 5991   1.323   0.827   2.694
 1935HOH     H2 5992   1.341   0.933   2.801
 1936HOH      O 5993   0.763   1.010   3.145
 1936HOH     H1 5994   0.736   1.040   3.059
 1936HOH     H2 5995   0.795   1.089   3.189
 1937HOH      O 5996   1.021   3.421   2.871
 1937HOH     H1 5997   1.098   3.433   2.927
 1937HOH     H2 5998   1.057   3.401   2.785
 1938HOH      O 5999   0.186   2.443   2.837
 1938HOH     H1 6000   0.150   2.387   2.767
 1938HOH     H2 6001   0.149   2.529   2.820
 1939HOH      O 6002   1.103   1.333   0.853
 1939HOH     H1 6003   1.086   1.301   0.764
 1939HOH     H2 6004   1.059   1.419   0.855
 1940HOH      O 6005   3.164   0.312   1.976
 1940HOH     H1 6006   3.101   0.242   1.965
 1940HOH     H2 6007   3.188   0.337   1.887
 1941HOH      O 6008   3.731   1.308   1.101
 1941HOH     H1 6009   3.668   1.339   1.036
 1941HOH     H2 6010   3.713   1.362   1.178
 1942HOH      O 6011   2.324   0.932   2.171
 1942HOH     H1 6012   2.257   0.865   2.186
 1942HOH     H2 6013   2.322   0.986   2.251
 1943HOH      O 6014   3.529   2.816   1.686
 1943HOH     H1 6015   3.472   2.767   1.746
 1943HOH     H2 6016   3.536   2.760   1.608
 1944HOH      O 6017   3.537   1.800   3.132
 1944HOH     H1 6018   3.458   1.845   3.161
 1944HOH     H2 6019   3.512   1.707   3.131
 1945HOH      O 6020   1.848   1.547   1.606
 1945HOH     H1 6021   1.761   1.527   1.642
 1945HOH     H2 6022   1.852   1.642   1.605
 1946HOH      O 6023   3.086   3.916   3.441
 1946HOH     H1 6024   3.134   3.914   3.358
 1946HOH     H2 6025   3.149   3.884   3.506
 1947HOH      O 6026   0.593   0.125   1.502
 1947HOH     H1 6027   0.641   0.174   1.436
 1947HOH     H2 6028   0.558   0.049   1.455
 1948HOH      O 6029   0.002   3.230   3.135
 1948HOH     H1 6030   0.086   3.270   3.157
 1948HOH     H2 6031  -0.063   3.297   3.158
 1949HOH      O 6032   1.002   3.656   0.322
 1949HOH     H1 6033   1.043   3.598   0.386
 1949HOH     H2 6034   0.932   3.604   0.283
 1950HOH      O 6035   1.716   3.899   1.368
 1950HOH     H1 6036   1.630   3.870   1.396
 1950HOH     H2 6037   1.774   3.880   1.442
 1951HOH      O 6038   0.627   3.035   2.692
 1951HOH     H1 6039   0.558   3.059   2.630
 1951HOH     H2 6040   0.695   3.102   2.678
 1952HOH      O 6041   0.030   2.080   0.109
 1952HOH     H1 6042  -0.004   2.108   0.194
 1952HOH     H2 6043  -0.012   2.139   0.046
 1953HOH      O 6044   3.495   3.273   2.425
 1953HOH     H1 6045   3.571   3.319   2.389
 1953HOH     H2 6046   3.423   3.336   2.419
 1954HOH      O 6047   2.142   2.505   0.965
 1954HOH     H1 6048   2.105   2.436   1.019
 1954HOH     H2 6049   2.068   2.563   0.946
 1955HOH      O 6050   2.463   0.119   1.735
 1955HOH     H1 6051   2.548   0.076   1.730
 1955HOH     H2 6052   2.483   0.208   1.764
 1956HOH      O 6053   3.790   1.399   0.256
 1956HOH     H1 6054   3.709   1.389   0.306
 1956HOH     H2 6055   3.795   1.320   0.202
 1957HOH      O 6056   3.882   3.203   2.586
 1957HOH     H1 6057   3.928   3.150   2.651
 1957HOH     H2 6058   3.849   3.140   2.522
 1958HOH      O 6059   2.489   1.046   3.106
 1958HOH     H1 6060   2.548   1.069   3.034
 1958HOH     H2 6061   2.547   1.008   3.172
 1959HOH      O 6062   0.441   0.171   3.711
 1959HOH     H1 6063   0.386   0.125   3.775
 1959HOH     H2 6064   0.379   0.204   3.646
 1960HOH      O 6065   1.638   0.470   3.347
 1960HOH     H1 6066   1.576   0.478   3.274
 1960HOH     H2 6067   1.719   0.438   3.306
 1961HOH      O 6068   0.905   2.002   2.532
 1961HOH     H1 6069   0.984   2.030   2.485
 1961HOH     H2 6070   0.834   2.012   2.469
 1962HOH      O 6071   2.884   1.854   1.970
 1962HOH     H1 6072   2.953   1.919   1.961
 1962HOH     H2 6073   2.892   1.799   1.892
 1963HOH      O 6074   3.500   3.345   3.761
 1963HOH     H1 6075   3.562   3.371   3.830
 1963HOH     H2 6076   3.481   3.253   3.779
 1964HOH      O 6077   2.473   1.377   0.667
 1964HOH     H1 6078   2.392   1.332   0.641
 1964HOH     H2 6079   2.455   1.409   0.755
 1965HOH      O 6080   2.082   3.378   2.741
 1965HOH     H1 6081   1.992   3.407   2.758
 1965HOH     H2 6082   2.072   3.295   2.695
 1966HOH      O 6083   1.471   1.472   3.499
 1966HOH     H1 6084   1.398   1.496   3.556
 1966HOH     H2 6085   1.543   1.452   3.559
 1967HOH      O 6086   0.099   3.653   2.876
 1967HOH     H1 6087   0.191   3.680   2.887
 1967HOH     H2 6088   0.102   3.557   2.879
 1968HOH      O 6089   1.858   3.315   2.302
 1968HOH     H1 6090   1.799   3.241   2.316
 1968HOH     H2 6091   1.807   3.379   2.254
 1969HOH      O 6092   3.911   3.760   1.068
 1969HOH     H1 6093   3.820   3.785   1.052
 1969HOH     H2 6094   3.935   3.706   0.993
 1970HOH      O 6095   2.741   3.806   1.559
 1970HOH     H1 6096   2.709   3.737   1.500
 1970HOH     H2 6097   2.835   3.806   1.546
 1971HOH      O 6098   0.964   0.173   1.449
 1971HOH     H1 6099   0.879   0.215   1.433
 1971HOH     H2 6100   0.941   0.088   1.486
 1972HOH      O 6101   2.732   2.554   1.620
 1972HOH     H1 6102   2.735   2.564   1.715
 1972HOH     H2 6103   2.697   2.637   1.588
 1973HOH      O 6104   0.317   2.923   3.503
 1973HOH     H1 6105   0.245   2.917   3.439
 1973HOH     H2 6106   0.306   2.847   3.559
 1974HOH      O 6107   2.444   2.172   3.660
 1974HOH     H1 6108   2.443   2.129   3.745
 1974HOH     H2 6109   2.370   2.135   3.613
 1975HOH      O 6110   3.664   1.520   1.661
 1975HOH     H1 6111   3.675   1.615   1.665
 1975HOH     H2 6112   3.748   1.488   1.627
 1976HOH      O 6113   1.352   1.349   1.804
 1976HOH     H1 6114   1.348   1.408   1.879
 1976HOH     H2 6115   1.322   1.402   1.730
 1977HOH      O 6116   3.091   1.056   2.700
 1977HOH     H1 6117   3.171   1.102   2.674
 1977HOH     H2 6118   3.049   1.116   2.762
 1978HOH      O 6119   2.678   0.560   2.448
 1978HOH     H1 6120   2.717   0.594   2.367
 1978HOH     H2 6121   2.613   0.625   2.472
 1979HOH      O 6122   0.188   1.237   2.902
 1979HOH     H1 6123   0.256   1.181   2.939
 1979HOH     H2 6124   0.131   1.258   2.976
 1980HOH      O 6125   2.030   2.583   3.841
 1980HOH     H1 6126   2.046   2.677   3.852
 1980HOH     H2 6127   2.114   2.546   3.817
 1981HOH      O 6128   3.055   3.755   0.370
 1981HOH     H1 6129   3.044   3.694   0.442
 1981HOH     H2 6130   2.967   3.786   0.351
 1982HOH      O 6131   3.676   3.068   3.550
 1982HOH     H1 6132   3.714   3.151   3.522
 1982HOH     H2 6133   3.751   3.015   3.577
 1983HOH      O 6134   3.928   2.661   3.501
 1983HOH     H1 6135   3.945   2.617   3.418
 1983HOH     H2 6136   3.874   2.598   3.550
 1984HOH      O 6137   0.423   0.809   3.852
 1984HOH     H1 6138   0.377   0.889   3.828
 1984HOH     H2 6139   0.491   0.800   3.785
 1985HOH      O 6140   2.204   2.032   0.434
 1985HOH     H1 6141   2.163   1.948   0.412
 1985HOH     H2 6142   2.131   2.095   0.432
 1986HOH      O 6143   2.843   3.283   3.129
 1986HOH     H1 6144   2.839   3.378   3.116
 1986HOH     H2 6145   2.807   3.270   3.217
 1987HOH      O 6146   3.435   1.512   1.859
 1987HOH     H1 6147   3.489   1.496   1.782
 1987HOH     H2 6148   3.423   1.426   1.898
 1988HOH      O 6149   1.996   0.539   3.994
 1988HOH     H1 6150   2.076   0.559   4.042
 1988HOH     H2 6151   2.026   0.507   3.909
 1989HOH      O 6152   2.052   0.793   1.771
 1989HOH     H1 6153   1.993   0.847   1.823
 1989HOH     H2 6154   2.064   0.842   1.690
 1990HOH      O 6155   3.940   1.742   1.038
 1990HOH     H1 6156   3.958   1.696   1.121
 1990HOH     H2 6157   3.845   1.740   1.030
 1991HOH      O 6158   0.168   0.602   2.983
 1991HOH     H1 6159   0.152   0.554   3.065
 1991HOH     H2 6160   0.117   0.554   2.917
 1992HOH      O 6161   2.606   2.776   3.275
 1992HOH     H1 6162   2.511   2.778   3.283
 1992HOH     H2 6163   2.629   2.855   3.227
 1993HOH      O 6164   3.609   0.377   2.678
 1993HOH     H1 6165   3.681   0.316   2.659
 1993HOH     H2 6166   3.536   0.321   2.704
 1994HOH      O 6167   2.838   3.853   3.763
 1994HOH     H1 6168   2.827   3.805   3.845
 1994HOH     H2 6169   2.829   3.945   3.788
 1995HOH      O 6170   2.575   1.551   1.485
 1995HOH     H1 6171   2.612   1.616   1.544
 1995HOH     H2 6172   2.622   1.470   1.506
 1996HOH      O 6173   1.520   1.803   3.343
 1996HOH     H1 6174   1.599   1.847   3.312
 1996HOH     H2 6175   1.527   1.714   3.307
 1997HOH      O 6176   2.881   3.093   0.497
 1997HOH     H1 6177   2.868   3.176   0.542
 1997HOH     H2 6178   2.823   3.031   0.543
 1998HOH      O 6179   2.410   2.205   3.962
 1998HOH     H1 6180   2.433   2.136   4.024
 1998HOH     H2 6181   2.478   2.271   3.974
 1999HOH      O 6182   3.400   2.369   3.508
 1999HOH     H1 6183   3.415   2.299   3.571
 1999HOH     H2 6184   3.484   2.380   3.464
 2000HOH      O 6185   3.192   3.097   2.308
 2000HOH     H1 6186   3.192   3.130   2.398
 2000HOH     H2 6187   3.238   3.013   2.314
 2001HOH      O 6188   1.447   3.129   1.849
 2001HOH     H1 6189   1.465   3.220   1.872
 2001HOH     H2 6190   1.380   3.101   1.911
 2002HOH      O 6191   2.299   0.606   0.538
 2002HOH     H1 6192   2.317   0.527   0.589
 2002HOH     H2 6193   2.349   0.675   0.581
 2003HOH      O 6194   0.824   0.567   1.776
 2003HOH     H1 6195   0.788   0.488   1.735
 2003HOH     H2 6196   0.746   0.620   1.795
 2004HOH      O 6197   0.386   0.397   2.253
 2004HOH     H1 6198   0.333   0.468   2.289
 2004HOH     H2 6199   0.364   0.395   2.160
 2005HOH      O 6200   1.308   3.873   0.129
 2005HOH     H1 6201   1.299   3.781   0.103
 2005HOH     H2 6202   1.247   3.883   0.201
 2006HOH      O 6203   2.341   2.823   3.368
 2006HOH     H1 6204   2.336   2.801   3.461
 2006HOH     H2 6205   2.277   2.894   3.358
 2007HOH      O 6206   2.471   2.297   0.250
 2007HOH     H1 6207   2.532   2.331   0.185
 2007HOH     H2 6208   2.526   2.250   0.313
 2008HOH      O 6209   1.997   3.272   0.448
 2008HOH     H1 6210   1.929   3.326   0.489
 2008HOH     H2 6211   2.017   3.316   0.366
 2009HOH      O 6212   3.958   0.857   0.103
 2009HOH     H1 6213   3.885   0.795   0.095
 2009HOH     H2 6214   4.023   0.826   0.040
 2010HOH      O 6215   2.404   1.227   1.241
 2010HOH     H1 6216   2.466   1.179   1.296
 2010HOH     H2 6217   2.383   1.306   1.291
 2011HOH      O 6218   3.044   3.286   2.148
 2011HOH     H1 6219   3.092   3.226   2.205
 2011HOH     H2 6220   2.966   3.309   2.199
 2012HOH      O 6221   2.930   2.012   3.180
 2012HOH     H1 6222   2.868   1.939   3.185
 2012HOH     H2 6223   2.998   1.988   3.243
 2013HOH      O 6224   2.298   3.155   0.985
 2013HOH     H1 6225   2.251   3.224   0.938
 2013HOH     H2 6226   2.276   3.074   0.938
 2014HOH      O 6227   2.624   1.695   0.245
 2014HOH     H1 6228   2.614   1.703   0.340
 2014HOH     H2 6229   2.596   1.780   0.211
 2015HOH      O 6230   1.204   3.954   2.095
 2015HOH     H1 6231   1.298   3.973   2.093
 2015HOH     H2 6232   1.169   4.003   2.020
 2016HOH      O 6233   1.849   2.060   0.199
 2016HOH     H1 6234   1.856   1.980   0.148
 2016HOH     H2 6235   1.851   2.130   0.133
 2017HOH      O 6236   3.268   3.966   3.249
 2017HOH     H1 6237   3.346   3.928   3.209
 2017HOH     H2 6238   3.301   4.013   3.325
 2018HOH      O 6239   3.533   0.559   0.566
 2018HOH     H1 6240   3.462   0.580   0.626
 2018HOH     H2 6241   3.496   0.493   0.507
 2019HOH      O 6242   3.502   0.560   3.474
 2019HOH     H1 6243   3.443   0.568   3.398
 2019HOH     H2 6244   3.567   0.496   3.446
 2020HOH      O 6245   4.019   2.887   0.616
 2020HOH     H1 6246   3.997   2.941   0.692
 2020HOH     H2 6247   3.991   2.939   0.541
 2021HOH      O 6248   0.790   1.499   0.326
 2021HOH     H1 6249   0.757   1.589   0.329
 2021HOH     H2 6250   0.711   1.444   0.327
 2022HOH      O 6251   2.179   3.333   4.017
 2022HOH     H1 6252   2.201   3.246   3.983
 2022HOH     H2 6253   2.114   3.367   3.956
 2023HOH      O 6254   2.164   4.020   2.159
 2023HOH     H1 6255   2.184   3.937   2.116
 2023HOH     H2 6256   2.160   4.083   2.087
 2024HOH      O 6257   3.224   3.489   3.697
 2024HOH     H1 6258   3.217   3.470   3.790
 2024HOH     H2 6259   3.274   3.416   3.661
 2025HOH      O 6260   2.728   0.677   1.510
 2025HOH     H1 6261   2.791   0.744   1.483
 2025HOH     H2 6262   2.654   0.689   1.451
 2026HOH      O 6263   2.204   3.213   0.610
 2026HOH     H1 6264   2.170   3.248   0.693
 2026HOH     H2 6265   2.139   3.240   0.545
 2027HOH      O 6266   2.553   0.421   2.027
 2027HOH     H1 6267   2.510   0.493   2.074
 2027HOH     H2 6268   2.588   0.365   2.096
 2028HOH      O 6269   2.400   0.259   0.905
 2028HOH     H1 6270   2.362   0.172   0.895
 2028HOH     H2 6271   2.395   0.298   0.817
 2029HOH      O 6272   3.970   2.769   3.814
 2029HOH     H1 6273   3.971   2.845   3.755
 2029HOH     H2 6274   3.888   2.724   3.794
 2030HOH      O 6275   0.351   3.730   2.849
 2030HOH     H1 6276   0.371   3.806   2.794
 2030HOH     H2 6277   0.425   3.723   2.909
 2031HOH      O 6278   1.266   3.000   2.000
 2031HOH     H1 6279   1.320   2.925   2.025
 2031HOH     H2 6280   1.176   2.972   2.020
 2032HOH      O 6281   0.232   1.546   2.899
 2032HOH     H1 6282   0.260   1.541   2.990
 2032HOH     H2 6283   0.197   1.635   2.889
 2033HOH      O 6284   2.817   2.267   3.207
 2033HOH     H1 6285   2.810   2.177   3.176
 2033HOH     H2 6286   2.740   2.279   3.263
 2034HOH      O 6287   0.503   3.831   2.273
 2034HOH     H1 6288   0.561   3.800   2.204
 2034HOH     H2 6289   0.451   3.755   2.298
 2035HOH      O 6290   2.991   0.085   1.952
 2035HOH     H1 6291   2.907   0.049   1.924
 2035HOH     H2 6292   3.051   0.065   1.880
 2036HOH      O 6293   0.842   2.547   0.425
 2036HOH     H1 6294   0.866   2.624   0.477
 2036HOH     H2 6295   0.768   2.508   0.472
 2037HOH      O 6296   2.052   2.855   0.713
 2037HOH     H1 6297   2.059   2.926   0.649
 2037HOH     H2 6298   2.124   2.796   0.691
 2038HOH      O 6299   2.863   3.025   2.401
 2038HOH     H1 6300   2.871   3.120   2.411
 2038HOH     H2 6301   2.923   2.990   2.467
 2039HOH      O 6302   2.177   0.862   0.332
 2039HOH     H1 6303   2.092   0.904   0.344
 2039HOH     H2 6304   2.167   0.775   0.370
 2040HOH      O 6305   0.449   2.613   0.967
 2040HOH     H1 6306   0.529   2.561   0.970
 2040HOH     H2 6307   0.422   2.620   1.059
 2041HOH      O 6308   3.585   3.798   1.905
 2041HOH     H1 6309   3.520   3.782   1.837
 2041HOH     H2 6310   3.629   3.714   1.917
 2042HOH      O 6311   1.384   3.264   3.841
 2042HOH     H1 6312   1.314   3.241   3.902
 2042HOH     H2 6313   1.345   3.329   3.782
 2043HOH      O 6314   0.434   3.577   2.368
 2043HOH     H1 6315   0.438   3.597   2.461
 2043HOH     H2 6316   0.500   3.508   2.356
 2044HOH      O 6317   1.639   2.491   0.317
 2044HOH     H1 6318   1.603   2.486   0.229
 2044HOH     H2 6319   1.564   2.517   0.372
 2045HOH      O 6320   3.290   2.381   0.039
 2045HOH     H1 6321   3.339   2.312   0.085
 2045HOH     H2 6322   3.231   2.416   0.105
 2046HOH      O 6323   1.033   0.532   0.607
 2046HOH     H1 6324   0.979   0.575   0.673
 2046HOH     H2 6325   1.119   0.525   0.648
 2047HOH      O 6326   0.658   3.192   1.897
 2047HOH     H1 6327   0.564   3.200   1.882
 2047HOH     H2 6328   0.674   3.237   1.980
 2048HOH      O 6329   3.408   2.088   2.491
 2048HOH     H1 6330   3.412   2.122   2.581
 2048HOH     H2 6331   3.316   2.095   2.467
 2049HOH      O 6332   2.604   1.215   3.383
 2049HOH     H1 6333   2.624   1.292   3.330
 2049HOH     H2 6334   2.599   1.247   3.473
 2050HOH      O 6335   1.171   3.923   1.776
 2050HOH     H1 6336   1.173   4.010   1.815
 2050HOH     H2 6337   1.167   3.940   1.681
 2051HOH      O 6338   3.095   3.639   2.813
 2051HOH     H1 6339   3.065   3.584   2.885
 2051HOH     H2 6340   3.113   3.724   2.853
 2052HOH      O 6341   0.704   2.594   0.190
 2052HOH     H1 6342   0.681   2.509   0.153
 2052HOH     H2 6343   0.775   2.575   0.251
 2053HOH      O 6344   0.381   3.701   0.188
 2053HOH     H1 6345   0.437   3.684   0.264
 2053HOH     H2 6346   0.313   3.634   0.194
 2054HOH      O 6347   1.825   0.167   1.692
 2054HOH     H1 6348   1.784   0.085   1.720
 2054HOH     H2 6349   1.919   0.153   1.705
 2055HOH      O 6350   0.917   3.587   2.279
 2055HOH     H1 6351   0.905   3.664   2.335
 2055HOH     H2 6352   0.985   3.613   2.217
 2056HOH      O 6353   1.624   3.851   0.593
 2056HOH     H1 6354   1.581   3.853   0.508
 2056HOH     H2 6355   1.578   3.782   0.641
 2057HOH      O 6356   1.576   3.733   0.879
 2057HOH     H1 6357   1.512   3.804   0.883
 2057HOH     H2 6358   1.613   3.730   0.967
 2058HOH      O 6359   3.322   1.047   3.228
 2058HOH     H1 6360   3.361   1.102   3.295
 2058HOH     H2 6361   3.228   1.052   3.244
 2059HOH      O 6362   1.019   1.196   2.798
 2059HOH     H1 6363   1.028   1.161   2.710
 2059HOH     H2 6364   1.036   1.290   2.789
 2060HOH      O 6365   1.138   1.915   2.917
 2060HOH     H1 6366   1.108   1.978   2.982
 2060HOH     H2 6367   1.140   1.831   2.964
 2061HOH      O 6368   0.568   0.063   2.472
 2061HOH     H1 6369   0.484   0.100   2.445
 2061HOH     H2 6370   0.619   0.139   2.500
 2062HOH      O 6371   2.915   2.959   1.132
 2062HOH     H1 6372   2.922   2.863   1.137
 2062HOH     H2 6373   2.901   2.987   1.222
 2063HOH      O 6374   1.382   0.734   3.713
 2063HOH     H1 6375   1.441   0.790   3.762
 2063HOH     H2 6376   1.407   0.747   3.621
 2064HOH      O 6377   1.311   3.718   2.779
 2064HOH     H1 6378   1.401   3.707   2.809
 2064HOH     H2 6379   1.260   3.728   2.859
 2065HOH      O 6380   1.142   1.484   0.179
 2065HOH     H1 6381   1.109   1.471   0.268
 2065HOH     H2 6382   1.177   1.573   0.179
 2066HOH      O 6383   3.832   3.760   3.249
 2066HOH     H1 6384   3.910   3.778   3.196
 2066HOH     H2 6385   3.859   3.690   3.308
 2067HOH      O 6386   2.292   4.041   0.871
 2067HOH     H1 6387   2.359   3.973   0.861
 2067HOH     H2 6388   2.215   4.006   0.826
 2068HOH      O 6389   0.995   2.284   2.874
 2068HOH     H1 6390   1.089   2.279   2.859
 2068HOH     H2 6391   0.956   2.283   2.786
 2069HOH      O 6392   3.851   3.579   3.471
 2069HOH     H1 6393   3.771   3.581   3.524
 2069HOH     H2 6394   3.922   3.585   3.534
 2070HOH      O 6395   1.667   0.819   2.748
 2070HOH     H1 6396   1.697   0.779   2.830
 2070HOH     H2 6397   1.598   0.880   2.775
 2071HOH      O 6398   2.865   1.624   1.801
 2071HOH     H1 6399   2.846   1.562   1.731
 2071HOH     H2 6400   2.936   1.583   1.851
 2072HOH      O 6401   3.756   1.817   2.111
 2072HOH     H1 6402   3.848   1.807   2.089
 2072HOH     H2 6403   3.747   1.910   2.131
 2073HOH      O 6404   0.385   0.512   0.420
 2073HOH     H1 6405   0.370   0.558   0.338
 2073HOH     H2 6406   0.299   0.507   0.461
 2074HOH      O 6407   3.894   2.222   3.931
 2074HOH     H1 6408   3.940   2.229   3.847
 2074HOH     H2 6409   3.822   2.162   3.913
 2075HOH      O 6410   3.850   1.865   0.709
 2075HOH     H1 6411   3.860   1.946   0.759
 2075HOH     H2 6412   3.847   1.894   0.617
 2076HOH      O 6413   2.913   2.897   0.820
 2076HOH     H1 6414   2.836   2.846   0.793
 2076HOH     H2 6415   2.876   2.981   0.849
 2077HOH      O 6416   3.718   1.081   0.570
 2077HOH     H1 6417   3.729   0.990   0.544
 2077HOH     H2 6418   3.712   1.129   0.487
 2078HOH      O 6419   1.979   0.546   1.720
 2078HOH     H1 6420   2.004   0.637   1.735
 2078HOH     H2 6421   1.964   0.541   1.625
 2079HOH      O 6422   2.814   1.737   3.269
 2079HOH     H1 6423   2.883   1.738   3.336
 2079HOH     H2 6424   2.847   1.678   3.201
 2080HOH      O 6425   3.973   2.079   3.610
 2080HOH     H1 6426   3.879   2.089   3.596
 2080HOH     H2 6427   3.994   1.994   3.570
 2081HOH      O 6428   0.743   2.641   3.514
 2081HOH     H1 6429   0.778   2.556   3.487
 2081HOH     H2 6430   0.730   2.633   3.608
 2082HOH      O 6431   1.515   2.643   0.842
 2082HOH     H1 6432   1.438   2.592   0.817
 2082HOH     H2 6433   1.507   2.724   0.791
 2083HOH      O 6434   0.057   2.424   1.223
 2083HOH     H1 6435   0.086   2.412   1.133
 2083HOH     H2 6436   0.138   2.431   1.273
 2084HOH      O 6437   3.873   0.723   2.417
 2084HOH     H1 6438   3.906   0.709   2.328
 2084HOH     H2 6439   3.840   0.637   2.444
 2085HOH      O 6440   0.082   0.912   1.004
 2085HOH     H1 6441   0.089   0.959   0.921
 2085HOH     H2 6442   0.154   0.849   1.003
 2086HOH      O 6443   1.069   1.078   2.581
 2086HOH     H1 6444   1.142   1.128   2.546
 2086HOH     H2 6445   1.101   0.988   2.585
 2087HOH      O 6446   3.289   1.190   1.120
 2087HOH     H1 6447   3.356   1.138   1.076
 2087HOH     H2 6448   3.338   1.245   1.182
 2088HOH      O 6449   0.564   1.344   0.346
 2088HOH     H1 6450   0.479   1.346   0.302
 2088HOH     H2 6451   0.611   1.272   0.306
 2089HOH      O 6452   1.164   0.517   3.087
 2089HOH     H1 6453   1.085   0.479   3.048
 2089HOH     H2 6454   1.229   0.513   3.018
 2090HOH      O 6455   0.941   3.767   2.513
 2090HOH     H1 6456   0.976   3.816   2.439
 2090HOH     H2 6457   0.850   3.794   2.519
 2091HOH      O 6458   1.805   3.425   2.579
 2091HOH     H1 6459   1.772   3.412   2.490
 2091HOH     H2 6460   1.900   3.417   2.571
 2092HOH      O 6461   1.639   2.797   0.019
 2092HOH     H1 6462   1.673   2.857  -0.047
 2092HOH     H2 6463   1.598   2.853   0.085
 2093HOH      O 6464   1.874   2.693   1.819
 2093HOH     H1 6465   1.930   2.765   1.788
 2093HOH     H2 6466   1.929   2.615   1.811
 2094HOH      O 6467   2.501   2.525   0.457
 2094HOH     H1 6468   2.425   2.582   0.447
 2094HOH     H2 6469   2.485   2.454   0.395
 2095HOH      O 6470   1.665   2.182   2.918
 2095HOH     H1 6471   1.608   2.114   2.882
 2095HOH     H2 6472   1.752   2.141   2.919
 2096HOH      O 6473   0.087   0.671   3.394
 2096HOH     H1 6474   0.179   0.686   3.373
 2096HOH     H2 6475   0.089   0.606   3.464
 2097HOH      O 6476   0.597   1.418   2.915
 2097HOH     H1 6477   0.655   1.343   2.925
 2097HOH     H2 6478   0.531   1.388   2.852
 2098HOH      O 6479   0.542   1.637   3.280
 2098HOH     H1 6480   0.578   1.724   3.297
 2098HOH     H2 6481   0.618   1.579   3.282
 2099HOH      O 6482   3.338   0.295   2.316
 2099HOH     H1 6483   3.258   0.295   2.370
 2099HOH     H2 6484   3.376   0.208   2.331
 2100HOH      O 6485   3.163   1.676   1.720
 2100HOH     H1 6486   3.236   1.637   1.672
 2100HOH     H2 6487   3.128   1.605   1.774
 2101HOH      O 6488   0.349   2.018   2.862
 2101HOH     H1 6489   0.362   2.110   2.842
 2101HOH     H2 6490   0.320   1.979   2.780
 2102HOH      O 6491   0.357   3.067   0.148
 2102HOH     H1 6492   0.317   3.141   0.104
 2102HOH     H2 6493   0.321   2.990   0.102
 2103HOH      O 6494   1.210   3.838   0.379
 2103HOH     H1 6495   1.242   3.833   0.469
 2103HOH     H2 6496   1.134   3.780   0.379
 2104HOH      O 6497   0.415   2.148   3.407
 2104HOH     H1 6498   0.392   2.154   3.314
 2104HOH     H2 6499   0.377   2.226   3.447
 2105HOH      O 6500   3.059   2.691   0.418
 2105HOH     H1 6501   2.976   2.692   0.466
 2105HOH     H2 6502   3.078   2.783   0.401
 2106HOH      O 6503   3.828   2.516   1.339
 2106HOH     H1 6504   3.805   2.609   1.335
 2106HOH     H2 6505   3.921   2.516   1.361
 2107HOH      O 6506   2.690   1.900   3.890
 2107HOH     H1 6507   2.721   1.857   3.969
 2107HOH     H2 6508   2.721   1.990   3.898
 2108HOH      O 6509   2.974   1.701   3.516
 2108HOH     H1 6510   2.913   1.720   3.588
 2108HOH     H2 6511   3.043   1.648   3.556
 2109HOH      O 6512   2.053   3.279   3.142
 2109HOH     H1 6513   2.092   3.321   3.219
 2109HOH     H2 6514   2.124   3.279   3.077
 2110HOH      O 6515   0.156   1.632   3.484
 2110HOH     H1 6516   0.129   1.718   3.451
 2110HOH     H2 6517   0.248   1.642   3.506
 2111HOH      O 6518   3.936   1.198   0.833
 2111HOH     H1 6519   4.030   1.213   0.829
 2111HOH     H2 6520   3.898   1.283   0.811
   4.02731   4.02731   4.02731   0.00000   0.00000   0.00000   0.00000   0.00000   0.00000
