Generated with MDTraj, t= 24918.0
 6520
    1MOL     C1    1   3.172   1.954   3.052
    1MOL     C2    2   3.305   1.943   3.102
    1MOL     C3    3   3.348   2.035   3.196
    1MOL     C4    4   3.268   2.147   3.229
    1MOL     C5    5   3.138   2.152   3.180
    1MOL     C6    6   3.087   2.056   3.092
    1MOL     C7    7   3.484   2.022   3.248
    1MOL     N1    8   3.595   2.009   3.275
    1MOL     C8    9   2.943   2.058   3.051
    1MOL     O1   10   2.878   2.161   3.068
    1MOL     O2   11   2.891   1.960   3.010
    1MOL     H1   12   3.132   1.876   2.988
    1MOL     H2   13   3.372   1.862   3.073
    1MOL     H3   14   3.307   2.220   3.299
    1MOL     H4   15   3.071   2.232   3.210
    2OCB     C1   16   0.632   2.258   3.159
    2OCB     C2   17   0.535   2.027   3.279
    2OCB     C3   18   0.696   2.140   3.138
    2OCB     C4   19   0.515   2.267   3.239
    2OCB     C5   20   0.467   2.149   3.294
    2OCB     C6   21   0.651   2.027   3.201
    2OCB     O1   22   0.470   1.911   3.333
    2OCB     C7   23   0.730   1.890   3.186
    2OCB     C8   24   0.404   1.825   3.245
    2OCB     O2   25   0.480   1.714   3.205
    2OCB     C9   26   0.554   1.724   3.083
    2OCB    C10   27   0.672   1.801   3.067
    2OCB    C11   28   0.734   1.813   2.941
    2OCB    C12   29   0.504   1.661   2.967
    2OCB    C13   30   0.674   1.752   2.824
    2OCB    C14   31   0.559   1.680   2.846
    2OCB     O3   32   0.487   1.633   2.736
    2OCB    C15   33   0.726   1.788   2.688
    2OCB    C16   34   0.648   1.903   2.623
    2OCB    C17   35   0.540   1.879   2.540
    2OCB    C18   36   0.407   1.722   2.656
    2OCB     O4   37   0.476   1.754   2.536
    2OCB     O5   38   0.434   2.377   3.239
    2OCB    C19   39   0.687   2.377   3.093
    2OCB    C20   40   0.620   2.397   2.952
    2OCB     O6   41   0.420   2.511   3.036
    2OCB    C21   42   0.493   2.462   2.933
    2OCB    C22   43   0.480   1.985   2.473
    2OCB    C23   44   0.515   2.119   2.492
    2OCB    C24   45   0.436   2.482   2.809
    2OCB    C25   46   0.495   2.420   2.696
    2OCB     O7   47   0.439   2.221   2.436
    2OCB     O8   48   0.419   2.426   2.580
    2OCB    C26   49   0.354   2.307   2.530
    2OCB    C27   50   0.678   2.345   2.832
    2OCB    C28   51   0.621   2.358   2.709
    2OCB    C29   52   0.692   2.035   2.636
    2OCB    C30   53   0.678   2.286   2.589
    2OCB    C31   54   0.624   2.145   2.576
    2OCB    C32   55   0.359   2.417   3.120
    2OCB    C33   56   0.884   1.799   2.672
    2OCB    C34   57   0.963   1.674   2.719
    2OCB    C35   58   0.919   1.556   2.635
    2OCB     O9   59   0.964   1.540   2.524
    2OCB    C36   60   0.880   1.905   3.193
    2OCB    C37   61   0.932   1.965   3.326
    2OCB    C38   62   0.899   1.878   3.446
    2OCB    O10   63   0.870   1.765   3.440
    2OCB    C39   64   0.846   2.389   3.104
    2OCB    C40   65   0.897   2.528   3.082
    2OCB    C41   66   1.044   2.549   3.079
    2OCB    O11   67   1.114   2.591   2.988
    2OCB    C42   68   0.827   2.297   2.578
    2OCB    C43   69   0.865   2.435   2.526
    2OCB    C44   70   1.006   2.455   2.476
    2OCB    O12   71   1.093   2.463   2.556
    2OCB    C45   72   0.269   1.781   3.296
    2OCB    C46   73   0.009   1.711   3.385
    2OCB    C47   74   0.214   1.657   3.256
    2OCB    C48   75   0.195   1.853   3.385
    2OCB    C49   76   0.065   1.830   3.423
    2OCB    C50   77   0.082   1.626   3.301
    2OCB    C51   78   0.213   2.458   3.154
    2OCB    C52   79  -0.052   2.523   3.202
    2OCB    C53   80   0.139   2.530   3.056
    2OCB    C54   81   0.149   2.404   3.266
    2OCB    C55   82   0.022   2.446   3.295
    2OCB    C56   83   0.005   2.556   3.081
    2OCB    C57   84   0.215   2.314   2.476
    2OCB    C58   85  -0.055   2.322   2.419
    2OCB    C59   86   0.157   2.211   2.402
    2OCB    C60   87   0.139   2.427   2.514
    2OCB    C61   88   0.006   2.428   2.484
    2OCB    C62   89   0.021   2.219   2.369
    2OCB    C63   90   0.267   1.657   2.633
    2OCB    C64   91   0.023   1.539   2.571
    2OCB    C65   92   0.208   1.670   2.506
    2OCB    C66   93   0.202   1.578   2.729
    2OCB    C67   94   0.079   1.519   2.694
    2OCB    C68   95   0.085   1.615   2.474
    2OCB    O13   96  -0.040   2.397   3.403
    2OCB    O14   97  -0.073   2.536   2.519
    2OCB    O15   98  -0.043   2.118   2.310
    2OCB    O16   99  -0.023   1.914   3.489
    2OCB    O17  100   0.024   1.508   3.263
    2OCB    O18  101   0.017   1.648   2.362
    2OCB    O19  102   0.013   1.435   2.778
    2OCB    C69  103  -0.048   2.620   2.621
    2OCB    C70  104  -0.018   2.793   2.838
    2OCB    C71  105  -0.059   2.572   2.753
    2OCB    C72  106  -0.026   2.756   2.596
    2OCB    C73  107  -0.009   2.841   2.706
    2OCB    C74  108  -0.047   2.662   2.862
    2OCB    O20  109  -0.076   2.633   2.999
    2OCB    C75  110   0.007   2.047   3.516
    2OCB    C76  111   0.082   2.298   3.584
    2OCB    C77  112   0.078   2.070   3.631
    2OCB    C78  113  -0.026   2.148   3.428
    2OCB    C79  114   0.000   2.279   3.465
    2OCB    C80  115   0.116   2.194   3.672
    2OCB    C81  116   0.018   2.002   2.274
    2OCB    C82  117   0.151   1.769   2.210
    2OCB    C83  118   0.113   2.002   2.167
    2OCB    C84  119  -0.031   1.886   2.329
    2OCB    C85  120   0.039   1.769   2.294
    2OCB    C86  121   0.179   1.881   2.135
    2OCB    C87  122   0.277   1.871   2.022
    2OCB    O21  123   0.306   1.961   1.949
    2OCB    C88  124   0.217   1.101   3.070
    2OCB    O22  125   0.229   1.046   3.181
    2OCB    C89  126   0.175   2.227   3.808
    2OCB    O23  127   0.192   2.342   3.847
    2OCB    O24  128   0.860   1.465   2.687
    2OCB    O25  129   1.032   2.431   2.358
    2OCB    O26  130   1.114   2.508   3.173
    2OCB    C90  131   0.002   2.989   2.680
    2OCB    O27  132   0.002   3.027   2.564
    2OCB    O28  133   0.262   1.052   2.973
    2OCB    O29  134   0.342   1.769   2.008
    2OCB    O30  135   0.024   3.064   2.767
    2OCB    O31  136   0.210   2.133   3.880
    2OCB    O32  137   0.923   1.921   3.556
    2OCB    C91  138   0.046   1.431   3.150
    2OCB    C92  139   0.125   1.283   2.926
    2OCB    C93  140   0.020   1.477   3.017
    2OCB    C94  141   0.114   1.311   3.164
    2OCB    C95  142   0.149   1.233   3.053
    2OCB    C96  143   0.059   1.401   2.908
    2OCB    C97  144  -0.052   1.607   2.995
    2OCB    C98  145  -0.119   2.121   3.303
    2OCB    C99  146  -0.082   2.429   2.788
    2OCB      C  147  -0.143   1.871   2.436
    2OCB     H1  148   0.779   2.133   3.068
    2OCB     H2  149   0.374   2.148   3.350
    2OCB     H3  150   0.712   1.824   3.270
    2OCB     H4  151   0.388   1.881   3.152
    2OCB     H5  152   0.829   1.864   2.935
    2OCB     H6  153   0.413   1.603   2.976
    2OCB     H7  154   0.710   1.708   2.616
    2OCB     H8  155   0.392   1.813   2.715
    2OCB     H9  156   0.654   2.464   3.150
    2OCB    H10  157   0.401   1.973   2.399
    2OCB    H11  158   0.344   2.540   2.806
    2OCB    H12  159   0.342   2.250   2.623
    2OCB    H13  160   0.774   2.298   2.854
    2OCB    H14  161   0.778   2.060   2.698
    2OCB    H15  162   0.631   2.345   2.511
    2OCB    H16  163   0.352   2.323   3.063
    2OCB    H17  164   0.912   1.813   2.568
    2OCB    H18  165   0.915   1.887   2.730
    2OCB    H19  166   1.070   1.686   2.695
    2OCB    H20  167   0.949   1.659   2.826
    2OCB    H21  168   0.922   1.957   3.107
    2OCB    H22  169   0.936   1.812   3.191
    2OCB    H23  170   1.041   1.967   3.331
    2OCB    H24  171   0.901   2.068   3.340
    2OCB    H25  172   0.870   2.368   3.209
    2OCB    H26  173   0.899   2.322   3.036
    2OCB    H27  174   0.867   2.556   2.981
    2OCB    H28  175   0.847   2.594   3.153
    2OCB    H29  176   0.880   2.278   2.671
    2OCB    H30  177   0.856   2.222   2.505
    2OCB    H31  178   0.802   2.462   2.442
    2OCB    H32  179   0.858   2.507   2.608
    2OCB    H33  180  -0.089   1.683   3.422
    2OCB    H34  181   0.269   1.591   3.191
    2OCB    H35  182   0.242   1.942   3.426
    2OCB    H36  183  -0.158   2.535   3.223
    2OCB    H37  184   0.183   2.578   2.969
    2OCB    H38  185   0.212   2.350   3.336
    2OCB    H39  186  -0.163   2.321   2.409
    2OCB    H40  187   0.215   2.121   2.382
    2OCB    H41  188   0.171   2.505   2.583
    2OCB    H42  189  -0.079   1.504   2.553
    2OCB    H43  190   0.264   1.732   2.436
    2OCB    H44  191   0.243   1.550   2.825
    2OCB    H45  192  -0.025   2.863   2.921
    2OCB    H46  193  -0.028   2.803   2.498
    2OCB    H47  194   0.101   2.402   3.609
    2OCB    H48  195   0.106   1.983   3.691
    2OCB    H49  196   0.191   1.672   2.181
    2OCB    H50  197   0.143   2.094   2.118
    2OCB    H51  198   0.167   1.231   2.839
    2OCB    H52  199   0.123   1.273   3.265
    2OCB    H53  200  -0.084   1.646   3.091
    2OCB    H54  201   0.015   1.684   2.958
    2OCB    H55  202  -0.137   1.588   2.928
    2OCB    H56  203  -0.222   2.144   3.332
    2OCB    H57  204  -0.102   2.181   3.214
    2OCB    H58  205  -0.117   2.017   3.271
    2OCB    H59  206  -0.095   2.407   2.894
    2OCB    H60  207  -0.179   2.399   2.747
    2OCB    H61  208   0.001   2.366   2.754
    2OCB    H62  209  -0.188   1.963   2.476
    2OCB    H63  210  -0.228   1.814   2.397
    2OCB    H64  211  -0.109   1.819   2.526
    3Na+    Na+  212   0.504   1.713   3.771
    4Na+    Na+  213   0.849   1.262   2.611
    5Na+    Na+  214   0.884   1.197   1.772
    6Na+    Na+  215   3.297   3.196   2.618
    7Na+    Na+  216   2.521   1.616   0.170
    8Na+    Na+  217   2.017   1.297   2.776
    9Na+    Na+  218   1.919   1.785   3.753
   10Na+    Na+  219   2.754   2.502   0.833
   11Na+    Na+  220   1.446   2.484   2.153
   12HOH      O  221   3.825   2.388   1.857
   12HOH     H1  222   3.916   2.357   1.856
   12HOH     H2  223   3.783   2.343   1.784
   13HOH      O  224   3.661   2.926   2.270
   13HOH     H1  225   3.603   2.896   2.340
   13HOH     H2  226   3.638   3.019   2.258
   14HOH      O  227   3.342   0.042   0.070
   14HOH     H1  228   3.434   0.028   0.091
   14HOH     H2  229   3.343   0.090  -0.013
   15HOH      O  230   0.222   1.624   3.965
   15HOH     H1  231   0.188   1.680   3.894
   15HOH     H2  232   0.179   1.657   4.044
   16HOH      O  233   0.715   1.851   1.589
   16HOH     H1  234   0.764   1.823   1.666
   16HOH     H2  235   0.776   1.840   1.517
   17HOH      O  236   3.065   3.241   2.676
   17HOH     H1  237   2.995   3.211   2.618
   17HOH     H2  238   3.022   3.305   2.734
   18HOH      O  239   2.654   3.790   1.539
   18HOH     H1  240   2.609   3.743   1.608
   18HOH     H2  241   2.594   3.862   1.516
   19HOH      O  242   3.037   1.547   3.294
   19HOH     H1  243   3.058   1.502   3.376
   19HOH     H2  244   3.013   1.636   3.322
   20HOH      O  245   3.164   0.631   1.148
   20HOH     H1  246   3.250   0.656   1.114
   20HOH     H2  247   3.140   0.553   1.099
   21HOH      O  248   2.318   3.990   3.673
   21HOH     H1  249   2.365   4.022   3.750
   21HOH     H2  250   2.233   3.963   3.707
   22HOH      O  251   2.058   3.570   0.986
   22HOH     H1  252   2.085   3.621   1.062
   22HOH     H2  253   2.110   3.490   0.992
   23HOH      O  254   1.256   2.118   3.447
   23HOH     H1  255   1.182   2.101   3.390
   23HOH     H2  256   1.220   2.174   3.517
   24HOH      O  257   0.481   3.209   3.259
   24HOH     H1  258   0.454   3.148   3.190
   24HOH     H2  259   0.491   3.155   3.337
   25HOH      O  260   0.034   2.659   0.960
   25HOH     H1  261   0.042   2.616   1.045
   25HOH     H2  262   0.116   2.637   0.915
   26HOH      O  263   3.530   0.927   1.023
   26HOH     H1  264   3.466   0.862   1.052
   26HOH     H2  265   3.602   0.876   0.987
   27HOH      O  266   1.281   1.484   0.618
   27HOH     H1  267   1.244   1.396   0.623
   27HOH     H2  268   1.244   1.529   0.694
   28HOH      O  269   0.763   3.757   2.816
   28HOH     H1  270   0.732   3.673   2.784
   28HOH     H2  271   0.691   3.818   2.799
   29HOH      O  272   1.315   1.864   3.191
   29HOH     H1  273   1.385   1.868   3.126
   29HOH     H2  274   1.245   1.815   3.148
   30HOH      O  275   0.954   2.107   1.403
   30HOH     H1  276   0.912   2.116   1.317
   30HOH     H2  277   0.953   2.013   1.421
   31HOH      O  278   3.823   0.446   2.713
   31HOH     H1  279   3.775   0.364   2.701
   31HOH     H2  280   3.754   0.511   2.729
   32HOH      O  281   0.590   2.521   0.089
   32HOH     H1  282   0.655   2.559   0.149
   32HOH     H2  283   0.633   2.523   0.004
   33HOH      O  284   3.281   0.781   1.829
   33HOH     H1  285   3.332   0.700   1.817
   33HOH     H2  286   3.250   0.776   1.919
   34HOH      O  287   2.607   2.656   1.374
   34HOH     H1  288   2.698   2.636   1.399
   34HOH     H2  289   2.612   2.674   1.280
   35HOH      O  290   3.022   2.477   1.644
   35HOH     H1  291   3.059   2.550   1.694
   35HOH     H2  292   2.933   2.506   1.624
   36HOH      O  293   3.540   1.359   3.714
   36HOH     H1  294   3.479   1.428   3.688
   36HOH     H2  295   3.545   1.365   3.809
   37HOH      O  296   3.077   3.837   0.306
   37HOH     H1  297   3.110   3.747   0.309
   37HOH     H2  298   3.004   3.833   0.244
   38HOH      O  299   2.917   0.785   3.328
   38HOH     H1  300   2.898   0.841   3.403
   38HOH     H2  301   2.997   0.822   3.290
   39HOH      O  302   0.192   0.136   1.412
   39HOH     H1  303   0.260   0.173   1.469
   39HOH     H2  304   0.109   0.162   1.453
   40HOH      O  305   0.947   3.828   1.277
   40HOH     H1  306   0.882   3.767   1.312
   40HOH     H2  307   0.897   3.890   1.225
   41HOH      O  308   0.965   2.064   3.755
   41HOH     H1  309   0.988   1.996   3.819
   41HOH     H2  310   0.951   2.016   3.673
   42HOH      O  311   0.207   3.099   2.391
   42HOH     H1  312   0.189   3.192   2.381
   42HOH     H2  313   0.130   3.064   2.435
   43HOH      O  314   3.200   3.916   3.091
   43HOH     H1  315   3.237   3.841   3.045
   43HOH     H2  316   3.143   3.877   3.158
   44HOH      O  317   3.949   2.887   0.379
   44HOH     H1  318   3.976   2.976   0.355
   44HOH     H2  319   3.958   2.837   0.298
   45HOH      O  320   0.827   2.761   1.911
   45HOH     H1  321   0.774   2.825   1.960
   45HOH     H2  322   0.806   2.677   1.951
   46HOH      O  323   3.266   1.861   1.577
   46HOH     H1  324   3.309   1.889   1.658
   46HOH     H2  325   3.173   1.855   1.601
   47HOH      O  326   2.901   2.138   0.734
   47HOH     H1  327   2.929   2.218   0.691
   47HOH     H2  328   2.954   2.133   0.814
   48HOH      O  329   0.979   2.933   2.717
   48HOH     H1  330   0.914   2.927   2.647
   48HOH     H2  331   1.019   2.846   2.721
   49HOH      O  332   2.924   1.268   1.916
   49HOH     H1  333   2.849   1.281   1.973
   49HOH     H2  334   2.971   1.193   1.954
   50HOH      O  335   2.914   2.961   3.751
   50HOH     H1  336   2.828   3.003   3.753
   50HOH     H2  337   2.956   2.991   3.831
   51HOH      O  338   1.944   1.526   2.818
   51HOH     H1  339   1.863   1.577   2.820
   51HOH     H2  340   2.013   1.592   2.808
   52HOH      O  341   3.948   3.122   3.016
   52HOH     H1  342   4.019   3.131   3.079
   52HOH     H2  343   3.988   3.082   2.939
   53HOH      O  344   3.120   0.382   2.591
   53HOH     H1  345   3.061   0.457   2.582
   53HOH     H2  346   3.078   0.328   2.658
   54HOH      O  347   3.668   2.732   2.773
   54HOH     H1  348   3.685   2.794   2.844
   54HOH     H2  349   3.674   2.786   2.694
   55HOH      O  350   3.335   1.527   3.634
   55HOH     H1  351   3.240   1.539   3.647
   55HOH     H2  352   3.357   1.591   3.566
   56HOH      O  353   3.208   1.846   0.485
   56HOH     H1  354   3.187   1.902   0.560
   56HOH     H2  355   3.122   1.818   0.452
   57HOH      O  356   2.209   3.638   0.650
   57HOH     H1  357   2.288   3.690   0.641
   57HOH     H2  358   2.138   3.702   0.651
   58HOH      O  359   0.508   3.803   2.548
   58HOH     H1  360   0.510   3.816   2.453
   58HOH     H2  361   0.529   3.710   2.560
   59HOH      O  362   1.366   1.742   2.873
   59HOH     H1  363   1.361   1.648   2.890
   59HOH     H2  364   1.456   1.756   2.844
   60HOH      O  365   0.578   2.680   1.734
   60HOH     H1  366   0.651   2.619   1.741
   60HOH     H2  367   0.612   2.762   1.768
   61HOH      O  368   1.444   3.772   0.612
   61HOH     H1  369   1.420   3.694   0.563
   61HOH     H2  370   1.485   3.739   0.692
   62HOH      O  371   3.026   1.823   2.167
   62HOH     H1  372   3.060   1.912   2.167
   62HOH     H2  373   2.977   1.816   2.249
   63HOH      O  374   3.491   0.406   1.166
   63HOH     H1  375   3.542   0.334   1.203
   63HOH     H2  376   3.400   0.376   1.172
   64HOH      O  377   3.827   2.167   2.644
   64HOH     H1  378   3.884   2.151   2.569
   64HOH     H2  379   3.745   2.197   2.605
   65HOH      O  380   3.939   1.887   1.658
   65HOH     H1  381   3.920   1.860   1.568
   65HOH     H2  382   4.032   1.910   1.656
   66HOH      O  383   0.226   2.010   1.187
   66HOH     H1  384   0.189   1.938   1.238
   66HOH     H2  385   0.166   2.083   1.202
   67HOH      O  386   2.529   1.744   3.407
   67HOH     H1  387   2.544   1.739   3.312
   67HOH     H2  388   2.571   1.826   3.434
   68HOH      O  389   1.999   0.032   1.567
   68HOH     H1  390   2.068  -0.009   1.618
   68HOH     H2  391   1.922   0.029   1.624
   69HOH      O  392   4.016   1.831   0.160
   69HOH     H1  393   4.064   1.912   0.144
   69HOH     H2  394   3.936   1.858   0.205
   70HOH      O  395   3.789   3.312   3.451
   70HOH     H1  396   3.842   3.232   3.443
   70HOH     H2  397   3.727   3.305   3.378
   71HOH      O  398   2.324   3.086   1.489
   71HOH     H1  399   2.304   3.117   1.400
   71HOH     H2  400   2.401   3.031   1.479
   72HOH      O  401   1.678   0.933   3.895
   72HOH     H1  402   1.668   0.952   3.989
   72HOH     H2  403   1.605   0.980   3.853
   73HOH      O  404   1.348   3.793   2.662
   73HOH     H1  405   1.354   3.885   2.637
   73HOH     H2  406   1.340   3.795   2.757
   74HOH      O  407   3.399   0.462   2.185
   74HOH     H1  408   3.389   0.504   2.270
   74HOH     H2  409   3.432   0.530   2.127
   75HOH      O  410   0.096   1.991   3.061
   75HOH     H1  411   0.062   1.941   3.135
   75HOH     H2  412   0.027   2.053   3.041
   76HOH      O  413   3.238   0.503   3.199
   76HOH     H1  414   3.247   0.450   3.120
   76HOH     H2  415   3.255   0.593   3.171
   77HOH      O  416   1.065   1.625   3.338
   77HOH     H1  417   1.059   1.603   3.245
   77HOH     H2  418   0.977   1.657   3.361
   78HOH      O  419   2.186   0.634   2.524
   78HOH     H1  420   2.270   0.651   2.481
   78HOH     H2  421   2.194   0.546   2.560
   79HOH      O  422   3.738   3.029   2.572
   79HOH     H1  423   3.820   3.038   2.523
   79HOH     H2  424   3.762   3.047   2.663
   80HOH      O  425   3.869   2.092   3.984
   80HOH     H1  426   3.813   2.052   3.917
   80HOH     H2  427   3.881   2.182   3.953
   81HOH      O  428   1.196   2.626   3.585
   81HOH     H1  429   1.200   2.720   3.601
   81HOH     H2  430   1.158   2.618   3.497
   82HOH      O  431   0.262   0.225   3.542
   82HOH     H1  432   0.199   0.274   3.489
   82HOH     H2  433   0.273   0.278   3.622
   83HOH      O  434   1.274   3.263   0.512
   83HOH     H1  435   1.201   3.233   0.458
   83HOH     H2  436   1.278   3.358   0.496
   84HOH      O  437   2.520   2.671   2.064
   84HOH     H1  438   2.466   2.650   2.140
   84HOH     H2  439   2.481   2.749   2.027
   85HOH      O  440   0.763   0.466   2.351
   85HOH     H1  441   0.709   0.393   2.320
   85HOH     H2  442   0.774   0.451   2.445
   86HOH      O  443   1.898   2.696   0.824
   86HOH     H1  444   1.833   2.628   0.810
   86HOH     H2  445   1.907   2.738   0.738
   87HOH      O  446   1.481   3.177   0.711
   87HOH     H1  447   1.431   3.226   0.645
   87HOH     H2  448   1.555   3.233   0.730
   88HOH      O  449   3.626   2.061   2.005
   88HOH     H1  450   3.697   2.035   1.946
   88HOH     H2  451   3.670   2.101   2.080
   89HOH      O  452  -0.030   0.903   0.044
   89HOH     H1  453  -0.019   0.894   0.138
   89HOH     H2  454   0.055   0.877   0.007
   90HOH      O  455   1.145   0.870   3.133
   90HOH     H1  456   1.154   0.913   3.218
   90HOH     H2  457   1.174   0.935   3.069
   91HOH      O  458   2.155   2.732   2.943
   91HOH     H1  459   2.095   2.750   2.871
   91HOH     H2  460   2.098   2.723   3.020
   92HOH      O  461   3.847   3.073   0.661
   92HOH     H1  462   3.894   2.991   0.675
   92HOH     H2  463   3.872   3.129   0.735
   93HOH      O  464   1.268   1.846   3.472
   93HOH     H1  465   1.243   1.938   3.460
   93HOH     H2  466   1.216   1.798   3.407
   94HOH      O  467   2.909   3.974   1.962
   94HOH     H1  468   2.949   4.027   2.032
   94HOH     H2  469   2.883   4.038   1.896
   95HOH      O  470   0.579   0.429   1.615
   95HOH     H1  471   0.516   0.470   1.555
   95HOH     H2  472   0.657   0.414   1.562
   96HOH      O  473   1.034   2.525   1.254
   96HOH     H1  474   1.045   2.471   1.176
   96HOH     H2  475   0.939   2.537   1.262
   97HOH      O  476   2.838   2.885   0.325
   97HOH     H1  477   2.919   2.838   0.305
   97HOH     H2  478   2.791   2.889   0.242
   98HOH      O  479   2.975   2.911   2.585
   98HOH     H1  480   3.038   2.966   2.538
   98HOH     H2  481   2.894   2.919   2.534
   99HOH      O  482   2.136   1.001   3.847
   99HOH     H1  483   2.168   0.992   3.757
   99HOH     H2  484   2.214   1.011   3.900
  100HOH      O  485   3.177   0.240   3.823
  100HOH     H1  486   3.233   0.198   3.758
  100HOH     H2  487   3.117   0.294   3.772
  101HOH      O  488   3.707   1.827   3.484
  101HOH     H1  489   3.751   1.763   3.539
  101HOH     H2  490   3.778   1.878   3.445
  102HOH      O  491   1.307   2.774   2.973
  102HOH     H1  492   1.294   2.829   3.050
  102HOH     H2  493   1.260   2.693   2.992
  103HOH      O  494   3.254   1.699   1.056
  103HOH     H1  495   3.286   1.682   1.145
  103HOH     H2  496   3.166   1.737   1.070
  104HOH      O  497   0.155   1.986   0.931
  104HOH     H1  498   0.197   2.000   1.016
  104HOH     H2  499   0.122   2.072   0.907
  105HOH      O  500   2.937   3.576   2.507
  105HOH     H1  501   2.963   3.524   2.431
  105HOH     H2  502   2.844   3.557   2.518
  106HOH      O  503   2.830   2.159   2.046
  106HOH     H1  504   2.740   2.191   2.058
  106HOH     H2  505   2.852   2.184   1.956
  107HOH      O  506   3.935   3.230   1.089
  107HOH     H1  507   3.922   3.204   0.998
  107HOH     H2  508   4.028   3.214   1.105
  108HOH      O  509   0.178   3.964   0.824
  108HOH     H1  510   0.225   4.046   0.812
  108HOH     H2  511   0.162   3.960   0.919
  109HOH      O  512   2.874   2.874   1.345
  109HOH     H1  513   2.966   2.848   1.333
  109HOH     H2  514   2.845   2.899   1.257
  110HOH      O  515   2.509   2.420   1.215
  110HOH     H1  516   2.451   2.457   1.281
  110HOH     H2  517   2.495   2.325   1.223
  111HOH      O  518   3.605   4.013   0.118
  111HOH     H1  519   3.610   3.918   0.109
  111HOH     H2  520   3.695   4.043   0.114
  112HOH      O  521   1.435   1.054   3.873
  112HOH     H1  522   1.353   1.013   3.901
  112HOH     H2  523   1.456   1.115   3.943
  113HOH      O  524   1.444   1.830   1.214
  113HOH     H1  525   1.512   1.862   1.155
  113HOH     H2  526   1.362   1.847   1.167
  114HOH      O  527   2.858   1.151   1.665
  114HOH     H1  528   2.770   1.177   1.689
  114HOH     H2  529   2.913   1.181   1.737
  115HOH      O  530   2.716   1.990   4.054
  115HOH     H1  531   2.702   2.070   4.004
  115HOH     H2  532   2.798   1.955   4.021
  116HOH      O  533   2.715   2.876   2.122
  116HOH     H1  534   2.639   2.835   2.163
  116HOH     H2  535   2.785   2.866   2.187
  117HOH      O  536   0.152   1.470   0.361
  117HOH     H1  537   0.185   1.523   0.289
  117HOH     H2  538   0.101   1.401   0.319
  118HOH      O  539   2.031   2.326   1.753
  118HOH     H1  540   2.064   2.415   1.767
  118HOH     H2  541   1.949   2.323   1.803
  119HOH      O  542   1.348   0.444   1.755
  119HOH     H1  543   1.425   0.412   1.707
  119HOH     H2  544   1.304   0.365   1.786
  120HOH      O  545   2.394   1.572   2.112
  120HOH     H1  546   2.423   1.481   2.100
  120HOH     H2  547   2.472   1.618   2.142
  121HOH      O  548   3.835   1.234   1.767
  121HOH     H1  549   3.753   1.256   1.724
  121HOH     H2  550   3.845   1.300   1.835
  122HOH      O  551   0.403   3.415   3.575
  122HOH     H1  552   0.483   3.372   3.545
  122HOH     H2  553   0.406   3.502   3.536
  123HOH      O  554   3.263   0.787   3.507
  123HOH     H1  555   3.191   0.847   3.488
  123HOH     H2  556   3.340   0.829   3.468
  124HOH      O  557   3.593   0.677   3.551
  124HOH     H1  558   3.642   0.626   3.616
  124HOH     H2  559   3.630   0.766   3.558
  125HOH      O  560   2.222   0.311   2.951
  125HOH     H1  561   2.159   0.377   2.921
  125HOH     H2  562   2.245   0.339   3.040
  126HOH      O  563   2.884   0.829   2.427
  126HOH     H1  564   2.870   0.751   2.480
  126HOH     H2  565   2.974   0.855   2.446
  127HOH      O  566   2.151   0.020   0.858
  127HOH     H1  567   2.195  -0.037   0.921
  127HOH     H2  568   2.215   0.031   0.788
  128HOH      O  569   2.479   0.587   0.735
  128HOH     H1  570   2.422   0.630   0.671
  128HOH     H2  571   2.567   0.604   0.703
  129HOH      O  572   0.449   3.601   3.001
  129HOH     H1  573   0.530   3.552   3.014
  129HOH     H2  574   0.389   3.539   2.961
  130HOH      O  575   1.204   0.832   2.684
  130HOH     H1  576   1.237   0.768   2.747
  130HOH     H2  577   1.268   0.903   2.686
  131HOH      O  578   3.561   2.308   0.439
  131HOH     H1  579   3.637   2.253   0.420
  131HOH     H2  580   3.529   2.334   0.353
  132HOH      O  581   3.844   2.011   0.557
  132HOH     H1  582   3.824   2.044   0.645
  132HOH     H2  583   3.817   1.919   0.559
  133HOH      O  584   1.878   3.017   3.258
  133HOH     H1  585   1.812   3.086   3.260
  133HOH     H2  586   1.917   3.020   3.346
  134HOH      O  587   0.033   0.551   1.095
  134HOH     H1  588   0.060   0.643   1.093
  134HOH     H2  589   0.011   0.535   1.187
  135HOH      O  590   1.445   1.420   0.220
  135HOH     H1  591   1.490   1.493   0.177
  135HOH     H2  592   1.480   1.342   0.177
  136HOH      O  593   3.453   0.356   2.910
  136HOH     H1  594   3.512   0.361   2.985
  136HOH     H2  595   3.385   0.421   2.929
  137HOH      O  596   1.529   3.158   2.099
  137HOH     H1  597   1.573   3.215   2.036
  137HOH     H2  598   1.437   3.184   2.096
  138HOH      O  599   1.546   3.234   2.372
  138HOH     H1  600   1.535   3.318   2.329
  138HOH     H2  601   1.535   3.169   2.302
  139HOH      O  602   3.083   3.189   3.409
  139HOH     H1  603   3.073   3.269   3.357
  139HOH     H2  604   3.097   3.221   3.498
  140HOH      O  605   2.948   0.477   0.340
  140HOH     H1  606   2.977   0.418   0.270
  140HOH     H2  607   2.854   0.458   0.350
  141HOH      O  608   0.538   1.721   1.144
  141HOH     H1  609   0.468   1.728   1.210
  141HOH     H2  610   0.504   1.769   1.069
  142HOH      O  611   1.955   0.093   3.515
  142HOH     H1  612   2.042   0.061   3.493
  142HOH     H2  613   1.960   0.188   3.503
  143HOH      O  614   2.585   3.459   2.163
  143HOH     H1  615   2.513   3.521   2.150
  143HOH     H2  616   2.546   3.386   2.211
  144HOH      O  617   2.424   3.327   3.319
  144HOH     H1  618   2.482   3.384   3.268
  144HOH     H2  619   2.430   3.361   3.408
  145HOH      O  620   3.506   2.764   2.438
  145HOH     H1  621   3.420   2.743   2.402
  145HOH     H2  622   3.542   2.679   2.465
  146HOH      O  623   1.979   1.247   2.203
  146HOH     H1  624   1.986   1.152   2.192
  146HOH     H2  625   1.999   1.283   2.117
  147HOH      O  626   1.156   3.079   0.289
  147HOH     H1  627   1.213   3.047   0.218
  147HOH     H2  628   1.122   3.161   0.255
  148HOH      O  629   0.926   2.470   3.566
  148HOH     H1  630   0.931   2.520   3.648
  148HOH     H2  631   0.843   2.423   3.572
  149HOH      O  632   3.112   2.833   4.049
  149HOH     H1  633   3.197   2.870   4.024
  149HOH     H2  634   3.096   2.765   3.983
  150HOH      O  635   2.566   0.922   1.225
  150HOH     H1  636   2.587   0.863   1.297
  150HOH     H2  637   2.545   0.864   1.151
  151HOH      O  638   2.785   0.035   1.298
  151HOH     H1  639   2.702   0.068   1.333
  151HOH     H2  640   2.841   0.113   1.292
  152HOH      O  641   0.665   0.046   0.888
  152HOH     H1  642   0.666   0.022   0.795
  152HOH     H2  643   0.582   0.012   0.921
  153HOH      O  644   1.174   2.157   3.959
  153HOH     H1  645   1.120   2.218   3.909
  153HOH     H2  646   1.123   2.142   4.039
  154HOH      O  647   1.503   3.759   3.665
  154HOH     H1  648   1.456   3.679   3.689
  154HOH     H2  649   1.466   3.826   3.723
  155HOH      O  650   2.668   1.477   3.162
  155HOH     H1  651   2.575   1.456   3.153
  155HOH     H2  652   2.686   1.539   3.091
  156HOH      O  653   2.315   2.226   1.455
  156HOH     H1  654   2.296   2.319   1.462
  156HOH     H2  655   2.362   2.217   1.372
  157HOH      O  656   0.114   3.262   0.443
  157HOH     H1  657   0.125   3.233   0.534
  157HOH     H2  658   0.042   3.208   0.410
  158HOH      O  659   2.039   3.883   3.245
  158HOH     H1  660   2.096   3.925   3.310
  158HOH     H2  661   2.023   3.795   3.280
  159HOH      O  662   1.863   1.234   3.506
  159HOH     H1  663   1.874   1.297   3.435
  159HOH     H2  664   1.882   1.284   3.586
  160HOH      O  665   3.337   3.320   0.057
  160HOH     H1  666   3.338   3.242   0.111
  160HOH     H2  667   3.404   3.377   0.094
  161HOH      O  668   0.753   1.896   2.250
  161HOH     H1  669   0.778   1.807   2.274
  161HOH     H2  670   0.817   1.951   2.294
  162HOH      O  671   0.603   2.355   0.695
  162HOH     H1  672   0.529   2.404   0.660
  162HOH     H2  673   0.680   2.403   0.663
  163HOH      O  674   0.565   0.378   0.492
  163HOH     H1  675   0.592   0.410   0.406
  163HOH     H2  676   0.540   0.457   0.540
  164HOH      O  677   1.934   3.537   2.789
  164HOH     H1  678   1.883   3.607   2.749
  164HOH     H2  679   1.902   3.532   2.879
  165HOH      O  680   1.142   1.445   1.543
  165HOH     H1  681   1.183   1.360   1.527
  165HOH     H2  682   1.092   1.462   1.463
  166HOH      O  683   2.951   3.608   3.752
  166HOH     H1  684   2.900   3.527   3.756
  166HOH     H2  685   3.023   3.594   3.813
  167HOH      O  686   3.969   3.380   1.910
  167HOH     H1  687   3.975   3.317   1.838
  167HOH     H2  688   4.014   3.338   1.983
  168HOH      O  689   1.289   0.664   2.888
  168HOH     H1  690   1.376   0.679   2.925
  168HOH     H2  691   1.288   0.570   2.868
  169HOH      O  692   1.341   3.107   2.514
  169HOH     H1  693   1.425   3.153   2.508
  169HOH     H2  694   1.326   3.072   2.426
  170HOH      O  695   2.654   3.071   0.654
  170HOH     H1  696   2.576   3.082   0.708
  170HOH     H2  697   2.642   3.132   0.581
  171HOH      O  698   0.843   1.289   3.491
  171HOH     H1  699   0.844   1.210   3.545
  171HOH     H2  700   0.778   1.346   3.532
  172HOH      O  701   3.525   3.198   2.541
  172HOH     H1  702   3.560   3.268   2.486
  172HOH     H2  703   3.590   3.129   2.537
  173HOH      O  704   1.691   0.439   1.048
  173HOH     H1  705   1.687   0.353   1.006
  173HOH     H2  706   1.602   0.474   1.039
  174HOH      O  707   3.948   1.840   3.844
  174HOH     H1  708   3.992   1.908   3.895
  174HOH     H2  709   3.857   1.869   3.839
  175HOH      O  710   1.286   2.469   2.004
  175HOH     H1  711   1.288   2.432   1.916
  175HOH     H2  712   1.195   2.458   2.032
  176HOH      O  713   2.355   0.890   2.150
  176HOH     H1  714   2.297   0.826   2.191
  176HOH     H2  715   2.315   0.974   2.168
  177HOH      O  716   0.968   0.873   2.817
  177HOH     H1  717   1.034   0.839   2.756
  177HOH     H2  718   1.018   0.925   2.880
  178HOH      O  719   0.152   2.671   3.848
  178HOH     H1  720   0.247   2.658   3.851
  178HOH     H2  721   0.117   2.584   3.828
  179HOH      O  722   1.933   1.430   2.452
  179HOH     H1  723   1.897   1.387   2.530
  179HOH     H2  724   1.929   1.364   2.384
  180HOH      O  725   0.169   2.333   0.210
  180HOH     H1  726   0.232   2.307   0.277
  180HOH     H2  727   0.166   2.259   0.150
  181HOH      O  728   3.373   1.167   2.111
  181HOH     H1  729   3.436   1.202   2.048
  181HOH     H2  730   3.305   1.235   2.116
  182HOH      O  731   3.465   0.106   0.687
  182HOH     H1  732   3.560   0.107   0.676
  182HOH     H2  733   3.451   0.139   0.776
  183HOH      O  734   2.755   2.422   1.533
  183HOH     H1  735   2.726   2.409   1.624
  183HOH     H2  736   2.689   2.481   1.496
  184HOH      O  737   2.441   0.513   0.057
  184HOH     H1  738   2.511   0.527  -0.007
  184HOH     H2  739   2.475   0.553   0.138
  185HOH      O  740   0.069   2.705   2.194
  185HOH     H1  741   0.153   2.713   2.238
  185HOH     H2  742   0.015   2.775   2.232
  186HOH      O  743   2.532   0.174   3.643
  186HOH     H1  744   2.519   0.117   3.567
  186HOH     H2  745   2.552   0.115   3.715
  187HOH      O  746   2.318   1.851   1.650
  187HOH     H1  747   2.237   1.891   1.617
  187HOH     H2  748   2.318   1.763   1.612
  188HOH      O  749   3.833   0.164   1.430
  188HOH     H1  750   3.875   0.080   1.445
  188HOH     H2  751   3.873   0.223   1.493
  189HOH      O  752   3.443   2.095   1.561
  189HOH     H1  753   3.409   2.029   1.500
  189HOH     H2  754   3.508   2.048   1.613
  190HOH      O  755   2.852   3.556   0.195
  190HOH     H1  756   2.885   3.491   0.132
  190HOH     H2  757   2.872   3.641   0.154
  191HOH      O  758   2.290   0.780   1.348
  191HOH     H1  759   2.359   0.755   1.409
  191HOH     H2  760   2.327   0.763   1.261
  192HOH      O  761   3.342   2.952   1.146
  192HOH     H1  762   3.419   3.006   1.125
  192HOH     H2  763   3.287   3.008   1.199
  193HOH      O  764   3.815   2.082   0.853
  193HOH     H1  765   3.743   2.099   0.913
  193HOH     H2  766   3.884   2.143   0.880
  194HOH      O  767   1.406   3.975   3.436
  194HOH     H1  768   1.493   3.937   3.444
  194HOH     H2  769   1.411   4.031   3.358
  195HOH      O  770   2.307   1.612   1.541
  195HOH     H1  771   2.352   1.576   1.465
  195HOH     H2  772   2.215   1.589   1.528
  196HOH      O  773   0.761   3.889   3.631
  196HOH     H1  774   0.784   3.812   3.577
  196HOH     H2  775   0.832   3.951   3.614
  197HOH      O  776   2.582   0.666   3.534
  197HOH     H1  777   2.581   0.745   3.589
  197HOH     H2  778   2.648   0.610   3.575
  198HOH      O  779   1.850   1.494   0.140
  198HOH     H1  780   1.945   1.484   0.145
  198HOH     H2  781   1.823   1.505   0.231
  199HOH      O  782   0.075   3.932   2.008
  199HOH     H1  783   0.011   3.884   1.954
  199HOH     H2  784   0.122   3.987   1.946
  200HOH      O  785   0.390   2.481   3.648
  200HOH     H1  786   0.337   2.442   3.718
  200HOH     H2  787   0.352   2.567   3.633
  201HOH      O  788   0.808   3.897   2.299
  201HOH     H1  789   0.816   3.837   2.374
  201HOH     H2  790   0.746   3.964   2.329
  202HOH      O  791   2.386   1.096   1.478
  202HOH     H1  792   2.291   1.103   1.487
  202HOH     H2  793   2.399   1.034   1.407
  203HOH      O  794   1.592   1.809   0.621
  203HOH     H1  795   1.548   1.855   0.693
  203HOH     H2  796   1.605   1.720   0.654
  204HOH      O  797   3.364   3.195   0.556
  204HOH     H1  798   3.333   3.260   0.619
  204HOH     H2  799   3.406   3.128   0.609
  205HOH      O  800   3.837   1.612   0.244
  205HOH     H1  801   3.863   1.704   0.247
  205HOH     H2  802   3.918   1.565   0.223
  206HOH      O  803   1.601   0.051   2.970
  206HOH     H1  804   1.586   0.001   2.890
  206HOH     H2  805   1.679   0.010   3.009
  207HOH      O  806   2.996   1.537   1.173
  207HOH     H1  807   2.947   1.577   1.244
  207HOH     H2  808   3.058   1.479   1.216
  208HOH      O  809   0.938   3.572   3.077
  208HOH     H1  810   0.923   3.478   3.066
  208HOH     H2  811   0.854   3.606   3.108
  209HOH      O  812   0.933   2.842   1.479
  209HOH     H1  813   0.929   2.774   1.547
  209HOH     H2  814   0.899   2.921   1.522
  210HOH      O  815   1.240   0.525   0.504
  210HOH     H1  816   1.196   0.441   0.516
  210HOH     H2  817   1.172   0.591   0.520
  211HOH      O  818   1.316   3.727   1.830
  211HOH     H1  819   1.290   3.819   1.830
  211HOH     H2  820   1.285   3.693   1.746
  212HOH      O  821   1.112   1.608   0.349
  212HOH     H1  822   1.097   1.614   0.443
  212HOH     H2  823   1.025   1.623   0.310
  213HOH      O  824   2.049   0.576   3.164
  213HOH     H1  825   2.024   0.661   3.128
  213HOH     H2  826   1.966   0.529   3.174
  214HOH      O  827   3.751   1.625   1.576
  214HOH     H1  828   3.796   1.648   1.657
  214HOH     H2  829   3.723   1.534   1.589
  215HOH      O  830   1.659   3.920   1.448
  215HOH     H1  831   1.679   4.002   1.493
  215HOH     H2  832   1.736   3.901   1.395
  216HOH      O  833   2.361   3.320   2.532
  216HOH     H1  834   2.318   3.243   2.495
  216HOH     H2  835   2.289   3.377   2.560
  217HOH      O  836   3.524   2.000   2.388
  217HOH     H1  837   3.516   1.999   2.483
  217HOH     H2  838   3.451   1.947   2.358
  218HOH      O  839   2.357   0.031   2.908
  218HOH     H1  840   2.367   0.099   2.975
  218HOH     H2  841   2.279  -0.017   2.934
  219HOH      O  842   3.858   0.569   0.079
  219HOH     H1  843   3.850   0.474   0.077
  219HOH     H2  844   3.936   0.588   0.027
  220HOH      O  845   2.418   2.096   0.080
  220HOH     H1  846   2.499   2.137   0.049
  220HOH     H2  847   2.393   2.148   0.157
  221HOH      O  848   3.881   1.172   0.268
  221HOH     H1  849   3.788   1.163   0.248
  221HOH     H2  850   3.922   1.200   0.186
  222HOH      O  851   2.770   0.579   0.959
  222HOH     H1  852   2.827   0.595   1.034
  222HOH     H2  853   2.724   0.662   0.946
  223HOH      O  854   1.868   2.109   0.422
  223HOH     H1  855   1.937   2.073   0.367
  223HOH     H2  856   1.857   2.200   0.392
  224HOH      O  857   3.038   0.365   1.059
  224HOH     H1  858   3.055   0.374   0.965
  224HOH     H2  859   2.972   0.296   1.065
  225HOH      O  860   0.309   0.363   2.643
  225HOH     H1  861   0.293   0.299   2.712
  225HOH     H2  862   0.239   0.428   2.654
  226HOH      O  863   1.466   2.254   0.204
  226HOH     H1  864   1.437   2.170   0.168
  226HOH     H2  865   1.390   2.287   0.251
  227HOH      O  866   2.428   1.438   3.347
  227HOH     H1  867   2.505   1.493   3.359
  227HOH     H2  868   2.404   1.409   3.435
  228HOH      O  869   1.872   0.527   2.432
  228HOH     H1  870   1.950   0.518   2.377
  228HOH     H2  871   1.898   0.492   2.517
  229HOH      O  872   1.142   3.883   0.961
  229HOH     H1  873   1.179   3.853   0.878
  229HOH     H2  874   1.199   3.956   0.988
  230HOH      O  875   0.815   0.367   1.141
  230HOH     H1  876   0.899   0.404   1.168
  230HOH     H2  877   0.834   0.276   1.120
  231HOH      O  878   3.731   0.758   0.940
  231HOH     H1  879   3.698   0.725   1.024
  231HOH     H2  880   3.751   0.679   0.890
  232HOH      O  881   3.743   2.381   3.941
  232HOH     H1  882   3.700   2.339   4.016
  232HOH     H2  883   3.835   2.388   3.967
  233HOH      O  884   2.609   0.718   2.707
  233HOH     H1  885   2.657   0.669   2.774
  233HOH     H2  886   2.620   0.810   2.732
  234HOH      O  887   0.006   2.813   1.218
  234HOH     H1  888   0.045   2.879   1.277
  234HOH     H2  889   0.066   2.810   1.143
  235HOH      O  890   0.617   1.747   3.563
  235HOH     H1  891   0.711   1.754   3.578
  235HOH     H2  892   0.610   1.704   3.477
  236HOH      O  893   1.771   3.333   2.485
  236HOH     H1  894   1.695   3.307   2.433
  236HOH     H2  895   1.836   3.360   2.421
  237HOH      O  896   0.323   1.062   3.515
  237HOH     H1  897   0.398   1.075   3.574
  237HOH     H2  898   0.360   1.073   3.428
  238HOH      O  899   2.119   2.054   4.025
  238HOH     H1  900   2.178   1.980   4.008
  238HOH     H2  901   2.159   2.128   3.979
  239HOH      O  902   0.172   0.460   3.442
  239HOH     H1  903   0.206   0.545   3.414
  239HOH     H2  904   0.181   0.404   3.365
  240HOH      O  905   1.969   2.864   1.055
  240HOH     H1  906   1.926   2.836   0.975
  240HOH     H2  907   1.994   2.955   1.038
  241HOH      O  908   3.323   3.728   0.480
  241HOH     H1  909   3.390   3.786   0.444
  241HOH     H2  910   3.305   3.763   0.567
  242HOH      O  911   0.254   3.151   2.863
  242HOH     H1  912   0.165   3.129   2.839
  242HOH     H2  913   0.302   3.069   2.857
  243HOH      O  914   2.831   1.891   2.407
  243HOH     H1  915   2.861   1.982   2.405
  243HOH     H2  916   2.887   1.849   2.472
  244HOH      O  917   2.325   1.885   3.968
  244HOH     H1  918   2.355   1.969   4.005
  244HOH     H2  919   2.397   1.857   3.912
  245HOH      O  920   3.547   2.913   0.113
  245HOH     H1  921   3.629   2.925   0.065
  245HOH     H2  922   3.545   2.985   0.176
  246HOH      O  923   2.719   2.501   1.079
  246HOH     H1  924   2.779   2.427   1.093
  246HOH     H2  925   2.641   2.477   1.128
  247HOH      O  926   1.548   1.803   3.325
  247HOH     H1  927   1.530   1.806   3.419
  247HOH     H2  928   1.462   1.808   3.284
  248HOH      O  929   2.466   0.365   2.552
  248HOH     H1  930   2.474   0.383   2.645
  248HOH     H2  931   2.545   0.404   2.513
  249HOH      O  932   2.686   0.753   1.845
  249HOH     H1  933   2.759   0.784   1.791
  249HOH     H2  934   2.608   0.778   1.796
  250HOH      O  935   3.556   1.722   3.727
  250HOH     H1  936   3.572   1.726   3.633
  250HOH     H2  937   3.479   1.666   3.736
  251HOH      O  938   2.420   0.190   3.128
  251HOH     H1  939   2.330   0.191   3.161
  251HOH     H2  940   2.440   0.282   3.112
  252HOH      O  941   1.664   1.454   2.014
  252HOH     H1  942   1.742   1.472   2.067
  252HOH     H2  943   1.593   1.499   2.060
  253HOH      O  944   0.190   2.997   2.135
  253HOH     H1  945   0.207   3.065   2.200
  253HOH     H2  946   0.096   2.981   2.141
  254HOH      O  947   3.283   3.423   1.085
  254HOH     H1  948   3.213   3.389   1.029
  254HOH     H2  949   3.247   3.421   1.173
  255HOH      O  950   2.868   3.557   1.289
  255HOH     H1  951   2.814   3.634   1.270
  255HOH     H2  952   2.888   3.565   1.383
  256HOH      O  953   2.849   1.665   3.761
  256HOH     H1  954   2.835   1.751   3.723
  256HOH     H2  955   2.869   1.683   3.853
  257HOH      O  956   1.634   3.356   0.877
  257HOH     H1  957   1.641   3.318   0.964
  257HOH     H2  958   1.724   3.360   0.845
  258HOH      O  959   0.151   3.320   3.502
  258HOH     H1  960   0.236   3.356   3.527
  258HOH     H2  961   0.119   3.380   3.435
  259HOH      O  962   1.677   1.670   1.052
  259HOH     H1  963   1.764   1.646   1.083
  259HOH     H2  964   1.675   1.766   1.055
  260HOH      O  965   1.932   3.712   0.700
  260HOH     H1  966   1.878   3.650   0.651
  260HOH     H2  967   1.948   3.668   0.784
  261HOH      O  968   1.000   1.468   2.207
  261HOH     H1  969   0.936   1.433   2.268
  261HOH     H2  970   1.062   1.397   2.193
  262HOH      O  971   1.761   3.568   2.090
  262HOH     H1  972   1.788   3.619   2.013
  262HOH     H2  973   1.678   3.609   2.117
  263HOH      O  974   2.269   2.421   2.032
  263HOH     H1  975   2.242   2.335   2.000
  263HOH     H2  976   2.337   2.403   2.097
  264HOH      O  977  -0.020   1.296   0.692
  264HOH     H1  978  -0.022   1.389   0.713
  264HOH     H2  979   0.072   1.271   0.705
  265HOH      O  980   0.012   3.481   1.532
  265HOH     H1  981   0.002   3.402   1.480
  265HOH     H2  982   0.085   3.463   1.591
  266HOH      O  983   1.207   0.227   1.808
  266HOH     H1  984   1.152   0.272   1.873
  266HOH     H2  985   1.145   0.196   1.742
  267HOH      O  986   3.263   2.896   0.430
  267HOH     H1  987   3.244   2.916   0.521
  267HOH     H2  988   3.304   2.975   0.396
  268HOH      O  989   2.229   0.089   1.207
  268HOH     H1  990   2.149   0.128   1.171
  268HOH     H2  991   2.230   0.000   1.171
  269HOH      O  992   1.085   1.228   2.624
  269HOH     H1  993   1.115   1.318   2.611
  269HOH     H2  994   1.158   1.184   2.668
  270HOH      O  995   1.644   0.527   2.618
  270HOH     H1  996   1.698   0.584   2.563
  270HOH     H2  997   1.705   0.460   2.650
  271HOH      O  998   2.339   0.348   3.599
  271HOH     H1  999   2.328   0.387   3.686
  271HOH     H2 1000   2.402   0.278   3.611
  272HOH      O 1001   3.639   0.598   1.512
  272HOH     H1 1002   3.617   0.602   1.419
  272HOH     H2 1003   3.593   0.672   1.550
  273HOH      O 1004   0.776   0.898   1.617
  273HOH     H1 1005   0.722   0.958   1.668
  273HOH     H2 1006   0.858   0.892   1.666
  274HOH      O 1007   3.623   1.501   0.724
  274HOH     H1 1008   3.680   1.440   0.677
  274HOH     H2 1009   3.553   1.522   0.662
  275HOH      O 1010   3.439   2.708   0.306
  275HOH     H1 1011   3.376   2.769   0.345
  275HOH     H2 1012   3.465   2.750   0.224
  276HOH      O 1013   3.961   1.193   4.038
  276HOH     H1 1014   3.998   1.202   3.950
  276HOH     H2 1015   3.953   1.099   4.052
  277HOH      O 1016   1.730   0.431   0.332
  277HOH     H1 1017   1.703   0.355   0.279
  277HOH     H2 1018   1.652   0.455   0.382
  278HOH      O 1019   3.708   0.554   3.809
  278HOH     H1 1020   3.792   0.507   3.818
  278HOH     H2 1021   3.718   0.631   3.864
  279HOH      O 1022   1.988   3.319   0.350
  279HOH     H1 1023   1.951   3.246   0.399
  279HOH     H2 1024   2.079   3.324   0.380
  280HOH      O 1025   3.819   3.615   3.438
  280HOH     H1 1026   3.782   3.617   3.526
  280HOH     H2 1027   3.829   3.522   3.418
  281HOH      O 1028   1.618  -0.000   2.515
  281HOH     H1 1029   1.665  -0.039   2.589
  281HOH     H2 1030   1.550   0.054   2.556
  282HOH      O 1031   1.259   0.591   3.554
  282HOH     H1 1032   1.266   0.681   3.524
  282HOH     H2 1033   1.346   0.554   3.542
  283HOH      O 1034   1.027   1.274   1.224
  283HOH     H1 1035   0.993   1.297   1.138
  283HOH     H2 1036   1.017   1.354   1.276
  284HOH      O 1037   1.637   1.392   3.011
  284HOH     H1 1038   1.691   1.470   2.999
  284HOH     H2 1039   1.695   1.319   2.989
  285HOH      O 1040   0.741   0.919   0.220
  285HOH     H1 1041   0.786   0.835   0.232
  285HOH     H2 1042   0.673   0.920   0.288
  286HOH      O 1043   1.852   2.495   3.021
  286HOH     H1 1044   1.765   2.491   3.060
  286HOH     H2 1045   1.884   2.583   3.043
  287HOH      O 1046   3.412   1.735   3.450
  287HOH     H1 1047   3.344   1.793   3.485
  287HOH     H2 1048   3.486   1.793   3.433
  288HOH      O 1049   0.130   2.356   1.724
  288HOH     H1 1050   0.177   2.425   1.770
  288HOH     H2 1051   0.198   2.306   1.680
  289HOH      O 1052   0.769   1.212   3.215
  289HOH     H1 1053   0.805   1.208   3.304
  289HOH     H2 1054   0.805   1.135   3.171
  290HOH      O 1055   0.414   2.149   2.892
  290HOH     H1 1056   0.494   2.125   2.847
  290HOH     H2 1057   0.421   2.244   2.905
  291HOH      O 1058   1.349   0.385   1.397
  291HOH     H1 1059   1.416   0.382   1.465
  291HOH     H2 1060   1.274   0.428   1.438
  292HOH      O 1061   2.444   1.769   0.551
  292HOH     H1 1062   2.533   1.788   0.523
  292HOH     H2 1063   2.406   1.720   0.479
  293HOH      O 1064   0.029   3.539   0.090
  293HOH     H1 1065   0.051   3.631   0.101
  293HOH     H2 1066   0.051   3.499   0.175
  294HOH      O 1067   1.749   2.365   0.343
  294HOH     H1 1068   1.705   2.394   0.263
  294HOH     H2 1069   1.682   2.372   0.411
  295HOH      O 1070   1.575   1.335   1.789
  295HOH     H1 1071   1.522   1.404   1.749
  295HOH     H2 1072   1.606   1.372   1.871
  296HOH      O 1073   0.324   1.590   3.665
  296HOH     H1 1074   0.236   1.624   3.646
  296HOH     H2 1075   0.317   1.496   3.651
  297HOH      O 1076   0.807   1.841   0.958
  297HOH     H1 1077   0.718   1.869   0.977
  297HOH     H2 1078   0.860   1.920   0.967
  298HOH      O 1079   1.225   3.886   1.298
  298HOH     H1 1080   1.224   3.881   1.203
  298HOH     H2 1081   1.135   3.867   1.325
  299HOH      O 1082   2.616   0.648   0.230
  299HOH     H1 1083   2.702   0.681   0.205
  299HOH     H2 1084   2.623   0.627   0.323
  300HOH      O 1085   2.538   1.258   2.471
  300HOH     H1 1086   2.460   1.204   2.474
  300HOH     H2 1087   2.607   1.198   2.442
  301HOH      O 1088   1.719   3.771   0.302
  301HOH     H1 1089   1.731   3.841   0.367
  301HOH     H2 1090   1.786   3.706   0.325
  302HOH      O 1091   2.813   0.160   0.786
  302HOH     H1 1092   2.752   0.140   0.857
  302HOH     H2 1093   2.899   0.155   0.827
  303HOH      O 1094   3.205   2.437   0.674
  303HOH     H1 1095   3.261   2.395   0.609
  303HOH     H2 1096   3.267   2.481   0.733
  304HOH      O 1097   1.769   0.980   0.471
  304HOH     H1 1098   1.813   0.910   0.422
  304HOH     H2 1099   1.678   0.949   0.479
  305HOH      O 1100   1.513   0.507   3.624
  305HOH     H1 1101   1.595   0.474   3.586
  305HOH     H2 1102   1.541   0.575   3.685
  306HOH      O 1103   0.680   0.261   2.135
  306HOH     H1 1104   0.587   0.247   2.153
  306HOH     H2 1105   0.681   0.307   2.050
  307HOH      O 1106   1.508   1.974   0.411
  307HOH     H1 1107   1.455   1.912   0.361
  307HOH     H2 1108   1.571   1.920   0.458
  308HOH      O 1109   2.877   2.202   2.426
  308HOH     H1 1110   2.962   2.159   2.435
  308HOH     H2 1111   2.893   2.275   2.367
  309HOH      O 1112   1.513   3.485   3.775
  309HOH     H1 1113   1.537   3.393   3.780
  309HOH     H2 1114   1.551   3.523   3.855
  310HOH      O 1115   0.490   2.089   1.284
  310HOH     H1 1116   0.496   2.084   1.379
  310HOH     H2 1117   0.407   2.047   1.262
  311HOH      O 1118   0.284   2.609   0.869
  311HOH     H1 1119   0.332   2.535   0.906
  311HOH     H2 1120   0.351   2.674   0.849
  312HOH      O 1121   1.890   3.309   3.651
  312HOH     H1 1122   1.820   3.291   3.589
  312HOH     H2 1123   1.871   3.252   3.726
  313HOH      O 1124   1.757   1.999   3.350
  313HOH     H1 1125   1.726   2.055   3.422
  313HOH     H2 1126   1.682   1.944   3.329
  314HOH      O 1127   1.843  -0.008   3.057
  314HOH     H1 1128   1.921  -0.055   3.086
  314HOH     H2 1129   1.850   0.079   3.097
  315HOH      O 1130   3.201   0.312   0.835
  315HOH     H1 1131   3.206   0.350   0.747
  315HOH     H2 1132   3.179   0.220   0.820
  316HOH      O 1133   2.873   1.818   3.256
  316HOH     H1 1134   2.805   1.751   3.246
  316HOH     H2 1135   2.859   1.878   3.182
  317HOH      O 1136   1.060   3.008   0.646
  317HOH     H1 1137   1.128   2.971   0.590
  317HOH     H2 1138   0.986   3.024   0.586
  318HOH      O 1139   0.758   1.565   0.507
  318HOH     H1 1140   0.832   1.584   0.565
  318HOH     H2 1141   0.758   1.469   0.499
  319HOH      O 1142   2.522   3.251   2.314
  319HOH     H1 1143   2.458   3.187   2.281
  319HOH     H2 1144   2.472   3.302   2.378
  320HOH      O 1145   1.141   2.756   1.974
  320HOH     H1 1146   1.071   2.708   2.018
  320HOH     H2 1147   1.155   2.707   1.892
  321HOH      O 1148   1.996   0.815   0.137
  321HOH     H1 1149   1.958   0.903   0.132
  321HOH     H2 1150   1.932   0.764   0.185
  322HOH      O 1151   2.043   0.691   2.107
  322HOH     H1 1152   2.060   0.631   2.179
  322HOH     H2 1153   2.085   0.651   2.031
  323HOH      O 1154   1.406   0.931   0.997
  323HOH     H1 1155   1.489   0.885   0.993
  323HOH     H2 1156   1.415   1.004   0.936
  324HOH      O 1157   0.363   1.899   3.789
  324HOH     H1 1158   0.348   1.931   3.700
  324HOH     H2 1159   0.333   1.970   3.846
  325HOH      O 1160   0.418   0.375   1.288
  325HOH     H1 1161   0.326   0.394   1.309
  325HOH     H2 1162   0.468   0.445   1.328
  326HOH      O 1163   0.933   2.879   1.009
  326HOH     H1 1164   1.004   2.911   1.064
  326HOH     H2 1165   0.877   2.830   1.069
  327HOH      O 1166   1.840   2.747   2.436
  327HOH     H1 1167   1.855   2.654   2.448
  327HOH     H2 1168   1.747   2.760   2.457
  328HOH      O 1169   1.032   3.042   1.964
  328HOH     H1 1170   1.047   2.949   1.981
  328HOH     H2 1171   1.047   3.085   2.048
  329HOH      O 1172   2.687   2.902   3.349
  329HOH     H1 1173   2.702   2.861   3.264
  329HOH     H2 1174   2.767   2.883   3.399
  330HOH      O 1175   3.902   3.602   3.135
  330HOH     H1 1176   3.921   3.692   3.159
  330HOH     H2 1177   3.806   3.597   3.134
  331HOH      O 1178   2.601   3.502   3.191
  331HOH     H1 1179   2.644   3.439   3.133
  331HOH     H2 1180   2.619   3.587   3.152
  332HOH      O 1181   3.875   1.341   3.689
  332HOH     H1 1182   3.832   1.296   3.762
  332HOH     H2 1183   3.967   1.344   3.713
  333HOH      O 1184   1.339   2.008   1.705
  333HOH     H1 1185   1.272   2.030   1.640
  333HOH     H2 1186   1.406   1.960   1.656
  334HOH      O 1187   2.597   2.797   1.686
  334HOH     H1 1188   2.611   2.858   1.613
  334HOH     H2 1189   2.672   2.812   1.744
  335HOH      O 1190   0.188   3.582   1.043
  335HOH     H1 1191   0.094   3.579   1.062
  335HOH     H2 1192   0.214   3.490   1.035
  336HOH      O 1193   3.181   3.468   3.382
  336HOH     H1 1194   3.101   3.488   3.335
  336HOH     H2 1195   3.176   3.519   3.463
  337HOH      O 1196   0.796   3.892   3.065
  337HOH     H1 1197   0.775   3.823   3.127
  337HOH     H2 1198   0.810   3.847   2.982
  338HOH      O 1199   2.232   3.585   0.043
  338HOH     H1 1200   2.147   3.568   0.085
  338HOH     H2 1201   2.209   3.615  -0.045
  339HOH      O 1202   2.391   2.730   0.251
  339HOH     H1 1203   2.367   2.817   0.283
  339HOH     H2 1204   2.379   2.735   0.156
  340HOH      O 1205   2.452   1.431   0.605
  340HOH     H1 1206   2.491   1.355   0.648
  340HOH     H2 1207   2.524   1.472   0.558
  341HOH      O 1208   3.548   3.693   2.534
  341HOH     H1 1209   3.520   3.743   2.457
  341HOH     H2 1210   3.624   3.741   2.566
  342HOH      O 1211   0.598   1.301   2.645
  342HOH     H1 1212   0.568   1.326   2.732
  342HOH     H2 1213   0.589   1.381   2.593
  343HOH      O 1214   3.528   1.319   2.500
  343HOH     H1 1215   3.520   1.402   2.455
  343HOH     H2 1216   3.455   1.317   2.562
  344HOH      O 1217   0.562   1.500   2.416
  344HOH     H1 1218   0.541   1.579   2.467
  344HOH     H2 1219   0.546   1.525   2.325
  345HOH      O 1220   1.775   2.793   1.849
  345HOH     H1 1221   1.720   2.748   1.784
  345HOH     H2 1222   1.712   2.836   1.907
  346HOH      O 1223   2.101   2.175   1.167
  346HOH     H1 1224   2.122   2.125   1.088
  346HOH     H2 1225   2.185   2.185   1.212
  347HOH      O 1226   0.975   0.023   3.979
  347HOH     H1 1227   0.955   0.113   3.956
  347HOH     H2 1228   1.058   0.005   3.934
  348HOH      O 1229   1.134   2.254   3.204
  348HOH     H1 1230   1.136   2.347   3.181
  348HOH     H2 1231   1.101   2.253   3.294
  349HOH      O 1232   1.688   3.690   3.287
  349HOH     H1 1233   1.661   3.767   3.338
  349HOH     H2 1234   1.764   3.656   3.334
  350HOH      O 1235   3.984   0.406   3.595
  350HOH     H1 1236   3.918   0.391   3.527
  350HOH     H2 1237   4.054   0.454   3.550
  351HOH      O 1238   3.262   2.665   2.335
  351HOH     H1 1239   3.190   2.604   2.353
  351HOH     H2 1240   3.242   2.700   2.248
  352HOH      O 1241   3.743   2.214   1.306
  352HOH     H1 1242   3.655   2.235   1.338
  352HOH     H2 1243   3.801   2.238   1.378
  353HOH      O 1244   3.069   2.765   0.271
  353HOH     H1 1245   3.105   2.777   0.184
  353HOH     H2 1246   3.133   2.806   0.329
  354HOH      O 1247   2.963   2.853   2.262
  354HOH     H1 1248   2.998   2.941   2.272
  354HOH     H2 1249   3.028   2.806   2.210
  355HOH      O 1250   3.373   3.715   4.048
  355HOH     H1 1251   3.465   3.733   4.070
  355HOH     H2 1252   3.376   3.682   3.959
  356HOH      O 1253   0.514   3.873   2.036
  356HOH     H1 1254   0.572   3.935   1.992
  356HOH     H2 1255   0.440   3.926   2.065
  357HOH      O 1256   1.638   3.293   1.866
  357HOH     H1 1257   1.684   3.216   1.833
  357HOH     H2 1258   1.705   3.362   1.867
  358HOH      O 1259   1.388   0.752   1.763
  358HOH     H1 1260   1.423   0.774   1.850
  358HOH     H2 1261   1.420   0.663   1.747
  359HOH      O 1262   1.457   3.886   3.939
  359HOH     H1 1263   1.470   3.893   4.033
  359HOH     H2 1264   1.363   3.898   3.926
  360HOH      O 1265   3.749   3.754   1.198
  360HOH     H1 1266   3.750   3.718   1.287
  360HOH     H2 1267   3.657   3.775   1.182
  361HOH      O 1268   1.753   3.309   0.184
  361HOH     H1 1269   1.733   3.231   0.133
  361HOH     H2 1270   1.833   3.287   0.231
  362HOH      O 1271   2.936   1.502   0.632
  362HOH     H1 1272   2.916   1.408   0.636
  362HOH     H2 1273   2.974   1.522   0.717
  363HOH      O 1274   0.256   1.110   1.266
  363HOH     H1 1275   0.213   1.195   1.268
  363HOH     H2 1276   0.259   1.082   1.357
  364HOH      O 1277   0.938   0.349   1.895
  364HOH     H1 1278   0.975   0.396   1.820
  364HOH     H2 1279   0.846   0.339   1.873
  365HOH      O 1280   0.740   1.925   0.074
  365HOH     H1 1281   0.646   1.928   0.091
  365HOH     H2 1282   0.747   1.898  -0.018
  366HOH      O 1283   3.619   1.177   1.115
  366HOH     H1 1284   3.677   1.182   1.040
  366HOH     H2 1285   3.575   1.093   1.106
  367HOH      O 1286   2.661   3.239   1.393
  367HOH     H1 1287   2.585   3.283   1.430
  367HOH     H2 1288   2.685   3.292   1.316
  368HOH      O 1289   3.254   1.131   2.767
  368HOH     H1 1290   3.319   1.064   2.744
  368HOH     H2 1291   3.174   1.104   2.723
  369HOH      O 1292   0.292   4.000   3.192
  369HOH     H1 1293   0.355   3.955   3.136
  369HOH     H2 1294   0.318   4.092   3.188
  370HOH      O 1295   0.434   2.264   3.975
  370HOH     H1 1296   0.440   2.360   3.973
  370HOH     H2 1297   0.348   2.245   3.937
  371HOH      O 1298   0.772   0.673   1.933
  371HOH     H1 1299   0.861   0.708   1.933
  371HOH     H2 1300   0.782   0.580   1.952
  372HOH      O 1301   1.007   1.333   3.860
  372HOH     H1 1302   1.061   1.404   3.894
  372HOH     H2 1303   1.069   1.275   3.814
  373HOH      O 1304   0.131   3.678   2.145
  373HOH     H1 1305   0.153   3.755   2.092
  373HOH     H2 1306   0.205   3.619   2.133
  374HOH      O 1307   2.032   0.493   2.812
  374HOH     H1 1308   1.958   0.441   2.780
  374HOH     H2 1309   2.008   0.584   2.793
  375HOH      O 1310   3.302   2.454   2.867
  375HOH     H1 1311   3.345   2.502   2.796
  375HOH     H2 1312   3.366   2.387   2.892
  376HOH      O 1313   2.999   2.181   0.302
  376HOH     H1 1314   2.994   2.127   0.380
  376HOH     H2 1315   3.093   2.189   0.284
  377HOH      O 1316   1.107   3.657   2.411
  377HOH     H1 1317   1.154   3.715   2.351
  377HOH     H2 1318   1.024   3.703   2.429
  378HOH      O 1319   1.056   2.264   1.988
  378HOH     H1 1320   0.988   2.227   1.931
  378HOH     H2 1321   1.011   2.284   2.070
  379HOH      O 1322   1.768   0.728   0.288
  379HOH     H1 1323   1.776   0.657   0.351
  379HOH     H2 1324   1.678   0.721   0.255
  380HOH      O 1325   0.469   0.461   1.950
  380HOH     H1 1326   0.413   0.484   2.024
  380HOH     H2 1327   0.469   0.540   1.895
  381HOH      O 1328   0.817   1.425   2.941
  381HOH     H1 1329   0.732   1.470   2.948
  381HOH     H2 1330   0.842   1.435   2.849
  382HOH      O 1331   1.484   1.060   0.345
  382HOH     H1 1332   1.399   1.048   0.388
  382HOH     H2 1333   1.535   1.110   0.408
  383HOH      O 1334   2.610   2.037   3.450
  383HOH     H1 1335   2.526   2.081   3.437
  383HOH     H2 1336   2.664   2.068   3.378
  384HOH      O 1337   3.167   3.267   3.654
  384HOH     H1 1338   3.215   3.224   3.725
  384HOH     H2 1339   3.118   3.337   3.698
  385HOH      O 1340   1.081   0.408   0.047
  385HOH     H1 1341   1.124   0.342   0.101
  385HOH     H2 1342   1.145   0.428  -0.021
  386HOH      O 1343   0.659   1.517   0.932
  386HOH     H1 1344   0.655   1.424   0.956
  386HOH     H2 1345   0.602   1.561   0.995
  387HOH      O 1346   0.433   2.720   3.874
  387HOH     H1 1347   0.511   2.666   3.864
  387HOH     H2 1348   0.466   2.809   3.883
  388HOH      O 1349   2.013   1.186  -0.007
  388HOH     H1 1350   2.075   1.195   0.065
  388HOH     H2 1351   2.039   1.105  -0.051
  389HOH      O 1352   2.700   3.584   0.836
  389HOH     H1 1353   2.756   3.528   0.783
  389HOH     H2 1354   2.753   3.663   0.852
  390HOH      O 1355   1.215   3.715   0.779
  390HOH     H1 1356   1.135   3.698   0.730
  390HOH     H2 1357   1.272   3.759   0.717
  391HOH      O 1358   0.365   0.377   3.773
  391HOH     H1 1359   0.440   0.341   3.727
  391HOH     H2 1360   0.368   0.471   3.756
  392HOH      O 1361   1.588   3.608   4.033
  392HOH     H1 1362   1.561   3.686   3.986
  392HOH     H2 1363   1.679   3.594   4.007
  393HOH      O 1364   1.845   1.772   2.046
  393HOH     H1 1365   1.873   1.685   2.077
  393HOH     H2 1366   1.802   1.812   2.122
  394HOH      O 1367   0.268   3.385   2.964
  394HOH     H1 1368   0.236   3.366   3.052
  394HOH     H2 1369   0.270   3.300   2.920
  395HOH      O 1370   3.635   1.935   1.186
  395HOH     H1 1371   3.681   2.014   1.216
  395HOH     H2 1372   3.543   1.952   1.203
  396HOH      O 1373   1.095   3.448   1.974
  396HOH     H1 1374   1.069   3.482   1.888
  396HOH     H2 1375   1.177   3.402   1.959
  397HOH      O 1376   1.359   2.736   2.138
  397HOH     H1 1377   1.329   2.698   2.221
  397HOH     H2 1378   1.281   2.736   2.083
  398HOH      O 1379   0.324   2.403   2.067
  398HOH     H1 1380   0.229   2.399   2.064
  398HOH     H2 1381   0.351   2.311   2.056
  399HOH      O 1382   2.315   3.892   2.389
  399HOH     H1 1383   2.258   3.961   2.355
  399HOH     H2 1384   2.396   3.937   2.411
  400HOH      O 1385   3.418   0.470   0.897
  400HOH     H1 1386   3.347   0.413   0.867
  400HOH     H2 1387   3.449   0.429   0.978
  401HOH      O 1388   1.913   0.179   1.094
  401HOH     H1 1389   1.872   0.143   1.015
  401HOH     H2 1390   1.961   0.256   1.063
  402HOH      O 1391   2.405   0.829   2.853
  402HOH     H1 1392   2.462   0.885   2.800
  402HOH     H2 1393   2.462   0.759   2.884
  403HOH      O 1394   2.268   0.246   1.642
  403HOH     H1 1395   2.301   0.244   1.552
  403HOH     H2 1396   2.333   0.297   1.690
  404HOH      O 1397   1.778   3.592   3.022
  404HOH     H1 1398   1.702   3.547   2.985
  404HOH     H2 1399   1.745   3.628   3.105
  405HOH      O 1400   0.803   0.018   1.176
  405HOH     H1 1401   0.790   0.029   1.082
  405HOH     H2 1402   0.738   0.075   1.216
  406HOH      O 1403   3.992   3.421   2.947
  406HOH     H1 1404   3.943   3.479   3.006
  406HOH     H2 1405   3.974   3.333   2.979
  407HOH      O 1406   1.108   1.812   2.984
  407HOH     H1 1407   1.157   1.775   2.911
  407HOH     H2 1408   1.151   1.896   3.001
  408HOH      O 1409   3.799   2.467   1.007
  408HOH     H1 1410   3.855   2.465   0.930
  408HOH     H2 1411   3.838   2.533   1.064
  409HOH      O 1412   0.231   0.065   2.270
  409HOH     H1 1413   0.182  -0.016   2.253
  409HOH     H2 1414   0.286   0.044   2.345
  410HOH      O 1415   1.566   2.853   2.424
  410HOH     H1 1416   1.506   2.827   2.494
  410HOH     H2 1417   1.508   2.886   2.355
  411HOH      O 1418   3.777   1.573   0.940
  411HOH     H1 1419   3.724   1.550   0.863
  411HOH     H2 1420   3.859   1.604   0.903
  412HOH      O 1421   0.205   1.116   0.633
  412HOH     H1 1422   0.274   1.115   0.566
  412HOH     H2 1423   0.147   1.044   0.608
  413HOH      O 1424   1.975   3.981   0.675
  413HOH     H1 1425   2.032   4.033   0.732
  413HOH     H2 1426   1.981   3.892   0.710
  414HOH      O 1427   3.454   0.876   0.262
  414HOH     H1 1428   3.530   0.827   0.292
  414HOH     H2 1429   3.420   0.917   0.341
  415HOH      O 1430   1.031   3.614   1.748
  415HOH     H1 1431   1.054   3.665   1.671
  415HOH     H2 1432   0.935   3.605   1.742
  416HOH      O 1433   1.929   3.282   2.692
  416HOH     H1 1434   1.869   3.290   2.618
  416HOH     H2 1435   1.933   3.370   2.729
  417HOH      O 1436   3.945   3.563   1.086
  417HOH     H1 1437   3.933   3.479   1.129
  417HOH     H2 1438   3.898   3.626   1.142
  418HOH      O 1439   1.817   2.922   3.548
  418HOH     H1 1440   1.756   2.879   3.608
  418HOH     H2 1441   1.904   2.905   3.585
  419HOH      O 1442   3.094   0.680   0.412
  419HOH     H1 1443   3.056   0.679   0.500
  419HOH     H2 1444   3.059   0.601   0.370
  420HOH      O 1445   1.920   1.389   3.271
  420HOH     H1 1446   1.993   1.424   3.322
  420HOH     H2 1447   1.853   1.457   3.275
  421HOH      O 1448   3.569   1.767   1.425
  421HOH     H1 1449   3.644   1.718   1.459
  421HOH     H2 1450   3.597   1.798   1.340
  422HOH      O 1451   0.950   1.568   1.895
  422HOH     H1 1452   1.041   1.562   1.924
  422HOH     H2 1453   0.906   1.494   1.936
  423HOH      O 1454   1.898   1.378   3.746
  423HOH     H1 1455   1.896   1.474   3.738
  423HOH     H2 1456   1.864   1.361   3.834
  424HOH      O 1457   0.617   3.786   0.508
  424HOH     H1 1458   0.624   3.784   0.603
  424HOH     H2 1459   0.645   3.874   0.483
  425HOH      O 1460   2.361   2.799   1.433
  425HOH     H1 1461   2.456   2.787   1.431
  425HOH     H2 1462   2.339   2.833   1.346
  426HOH      O 1463   2.253   3.585   3.519
  426HOH     H1 1464   2.239   3.497   3.552
  426HOH     H2 1465   2.183   3.599   3.455
  427HOH      O 1466   3.533   2.388   3.469
  427HOH     H1 1467   3.547   2.298   3.499
  427HOH     H2 1468   3.606   2.437   3.505
  428HOH      O 1469   1.803   0.427   2.960
  428HOH     H1 1470   1.887   0.464   2.933
  428HOH     H2 1471   1.788   0.465   3.047
  429HOH      O 1472   2.587   0.106   1.757
  429HOH     H1 1473   2.558   0.060   1.678
  429HOH     H2 1474   2.548   0.056   1.829
  430HOH      O 1475   0.624   3.534   0.890
  430HOH     H1 1476   0.709   3.493   0.871
  430HOH     H2 1477   0.618   3.533   0.985
  431HOH      O 1478   0.651   0.964   2.070
  431HOH     H1 1479   0.688   1.027   2.131
  431HOH     H2 1480   0.666   0.879   2.111
  432HOH      O 1481   2.825   0.342   1.247
  432HOH     H1 1482   2.857   0.415   1.195
  432HOH     H2 1483   2.741   0.372   1.282
  433HOH      O 1484   3.768   2.698   0.772
  433HOH     H1 1485   3.854   2.720   0.736
  433HOH     H2 1486   3.722   2.657   0.699
  434HOH      O 1487   3.016   1.847   1.709
  434HOH     H1 1488   2.993   1.857   1.802
  434HOH     H2 1489   2.943   1.888   1.662
  435HOH      O 1490   2.865   3.137   0.862
  435HOH     H1 1491   2.808   3.110   0.790
  435HOH     H2 1492   2.930   3.195   0.820
  436HOH      O 1493   1.329   3.374   3.591
  436HOH     H1 1494   1.357   3.402   3.678
  436HOH     H2 1495   1.404   3.395   3.535
  437HOH      O 1496   1.573   3.046   3.940
  437HOH     H1 1497   1.645   2.988   3.914
  437HOH     H2 1498   1.562   3.029   4.034
  438HOH      O 1499   2.729   2.463   0.599
  438HOH     H1 1500   2.815   2.435   0.568
  438HOH     H2 1501   2.695   2.518   0.529
  439HOH      O 1502   3.191   1.156   3.067
  439HOH     H1 1503   3.251   1.222   3.101
  439HOH     H2 1504   3.199   1.163   2.972
  440HOH      O 1505   1.946   2.730   3.118
  440HOH     H1 1506   1.901   2.733   3.202
  440HOH     H2 1507   1.932   2.817   3.081
  441HOH      O 1508   2.926   2.235   1.820
  441HOH     H1 1509   3.005   2.181   1.822
  441HOH     H2 1510   2.936   2.289   1.741
  442HOH      O 1511   2.472   3.631   1.739
  442HOH     H1 1512   2.517   3.555   1.774
  442HOH     H2 1513   2.380   3.607   1.739
  443HOH      O 1514   1.619   0.282   1.889
  443HOH     H1 1515   1.683   0.279   1.960
  443HOH     H2 1516   1.552   0.343   1.920
  444HOH      O 1517   1.043   0.694   0.426
  444HOH     H1 1518   1.062   0.715   0.334
  444HOH     H2 1519   0.967   0.637   0.422
  445HOH      O 1520   3.913   0.881   3.074
  445HOH     H1 1521   3.838   0.826   3.098
  445HOH     H2 1522   3.947   0.914   3.157
  446HOH      O 1523   3.350   3.704   2.932
  446HOH     H1 1524   3.263   3.664   2.920
  446HOH     H2 1525   3.408   3.653   2.876
  447HOH      O 1526   1.897   1.973   3.900
  447HOH     H1 1527   1.965   2.030   3.937
  447HOH     H2 1528   1.819   2.028   3.897
  448HOH      O 1529   2.154   1.428   2.610
  448HOH     H1 1530   2.086   1.455   2.549
  448HOH     H2 1531   2.235   1.458   2.570
  449HOH      O 1532   3.370   1.642   2.924
  449HOH     H1 1533   3.398   1.626   3.014
  449HOH     H2 1534   3.434   1.705   2.890
  450HOH      O 1535   2.076   3.621   3.781
  450HOH     H1 1536   2.043   3.679   3.712
  450HOH     H2 1537   2.125   3.553   3.734
  451HOH      O 1538   2.458   2.203   2.851
  451HOH     H1 1539   2.490   2.292   2.869
  451HOH     H2 1540   2.453   2.161   2.936
  452HOH      O 1541   2.480   3.608   1.258
  452HOH     H1 1542   2.504   3.544   1.190
  452HOH     H2 1543   2.543   3.679   1.246
  453HOH      O 1544   0.220   3.275   0.087
  453HOH     H1 1545   0.311   3.280   0.113
  453HOH     H2 1546   0.210   3.340   0.017
  454HOH      O 1547   1.523   1.622   2.375
  454HOH     H1 1548   1.547   1.657   2.289
  454HOH     H2 1549   1.434   1.653   2.390
  455HOH      O 1550   0.099   2.816   3.237
  455HOH     H1 1551   0.172   2.843   3.181
  455HOH     H2 1552   0.069   2.734   3.198
  456HOH      O 1553   3.840   1.424   1.944
  456HOH     H1 1554   3.866   1.385   2.027
  456HOH     H2 1555   3.908   1.489   1.925
  457HOH      O 1556   1.392   0.718   4.043
  457HOH     H1 1557   1.305   0.695   4.011
  457HOH     H2 1558   1.452   0.673   3.984
  458HOH      O 1559   2.161   2.098   3.308
  458HOH     H1 1560   2.214   2.084   3.229
  458HOH     H2 1561   2.076   2.126   3.275
  459HOH      O 1562   0.423   3.201   2.501
  459HOH     H1 1563   0.337   3.168   2.478
  459HOH     H2 1564   0.406   3.268   2.567
  460HOH      O 1565   1.552   2.032   2.696
  460HOH     H1 1566   1.564   1.961   2.633
  460HOH     H2 1567   1.629   2.088   2.685
  461HOH      O 1568   3.342   1.567   0.369
  461HOH     H1 1569   3.333   1.619   0.449
  461HOH     H2 1570   3.430   1.530   0.375
  462HOH      O 1571   3.747   1.225   2.371
  462HOH     H1 1572   3.693   1.206   2.293
  462HOH     H2 1573   3.684   1.253   2.437
  463HOH      O 1574   1.378   3.551   0.471
  463HOH     H1 1575   1.451   3.516   0.420
  463HOH     H2 1576   1.320   3.590   0.406
  464HOH      O 1577   0.114   3.536   0.735
  464HOH     H1 1578   0.157   3.549   0.650
  464HOH     H2 1579   0.161   3.595   0.794
  465HOH      O 1580   2.473   1.159   0.764
  465HOH     H1 1581   2.412   1.085   0.760
  465HOH     H2 1582   2.500   1.161   0.856
  466HOH      O 1583   2.976   0.374   1.973
  466HOH     H1 1584   2.881   0.386   1.971
  466HOH     H2 1585   3.002   0.383   1.881
  467HOH      O 1586   2.416   3.814   0.629
  467HOH     H1 1587   2.407   3.886   0.567
  467HOH     H2 1588   2.496   3.769   0.603
  468HOH      O 1589   0.079   4.064   2.588
  468HOH     H1 1590   0.165   4.028   2.611
  468HOH     H2 1591   0.027   3.988   2.563
  469HOH      O 1592   2.691   3.778   1.270
  469HOH     H1 1593   2.707   3.872   1.268
  469HOH     H2 1594   2.670   3.759   1.362
  470HOH      O 1595   2.357   1.617   2.582
  470HOH     H1 1596   2.422   1.569   2.633
  470HOH     H2 1597   2.399   1.630   2.497
  471HOH      O 1598   0.422   3.287   1.114
  471HOH     H1 1599   0.425   3.312   1.022
  471HOH     H2 1600   0.496   3.227   1.125
  472HOH      O 1601   3.616   3.493   3.943
  472HOH     H1 1602   3.607   3.500   3.848
  472HOH     H2 1603   3.629   3.399   3.958
  473HOH      O 1604   0.052   1.656   3.708
  473HOH     H1 1605  -0.002   1.724   3.748
  473HOH     H2 1606  -0.010   1.601   3.660
  474HOH      O 1607   2.014   2.937   3.844
  474HOH     H1 1608   2.098   2.918   3.802
  474HOH     H2 1609   1.986   2.853   3.880
  475HOH      O 1610   1.383   1.492   2.072
  475HOH     H1 1611   1.314   1.549   2.037
  475HOH     H2 1612   1.373   1.500   2.167
  476HOH      O 1613   2.101   1.935   0.563
  476HOH     H1 1614   2.180   1.886   0.584
  476HOH     H2 1615   2.121   1.978   0.480
  477HOH      O 1616   3.190   3.092   1.320
  477HOH     H1 1617   3.152   3.010   1.351
  477HOH     H2 1618   3.169   3.155   1.389
  478HOH      O 1619   0.797   3.111   1.868
  478HOH     H1 1620   0.747   3.039   1.906
  478HOH     H2 1621   0.887   3.096   1.897
  479HOH      O 1622   3.499   3.135   1.292
  479HOH     H1 1623   3.419   3.187   1.298
  479HOH     H2 1624   3.490   3.069   1.360
  480HOH      O 1625   3.417   1.575   0.080
  480HOH     H1 1626   3.396   1.573   0.174
  480HOH     H2 1627   3.412   1.667   0.057
  481HOH      O 1628   1.383   0.439   1.120
  481HOH     H1 1629   1.363   0.428   1.213
  481HOH     H2 1630   1.350   0.526   1.098
  482HOH      O 1631   2.612   1.670   3.978
  482HOH     H1 1632   2.699   1.635   3.961
  482HOH     H2 1633   2.593   1.726   3.903
  483HOH      O 1634   0.271   2.582   1.792
  483HOH     H1 1635   0.286   2.624   1.877
  483HOH     H2 1636   0.267   2.654   1.730
  484HOH      O 1637   2.369   0.249   0.076
  484HOH     H1 1638   2.391   0.341   0.063
  484HOH     H2 1639   2.424   0.222   0.150
  485HOH      O 1640   3.216   0.131   0.549
  485HOH     H1 1641   3.302   0.132   0.593
  485HOH     H2 1642   3.233   0.087   0.466
  486HOH      O 1643   1.015   0.206   2.753
  486HOH     H1 1644   0.960   0.214   2.831
  486HOH     H2 1645   1.018   0.294   2.716
  487HOH      O 1646   3.788   1.242   3.112
  487HOH     H1 1647   3.879   1.223   3.091
  487HOH     H2 1648   3.743   1.244   3.028
  488HOH      O 1649   3.648   2.820   1.167
  488HOH     H1 1650   3.608   2.870   1.239
  488HOH     H2 1651   3.718   2.770   1.209
  489HOH      O 1652   3.222   2.047   3.814
  489HOH     H1 1653   3.242   2.020   3.904
  489HOH     H2 1654   3.297   2.101   3.788
  490HOH      O 1655   4.025   0.222   0.320
  490HOH     H1 1656   4.077   0.301   0.333
  490HOH     H2 1657   3.970   0.242   0.245
  491HOH      O 1658   0.234   1.403   1.036
  491HOH     H1 1659   0.238   1.426   0.943
  491HOH     H2 1660   0.142   1.380   1.051
  492HOH      O 1661   0.483   0.700   3.578
  492HOH     H1 1662   0.502   0.699   3.672
  492HOH     H2 1663   0.566   0.675   3.537
  493HOH      O 1664   2.534   3.902   2.764
  493HOH     H1 1665   2.479   3.828   2.792
  493HOH     H2 1666   2.477   3.978   2.771
  494HOH      O 1667   1.619   2.459   0.129
  494HOH     H1 1668   1.544   2.400   0.143
  494HOH     H2 1669   1.590   2.518   0.059
  495HOH      O 1670   3.062   2.484   2.651
  495HOH     H1 1671   3.141   2.468   2.704
  495HOH     H2 1672   2.999   2.420   2.683
  496HOH      O 1673  -0.022   0.980   3.298
  496HOH     H1 1674   0.073   0.979   3.292
  496HOH     H2 1675  -0.042   1.042   3.368
  497HOH      O 1676   1.702   0.757   1.363
  497HOH     H1 1677   1.609   0.743   1.345
  497HOH     H2 1678   1.745   0.677   1.332
  498HOH      O 1679   3.593   3.151   1.767
  498HOH     H1 1680   3.563   3.210   1.836
  498HOH     H2 1681   3.624   3.210   1.698
  499HOH      O 1682   0.177   0.175   1.141
  499HOH     H1 1683   0.265   0.193   1.107
  499HOH     H2 1684   0.184   0.197   1.234
  500HOH      O 1685   1.127   1.281   3.413
  500HOH     H1 1686   1.033   1.295   3.405
  500HOH     H2 1687   1.146   1.303   3.504
  501HOH      O 1688   3.644   1.519   2.081
  501HOH     H1 1689   3.655   1.614   2.077
  501HOH     H2 1690   3.718   1.485   2.030
  502HOH      O 1691   1.730   1.155   0.688
  502HOH     H1 1692   1.724   1.246   0.656
  502HOH     H2 1693   1.743   1.103   0.609
  503HOH      O 1694   3.341   1.321   1.099
  503HOH     H1 1695   3.267   1.260   1.102
  503HOH     H2 1696   3.360   1.339   1.191
  504HOH      O 1697   0.625   0.385   3.989
  504HOH     H1 1698   0.542   0.337   3.992
  504HOH     H2 1699   0.666   0.358   3.907
  505HOH      O 1700   3.537   2.471   1.390
  505HOH     H1 1701   3.497   2.484   1.476
  505HOH     H2 1702   3.590   2.550   1.376
  506HOH      O 1703   0.997   0.098   1.356
  506HOH     H1 1704   1.020   0.170   1.298
  506HOH     H2 1705   0.946   0.038   1.302
  507HOH      O 1706   1.753   3.665   2.655
  507HOH     H1 1707   1.769   3.649   2.562
  507HOH     H2 1708   1.673   3.615   2.674
  508HOH      O 1709   0.717   3.973   3.886
  508HOH     H1 1710   0.745   3.944   3.799
  508HOH     H2 1711   0.794   4.015   3.923
  509HOH      O 1712   2.293   3.044   0.082
  509HOH     H1 1713   2.297   2.957   0.043
  509HOH     H2 1714   2.275   3.027   0.175
  510HOH      O 1715   1.159   3.168   3.501
  510HOH     H1 1716   1.163   3.185   3.407
  510HOH     H2 1717   1.221   3.231   3.539
  511HOH      O 1718   0.249   3.757   1.248
  511HOH     H1 1719   0.227   3.694   1.180
  511HOH     H2 1720   0.190   3.831   1.233
  512HOH      O 1721   2.016   3.815   1.804
  512HOH     H1 1722   2.096   3.867   1.790
  512HOH     H2 1723   1.988   3.839   1.892
  513HOH      O 1724   0.693   3.673   3.204
  513HOH     H1 1725   0.615   3.618   3.197
  513HOH     H2 1726   0.700   3.693   3.297
  514HOH      O 1727   3.124   2.823   3.064
  514HOH     H1 1728   3.063   2.861   3.000
  514HOH     H2 1729   3.211   2.850   3.033
  515HOH      O 1730   3.962   3.778   1.799
  515HOH     H1 1731   3.930   3.809   1.715
  515HOH     H2 1732   3.902   3.707   1.823
  516HOH      O 1733   3.414   2.864   3.426
  516HOH     H1 1734   3.489   2.818   3.387
  516HOH     H2 1735   3.415   2.950   3.385
  517HOH      O 1736   0.310   1.386   0.771
  517HOH     H1 1737   0.363   1.377   0.692
  517HOH     H2 1738   0.307   1.297   0.807
  518HOH      O 1739   1.892   4.022   2.304
  518HOH     H1 1740   1.882   4.097   2.363
  518HOH     H2 1741   1.902   3.947   2.363
  519HOH      O 1742   2.889   1.681   1.376
  519HOH     H1 1743   2.840   1.627   1.438
  519HOH     H2 1744   2.873   1.771   1.405
  520HOH      O 1745   1.862   2.968   3.004
  520HOH     H1 1746   1.878   3.004   3.091
  520HOH     H2 1747   1.916   3.023   2.946
  521HOH      O 1748   1.338  -0.023   1.885
  521HOH     H1 1749   1.293   0.033   1.822
  521HOH     H2 1750   1.367   0.037   1.954
  522HOH      O 1751   2.441   3.395   1.461
  522HOH     H1 1752   2.393   3.405   1.543
  522HOH     H2 1753   2.447   3.484   1.425
  523HOH      O 1754   2.888   3.249   1.567
  523HOH     H1 1755   2.899   3.177   1.629
  523HOH     H2 1756   2.812   3.225   1.514
  524HOH      O 1757   3.761   0.748   2.825
  524HOH     H1 1758   3.688   0.728   2.884
  524HOH     H2 1759   3.830   0.686   2.851
  525HOH      O 1760   1.675   1.033   2.117
  525HOH     H1 1761   1.697   0.965   2.181
  525HOH     H2 1762   1.662   1.112   2.169
  526HOH      O 1763   0.684   0.685   3.375
  526HOH     H1 1764   0.747   0.675   3.303
  526HOH     H2 1765   0.647   0.773   3.362
  527HOH      O 1766   3.028   2.937   0.987
  527HOH     H1 1767   3.077   2.864   0.949
  527HOH     H2 1768   3.074   3.015   0.957
  528HOH      O 1769   1.161   0.486   2.498
  528HOH     H1 1770   1.093   0.494   2.431
  528HOH     H2 1771   1.115   0.495   2.581
  529HOH      O 1772   2.104   2.971   3.492
  529HOH     H1 1773   2.124   2.962   3.399
  529HOH     H2 1774   2.168   3.034   3.525
  530HOH      O 1775   3.036   2.578   2.992
  530HOH     H1 1776   3.051   2.655   3.046
  530HOH     H2 1777   3.123   2.554   2.959
  531HOH      O 1778   0.619   1.170   0.074
  531HOH     H1 1779   0.656   1.089   0.109
  531HOH     H2 1780   0.689   1.208   0.021
  532HOH      O 1781   0.945   2.302   3.885
  532HOH     H1 1782   0.937   2.217   3.843
  532HOH     H2 1783   0.865   2.311   3.936
  533HOH      O 1784   3.757   2.389   0.653
  533HOH     H1 1785   3.730   2.323   0.716
  533HOH     H2 1786   3.693   2.383   0.582
  534HOH      O 1787   1.239   1.599   2.466
  534HOH     H1 1788   1.150   1.577   2.495
  534HOH     H2 1789   1.239   1.695   2.460
  535HOH      O 1790   0.535   1.144   1.450
  535HOH     H1 1791   0.473   1.077   1.478
  535HOH     H2 1792   0.484   1.200   1.391
  536HOH      O 1793   1.051   1.680   0.604
  536HOH     H1 1794   1.088   1.768   0.604
  536HOH     H2 1795   0.990   1.679   0.679
  537HOH      O 1796   2.686   1.958   1.698
  537HOH     H1 1797   2.687   1.925   1.788
  537HOH     H2 1798   2.640   2.041   1.703
  538HOH      O 1799   3.545   0.625   2.974
  538HOH     H1 1800   3.538   0.623   3.070
  538HOH     H2 1801   3.458   0.653   2.945
  539HOH      O 1802   2.954   3.753   2.836
  539HOH     H1 1803   2.995   3.828   2.878
  539HOH     H2 1804   2.957   3.772   2.743
  540HOH      O 1805   3.484   2.728   3.724
  540HOH     H1 1806   3.577   2.710   3.740
  540HOH     H2 1807   3.484   2.787   3.649
  541HOH      O 1808   3.320   0.558   2.521
  541HOH     H1 1809   3.400   0.506   2.516
  541HOH     H2 1810   3.259   0.502   2.570
  542HOH      O 1811   1.556   2.073   1.877
  542HOH     H1 1812   1.473   2.074   1.829
  542HOH     H2 1813   1.570   1.981   1.899
  543HOH      O 1814   0.813   2.274   1.577
  543HOH     H1 1815   0.852   2.216   1.511
  543HOH     H2 1816   0.832   2.231   1.661
  544HOH      O 1817   1.854   2.065   1.213
  544HOH     H1 1818   1.876   2.018   1.293
  544HOH     H2 1819   1.936   2.106   1.185
  545HOH      O 1820   2.790   0.490   3.624
  545HOH     H1 1821   2.880   0.502   3.656
  545HOH     H2 1822   2.793   0.406   3.577
  546HOH      O 1823   3.309   3.828   0.746
  546HOH     H1 1824   3.304   3.783   0.831
  546HOH     H2 1825   3.366   3.903   0.761
  547HOH      O 1826   3.083   1.555   2.199
  547HOH     H1 1827   3.085   1.650   2.183
  547HOH     H2 1828   3.108   1.546   2.291
  548HOH      O 1829   3.537   3.853   3.052
  548HOH     H1 1830   3.576   3.781   3.101
  548HOH     H2 1831   3.468   3.812   3.000
  549HOH      O 1832   0.082   0.262   2.419
  549HOH     H1 1833   0.118   0.223   2.339
  549HOH     H2 1834   0.083   0.191   2.483
  550HOH      O 1835   2.748   4.000   2.926
  550HOH     H1 1836   2.835   4.016   2.888
  550HOH     H2 1837   2.693   3.978   2.851
  551HOH      O 1838   3.280   1.117   3.879
  551HOH     H1 1839   3.255   1.178   3.948
  551HOH     H2 1840   3.326   1.046   3.925
  552HOH      O 1841   0.172   0.329   3.961
  552HOH     H1 1842   0.218   0.254   3.998
  552HOH     H2 1843   0.216   0.345   3.878
  553HOH      O 1844   2.296   1.703   3.185
  553HOH     H1 1845   2.274   1.718   3.277
  553HOH     H2 1846   2.389   1.726   3.179
  554HOH      O 1847   1.641   1.849   2.499
  554HOH     H1 1848   1.578   1.780   2.482
  554HOH     H2 1849   1.711   1.834   2.435
  555HOH      O 1850   0.910   1.625   0.827
  555HOH     H1 1851   0.823   1.592   0.850
  555HOH     H2 1852   0.921   1.703   0.881
  556HOH      O 1853   2.446   1.784   2.879
  556HOH     H1 1854   2.472   1.854   2.820
  556HOH     H2 1855   2.394   1.725   2.825
  557HOH      O 1856   1.722   3.307   3.145
  557HOH     H1 1857   1.808   3.329   3.108
  557HOH     H2 1858   1.683   3.248   3.081
  558HOH      O 1859   2.145   1.705   2.745
  558HOH     H1 1860   2.216   1.662   2.696
  558HOH     H2 1861   2.132   1.788   2.699
  559HOH      O 1862   1.901   2.205   3.207
  559HOH     H1 1863   1.887   2.287   3.254
  559HOH     H2 1864   1.846   2.142   3.252
  560HOH      O 1865   3.997   0.641   3.274
  560HOH     H1 1866   4.064   0.653   3.341
  560HOH     H2 1867   3.926   0.595   3.320
  561HOH      O 1868   2.323   2.484   1.041
  561HOH     H1 1869   2.261   2.417   1.072
  561HOH     H2 1870   2.401   2.471   1.095
  562HOH      O 1871   1.585   1.220   2.309
  562HOH     H1 1872   1.637   1.281   2.361
  562HOH     H2 1873   1.494   1.247   2.323
  563HOH      O 1874   3.039   3.311   0.079
  563HOH     H1 1875   3.043   3.316   0.175
  563HOH     H2 1876   3.128   3.333   0.050
  564HOH      O 1877   2.546   2.454   2.939
  564HOH     H1 1878   2.503   2.477   3.021
  564HOH     H2 1879   2.639   2.451   2.962
  565HOH      O 1880   0.557   1.349   3.502
  565HOH     H1 1881   0.465   1.350   3.528
  565HOH     H2 1882   0.558   1.384   3.414
  566HOH      O 1883   2.997   1.776   0.879
  566HOH     H1 1884   2.936   1.773   0.954
  566HOH     H2 1885   3.014   1.684   0.859
  567HOH      O 1886   3.506   1.327   1.918
  567HOH     H1 1887   3.449   1.378   1.861
  567HOH     H2 1888   3.538   1.389   1.983
  568HOH      O 1889   0.148   3.550   1.779
  568HOH     H1 1890   0.227   3.587   1.817
  568HOH     H2 1891   0.077   3.576   1.838
  569HOH      O 1892   2.137   0.890   2.449
  569HOH     H1 1893   2.208   0.924   2.503
  569HOH     H2 1894   2.144   0.795   2.457
  570HOH      O 1895   1.614   3.352   1.560
  570HOH     H1 1896   1.521   3.377   1.555
  570HOH     H2 1897   1.612   3.258   1.580
  571HOH      O 1898   0.524   3.468   3.867
  571HOH     H1 1899   0.433   3.481   3.894
  571HOH     H2 1900   0.519   3.456   3.772
  572HOH      O 1901   2.963   2.354   0.516
  572HOH     H1 1902   3.051   2.383   0.541
  572HOH     H2 1903   2.976   2.305   0.435
  573HOH      O 1904   1.894   0.965   3.502
  573HOH     H1 1905   1.987   0.952   3.483
  573HOH     H2 1906   1.882   1.060   3.499
  574HOH      O 1907   0.018   0.317   0.952
  574HOH     H1 1908   0.020   0.396   1.006
  574HOH     H2 1909   0.061   0.250   1.005
  575HOH      O 1910   3.989   0.103   0.562
  575HOH     H1 1911   3.997   0.140   0.474
  575HOH     H2 1912   4.046   0.157   0.617
  576HOH      O 1913   0.993   3.341   0.444
  576HOH     H1 1914   0.977   3.305   0.357
  576HOH     H2 1915   0.932   3.294   0.501
  577HOH      O 1916   2.197   3.933   1.411
  577HOH     H1 1917   2.115   3.970   1.444
  577HOH     H2 1918   2.244   4.008   1.374
  578HOH      O 1919   2.202   3.181   1.728
  578HOH     H1 1920   2.241   3.145   1.649
  578HOH     H2 1921   2.189   3.274   1.709
  579HOH      O 1922   2.901   2.736   1.575
  579HOH     H1 1923   2.900   2.818   1.624
  579HOH     H2 1924   2.866   2.760   1.489
  580HOH      O 1925   1.134   1.271   2.111
  580HOH     H1 1926   1.112   1.188   2.152
  580HOH     H2 1927   1.219   1.256   2.070
  581HOH      O 1928   3.344   0.494   3.484
  581HOH     H1 1929   3.313   0.580   3.512
  581HOH     H2 1930   3.318   0.487   3.392
  582HOH      O 1931   2.121   1.179   0.788
  582HOH     H1 1932   2.088   1.168   0.699
  582HOH     H2 1933   2.119   1.091   0.826
  583HOH      O 1934   4.015   0.380   2.028
  583HOH     H1 1935   3.965   0.457   2.001
  583HOH     H2 1936   3.951   0.309   2.025
  584HOH      O 1937   0.299   3.460   2.069
  584HOH     H1 1938   0.326   3.537   2.019
  584HOH     H2 1939   0.331   3.386   2.018
  585HOH      O 1940   1.474   1.299   0.475
  585HOH     H1 1941   1.502   1.316   0.385
  585HOH     H2 1942   1.406   1.365   0.491
  586HOH      O 1943   1.538   2.769   1.667
  586HOH     H1 1944   1.548   2.694   1.609
  586HOH     H2 1945   1.469   2.744   1.728
  587HOH      O 1946   2.186   0.942   3.584
  587HOH     H1 1947   2.193   0.846   3.584
  587HOH     H2 1948   2.223   0.969   3.501
  588HOH      O 1949   0.727   1.286   1.621
  588HOH     H1 1950   0.719   1.336   1.540
  588HOH     H2 1951   0.665   1.213   1.610
  589HOH      O 1952   2.919   0.597   2.550
  589HOH     H1 1953   2.955   0.599   2.638
  589HOH     H2 1954   2.833   0.555   2.559
  590HOH      O 1955   1.839   2.415   3.369
  590HOH     H1 1956   1.812   2.499   3.332
  590HOH     H2 1957   1.761   2.382   3.413
  591HOH      O 1958   1.332   3.236   1.279
  591HOH     H1 1959   1.354   3.326   1.305
  591HOH     H2 1960   1.255   3.214   1.332
  592HOH      O 1961   1.883   2.484   2.738
  592HOH     H1 1962   1.868   2.579   2.739
  592HOH     H2 1963   1.893   2.461   2.830
  593HOH      O 1964   1.222   0.120   0.723
  593HOH     H1 1965   1.230   0.074   0.806
  593HOH     H2 1966   1.289   0.079   0.667
  594HOH      O 1967   3.917   0.608   0.457
  594HOH     H1 1968   3.925   0.703   0.468
  594HOH     H2 1969   3.830   0.595   0.420
  595HOH      O 1970   0.254   1.791   1.386
  595HOH     H1 1971   0.220   1.843   1.459
  595HOH     H2 1972   0.346   1.777   1.408
  596HOH      O 1973   1.980   0.042   2.571
  596HOH     H1 1974   1.980  -0.054   2.571
  596HOH     H2 1975   2.049   0.067   2.632
  597HOH      O 1976   3.928   2.036   1.203
  597HOH     H1 1977   3.923   2.026   1.108
  597HOH     H2 1978   3.890   2.123   1.219
  598HOH      O 1979   0.684   3.326   0.609
  598HOH     H1 1980   0.730   3.375   0.678
  598HOH     H2 1981   0.598   3.307   0.647
  599HOH      O 1982   1.957   1.072   3.208
  599HOH     H1 1983   2.034   1.090   3.262
  599HOH     H2 1984   1.883   1.083   3.268
  600HOH      O 1985   1.022   0.667   0.129
  600HOH     H1 1986   1.022   0.572   0.120
  600HOH     H2 1987   1.022   0.700   0.039
  601HOH      O 1988   0.573   3.797   1.658
  601HOH     H1 1989   0.478   3.810   1.648
  601HOH     H2 1990   0.608   3.885   1.667
  602HOH      O 1991   2.631   0.938   3.630
  602HOH     H1 1992   2.587   1.021   3.614
  602HOH     H2 1993   2.608   0.914   3.719
  603HOH      O 1994   3.370   1.259   1.637
  603HOH     H1 1995   3.336   1.218   1.557
  603HOH     H2 1996   3.296   1.260   1.697
  604HOH      O 1997   3.147   2.707   0.898
  604HOH     H1 1998   3.142   2.627   0.949
  604HOH     H2 1999   3.234   2.706   0.859
  605HOH      O 2000   1.139   1.018   3.344
  605HOH     H1 2001   1.081   0.971   3.403
  605HOH     H2 2002   1.134   1.109   3.373
  606HOH      O 2003   0.757   2.887   2.559
  606HOH     H1 2004   0.769   2.849   2.472
  606HOH     H2 2005   0.715   2.971   2.543
  607HOH      O 2006   3.087   0.506   3.693
  607HOH     H1 2007   3.105   0.543   3.779
  607HOH     H2 2008   3.157   0.539   3.637
  608HOH      O 2009   2.219   3.513   3.062
  608HOH     H1 2010   2.289   3.558   3.108
  608HOH     H2 2011   2.263   3.444   3.013
  609HOH      O 2012   3.364   3.629   3.771
  609HOH     H1 2013   3.401   3.570   3.705
  609HOH     H2 2014   3.366   3.715   3.730
  610HOH      O 2015   0.013   1.465   0.124
  610HOH     H1 2016   0.053   1.379   0.136
  610HOH     H2 2017  -0.015   1.468   0.033
  611HOH      O 2018   2.027   0.590   0.610
  611HOH     H1 2019   2.030   0.497   0.632
  611HOH     H2 2020   1.935   0.614   0.622
  612HOH      O 2021   3.272   3.165   0.299
  612HOH     H1 2022   3.321   3.168   0.381
  612HOH     H2 2023   3.183   3.189   0.323
  613HOH      O 2024   1.266   3.059   3.955
  613HOH     H1 2025   1.352   3.055   3.913
  613HOH     H2 2026   1.277   3.014   4.038
  614HOH      O 2027   2.805   2.414   3.023
  614HOH     H1 2028   2.861   2.337   3.036
  614HOH     H2 2029   2.866   2.488   3.019
  615HOH      O 2030   1.757   1.409   0.612
  615HOH     H1 2031   1.665   1.432   0.622
  615HOH     H2 2032   1.791   1.474   0.550
  616HOH      O 2033   1.333   1.186   1.906
  616HOH     H1 2034   1.374   1.155   1.825
  616HOH     H2 2035   1.392   1.254   1.939
  617HOH      O 2036   3.087   2.640   3.879
  617HOH     H1 2037   3.057   2.650   3.788
  617HOH     H2 2038   3.027   2.575   3.916
  618HOH      O 2039   1.906   1.600   1.202
  618HOH     H1 2040   1.963   1.629   1.273
  618HOH     H2 2041   1.842   1.542   1.244
  619HOH      O 2042   0.865   3.641   0.404
  619HOH     H1 2043   0.797   3.678   0.347
  619HOH     H2 2044   0.859   3.547   0.390
  620HOH      O 2045   1.881   1.035   0.877
  620HOH     H1 2046   1.833   1.082   0.808
  620HOH     H2 2047   1.908   0.953   0.836
  621HOH      O 2048   1.518   3.827   2.036
  621HOH     H1 2049   1.442   3.864   1.990
  621HOH     H2 2050   1.560   3.902   2.077
  622HOH      O 2051   0.202   2.722   3.452
  622HOH     H1 2052   0.180   2.766   3.371
  622HOH     H2 2053   0.122   2.724   3.504
  623HOH      O 2054   3.807   1.598   3.621
  623HOH     H1 2055   3.810   1.503   3.617
  623HOH     H2 2056   3.756   1.618   3.700
  624HOH      O 2057   0.998   1.000   1.816
  624HOH     H1 2058   1.027   0.980   1.905
  624HOH     H2 2059   1.067   0.967   1.759
  625HOH      O 2060   1.927   2.315   1.429
  625HOH     H1 2061   1.942   2.369   1.508
  625HOH     H2 2062   1.887   2.235   1.462
  626HOH      O 2063   3.714   2.219   3.592
  626HOH     H1 2064   3.797   2.219   3.639
  626HOH     H2 2065   3.720   2.145   3.532
  627HOH      O 2066   1.964   0.330   0.442
  627HOH     H1 2067   1.936   0.242   0.417
  627HOH     H2 2068   1.897   0.388   0.405
  628HOH      O 2069   3.664   2.235   1.016
  628HOH     H1 2070   3.668   2.211   1.109
  628HOH     H2 2071   3.679   2.329   1.015
  629HOH      O 2072   2.428   1.802   1.934
  629HOH     H1 2073   2.390   1.812   1.846
  629HOH     H2 2074   2.391   1.720   1.967
  630HOH      O 2075   2.065   3.492   1.853
  630HOH     H1 2076   2.068   3.585   1.875
  630HOH     H2 2077   1.974   3.475   1.830
  631HOH      O 2078   0.874   3.305   3.042
  631HOH     H1 2079   0.873   3.211   3.057
  631HOH     H2 2080   0.858   3.315   2.948
  632HOH      O 2081   3.063   0.647   1.668
  632HOH     H1 2082   3.090   0.618   1.581
  632HOH     H2 2083   3.129   0.712   1.693
  633HOH      O 2084   2.092   2.273   3.029
  633HOH     H1 2085   2.068   2.354   2.985
  633HOH     H2 2086   2.018   2.254   3.086
  634HOH      O 2087   1.790   3.503   1.700
  634HOH     H1 2088   1.780   3.597   1.682
  634HOH     H2 2089   1.719   3.462   1.652
  635HOH      O 2090   1.981   3.509   0.122
  635HOH     H1 2091   1.957   3.436   0.179
  635HOH     H2 2092   1.922   3.500   0.047
  636HOH      O 2093   1.682   0.197   1.243
  636HOH     H1 2094   1.645   0.111   1.222
  636HOH     H2 2095   1.771   0.194   1.205
  637HOH      O 2096   2.262   2.181   3.821
  637HOH     H1 2097   2.223   2.245   3.762
  637HOH     H2 2098   2.338   2.226   3.859
  638HOH      O 2099   4.002   0.197   2.877
  638HOH     H1 2100   4.036   0.129   2.935
  638HOH     H2 2101   4.021   0.164   2.789
  639HOH      O 2102   0.778   3.323   1.450
  639HOH     H1 2103   0.797   3.381   1.524
  639HOH     H2 2104   0.762   3.382   1.377
  640HOH      O 2105   0.935   1.353   0.971
  640HOH     H1 2106   0.953   1.427   0.913
  640HOH     H2 2107   0.848   1.324   0.945
  641HOH      O 2108   0.649   0.460   3.213
  641HOH     H1 2109   0.618   0.534   3.160
  641HOH     H2 2110   0.623   0.482   3.302
  642HOH      O 2111   3.805   3.886   3.582
  642HOH     H1 2112   3.734   3.848   3.530
  642HOH     H2 2113   3.823   3.970   3.539
  643HOH      O 2114   3.961   0.942   3.810
  643HOH     H1 2115   4.039   0.924   3.759
  643HOH     H2 2116   3.985   0.920   3.900
  644HOH      O 2117   4.023   0.916   1.396
  644HOH     H1 2118   3.927   0.909   1.400
  644HOH     H2 2119   4.042   1.004   1.428
  645HOH      O 2120   2.218   3.205   3.197
  645HOH     H1 2121   2.294   3.244   3.239
  645HOH     H2 2122   2.152   3.275   3.198
  646HOH      O 2123   3.258   1.550   2.415
  646HOH     H1 2124   3.270   1.607   2.491
  646HOH     H2 2125   3.335   1.567   2.360
  647HOH      O 2126   2.678   1.526   0.481
  647HOH     H1 2127   2.747   1.543   0.545
  647HOH     H2 2128   2.724   1.495   0.403
  648HOH      O 2129   0.370   3.690   1.921
  648HOH     H1 2130   0.434   3.745   1.967
  648HOH     H2 2131   0.357   3.733   1.837
  649HOH      O 2132   1.351   1.758   0.328
  649HOH     H1 2133   1.412   1.688   0.304
  649HOH     H2 2134   1.280   1.714   0.373
  650HOH      O 2135   1.564   1.781   1.898
  650HOH     H1 2136   1.489   1.735   1.860
  650HOH     H2 2137   1.618   1.805   1.823
  651HOH      O 2138   3.681   0.625   2.339
  651HOH     H1 2139   3.698   0.534   2.366
  651HOH     H2 2140   3.767   0.667   2.340
  652HOH      O 2141   3.684   3.479   3.669
  652HOH     H1 2142   3.732   3.415   3.616
  652HOH     H2 2143   3.592   3.457   3.657
  653HOH      O 2144   2.274   0.483   3.829
  653HOH     H1 2145   2.337   0.507   3.898
  653HOH     H2 2146   2.204   0.548   3.838
  654HOH      O 2147   2.337   1.987   2.127
  654HOH     H1 2148   2.263   1.953   2.077
  654HOH     H2 2149   2.414   1.948   2.084
  655HOH      O 2150   2.603   2.757   1.112
  655HOH     H1 2151   2.642   2.840   1.084
  655HOH     H2 2152   2.643   2.691   1.055
  656HOH      O 2153   1.287   2.333   1.752
  656HOH     H1 2154   1.364   2.365   1.705
  656HOH     H2 2155   1.250   2.265   1.695
  657HOH      O 2156   3.424   3.457   3.574
  657HOH     H1 2157   3.407   3.466   3.480
  657HOH     H2 2158   3.409   3.364   3.592
  658HOH      O 2159   1.011   0.476   2.233
  658HOH     H1 2160   0.921   0.475   2.266
  658HOH     H2 2161   1.026   0.387   2.200
  659HOH      O 2162   2.136   2.577   1.822
  659HOH     H1 2163   2.207   2.621   1.775
  659HOH     H2 2164   2.180   2.536   1.898
  660HOH      O 2165   3.272   3.949   1.752
  660HOH     H1 2166   3.287   3.980   1.841
  660HOH     H2 2167   3.228   4.022   1.709
  661HOH      O 2168   2.968   3.172   3.105
  661HOH     H1 2169   3.036   3.152   3.170
  661HOH     H2 2170   2.920   3.090   3.096
  662HOH      O 2171   2.630   2.323   1.796
  662HOH     H1 2172   2.635   2.292   1.887
  662HOH     H2 2173   2.578   2.257   1.751
  663HOH      O 2174   0.816   3.742   1.510
  663HOH     H1 2175   0.861   3.826   1.502
  663HOH     H2 2176   0.723   3.764   1.517
  664HOH      O 2177   1.814   3.972   0.454
  664HOH     H1 2178   1.887   3.960   0.515
  664HOH     H2 2179   1.855   4.010   0.376
  665HOH      O 2180   1.278   2.276   2.540
  665HOH     H1 2181   1.297   2.275   2.446
  665HOH     H2 2182   1.226   2.356   2.552
  666HOH      O 2183   1.595   3.107   1.348
  666HOH     H1 2184   1.671   3.143   1.303
  666HOH     H2 2185   1.520   3.151   1.308
  667HOH      O 2186   0.680   3.126   2.472
  667HOH     H1 2187   0.594   3.165   2.490
  667HOH     H2 2188   0.742   3.199   2.484
  668HOH      O 2189   0.653   1.231   0.964
  668HOH     H1 2190   0.672   1.201   0.875
  668HOH     H2 2191   0.577   1.179   0.992
  669HOH      O 2192   0.494   0.594   0.662
  669HOH     H1 2193   0.494   0.569   0.754
  669HOH     H2 2194   0.402   0.615   0.643
  670HOH      O 2195   2.370   1.613   0.343
  670HOH     H1 2196   2.385   1.551   0.414
  670HOH     H2 2197   2.292   1.580   0.299
  671HOH      O 2198   2.469   0.605   1.671
  671HOH     H1 2199   2.402   0.610   1.739
  671HOH     H2 2200   2.483   0.512   1.657
  672HOH      O 2201   1.430   1.541   1.617
  672HOH     H1 2202   1.456   1.540   1.525
  672HOH     H2 2203   1.335   1.534   1.614
  673HOH      O 2204   2.296   3.396   0.924
  673HOH     H1 2205   2.327   3.306   0.924
  673HOH     H2 2206   2.371   3.448   0.953
  674HOH      O 2207   1.722   1.600   3.387
  674HOH     H1 2208   1.667   1.659   3.335
  674HOH     H2 2209   1.673   1.518   3.390
  675HOH      O 2210   0.577   0.594   2.606
  675HOH     H1 2211   0.587   0.500   2.624
  675HOH     H2 2212   0.493   0.600   2.561
  676HOH      O 2213   1.085   1.000   0.298
  676HOH     H1 2214   1.137   1.079   0.280
  676HOH     H2 2215   1.146   0.928   0.282
  677HOH      O 2216   2.451   2.375   3.919
  677HOH     H1 2217   2.371   2.418   3.949
  677HOH     H2 2218   2.513   2.447   3.905
  678HOH      O 2219   3.462   0.279   1.558
  678HOH     H1 2220   3.463   0.259   1.652
  678HOH     H2 2221   3.439   0.196   1.516
  679HOH      O 2222   2.091   2.364   2.380
  679HOH     H1 2223   2.155   2.314   2.330
  679HOH     H2 2224   2.097   2.453   2.345
  680HOH      O 2225   2.871   1.088   1.180
  680HOH     H1 2226   2.901   1.053   1.264
  680HOH     H2 2227   2.827   1.170   1.202
  681HOH      O 2228   1.197   3.468   1.091
  681HOH     H1 2229   1.272   3.442   1.144
  681HOH     H2 2230   1.227   3.459   1.000
  682HOH      O 2231   1.627   1.491   3.802
  682HOH     H1 2232   1.612   1.510   3.710
  682HOH     H2 2233   1.563   1.424   3.824
  683HOH      O 2234   3.389   2.856   0.903
  683HOH     H1 2235   3.376   2.873   0.996
  683HOH     H2 2236   3.461   2.792   0.901
  684HOH      O 2237   2.350   3.070   2.173
  684HOH     H1 2238   2.348   3.124   2.094
  684HOH     H2 2239   2.280   3.006   2.161
  685HOH      O 2240   1.154   0.952   3.886
  685HOH     H1 2241   1.114   0.868   3.906
  685HOH     H2 2242   1.159   0.954   3.790
  686HOH      O 2243   1.614   0.662   3.884
  686HOH     H1 2244   1.693   0.615   3.912
  686HOH     H2 2245   1.635   0.754   3.897
  687HOH      O 2246   0.701   2.205   3.949
  687HOH     H1 2247   0.617   2.220   3.992
  687HOH     H2 2248   0.715   2.111   3.956
  688HOH      O 2249   1.892   0.917   1.526
  688HOH     H1 2250   1.818   0.914   1.586
  688HOH     H2 2251   1.884   0.837   1.474
  689HOH      O 2252   1.076   1.110   2.927
  689HOH     H1 2253   1.111   1.173   2.990
  689HOH     H2 2254   1.010   1.158   2.878
  690HOH      O 2255   3.342   3.411   2.712
  690HOH     H1 2256   3.390   3.482   2.668
  690HOH     H2 2257   3.276   3.456   2.764
  691HOH      O 2258   2.398   1.590   1.048
  691HOH     H1 2259   2.385   1.613   0.956
  691HOH     H2 2260   2.353   1.507   1.060
  692HOH      O 2261   2.929   3.319   3.806
  692HOH     H1 2262   2.878   3.241   3.829
  692HOH     H2 2263   2.977   3.341   3.886
  693HOH      O 2264   3.222   1.872   3.589
  693HOH     H1 2265   3.128   1.875   3.571
  693HOH     H2 2266   3.232   1.919   3.671
  694HOH      O 2267   1.773   2.620   1.519
  694HOH     H1 2268   1.750   2.556   1.452
  694HOH     H2 2269   1.740   2.703   1.484
  695HOH      O 2270   1.411   0.874   2.442
  695HOH     H1 2271   1.419   0.902   2.351
  695HOH     H2 2272   1.396   0.955   2.491
  696HOH      O 2273   2.012   0.757   1.128
  696HOH     H1 2274   2.056   0.682   1.167
  696HOH     H2 2275   1.970   0.722   1.049
  697HOH      O 2276   0.476   2.790   1.015
  697HOH     H1 2277   0.449   2.725   1.080
  697HOH     H2 2278   0.515   2.738   0.945
  698HOH      O 2279   3.125   3.688   1.153
  698HOH     H1 2280   3.158   3.702   1.242
  698HOH     H2 2281   3.041   3.643   1.165
  699HOH      O 2282   2.769   1.593   1.590
  699HOH     H1 2283   2.829   1.566   1.659
  699HOH     H2 2284   2.685   1.604   1.635
  700HOH      O 2285   1.645   2.504   2.018
  700HOH     H1 2286   1.719   2.483   2.076
  700HOH     H2 2287   1.684   2.553   1.946
  701HOH      O 2288   2.629   0.848   3.894
  701HOH     H1 2289   2.638   0.756   3.921
  701HOH     H2 2290   2.705   0.892   3.934
  702HOH      O 2291   3.001   0.621   0.674
  702HOH     H1 2292   3.086   0.583   0.695
  702HOH     H2 2293   2.949   0.548   0.640
  703HOH      O 2294   3.717   2.278   3.002
  703HOH     H1 2295   3.716   2.361   3.048
  703HOH     H2 2296   3.809   2.253   2.997
  704HOH      O 2297   2.559   1.857   0.210
  704HOH     H1 2298   2.603   1.891   0.132
  704HOH     H2 2299   2.526   1.935   0.255
  705HOH      O 2300   3.158   2.803   1.385
  705HOH     H1 2301   3.216   2.751   1.330
  705HOH     H2 2302   3.195   2.796   1.473
  706HOH      O 2303   0.582   1.765   1.879
  706HOH     H1 2304   0.489   1.766   1.899
  706HOH     H2 2305   0.596   1.683   1.832
  707HOH      O 2306   2.675   1.573   3.574
  707HOH     H1 2307   2.615   1.638   3.538
  707HOH     H2 2308   2.719   1.619   3.646
  708HOH      O 2309   3.664   2.801   1.768
  708HOH     H1 2310   3.734   2.758   1.818
  708HOH     H2 2311   3.671   2.893   1.791
  709HOH      O 2312   0.124   3.171   0.715
  709HOH     H1 2313   0.056   3.233   0.740
  709HOH     H2 2314   0.121   3.104   0.783
  710HOH      O 2315   2.210   1.998   0.914
  710HOH     H1 2316   2.161   2.037   0.841
  710HOH     H2 2317   2.196   1.903   0.904
  711HOH      O 2318   2.424   3.422   0.123
  711HOH     H1 2319   2.369   3.491   0.085
  711HOH     H2 2320   2.479   3.469   0.187
  712HOH      O 2321   3.089   3.680   1.989
  712HOH     H1 2322   2.996   3.697   2.006
  712HOH     H2 2323   3.130   3.683   2.075
  713HOH      O 2324   3.185   0.851   0.186
  713HOH     H1 2325   3.276   0.873   0.208
  713HOH     H2 2326   3.155   0.797   0.259
  714HOH      O 2327   2.923   3.804   0.086
  714HOH     H1 2328   2.876   3.884   0.064
  714HOH     H2 2329   3.000   3.806   0.029
  715HOH      O 2330   2.571   3.071   3.534
  715HOH     H1 2331   2.625   3.023   3.472
  715HOH     H2 2332   2.510   3.121   3.480
  716HOH      O 2333   1.282   3.275   2.107
  716HOH     H1 2334   1.191   3.250   2.120
  716HOH     H2 2335   1.292   3.356   2.158
  717HOH      O 2336   0.358   0.189   0.803
  717HOH     H1 2337   0.369   0.242   0.882
  717HOH     H2 2338   0.395   0.104   0.827
  718HOH      O 2339   0.502   3.892   3.016
  718HOH     H1 2340   0.509   3.796   3.010
  718HOH     H2 2341   0.591   3.922   3.032
  719HOH      O 2342   2.138   2.863   2.143
  719HOH     H1 2343   2.048   2.852   2.173
  719HOH     H2 2344   2.133   2.850   2.048
  720HOH      O 2345   3.040   0.263   2.986
  720HOH     H1 2346   3.007   0.253   2.896
  720HOH     H2 2347   2.964   0.248   3.042
  721HOH      O 2348   2.779   1.737   1.109
  721HOH     H1 2349   2.687   1.742   1.134
  721HOH     H2 2350   2.826   1.730   1.193
  722HOH      O 2351   2.995   0.485   3.992
  722HOH     H1 2352   2.917   0.537   3.977
  722HOH     H2 2353   3.062   0.549   4.017
  723HOH      O 2354   1.642   2.124   3.873
  723HOH     H1 2355   1.565   2.180   3.865
  723HOH     H2 2356   1.633   2.081   3.957
  724HOH      O 2357   1.075   0.467   1.178
  724HOH     H1 2358   1.086   0.531   1.107
  724HOH     H2 2359   1.106   0.384   1.141
  725HOH      O 2360   1.368   1.082   2.596
  725HOH     H1 2361   1.433   1.067   2.664
  725HOH     H2 2362   1.371   1.176   2.580
  726HOH      O 2363   3.149   3.222   1.738
  726HOH     H1 2364   3.061   3.187   1.752
  726HOH     H2 2365   3.145   3.311   1.773
  727HOH      O 2366   2.559   1.157   1.060
  727HOH     H1 2367   2.471   1.183   1.089
  727HOH     H2 2368   2.595   1.111   1.136
  728HOH      O 2369   1.544   0.476   0.540
  728HOH     H1 2370   1.567   0.409   0.604
  728HOH     H2 2371   1.450   0.487   0.549
  729HOH      O 2372   0.754   1.544   3.346
  729HOH     H1 2373   0.803   1.614   3.388
  729HOH     H2 2374   0.819   1.498   3.292
  730HOH      O 2375   0.287   3.425   1.283
  730HOH     H1 2376   0.336   3.496   1.324
  730HOH     H2 2377   0.347   3.387   1.220
  731HOH      O 2378   0.039   3.961   0.313
  731HOH     H1 2379   0.039   3.937   0.406
  731HOH     H2 2380   0.051   4.056   0.313
  732HOH      O 2381   1.331   0.840   3.478
  732HOH     H1 2382   1.416   0.851   3.436
  732HOH     H2 2383   1.280   0.915   3.450
  733HOH      O 2384   2.034   2.135   0.731
  733HOH     H1 2385   1.998   2.081   0.802
  733HOH     H2 2386   2.020   2.082   0.652
  734HOH      O 2387   1.365   0.625   2.348
  734HOH     H1 2388   1.400   0.709   2.376
  734HOH     H2 2389   1.318   0.592   2.424
  735HOH      O 2390   3.249   0.625   4.019
  735HOH     H1 2391   3.305   0.656   3.948
  735HOH     H2 2392   3.249   0.697   4.083
  736HOH      O 2393   2.449   3.858   2.098
  736HOH     H1 2394   2.426   3.773   2.137
  736HOH     H2 2395   2.536   3.878   2.133
  737HOH      O 2396   3.575   0.097   2.436
  737HOH     H1 2397   3.642   0.125   2.374
  737HOH     H2 2398   3.616   0.109   2.522
  738HOH      O 2399   2.063   0.188   2.159
  738HOH     H1 2400   2.153   0.164   2.138
  738HOH     H2 2401   2.024   0.107   2.191
  739HOH      O 2402   3.989   0.074   3.927
  739HOH     H1 2403   3.979  -0.011   3.884
  739HOH     H2 2404   4.082   0.081   3.947
  740HOH      O 2405   0.754   0.330   2.626
  740HOH     H1 2406   0.768   0.271   2.552
  740HOH     H2 2407   0.711   0.276   2.692
  741HOH      O 2408   0.947   0.135   2.491
  741HOH     H1 2409   1.025   0.111   2.440
  741HOH     H2 2410   0.981   0.149   2.580
  742HOH      O 2411   2.919   0.077   0.516
  742HOH     H1 2412   3.010   0.072   0.546
  742HOH     H2 2413   2.873   0.121   0.587
  743HOH      O 2414   3.408   3.056   2.769
  743HOH     H1 2415   3.381   2.964   2.766
  743HOH     H2 2416   3.481   3.058   2.831
  744HOH      O 2417   2.263   3.457   0.444
  744HOH     H1 2418   2.341   3.485   0.396
  744HOH     H2 2419   2.252   3.523   0.512
  745HOH      O 2420   0.235   0.683   0.680
  745HOH     H1 2421   0.146   0.649   0.691
  745HOH     H2 2422   0.268   0.694   0.769
  746HOH      O 2423   3.291   0.013   2.018
  746HOH     H1 2424   3.213   0.050   2.060
  746HOH     H2 2425   3.361   0.073   2.042
  747HOH      O 2426   3.355   1.523   1.813
  747HOH     H1 2427   3.418   1.589   1.787
  747HOH     H2 2428   3.286   1.528   1.747
  748HOH      O 2429   2.931   1.339   0.211
  748HOH     H1 2430   2.945   1.248   0.184
  748HOH     H2 2431   3.007   1.359   0.267
  749HOH      O 2432   0.990   1.992   0.494
  749HOH     H1 2433   0.937   2.067   0.468
  749HOH     H2 2434   1.080   2.023   0.489
  750HOH      O 2435   0.415   0.141   2.492
  750HOH     H1 2436   0.378   0.229   2.493
  750HOH     H2 2437   0.495   0.149   2.441
  751HOH      O 2438   2.270   1.997   3.076
  751HOH     H1 2439   2.364   2.018   3.077
  751HOH     H2 2440   2.267   1.903   3.061
  752HOH      O 2441   0.448   2.746   1.488
  752HOH     H1 2442   0.520   2.804   1.463
  752HOH     H2 2443   0.463   2.729   1.581
  753HOH      O 2444   0.812   1.127   2.235
  753HOH     H1 2445   0.900   1.101   2.260
  753HOH     H2 2446   0.784   1.185   2.306
  754HOH      O 2447   2.818   3.333   3.516
  754HOH     H1 2448   2.854   3.343   3.605
  754HOH     H2 2449   2.782   3.244   3.515
  755HOH      O 2450   1.959   0.815   3.063
  755HOH     H1 2451   1.906   0.850   2.991
  755HOH     H2 2452   1.968   0.889   3.124
  756HOH      O 2453   1.371   0.083   3.160
  756HOH     H1 2454   1.294   0.041   3.120
  756HOH     H2 2455   1.437   0.084   3.090
  757HOH      O 2456   2.005   3.609   2.417
  757HOH     H1 2457   2.049   3.536   2.373
  757HOH     H2 2458   1.912   3.589   2.408
  758HOH      O 2459   3.023   3.918   2.504
  758HOH     H1 2460   3.093   3.942   2.565
  758HOH     H2 2461   3.046   3.963   2.423
  759HOH      O 2462   3.344   3.556   1.693
  759HOH     H1 2463   3.313   3.523   1.778
  759HOH     H2 2464   3.430   3.516   1.682
  760HOH      O 2465   0.763   2.541   0.306
  760HOH     H1 2466   0.686   2.529   0.361
  760HOH     H2 2467   0.813   2.610   0.351
  761HOH      O 2468   1.952   0.252   1.385
  761HOH     H1 2469   1.933   0.174   1.437
  761HOH     H2 2470   1.990   0.217   1.304
  762HOH      O 2471   0.802   2.453   0.924
  762HOH     H1 2472   0.894   2.433   0.941
  762HOH     H2 2473   0.764   2.468   1.010
  763HOH      O 2474   2.005   3.377   1.537
  763HOH     H1 2475   1.929   3.420   1.576
  763HOH     H2 2476   1.970   3.296   1.500
  764HOH      O 2477   1.084   1.294   1.775
  764HOH     H1 2478   1.161   1.292   1.832
  764HOH     H2 2479   1.108   1.356   1.705
  765HOH      O 2480   3.059   3.680   3.517
  765HOH     H1 2481   2.988   3.648   3.462
  765HOH     H2 2482   3.035   3.654   3.606
  766HOH      O 2483   2.297   3.004   0.347
  766HOH     H1 2484   2.309   3.096   0.324
  766HOH     H2 2485   2.364   2.987   0.413
  767HOH      O 2486   3.623   0.623   1.856
  767HOH     H1 2487   3.716   0.610   1.873
  767HOH     H2 2488   3.586   0.643   1.942
  768HOH      O 2489   3.928   1.160   3.477
  768HOH     H1 2490   3.974   1.218   3.537
  768HOH     H2 2491   3.852   1.210   3.448
  769HOH      O 2492   2.487   3.502   2.761
  769HOH     H1 2493   2.461   3.584   2.803
  769HOH     H2 2494   2.410   3.474   2.712
  770HOH      O 2495   0.878   3.134   3.498
  770HOH     H1 2496   0.852   3.044   3.520
  770HOH     H2 2497   0.973   3.135   3.508
  771HOH      O 2498   3.050   0.801   2.877
  771HOH     H1 2499   3.109   0.853   2.932
  771HOH     H2 2500   3.079   0.820   2.787
  772HOH      O 2501   0.731   3.438   1.190
  772HOH     H1 2502   0.818   3.474   1.207
  772HOH     H2 2503   0.673   3.514   1.184
  773HOH      O 2504   2.399   0.980   3.952
  773HOH     H1 2505   2.478   0.929   3.930
  773HOH     H2 2506   2.374   0.947   4.038
  774HOH      O 2507   1.588   4.010   1.031
  774HOH     H1 2508   1.628   4.025   0.945
  774HOH     H2 2509   1.609   3.919   1.052
  775HOH      O 2510   3.686   3.816   1.537
  775HOH     H1 2511   3.594   3.842   1.528
  775HOH     H2 2512   3.683   3.726   1.568
  776HOH      O 2513   2.183   2.353   3.633
  776HOH     H1 2514   2.148   2.355   3.544
  776HOH     H2 2515   2.209   2.444   3.650
  777HOH      O 2516   0.904   2.132   1.127
  777HOH     H1 2517   0.966   2.181   1.072
  777HOH     H2 2518   0.820   2.144   1.083
  778HOH      O 2519   3.922   1.618   1.217
  778HOH     H1 2520   3.986   1.630   1.147
  778HOH     H2 2521   3.851   1.569   1.176
  779HOH      O 2522   2.978   2.448   0.827
  779HOH     H1 2523   3.038   2.385   0.865
  779HOH     H2 2524   3.034   2.514   0.788
  780HOH      O 2525   0.094   2.239   1.304
  780HOH     H1 2526   0.022   2.247   1.366
  780HOH     H2 2527   0.173   2.244   1.357
  781HOH      O 2528   3.885   1.821   1.393
  781HOH     H1 2529   3.880   1.900   1.338
  781HOH     H2 2530   3.885   1.749   1.331
  782HOH      O 2531   0.355   2.694   2.301
  782HOH     H1 2532   0.343   2.732   2.388
  782HOH     H2 2533   0.397   2.610   2.317
  783HOH      O 2534   1.543   2.858   1.119
  783HOH     H1 2535   1.479   2.926   1.096
  783HOH     H2 2536   1.497   2.804   1.183
  784HOH      O 2537   1.574   0.837   3.359
  784HOH     H1 2538   1.626   0.918   3.351
  784HOH     H2 2539   1.625   0.781   3.417
  785HOH      O 2540   0.288   0.791   3.147
  785HOH     H1 2541   0.222   0.765   3.082
  785HOH     H2 2542   0.274   0.885   3.159
  786HOH      O 2543   3.519   1.078   1.794
  786HOH     H1 2544   3.461   1.085   1.870
  786HOH     H2 2545   3.495   1.152   1.738
  787HOH      O 2546   1.082   2.983   1.294
  787HOH     H1 2547   1.025   2.937   1.357
  787HOH     H2 2548   1.073   3.075   1.317
  788HOH      O 2549   1.012   1.132   1.476
  788HOH     H1 2550   1.018   1.155   1.384
  788HOH     H2 2551   1.103   1.119   1.504
  789HOH      O 2552   2.684   3.131   1.973
  789HOH     H1 2553   2.613   3.130   1.910
  789HOH     H2 2554   2.675   3.048   2.021
  790HOH      O 2555   1.575   0.929   0.137
  790HOH     H1 2556   1.551   0.954   0.227
  790HOH     H2 2557   1.514   0.860   0.114
  791HOH      O 2558   1.335   0.005   1.497
  791HOH     H1 2559   1.316  -0.031   1.410
  791HOH     H2 2560   1.422   0.044   1.489
  792HOH      O 2561   0.770   3.179   3.917
  792HOH     H1 2562   0.802   3.136   3.996
  792HOH     H2 2563   0.847   3.188   3.861
  793HOH      O 2564   0.195   1.892   1.620
  793HOH     H1 2565   0.219   1.815   1.672
  793HOH     H2 2566   0.258   1.959   1.646
  794HOH      O 2567   2.945   3.326   2.883
  794HOH     H1 2568   2.855   3.358   2.894
  794HOH     H2 2569   2.967   3.289   2.968
  795HOH      O 2570   1.875   2.863   2.199
  795HOH     H1 2571   1.785   2.867   2.167
  795HOH     H2 2572   1.866   2.853   2.294
  796HOH      O 2573   3.445   1.881   2.687
  796HOH     H1 2574   3.393   1.806   2.658
  796HOH     H2 2575   3.516   1.842   2.738
  797HOH      O 2576   0.899   2.665   1.667
  797HOH     H1 2577   0.946   2.586   1.693
  797HOH     H2 2578   0.854   2.692   1.747
  798HOH      O 2579   0.538   1.117   3.683
  798HOH     H1 2580   0.499   1.166   3.755
  798HOH     H2 2581   0.631   1.110   3.706
  799HOH      O 2582   2.913   1.032   2.717
  799HOH     H1 2583   2.918   0.952   2.769
  799HOH     H2 2584   2.980   1.020   2.649
  800HOH      O 2585   3.291   1.725   1.350
  800HOH     H1 2586   3.374   1.680   1.361
  800HOH     H2 2587   3.274   1.766   1.434
  801HOH      O 2588   2.772   1.437   2.441
  801HOH     H1 2589   2.692   1.385   2.436
  801HOH     H2 2590   2.797   1.433   2.533
  802HOH      O 2591   1.373   1.496   3.042
  802HOH     H1 2592   1.457   1.450   3.051
  802HOH     H2 2593   1.307   1.430   3.062
  803HOH      O 2594   0.585   0.157   1.285
  803HOH     H1 2595   0.521   0.087   1.275
  803HOH     H2 2596   0.532   0.235   1.304
  804HOH      O 2597   3.047   3.957   1.113
  804HOH     H1 2598   3.042   3.983   1.205
  804HOH     H2 2599   3.101   3.878   1.113
  805HOH      O 2600   1.996   2.009   2.896
  805HOH     H1 2601   2.040   1.985   2.814
  805HOH     H2 2602   2.065   2.045   2.951
  806HOH      O 2603   0.542   3.064   3.491
  806HOH     H1 2604   0.587   2.981   3.483
  806HOH     H2 2605   0.566   3.098   3.577
  807HOH      O 2606   2.954   3.130   1.159
  807HOH     H1 2607   2.987   3.056   1.107
  807HOH     H2 2608   3.033   3.175   1.190
  808HOH      O 2609   0.159   1.205   2.320
  808HOH     H1 2610   0.197   1.131   2.368
  808HOH     H2 2611   0.180   1.282   2.373
  809HOH      O 2612   3.854   3.738   0.266
  809HOH     H1 2613   3.852   3.708   0.357
  809HOH     H2 2614   3.920   3.808   0.265
  810HOH      O 2615   2.925   3.751   2.207
  810HOH     H1 2616   2.847   3.698   2.224
  810HOH     H2 2617   2.984   3.730   2.279
  811HOH      O 2618   0.768   3.781   1.918
  811HOH     H1 2619   0.720   3.864   1.923
  811HOH     H2 2620   0.852   3.800   1.960
  812HOH      O 2621   1.551   3.470   2.645
  812HOH     H1 2622   1.607   3.402   2.606
  812HOH     H2 2623   1.490   3.494   2.575
  813HOH      O 2624   1.050   3.274   1.411
  813HOH     H1 2625   1.066   3.292   1.504
  813HOH     H2 2626   0.962   3.308   1.395
  814HOH      O 2627   2.221   1.170   0.159
  814HOH     H1 2628   2.254   1.110   0.227
  814HOH     H2 2629   2.296   1.227   0.140
  815HOH      O 2630   0.172   1.379   3.884
  815HOH     H1 2631   0.195   1.472   3.890
  815HOH     H2 2632   0.233   1.336   3.944
  816HOH      O 2633   1.589   3.509   0.294
  816HOH     H1 2634   1.572   3.545   0.207
  816HOH     H2 2635   1.629   3.424   0.278
  817HOH      O 2636   3.753   3.597   0.904
  817HOH     H1 2637   3.831   3.596   0.960
  817HOH     H2 2638   3.680   3.582   0.965
  818HOH      O 2639   2.681   2.222   3.946
  818HOH     H1 2640   2.590   2.248   3.927
  818HOH     H2 2641   2.727   2.305   3.956
  819HOH      O 2642   1.842   2.540   1.773
  819HOH     H1 2643   1.814   2.573   1.688
  819HOH     H2 2644   1.872   2.617   1.821
  820HOH      O 2645   0.329   1.347   2.475
  820HOH     H1 2646   0.406   1.388   2.434
  820HOH     H2 2647   0.365   1.298   2.550
  821HOH      O 2648   2.708   3.638   2.320
  821HOH     H1 2649   2.630   3.688   2.347
  821HOH     H2 2650   2.674   3.570   2.262
  822HOH      O 2651   3.870   0.230   0.087
  822HOH     H1 2652   3.921   0.193   0.014
  822HOH     H2 2653   3.793   0.267   0.045
  823HOH      O 2654   2.663   3.450   2.538
  823HOH     H1 2655   2.576   3.425   2.568
  823HOH     H2 2656   2.654   3.542   2.511
  824HOH      O 2657   2.206   2.562   0.001
  824HOH     H1 2658   2.152   2.608   0.066
  824HOH     H2 2659   2.145   2.502  -0.042
  825HOH      O 2660   3.165   2.508   1.070
  825HOH     H1 2661   3.188   2.588   1.118
  825HOH     H2 2662   3.225   2.442   1.105
  826HOH      O 2663   0.558   1.406   3.156
  826HOH     H1 2664   0.627   1.341   3.170
  826HOH     H2 2665   0.600   1.490   3.175
  827HOH      O 2666   2.708   2.928   0.065
  827HOH     H1 2667   2.793   2.964   0.039
  827HOH     H2 2668   2.684   2.869  -0.007
  828HOH      O 2669   2.495   3.785   3.845
  828HOH     H1 2670   2.481   3.830   3.929
  828HOH     H2 2671   2.552   3.844   3.796
  829HOH      O 2672   0.367   2.796   0.574
  829HOH     H1 2673   0.394   2.848   0.499
  829HOH     H2 2674   0.383   2.853   0.650
  830HOH      O 2675   1.347   0.221  -0.010
  830HOH     H1 2676   1.434   0.183  -0.015
  830HOH     H2 2677   1.355   0.293   0.052
  831HOH      O 2678   2.610   3.923   2.500
  831HOH     H1 2679   2.636   4.008   2.534
  831HOH     H2 2680   2.577   3.876   2.577
  832HOH      O 2681   0.799   1.099   2.807
  832HOH     H1 2682   0.728   1.093   2.871
  832HOH     H2 2683   0.826   1.009   2.792
  833HOH      O 2684   1.793   0.236   2.089
  833HOH     H1 2685   1.883   0.205   2.083
  833HOH     H2 2686   1.780   0.256   2.181
  834HOH      O 2687   0.085   3.744   1.501
  834HOH     H1 2688   0.037   3.672   1.541
  834HOH     H2 2689   0.094   3.719   1.409
  835HOH      O 2690   1.243   1.978   1.044
  835HOH     H1 2691   1.176   1.958   1.109
  835HOH     H2 2692   1.193   2.006   0.967
  836HOH      O 2693   3.684   1.935   3.852
  836HOH     H1 2694   3.647   1.936   3.941
  836HOH     H2 2695   3.632   1.870   3.805
  837HOH      O 2696   1.571   1.390   3.275
  837HOH     H1 2697   1.593   1.379   3.182
  837HOH     H2 2698   1.489   1.440   3.273
  838HOH      O 2699   1.515   3.910   0.172
  838HOH     H1 2700   1.443   3.896   0.233
  838HOH     H2 2701   1.586   3.855   0.207
  839HOH      O 2702   3.623   0.165   1.268
  839HOH     H1 2703   3.691   0.181   1.334
  839HOH     H2 2704   3.551   0.126   1.317
  840HOH      O 2705   2.654   3.250   0.448
  840HOH     H1 2706   2.597   3.327   0.439
  840HOH     H2 2707   2.656   3.212   0.361
  841HOH      O 2708   1.892   1.545   2.201
  841HOH     H1 2709   1.980   1.566   2.168
  841HOH     H2 2710   1.907   1.517   2.291
  842HOH      O 2711   0.944   1.811   0.263
  842HOH     H1 2712   0.975   1.872   0.330
  842HOH     H2 2713   0.867   1.854   0.226
  843HOH      O 2714   0.345   0.577   2.488
  843HOH     H1 2715   0.255   0.609   2.479
  843HOH     H2 2716   0.335   0.488   2.523
  844HOH      O 2717   0.441   0.800   2.308
  844HOH     H1 2718   0.407   0.765   2.391
  844HOH     H2 2719   0.535   0.783   2.312
  845HOH      O 2720   1.137   1.243   0.662
  845HOH     H1 2721   1.162   1.209   0.749
  845HOH     H2 2722   1.070   1.182   0.631
  846HOH      O 2723   3.687   2.710   3.108
  846HOH     H1 2724   3.770   2.683   3.069
  846HOH     H2 2725   3.647   2.628   3.136
  847HOH      O 2726   2.881   2.895   0.615
  847HOH     H1 2727   2.859   2.868   0.526
  847HOH     H2 2728   2.813   2.958   0.638
  848HOH      O 2729   0.098   0.696   2.490
  848HOH     H1 2730   0.054   0.634   2.549
  848HOH     H2 2731   0.032   0.717   2.424
  849HOH      O 2732   2.936   3.002   2.830
  849HOH     H1 2733   2.974   3.090   2.832
  849HOH     H2 2734   2.940   2.977   2.738
  850HOH      O 2735   0.141   2.415   1.078
  850HOH     H1 2736   0.236   2.404   1.078
  850HOH     H2 2737   0.113   2.386   1.165
  851HOH      O 2738   2.132   2.682   1.160
  851HOH     H1 2739   2.096   2.599   1.191
  851HOH     H2 2740   2.055   2.738   1.148
  852HOH      O 2741   0.002   1.639   0.871
  852HOH     H1 2742   0.009   1.700   0.797
  852HOH     H2 2743   0.080   1.657   0.924
  853HOH      O 2744   3.544   1.711   1.754
  853HOH     H1 2745   3.576   1.695   1.665
  853HOH     H2 2746   3.622   1.710   1.808
  854HOH      O 2747   0.892   3.482   2.194
  854HOH     H1 2748   0.966   3.447   2.145
  854HOH     H2 2749   0.878   3.570   2.158
  855HOH      O 2750   1.441   2.168   1.336
  855HOH     H1 2751   1.366   2.228   1.330
  855HOH     H2 2752   1.407   2.092   1.384
  856HOH      O 2753   2.268   1.157   2.263
  856HOH     H1 2754   2.173   1.171   2.255
  856HOH     H2 2755   2.278   1.115   2.348
  857HOH      O 2756   2.266   0.303   1.380
  857HOH     H1 2757   2.256   0.224   1.326
  857HOH     H2 2758   2.180   0.315   1.420
  858HOH      O 2759   3.623   3.662   0.472
  858HOH     H1 2760   3.571   3.648   0.551
  858HOH     H2 2761   3.611   3.755   0.452
  859HOH      O 2762   3.436   2.383   0.199
  859HOH     H1 2763   3.445   2.353   0.108
  859HOH     H2 2764   3.473   2.471   0.198
  860HOH      O 2765   3.625   1.452   0.342
  860HOH     H1 2766   3.689   1.510   0.300
  860HOH     H2 2767   3.675   1.410   0.413
  861HOH      O 2768   1.315   1.525   3.825
  861HOH     H1 2769   1.334   1.608   3.781
  861HOH     H2 2770   1.282   1.550   3.911
  862HOH      O 2771   1.974   1.910   3.557
  862HOH     H1 2772   1.913   1.901   3.484
  862HOH     H2 2773   2.043   1.967   3.524
  863HOH      O 2774   3.722   0.034   0.664
  863HOH     H1 2775   3.755   0.060   0.750
  863HOH     H2 2776   3.801   0.010   0.615
  864HOH      O 2777   3.704   2.145   2.251
  864HOH     H1 2778   3.667   2.078   2.308
  864HOH     H2 2779   3.797   2.149   2.275
  865HOH      O 2780   1.320   0.713   1.161
  865HOH     H1 2781   1.241   0.711   1.107
  865HOH     H2 2782   1.377   0.776   1.117
  866HOH      O 2783   1.353   2.506   3.289
  866HOH     H1 2784   1.267   2.501   3.248
  866HOH     H2 2785   1.415   2.485   3.219
  867HOH      O 2786   1.617   0.441   1.604
  867HOH     H1 2787   1.631   0.485   1.520
  867HOH     H2 2788   1.668   0.492   1.667
  868HOH      O 2789   0.602   3.095   3.021
  868HOH     H1 2790   0.582   3.003   3.002
  868HOH     H2 2791   0.662   3.091   3.095
  869HOH      O 2792   1.338   3.447   0.859
  869HOH     H1 2793   1.379   3.531   0.838
  869HOH     H2 2794   1.405   3.382   0.836
  870HOH      O 2795   0.585   0.790   0.028
  870HOH     H1 2796   0.639   0.815   0.103
  870HOH     H2 2797   0.502   0.763   0.067
  871HOH      O 2798   0.505   2.973   2.272
  871HOH     H1 2799   0.423   2.925   2.260
  871HOH     H2 2800   0.497   3.013   2.359
  872HOH      O 2801   0.604   3.475   0.336
  872HOH     H1 2802   0.613   3.421   0.414
  872HOH     H2 2803   0.534   3.536   0.356
  873HOH      O 2804   3.654   1.816   0.517
  873HOH     H1 2805   3.695   1.751   0.461
  873HOH     H2 2806   3.582   1.770   0.560
  874HOH      O 2807   2.398   0.662   0.480
  874HOH     H1 2808   2.420   0.731   0.417
  874HOH     H2 2809   2.304   0.649   0.468
  875HOH      O 2810   1.675   2.754   3.745
  875HOH     H1 2811   1.764   2.766   3.778
  875HOH     H2 2812   1.634   2.693   3.807
  876HOH      O 2813   2.989   3.358   0.978
  876HOH     H1 2814   2.894   3.366   0.982
  876HOH     H2 2815   3.005   3.264   0.985
  877HOH      O 2816   0.870   1.357   0.175
  877HOH     H1 2817   0.816   1.379   0.099
  877HOH     H2 2818   0.956   1.339   0.138
  878HOH      O 2819   1.675   2.113   3.618
  878HOH     H1 2820   1.662   2.121   3.713
  878HOH     H2 2821   1.609   2.171   3.580
  879HOH      O 2822   2.507   1.065   0.418
  879HOH     H1 2823   2.527   0.988   0.470
  879HOH     H2 2824   2.424   1.044   0.374
  880HOH      O 2825   0.859   3.099   1.584
  880HOH     H1 2826   0.838   3.124   1.674
  880HOH     H2 2827   0.811   3.161   1.530
  881HOH      O 2828   3.376   3.150   2.161
  881HOH     H1 2829   3.468   3.173   2.172
  881HOH     H2 2830   3.377   3.067   2.113
  882HOH      O 2831   2.978   0.361   1.491
  882HOH     H1 2832   2.942   0.415   1.421
  882HOH     H2 2833   2.904   0.310   1.523
  883HOH      O 2834   2.399   1.133   1.795
  883HOH     H1 2835   2.395   1.127   1.700
  883HOH     H2 2836   2.472   1.194   1.812
  884HOH      O 2837   0.641   0.497   0.958
  884HOH     H1 2838   0.672   0.588   0.961
  884HOH     H2 2839   0.701   0.450   1.016
  885HOH      O 2840   1.432   0.952   2.166
  885HOH     H1 2841   1.462   1.042   2.168
  885HOH     H2 2842   1.476   0.913   2.090
  886HOH      O 2843   2.678   0.461   2.389
  886HOH     H1 2844   2.719   0.394   2.335
  886HOH     H2 2845   2.699   0.543   2.346
  887HOH      O 2846   2.326   3.562   2.164
  887HOH     H1 2847   2.257   3.627   2.148
  887HOH     H2 2848   2.286   3.478   2.141
  888HOH      O 2849   3.608   1.669   1.148
  888HOH     H1 2850   3.638   1.624   1.069
  888HOH     H2 2851   3.617   1.762   1.126
  889HOH      O 2852   1.576   1.690   0.131
  889HOH     H1 2853   1.568   1.694   0.035
  889HOH     H2 2854   1.667   1.714   0.148
  890HOH      O 2855   3.831   3.322   2.538
  890HOH     H1 2856   3.917   3.306   2.577
  890HOH     H2 2857   3.848   3.331   2.445
  891HOH      O 2858   0.311   2.814   2.532
  891HOH     H1 2859   0.355   2.830   2.616
  891HOH     H2 2860   0.245   2.883   2.527
  892HOH      O 2861   1.029   1.811   3.904
  892HOH     H1 2862   1.108   1.808   3.959
  892HOH     H2 2863   1.051   1.756   3.828
  893HOH      O 2864   0.315   3.718   0.714
  893HOH     H1 2865   0.342   3.739   0.624
  893HOH     H2 2866   0.269   3.796   0.744
  894HOH      O 2867   0.507   1.727   1.475
  894HOH     H1 2868   0.467   1.668   1.539
  894HOH     H2 2869   0.576   1.773   1.523
  895HOH      O 2870   2.179   2.253   2.643
  895HOH     H1 2871   2.126   2.299   2.577
  895HOH     H2 2872   2.190   2.317   2.714
  896HOH      O 2873   2.971   1.786   2.621
  896HOH     H1 2874   2.924   1.847   2.677
  896HOH     H2 2875   2.960   1.701   2.662
  897HOH      O 2876   1.112   2.581   0.073
  897HOH     H1 2877   1.074   2.638   0.140
  897HOH     H2 2878   1.084   2.493   0.097
  898HOH      O 2879   1.780   2.695   3.354
  898HOH     H1 2880   1.694   2.732   3.336
  898HOH     H2 2881   1.816   2.751   3.423
  899HOH      O 2882   2.220   2.446   2.837
  899HOH     H1 2883   2.198   2.539   2.831
  899HOH     H2 2884   2.255   2.436   2.926
  900HOH      O 2885   2.432   3.124   0.779
  900HOH     H1 2886   2.359   3.062   0.770
  900HOH     H2 2887   2.455   3.119   0.872
  901HOH      O 2888   2.026   1.810   1.372
  901HOH     H1 2889   2.063   1.874   1.433
  901HOH     H2 2890   2.100   1.784   1.318
  902HOH      O 2891   2.763   3.326   1.169
  902HOH     H1 2892   2.801   3.400   1.216
  902HOH     H2 2893   2.829   3.257   1.177
  903HOH      O 2894   1.903   3.200   3.882
  903HOH     H1 2895   1.899   3.105   3.874
  903HOH     H2 2896   1.996   3.220   3.888
  904HOH      O 2897   2.712   1.161   2.130
  904HOH     H1 2898   2.785   1.183   2.189
  904HOH     H2 2899   2.734   1.074   2.096
  905HOH      O 2900   1.017   2.759   0.764
  905HOH     H1 2901   1.010   2.841   0.716
  905HOH     H2 2902   0.976   2.777   0.849
  906HOH      O 2903   1.361   0.374   2.631
  906HOH     H1 2904   1.440   0.426   2.619
  906HOH     H2 2905   1.303   0.401   2.560
  907HOH      O 2906  -0.003   1.630   1.869
  907HOH     H1 2907   0.082   1.615   1.910
  907HOH     H2 2908   0.018   1.662   1.782
  908HOH      O 2909   0.205   3.787   3.733
  908HOH     H1 2910   0.123   3.835   3.746
  908HOH     H2 2911   0.178   3.695   3.728
  909HOH      O 2912   3.873   0.415   2.434
  909HOH     H1 2913   3.873   0.433   2.528
  909HOH     H2 2914   3.959   0.378   2.416
  910HOH      O 2915   0.229   3.076   3.599
  910HOH     H1 2916   0.190   3.156   3.563
  910HOH     H2 2917   0.321   3.083   3.576
  911HOH      O 2918   2.513   2.084   3.125
  911HOH     H1 2919   2.608   2.075   3.126
  911HOH     H2 2920   2.496   2.166   3.171
  912HOH      O 2921   1.025   0.720   3.887
  912HOH     H1 2922   0.933   0.747   3.884
  912HOH     H2 2923   1.044   0.685   3.800
  913HOH      O 2924   0.184   2.733   1.586
  913HOH     H1 2925   0.263   2.716   1.535
  913HOH     H2 2926   0.154   2.818   1.555
  914HOH      O 2927   1.043   0.170   1.094
  914HOH     H1 2928   0.993   0.160   1.013
  914HOH     H2 2929   1.131   0.138   1.072
  915HOH      O 2930   2.075   3.825   2.553
  915HOH     H1 2931   2.037   3.755   2.500
  915HOH     H2 2932   2.158   3.845   2.510
  916HOH      O 2933   2.570   1.515   2.744
  916HOH     H1 2934   2.550   1.506   2.837
  916HOH     H2 2935   2.659   1.550   2.741
  917HOH      O 2936   3.624   1.769   2.858
  917HOH     H1 2937   3.689   1.816   2.911
  917HOH     H2 2938   3.677   1.719   2.795
  918HOH      O 2939   3.222   0.469   2.869
  918HOH     H1 2940   3.150   0.409   2.883
  918HOH     H2 2941   3.182   0.556   2.869
  919HOH      O 2942   2.420   1.662   0.787
  919HOH     H1 2943   2.437   1.723   0.716
  919HOH     H2 2944   2.414   1.576   0.745
  920HOH      O 2945   1.364   1.400   1.169
  920HOH     H1 2946   1.270   1.397   1.186
  920HOH     H2 2947   1.389   1.309   1.156
  921HOH      O 2948   2.735   0.409   3.247
  921HOH     H1 2949   2.664   0.460   3.286
  921HOH     H2 2950   2.787   0.380   3.322
  922HOH      O 2951   1.486   1.532   3.570
  922HOH     H1 2952   1.432   1.542   3.492
  922HOH     H2 2953   1.458   1.602   3.629
  923HOH      O 2954   3.272   4.036   0.312
  923HOH     H1 2955   3.293   4.049   0.220
  923HOH     H2 2956   3.211   3.962   0.313
  924HOH      O 2957   0.923   3.801   2.571
  924HOH     H1 2958   0.852   3.842   2.620
  924HOH     H2 2959   1.001   3.848   2.598
  925HOH      O 2960   1.579   2.990   2.762
  925HOH     H1 2961   1.659   3.014   2.715
  925HOH     H2 2962   1.555   2.904   2.726
  926HOH      O 2963   3.167   2.763   2.704
  926HOH     H1 2964   3.124   2.678   2.695
  926HOH     H2 2965   3.095   2.826   2.698
  927HOH      O 2966   3.539   3.511   1.073
  927HOH     H1 2967   3.451   3.478   1.087
  927HOH     H2 2968   3.589   3.478   1.148
  928HOH      O 2969   3.088   1.067   2.531
  928HOH     H1 2970   3.156   1.024   2.480
  928HOH     H2 2971   3.084   1.156   2.497
  929HOH      O 2972   2.860   0.854   0.636
  929HOH     H1 2973   2.863   0.919   0.706
  929HOH     H2 2974   2.896   0.775   0.677
  930HOH      O 2975   2.482   3.369   3.567
  930HOH     H1 2976   2.462   3.438   3.630
  930HOH     H2 2977   2.575   3.382   3.547
  931HOH      O 2978   1.620   2.894   2.068
  931HOH     H1 2979   1.539   2.844   2.076
  931HOH     H2 2980   1.594   2.985   2.086
  932HOH      O 2981   3.778   1.746   1.895
  932HOH     H1 2982   3.861   1.698   1.899
  932HOH     H2 2983   3.803   1.838   1.905
  933HOH      O 2984   2.037   0.368   0.961
  933HOH     H1 2985   2.000   0.360   0.873
  933HOH     H2 2986   2.125   0.402   0.947
  934HOH      O 2987   2.379   2.869   3.025
  934HOH     H1 2988   2.452   2.853   2.965
  934HOH     H2 2989   2.303   2.833   2.981
  935HOH      O 2990   3.655   0.238   2.744
  935HOH     H1 2991   3.591   0.275   2.804
  935HOH     H2 2992   3.699   0.170   2.795
  936HOH      O 2993   1.420   1.122   3.598
  936HOH     H1 2994   1.467   1.142   3.678
  936HOH     H2 2995   1.385   1.034   3.613
  937HOH      O 2996   2.520   0.050   3.899
  937HOH     H1 2997   2.605   0.010   3.918
  937HOH     H2 2998   2.502   0.106   3.975
  938HOH      O 2999   0.622   3.225   3.699
  938HOH     H1 3000   0.653   3.174   3.774
  938HOH     H2 3001   0.696   3.224   3.637
  939HOH      O 3002   0.351   0.209   0.360
  939HOH     H1 3003   0.302   0.198   0.441
  939HOH     H2 3004   0.422   0.268   0.382
  940HOH      O 3005   1.516   2.642   3.965
  940HOH     H1 3006   1.475   2.582   3.903
  940HOH     H2 3007   1.445   2.698   3.995
  941HOH      O 3008   3.308   1.501   0.892
  941HOH     H1 3009   3.299   1.578   0.947
  941HOH     H2 3010   3.350   1.436   0.949
  942HOH      O 3011   2.446   2.090   0.668
  942HOH     H1 3012   2.507   2.151   0.626
  942HOH     H2 3013   2.453   2.010   0.618
  943HOH      O 3014   0.128   1.273   3.633
  943HOH     H1 3015   0.155   1.308   3.718
  943HOH     H2 3016   0.175   1.189   3.626
  944HOH      O 3017   3.394   1.284   3.209
  944HOH     H1 3018   3.422   1.374   3.196
  944HOH     H2 3019   3.475   1.233   3.209
  945HOH      O 3020   0.075   2.016   0.505
  945HOH     H1 3021   0.110   2.093   0.550
  945HOH     H2 3022  -0.020   2.024   0.513
  946HOH      O 3023   3.595   0.400   3.131
  946HOH     H1 3024   3.677   0.430   3.091
  946HOH     H2 3025   3.575   0.467   3.197
  947HOH      O 3026   1.084   0.099   1.604
  947HOH     H1 3027   1.043   0.097   1.518
  947HOH     H2 3028   1.174   0.069   1.589
  948HOH      O 3029   2.210   0.966   1.006
  948HOH     H1 3030   2.141   0.918   0.961
  948HOH     H2 3031   2.184   0.965   1.099
  949HOH      O 3032   0.080   0.531   2.741
  949HOH     H1 3033  -0.015   0.520   2.746
  949HOH     H2 3034   0.098   0.606   2.797
  950HOH      O 3035   3.722   3.275   3.033
  950HOH     H1 3036   3.815   3.251   3.033
  950HOH     H2 3037   3.700   3.285   2.941
  951HOH      O 3038   2.667   0.528   0.472
  951HOH     H1 3039   2.689   0.512   0.563
  951HOH     H2 3040   2.588   0.476   0.457
  952HOH      O 3041   2.985   2.121   3.715
  952HOH     H1 3042   3.025   2.207   3.722
  952HOH     H2 3043   3.059   2.060   3.719
  953HOH      O 3044   0.891   1.062   0.513
  953HOH     H1 3045   0.962   1.043   0.451
  953HOH     H2 3046   0.847   0.978   0.525
  954HOH      O 3047   1.071   3.630   3.315
  954HOH     H1 3048   1.145   3.586   3.274
  954HOH     H2 3049   0.995   3.599   3.266
  955HOH      O 3050   3.054   0.149   2.083
  955HOH     H1 3051   3.084   0.179   2.169
  955HOH     H2 3052   3.039   0.230   2.034
  956HOH      O 3053   2.011   1.099   0.508
  956HOH     H1 3054   2.001   1.184   0.464
  956HOH     H2 3055   1.922   1.068   0.521
  957HOH      O 3056   3.010   1.119   3.841
  957HOH     H1 3057   3.103   1.100   3.850
  957HOH     H2 3058   3.003   1.166   3.758
  958HOH      O 3059   3.647   3.584   1.661
  958HOH     H1 3060   3.685   3.509   1.615
  958HOH     H2 3061   3.688   3.582   1.747
  959HOH      O 3062   1.681   2.266   2.710
  959HOH     H1 3063   1.764   2.278   2.664
  959HOH     H2 3064   1.703   2.280   2.802
  960HOH      O 3065   3.876   2.690   1.987
  960HOH     H1 3066   3.909   2.605   1.957
  960HOH     H2 3067   3.938   2.717   2.055
  961HOH      O 3068   3.114   2.042   2.416
  961HOH     H1 3069   3.174   2.097   2.467
  961HOH     H2 3070   3.154   2.037   2.329
  962HOH      O 3071   2.579   0.888   0.593
  962HOH     H1 3072   2.545   0.904   0.681
  962HOH     H2 3073   2.674   0.882   0.606
  963HOH      O 3074   2.448   2.801   0.808
  963HOH     H1 3075   2.504   2.724   0.795
  963HOH     H2 3076   2.360   2.764   0.822
  964HOH      O 3077   4.017   3.160   0.215
  964HOH     H1 3078   4.095   3.199   0.176
  964HOH     H2 3079   3.945   3.216   0.185
  965HOH      O 3080   3.593   3.175   0.238
  965HOH     H1 3081   3.667   3.217   0.196
  965HOH     H2 3082   3.580   3.225   0.319
  966HOH      O 3083   1.646   0.191   0.214
  966HOH     H1 3084   1.730   0.153   0.239
  966HOH     H2 3085   1.621   0.146   0.134
  967HOH      O 3086   3.489   3.025   0.716
  967HOH     H1 3087   3.562   2.965   0.699
  967HOH     H2 3088   3.431   2.977   0.775
  968HOH      O 3089   2.055   2.870   1.879
  968HOH     H1 3090   1.990   2.811   1.840
  968HOH     H2 3091   2.019   2.958   1.865
  969HOH      O 3092  -0.024   1.618   0.522
  969HOH     H1 3093   0.040   1.655   0.583
  969HOH     H2 3094   0.028   1.559   0.466
  970HOH      O 3095   0.815   1.012   1.097
  970HOH     H1 3096   0.822   1.090   1.042
  970HOH     H2 3097   0.785   1.045   1.181
  971HOH      O 3098   0.137   0.693   1.476
  971HOH     H1 3099   0.065   0.648   1.520
  971HOH     H2 3100   0.097   0.772   1.440
  972HOH      O 3101   1.411   2.521   3.731
  972HOH     H1 3102   1.439   2.473   3.653
  972HOH     H2 3103   1.345   2.582   3.699
  973HOH      O 3104   1.566   3.616   0.825
  973HOH     H1 3105   1.616   3.535   0.811
  973HOH     H2 3106   1.561   3.626   0.920
  974HOH      O 3107   1.932   3.115   0.502
  974HOH     H1 3108   1.891   3.033   0.528
  974HOH     H2 3109   2.017   3.115   0.545
  975HOH      O 3110   2.546   3.450   1.027
  975HOH     H1 3111   2.603   3.385   1.068
  975HOH     H2 3112   2.602   3.494   0.963
  976HOH      O 3113   0.642   1.497   3.724
  976HOH     H1 3114   0.595   1.439   3.664
  976HOH     H2 3115   0.731   1.502   3.688
  977HOH      O 3116   2.842   0.970   0.889
  977HOH     H1 3117   2.932   0.940   0.882
  977HOH     H2 3118   2.843   1.033   0.961
  978HOH      O 3119   1.009   1.541   3.085
  978HOH     H1 3120   0.936   1.501   3.037
  978HOH     H2 3121   1.021   1.627   3.044
  979HOH      O 3122   3.129   1.391   0.375
  979HOH     H1 3123   3.202   1.453   0.382
  979HOH     H2 3124   3.117   1.359   0.465
  980HOH      O 3125   2.813   3.428   0.656
  980HOH     H1 3126   2.862   3.484   0.596
  980HOH     H2 3127   2.874   3.357   0.677
  981HOH      O 3128   0.556   1.348   0.269
  981HOH     H1 3129   0.545   1.286   0.197
  981HOH     H2 3130   0.644   1.382   0.259
  982HOH      O 3131   3.448   0.949   4.011
  982HOH     H1 3132   3.489   0.904   3.937
  982HOH     H2 3133   3.491   0.912   4.088
  983HOH      O 3134   0.967   3.543   0.107
  983HOH     H1 3135   0.893   3.604   0.104
  983HOH     H2 3136   0.994   3.534   0.015
  984HOH      O 3137   0.285   2.904   3.073
  984HOH     H1 3138   0.290   3.000   3.071
  984HOH     H2 3139   0.368   2.874   3.038
  985HOH      O 3140   0.982   2.040   2.356
  985HOH     H1 3141   1.046   2.077   2.295
  985HOH     H2 3142   1.026   2.039   2.440
  986HOH      O 3143   0.804   1.117   3.725
  986HOH     H1 3144   0.823   1.043   3.782
  986HOH     H2 3145   0.850   1.191   3.765
  987HOH      O 3146   0.984   3.521   2.665
  987HOH     H1 3147   0.915   3.543   2.602
  987HOH     H2 3148   1.058   3.576   2.640
  988HOH      O 3149   2.524   1.224   3.114
  988HOH     H1 3150   2.432   1.234   3.140
  988HOH     H2 3151   2.566   1.181   3.188
  989HOH      O 3152   0.758   2.755   1.192
  989HOH     H1 3153   0.681   2.809   1.212
  989HOH     H2 3154   0.818   2.771   1.266
  990HOH      O 3155   1.926   3.835   0.126
  990HOH     H1 3156   1.830   3.840   0.130
  990HOH     H2 3157   1.945   3.741   0.124
  991HOH      O 3158   0.864   0.328   0.385
  991HOH     H1 3159   0.943   0.301   0.339
  991HOH     H2 3160   0.793   0.284   0.338
  992HOH      O 3161   1.403   0.357   3.291
  992HOH     H1 3162   1.405   0.290   3.224
  992HOH     H2 3163   1.309   0.371   3.307
  993HOH      O 3164   1.488   2.146   3.296
  993HOH     H1 3165   1.413   2.149   3.356
  993HOH     H2 3166   1.483   2.059   3.256
  994HOH      O 3167   1.163   0.590   3.133
  994HOH     H1 3168   1.165   0.685   3.134
  994HOH     H2 3169   1.219   0.566   3.058
  995HOH      O 3170   1.928   2.038   1.949
  995HOH     H1 3171   1.893   2.122   1.921
  995HOH     H2 3172   1.881   2.017   2.029
  996HOH      O 3173   2.389   3.105   1.903
  996HOH     H1 3174   2.323   3.134   1.840
  996HOH     H2 3175   2.381   3.010   1.905
  997HOH      O 3176   0.404   3.545   1.589
  997HOH     H1 3177   0.391   3.634   1.623
  997HOH     H2 3178   0.459   3.556   1.512
  998HOH      O 3179   2.430   1.236   2.734
  998HOH     H1 3180   2.474   1.284   2.664
  998HOH     H2 3181   2.420   1.299   2.805
  999HOH      O 3182   0.656   1.887   0.681
  999HOH     H1 3183   0.740   1.888   0.726
  999HOH     H2 3184   0.608   1.814   0.720
 1000HOH      O 3185   2.198   1.437   0.524
 1000HOH     H1 3186   2.286   1.426   0.559
 1000HOH     H2 3187   2.151   1.484   0.592
 1001HOH      O 3188   3.202   3.154   0.831
 1001HOH     H1 3189   3.220   3.086   0.766
 1001HOH     H2 3190   3.284   3.162   0.880
 1002HOH      O 3191   2.870   0.614   3.114
 1002HOH     H1 3192   2.823   0.536   3.143
 1002HOH     H2 3193   2.888   0.662   3.194
 1003HOH      O 3194   3.829   2.535   3.583
 1003HOH     H1 3195   3.877   2.618   3.590
 1003HOH     H2 3196   3.882   2.482   3.524
 1004HOH      O 3197   0.783   2.523   1.443
 1004HOH     H1 3198   0.816   2.447   1.492
 1004HOH     H2 3199   0.798   2.597   1.501
 1005HOH      O 3200   1.137   3.765   3.737
 1005HOH     H1 3201   1.147   3.852   3.776
 1005HOH     H2 3202   1.052   3.769   3.692
 1006HOH      O 3203   2.782   2.689   2.393
 1006HOH     H1 3204   2.850   2.745   2.355
 1006HOH     H2 3205   2.724   2.750   2.440
 1007HOH      O 3206   0.454   1.380   1.181
 1007HOH     H1 3207   0.377   1.407   1.131
 1007HOH     H2 3208   0.498   1.316   1.125
 1008HOH      O 3209   3.803   1.027   1.542
 1008HOH     H1 3210   3.744   1.072   1.481
 1008HOH     H2 3211   3.852   1.097   1.584
 1009HOH      O 3212   1.055   0.214   2.113
 1009HOH     H1 3213   1.017   0.127   2.124
 1009HOH     H2 3214   1.011   0.250   2.036
 1010HOH      O 3215   2.634   2.656   0.369
 1010HOH     H1 3216   2.550   2.682   0.331
 1010HOH     H2 3217   2.690   2.734   0.362
 1011HOH      O 3218   1.533   2.590   2.334
 1011HOH     H1 3219   1.580   2.665   2.370
 1011HOH     H2 3220   1.529   2.527   2.406
 1012HOH      O 3221   0.384   0.942   1.802
 1012HOH     H1 3222   0.449   0.874   1.816
 1012HOH     H2 3223   0.352   0.964   1.890
 1013HOH      O 3224   1.821   3.475   3.914
 1013HOH     H1 3225   1.891   3.511   3.860
 1013HOH     H2 3226   1.826   3.380   3.899
 1014HOH      O 3227   2.695   3.383   2.916
 1014HOH     H1 3228   2.646   3.314   2.959
 1014HOH     H2 3229   2.631   3.428   2.861
 1015HOH      O 3230   1.492   1.095   1.649
 1015HOH     H1 3231   1.548   1.152   1.701
 1015HOH     H2 3232   1.547   1.020   1.628
 1016HOH      O 3233   3.356   0.145   3.634
 1016HOH     H1 3234   3.327   0.177   3.549
 1016HOH     H2 3235   3.423   0.207   3.662
 1017HOH      O 3236   1.869   1.809   0.499
 1017HOH     H1 3237   1.956   1.826   0.535
 1017HOH     H2 3238   1.816   1.883   0.528
 1018HOH      O 3239   3.485   0.051   3.241
 1018HOH     H1 3240   3.471  -0.024   3.183
 1018HOH     H2 3241   3.410   0.108   3.226
 1019HOH      O 3242   3.923   0.840   1.701
 1019HOH     H1 3243   3.919   0.909   1.635
 1019HOH     H2 3244   3.865   0.870   1.771
 1020HOH      O 3245   3.702   3.325   1.226
 1020HOH     H1 3246   3.633   3.265   1.254
 1020HOH     H2 3247   3.764   3.269   1.179
 1021HOH      O 3248   1.100   2.810   3.826
 1021HOH     H1 3249   1.154   2.859   3.763
 1021HOH     H2 3250   1.012   2.814   3.790
 1022HOH      O 3251   1.770   2.175   2.959
 1022HOH     H1 3252   1.845   2.126   2.923
 1022HOH     H2 3253   1.803   2.211   3.041
 1023HOH      O 3254   3.037   0.505   2.215
 1023HOH     H1 3255   3.105   0.445   2.243
 1023HOH     H2 3256   3.019   0.480   2.124
 1024HOH      O 3257   0.848   3.418   0.839
 1024HOH     H1 3258   0.924   3.420   0.780
 1024HOH     H2 3259   0.876   3.362   0.911
 1025HOH      O 3260   0.604   2.954   1.325
 1025HOH     H1 3261   0.588   3.004   1.405
 1025HOH     H2 3262   0.623   3.021   1.259
 1026HOH      O 3263   1.008   3.995   0.240
 1026HOH     H1 3264   0.973   3.988   0.151
 1026HOH     H2 3265   0.959   3.929   0.289
 1027HOH      O 3266   1.773   0.656   2.041
 1027HOH     H1 3267   1.866   0.662   2.061
 1027HOH     H2 3268   1.735   0.612   2.117
 1028HOH      O 3269   1.435   1.127   0.815
 1028HOH     H1 3270   1.512   1.168   0.776
 1028HOH     H2 3271   1.363   1.186   0.793
 1029HOH      O 3272   1.744   0.142   0.855
 1029HOH     H1 3273   1.670   0.174   0.803
 1029HOH     H2 3274   1.765   0.057   0.817
 1030HOH      O 3275   2.096   0.453   0.155
 1030HOH     H1 3276   2.150   0.496   0.088
 1030HOH     H2 3277   2.119   0.360   0.147
 1031HOH      O 3278   2.929   1.726   1.936
 1031HOH     H1 3279   2.839   1.757   1.950
 1031HOH     H2 3280   2.980   1.773   2.002
 1032HOH      O 3281   1.057   2.478   1.767
 1032HOH     H1 3282   0.988   2.444   1.824
 1032HOH     H2 3283   1.130   2.418   1.781
 1033HOH      O 3284   1.469   0.405   2.101
 1033HOH     H1 3285   1.397   0.459   2.069
 1033HOH     H2 3286   1.523   0.464   2.153
 1034HOH      O 3287   3.345   2.249   2.445
 1034HOH     H1 3288   3.405   2.207   2.507
 1034HOH     H2 3289   3.386   2.235   2.360
 1035HOH      O 3290   1.470   2.360   3.482
 1035HOH     H1 3291   1.434   2.417   3.414
 1035HOH     H2 3292   1.395   2.308   3.511
 1036HOH      O 3293   2.120   3.155   2.504
 1036HOH     H1 3294   2.069   3.187   2.578
 1036HOH     H2 3295   2.101   3.062   2.500
 1037HOH      O 3296   3.137   0.250   2.338
 1037HOH     H1 3297   3.197   0.183   2.372
 1037HOH     H2 3298   3.139   0.319   2.403
 1038HOH      O 3299   3.752   1.304   0.557
 1038HOH     H1 3300   3.846   1.300   0.538
 1038HOH     H2 3301   3.731   1.217   0.591
 1039HOH      O 3302   2.750   1.596   0.202
 1039HOH     H1 3303   2.788   1.508   0.202
 1039HOH     H2 3304   2.804   1.646   0.142
 1040HOH      O 3305   1.478   3.754   1.381
 1040HOH     H1 3306   1.420   3.821   1.343
 1040HOH     H2 3307   1.553   3.803   1.414
 1041HOH      O 3308   1.801   2.016   2.241
 1041HOH     H1 3309   1.756   2.046   2.320
 1041HOH     H2 3310   1.894   2.017   2.264
 1042HOH      O 3311   3.581   3.854   3.426
 1042HOH     H1 3312   3.550   3.932   3.380
 1042HOH     H2 3313   3.502   3.805   3.446
 1043HOH      O 3314   0.275   3.535   2.466
 1043HOH     H1 3315   0.205   3.597   2.485
 1043HOH     H2 3316   0.304   3.504   2.552
 1044HOH      O 3317   1.632   2.797   0.184
 1044HOH     H1 3318   1.647   2.750   0.266
 1044HOH     H2 3319   1.628   2.729   0.117
 1045HOH      O 3320   0.889   0.233   0.887
 1045HOH     H1 3321   0.817   0.170   0.892
 1045HOH     H2 3322   0.856   0.301   0.828
 1046HOH      O 3323   2.893   0.553   2.828
 1046HOH     H1 3324   2.837   0.488   2.870
 1046HOH     H2 3325   2.934   0.600   2.900
 1047HOH      O 3326   3.245   2.100   0.048
 1047HOH     H1 3327   3.248   2.140   0.134
 1047HOH     H2 3328   3.286   2.164  -0.010
 1048HOH      O 3329   1.109   2.283   3.608
 1048HOH     H1 3330   1.051   2.357   3.590
 1048HOH     H2 3331   1.063   2.232   3.674
 1049HOH      O 3332   0.542   2.295   1.567
 1049HOH     H1 3333   0.517   2.364   1.628
 1049HOH     H2 3334   0.637   2.289   1.576
 1050HOH      O 3335   0.224   0.839   0.438
 1050HOH     H1 3336   0.133   0.851   0.412
 1050HOH     H2 3337   0.219   0.798   0.525
 1051HOH      O 3338   2.469   1.261   3.907
 1051HOH     H1 3339   2.525   1.272   3.831
 1051HOH     H2 3340   2.457   1.167   3.916
 1052HOH      O 3341   2.413   1.458   2.976
 1052HOH     H1 3342   2.378   1.535   2.931
 1052HOH     H2 3343   2.345   1.436   3.041
 1053HOH      O 3344   2.760   0.459   0.711
 1053HOH     H1 3345   2.710   0.391   0.758
 1053HOH     H2 3346   2.802   0.510   0.780
 1054HOH      O 3347   0.851   1.665   2.315
 1054HOH     H1 3348   0.901   1.622   2.384
 1054HOH     H2 3349   0.901   1.645   2.235
 1055HOH      O 3350   2.133   0.743   1.671
 1055HOH     H1 3351   2.199   0.812   1.675
 1055HOH     H2 3352   2.134   0.713   1.580
 1056HOH      O 3353   1.351   3.597   2.489
 1056HOH     H1 3354   1.259   3.605   2.461
 1056HOH     H2 3355   1.362   3.665   2.555
 1057HOH      O 3356   1.449   1.914   0.831
 1057HOH     H1 3357   1.499   1.994   0.850
 1057HOH     H2 3358   1.439   1.871   0.916
 1058HOH      O 3359   0.399   0.610   1.467
 1058HOH     H1 3360   0.309   0.635   1.484
 1058HOH     H2 3361   0.417   0.643   1.378
 1059HOH      O 3362   3.760   1.947   3.037
 1059HOH     H1 3363   3.770   2.027   2.986
 1059HOH     H2 3364   3.711   1.973   3.114
 1060HOH      O 3365   0.560   0.929   0.418
 1060HOH     H1 3366   0.477   0.883   0.425
 1060HOH     H2 3367   0.546   1.012   0.464
 1061HOH      O 3368   3.992   3.293   1.358
 1061HOH     H1 3369   4.063   3.235   1.385
 1061HOH     H2 3370   3.977   3.272   1.266
 1062HOH      O 3371   1.045   0.868   2.489
 1062HOH     H1 3372   1.094   0.806   2.435
 1062HOH     H2 3373   1.097   0.877   2.569
 1063HOH      O 3374   3.194   2.930   1.825
 1063HOH     H1 3375   3.181   3.024   1.809
 1063HOH     H2 3376   3.106   2.896   1.838
 1064HOH      O 3377   1.654   3.869   2.305
 1064HOH     H1 3378   1.628   3.909   2.387
 1064HOH     H2 3379   1.679   3.942   2.249
 1065HOH      O 3380   1.639   0.807   0.995
 1065HOH     H1 3381   1.693   0.753   0.938
 1065HOH     H2 3382   1.695   0.882   1.018
 1066HOH      O 3383   1.099   2.367   2.804
 1066HOH     H1 3384   1.098   2.434   2.872
 1066HOH     H2 3385   1.107   2.416   2.722
 1067HOH      O 3386   0.395   3.204   0.349
 1067HOH     H1 3387   0.300   3.209   0.333
 1067HOH     H2 3388   0.431   3.276   0.297
 1068HOH      O 3389   1.877   3.096   2.085
 1068HOH     H1 3390   1.890   3.013   2.131
 1068HOH     H2 3391   1.881   3.073   1.992
 1069HOH      O 3392   0.611   1.880   0.360
 1069HOH     H1 3393   0.609   1.976   0.361
 1069HOH     H2 3394   0.632   1.856   0.450
 1070HOH      O 3395   3.861   0.594   3.048
 1070HOH     H1 3396   3.930   0.625   3.106
 1070HOH     H2 3397   3.875   0.499   3.043
 1071HOH      O 3398   2.837   1.989   2.754
 1071HOH     H1 3399   2.743   1.991   2.737
 1071HOH     H2 3400   2.844   1.970   2.848
 1072HOH      O 3401   2.871   3.647   3.337
 1072HOH     H1 3402   2.867   3.568   3.283
 1072HOH     H2 3403   2.780   3.662   3.363
 1073HOH      O 3404   1.568   0.828   1.938
 1073HOH     H1 3405   1.603   0.901   1.888
 1073HOH     H2 3406   1.645   0.779   1.967
 1074HOH      O 3407   3.474   0.221   2.091
 1074HOH     H1 3408   3.445   0.308   2.117
 1074HOH     H2 3409   3.556   0.207   2.139
 1075HOH      O 3410   3.821   1.946   0.293
 1075HOH     H1 3411   3.811   1.978   0.383
 1075HOH     H2 3412   3.734   1.957   0.254
 1076HOH      O 3413   0.961   0.504   1.424
 1076HOH     H1 3414   0.876   0.547   1.418
 1076HOH     H2 3415   0.991   0.496   1.334
 1077HOH      O 3416   3.131   3.545   2.873
 1077HOH     H1 3417   3.058   3.600   2.848
 1077HOH     H2 3418   3.091   3.462   2.899
 1078HOH      O 3419   1.401   4.043   0.537
 1078HOH     H1 3420   1.413   3.959   0.581
 1078HOH     H2 3421   1.357   4.021   0.455
 1079HOH      O 3422   3.479   0.961   3.002
 1079HOH     H1 3423   3.536   0.961   3.078
 1079HOH     H2 3424   3.491   1.047   2.963
 1080HOH      O 3425   2.713   0.350   2.972
 1080HOH     H1 3426   2.628   0.383   2.943
 1080HOH     H2 3427   2.712   0.361   3.067
 1081HOH      O 3428   0.237   1.264   2.067
 1081HOH     H1 3429   0.174   1.259   2.140
 1081HOH     H2 3430   0.304   1.200   2.090
 1082HOH      O 3431   1.633   0.856   1.624
 1082HOH     H1 3432   1.640   0.836   1.530
 1082HOH     H2 3433   1.682   0.786   1.667
 1083HOH      O 3434   1.412   3.046   3.169
 1083HOH     H1 3435   1.446   3.109   3.105
 1083HOH     H2 3436   1.467   2.969   3.156
 1084HOH      O 3437   1.809   0.523   1.279
 1084HOH     H1 3438   1.746   0.485   1.219
 1084HOH     H2 3439   1.860   0.449   1.311
 1085HOH      O 3440   0.969   3.982   2.109
 1085HOH     H1 3441   0.908   3.950   2.177
 1085HOH     H2 3442   0.997   3.903   2.063
 1086HOH      O 3443   2.919   1.494   1.796
 1086HOH     H1 3444   2.934   1.569   1.854
 1086HOH     H2 3445   2.927   1.417   1.852
 1087HOH      O 3446   3.360   2.927   3.944
 1087HOH     H1 3447   3.421   2.908   4.015
 1087HOH     H2 3448   3.392   2.875   3.870
 1088HOH      O 3449   2.544   3.179   2.987
 1088HOH     H1 3450   2.544   3.166   2.892
 1088HOH     H2 3451   2.526   3.092   3.022
 1089HOH      O 3452   3.277   2.194   0.304
 1089HOH     H1 3453   3.278   2.186   0.400
 1089HOH     H2 3454   3.349   2.255   0.284
 1090HOH      O 3455   1.727   2.264   0.760
 1090HOH     H1 3456   1.670   2.230   0.690
 1090HOH     H2 3457   1.815   2.251   0.726
 1091HOH      O 3458   1.414   3.376   0.090
 1091HOH     H1 3459   1.446   3.459   0.053
 1091HOH     H2 3460   1.376   3.330   0.016
 1092HOH      O 3461   0.354   1.428   1.424
 1092HOH     H1 3462   0.412   1.429   1.347
 1092HOH     H2 3463   0.277   1.477   1.396
 1093HOH      O 3464   3.217   1.157   1.864
 1093HOH     H1 3465   3.175   1.090   1.917
 1093HOH     H2 3466   3.230   1.231   1.923
 1094HOH      O 3467   0.409   0.284   2.208
 1094HOH     H1 3468   0.367   0.198   2.203
 1094HOH     H2 3469   0.337   0.346   2.215
 1095HOH      O 3470   1.240   2.058   2.190
 1095HOH     H1 3471   1.334   2.071   2.186
 1095HOH     H2 3472   1.212   2.059   2.098
 1096HOH      O 3473   4.049   0.945   0.811
 1096HOH     H1 3474   4.009   0.858   0.814
 1096HOH     H2 3475   4.010   0.991   0.885
 1097HOH      O 3476   1.634   0.611   2.269
 1097HOH     H1 3477   1.550   0.594   2.311
 1097HOH     H2 3478   1.696   0.555   2.315
 1098HOH      O 3479   1.865   1.204   2.969
 1098HOH     H1 3480   1.891   1.186   3.060
 1098HOH     H2 3481   1.844   1.118   2.934
 1099HOH      O 3482   1.641   0.135   0.590
 1099HOH     H1 3483   1.700   0.065   0.564
 1099HOH     H2 3484   1.558   0.113   0.547
 1100HOH      O 3485   0.201   0.881   3.987
 1100HOH     H1 3486   0.256   0.845   4.056
 1100HOH     H2 3487   0.232   0.839   3.907
 1101HOH      O 3488   1.182   3.775   1.591
 1101HOH     H1 3489   1.241   3.846   1.615
 1101HOH     H2 3490   1.206   3.752   1.502
 1102HOH      O 3491   1.788   1.012   2.535
 1102HOH     H1 3492   1.845   0.943   2.569
 1102HOH     H2 3493   1.759   0.980   2.450
 1103HOH      O 3494   2.404   3.724   2.917
 1103HOH     H1 3495   2.343   3.783   2.963
 1103HOH     H2 3496   2.473   3.708   2.981
 1104HOH      O 3497   3.756   1.021   2.638
 1104HOH     H1 3498   3.758   0.925   2.646
 1104HOH     H2 3499   3.821   1.051   2.701
 1105HOH      O 3500   0.256   2.007   0.280
 1105HOH     H1 3501   0.206   1.980   0.357
 1105HOH     H2 3502   0.192   2.046   0.221
 1106HOH      O 3503   1.975   0.926   1.903
 1106HOH     H1 3504   2.018   0.999   1.947
 1106HOH     H2 3505   2.046   0.877   1.861
 1107HOH      O 3506   0.074   2.425   2.085
 1107HOH     H1 3507   0.090   2.496   2.147
 1107HOH     H2 3508  -0.016   2.397   2.105
 1108HOH      O 3509   3.962   3.864   3.790
 1108HOH     H1 3510   3.919   3.780   3.803
 1108HOH     H2 3511   3.922   3.899   3.710
 1109HOH      O 3512   0.963   1.504   1.325
 1109HOH     H1 3513   0.983   1.588   1.283
 1109HOH     H2 3514   0.868   1.497   1.321
 1110HOH      O 3515   1.167   3.109   0.891
 1110HOH     H1 3516   1.141   3.195   0.858
 1110HOH     H2 3517   1.146   3.049   0.819
 1111HOH      O 3518   0.701   3.786   0.768
 1111HOH     H1 3519   0.777   3.809   0.820
 1111HOH     H2 3520   0.664   3.710   0.813
 1112HOH      O 3521   2.728   2.564   1.926
 1112HOH     H1 3522   2.660   2.608   1.976
 1112HOH     H2 3523   2.682   2.497   1.875
 1113HOH      O 3524   1.935   1.444   0.989
 1113HOH     H1 3525   1.939   1.358   1.031
 1113HOH     H2 3526   1.929   1.506   1.062
 1114HOH      O 3527   0.822   3.053   3.183
 1114HOH     H1 3528   0.816   2.958   3.177
 1114HOH     H2 3529   0.831   3.071   3.277
 1115HOH      O 3530   2.487   3.756   0.887
 1115HOH     H1 3531   2.548   3.686   0.868
 1115HOH     H2 3532   2.451   3.781   0.802
 1116HOH      O 3533   0.352   3.385   2.668
 1116HOH     H1 3534   0.271   3.395   2.718
 1116HOH     H2 3535   0.415   3.349   2.730
 1117HOH      O 3536   3.199   3.703   1.425
 1117HOH     H1 3537   3.274   3.747   1.463
 1117HOH     H2 3538   3.138   3.693   1.499
 1118HOH      O 3539   3.436   1.916   0.322
 1118HOH     H1 3540   3.363   1.937   0.380
 1118HOH     H2 3541   3.513   1.917   0.378
 1119HOH      O 3542   1.163   1.651   2.085
 1119HOH     H1 3543   1.086   1.611   2.124
 1119HOH     H2 3544   1.146   1.745   2.087
 1120HOH      O 3545   4.007   3.706   2.551
 1120HOH     H1 3546   4.066   3.699   2.625
 1120HOH     H2 3547   3.927   3.662   2.580
 1121HOH      O 3548   2.474   2.734   3.431
 1121HOH     H1 3549   2.521   2.805   3.385
 1121HOH     H2 3550   2.544   2.682   3.471
 1122HOH      O 3551   2.108   3.708   2.085
 1122HOH     H1 3552   2.069   3.716   2.172
 1122HOH     H2 3553   2.131   3.798   2.061
 1123HOH      O 3554   2.801   0.018   0.044
 1123HOH     H1 3555   2.768   0.054   0.126
 1123HOH     H2 3556   2.838   0.093  -0.002
 1124HOH      O 3557   1.736   3.619   2.378
 1124HOH     H1 3558   1.724   3.707   2.343
 1124HOH     H2 3559   1.673   3.566   2.329
 1125HOH      O 3560   1.771   3.039   0.123
 1125HOH     H1 3561   1.852   3.023   0.172
 1125HOH     H2 3562   1.712   2.969   0.151
 1126HOH      O 3563   3.662   3.792   2.073
 1126HOH     H1 3564   3.571   3.822   2.074
 1126HOH     H2 3565   3.700   3.827   2.154
 1127HOH      O 3566   2.151   1.285   3.714
 1127HOH     H1 3567   2.060   1.305   3.736
 1127HOH     H2 3568   2.148   1.197   3.676
 1128HOH      O 3569   0.879   1.574   3.612
 1128HOH     H1 3570   0.974   1.577   3.622
 1128HOH     H2 3571   0.860   1.630   3.537
 1129HOH      O 3572   0.969   2.892   2.228
 1129HOH     H1 3573   1.010   2.806   2.217
 1129HOH     H2 3574   0.884   2.873   2.267
 1130HOH      O 3575   1.590   1.770   2.166
 1130HOH     H1 3576   1.586   1.754   2.072
 1130HOH     H2 3577   1.536   1.847   2.180
 1131HOH      O 3578   0.846   3.279   2.753
 1131HOH     H1 3579   0.916   3.234   2.705
 1131HOH     H2 3580   0.850   3.369   2.723
 1132HOH      O 3581   2.644   0.803   0.932
 1132HOH     H1 3582   2.712   0.869   0.940
 1132HOH     H2 3583   2.573   0.848   0.886
 1133HOH      O 3584   3.053   3.292   0.637
 1133HOH     H1 3585   3.127   3.353   0.630
 1133HOH     H2 3586   3.080   3.229   0.704
 1134HOH      O 3587   0.210   3.122   1.884
 1134HOH     H1 3588   0.273   3.088   1.820
 1134HOH     H2 3589   0.222   3.067   1.961
 1135HOH      O 3590   4.001   0.595   0.743
 1135HOH     H1 3591   3.958   0.602   0.658
 1135HOH     H2 3592   3.937   0.549   0.798
 1136HOH      O 3593   1.799   2.750   2.783
 1136HOH     H1 3594   1.786   2.836   2.825
 1136HOH     H2 3595   1.711   2.714   2.773
 1137HOH      O 3596   2.673   2.588   3.561
 1137HOH     H1 3597   2.735   2.516   3.575
 1137HOH     H2 3598   2.691   2.648   3.633
 1138HOH      O 3599   1.713   3.980   3.374
 1138HOH     H1 3600   1.769   3.988   3.297
 1138HOH     H2 3601   1.706   4.070   3.407
 1139HOH      O 3602   1.836   2.266   0.069
 1139HOH     H1 3603   1.766   2.330   0.069
 1139HOH     H2 3604   1.805   2.195   0.013
 1140HOH      O 3605   3.845   1.612   3.978
 1140HOH     H1 3606   3.902   1.667   3.924
 1140HOH     H2 3607   3.835   1.661   4.060
 1141HOH      O 3608   1.910   0.069   0.241
 1141HOH     H1 3609   1.990   0.114   0.211
 1141HOH     H2 3610   1.911  -0.015   0.195
 1142HOH      O 3611   1.534   1.215   0.044
 1142HOH     H1 3612   1.622   1.232   0.009
 1142HOH     H2 3613   1.547   1.143   0.106
 1143HOH      O 3614   0.125   3.441   3.198
 1143HOH     H1 3615   0.031   3.449   3.213
 1143HOH     H2 3616   0.159   3.529   3.212
 1144HOH      O 3617   0.139   3.853   2.363
 1144HOH     H1 3618   0.085   3.808   2.429
 1144HOH     H2 3619   0.159   3.786   2.298
 1145HOH      O 3620   2.023   2.890   0.342
 1145HOH     H1 3621   2.003   2.856   0.429
 1145HOH     H2 3622   2.109   2.931   0.351
 1146HOH      O 3623   1.786   0.261   2.355
 1146HOH     H1 3624   1.791   0.352   2.384
 1146HOH     H2 3625   1.724   0.220   2.416
 1147HOH      O 3626   3.341   0.366   3.987
 1147HOH     H1 3627   3.303   0.453   3.998
 1147HOH     H2 3628   3.279   0.320   3.930
 1148HOH      O 3629   3.959   0.394   3.865
 1148HOH     H1 3630   4.032   0.365   3.919
 1148HOH     H2 3631   3.987   0.377   3.775
 1149HOH      O 3632   3.658   3.316   2.772
 1149HOH     H1 3633   3.736   3.309   2.716
 1149HOH     H2 3634   3.588   3.277   2.720
 1150HOH      O 3635   3.565   1.966   0.069
 1150HOH     H1 3636   3.495   1.927   0.121
 1150HOH     H2 3637   3.560   2.060   0.088
 1151HOH      O 3638   3.748   0.355   1.706
 1151HOH     H1 3639   3.716   0.441   1.734
 1151HOH     H2 3640   3.683   0.325   1.643
 1152HOH      O 3641   2.141   1.875   1.962
 1152HOH     H1 3642   2.054   1.915   1.960
 1152HOH     H2 3643   2.183   1.904   1.881
 1153HOH      O 3644   2.692   1.934   0.807
 1153HOH     H1 3645   2.742   1.976   0.737
 1153HOH     H2 3646   2.738   1.851   0.822
 1154HOH      O 3647   2.828   1.296   2.672
 1154HOH     H1 3648   2.857   1.206   2.655
 1154HOH     H2 3649   2.800   1.295   2.764
 1155HOH      O 3650   3.105   3.098   2.215
 1155HOH     H1 3651   3.057   3.169   2.174
 1155HOH     H2 3652   3.193   3.104   2.178
 1156HOH      O 3653   1.617   3.516   1.291
 1156HOH     H1 3654   1.650   3.507   1.380
 1156HOH     H2 3655   1.523   3.532   1.301
 1157HOH      O 3656   3.143   2.082   2.160
 1157HOH     H1 3657   3.060   2.115   2.124
 1157HOH     H2 3658   3.207   2.101   2.092
 1158HOH      O 3659   0.592   2.646   0.801
 1158HOH     H1 3660   0.562   2.624   0.713
 1158HOH     H2 3661   0.688   2.653   0.793
 1159HOH      O 3662   2.547   1.716   1.239
 1159HOH     H1 3663   2.528   1.632   1.280
 1159HOH     H2 3664   2.507   1.710   1.152
 1160HOH      O 3665   3.464   3.431   3.288
 1160HOH     H1 3666   3.387   3.475   3.253
 1160HOH     H2 3667   3.433   3.342   3.308
 1161HOH      O 3668   0.562   0.498   0.192
 1161HOH     H1 3669   0.603   0.453   0.118
 1161HOH     H2 3670   0.474   0.518   0.162
 1162HOH      O 3671   2.213   2.694   0.862
 1162HOH     H1 3672   2.126   2.673   0.828
 1162HOH     H2 3673   2.215   2.656   0.950
 1163HOH      O 3674   0.639   0.824   2.986
 1163HOH     H1 3675   0.598   0.911   2.979
 1163HOH     H2 3676   0.728   0.842   3.014
 1164HOH      O 3677   0.984   1.834   1.442
 1164HOH     H1 3678   0.981   1.787   1.359
 1164HOH     H2 3679   0.967   1.768   1.509
 1165HOH      O 3680   1.293   2.409   0.326
 1165HOH     H1 3681   1.279   2.443   0.238
 1165HOH     H2 3682   1.261   2.479   0.383
 1166HOH      O 3683   1.341   1.552   3.337
 1166HOH     H1 3684   1.331   1.545   3.242
 1166HOH     H2 3685   1.252   1.561   3.370
 1167HOH      O 3686   3.852   2.348   2.115
 1167HOH     H1 3687   3.772   2.324   2.162
 1167HOH     H2 3688   3.824   2.359   2.024
 1168HOH      O 3689   1.744   1.548   0.382
 1168HOH     H1 3690   1.798   1.627   0.392
 1168HOH     H2 3691   1.662   1.579   0.346
 1169HOH      O 3692   1.001   2.653   3.379
 1169HOH     H1 3693   1.048   2.609   3.309
 1169HOH     H2 3694   0.982   2.584   3.442
 1170HOH      O 3695   1.503   2.083   2.164
 1170HOH     H1 3696   1.536   2.098   2.075
 1170HOH     H2 3697   1.554   2.142   2.219
 1171HOH      O 3698   2.238   2.159   1.851
 1171HOH     H1 3699   2.162   2.196   1.807
 1171HOH     H2 3700   2.308   2.163   1.785
 1172HOH      O 3701   3.217   1.390   2.047
 1172HOH     H1 3702   3.255   1.463   1.998
 1172HOH     H2 3703   3.150   1.430   2.102
 1173HOH      O 3704   2.859   1.046   0.421
 1173HOH     H1 3705   2.804   1.114   0.461
 1173HOH     H2 3706   2.855   0.973   0.483
 1174HOH      O 3707   3.876   0.101   3.526
 1174HOH     H1 3708   3.803   0.144   3.481
 1174HOH     H2 3709   3.906   0.165   3.590
 1175HOH      O 3710   2.655   1.241   0.290
 1175HOH     H1 3711   2.744   1.241   0.325
 1175HOH     H2 3712   2.618   1.158   0.320
 1176HOH      O 3713   1.269   1.864   2.407
 1176HOH     H1 3714   1.228   1.920   2.472
 1176HOH     H2 3715   1.279   1.920   2.330
 1177HOH      O 3716   3.692   0.112   3.050
 1177HOH     H1 3717   3.689   0.181   3.116
 1177HOH     H2 3718   3.619   0.054   3.073
 1178HOH      O 3719   0.274   0.613   1.740
 1178HOH     H1 3720   0.316   0.663   1.810
 1178HOH     H2 3721   0.294   0.662   1.660
 1179HOH      O 3722   2.820   1.331   1.304
 1179HOH     H1 3723   2.732   1.340   1.340
 1179HOH     H2 3724   2.876   1.375   1.368
 1180HOH      O 3725   2.513   2.088   0.957
 1180HOH     H1 3726   2.449   2.095   0.886
 1180HOH     H2 3727   2.573   2.020   0.929
 1181HOH      O 3728   3.608   1.150   1.382
 1181HOH     H1 3729   3.622   1.179   1.292
 1181HOH     H2 3730   3.536   1.086   1.376
 1182HOH      O 3731   2.317   3.725   3.248
 1182HOH     H1 3732   2.346   3.700   3.336
 1182HOH     H2 3733   2.267   3.805   3.262
 1183HOH      O 3734   2.346   2.841   1.931
 1183HOH     H1 3735   2.400   2.809   1.859
 1183HOH     H2 3736   2.256   2.831   1.899
 1184HOH      O 3737   1.425   0.677   1.481
 1184HOH     H1 3738   1.345   0.701   1.433
 1184HOH     H2 3739   1.413   0.717   1.567
 1185HOH      O 3740   2.918   1.693   4.008
 1185HOH     H1 3741   3.000   1.652   4.035
 1185HOH     H2 3742   2.936   1.787   4.012
 1186HOH      O 3743  -0.020   3.968   2.971
 1186HOH     H1 3744  -0.003   3.985   3.064
 1186HOH     H2 3745   0.057   3.921   2.941
 1187HOH      O 3746   2.652   2.976   1.488
 1187HOH     H1 3747   2.716   2.936   1.429
 1187HOH     H2 3748   2.637   3.063   1.452
 1188HOH      O 3749   0.266   3.687   3.194
 1188HOH     H1 3750   0.211   3.753   3.152
 1188HOH     H2 3751   0.328   3.660   3.126
 1189HOH      O 3752   2.751   2.749   3.779
 1189HOH     H1 3753   2.685   2.815   3.759
 1189HOH     H2 3754   2.834   2.797   3.772
 1190HOH      O 3755   1.115   0.373   3.327
 1190HOH     H1 3756   1.111   0.464   3.298
 1190HOH     H2 3757   1.037   0.332   3.290
 1191HOH      O 3758   2.232   3.449   1.660
 1191HOH     H1 3759   2.189   3.463   1.744
 1191HOH     H2 3760   2.160   3.432   1.599
 1192HOH      O 3761   3.763   1.356   2.755
 1192HOH     H1 3762   3.757   1.317   2.668
 1192HOH     H2 3763   3.858   1.365   2.771
 1193HOH      O 3764   0.292   0.499   0.154
 1193HOH     H1 3765   0.262   0.450   0.078
 1193HOH     H2 3766   0.275   0.441   0.228
 1194HOH      O 3767   1.147   2.036   2.572
 1194HOH     H1 3768   1.169   2.129   2.565
 1194HOH     H2 3769   1.167   2.015   2.663
 1195HOH      O 3770   3.368   2.340   1.211
 1195HOH     H1 3771   3.303   2.334   1.280
 1195HOH     H2 3772   3.442   2.385   1.251
 1196HOH      O 3773   4.011   0.349   1.572
 1196HOH     H1 3774   3.956   0.425   1.555
 1196HOH     H2 3775   4.061   0.372   1.650
 1197HOH      O 3776   2.465   0.473   1.258
 1197HOH     H1 3777   2.392   0.443   1.312
 1197HOH     H2 3778   2.485   0.399   1.200
 1198HOH      O 3779   2.985   3.160   0.327
 1198HOH     H1 3780   2.949   3.073   0.345
 1198HOH     H2 3781   2.935   3.219   0.383
 1199HOH      O 3782   1.937   2.247   3.726
 1199HOH     H1 3783   1.889   2.189   3.667
 1199HOH     H2 3784   1.999   2.293   3.670
 1200HOH      O 3785   1.038   3.753   2.914
 1200HOH     H1 3786   0.958   3.754   2.862
 1200HOH     H2 3787   1.018   3.698   2.989
 1201HOH      O 3788   1.230   2.906   3.601
 1201HOH     H1 3789   1.318   2.915   3.564
 1201HOH     H2 3790   1.178   2.972   3.555
 1202HOH      O 3791   3.335   1.393   2.671
 1202HOH     H1 3792   3.310   1.324   2.732
 1202HOH     H2 3793   3.316   1.474   2.718
 1203HOH      O 3794   2.774   0.224   2.216
 1203HOH     H1 3795   2.864   0.242   2.190
 1203HOH     H2 3796   2.773   0.129   2.233
 1204HOH      O 3797   2.532   0.932   2.353
 1204HOH     H1 3798   2.492   0.917   2.267
 1204HOH     H2 3799   2.623   0.954   2.333
 1205HOH      O 3800   2.144   0.894   2.798
 1205HOH     H1 3801   2.112   0.877   2.887
 1205HOH     H2 3802   2.239   0.892   2.806
 1206HOH      O 3803   3.139   1.510   1.607
 1206HOH     H1 3804   3.082   1.463   1.667
 1206HOH     H2 3805   3.081   1.570   1.560
 1207HOH      O 3806   2.891   0.275   2.761
 1207HOH     H1 3807   2.843   0.214   2.706
 1207HOH     H2 3808   2.827   0.305   2.826
 1208HOH      O 3809   1.141   0.915   2.080
 1208HOH     H1 3810   1.131   0.844   2.015
 1208HOH     H2 3811   1.235   0.932   2.083
 1209HOH      O 3812   3.612   1.173   2.899
 1209HOH     H1 3813   3.683   1.129   2.852
 1209HOH     H2 3814   3.593   1.251   2.847
 1210HOH      O 3815   1.149   3.419   3.936
 1210HOH     H1 3816   1.099   3.373   3.868
 1210HOH     H2 3817   1.160   3.507   3.901
 1211HOH      O 3818   2.972   1.966   3.993
 1211HOH     H1 3819   3.032   2.004   4.058
 1211HOH     H2 3820   2.985   2.019   3.914
 1212HOH      O 3821   3.020   0.007   3.525
 1212HOH     H1 3822   3.019  -0.035   3.611
 1212HOH     H2 3823   3.109   0.039   3.515
 1213HOH      O 3824   3.467   2.502   1.917
 1213HOH     H1 3825   3.448   2.446   1.993
 1213HOH     H2 3826   3.539   2.558   1.947
 1214HOH      O 3827   0.731   1.102   0.759
 1214HOH     H1 3828   0.712   1.010   0.776
 1214HOH     H2 3829   0.782   1.101   0.679
 1215HOH      O 3830   2.698   3.705   3.026
 1215HOH     H1 3831   2.780   3.722   2.980
 1215HOH     H2 3832   2.663   3.791   3.046
 1216HOH      O 3833   3.635   1.416   3.968
 1216HOH     H1 3834   3.576   1.467   4.025
 1216HOH     H2 3835   3.717   1.465   3.970
 1217HOH      O 3836   2.142   1.703   3.837
 1217HOH     H1 3837   2.186   1.618   3.829
 1217HOH     H2 3838   2.212   1.766   3.852
 1218HOH      O 3839   2.448   2.222   2.510
 1218HOH     H1 3840   2.516   2.285   2.532
 1218HOH     H2 3841   2.386   2.226   2.583
 1219HOH      O 3842   3.241   0.195   2.745
 1219HOH     H1 3843   3.206   0.251   2.676
 1219HOH     H2 3844   3.286   0.255   2.804
 1220HOH      O 3845   0.815   3.658   3.444
 1220HOH     H1 3846   0.910   3.670   3.446
 1220HOH     H2 3847   0.803   3.563   3.442
 1221HOH      O 3848   1.620   3.917   1.802
 1221HOH     H1 3849   1.560   3.852   1.839
 1221HOH     H2 3850   1.565   3.994   1.787
 1222HOH      O 3851   1.041   3.156   2.195
 1222HOH     H1 3852   1.026   3.064   2.215
 1222HOH     H2 3853   1.015   3.203   2.274
 1223HOH      O 3854   1.363   2.953   0.787
 1223HOH     H1 3855   1.385   3.045   0.778
 1223HOH     H2 3856   1.305   2.949   0.863
 1224HOH      O 3857   0.458   2.457   0.999
 1224HOH     H1 3858   0.515   2.397   1.047
 1224HOH     H2 3859   0.516   2.503   0.939
 1225HOH      O 3860   2.807   2.736   0.850
 1225HOH     H1 3861   2.860   2.776   0.919
 1225HOH     H2 3862   2.820   2.793   0.774
 1226HOH      O 3863   1.807   3.756   1.672
 1226HOH     H1 3864   1.884   3.805   1.702
 1226HOH     H2 3865   1.734   3.797   1.717
 1227HOH      O 3866   0.378   1.202   3.983
 1227HOH     H1 3867   0.471   1.201   4.005
 1227HOH     H2 3868   0.349   1.112   4.000
 1228HOH      O 3869   2.157   1.125   1.885
 1228HOH     H1 3870   2.115   1.161   1.807
 1228HOH     H2 3871   2.251   1.136   1.869
 1229HOH      O 3872   2.023   2.405   3.946
 1229HOH     H1 3873   1.985   2.353   4.017
 1229HOH     H2 3874   2.009   2.352   3.868
 1230HOH      O 3875   1.550   0.818   0.543
 1230HOH     H1 3876   1.474   0.820   0.601
 1230HOH     H2 3877   1.513   0.824   0.455
 1231HOH      O 3878   1.739   0.737   3.559
 1231HOH     H1 3879   1.788   0.714   3.638
 1231HOH     H2 3880   1.774   0.822   3.532
 1232HOH      O 3881   2.235   2.660   3.352
 1232HOH     H1 3882   2.201   2.740   3.311
 1232HOH     H2 3883   2.325   2.682   3.375
 1233HOH      O 3884   1.686   2.298   1.216
 1233HOH     H1 3885   1.757   2.237   1.235
 1233HOH     H2 3886   1.611   2.265   1.267
 1234HOH      O 3887   1.746   3.321   1.156
 1234HOH     H1 3888   1.703   3.392   1.204
 1234HOH     H2 3889   1.833   3.316   1.195
 1235HOH      O 3890   3.430   1.261   0.253
 1235HOH     H1 3891   3.497   1.209   0.208
 1235HOH     H2 3892   3.476   1.338   0.285
 1236HOH      O 3893   1.038   3.146   3.804
 1236HOH     H1 3894   1.091   3.169   3.728
 1236HOH     H2 3895   1.097   3.092   3.857
 1237HOH      O 3896   2.660   2.369   2.553
 1237HOH     H1 3897   2.733   2.327   2.600
 1237HOH     H2 3898   2.697   2.392   2.468
 1238HOH      O 3899   1.182   1.137   0.909
 1238HOH     H1 3900   1.119   1.154   0.978
 1238HOH     H2 3901   1.235   1.065   0.942
 1239HOH      O 3902   0.677   0.957   3.450
 1239HOH     H1 3903   0.658   1.001   3.533
 1239HOH     H2 3904   0.608   0.986   3.391
 1240HOH      O 3905   0.043   2.482   0.421
 1240HOH     H1 3906   0.103   2.418   0.459
 1240HOH     H2 3907   0.042   2.460   0.328
 1241HOH      O 3908   3.482   3.890   2.350
 1241HOH     H1 3909   3.394   3.913   2.318
 1241HOH     H2 3910   3.514   3.971   2.389
 1242HOH      O 3911   1.031   2.036   0.850
 1242HOH     H1 3912   0.947   2.067   0.815
 1242HOH     H2 3913   1.083   2.014   0.773
 1243HOH      O 3914   0.753   0.698   1.428
 1243HOH     H1 3915   0.688   0.683   1.497
 1243HOH     H2 3916   0.797   0.779   1.453
 1244HOH      O 3917   1.082   3.187   2.671
 1244HOH     H1 3918   1.176   3.187   2.655
 1244HOH     H2 3919   1.060   3.094   2.681
 1245HOH      O 3920   1.918   0.835   3.821
 1245HOH     H1 3921   1.845   0.894   3.837
 1245HOH     H2 3922   1.996   0.890   3.831
 1246HOH      O 3923   3.350   2.596   3.917
 1246HOH     H1 3924   3.255   2.610   3.914
 1246HOH     H2 3925   3.383   2.641   3.840
 1247HOH      O 3926   3.863   1.987   1.905
 1247HOH     H1 3927   3.946   2.027   1.931
 1247HOH     H2 3928   3.876   1.963   1.813
 1248HOH      O 3929   3.380   0.687   3.741
 1248HOH     H1 3930   3.334   0.707   3.659
 1248HOH     H2 3931   3.470   0.716   3.726
 1249HOH      O 3932   0.230   3.016  -0.015
 1249HOH     H1 3933   0.227   2.965   0.066
 1249HOH     H2 3934   0.215   3.106   0.012
 1250HOH      O 3935   0.903   3.732   0.972
 1250HOH     H1 3936   0.985   3.781   0.981
 1250HOH     H2 3937   0.928   3.652   0.926
 1251HOH      O 3938   3.557   3.490   2.135
 1251HOH     H1 3939   3.547   3.473   2.229
 1251HOH     H2 3940   3.571   3.584   2.129
 1252HOH      O 3941   3.655   0.205   3.427
 1252HOH     H1 3942   3.591   0.139   3.402
 1252HOH     H2 3943   3.603   0.274   3.469
 1253HOH      O 3944   2.761   2.182   3.294
 1253HOH     H1 3945   2.782   2.265   3.338
 1253HOH     H2 3946   2.821   2.180   3.219
 1254HOH      O 3947   3.919   3.949   1.483
 1254HOH     H1 3948   3.838   3.910   1.516
 1254HOH     H2 3949   3.985   3.881   1.495
 1255HOH      O 3950   2.809   2.830   1.854
 1255HOH     H1 3951   2.790   2.849   1.946
 1255HOH     H2 3952   2.816   2.734   1.851
 1256HOH      O 3953   0.104   3.513   3.703
 1256HOH     H1 3954   0.055   3.431   3.708
 1256HOH     H2 3955   0.095   3.541   3.611
 1257HOH      O 3956   0.123   0.282   0.706
 1257HOH     H1 3957   0.077   0.323   0.779
 1257HOH     H2 3958   0.208   0.258   0.741
 1258HOH      O 3959   1.663   0.157   1.591
 1258HOH     H1 3960   1.653   0.227   1.656
 1258HOH     H2 3961   1.680   0.203   1.509
 1259HOH      O 3962   3.390   3.892   2.641
 1259HOH     H1 3963   3.407   3.907   2.734
 1259HOH     H2 3964   3.439   3.812   2.621
 1260HOH      O 3965   3.778   0.855   3.372
 1260HOH     H1 3966   3.860   0.903   3.354
 1260HOH     H2 3967   3.766   0.863   3.466
 1261HOH      O 3968   3.028   0.980   1.963
 1261HOH     H1 3969   2.952   0.932   1.996
 1261HOH     H2 3970   3.093   0.913   1.945
 1262HOH      O 3971   2.042   0.937   2.196
 1262HOH     H1 3972   2.075   0.926   2.285
 1262HOH     H2 3973   2.038   0.848   2.160
 1263HOH      O 3974   2.967   2.906   3.470
 1263HOH     H1 3975   2.950   2.910   3.564
 1263HOH     H2 3976   3.053   2.948   3.460
 1264HOH      O 3977   3.127   3.983   1.454
 1264HOH     H1 3978   3.047   3.933   1.470
 1264HOH     H2 3979   3.134   4.041   1.529
 1265HOH      O 3980   1.772   3.907   2.752
 1265HOH     H1 3981   1.863   3.913   2.780
 1265HOH     H2 3982   1.765   3.820   2.712
 1266HOH      O 3983   0.675   0.772   0.996
 1266HOH     H1 3984   0.632   0.803   0.917
 1266HOH     H2 3985   0.730   0.845   1.024
 1267HOH      O 3986   3.894   1.052   2.862
 1267HOH     H1 3987   3.974   1.056   2.810
 1267HOH     H2 3988   3.905   0.973   2.916
 1268HOH      O 3989   1.783   0.461   3.536
 1268HOH     H1 3990   1.757   0.549   3.563
 1268HOH     H2 3991   1.863   0.443   3.587
 1269HOH      O 3992   3.629   1.073   3.252
 1269HOH     H1 3993   3.659   1.161   3.227
 1269HOH     H2 3994   3.700   1.037   3.304
 1270HOH      O 3995   3.978   3.806   0.655
 1270HOH     H1 3996   4.025   3.889   0.661
 1270HOH     H2 3997   3.977   3.772   0.745
 1271HOH      O 3998   3.373   3.761   2.042
 1271HOH     H1 3999   3.314   3.837   2.041
 1271HOH     H2 4000   3.364   3.722   1.955
 1272HOH      O 4001   3.394   1.694   0.647
 1272HOH     H1 4002   3.314   1.744   0.627
 1272HOH     H2 4003   3.378   1.656   0.734
 1273HOH      O 4004   3.265   3.387   1.378
 1273HOH     H1 4005   3.329   3.366   1.446
 1273HOH     H2 4006   3.262   3.483   1.379
 1274HOH      O 4007   3.209   0.320   1.285
 1274HOH     H1 4008   3.155   0.301   1.209
 1274HOH     H2 4009   3.156   0.292   1.360
 1275HOH      O 4010   2.409   0.894   0.830
 1275HOH     H1 4011   2.344   0.942   0.882
 1275HOH     H2 4012   2.362   0.817   0.798
 1276HOH      O 4013   0.156   0.777   3.637
 1276HOH     H1 4014   0.162   0.755   3.544
 1276HOH     H2 4015   0.225   0.842   3.651
 1277HOH      O 4016   0.899   1.629   1.600
 1277HOH     H1 4017   0.911   1.623   1.695
 1277HOH     H2 4018   0.929   1.544   1.567
 1278HOH      O 4019   3.866   3.634   3.882
 1278HOH     H1 4020   3.934   3.601   3.941
 1278HOH     H2 4021   3.797   3.567   3.886
 1279HOH      O 4022   3.169   2.744   2.097
 1279HOH     H1 4023   3.133   2.667   2.053
 1279HOH     H2 4024   3.226   2.784   2.031
 1280HOH      O 4025   0.992   3.275   0.164
 1280HOH     H1 4026   1.044   3.247   0.089
 1280HOH     H2 4027   0.978   3.369   0.150
 1281HOH      O 4028   1.367   2.193   2.806
 1281HOH     H1 4029   1.316   2.216   2.728
 1281HOH     H2 4030   1.437   2.137   2.773
 1282HOH      O 4031   2.768   3.867   0.521
 1282HOH     H1 4032   2.841   3.825   0.565
 1282HOH     H2 4033   2.801   3.954   0.496
 1283HOH      O 4034   0.715   0.226   0.167
 1283HOH     H1 4035   0.702   0.284   0.092
 1283HOH     H2 4036   0.682   0.141   0.138
 1284HOH      O 4037   3.853   1.183   0.870
 1284HOH     H1 4038   3.774   1.139   0.838
 1284HOH     H2 4039   3.896   1.214   0.790
 1285HOH      O 4040   1.782   1.834   2.896
 1285HOH     H1 4041   1.865   1.882   2.904
 1285HOH     H2 4042   1.725   1.873   2.962
 1286HOH      O 4043   0.504   1.330   2.907
 1286HOH     H1 4044   0.533   1.359   2.993
 1286HOH     H2 4045   0.492   1.236   2.916
 1287HOH      O 4046   1.617   2.689   0.447
 1287HOH     H1 4047   1.667   2.629   0.502
 1287HOH     H2 4048   1.624   2.773   0.492
 1288HOH      O 4049   1.500   3.445   3.242
 1288HOH     H1 4050   1.512   3.538   3.259
 1288HOH     H2 4051   1.571   3.421   3.184
 1289HOH      O 4052   2.716   1.297   2.941
 1289HOH     H1 4053   2.657   1.227   2.968
 1289HOH     H2 4054   2.721   1.355   3.017
 1290HOH      O 4055   3.389   2.454   2.601
 1290HOH     H1 4056   3.367   2.371   2.560
 1290HOH     H2 4057   3.485   2.458   2.598
 1291HOH      O 4058   2.161   0.998   1.274
 1291HOH     H1 4059   2.201   0.918   1.309
 1291HOH     H2 4060   2.126   1.043   1.351
 1292HOH      O 4061   1.747   1.243   0.318
 1292HOH     H1 4062   1.720   1.271   0.406
 1292HOH     H2 4063   1.842   1.244   0.320
 1293HOH      O 4064   1.862   3.102   1.479
 1293HOH     H1 4065   1.777   3.072   1.447
 1293HOH     H2 4066   1.912   3.022   1.495
 1294HOH      O 4067   3.224   3.604   2.543
 1294HOH     H1 4068   3.213   3.510   2.533
 1294HOH     H2 4069   3.135   3.636   2.563
 1295HOH      O 4070   2.074   0.473   2.262
 1295HOH     H1 4071   2.168   0.489   2.269
 1295HOH     H2 4072   2.066   0.378   2.254
 1296HOH      O 4073   2.311   1.933   3.660
 1296HOH     H1 4074   2.284   1.991   3.731
 1296HOH     H2 4075   2.319   1.990   3.584
 1297HOH      O 4076   3.250   0.322   0.263
 1297HOH     H1 4077   3.250   0.228   0.282
 1297HOH     H2 4078   3.322   0.334   0.201
 1298HOH      O 4079   2.955   3.573   0.457
 1298HOH     H1 4080   3.021   3.503   0.451
 1298HOH     H2 4081   2.898   3.558   0.381
 1299HOH      O 4082   0.092   2.088   0.090
 1299HOH     H1 4083   0.004   2.117   0.065
 1299HOH     H2 4084   0.138   2.079   0.007
 1300HOH      O 4085   3.915   0.604   1.919
 1300HOH     H1 4086   3.947   0.676   1.973
 1300HOH     H2 4087   3.970   0.606   1.841
 1301HOH      O 4088   2.457   3.665   2.397
 1301HOH     H1 4089   2.419   3.753   2.406
 1301HOH     H2 4090   2.415   3.628   2.320
 1302HOH      O 4091   1.825   1.628   3.912
 1302HOH     H1 4092   1.759   1.567   3.881
 1302HOH     H2 4093   1.858   1.589   3.993
 1303HOH      O 4094   3.270   3.603   0.239
 1303HOH     H1 4095   3.312   3.642   0.163
 1303HOH     H2 4096   3.316   3.642   0.314
 1304HOH      O 4097   1.848   0.130   3.887
 1304HOH     H1 4098   1.877   0.057   3.833
 1304HOH     H2 4099   1.924   0.189   3.891
 1305HOH      O 4100   3.781   3.612   1.899
 1305HOH     H1 4101   3.832   3.545   1.945
 1305HOH     H2 4102   3.744   3.666   1.968
 1306HOH      O 4103   0.414   1.472   0.510
 1306HOH     H1 4104   0.331   1.480   0.463
 1306HOH     H2 4105   0.482   1.488   0.444
 1307HOH      O 4106   0.424   2.924   2.789
 1307HOH     H1 4107   0.464   2.867   2.854
 1307HOH     H2 4108   0.493   2.986   2.766
 1308HOH      O 4109   2.357   2.145   3.474
 1308HOH     H1 4110   2.285   2.115   3.418
 1308HOH     H2 4111   2.340   2.239   3.486
 1309HOH      O 4112   1.551   2.220   0.546
 1309HOH     H1 4113   1.466   2.240   0.585
 1309HOH     H2 4114   1.532   2.158   0.476
 1310HOH      O 4115   3.265   2.363   3.544
 1310HOH     H1 4116   3.197   2.401   3.489
 1310HOH     H2 4117   3.344   2.367   3.489
 1311HOH      O 4118   0.418   2.384   1.303
 1311HOH     H1 4119   0.432   2.305   1.251
 1311HOH     H2 4120   0.462   2.367   1.386
 1312HOH      O 4121   3.953   2.286   1.523
 1312HOH     H1 4122   3.874   2.289   1.576
 1312HOH     H2 4123   4.024   2.284   1.587
 1313HOH      O 4124   1.675   1.937   1.066
 1313HOH     H1 4125   1.658   2.002   0.998
 1313HOH     H2 4126   1.729   1.982   1.130
 1314HOH      O 4127   0.508   2.099   0.540
 1314HOH     H1 4128   0.541   2.182   0.576
 1314HOH     H2 4129   0.573   2.034   0.566
 1315HOH      O 4130   0.402   1.021   2.067
 1315HOH     H1 4131   0.494   1.042   2.052
 1315HOH     H2 4132   0.402   0.968   2.146
 1316HOH      O 4133   2.337   0.168   2.201
 1316HOH     H1 4134   2.295   0.214   2.274
 1316HOH     H2 4135   2.408   0.227   2.174
 1317HOH      O 4136   0.491   0.617   3.050
 1317HOH     H1 4137   0.540   0.697   3.028
 1317HOH     H2 4138   0.409   0.649   3.087
 1318HOH      O 4139   2.234  -0.017   1.712
 1318HOH     H1 4140   2.242   0.078   1.712
 1318HOH     H2 4141   2.323  -0.049   1.724
 1319HOH      O 4142   1.857   0.630   0.936
 1319HOH     H1 4143   1.827   0.572   0.865
 1319HOH     H2 4144   1.826   0.587   1.016
 1320HOH      O 4145   2.837   0.252   3.877
 1320HOH     H1 4146   2.932   0.244   3.875
 1320HOH     H2 4147   2.806   0.186   3.814
 1321HOH      O 4148   2.360   2.194   0.332
 1321HOH     H1 4149   2.317   2.279   0.320
 1321HOH     H2 4150   2.433   2.212   0.391
 1322HOH      O 4151   3.644   3.225   2.197
 1322HOH     H1 4152   3.738   3.233   2.210
 1322HOH     H2 4153   3.610   3.313   2.213
 1323HOH      O 4154   0.108   3.535   0.385
 1323HOH     H1 4155   0.119   3.442   0.405
 1323HOH     H2 4156   0.030   3.561   0.433
 1324HOH      O 4157   3.244   3.322   2.403
 1324HOH     H1 4158   3.295   3.306   2.323
 1324HOH     H2 4159   3.157   3.343   2.372
 1325HOH      O 4160   0.601   2.624   2.074
 1325HOH     H1 4161   0.569   2.540   2.107
 1325HOH     H2 4162   0.525   2.664   2.033
 1326HOH      O 4163   0.201   3.821   2.896
 1326HOH     H1 4164   0.188   3.731   2.866
 1326HOH     H2 4165   0.284   3.848   2.856
 1327HOH      O 4166   1.114   0.673   0.999
 1327HOH     H1 4167   1.037   0.700   1.049
 1327HOH     H2 4168   1.096   0.701   0.910
 1328HOH      O 4169   2.758   0.915   2.061
 1328HOH     H1 4170   2.724   0.865   1.988
 1328HOH     H2 4171   2.768   0.852   2.132
 1329HOH      O 4172   3.145   0.965   1.674
 1329HOH     H1 4173   3.217   0.914   1.710
 1329HOH     H2 4174   3.151   1.050   1.717
 1330HOH      O 4175   3.199   1.900   0.752
 1330HOH     H1 4176   3.129   1.863   0.805
 1330HOH     H2 4177   3.275   1.901   0.810
 1331HOH      O 4178  -0.002   2.713   0.598
 1331HOH     H1 4179   0.035   2.633   0.561
 1331HOH     H2 4180   0.001   2.777   0.527
 1332HOH      O 4181   3.595   3.563   2.869
 1332HOH     H1 4182   3.595   3.547   2.964
 1332HOH     H2 4183   3.589   3.476   2.830
 1333HOH      O 4184   0.132   1.252   1.802
 1333HOH     H1 4185   0.042   1.224   1.818
 1333HOH     H2 4186   0.164   1.281   1.887
 1334HOH      O 4187   1.551   3.469   2.950
 1334HOH     H1 4188   1.580   3.458   2.860
 1334HOH     H2 4189   1.461   3.500   2.943
 1335HOH      O 4190   2.916   1.070   3.043
 1335HOH     H1 4191   3.010   1.053   3.035
 1335HOH     H2 4192   2.910   1.144   3.103
 1336HOH      O 4193   0.415   4.017   3.631
 1336HOH     H1 4194   0.366   3.977   3.704
 1336HOH     H2 4195   0.348   4.066   3.582
 1337HOH      O 4196   1.143   3.909   3.427
 1337HOH     H1 4197   1.126   3.832   3.373
 1337HOH     H2 4198   1.238   3.913   3.434
 1338HOH      O 4199   2.417   0.695   1.115
 1338HOH     H1 4200   2.417   0.604   1.144
 1338HOH     H2 4201   2.480   0.698   1.043
 1339HOH      O 4202   3.245   2.166   1.796
 1339HOH     H1 4203   3.285   2.080   1.804
 1339HOH     H2 4204   3.272   2.198   1.710
 1340HOH      O 4205   2.744   1.984   3.720
 1340HOH     H1 4206   2.717   1.989   3.628
 1340HOH     H2 4207   2.834   2.018   3.720
 1341HOH      O 4208   2.813   0.674   2.221
 1341HOH     H1 4209   2.829   0.733   2.295
 1341HOH     H2 4210   2.876   0.604   2.232
 1342HOH      O 4211   2.136   2.394   3.346
 1342HOH     H1 4212   2.161   2.486   3.337
 1342HOH     H2 4213   2.041   2.396   3.358
 1343HOH      O 4214   0.974   3.535   1.260
 1343HOH     H1 4215   1.009   3.624   1.258
 1343HOH     H2 4216   1.040   3.483   1.213
 1344HOH      O 4217   2.872   0.888   1.675
 1344HOH     H1 4218   2.862   0.981   1.659
 1344HOH     H2 4219   2.966   0.876   1.688
 1345HOH      O 4220   3.154   0.375   1.750
 1345HOH     H1 4221   3.239   0.412   1.771
 1345HOH     H2 4222   3.108   0.446   1.703
 1346HOH      O 4223   3.096   2.375   3.755
 1346HOH     H1 4224   3.159   2.362   3.684
 1346HOH     H2 4225   3.149   2.398   3.831
 1347HOH      O 4226   2.572   1.755   3.115
 1347HOH     H1 4227   2.651   1.728   3.069
 1347HOH     H2 4228   2.518   1.796   3.047
 1348HOH      O 4229   2.170   0.171   2.728
 1348HOH     H1 4230   2.160   0.205   2.817
 1348HOH     H2 4231   2.256   0.130   2.728
 1349HOH      O 4232   2.407   1.334   3.594
 1349HOH     H1 4233   2.346   1.324   3.667
 1349HOH     H2 4234   2.493   1.333   3.634
 1350HOH      O 4235   2.778   2.474   3.304
 1350HOH     H1 4236   2.722   2.430   3.239
 1350HOH     H2 4237   2.719   2.497   3.375
 1351HOH      O 4238   0.689   1.915   3.826
 1351HOH     H1 4239   0.760   1.860   3.792
 1351HOH     H2 4240   0.698   1.997   3.778
 1352HOH      O 4241   0.152   0.438   1.341
 1352HOH     H1 4242   0.127   0.530   1.352
 1352HOH     H2 4243   0.116   0.394   1.418
 1353HOH      O 4244   2.843   3.307   2.121
 1353HOH     H1 4245   2.806   3.395   2.118
 1353HOH     H2 4246   2.774   3.251   2.086
 1354HOH      O 4247   3.568   2.899   1.428
 1354HOH     H1 4248   3.493   2.882   1.484
 1354HOH     H2 4249   3.639   2.847   1.467
 1355HOH      O 4250   0.261   1.003   2.576
 1355HOH     H1 4251   0.351   0.997   2.607
 1355HOH     H2 4252   0.243   0.919   2.536
 1356HOH      O 4253   3.064   1.603   3.036
 1356HOH     H1 4254   3.047   1.561   3.121
 1356HOH     H2 4255   3.160   1.607   3.031
 1357HOH      O 4256   0.675   0.307   1.845
 1357HOH     H1 4257   0.664   0.303   1.750
 1357HOH     H2 4258   0.611   0.373   1.874
 1358HOH      O 4259   3.375   1.168   3.610
 1358HOH     H1 4260   3.437   1.235   3.641
 1358HOH     H2 4261   3.341   1.129   3.691
 1359HOH      O 4262   1.533   0.652   2.981
 1359HOH     H1 4263   1.575   0.569   2.959
 1359HOH     H2 4264   1.531   0.654   3.077
 1360HOH      O 4265   2.506   0.194   0.308
 1360HOH     H1 4266   2.494   0.232   0.396
 1360HOH     H2 4267   2.601   0.189   0.298
 1361HOH      O 4268   2.097   3.709   1.244
 1361HOH     H1 4269   2.074   3.637   1.303
 1361HOH     H2 4270   2.173   3.750   1.286
 1362HOH      O 4271   0.641   1.993   2.021
 1362HOH     H1 4272   0.679   1.961   2.103
 1362HOH     H2 4273   0.603   1.915   1.980
 1363HOH      O 4274   1.202   2.292   1.286
 1363HOH     H1 4275   1.119   2.249   1.265
 1363HOH     H2 4276   1.177   2.381   1.313
 1364HOH      O 4277   2.208   3.523   2.653
 1364HOH     H1 4278   2.125   3.519   2.699
 1364HOH     H2 4279   2.199   3.595   2.591
 1365HOH      O 4280   1.320   2.982   2.269
 1365HOH     H1 4281   1.341   2.899   2.226
 1365HOH     H2 4282   1.226   2.991   2.258
 1366HOH      O 4283   0.560   0.213   3.669
 1366HOH     H1 4284   0.496   0.142   3.661
 1366HOH     H2 4285   0.645   0.169   3.667
 1367HOH      O 4286   2.073   1.104   2.651
 1367HOH     H1 4287   2.103   1.033   2.707
 1367HOH     H2 4288   2.097   1.077   2.562
 1368HOH      O 4289   1.910   2.172   2.484
 1368HOH     H1 4290   1.978   2.155   2.419
 1368HOH     H2 4291   1.933   2.118   2.559
 1369HOH      O 4292   1.259   3.466   1.624
 1369HOH     H1 4293   1.299   3.415   1.695
 1369HOH     H2 4294   1.183   3.507   1.665
 1370HOH      O 4295   1.998   3.222   1.229
 1370HOH     H1 4296   1.962   3.172   1.302
 1370HOH     H2 4297   2.091   3.233   1.250
 1371HOH      O 4298   2.279   2.507   1.373
 1371HOH     H1 4299   2.190   2.507   1.406
 1371HOH     H2 4300   2.302   2.600   1.365
 1372HOH      O 4301   2.033   1.314   0.355
 1372HOH     H1 4302   2.082   1.361   0.423
 1372HOH     H2 4303   2.090   1.318   0.278
 1373HOH      O 4304   3.377   2.184   0.899
 1373HOH     H1 4305   3.455   2.218   0.942
 1373HOH     H2 4306   3.384   2.089   0.911
 1374HOH      O 4307   3.908   3.321   0.793
 1374HOH     H1 4308   3.930   3.410   0.820
 1374HOH     H2 4309   3.813   3.315   0.803
 1375HOH      O 4310   0.729   2.139   3.622
 1375HOH     H1 4311   0.820   2.132   3.650
 1375HOH     H2 4312   0.718   2.070   3.556
 1376HOH      O 4313   3.641   3.640   3.207
 1376HOH     H1 4314   3.591   3.566   3.242
 1376HOH     H2 4315   3.683   3.679   3.283
 1377HOH      O 4316   1.148   3.180   3.202
 1377HOH     H1 4317   1.112   3.154   3.117
 1377HOH     H2 4318   1.229   3.129   3.211
 1378HOH      O 4319   3.172   1.404   1.351
 1378HOH     H1 4320   3.145   1.422   1.441
 1378HOH     H2 4321   3.256   1.448   1.342
 1379HOH      O 4322   1.278   2.956   1.093
 1379HOH     H1 4323   1.214   2.964   1.164
 1379HOH     H2 4324   1.250   3.021   1.028
 1380HOH      O 4325   0.490   3.353   0.118
 1380HOH     H1 4326   0.558   3.392   0.173
 1380HOH     H2 4327   0.507   3.389   0.030
 1381HOH      O 4328   3.650   3.014   3.765
 1381HOH     H1 4329   3.712   2.981   3.700
 1381HOH     H2 4330   3.684   2.983   3.849
 1382HOH      O 4331   1.114   1.710   3.669
 1382HOH     H1 4332   1.173   1.723   3.595
 1382HOH     H2 4333   1.033   1.755   3.644
 1383HOH      O 4334   3.771   3.728   2.722
 1383HOH     H1 4335   3.712   3.657   2.746
 1383HOH     H2 4336   3.775   3.784   2.800
 1384HOH      O 4337   1.412   3.562   2.038
 1384HOH     H1 4338   1.419   3.517   1.954
 1384HOH     H2 4339   1.408   3.655   2.015
 1385HOH      O 4340   3.481   0.140   0.951
 1385HOH     H1 4341   3.488   0.046   0.967
 1385HOH     H2 4342   3.481   0.180   1.038
 1386HOH      O 4343   2.844   0.250   3.516
 1386HOH     H1 4344   2.794   0.172   3.540
 1386HOH     H2 4345   2.930   0.216   3.492
 1387HOH      O 4346   3.702   3.331   0.595
 1387HOH     H1 4347   3.772   3.383   0.557
 1387HOH     H2 4348   3.740   3.244   0.607
 1388HOH      O 4349   0.043   0.767   2.092
 1388HOH     H1 4350   0.135   0.742   2.096
 1388HOH     H2 4351   0.045   0.861   2.073
 1389HOH      O 4352   1.164   1.954   1.929
 1389HOH     H1 4353   1.074   1.928   1.910
 1389HOH     H2 4354   1.200   1.980   1.844
 1390HOH      O 4355   1.215   0.445   3.850
 1390HOH     H1 4356   1.253   0.357   3.858
 1390HOH     H2 4357   1.225   0.466   3.757
 1391HOH      O 4358   2.150   0.564   1.863
 1391HOH     H1 4359   2.147   0.640   1.806
 1391HOH     H2 4360   2.112   0.493   1.810
 1392HOH      O 4361   0.296   0.977   0.849
 1392HOH     H1 4362   0.219   0.949   0.898
 1392HOH     H2 4363   0.261   1.032   0.779
 1393HOH      O 4364   0.322   3.968   2.652
 1393HOH     H1 4365   0.378   3.897   2.620
 1393HOH     H2 4366   0.339   4.041   2.593
 1394HOH      O 4367   2.156   2.572   0.605
 1394HOH     H1 4368   2.201   2.488   0.617
 1394HOH     H2 4369   2.103   2.561   0.527
 1395HOH      O 4370   3.149   2.510   0.184
 1395HOH     H1 4371   3.101   2.578   0.231
 1395HOH     H2 4372   3.232   2.502   0.231
 1396HOH      O 4373   3.621   2.460   3.172
 1396HOH     H1 4374   3.536   2.491   3.141
 1396HOH     H2 4375   3.599   2.396   3.240
 1397HOH      O 4376   2.466   0.339   0.518
 1397HOH     H1 4377   2.400   0.377   0.460
 1397HOH     H2 4378   2.456   0.387   0.600
 1398HOH      O 4379   3.090   1.536   3.725
 1398HOH     H1 4380   3.007   1.584   3.731
 1398HOH     H2 4381   3.112   1.514   3.816
 1399HOH      O 4382   1.500   2.874   3.587
 1399HOH     H1 4383   1.518   2.831   3.504
 1399HOH     H2 4384   1.572   2.848   3.645
 1400HOH      O 4385   0.065   2.983   1.506
 1400HOH     H1 4386   0.133   3.050   1.490
 1400HOH     H2 4387  -0.012   3.034   1.532
 1401HOH      O 4388   1.524   1.911   1.502
 1401HOH     H1 4389   1.517   1.898   1.407
 1401HOH     H2 4390   1.606   1.868   1.526
 1402HOH      O 4391   1.209   0.072   2.462
 1402HOH     H1 4392   1.276   0.070   2.530
 1402HOH     H2 4393   1.220  -0.010   2.414
 1403HOH      O 4394   3.789   3.952   2.576
 1403HOH     H1 4395   3.827   3.865   2.591
 1403HOH     H2 4396   3.794   3.996   2.661
 1404HOH      O 4397   0.794   0.883   3.912
 1404HOH     H1 4398   0.716   0.855   3.959
 1404HOH     H2 4399   0.832   0.951   3.967
 1405HOH      O 4400   2.798   1.624   2.219
 1405HOH     H1 4401   2.883   1.589   2.194
 1405HOH     H2 4402   2.781   1.587   2.306
 1406HOH      O 4403   2.936   3.087  -0.001
 1406HOH     H1 4404   3.005   3.025   0.022
 1406HOH     H2 4405   2.951   3.161   0.057
 1407HOH      O 4406   0.812   2.511   0.609
 1407HOH     H1 4407   0.818   2.605   0.592
 1407HOH     H2 4408   0.837   2.501   0.701
 1408HOH      O 4409   2.060   1.783   0.139
 1408HOH     H1 4410   2.053   1.801   0.046
 1408HOH     H2 4411   2.092   1.865   0.177
 1409HOH      O 4412   1.345   0.112   3.654
 1409HOH     H1 4413   1.360   0.205   3.636
 1409HOH     H2 4414   1.380   0.067   3.578
 1410HOH      O 4415   0.848   1.038   2.528
 1410HOH     H1 4416   0.916   0.993   2.478
 1410HOH     H2 4417   0.800   0.967   2.573
 1411HOH      O 4418   2.642   1.049   3.294
 1411HOH     H1 4419   2.698   1.099   3.353
 1411HOH     H2 4420   2.702   0.990   3.248
 1412HOH      O 4421   3.737   0.235   2.265
 1412HOH     H1 4422   3.795   0.287   2.320
 1412HOH     H2 4423   3.796   0.183   2.210
 1413HOH      O 4424   3.080   3.440   1.867
 1413HOH     H1 4425   3.006   3.397   1.909
 1413HOH     H2 4426   3.091   3.522   1.915
 1414HOH      O 4427   2.332   1.062   2.521
 1414HOH     H1 4428   2.413   1.011   2.523
 1414HOH     H2 4429   2.335   1.115   2.601
 1415HOH      O 4430   1.260   2.725   1.718
 1415HOH     H1 4431   1.220   2.654   1.667
 1415HOH     H2 4432   1.279   2.793   1.654
 1416HOH      O 4433   2.015   2.838   0.616
 1416HOH     H1 4434   2.038   2.746   0.616
 1416HOH     H2 4435   2.091   2.882   0.654
 1417HOH      O 4436   2.271   2.449   0.281
 1417HOH     H1 4437   2.225   2.475   0.201
 1417HOH     H2 4438   2.311   2.530   0.312
 1418HOH      O 4439   1.688   3.747   1.105
 1418HOH     H1 4440   1.659   3.665   1.143
 1418HOH     H2 4441   1.750   3.783   1.168
 1419HOH      O 4442   2.259   1.594   1.831
 1419HOH     H1 4443   2.199   1.579   1.758
 1419HOH     H2 4444   2.208   1.574   1.909
 1420HOH      O 4445   2.469   2.521   3.206
 1420HOH     H1 4446   2.406   2.451   3.189
 1420HOH     H2 4447   2.431   2.570   3.279
 1421HOH      O 4448   0.140   0.449   0.447
 1421HOH     H1 4449   0.140   0.411   0.534
 1421HOH     H2 4450   0.070   0.514   0.449
 1422HOH      O 4451   0.529   1.674  -0.018
 1422HOH     H1 4452   0.583   1.629   0.047
 1422HOH     H2 4453   0.450   1.699   0.029
 1423HOH      O 4454   2.201   2.937   3.240
 1423HOH     H1 4455   2.263   2.900   3.177
 1423HOH     H2 4456   2.202   3.031   3.222
 1424HOH      O 4457   0.506   2.451   2.267
 1424HOH     H1 4458   0.514   2.383   2.333
 1424HOH     H2 4459   0.432   2.424   2.212
 1425HOH      O 4460   0.126   3.366   2.297
 1425HOH     H1 4461   0.160   3.395   2.212
 1425HOH     H2 4462   0.191   3.398   2.360
 1426HOH      O 4463   2.430   3.521   3.807
 1426HOH     H1 4464   2.471   3.607   3.810
 1426HOH     H2 4465   2.359   3.526   3.872
 1427HOH      O 4466   2.586   0.694   1.414
 1427HOH     H1 4467   2.551   0.612   1.378
 1427HOH     H2 4468   2.584   0.681   1.508
 1428HOH      O 4469   0.760   0.284   1.454
 1428HOH     H1 4470   0.855   0.271   1.448
 1428HOH     H2 4471   0.724   0.227   1.386
 1429HOH      O 4472   1.222  -0.001   3.881
 1429HOH     H1 4473   1.218   0.070   3.944
 1429HOH     H2 4474   1.274   0.035   3.809
 1430HOH      O 4475   0.675   0.037   1.954
 1430HOH     H1 4476   0.729   0.060   2.030
 1430HOH     H2 4477   0.689   0.109   1.892
 1431HOH      O 4478   1.227   1.332   3.663
 1431HOH     H1 4479   1.271   1.394   3.722
 1431HOH     H2 4480   1.294   1.268   3.641
 1432HOH      O 4481   0.618   0.218   2.824
 1432HOH     H1 4482   0.599   0.267   2.904
 1432HOH     H2 4483   0.660   0.138   2.854
 1433HOH      O 4484   3.593   3.475   2.404
 1433HOH     H1 4485   3.553   3.541   2.460
 1433HOH     H2 4486   3.686   3.478   2.426
 1434HOH      O 4487   0.317   2.260   0.435
 1434HOH     H1 4488   0.270   2.290   0.513
 1434HOH     H2 4489   0.361   2.179   0.464
 1435HOH      O 4490   2.039   1.596   1.626
 1435HOH     H1 4491   1.998   1.668   1.578
 1435HOH     H2 4492   1.970   1.565   1.685
 1436HOH      O 4493   1.121   2.704   2.734
 1436HOH     H1 4494   1.121   2.621   2.687
 1436HOH     H2 4495   1.113   2.679   2.826
 1437HOH      O 4496   2.802   2.716   2.726
 1437HOH     H1 4497   2.855   2.696   2.804
 1437HOH     H2 4498   2.849   2.673   2.654
 1438HOH      O 4499   0.947   2.560   3.817
 1438HOH     H1 4500   0.968   2.472   3.848
 1438HOH     H2 4501   1.021   2.614   3.846
 1439HOH      O 4502   3.531   3.912   0.455
 1439HOH     H1 4503   3.541   3.974   0.527
 1439HOH     H2 4504   3.501   3.964   0.381
 1440HOH      O 4505   0.385   0.204   0.090
 1440HOH     H1 4506   0.381   0.218   0.184
 1440HOH     H2 4507   0.435   0.123   0.080
 1441HOH      O 4508   0.078   2.108   1.882
 1441HOH     H1 4509   0.116   2.193   1.861
 1441HOH     H2 4510   0.154   2.051   1.898
 1442HOH      O 4511   2.827   2.391   3.633
 1442HOH     H1 4512   2.796   2.317   3.685
 1442HOH     H2 4513   2.922   2.386   3.639
 1443HOH      O 4514   3.725   2.932   0.929
 1443HOH     H1 4515   3.740   2.897   1.016
 1443HOH     H2 4516   3.733   2.857   0.870
 1444HOH      O 4517   2.171   3.129   0.611
 1444HOH     H1 4518   2.188   3.222   0.627
 1444HOH     H2 4519   2.206   3.084   0.688
 1445HOH      O 4520   3.097   2.197   0.912
 1445HOH     H1 4521   3.190   2.176   0.902
 1445HOH     H2 4522   3.072   2.157   0.995
 1446HOH      O 4523   1.528   2.437   0.966
 1446HOH     H1 4524   1.619   2.440   0.994
 1446HOH     H2 4525   1.502   2.530   0.962
 1447HOH      O 4526   3.750   3.244   3.877
 1447HOH     H1 4527   3.695   3.172   3.847
 1447HOH     H2 4528   3.814   3.256   3.807
 1448HOH      O 4529   1.576   2.387   3.122
 1448HOH     H1 4530   1.511   2.394   3.052
 1448HOH     H2 4531   1.562   2.300   3.159
 1449HOH      O 4532   1.816   0.491   4.019
 1449HOH     H1 4533   1.908   0.510   4.040
 1449HOH     H2 4534   1.812   0.395   4.017
 1450HOH      O 4535   1.791   1.810   0.207
 1450HOH     H1 4536   1.800   1.816   0.302
 1450HOH     H2 4537   1.880   1.795   0.176
 1451HOH      O 4538   2.570   0.682   3.013
 1451HOH     H1 4539   2.656   0.724   3.007
 1451HOH     H2 4540   2.544   0.693   3.105
 1452HOH      O 4541   0.177   0.861   1.134
 1452HOH     H1 4542   0.195   0.922   1.205
 1452HOH     H2 4543   0.098   0.896   1.092
 1453HOH      O 4544   3.607   1.178   0.085
 1453HOH     H1 4545   3.637   1.259   0.044
 1453HOH     H2 4546   3.575   1.125   0.013
 1454HOH      O 4547   0.666   3.550   1.968
 1454HOH     H1 4548   0.720   3.517   2.040
 1454HOH     H2 4549   0.691   3.643   1.960
 1455HOH      O 4550   2.756   1.203   0.638
 1455HOH     H1 4551   2.782   1.191   0.729
 1455HOH     H2 4552   2.660   1.205   0.641
 1456HOH      O 4553   0.291   0.685   3.393
 1456HOH     H1 4554   0.361   0.711   3.453
 1456HOH     H2 4555   0.316   0.723   3.309
 1457HOH      O 4556   0.864   2.757   0.481
 1457HOH     H1 4557   0.851   2.852   0.479
 1457HOH     H2 4558   0.949   2.744   0.439
 1458HOH      O 4559   1.219   0.583   2.094
 1458HOH     H1 4560   1.140   0.542   2.129
 1458HOH     H2 4561   1.263   0.620   2.171
 1459HOH      O 4562   3.613   3.867   3.793
 1459HOH     H1 4563   3.656   3.790   3.829
 1459HOH     H2 4564   3.676   3.903   3.731
 1460HOH      O 4565   3.177   0.921   3.240
 1460HOH     H1 4566   3.250   0.958   3.289
 1460HOH     H2 4567   3.164   0.981   3.167
 1461HOH      O 4568   1.172   1.316   3.108
 1461HOH     H1 4569   1.167   1.301   3.202
 1461HOH     H2 4570   1.104   1.381   3.090
 1462HOH      O 4571   1.554   3.180   2.977
 1462HOH     H1 4572   1.528   3.264   2.940
 1462HOH     H2 4573   1.574   3.125   2.901
 1463HOH      O 4574   3.229   1.344   0.658
 1463HOH     H1 4575   3.278   1.402   0.716
 1463HOH     H2 4576   3.184   1.284   0.716
 1464HOH      O 4577   2.719   4.028   1.000
 1464HOH     H1 4578   2.768   4.002   1.078
 1464HOH     H2 4579   2.738   3.958   0.937
 1465HOH      O 4580   0.504   0.261   3.139
 1465HOH     H1 4581   0.518   0.348   3.176
 1465HOH     H2 4582   0.581   0.211   3.166
 1466HOH      O 4583   1.205   0.925   1.683
 1466HOH     H1 4584   1.263   0.857   1.718
 1466HOH     H2 4585   1.205   0.910   1.589
 1467HOH      O 4586   0.960   2.145   2.863
 1467HOH     H1 4587   1.019   2.093   2.918
 1467HOH     H2 4588   1.011   2.222   2.840
 1468HOH      O 4589   3.825   2.638   1.262
 1468HOH     H1 4590   3.912   2.677   1.259
 1468HOH     H2 4591   3.803   2.638   1.356
 1469HOH      O 4592   0.663   3.702   1.129
 1469HOH     H1 4593   0.598   3.748   1.076
 1469HOH     H2 4594   0.746   3.717   1.082
 1470HOH      O 4595   2.499   0.467   2.852
 1470HOH     H1 4596   2.535   0.550   2.883
 1470HOH     H2 4597   2.434   0.444   2.918
 1471HOH      O 4598   2.488   0.464   3.381
 1471HOH     H1 4599   2.444   0.405   3.444
 1471HOH     H2 4600   2.510   0.541   3.433
 1472HOH      O 4601   1.459   0.723   0.304
 1472HOH     H1 4602   1.417   0.662   0.364
 1472HOH     H2 4603   1.448   0.684   0.218
 1473HOH      O 4604   1.310   3.547   2.945
 1473HOH     H1 4605   1.245   3.593   2.891
 1473HOH     H2 4606   1.261   3.515   3.020
 1474HOH      O 4607   0.946   2.915   0.076
 1474HOH     H1 4608   0.987   2.830   0.091
 1474HOH     H2 4609   0.992   2.950  -0.001
 1475HOH      O 4610   2.994   2.520   1.934
 1475HOH     H1 4611   3.014   2.427   1.940
 1475HOH     H2 4612   2.899   2.524   1.927
 1476HOH      O 4613   3.930   2.996   2.162
 1476HOH     H1 4614   3.900   3.011   2.072
 1476HOH     H2 4615   3.851   2.974   2.211
 1477HOH      O 4616   2.959   1.535   2.740
 1477HOH     H1 4617   2.927   1.447   2.723
 1477HOH     H2 4618   2.970   1.539   2.835
 1478HOH      O 4619   1.818   2.458   2.480
 1478HOH     H1 4620   1.886   2.396   2.452
 1478HOH     H2 4621   1.832   2.469   2.574
 1479HOH      O 4622   2.791   4.054   3.701
 1479HOH     H1 4623   2.764   4.009   3.620
 1479HOH     H2 4624   2.861   3.999   3.737
 1480HOH      O 4625   0.098   3.806   0.094
 1480HOH     H1 4626   0.082   3.832   0.185
 1480HOH     H2 4627   0.118   3.888   0.049
 1481HOH      O 4628   3.225   3.644   2.249
 1481HOH     H1 4629   3.252   3.647   2.340
 1481HOH     H2 4630   3.306   3.652   2.199
 1482HOH      O 4631   3.198   0.771   2.078
 1482HOH     H1 4632   3.262   0.797   2.145
 1482HOH     H2 4633   3.136   0.716   2.125
 1483HOH      O 4634   2.844   3.224   2.528
 1483HOH     H1 4635   2.778   3.292   2.535
 1483HOH     H2 4636   2.795   3.142   2.529
 1484HOH      O 4637   3.190   2.319   2.029
 1484HOH     H1 4638   3.268   2.310   2.083
 1484HOH     H2 4639   3.217   2.291   1.942
 1485HOH      O 4640   2.549   0.310   2.111
 1485HOH     H1 4641   2.619   0.244   2.114
 1485HOH     H2 4642   2.595   0.392   2.093
 1486HOH      O 4643   2.980   3.897   3.783
 1486HOH     H1 4644   2.973   3.803   3.769
 1486HOH     H2 4645   3.047   3.907   3.850
 1487HOH      O 4646   3.102   0.120   1.698
 1487HOH     H1 4647   3.007   0.118   1.708
 1487HOH     H2 4648   3.125   0.213   1.703
 1488HOH      O 4649   1.855   0.976   1.223
 1488HOH     H1 4650   1.910   0.904   1.194
 1488HOH     H2 4651   1.783   0.935   1.272
 1489HOH      O 4652   3.175   1.297   3.427
 1489HOH     H1 4653   3.243   1.239   3.462
 1489HOH     H2 4654   3.197   1.304   3.334
 1490HOH      O 4655   1.508   3.488   2.290
 1490HOH     H1 4656   1.452   3.532   2.354
 1490HOH     H2 4657   1.477   3.521   2.206
 1491HOH      O 4658   2.488   2.573   2.665
 1491HOH     H1 4659   2.545   2.509   2.621
 1491HOH     H2 4660   2.483   2.543   2.755
 1492HOH      O 4661   1.289   2.278   0.969
 1492HOH     H1 4662   1.310   2.197   1.016
 1492HOH     H2 4663   1.373   2.323   0.960
 1493HOH      O 4664   2.932   2.058   1.067
 1493HOH     H1 4665   2.866   1.988   1.060
 1493HOH     H2 4666   2.993   2.026   1.134
 1494HOH      O 4667   1.379   1.346   2.750
 1494HOH     H1 4668   1.442   1.397   2.699
 1494HOH     H2 4669   1.374   1.391   2.834
 1495HOH      O 4670   3.423   2.548   0.794
 1495HOH     H1 4671   3.442   2.557   0.887
 1495HOH     H2 4672   3.504   2.577   0.751
 1496HOH      O 4673   1.045   2.382   1.019
 1496HOH     H1 4674   1.075   2.449   0.957
 1496HOH     H2 4675   1.118   2.320   1.023
 1497HOH      O 4676   3.647   1.299   3.456
 1497HOH     H1 4677   3.638   1.359   3.382
 1497HOH     H2 4678   3.593   1.338   3.525
 1498HOH      O 4679   3.345   1.054   0.446
 1498HOH     H1 4680   3.264   1.055   0.497
 1498HOH     H2 4681   3.331   1.120   0.378
 1499HOH      O 4682   3.072   3.725   1.738
 1499HOH     H1 4683   3.130   3.800   1.726
 1499HOH     H2 4684   3.061   3.718   1.833
 1500HOH      O 4685   1.290   3.867   2.304
 1500HOH     H1 4686   1.369   3.844   2.353
 1500HOH     H2 4687   1.319   3.878   2.214
 1501HOH      O 4688   2.940   2.375   2.216
 1501HOH     H1 4689   2.994   2.329   2.151
 1501HOH     H2 4690   3.003   2.407   2.281
 1502HOH      O 4691   3.892   3.607   2.215
 1502HOH     H1 4692   3.977   3.606   2.171
 1502HOH     H2 4693   3.864   3.698   2.212
 1503HOH      O 4694   1.248   3.874   0.321
 1503HOH     H1 4695   1.174   3.925   0.286
 1503HOH     H2 4696   1.213   3.786   0.331
 1504HOH      O 4697   0.800   3.073   0.259
 1504HOH     H1 4698   0.846   3.006   0.207
 1504HOH     H2 4699   0.824   3.156   0.217
 1505HOH      O 4700   0.896   0.650   3.167
 1505HOH     H1 4701   0.992   0.649   3.176
 1505HOH     H2 4702   0.877   0.580   3.106
 1506HOH      O 4703   3.989   0.914   0.365
 1506HOH     H1 4704   3.924   0.897   0.434
 1506HOH     H2 4705   3.977   1.006   0.343
 1507HOH      O 4706   1.554   3.073   1.655
 1507HOH     H1 4707   1.500   3.042   1.582
 1507HOH     H2 4708   1.587   2.993   1.696
 1508HOH      O 4709   2.757   1.101   2.428
 1508HOH     H1 4710   2.779   1.014   2.461
 1508HOH     H2 4711   2.839   1.134   2.391
 1509HOH      O 4712   3.236   1.706   2.641
 1509HOH     H1 4713   3.162   1.760   2.616
 1509HOH     H2 4714   3.207   1.660   2.720
 1510HOH      O 4715   1.497   1.563   1.347
 1510HOH     H1 4716   1.466   1.503   1.279
 1510HOH     H2 4717   1.504   1.647   1.303
 1511HOH      O 4718   0.346   3.281   1.687
 1511HOH     H1 4719   0.326   3.373   1.669
 1511HOH     H2 4720   0.372   3.280   1.779
 1512HOH      O 4721   1.861   1.043   0.157
 1512HOH     H1 4722   1.789   1.074   0.211
 1512HOH     H2 4723   1.907   1.123   0.130
 1513HOH      O 4724   2.225   1.293   3.211
 1513HOH     H1 4725   2.142   1.340   3.215
 1513HOH     H2 4726   2.286   1.349   3.260
 1514HOH      O 4727   0.388   2.686   0.176
 1514HOH     H1 4728   0.444   2.659   0.102
 1514HOH     H2 4729   0.392   2.612   0.236
 1515HOH      O 4730   0.935   0.778   1.181
 1515HOH     H1 4731   0.886   0.768   1.263
 1515HOH     H2 4732   0.899   0.857   1.141
 1516HOH      O 4733   1.665   1.114   3.309
 1516HOH     H1 4734   1.674   1.145   3.399
 1516HOH     H2 4735   1.627   1.189   3.263
 1517HOH      O 4736   1.859   3.953   2.031
 1517HOH     H1 4737   1.875   3.946   2.125
 1517HOH     H2 4738   1.771   3.918   2.019
 1518HOH      O 4739   0.195   1.271   0.179
 1518HOH     H1 4740   0.239   1.253   0.096
 1518HOH     H2 4741   0.264   1.267   0.245
 1519HOH      O 4742   3.155   2.439   2.383
 1519HOH     H1 4743   3.125   2.444   2.474
 1519HOH     H2 4744   3.214   2.364   2.381
 1520HOH      O 4745   3.664   2.485   2.604
 1520HOH     H1 4746   3.655   2.539   2.682
 1520HOH     H2 4747   3.742   2.518   2.560
 1521HOH      O 4748   3.656   3.804   0.773
 1521HOH     H1 4749   3.679   3.880   0.720
 1521HOH     H2 4750   3.738   3.756   0.785
 1522HOH      O 4751   1.192   2.064   3.002
 1522HOH     H1 4752   1.179   2.114   3.083
 1522HOH     H2 4753   1.281   2.087   2.974
 1523HOH      O 4754   3.510   0.179   1.811
 1523HOH     H1 4755   3.604   0.160   1.818
 1523HOH     H2 4756   3.477   0.172   1.901
 1524HOH      O 4757   2.077   2.041   2.287
 1524HOH     H1 4758   2.130   2.034   2.208
 1524HOH     H2 4759   2.137   2.020   2.359
 1525HOH      O 4760   1.762   1.299   3.996
 1525HOH     H1 4761   1.796   1.371   4.049
 1525HOH     H2 4762   1.833   1.234   3.996
 1526HOH      O 4763   3.958   3.249   3.712
 1526HOH     H1 4764   3.974   3.157   3.733
 1526HOH     H2 4765   3.975   3.257   3.618
 1527HOH      O 4766   1.321   2.683   0.439
 1527HOH     H1 4767   1.300   2.775   0.459
 1527HOH     H2 4768   1.409   2.686   0.402
 1528HOH      O 4769   0.550   0.701   1.802
 1528HOH     H1 4770   0.642   0.690   1.828
 1528HOH     H2 4771   0.543   0.651   1.721
 1529HOH      O 4772   3.725   0.922   1.878
 1529HOH     H1 4773   3.669   0.863   1.929
 1529HOH     H2 4774   3.664   0.982   1.836
 1530HOH      O 4775   0.452   2.179   2.000
 1530HOH     H1 4776   0.399   2.100   1.986
 1530HOH     H2 4777   0.541   2.147   2.009
 1531HOH      O 4778   0.055   3.271   2.596
 1531HOH     H1 4779   0.080   3.275   2.688
 1531HOH     H2 4780   0.052   3.177   2.576
 1532HOH      O 4781   2.458   2.115   1.704
 1532HOH     H1 4782   2.449   2.021   1.720
 1532HOH     H2 4783   2.422   2.128   1.616
 1533HOH      O 4784   0.679   2.940   2.053
 1533HOH     H1 4785   0.741   2.973   2.118
 1533HOH     H2 4786   0.595   2.936   2.098
 1534HOH      O 4787   3.547   0.851   1.565
 1534HOH     H1 4788   3.632   0.894   1.565
 1534HOH     H2 4789   3.492   0.906   1.621
 1535HOH      O 4790   2.178   0.669   3.394
 1535HOH     H1 4791   2.268   0.635   3.401
 1535HOH     H2 4792   2.141   0.624   3.318
 1536HOH      O 4793   3.713   3.984   1.764
 1536HOH     H1 4794   3.666   3.923   1.821
 1536HOH     H2 4795   3.716   3.941   1.679
 1537HOH      O 4796   2.134   2.033   1.534
 1537HOH     H1 4797   2.054   2.069   1.570
 1537HOH     H2 4798   2.180   2.108   1.498
 1538HOH      O 4799   1.305   1.914   3.929
 1538HOH     H1 4800   1.273   1.887   4.016
 1538HOH     H2 4801   1.268   2.001   3.916
 1539HOH      O 4802   0.413   2.118   0.871
 1539HOH     H1 4803   0.415   2.179   0.797
 1539HOH     H2 4804   0.335   2.064   0.854
 1540HOH      O 4805   0.532   0.635   3.839
 1540HOH     H1 4806   0.555   0.697   3.908
 1540HOH     H2 4807   0.589   0.559   3.856
 1541HOH      O 4808   0.283   0.645   2.139
 1541HOH     H1 4809   0.347   0.679   2.202
 1541HOH     H2 4810   0.234   0.579   2.187
 1542HOH      O 4811   2.768   0.112   2.542
 1542HOH     H1 4812   2.719   0.134   2.463
 1542HOH     H2 4813   2.820   0.036   2.517
 1543HOH      O 4814   3.189   1.269   2.394
 1543HOH     H1 4815   3.217   1.354   2.429
 1543HOH     H2 4816   3.266   1.212   2.407
 1544HOH      O 4817   2.037   0.811   0.794
 1544HOH     H1 4818   1.984   0.743   0.836
 1544HOH     H2 4819   2.069   0.770   0.713
 1545HOH      O 4820   2.556   2.261   2.055
 1545HOH     H1 4821   2.499   2.188   2.081
 1545HOH     H2 4822   2.560   2.317   2.133
 1546HOH      O 4823   0.477   3.622   1.352
 1546HOH     H1 4824   0.411   3.683   1.320
 1546HOH     H2 4825   0.560   3.660   1.325
 1547HOH      O 4826   2.860   0.742   0.141
 1547HOH     H1 4827   2.863   0.802   0.067
 1547HOH     H2 4828   2.947   0.749   0.180
 1548HOH      O 4829   3.411   0.801   1.328
 1548HOH     H1 4830   3.478   0.802   1.397
 1548HOH     H2 4831   3.330   0.777   1.374
 1549HOH      O 4832   1.686   2.275   2.244
 1549HOH     H1 4833   1.745   2.237   2.179
 1549HOH     H2 4834   1.730   2.355   2.274
 1550HOH      O 4835   0.720   2.478   1.178
 1550HOH     H1 4836   0.723   2.573   1.187
 1550HOH     H2 4837   0.721   2.445   1.268
 1551HOH      O 4838   2.712   0.526   2.008
 1551HOH     H1 4839   2.672   0.591   1.949
 1551HOH     H2 4840   2.773   0.578   2.061
 1552HOH      O 4841   1.178   1.812   0.127
 1552HOH     H1 4842   1.249   1.790   0.187
 1552HOH     H2 4843   1.098   1.798   0.178
 1553HOH      O 4844   2.933   2.342   1.132
 1553HOH     H1 4845   3.007   2.393   1.100
 1553HOH     H2 4846   2.946   2.255   1.095
 1554HOH      O 4847   3.335   3.909   3.748
 1554HOH     H1 4848   3.314   4.000   3.727
 1554HOH     H2 4849   3.431   3.906   3.751
 1555HOH      O 4850   0.535   3.301   1.939
 1555HOH     H1 4851   0.601   3.237   1.912
 1555HOH     H2 4852   0.582   3.384   1.943
 1556HOH      O 4853   3.154   1.528   4.013
 1556HOH     H1 4854   3.242   1.564   4.010
 1556HOH     H2 4855   3.164   1.442   4.052
 1557HOH      O 4856   1.715   2.843   1.360
 1557HOH     H1 4857   1.716   2.814   1.269
 1557HOH     H2 4858   1.663   2.924   1.358
 1558HOH      O 4859   0.527   3.781   2.285
 1558HOH     H1 4860   0.560   3.796   2.196
 1558HOH     H2 4861   0.532   3.686   2.297
 1559HOH      O 4862   2.507   3.096   2.735
 1559HOH     H1 4863   2.473   3.159   2.671
 1559HOH     H2 4864   2.508   3.013   2.688
 1560HOH      O 4865   0.753   2.750   2.847
 1560HOH     H1 4866   0.764   2.818   2.780
 1560HOH     H2 4867   0.831   2.695   2.838
 1561HOH      O 4868   0.498   2.108   0.172
 1561HOH     H1 4869   0.457   2.145   0.093
 1561HOH     H2 4870   0.430   2.051   0.209
 1562HOH      O 4871   2.589   3.498   0.334
 1562HOH     H1 4872   2.588   3.534   0.423
 1562HOH     H2 4873   2.676   3.523   0.301
 1563HOH      O 4874   1.753   1.747   1.440
 1563HOH     H1 4875   1.833   1.785   1.402
 1563HOH     H2 4876   1.730   1.675   1.381
 1564HOH      O 4877   3.682   1.492   3.198
 1564HOH     H1 4878   3.754   1.555   3.202
 1564HOH     H2 4879   3.722   1.413   3.161
 1565HOH      O 4880   2.550   2.824   2.780
 1565HOH     H1 4881   2.503   2.753   2.736
 1565HOH     H2 4882   2.642   2.809   2.760
 1566HOH      O 4883   0.877   2.110   1.843
 1566HOH     H1 4884   0.928   2.034   1.816
 1566HOH     H2 4885   0.816   2.075   1.908
 1567HOH      O 4886   1.423   2.986   0.177
 1567HOH     H1 4887   1.444   3.047   0.247
 1567HOH     H2 4888   1.467   2.904   0.203
 1568HOH      O 4889   0.483   1.674   0.768
 1568HOH     H1 4890   0.555   1.629   0.813
 1568HOH     H2 4891   0.447   1.609   0.708
 1569HOH      O 4892   2.160   3.878   2.989
 1569HOH     H1 4893   2.126   3.788   2.996
 1569HOH     H2 4894   2.115   3.926   3.059
 1570HOH      O 4895   1.363   3.500   1.363
 1570HOH     H1 4896   1.403   3.587   1.366
 1570HOH     H2 4897   1.314   3.494   1.445
 1571HOH      O 4898   2.621   2.583   3.957
 1571HOH     H1 4899   2.668   2.575   4.040
 1571HOH     H2 4900   2.676   2.642   3.904
 1572HOH      O 4901   1.754   0.862   2.289
 1572HOH     H1 4902   1.806   0.844   2.211
 1572HOH     H2 4903   1.695   0.787   2.296
 1573HOH      O 4904   1.583   1.211   1.223
 1573HOH     H1 4905   1.652   1.219   1.289
 1573HOH     H2 4906   1.612   1.268   1.151
 1574HOH      O 4907   3.880   3.608   0.513
 1574HOH     H1 4908   3.915   3.678   0.568
 1574HOH     H2 4909   3.785   3.623   0.513
 1575HOH      O 4910   1.110   3.069   1.682
 1575HOH     H1 4911   1.090   3.074   1.775
 1575HOH     H2 4912   1.024   3.075   1.639
 1576HOH      O 4913   3.008   1.052   0.156
 1576HOH     H1 4914   2.967   1.023   0.238
 1576HOH     H2 4915   3.072   0.983   0.136
 1577HOH      O 4916   2.681   0.502   3.873
 1577HOH     H1 4917   2.739   0.431   3.902
 1577HOH     H2 4918   2.694   0.506   3.778
 1578HOH      O 4919   2.114   1.079   1.517
 1578HOH     H1 4920   2.091   1.164   1.556
 1578HOH     H2 4921   2.037   1.025   1.532
 1579HOH      O 4922   0.152   3.560   2.810
 1579HOH     H1 4923   0.067   3.541   2.849
 1579HOH     H2 4924   0.212   3.498   2.850
 1580HOH      O 4925   3.423   2.241   2.178
 1580HOH     H1 4926   3.492   2.176   2.163
 1580HOH     H2 4927   3.470   2.322   2.197
 1581HOH      O 4928   3.369   0.103   1.381
 1581HOH     H1 4929   3.318   0.023   1.384
 1581HOH     H2 4930   3.313   0.166   1.336
 1582HOH      O 4931   0.432   2.760   3.567
 1582HOH     H1 4932   0.401   2.798   3.650
 1582HOH     H2 4933   0.357   2.768   3.508
 1583HOH      O 4934   1.584   2.945   0.558
 1583HOH     H1 4935   1.545   2.963   0.644
 1583HOH     H2 4936   1.566   3.023   0.507
 1584HOH      O 4937   1.039   0.708   1.908
 1584HOH     H1 4938   1.083   0.659   1.978
 1584HOH     H2 4939   1.042   0.651   1.832
 1585HOH      O 4940   2.529   1.586   1.715
 1585HOH     H1 4941   2.476   1.587   1.635
 1585HOH     H2 4942   2.469   1.612   1.784
 1586HOH      O 4943   1.116   0.233   0.278
 1586HOH     H1 4944   1.137   0.140   0.266
 1586HOH     H2 4945   1.122   0.247   0.372
 1587HOH      O 4946   2.489   0.117   0.889
 1587HOH     H1 4947   2.537   0.049   0.936
 1587HOH     H2 4948   2.441   0.069   0.821
 1588HOH      O 4949   0.147   0.393   1.796
 1588HOH     H1 4950   0.097   0.378   1.877
 1588HOH     H2 4951   0.194   0.474   1.812
 1589HOH      O 4952   3.607   0.946   2.271
 1589HOH     H1 4953   3.636   1.013   2.209
 1589HOH     H2 4954   3.670   0.951   2.342
 1590HOH      O 4955   2.692   2.966   2.443
 1590HOH     H1 4956   2.682   3.027   2.369
 1590HOH     H2 4957   2.603   2.949   2.472
 1591HOH      O 4958   2.989   0.255   0.151
 1591HOH     H1 4959   2.987   0.307   0.070
 1591HOH     H2 4960   3.080   0.260   0.180
 1592HOH      O 4961   1.500   2.729   3.331
 1592HOH     H1 4962   1.450   2.647   3.330
 1592HOH     H2 4963   1.523   2.744   3.240
 1593HOH      O 4964   0.307   1.356   3.436
 1593HOH     H1 4965   0.225   1.319   3.467
 1593HOH     H2 4966   0.291   1.378   3.344
 1594HOH      O 4967   3.413   0.971   3.383
 1594HOH     H1 4968   3.393   1.037   3.449
 1594HOH     H2 4969   3.489   1.006   3.336
 1595HOH      O 4970   1.336   0.152   2.111
 1595HOH     H1 4971   1.376   0.239   2.117
 1595HOH     H2 4972   1.242   0.168   2.119
 1596HOH      O 4973   0.810   0.623   0.732
 1596HOH     H1 4974   0.787   0.675   0.654
 1596HOH     H2 4975   0.755   0.545   0.725
 1597HOH      O 4976   3.130   2.922   0.677
 1597HOH     H1 4977   3.037   2.916   0.655
 1597HOH     H2 4978   3.141   2.861   0.750
 1598HOH      O 4979   1.849   1.193   1.401
 1598HOH     H1 4980   1.871   1.120   1.343
 1598HOH     H2 4981   1.846   1.155   1.488
 1599HOH      O 4982   3.462   2.258   2.926
 1599HOH     H1 4983   3.543   2.255   2.978
 1599HOH     H2 4984   3.423   2.171   2.940
 1600HOH      O 4985   1.251   2.923   1.506
 1600HOH     H1 4986   1.204   2.981   1.565
 1600HOH     H2 4987   1.220   2.947   1.419
 1601HOH      O 4988   1.723   3.280   3.420
 1601HOH     H1 4989   1.716   3.308   3.329
 1601HOH     H2 4990   1.641   3.233   3.437
 1602HOH      O 4991   1.805   0.502   3.210
 1602HOH     H1 4992   1.721   0.548   3.214
 1602HOH     H2 4993   1.818   0.468   3.298
 1603HOH      O 4994   2.110   2.061   0.293
 1603HOH     H1 4995   2.187   2.116   0.307
 1603HOH     H2 4996   2.097   2.062   0.198
 1604HOH      O 4997   2.217   4.002   3.393
 1604HOH     H1 4998   2.262   4.066   3.338
 1604HOH     H2 4999   2.267   4.001   3.474
 1605HOH      O 5000   0.999   0.250   3.835
 1605HOH     H1 5001   1.033   0.304   3.906
 1605HOH     H2 5002   1.034   0.290   3.756
 1606HOH      O 5003   2.930   1.272   2.272
 1606HOH     H1 5004   2.897   1.354   2.309
 1606HOH     H2 5005   3.020   1.267   2.304
 1607HOH      O 5006   1.588   2.508   1.343
 1607HOH     H1 5007   1.536   2.571   1.292
 1607HOH     H2 5008   1.626   2.449   1.278
 1608HOH      O 5009   3.157   3.881   3.997
 1608HOH     H1 5010   3.205   3.945   4.050
 1608HOH     H2 5011   3.226   3.833   3.950
 1609HOH      O 5012   0.216   2.888   0.225
 1609HOH     H1 5013   0.235   2.904   0.317
 1609HOH     H2 5014   0.286   2.830   0.196
 1610HOH      O 5015   3.543   3.418   0.362
 1610HOH     H1 5016   3.544   3.407   0.457
 1610HOH     H2 5017   3.555   3.512   0.349
 1611HOH      O 5018   0.387   2.056   1.724
 1611HOH     H1 5019   0.371   2.016   1.809
 1611HOH     H2 5020   0.482   2.064   1.719
 1612HOH      O 5021   2.454   0.673   2.496
 1612HOH     H1 5022   2.498   0.666   2.581
 1612HOH     H2 5023   2.495   0.749   2.454
 1613HOH      O 5024   1.422   1.784   3.682
 1613HOH     H1 5025   1.379   1.823   3.758
 1613HOH     H2 5026   1.372   1.817   3.607
 1614HOH      O 5027   1.506   3.107   3.427
 1614HOH     H1 5028   1.494   3.016   3.456
 1614HOH     H2 5029   1.468   3.109   3.339
 1615HOH      O 5030   1.796   1.220   1.674
 1615HOH     H1 5031   1.775   1.137   1.717
 1615HOH     H2 5032   1.733   1.282   1.711
 1616HOH      O 5033   1.563   1.457   2.606
 1616HOH     H1 5034   1.558   1.501   2.521
 1616HOH     H2 5035   1.593   1.525   2.667
 1617HOH      O 5036   2.392   3.972   0.410
 1617HOH     H1 5037   2.363   3.917   0.338
 1617HOH     H2 5038   2.432   4.048   0.368
 1618HOH      O 5039   3.844   2.609   0.141
 1618HOH     H1 5040   3.889   2.686   0.108
 1618HOH     H2 5041   3.752   2.626   0.125
 1619HOH      O 5042   0.412   3.219   0.626
 1619HOH     H1 5043   0.329   3.196   0.666
 1619HOH     H2 5044   0.410   3.179   0.539
 1620HOH      O 5045   3.458   1.468   1.302
 1620HOH     H1 5046   3.523   1.486   1.370
 1620HOH     H2 5047   3.504   1.482   1.220
 1621HOH      O 5048   1.434   1.606   0.975
 1621HOH     H1 5049   1.510   1.652   1.010
 1621HOH     H2 5050   1.440   1.518   1.012
 1622HOH      O 5051   2.119   1.477   3.452
 1622HOH     H1 5052   2.174   1.548   3.418
 1622HOH     H2 5053   2.167   1.442   3.527
 1623HOH      O 5054   3.168   2.332   1.405
 1623HOH     H1 5055   3.117   2.252   1.411
 1623HOH     H2 5056   3.119   2.396   1.457
 1624HOH      O 5057   4.003   1.064   2.093
 1624HOH     H1 5058   4.093   1.093   2.080
 1624HOH     H2 5059   3.969   1.048   2.005
 1625HOH      O 5060   3.599   0.322   3.985
 1625HOH     H1 5061   3.626   0.346   3.896
 1625HOH     H2 5062   3.503   0.333   3.983
 1626HOH      O 5063   0.017   3.996   3.229
 1626HOH     H1 5064   0.109   4.023   3.227
 1626HOH     H2 5065   0.004   3.963   3.317
 1627HOH      O 5066   2.614   3.645   0.548
 1627HOH     H1 5067   2.676   3.717   0.540
 1627HOH     H2 5068   2.649   3.590   0.618
 1628HOH      O 5069   1.697   3.912   0.747
 1628HOH     H1 5070   1.649   3.864   0.680
 1628HOH     H2 5071   1.787   3.914   0.717
 1629HOH      O 5072   1.285   2.306   0.673
 1629HOH     H1 5073   1.242   2.387   0.703
 1629HOH     H2 5074   1.306   2.259   0.753
 1630HOH      O 5075   3.573   0.665   3.254
 1630HOH     H1 5076   3.571   0.647   3.348
 1630HOH     H2 5077   3.642   0.731   3.245
 1631HOH      O 5078   3.421   3.211   0.986
 1631HOH     H1 5079   3.500   3.238   0.938
 1631HOH     H2 5080   3.394   3.289   1.033
 1632HOH      O 5081   0.116   1.560   1.419
 1632HOH     H1 5082   0.026   1.582   1.394
 1632HOH     H2 5083   0.158   1.645   1.432
 1633HOH      O 5084   3.136   1.140   1.089
 1633HOH     H1 5085   3.045   1.136   1.120
 1633HOH     H2 5086   3.152   1.053   1.053
 1634HOH      O 5087   2.606   1.323   1.810
 1634HOH     H1 5088   2.636   1.406   1.775
 1634HOH     H2 5089   2.596   1.339   1.904
 1635HOH      O 5090   2.216   1.043   3.316
 1635HOH     H1 5091   2.221   1.125   3.266
 1635HOH     H2 5092   2.280   0.986   3.274
 1636HOH      O 5093   1.403   2.285   3.865
 1636HOH     H1 5094   1.313   2.255   3.882
 1636HOH     H2 5095   1.395   2.379   3.853
 1637HOH      O 5096   2.444   3.768   3.528
 1637HOH     H1 5097   2.380   3.705   3.562
 1637HOH     H2 5098   2.430   3.847   3.580
 1638HOH      O 5099   1.711   1.850   3.685
 1638HOH     H1 5100   1.623   1.819   3.705
 1638HOH     H2 5101   1.699   1.942   3.661
 1639HOH      O 5102   1.478   2.706   0.891
 1639HOH     H1 5103   1.420   2.767   0.846
 1639HOH     H2 5104   1.514   2.755   0.964
 1640HOH      O 5105   0.299   3.808   1.666
 1640HOH     H1 5106   0.216   3.784   1.625
 1640HOH     H2 5107   0.297   3.904   1.667
 1641HOH      O 5108   1.531   0.578   3.231
 1641HOH     H1 5109   1.473   0.511   3.267
 1641HOH     H2 5110   1.515   0.655   3.286
 1642HOH      O 5111   3.362   0.691   0.534
 1642HOH     H1 5112   3.411   0.610   0.522
 1642HOH     H2 5113   3.292   0.686   0.470
 1643HOH      O 5114   1.013   0.658   3.622
 1643HOH     H1 5115   0.962   0.578   3.624
 1643HOH     H2 5116   1.100   0.630   3.592
 1644HOH      O 5117   2.605   1.968   1.330
 1644HOH     H1 5118   2.672   1.940   1.393
 1644HOH     H2 5119   2.573   1.886   1.292
 1645HOH      O 5120   1.360   2.426   2.967
 1645HOH     H1 5121   1.354   2.347   2.914
 1645HOH     H2 5122   1.270   2.456   2.976
 1646HOH      O 5123   2.496   1.383   0.106
 1646HOH     H1 5124   2.487   1.334   0.024
 1646HOH     H2 5125   2.553   1.328   0.160
 1647HOH      O 5126   0.212   1.519   1.962
 1647HOH     H1 5127   0.258   1.444   2.002
 1647HOH     H2 5128   0.227   1.591   2.023
 1648HOH      O 5129   2.126   3.385   0.728
 1648HOH     H1 5130   2.195   3.393   0.794
 1648HOH     H2 5131   2.129   3.467   0.679
 1649HOH      O 5132   0.325   0.770   0.169
 1649HOH     H1 5133   0.321   0.674   0.170
 1649HOH     H2 5134   0.285   0.797   0.251
 1650HOH      O 5135   3.226   0.161   3.157
 1650HOH     H1 5136   3.226   0.068   3.137
 1650HOH     H2 5137   3.163   0.199   3.096
 1651HOH      O 5138   3.568   2.647   0.555
 1651HOH     H1 5139   3.589   2.738   0.534
 1651HOH     H2 5140   3.529   2.613   0.475
 1652HOH      O 5141   0.424   4.006   0.985
 1652HOH     H1 5142   0.432   4.009   1.080
 1652HOH     H2 5143   0.432   3.913   0.964
 1653HOH      O 5144   2.162   1.538   0.177
 1653HOH     H1 5145   2.129   1.627   0.164
 1653HOH     H2 5146   2.165   1.500   0.089
 1654HOH      O 5147   2.532   3.223   3.966
 1654HOH     H1 5148   2.547   3.173   4.047
 1654HOH     H2 5149   2.476   3.295   3.992
 1655HOH      O 5150   2.120   0.155   0.106
 1655HOH     H1 5151   2.215   0.167   0.105
 1655HOH     H2 5152   2.096   0.146   0.014
 1656HOH      O 5153   3.674   0.657   0.285
 1656HOH     H1 5154   3.730   0.620   0.216
 1656HOH     H2 5155   3.617   0.585   0.310
 1657HOH      O 5156   2.512   2.909   3.843
 1657HOH     H1 5157   2.483   2.982   3.898
 1657HOH     H2 5158   2.515   2.945   3.755
 1658HOH      O 5159   1.322   1.345   2.372
 1658HOH     H1 5160   1.306   1.426   2.420
 1658HOH     H2 5161   1.236   1.314   2.347
 1659HOH      O 5162   3.786   4.000   2.847
 1659HOH     H1 5163   3.725   4.035   2.911
 1659HOH     H2 5164   3.871   4.000   2.891
 1660HOH      O 5165   0.743   1.350   3.945
 1660HOH     H1 5166   0.704   1.420   3.892
 1660HOH     H2 5167   0.837   1.356   3.927
 1661HOH      O 5168   3.360   3.167   3.330
 1661HOH     H1 5169   3.266   3.173   3.348
 1661HOH     H2 5170   3.401   3.170   3.416
 1662HOH      O 5171   3.950   0.987   2.384
 1662HOH     H1 5172   3.946   1.017   2.293
 1662HOH     H2 5173   3.916   1.060   2.435
 1663HOH      O 5174   0.700   1.530   1.307
 1663HOH     H1 5175   0.685   1.604   1.248
 1663HOH     H2 5176   0.632   1.467   1.284
 1664HOH      O 5177   3.418   1.573   3.193
 1664HOH     H1 5178   3.508   1.541   3.202
 1664HOH     H2 5179   3.404   1.629   3.270
 1665HOH      O 5180   2.086   1.713   0.889
 1665HOH     H1 5181   2.066   1.654   0.816
 1665HOH     H2 5182   2.122   1.656   0.957
 1666HOH      O 5183   1.201   2.561   0.805
 1666HOH     H1 5184   1.142   2.634   0.790
 1666HOH     H2 5185   1.286   2.601   0.822
 1667HOH      O 5186   1.557   1.983   3.003
 1667HOH     H1 5187   1.614   2.060   2.999
 1667HOH     H2 5188   1.515   1.979   2.917
 1668HOH      O 5189   0.596   1.493   1.795
 1668HOH     H1 5190   0.636   1.427   1.738
 1668HOH     H2 5191   0.502   1.477   1.788
 1669HOH      O 5192   0.654   3.990   2.677
 1669HOH     H1 5193   0.600   3.925   2.631
 1669HOH     H2 5194   0.611   4.074   2.659
 1670HOH      O 5195   2.590   1.997   2.697
 1670HOH     H1 5196   2.573   2.086   2.726
 1670HOH     H2 5197   2.532   1.984   2.622
 1671HOH      O 5198   0.803   2.847   3.389
 1671HOH     H1 5199   0.886   2.799   3.386
 1671HOH     H2 5200   0.737   2.780   3.408
 1672HOH      O 5201   1.790   0.928   2.885
 1672HOH     H1 5202   1.718   0.913   2.947
 1672HOH     H2 5203   1.749   0.921   2.799
 1673HOH      O 5204   2.332   0.855   1.861
 1673HOH     H1 5205   2.348   0.945   1.833
 1673HOH     H2 5206   2.353   0.855   1.954
 1674HOH      O 5207   0.671   1.053   1.811
 1674HOH     H1 5208   0.697   1.004   1.889
 1674HOH     H2 5209   0.576   1.042   1.807
 1675HOH      O 5210   2.641   2.040   2.226
 1675HOH     H1 5211   2.670   1.967   2.281
 1675HOH     H2 5212   2.683   2.117   2.263
 1676HOH      O 5213   1.884   3.328   0.788
 1676HOH     H1 5214   1.972   3.360   0.809
 1676HOH     H2 5215   1.881   3.328   0.693
 1677HOH      O 5216   3.617   1.569   2.620
 1677HOH     H1 5217   3.629   1.504   2.689
 1677HOH     H2 5218   3.692   1.556   2.562
 1678HOH      O 5219   2.901   3.902   1.616
 1678HOH     H1 5220   2.828   3.855   1.576
 1678HOH     H2 5221   2.928   3.847   1.689
 1679HOH      O 5222   3.123   1.952   1.270
 1679HOH     H1 5223   3.057   1.951   1.340
 1679HOH     H2 5224   3.179   1.877   1.290
 1680HOH      O 5225   2.977   3.898   3.294
 1680HOH     H1 5226   2.973   3.967   3.360
 1680HOH     H2 5227   2.949   3.819   3.339
 1681HOH      O 5228   1.526   2.678   2.759
 1681HOH     H1 5229   1.445   2.706   2.800
 1681HOH     H2 5230   1.505   2.595   2.717
 1682HOH      O 5231   0.520   0.420   3.466
 1682HOH     H1 5232   0.430   0.454   3.459
 1682HOH     H2 5233   0.512   0.342   3.521
 1683HOH      O 5234   0.463   1.077   3.285
 1683HOH     H1 5235   0.379   1.062   3.243
 1683HOH     H2 5236   0.477   1.172   3.278
 1684HOH      O 5237   2.371   2.843   1.166
 1684HOH     H1 5238   2.296   2.806   1.119
 1684HOH     H2 5239   2.442   2.781   1.153
 1685HOH      O 5240   2.732   2.501   0.172
 1685HOH     H1 5241   2.730   2.408   0.196
 1685HOH     H2 5242   2.687   2.545   0.243
 1686HOH      O 5243   0.455   1.105   1.068
 1686HOH     H1 5244   0.394   1.110   1.142
 1686HOH     H2 5245   0.409   1.051   1.003
 1687HOH      O 5246   2.699   3.741   1.963
 1687HOH     H1 5247   2.726   3.678   1.897
 1687HOH     H2 5248   2.774   3.801   1.971
 1688HOH      O 5249   3.619   0.689   1.169
 1688HOH     H1 5250   3.548   0.734   1.214
 1688HOH     H2 5251   3.589   0.598   1.162
 1689HOH      O 5252   0.689   1.635   0.245
 1689HOH     H1 5253   0.674   1.728   0.260
 1689HOH     H2 5254   0.709   1.599   0.331
 1690HOH      O 5255   3.427   1.930   0.933
 1690HOH     H1 5256   3.408   1.900   1.022
 1690HOH     H2 5257   3.522   1.920   0.924
 1691HOH      O 5258   3.724   0.813   3.962
 1691HOH     H1 5259   3.783   0.782   4.031
 1691HOH     H2 5260   3.782   0.860   3.901
 1692HOH      O 5261   1.397   0.160   1.250
 1692HOH     H1 5262   1.487   0.179   1.223
 1692HOH     H2 5263   1.372   0.234   1.305
 1693HOH      O 5264   0.551   3.511   2.372
 1693HOH     H1 5265   0.531   3.467   2.290
 1693HOH     H2 5266   0.465   3.521   2.415
 1694HOH      O 5267   0.108   0.711   2.944
 1694HOH     H1 5268   0.046   0.732   3.014
 1694HOH     H2 5269   0.095   0.780   2.880
 1695HOH      O 5270   2.880   3.792   0.876
 1695HOH     H1 5271   2.941   3.814   0.806
 1695HOH     H2 5272   2.936   3.780   0.953
 1696HOH      O 5273   2.711   3.026   1.082
 1696HOH     H1 5274   2.755   3.045   0.999
 1696HOH     H2 5275   2.762   3.073   1.148
 1697HOH      O 5276   1.528   3.203   0.332
 1697HOH     H1 5277   1.602   3.203   0.272
 1697HOH     H2 5278   1.467   3.267   0.295
 1698HOH      O 5279   1.104   3.055   2.954
 1698HOH     H1 5280   1.029   3.009   2.915
 1698HOH     H2 5281   1.173   3.049   2.888
 1699HOH      O 5282   0.414   3.373   0.861
 1699HOH     H1 5283   0.400   3.349   0.770
 1699HOH     H2 5284   0.459   3.458   0.858
 1700HOH      O 5285   0.561   3.920   3.416
 1700HOH     H1 5286   0.486   3.971   3.449
 1700HOH     H2 5287   0.613   3.900   3.494
 1701HOH      O 5288   1.830   3.325   2.234
 1701HOH     H1 5289   1.841   3.252   2.172
 1701HOH     H2 5290   1.799   3.397   2.180
 1702HOH      O 5291   3.460   3.158   3.577
 1702HOH     H1 5292   3.423   3.179   3.663
 1702HOH     H2 5293   3.514   3.081   3.592
 1703HOH      O 5294   0.004   2.807   0.060
 1703HOH     H1 5295   0.070   2.820   0.128
 1703HOH     H2 5296   0.054   2.781  -0.017
 1704HOH      O 5297   1.921   3.097   1.799
 1704HOH     H1 5298   1.992   3.139   1.752
 1704HOH     H2 5299   1.867   3.056   1.731
 1705HOH      O 5300   2.939   3.521   1.581
 1705HOH     H1 5301   3.013   3.554   1.633
 1705HOH     H2 5302   2.946   3.426   1.589
 1706HOH      O 5303   0.531   2.815   3.006
 1706HOH     H1 5304   0.523   2.769   3.090
 1706HOH     H2 5305   0.602   2.769   2.961
 1707HOH      O 5306   3.477   2.504   2.221
 1707HOH     H1 5307   3.559   2.552   2.207
 1707HOH     H2 5308   3.421   2.567   2.267
 1708HOH      O 5309   2.806   0.528   1.715
 1708HOH     H1 5310   2.764   0.598   1.765
 1708HOH     H2 5311   2.892   0.564   1.692
 1709HOH      O 5312   1.454   0.341   0.846
 1709HOH     H1 5313   1.374   0.307   0.808
 1709HOH     H2 5314   1.429   0.369   0.934
 1710HOH      O 5315   3.264   0.857   0.739
 1710HOH     H1 5316   3.266   0.789   0.672
 1710HOH     H2 5317   3.239   0.937   0.692
 1711HOH      O 5318   1.670   0.257   3.360
 1711HOH     H1 5319   1.591   0.302   3.331
 1711HOH     H2 5320   1.702   0.311   3.433
 1712HOH      O 5321   3.275   1.156   1.370
 1712HOH     H1 5322   3.239   1.103   1.299
 1712HOH     H2 5323   3.242   1.244   1.354
 1713HOH      O 5324   1.203   1.242   0.303
 1713HOH     H1 5325   1.286   1.283   0.327
 1713HOH     H2 5326   1.145   1.316   0.283
 1714HOH      O 5327   0.975   3.271   2.425
 1714HOH     H1 5328   1.029   3.226   2.490
 1714HOH     H2 5329   0.946   3.351   2.470
 1715HOH      O 5330   2.075   0.472   1.487
 1715HOH     H1 5331   1.993   0.431   1.461
 1715HOH     H2 5332   2.082   0.454   1.581
 1716HOH      O 5333   0.509   2.416   1.839
 1716HOH     H1 5334   0.471   2.491   1.793
 1716HOH     H2 5335   0.455   2.407   1.918
 1717HOH      O 5336   2.573   1.751   2.357
 1717HOH     H1 5337   2.647   1.789   2.404
 1717HOH     H2 5338   2.609   1.727   2.272
 1718HOH      O 5339   1.248   1.890   0.640
 1718HOH     H1 5340   1.309   1.880   0.713
 1718HOH     H2 5341   1.303   1.899   0.563
 1719HOH      O 5342   0.316   1.746   0.981
 1719HOH     H1 5343   0.267   1.822   0.948
 1719HOH     H2 5344   0.375   1.724   0.910
 1720HOH      O 5345   2.081   2.933   1.494
 1720HOH     H1 5346   2.155   2.986   1.521
 1720HOH     H2 5347   2.117   2.872   1.429
 1721HOH      O 5348   2.955   1.216   3.585
 1721HOH     H1 5349   2.899   1.292   3.568
 1721HOH     H2 5350   3.041   1.242   3.552
 1722HOH      O 5351   2.777   0.847   2.955
 1722HOH     H1 5352   2.850   0.789   2.978
 1722HOH     H2 5353   2.810   0.935   2.972
 1723HOH      O 5354   1.521   1.537   0.697
 1723HOH     H1 5355   1.494   1.557   0.787
 1723HOH     H2 5356   1.439   1.522   0.650
 1724HOH      O 5357   1.789   1.454   1.377
 1724HOH     H1 5358   1.714   1.448   1.435
 1724HOH     H2 5359   1.837   1.372   1.391
 1725HOH      O 5360   0.625   3.025   0.715
 1725HOH     H1 5361   0.579   3.104   0.741
 1725HOH     H2 5362   0.600   2.960   0.780
 1726HOH      O 5363   0.283   2.233   1.555
 1726HOH     H1 5364   0.373   2.250   1.527
 1726HOH     H2 5365   0.290   2.159   1.616
 1727HOH      O 5366   3.545   0.761   2.538
 1727HOH     H1 5367   3.564   0.755   2.445
 1727HOH     H2 5368   3.562   0.672   2.571
 1728HOH      O 5369   2.021   0.635   3.622
 1728HOH     H1 5370   1.989   0.707   3.676
 1728HOH     H2 5371   2.039   0.675   3.537
 1729HOH      O 5372   2.208   3.966   2.034
 1729HOH     H1 5373   2.298   3.956   2.065
 1729HOH     H2 5374   2.217   4.014   1.952
 1730HOH      O 5375   0.436   2.540   0.584
 1730HOH     H1 5376   0.408   2.631   0.576
 1730HOH     H2 5377   0.461   2.515   0.495
 1731HOH      O 5378   2.253   2.622   3.611
 1731HOH     H1 5379   2.220   2.648   3.525
 1731HOH     H2 5380   2.333   2.674   3.624
 1732HOH      O 5381   3.863   2.375   0.266
 1732HOH     H1 5382   3.872   2.461   0.224
 1732HOH     H2 5383   3.924   2.378   0.339
 1733HOH      O 5384   1.656   1.684   2.730
 1733HOH     H1 5385   1.685   1.728   2.649
 1733HOH     H2 5386   1.693   1.738   2.800
 1734HOH      O 5387   0.544   3.083   1.552
 1734HOH     H1 5388   0.467   3.131   1.523
 1734HOH     H2 5389   0.590   3.143   1.610
 1735HOH      O 5390   1.076   0.329   0.602
 1735HOH     H1 5391   1.117   0.273   0.668
 1735HOH     H2 5392   0.983   0.330   0.625
 1736HOH      O 5393   0.981   3.695   0.638
 1736HOH     H1 5394   0.904   3.716   0.691
 1736HOH     H2 5395   0.946   3.684   0.550
 1737HOH      O 5396   3.766   3.313   1.560
 1737HOH     H1 5397   3.846   3.278   1.597
 1737HOH     H2 5398   3.764   3.278   1.470
 1738HOH      O 5399   1.881   0.129   1.830
 1738HOH     H1 5400   1.788   0.150   1.832
 1738HOH     H2 5401   1.889   0.047   1.879
 1739HOH      O 5402   1.071   0.357   3.598
 1739HOH     H1 5403   0.981   0.351   3.565
 1739HOH     H2 5404   1.125   0.362   3.519
 1740HOH      O 5405   3.135   0.587   1.418
 1740HOH     H1 5406   3.147   0.492   1.421
 1740HOH     H2 5407   3.154   0.610   1.327
 1741HOH      O 5408   2.591   1.257   1.439
 1741HOH     H1 5409   2.525   1.189   1.446
 1741HOH     H2 5410   2.636   1.256   1.523
 1742HOH      O 5411   0.238   4.003   3.925
 1742HOH     H1 5412   0.233   3.920   3.877
 1742HOH     H2 5413   0.324   4.000   3.967
 1743HOH      O 5414   2.224   0.281   2.438
 1743HOH     H1 5415   2.178   0.225   2.500
 1743HOH     H2 5416   2.301   0.312   2.487
 1744HOH      O 5417   2.410   2.906   2.454
 1744HOH     H1 5418   2.347   2.931   2.387
 1744HOH     H2 5419   2.375   2.825   2.492
 1745HOH      O 5420   0.827   3.141   0.921
 1745HOH     H1 5421   0.789   3.134   0.833
 1745HOH     H2 5422   0.870   3.057   0.936
 1746HOH      O 5423   1.986   3.133   0.979
 1746HOH     H1 5424   1.972   3.177   1.062
 1746HOH     H2 5425   1.965   3.199   0.912
 1747HOH      O 5426   0.804   2.140   0.776
 1747HOH     H1 5427   0.803   2.164   0.683
 1747HOH     H2 5428   0.716   2.162   0.807
 1748HOH      O 5429   3.415   1.947   1.845
 1748HOH     H1 5430   3.445   1.856   1.845
 1748HOH     H2 5431   3.459   1.987   1.919
 1749HOH      O 5432   1.602   0.102   3.987
 1749HOH     H1 5433   1.569   0.025   3.941
 1749HOH     H2 5434   1.676   0.131   3.934
 1750HOH      O 5435   2.269   3.224   1.231
 1750HOH     H1 5436   2.323   3.197   1.157
 1750HOH     H2 5437   2.323   3.288   1.278
 1751HOH      O 5438   1.267   2.352   2.259
 1751HOH     H1 5439   1.255   2.269   2.213
 1751HOH     H2 5440   1.183   2.368   2.302
 1752HOH      O 5441   2.488   1.309   2.128
 1752HOH     H1 5442   2.565   1.256   2.145
 1752HOH     H2 5443   2.417   1.263   2.173
 1753HOH      O 5444   0.761   0.801   0.559
 1753HOH     H1 5445   0.681   0.852   0.548
 1753HOH     H2 5446   0.758   0.737   0.488
 1754HOH      O 5447   0.517   0.862   0.742
 1754HOH     H1 5448   0.517   0.769   0.718
 1754HOH     H2 5449   0.447   0.870   0.807
 1755HOH      O 5450   1.307   0.810   0.657
 1755HOH     H1 5451   1.225   0.856   0.679
 1755HOH     H2 5452   1.280   0.719   0.643
 1756HOH      O 5453   2.946   1.721   0.472
 1756HOH     H1 5454   2.975   1.696   0.384
 1756HOH     H2 5455   2.943   1.638   0.521
 1757HOH      O 5456   0.335   2.939   0.827
 1757HOH     H1 5457   0.380   2.898   0.900
 1757HOH     H2 5458   0.246   2.953   0.858
 1758HOH      O 5459   0.829   1.371   2.397
 1758HOH     H1 5460   0.743   1.410   2.378
 1758HOH     H2 5461   0.870   1.432   2.458
 1759HOH      O 5462   0.137   2.015   2.624
 1759HOH     H1 5463   0.201   1.961   2.670
 1759HOH     H2 5464   0.078   1.953   2.582
 1760HOH      O 5465   2.634   3.161   0.186
 1760HOH     H1 5466   2.663   3.072   0.170
 1760HOH     H2 5467   2.695   3.216   0.136
 1761HOH      O 5468   3.875   0.332   3.079
 1761HOH     H1 5469   3.961   0.330   3.037
 1761HOH     H2 5470   3.837   0.246   3.062
 1762HOH      O 5471   1.807   1.290   2.631
 1762HOH     H1 5472   1.718   1.323   2.624
 1762HOH     H2 5473   1.801   1.198   2.605
 1763HOH      O 5474   2.619   0.331   1.603
 1763HOH     H1 5475   2.623   0.265   1.672
 1763HOH     H2 5476   2.685   0.396   1.628
 1764HOH      O 5477   0.125   3.150   3.231
 1764HOH     H1 5478   0.187   3.087   3.266
 1764HOH     H2 5479   0.171   3.234   3.236
 1765HOH      O 5480   3.784   3.903   2.297
 1765HOH     H1 5481   3.762   3.899   2.390
 1765HOH     H2 5482   3.813   3.993   2.284
 1766HOH      O 5483   2.841   1.929   1.474
 1766HOH     H1 5484   2.789   1.930   1.555
 1766HOH     H2 5485   2.851   2.021   1.451
 1767HOH      O 5486   0.648   2.412   3.614
 1767HOH     H1 5487   0.662   2.318   3.624
 1767HOH     H2 5488   0.554   2.424   3.631
 1768HOH      O 5489   3.390   1.033   2.443
 1768HOH     H1 5490   3.442   1.020   2.364
 1768HOH     H2 5491   3.453   1.061   2.509
 1769HOH      O 5492   0.716   3.171   1.162
 1769HOH     H1 5493   0.718   3.263   1.188
 1769HOH     H2 5494   0.778   3.165   1.089
 1770HOH      O 5495   1.355   3.287   1.781
 1770HOH     H1 5496   1.446   3.289   1.812
 1770HOH     H2 5497   1.341   3.196   1.754
 1771HOH      O 5498   1.210   1.500   0.070
 1771HOH     H1 5499   1.174   1.575   0.116
 1771HOH     H2 5500   1.284   1.471   0.124
 1772HOH      O 5501   2.293   1.245   1.156
 1772HOH     H1 5502   2.222   1.182   1.169
 1772HOH     H2 5503   2.267   1.294   1.077
 1773HOH      O 5504   2.298   3.160   3.723
 1773HOH     H1 5505   2.374   3.201   3.682
 1773HOH     H2 5506   2.290   3.204   3.807
 1774HOH      O 5507   1.776   3.806   3.612
 1774HOH     H1 5508   1.681   3.810   3.618
 1774HOH     H2 5509   1.797   3.862   3.538
 1775HOH      O 5510   3.228   2.668   3.355
 1775HOH     H1 5511   3.303   2.716   3.389
 1775HOH     H2 5512   3.195   2.723   3.284
 1776HOH      O 5513   1.866   3.900   1.278
 1776HOH     H1 5514   1.948   3.851   1.277
 1776HOH     H2 5515   1.877   3.969   1.212
 1777HOH      O 5516   2.266   3.857   1.029
 1777HOH     H1 5517   2.340   3.809   0.992
 1777HOH     H2 5518   2.205   3.788   1.056
 1778HOH      O 5519   3.528   3.899   0.976
 1778HOH     H1 5520   3.471   3.824   0.988
 1778HOH     H2 5521   3.592   3.870   0.910
 1779HOH      O 5522   2.823   1.285   3.973
 1779HOH     H1 5523   2.892   1.231   3.937
 1779HOH     H2 5524   2.861   1.325   4.051
 1780HOH      O 5525   3.135   3.397   0.354
 1780HOH     H1 5526   3.202   3.370   0.416
 1780HOH     H2 5527   3.169   3.477   0.315
 1781HOH      O 5528   0.692   0.123   2.360
 1781HOH     H1 5529   0.707   0.180   2.284
 1781HOH     H2 5530   0.779   0.107   2.396
 1782HOH      O 5531   1.298   0.389   2.886
 1782HOH     H1 5532   1.326   0.371   2.796
 1782HOH     H2 5533   1.260   0.306   2.916
 1783HOH      O 5534   0.973   2.598   2.142
 1783HOH     H1 5535   1.010   2.545   2.212
 1783HOH     H2 5536   0.890   2.556   2.120
 1784HOH      O 5537   2.172   1.246   2.941
 1784HOH     H1 5538   2.179   1.266   3.034
 1784HOH     H2 5539   2.262   1.223   2.915
 1785HOH      O 5540   0.035   2.998   3.772
 1785HOH     H1 5541   0.106   3.021   3.712
 1785HOH     H2 5542   0.076   3.001   3.859
 1786HOH      O 5543   0.743   3.491   1.663
 1786HOH     H1 5544   0.758   3.581   1.632
 1786HOH     H2 5545   0.680   3.501   1.734
 1787HOH      O 5546   1.048   0.732   0.734
 1787HOH     H1 5547   1.048   0.756   0.641
 1787HOH     H2 5548   0.966   0.684   0.746
 1788HOH      O 5549   1.699   2.549   0.728
 1788HOH     H1 5550   1.707   2.455   0.743
 1788HOH     H2 5551   1.609   2.570   0.755
 1789HOH      O 5552   2.732   1.362   3.446
 1789HOH     H1 5553   2.696   1.443   3.482
 1789HOH     H2 5554   2.761   1.386   3.358
 1790HOH      O 5555   0.769   3.746   0.065
 1790HOH     H1 5556   0.768   3.780  -0.024
 1790HOH     H2 5557   0.679   3.758   0.096
 1791HOH      O 5558   3.681   2.212   0.145
 1791HOH     H1 5559   3.735   2.273   0.196
 1791HOH     H2 5560   3.745   2.158   0.098
 1792HOH      O 5561   0.709   0.746   2.268
 1792HOH     H1 5562   0.778   0.755   2.334
 1792HOH     H2 5563   0.693   0.652   2.263
 1793HOH      O 5564  -0.022   2.349   0.004
 1793HOH     H1 5565   0.055   2.340  -0.053
 1793HOH     H2 5566   0.015   2.372   0.089
 1794HOH      O 5567   2.983   1.015   1.415
 1794HOH     H1 5568   2.964   1.091   1.469
 1794HOH     H2 5569   3.015   0.949   1.476
 1795HOH      O 5570   3.699   2.853   3.338
 1795HOH     H1 5571   3.678   2.927   3.281
 1795HOH     H2 5572   3.697   2.777   3.280
 1796HOH      O 5573   2.701   3.133   3.754
 1796HOH     H1 5574   2.648   3.118   3.676
 1796HOH     H2 5575   2.641   3.173   3.817
 1797HOH      O 5576   2.433   3.090   1.082
 1797HOH     H1 5577   2.525   3.068   1.072
 1797HOH     H2 5578   2.395   3.014   1.128
 1798HOH      O 5579   1.818   1.540   1.776
 1798HOH     H1 5580   1.804   1.585   1.859
 1798HOH     H2 5581   1.730   1.522   1.744
 1799HOH      O 5582   0.098   0.960   1.850
 1799HOH     H1 5583   0.183   0.980   1.810
 1799HOH     H2 5584   0.057   0.898   1.790
 1800HOH      O 5585   3.305   3.794   3.497
 1800HOH     H1 5586   3.215   3.761   3.490
 1800HOH     H2 5587   3.310   3.832   3.584
 1801HOH      O 5588   3.632   1.383   1.658
 1801HOH     H1 5589   3.606   1.379   1.750
 1801HOH     H2 5590   3.570   1.326   1.613
 1802HOH      O 5591   2.014   1.500   0.722
 1802HOH     H1 5592   1.986   1.467   0.808
 1802HOH     H2 5593   1.936   1.490   0.667
 1803HOH      O 5594   2.989   1.944   3.490
 1803HOH     H1 5595   2.996   2.037   3.466
 1803HOH     H2 5596   2.937   1.906   3.419
 1804HOH      O 5597   0.802   0.408   3.553
 1804HOH     H1 5598   0.730   0.470   3.542
 1804HOH     H2 5599   0.813   0.368   3.467
 1805HOH      O 5600   1.918   0.319   0.718
 1805HOH     H1 5601   1.864   0.245   0.746
 1805HOH     H2 5602   1.894   0.332   0.626
 1806HOH      O 5603   2.696   1.867   0.453
 1806HOH     H1 5604   2.774   1.919   0.466
 1806HOH     H2 5605   2.696   1.846   0.359
 1807HOH      O 5606   1.852   2.116   1.597
 1807HOH     H1 5607   1.806   2.041   1.633
 1807HOH     H2 5608   1.852   2.181   1.668
 1808HOH      O 5609   0.622   1.453   2.061
 1808HOH     H1 5610   0.587   1.479   1.976
 1808HOH     H2 5611   0.593   1.522   2.121
 1809HOH      O 5612   2.758   3.527   1.794
 1809HOH     H1 5613   2.688   3.462   1.780
 1809HOH     H2 5614   2.821   3.508   1.724
 1810HOH      O 5615   2.847   0.139   1.638
 1810HOH     H1 5616   2.844   0.060   1.585
 1810HOH     H2 5617   2.766   0.138   1.688
 1811HOH      O 5618   0.999   1.727   1.195
 1811HOH     H1 5619   1.049   1.677   1.131
 1811HOH     H2 5620   0.924   1.761   1.147
 1812HOH      O 5621   3.573   2.633   0.058
 1812HOH     H1 5622   3.567   2.728   0.070
 1812HOH     H2 5623   3.525   2.616  -0.023
 1813HOH      O 5624   2.169   0.214   3.235
 1813HOH     H1 5625   2.151   0.245   3.324
 1813HOH     H2 5626   2.084   0.184   3.203
 1814HOH      O 5627   0.151   0.449   2.239
 1814HOH     H1 5628   0.098   0.432   2.161
 1814HOH     H2 5629   0.128   0.378   2.299
 1815HOH      O 5630   3.928   2.131   2.889
 1815HOH     H1 5631   3.865   2.161   2.823
 1815HOH     H2 5632   4.000   2.093   2.838
 1816HOH      O 5633   2.703   2.276   0.849
 1816HOH     H1 5634   2.765   2.209   0.821
 1816HOH     H2 5635   2.633   2.227   0.893
 1817HOH      O 5636   0.986   0.015   3.620
 1817HOH     H1 5637   1.050  -0.017   3.557
 1817HOH     H2 5638   1.027   0.091   3.660
 1818HOH      O 5639   0.785   0.322   0.640
 1818HOH     H1 5640   0.691   0.333   0.657
 1818HOH     H2 5641   0.793   0.330   0.545
 1819HOH      O 5642   1.655   0.270   2.817
 1819HOH     H1 5643   1.656   0.183   2.858
 1819HOH     H2 5644   1.704   0.326   2.877
 1820HOH      O 5645   2.473   3.989   1.503
 1820HOH     H1 5646   2.502   4.056   1.441
 1820HOH     H2 5647   2.402   3.944   1.457
 1821HOH      O 5648   0.383   0.203   1.605
 1821HOH     H1 5649   0.433   0.285   1.601
 1821HOH     H2 5650   0.421   0.156   1.678
 1822HOH      O 5651   2.184   3.275   3.954
 1822HOH     H1 5652   2.224   3.346   4.003
 1822HOH     H2 5653   2.211   3.196   4.000
 1823HOH      O 5654   0.210   2.343   0.653
 1823HOH     H1 5655   0.263   2.414   0.691
 1823HOH     H2 5656   0.120   2.368   0.672
 1824HOH      O 5657   0.749   2.178   0.251
 1824HOH     H1 5658   0.658   2.158   0.230
 1824HOH     H2 5659   0.799   2.130   0.184
 1825HOH      O 5660   1.168   2.538   1.486
 1825HOH     H1 5661   1.123   2.496   1.559
 1825HOH     H2 5662   1.106   2.534   1.414
 1826HOH      O 5663   3.224   3.022   2.476
 1826HOH     H1 5664   3.191   3.063   2.396
 1826HOH     H2 5665   3.289   2.958   2.445
 1827HOH      O 5666   3.730   2.615   3.819
 1827HOH     H1 5667   3.725   2.532   3.868
 1827HOH     H2 5668   3.761   2.589   3.732
 1828HOH      O 5669   3.677   3.213   0.876
 1828HOH     H1 5670   3.619   3.204   0.801
 1828HOH     H2 5671   3.670   3.129   0.921
 1829HOH      O 5672   2.996   3.376   2.336
 1829HOH     H1 5673   2.956   3.351   2.252
 1829HOH     H2 5674   2.951   3.321   2.400
 1830HOH      O 5675   3.407   3.810   1.553
 1830HOH     H1 5676   3.372   3.871   1.617
 1830HOH     H2 5677   3.387   3.723   1.589
 1831HOH      O 5678   2.879   0.098   3.137
 1831HOH     H1 5679   2.893   0.008   3.167
 1831HOH     H2 5680   2.787   0.101   3.113
 1832HOH      O 5681   3.751   0.496   0.830
 1832HOH     H1 5682   3.659   0.510   0.853
 1832HOH     H2 5683   3.765   0.402   0.842
 1833HOH      O 5684   3.914   0.892   1.087
 1833HOH     H1 5685   3.862   0.934   1.155
 1833HOH     H2 5686   3.849   0.852   1.029
 1834HOH      O 5687   3.954   2.877   1.797
 1834HOH     H1 5688   3.972   2.847   1.708
 1834HOH     H2 5689   3.946   2.797   1.849
 1835HOH      O 5690   1.553   2.153   0.948
 1835HOH     H1 5691   1.560   2.216   1.020
 1835HOH     H2 5692   1.603   2.192   0.877
 1836HOH      O 5693   3.929   0.718   2.316
 1836HOH     H1 5694   3.969   0.695   2.232
 1836HOH     H2 5695   3.946   0.811   2.326
 1837HOH      O 5696   2.048   3.616   3.332
 1837HOH     H1 5697   1.988   3.577   3.395
 1837HOH     H2 5698   2.047   3.556   3.257
 1838HOH      O 5699   1.742   1.032   1.837
 1838HOH     H1 5700   1.818   0.984   1.868
 1838HOH     H2 5701   1.699   1.063   1.917
 1839HOH      O 5702   2.768   1.271   0.911
 1839HOH     H1 5703   2.717   1.234   0.983
 1839HOH     H2 5704   2.748   1.364   0.913
 1840HOH      O 5705   3.373   3.193   3.824
 1840HOH     H1 5706   3.377   3.102   3.854
 1840HOH     H2 5707   3.365   3.244   3.905
 1841HOH      O 5708   2.737   2.198   0.224
 1841HOH     H1 5709   2.830   2.190   0.244
 1841HOH     H2 5710   2.723   2.140   0.149
 1842HOH      O 5711   1.756   0.656   0.616
 1842HOH     H1 5712   1.692   0.587   0.598
 1842HOH     H2 5713   1.705   0.737   0.613
 1843HOH      O 5714   3.878   3.341   2.284
 1843HOH     H1 5715   3.974   3.335   2.288
 1843HOH     H2 5716   3.861   3.425   2.242
 1844HOH      O 5717   1.315   0.068   1.025
 1844HOH     H1 5718   1.327   0.101   1.114
 1844HOH     H2 5719   1.400   0.033   1.001
 1845HOH      O 5720   2.425   2.159   1.195
 1845HOH     H1 5721   2.453   2.131   1.108
 1845HOH     H2 5722   2.477   2.105   1.255
 1846HOH      O 5723   3.337   2.785   1.628
 1846HOH     H1 5724   3.361   2.711   1.683
 1846HOH     H2 5725   3.297   2.848   1.688
 1847HOH      O 5726   2.224   1.760   1.198
 1847HOH     H1 5727   2.251   1.839   1.152
 1847HOH     H2 5728   2.278   1.691   1.160
 1848HOH      O 5729   0.057   3.657   3.472
 1848HOH     H1 5730  -0.033   3.656   3.441
 1848HOH     H2 5731   0.068   3.744   3.510
 1849HOH      O 5732   0.988   0.484   2.725
 1849HOH     H1 5733   0.992   0.553   2.790
 1849HOH     H2 5734   0.898   0.486   2.693
 1850HOH      O 5735   1.943   1.199   1.097
 1850HOH     H1 5736   1.958   1.170   1.007
 1850HOH     H2 5737   1.913   1.121   1.143
 1851HOH      O 5738   3.070   1.216   0.831
 1851HOH     H1 5739   3.123   1.199   0.909
 1851HOH     H2 5740   2.988   1.251   0.866
 1852HOH      O 5741   3.396   1.132   0.900
 1852HOH     H1 5742   3.439   1.054   0.934
 1852HOH     H2 5743   3.397   1.193   0.974
 1853HOH      O 5744   1.311   2.836   2.591
 1853HOH     H1 5745   1.270   2.806   2.672
 1853HOH     H2 5746   1.300   2.932   2.593
 1854HOH      O 5747   2.463   3.890   1.801
 1854HOH     H1 5748   2.450   3.797   1.785
 1854HOH     H2 5749   2.482   3.895   1.895
 1855HOH      O 5750   0.904   1.821   1.879
 1855HOH     H1 5751   0.930   1.729   1.880
 1855HOH     H2 5752   0.809   1.819   1.894
 1856HOH      O 5753   0.938   3.412   3.465
 1856HOH     H1 5754   0.934   3.326   3.422
 1856HOH     H2 5755   1.031   3.431   3.472
 1857HOH      O 5756   3.524   1.545   2.340
 1857HOH     H1 5757   3.544   1.635   2.365
 1857HOH     H2 5758   3.580   1.527   2.265
 1858HOH      O 5759   2.305   0.395   0.889
 1858HOH     H1 5760   2.367   0.347   0.942
 1858HOH     H2 5761   2.355   0.469   0.853
 1859HOH      O 5762   1.160   2.189   1.549
 1859HOH     H1 5763   1.219   2.224   1.482
 1859HOH     H2 5764   1.085   2.155   1.500
 1860HOH      O 5765   2.704   1.880   1.956
 1860HOH     H1 5766   2.615   1.846   1.964
 1860HOH     H2 5767   2.712   1.944   2.027
 1861HOH      O 5768   2.165   3.936   3.946
 1861HOH     H1 5769   2.108   3.922   3.871
 1861HOH     H2 5770   2.106   3.960   4.017
 1862HOH      O 5771   1.233   0.108   2.870
 1862HOH     H1 5772   1.202   0.038   2.928
 1862HOH     H2 5773   1.159   0.128   2.814
 1863HOH      O 5774   3.835   0.377   3.352
 1863HOH     H1 5775   3.856   0.370   3.259
 1863HOH     H2 5776   3.762   0.317   3.364
 1864HOH      O 5777   2.689   2.462   2.271
 1864HOH     H1 5778   2.764   2.444   2.214
 1864HOH     H2 5779   2.715   2.539   2.321
 1865HOH      O 5780   2.609   3.980   3.468
 1865HOH     H1 5781   2.553   3.903   3.472
 1865HOH     H2 5782   2.631   3.989   3.376
 1866HOH      O 5783   2.600   0.987   2.780
 1866HOH     H1 5784   2.694   1.007   2.779
 1866HOH     H2 5785   2.560   1.064   2.822
 1867HOH      O 5786   3.110   0.894   0.972
 1867HOH     H1 5787   3.137   0.828   1.036
 1867HOH     H2 5788   3.163   0.876   0.895
 1868HOH      O 5789   2.057   3.092   2.850
 1868HOH     H1 5790   2.142   3.070   2.812
 1868HOH     H2 5791   2.034   3.175   2.809
 1869HOH      O 5792   2.006   2.413   1.213
 1869HOH     H1 5793   2.032   2.330   1.174
 1869HOH     H2 5794   1.976   2.390   1.301
 1870HOH      O 5795   0.316   1.671   1.709
 1870HOH     H1 5796   0.308   1.706   1.798
 1870HOH     H2 5797   0.305   1.576   1.720
 1871HOH      O 5798   2.899   2.275   2.750
 1871HOH     H1 5799   2.892   2.272   2.846
 1871HOH     H2 5800   2.876   2.186   2.722
 1872HOH      O 5801   3.519   0.358   3.682
 1872HOH     H1 5802   3.569   0.421   3.734
 1872HOH     H2 5803   3.464   0.412   3.625
 1873HOH      O 5804   1.411   0.115   2.678
 1873HOH     H1 5805   1.353   0.112   2.754
 1873HOH     H2 5806   1.426   0.209   2.664
 1874HOH      O 5807   2.409   0.388   1.848
 1874HOH     H1 5808   2.444   0.347   1.927
 1874HOH     H2 5809   2.335   0.441   1.878
 1875HOH      O 5810   2.856   0.978   3.490
 1875HOH     H1 5811   2.783   0.970   3.552
 1875HOH     H2 5812   2.907   1.051   3.523
 1876HOH      O 5813   0.824   1.310   1.990
 1876HOH     H1 5814   0.740   1.350   2.013
 1876HOH     H2 5815   0.849   1.261   2.068
 1877HOH      O 5816   3.060   1.645   0.242
 1877HOH     H1 5817   3.092   1.558   0.263
 1877HOH     H2 5818   3.136   1.690   0.204
 1878HOH      O 5819   2.410   1.453   1.328
 1878HOH     H1 5820   2.357   1.404   1.264
 1878HOH     H2 5821   2.470   1.388   1.364
 1879HOH      O 5822   3.993   1.332   1.067
 1879HOH     H1 5823   3.954   1.252   1.031
 1879HOH     H2 5824   3.942   1.403   1.028
 1880HOH      O 5825   1.836   0.669   1.724
 1880HOH     H1 5826   1.828   0.659   1.819
 1880HOH     H2 5827   1.926   0.698   1.710
 1881HOH      O 5828   2.339   0.562   2.241
 1881HOH     H1 5829   2.408   0.550   2.175
 1881HOH     H2 5830   2.386   0.587   2.320
 1882HOH      O 5831   3.707   2.290   1.622
 1882HOH     H1 5832   3.703   2.195   1.634
 1882HOH     H2 5833   3.617   2.315   1.599
 1883HOH      O 5834   1.478   2.497   1.586
 1883HOH     H1 5835   1.567   2.465   1.600
 1883HOH     H2 5836   1.466   2.495   1.491
 1884HOH      O 5837   2.906   3.105   1.816
 1884HOH     H1 5838   2.879   3.013   1.810
 1884HOH     H2 5839   2.833   3.148   1.859
 1885HOH      O 5840   0.220   0.302   3.228
 1885HOH     H1 5841   0.192   0.366   3.163
 1885HOH     H2 5842   0.310   0.280   3.204
 1886HOH      O 5843   3.640   1.102   0.724
 1886HOH     H1 5844   3.562   1.147   0.756
 1886HOH     H2 5845   3.606   1.035   0.665
 1887HOH      O 5846   3.327   3.696   0.989
 1887HOH     H1 5847   3.357   3.605   0.991
 1887HOH     H2 5848   3.263   3.701   1.060
 1888HOH      O 5849   0.801   1.312   0.443
 1888HOH     H1 5850   0.805   1.220   0.469
 1888HOH     H2 5851   0.844   1.315   0.358
 1889HOH      O 5852   0.073   2.907   0.846
 1889HOH     H1 5853   0.084   2.863   0.762
 1889HOH     H2 5854   0.039   2.838   0.904
 1890HOH      O 5855   1.782   2.249   1.845
 1890HOH     H1 5856   1.693   2.217   1.860
 1890HOH     H2 5857   1.777   2.344   1.859
 1891HOH      O 5858   1.593   0.051   2.102
 1891HOH     H1 5859   1.664   0.115   2.103
 1891HOH     H2 5860   1.513   0.103   2.097
 1892HOH      O 5861   0.446   2.472   0.322
 1892HOH     H1 5862   0.391   2.395   0.334
 1892HOH     H2 5863   0.489   2.458   0.237
 1893HOH      O 5864   0.510   1.050   2.903
 1893HOH     H1 5865   0.424   1.043   2.945
 1893HOH     H2 5866   0.498   1.010   2.817
 1894HOH      O 5867   2.181   0.698   0.295
 1894HOH     H1 5868   2.127   0.619   0.297
 1894HOH     H2 5869   2.137   0.755   0.232
 1895HOH      O 5870   3.221   0.235   3.418
 1895HOH     H1 5871   3.183   0.322   3.404
 1895HOH     H2 5872   3.231   0.198   3.329
 1896HOH      O 5873   3.560   0.680   2.106
 1896HOH     H1 5874   3.564   0.774   2.124
 1896HOH     H2 5875   3.594   0.639   2.186
 1897HOH      O 5876   1.388   2.713   1.353
 1897HOH     H1 5877   1.392   2.767   1.432
 1897HOH     H2 5878   1.298   2.682   1.350
 1898HOH      O 5879   0.543   3.812   0.239
 1898HOH     H1 5880   0.465   3.758   0.253
 1898HOH     H2 5881   0.585   3.816   0.325
 1899HOH      O 5882   2.196   2.965   0.808
 1899HOH     H1 5883   2.132   2.978   0.878
 1899HOH     H2 5884   2.228   2.875   0.821
 1900HOH      O 5885   4.003   2.457   0.749
 1900HOH     H1 5886   3.913   2.445   0.718
 1900HOH     H2 5887   4.005   2.546   0.783
 1901HOH      O 5888   0.779   2.373   1.862
 1901HOH     H1 5889   0.798   2.280   1.877
 1901HOH     H2 5890   0.685   2.381   1.875
 1902HOH      O 5891   3.453   2.216   3.702
 1902HOH     H1 5892   3.545   2.242   3.694
 1902HOH     H2 5893   3.405   2.283   3.653
 1903HOH      O 5894   0.839   0.273   3.262
 1903HOH     H1 5895   0.797   0.189   3.279
 1903HOH     H2 5896   0.766   0.332   3.240
 1904HOH      O 5897   0.057   1.314   1.330
 1904HOH     H1 5898   0.012   1.334   1.248
 1904HOH     H2 5899   0.081   1.400   1.365
 1905HOH      O 5900   2.422   2.424   2.288
 1905HOH     H1 5901   2.417   2.370   2.367
 1905HOH     H2 5902   2.511   2.461   2.290
 1906HOH      O 5903   3.991   2.747   3.635
 1906HOH     H1 5904   4.061   2.781   3.689
 1906HOH     H2 5905   3.926   2.817   3.632
 1907HOH      O 5906   0.971   2.057   0.097
 1907HOH     H1 5907   1.020   1.976   0.109
 1907HOH     H2 5908   0.891   2.029   0.052
 1908HOH      O 5909   3.873   0.162   1.839
 1908HOH     H1 5910   3.846   0.240   1.792
 1908HOH     H2 5911   3.830   0.090   1.793
 1909HOH      O 5912   0.120   0.940   2.788
 1909HOH     H1 5913   0.173   0.984   2.854
 1909HOH     H2 5914   0.168   0.954   2.706
 1910HOH      O 5915   1.133   3.623   0.302
 1910HOH     H1 5916   1.086   3.596   0.381
 1910HOH     H2 5917   1.083   3.585   0.230
 1911HOH      O 5918   0.536   0.664   1.244
 1911HOH     H1 5919   0.598   0.709   1.302
 1911HOH     H2 5920   0.576   0.668   1.158
 1912HOH      O 5921   0.371   2.661   1.240
 1912HOH     H1 5922   0.414   2.696   1.318
 1912HOH     H2 5923   0.363   2.567   1.257
 1913HOH      O 5924   1.558   3.219   3.748
 1913HOH     H1 5925   1.536   3.167   3.671
 1913HOH     H2 5926   1.573   3.154   3.817
 1914HOH      O 5927   1.881   0.219   3.201
 1914HOH     H1 5928   1.870   0.294   3.142
 1914HOH     H2 5929   1.798   0.215   3.249
 1915HOH      O 5930   1.506   2.452   2.574
 1915HOH     H1 5931   1.579   2.401   2.608
 1915HOH     H2 5932   1.430   2.395   2.586
 1916HOH      O 5933   0.800   3.525   2.463
 1916HOH     H1 5934   0.850   3.498   2.386
 1916HOH     H2 5935   0.710   3.534   2.431
 1917HOH      O 5936   1.289   2.767   4.018
 1917HOH     H1 5937   1.240   2.701   4.066
 1917HOH     H2 5938   1.232   2.792   3.945
 1918HOH      O 5939   2.758   3.974   2.270
 1918HOH     H1 5940   2.813   3.910   2.225
 1918HOH     H2 5941   2.726   3.927   2.348
 1919HOH      O 5942   2.931   3.394   3.251
 1919HOH     H1 5943   2.938   3.314   3.199
 1919HOH     H2 5944   2.875   3.370   3.325
 1920HOH      O 5945   3.393   2.025   1.210
 1920HOH     H1 5946   3.401   2.108   1.163
 1920HOH     H2 5947   3.302   2.022   1.238
 1921HOH      O 5948   0.899   3.419   3.747
 1921HOH     H1 5949   0.820   3.427   3.800
 1921HOH     H2 5950   0.868   3.415   3.657
 1922HOH      O 5951   0.832   3.052   0.539
 1922HOH     H1 5952   0.741   3.046   0.568
 1922HOH     H2 5953   0.826   3.060   0.444
 1923HOH      O 5954   0.485   2.686   3.242
 1923HOH     H1 5955   0.398   2.647   3.247
 1923HOH     H2 5956   0.537   2.635   3.304
 1924HOH      O 5957   0.155   3.167   1.121
 1924HOH     H1 5958   0.222   3.235   1.121
 1924HOH     H2 5959   0.204   3.085   1.131
 1925HOH      O 5960   2.687   1.537   0.932
 1925HOH     H1 5961   2.609   1.572   0.888
 1925HOH     H2 5962   2.712   1.607   0.993
 1926HOH      O 5963   2.159   3.368   3.610
 1926HOH     H1 5964   2.071   3.330   3.615
 1926HOH     H2 5965   2.217   3.298   3.640
 1927HOH      O 5966   3.796   2.927   3.565
 1927HOH     H1 5967   3.733   2.898   3.500
 1927HOH     H2 5968   3.865   2.971   3.515
 1928HOH      O 5969   1.077   1.085   2.284
 1928HOH     H1 5970   1.106   1.015   2.226
 1928HOH     H2 5971   1.106   1.057   2.371
 1929HOH      O 5972   3.202   1.250   0.069
 1929HOH     H1 5973   3.281   1.261   0.121
 1929HOH     H2 5974   3.151   1.184   0.116
 1930HOH      O 5975   2.171   2.612   2.236
 1930HOH     H1 5976   2.238   2.587   2.172
 1930HOH     H2 5977   2.156   2.705   2.220
 1931HOH      O 5978   3.729   0.892   3.639
 1931HOH     H1 5979   3.819   0.899   3.669
 1931HOH     H2 5980   3.687   0.972   3.671
 1932HOH      O 5981   3.666   2.935   2.964
 1932HOH     H1 5982   3.681   3.007   3.025
 1932HOH     H2 5983   3.660   2.857   3.019
 1933HOH      O 5984   0.201   3.211   1.453
 1933HOH     H1 5985   0.252   3.221   1.533
 1933HOH     H2 5986   0.252   3.258   1.387
 1934HOH      O 5987   3.023   0.011   2.880
 1934HOH     H1 5988   3.107   0.025   2.838
 1934HOH     H2 5989   3.031   0.054   2.965
 1935HOH      O 5990   2.062   2.560   1.549
 1935HOH     H1 5991   2.100   2.562   1.637
 1935HOH     H2 5992   1.985   2.617   1.554
 1936HOH      O 5993   3.716   1.143   2.113
 1936HOH     H1 5994   3.799   1.122   2.155
 1936HOH     H2 5995   3.731   1.129   2.020
 1937HOH      O 5996   0.420   1.186   0.458
 1937HOH     H1 5997   0.396   1.272   0.493
 1937HOH     H2 5998   0.469   1.206   0.378
 1938HOH      O 5999   3.551   0.255   0.221
 1938HOH     H1 6000   3.555   0.289   0.132
 1938HOH     H2 6001   3.565   0.161   0.211
 1939HOH      O 6002   2.227   0.974   0.390
 1939HOH     H1 6003   2.210   0.881   0.406
 1939HOH     H2 6004   2.147   1.018   0.418
 1940HOH      O 6005   3.962   1.348   2.172
 1940HOH     H1 6006   3.982   1.255   2.183
 1940HOH     H2 6007   3.995   1.389   2.251
 1941HOH      O 6008   3.199   0.405   0.597
 1941HOH     H1 6009   3.166   0.452   0.520
 1941HOH     H2 6010   3.212   0.315   0.566
 1942HOH      O 6011   3.011   3.811   0.648
 1942HOH     H1 6012   3.104   3.826   0.632
 1942HOH     H2 6013   2.994   3.724   0.611
 1943HOH      O 6014   0.761   0.016   0.561
 1943HOH     H1 6015   0.855   0.015   0.576
 1943HOH     H2 6016   0.733   0.105   0.582
 1944HOH      O 6017   0.403   0.339   1.023
 1944HOH     H1 6018   0.479   0.380   0.982
 1944HOH     H2 6019   0.421   0.340   1.116
 1945HOH      O 6020   3.457   2.458   1.646
 1945HOH     H1 6021   3.364   2.436   1.650
 1945HOH     H2 6022   3.481   2.476   1.737
 1946HOH      O 6023   1.936   1.627   3.586
 1946HOH     H1 6024   1.868   1.653   3.524
 1946HOH     H2 6025   1.985   1.558   3.540
 1947HOH      O 6026   1.881   2.662   3.970
 1947HOH     H1 6027   1.870   2.567   3.970
 1947HOH     H2 6028   1.945   2.678   4.040
 1948HOH      O 6029   3.347   2.748   2.914
 1948HOH     H1 6030   3.413   2.680   2.901
 1948HOH     H2 6031   3.309   2.761   2.827
 1949HOH      O 6032   0.886   0.204   2.992
 1949HOH     H1 6033   0.907   0.253   3.072
 1949HOH     H2 6034   0.905   0.113   3.014
 1950HOH      O 6035   1.897   2.504   2.089
 1950HOH     H1 6036   1.923   2.596   2.094
 1950HOH     H2 6037   1.965   2.457   2.138
 1951HOH      O 6038   3.265   3.486   0.618
 1951HOH     H1 6039   3.253   3.564   0.564
 1951HOH     H2 6040   3.359   3.484   0.637
 1952HOH      O 6041   1.242   3.447   3.200
 1952HOH     H1 6042   1.210   3.357   3.188
 1952HOH     H2 6043   1.333   3.436   3.228
 1953HOH      O 6044   1.191   0.853   1.401
 1953HOH     H1 6045   1.267   0.885   1.353
 1953HOH     H2 6046   1.129   0.828   1.332
 1954HOH      O 6047   4.000   3.150   1.752
 1954HOH     H1 6048   3.958   3.068   1.777
 1954HOH     H2 6049   4.091   3.140   1.782
 1955HOH      O 6050   0.862   2.861   3.697
 1955HOH     H1 6051   0.822   2.833   3.615
 1955HOH     H2 6052   0.793   2.851   3.762
 1956HOH      O 6053   0.433   3.747   0.954
 1956HOH     H1 6054   0.365   3.689   0.990
 1956HOH     H2 6055   0.449   3.713   0.866
 1957HOH      O 6056   0.504   1.696   2.199
 1957HOH     H1 6057   0.558   1.771   2.224
 1957HOH     H2 6058   0.433   1.734   2.147
 1958HOH      O 6059   1.286   2.962   0.514
 1958HOH     H1 6060   1.276   3.052   0.482
 1958HOH     H2 6061   1.337   2.971   0.594
 1959HOH      O 6062   3.567   0.435   0.413
 1959HOH     H1 6063   3.567   0.404   0.504
 1959HOH     H2 6064   3.581   0.356   0.361
 1960HOH      O 6065   2.372   0.451   3.136
 1960HOH     H1 6066   2.409   0.467   3.223
 1960HOH     H2 6067   2.298   0.512   3.130
 1961HOH      O 6068   1.146   3.968   3.088
 1961HOH     H1 6069   1.092   3.966   3.167
 1961HOH     H2 6070   1.126   3.887   3.042
 1962HOH      O 6071   0.715   0.825   2.647
 1962HOH     H1 6072   0.779   0.791   2.709
 1962HOH     H2 6073   0.659   0.750   2.627
 1963HOH      O 6074   0.319   0.968   1.526
 1963HOH     H1 6075   0.235   0.923   1.516
 1963HOH     H2 6076   0.331   0.976   1.620
 1964HOH      O 6077   2.806   1.701   2.993
 1964HOH     H1 6078   2.895   1.684   3.023
 1964HOH     H2 6079   2.803   1.796   2.982
 1965HOH      O 6080   3.919   0.607   1.563
 1965HOH     H1 6081   3.828   0.582   1.547
 1965HOH     H2 6082   3.912   0.683   1.621
 1966HOH      O 6083   3.454   2.902   2.027
 1966HOH     H1 6084   3.435   2.919   1.935
 1966HOH     H2 6085   3.507   2.822   2.026
 1967HOH      O 6086   0.274   2.926   1.185
 1967HOH     H1 6087   0.348   2.875   1.152
 1967HOH     H2 6088   0.288   2.932   1.279
 1968HOH      O 6089   2.102   0.648   3.967
 1968HOH     H1 6090   2.069   0.720   4.021
 1968HOH     H2 6091   2.026   0.619   3.917
 1969HOH      O 6092   0.463   2.947   0.359
 1969HOH     H1 6093   0.513   2.946   0.278
 1969HOH     H2 6094   0.445   3.040   0.374
 1970HOH      O 6095   2.069   0.366   3.520
 1970HOH     H1 6096   2.164   0.363   3.532
 1970HOH     H2 6097   2.045   0.455   3.545
 1971HOH      O 6098   3.848   0.125   0.880
 1971HOH     H1 6099   3.929   0.174   0.895
 1971HOH     H2 6100   3.820   0.100   0.968
 1972HOH      O 6101   2.246   1.729   3.454
 1972HOH     H1 6102   2.340   1.734   3.473
 1972HOH     H2 6103   2.207   1.797   3.509
 1973HOH      O 6104   0.537   2.994   3.883
 1973HOH     H1 6105   0.454   3.030   3.914
 1973HOH     H2 6106   0.603   3.035   3.939
 1974HOH      O 6107   1.779   2.510   1.049
 1974HOH     H1 6108   1.835   2.479   1.120
 1974HOH     H2 6109   1.832   2.575   1.004
 1975HOH      O 6110   2.851   2.940   3.081
 1975HOH     H1 6111   2.872   2.933   2.988
 1975HOH     H2 6112   2.784   2.872   3.096
 1976HOH      O 6113   0.750   0.604   0.376
 1976HOH     H1 6114   0.800   0.528   0.344
 1976HOH     H2 6115   0.669   0.602   0.326
 1977HOH      O 6116   3.545   0.912   0.566
 1977HOH     H1 6117   3.504   0.826   0.569
 1977HOH     H2 6118   3.494   0.962   0.501
 1978HOH      O 6119   3.632   3.715   0.136
 1978HOH     H1 6120   3.664   3.651   0.072
 1978HOH     H2 6121   3.699   3.717   0.204
 1979HOH      O 6122   2.282   2.690   2.554
 1979HOH     H1 6123   2.355   2.653   2.603
 1979HOH     H2 6124   2.265   2.627   2.485
 1980HOH      O 6125   1.649   1.356   0.999
 1980HOH     H1 6126   1.683   1.445   0.991
 1980HOH     H2 6127   1.698   1.306   0.934
 1981HOH      O 6128   3.627   3.109   3.240
 1981HOH     H1 6129   3.659   3.170   3.173
 1981HOH     H2 6130   3.541   3.141   3.263
 1982HOH      O 6131   3.101   1.066   0.578
 1982HOH     H1 6132   3.028   1.048   0.519
 1982HOH     H2 6133   3.062   1.112   0.652
 1983HOH      O 6134   1.087   2.762   0.303
 1983HOH     H1 6135   1.119   2.851   0.287
 1983HOH     H2 6136   1.141   2.730   0.376
 1984HOH      O 6137   0.060   1.132   1.538
 1984HOH     H1 6138   0.081   1.185   1.615
 1984HOH     H2 6139   0.054   1.195   1.466
 1985HOH      O 6140   3.971   2.614   1.666
 1985HOH     H1 6141   4.011   2.533   1.698
 1985HOH     H2 6142   4.042   2.660   1.620
 1986HOH      O 6143   2.225   0.399   0.407
 1986HOH     H1 6144   2.219   0.426   0.315
 1986HOH     H2 6145   2.134   0.384   0.433
 1987HOH      O 6146   0.802   2.220   0.522
 1987HOH     H1 6147   0.778   2.207   0.431
 1987HOH     H2 6148   0.778   2.311   0.541
 1988HOH      O 6149   2.579   2.253   0.489
 1988HOH     H1 6150   2.620   2.326   0.534
 1988HOH     H2 6151   2.649   2.216   0.435
 1989HOH      O 6152   3.506   0.361   2.541
 1989HOH     H1 6153   3.510   0.288   2.479
 1989HOH     H2 6154   3.525   0.321   2.626
 1990HOH      O 6155   0.578   3.247   2.793
 1990HOH     H1 6156   0.668   3.264   2.765
 1990HOH     H2 6157   0.586   3.214   2.882
 1991HOH      O 6158   2.073   2.885   2.496
 1991HOH     H1 6159   2.138   2.821   2.525
 1991HOH     H2 6160   1.998   2.832   2.469
 1992HOH      O 6161   1.040   3.735   1.993
 1992HOH     H1 6162   1.118   3.700   2.034
 1992HOH     H2 6163   1.028   3.682   1.914
 1993HOH      O 6164   3.257   2.155   0.573
 1993HOH     H1 6165   3.304   2.178   0.654
 1993HOH     H2 6166   3.186   2.098   0.602
 1994HOH      O 6167   2.336   2.791   4.027
 1994HOH     H1 6168   2.277   2.716   4.026
 1994HOH     H2 6169   2.387   2.783   3.947
 1995HOH      O 6170   1.645   2.037   0.119
 1995HOH     H1 6171   1.634   2.091   0.197
 1995HOH     H2 6172   1.676   1.953   0.152
 1996HOH      O 6173   0.670   0.062   3.235
 1996HOH     H1 6174   0.625   0.018   3.307
 1996HOH     H2 6175   0.711  -0.009   3.186
 1997HOH      O 6176   2.839   0.674   1.242
 1997HOH     H1 6177   2.900   0.691   1.313
 1997HOH     H2 6178   2.763   0.728   1.262
 1998HOH      O 6179   3.388   0.525   1.705
 1998HOH     H1 6180   3.408   0.446   1.655
 1998HOH     H2 6181   3.474   0.566   1.719
 1999HOH      O 6182   2.519   1.843   3.772
 1999HOH     H1 6183   2.465   1.886   3.706
 1999HOH     H2 6184   2.604   1.887   3.766
 2000HOH      O 6185   2.469   2.879   0.551
 2000HOH     H1 6186   2.427   2.860   0.635
 2000HOH     H2 6187   2.552   2.921   0.576
 2001HOH      O 6188   0.379   4.017   1.277
 2001HOH     H1 6189   0.306   4.070   1.310
 2001HOH     H2 6190   0.349   3.927   1.285
 2002HOH      O 6191   0.637   2.634   3.456
 2002HOH     H1 6192   0.661   2.552   3.499
 2002HOH     H2 6193   0.565   2.669   3.508
 2003HOH      O 6194   0.416   3.666   3.438
 2003HOH     H1 6195   0.338   3.667   3.383
 2003HOH     H2 6196   0.438   3.758   3.451
 2004HOH      O 6197   0.585   2.007   1.035
 2004HOH     H1 6198   0.542   2.029   1.117
 2004HOH     H2 6199   0.537   2.056   0.968
 2005HOH      O 6200   0.672   2.577   3.849
 2005HOH     H1 6201   0.766   2.563   3.837
 2005HOH     H2 6202   0.632   2.517   3.786
 2006HOH      O 6203   2.777   0.173   0.280
 2006HOH     H1 6204   2.818   0.135   0.358
 2006HOH     H2 6205   2.850   0.214   0.233
 2007HOH      O 6206   0.891   2.266   2.208
 2007HOH     H1 6207   0.880   2.188   2.262
 2007HOH     H2 6208   0.927   2.332   2.267
 2008HOH      O 6209   0.365   0.659   0.941
 2008HOH     H1 6210   0.347   0.579   0.991
 2008HOH     H2 6211   0.345   0.730   1.002
 2009HOH      O 6212   0.416   1.756   0.220
 2009HOH     H1 6213   0.345   1.810   0.254
 2009HOH     H2 6214   0.495   1.792   0.260
 2010HOH      O 6215   2.519   2.525   0.790
 2010HOH     H1 6216   2.474   2.497   0.711
 2010HOH     H2 6217   2.454   2.516   0.859
 2011HOH      O 6218   2.044   2.683   0.174
 2011HOH     H1 6219   2.014   2.614   0.234
 2011HOH     H2 6220   2.040   2.763   0.227
 2012HOH      O 6221   2.705   2.730   3.142
 2012HOH     H1 6222   2.759   2.658   3.175
 2012HOH     H2 6223   2.643   2.688   3.083
 2013HOH      O 6224   2.647   1.312   3.730
 2013HOH     H1 6225   2.699   1.364   3.668
 2013HOH     H2 6226   2.699   1.312   3.810
 2014HOH      O 6227   0.240   3.494   3.953
 2014HOH     H1 6228   0.221   3.512   3.861
 2014HOH     H2 6229   0.157   3.511   3.998
 2015HOH      O 6230   3.308   0.752   3.041
 2015HOH     H1 6231   3.256   0.802   3.104
 2015HOH     H2 6232   3.387   0.806   3.028
 2016HOH      O 6233   3.820   3.556   1.391
 2016HOH     H1 6234   3.875   3.524   1.462
 2016HOH     H2 6235   3.792   3.476   1.345
 2017HOH      O 6236   2.573   0.173   1.373
 2017HOH     H1 6237   2.544   0.219   1.294
 2017HOH     H2 6238   2.559   0.236   1.444
 2018HOH      O 6239   3.904   0.089   2.097
 2018HOH     H1 6240   3.868   0.100   2.008
 2018HOH     H2 6241   3.986   0.042   2.084
 2019HOH      O 6242   1.210   2.178   0.451
 2019HOH     H1 6243   1.222   2.250   0.389
 2019HOH     H2 6244   1.221   2.218   0.537
 2020HOH      O 6245   3.556   2.627   1.012
 2020HOH     H1 6246   3.640   2.587   0.987
 2020HOH     H2 6247   3.580   2.693   1.077
 2021HOH      O 6248   2.954   2.430  -0.002
 2021HOH     H1 6249   2.901   2.475   0.063
 2021HOH     H2 6250   3.023   2.387   0.048
 2022HOH      O 6251   2.264   2.304   0.671
 2022HOH     H1 6252   2.182   2.267   0.702
 2022HOH     H2 6253   2.330   2.237   0.690
 2023HOH      O 6254   1.868   0.339   2.657
 2023HOH     H1 6255   1.802   0.298   2.713
 2023HOH     H2 6256   1.921   0.266   2.626
 2024HOH      O 6257   0.732   2.784   2.303
 2024HOH     H1 6258   0.710   2.694   2.278
 2024HOH     H2 6259   0.650   2.832   2.293
 2025HOH      O 6260   1.077   0.470   1.702
 2025HOH     H1 6261   1.172   0.480   1.710
 2025HOH     H2 6262   1.061   0.475   1.607
 2026HOH      O 6263   3.336   2.462   3.185
 2026HOH     H1 6264   3.282   2.513   3.245
 2026HOH     H2 6265   3.279   2.443   3.111
 2027HOH      O 6266   3.776   2.860   3.968
 2027HOH     H1 6267   3.861   2.869   4.011
 2027HOH     H2 6268   3.783   2.778   3.919
 2028HOH      O 6269   2.628  -0.003   3.168
 2028HOH     H1 6270   2.552   0.054   3.156
 2028HOH     H2 6271   2.648  -0.034   3.080
 2029HOH      O 6272   0.337   3.588   0.247
 2029HOH     H1 6273   0.322   3.542   0.165
 2029HOH     H2 6274   0.254   3.582   0.294
 2030HOH      O 6275   2.300   3.293   2.918
 2030HOH     H1 6276   2.390   3.261   2.917
 2030HOH     H2 6277   2.260   3.252   2.995
 2031HOH      O 6278   3.461   0.930   2.708
 2031HOH     H1 6279   3.509   0.902   2.786
 2031HOH     H2 6280   3.511   0.895   2.635
 2032HOH      O 6281   3.249   1.841   0.139
 2032HOH     H1 6282   3.224   1.925   0.101
 2032HOH     H2 6283   3.315   1.863   0.205
 2033HOH      O 6284   1.162   1.587   1.042
 2033HOH     H1 6285   1.136   1.503   1.004
 2033HOH     H2 6286   1.245   1.608   0.999
 2034HOH      O 6287   1.288   1.158   1.497
 2034HOH     H1 6288   1.309   1.123   1.410
 2034HOH     H2 6289   1.362   1.129   1.551
 2035HOH      O 6290   3.805   3.301   0.108
 2035HOH     H1 6291   3.807   3.397   0.105
 2035HOH     H2 6292   3.785   3.275   0.018
 2036HOH      O 6293   0.089   3.919   1.100
 2036HOH     H1 6294   0.111   4.008   1.129
 2036HOH     H2 6295  -0.007   3.916   1.101
 2037HOH      O 6296   0.510   0.990   2.622
 2037HOH     H1 6297   0.545   1.079   2.620
 2037HOH     H2 6298   0.587   0.934   2.629
 2038HOH      O 6299   0.356   2.780   2.040
 2038HOH     H1 6300   0.304   2.859   2.051
 2038HOH     H2 6301   0.347   2.733   2.123
 2039HOH      O 6302   1.779   1.853   1.718
 2039HOH     H1 6303   1.860   1.823   1.760
 2039HOH     H2 6304   1.764   1.790   1.648
 2040HOH      O 6305   3.949   3.055   3.389
 2040HOH     H1 6306   3.956   2.971   3.344
 2040HOH     H2 6307   4.009   3.113   3.342
 2041HOH      O 6308   0.772   1.056   1.354
 2041HOH     H1 6309   0.688   1.094   1.379
 2041HOH     H2 6310   0.823   1.055   1.435
 2042HOH      O 6311   3.299   0.064   2.483
 2042HOH     H1 6312   3.335  -0.019   2.516
 2042HOH     H2 6313   3.316   0.126   2.553
 2043HOH      O 6314   1.964   2.510   0.383
 2043HOH     H1 6315   2.025   2.438   0.369
 2043HOH     H2 6316   1.877   2.470   0.378
 2044HOH      O 6317   1.510   0.831   2.739
 2044HOH     H1 6318   1.556   0.748   2.756
 2044HOH     H2 6319   1.492   0.829   2.645
 2045HOH      O 6320   2.068   1.284   1.682
 2045HOH     H1 6321   2.081   1.376   1.657
 2045HOH     H2 6322   1.973   1.273   1.681
 2046HOH      O 6323   2.046   0.359   1.739
 2046HOH     H1 6324   1.984   0.290   1.766
 2046HOH     H2 6325   2.125   0.311   1.715
 2047HOH      O 6326   3.226   0.798   2.651
 2047HOH     H1 6327   3.296   0.849   2.691
 2047HOH     H2 6328   3.271   0.735   2.595
 2048HOH      O 6329   3.620   2.718   2.091
 2048HOH     H1 6330   3.710   2.720   2.058
 2048HOH     H2 6331   3.613   2.794   2.148
 2049HOH      O 6332   3.707   2.003   1.574
 2049HOH     H1 6333   3.698   1.971   1.485
 2049HOH     H2 6334   3.777   1.950   1.612
 2050HOH      O 6335   2.089   3.363   2.326
 2050HOH     H1 6336   2.093   3.283   2.379
 2050HOH     H2 6337   2.005   3.357   2.280
 2051HOH      O 6338   2.643   0.734   3.290
 2051HOH     H1 6339   2.738   0.742   3.303
 2051HOH     H2 6340   2.608   0.729   3.379
 2052HOH      O 6341   2.357   2.653   1.687
 2052HOH     H1 6342   2.340   2.690   1.600
 2052HOH     H2 6343   2.449   2.673   1.704
 2053HOH      O 6344   0.988   2.335   0.183
 2053HOH     H1 6345   0.934   2.370   0.254
 2053HOH     H2 6346   0.973   2.240   0.186
 2054HOH      O 6347   3.505   2.122   2.648
 2054HOH     H1 6348   3.517   2.156   2.737
 2054HOH     H2 6349   3.483   2.030   2.661
 2055HOH      O 6350   2.435   0.852   0.190
 2055HOH     H1 6351   2.360   0.824   0.241
 2055HOH     H2 6352   2.493   0.776   0.188
 2056HOH      O 6353   3.346   0.736   0.952
 2056HOH     H1 6354   3.387   0.654   0.924
 2056HOH     H2 6355   3.356   0.794   0.877
 2057HOH      O 6356   3.349   2.685   1.223
 2057HOH     H1 6357   3.407   2.651   1.154
 2057HOH     H2 6358   3.364   2.780   1.221
 2058HOH      O 6359   3.822   0.885   0.602
 2058HOH     H1 6360   3.843   0.935   0.680
 2058HOH     H2 6361   3.727   0.894   0.593
 2059HOH      O 6362   0.748   0.539   2.920
 2059HOH     H1 6363   0.723   0.594   2.845
 2059HOH     H2 6364   0.665   0.517   2.962
 2060HOH      O 6365   3.383   3.204   1.569
 2060HOH     H1 6366   3.441   3.196   1.645
 2060HOH     H2 6367   3.294   3.200   1.607
 2061HOH      O 6368   2.002   3.910   3.718
 2061HOH     H1 6369   1.922   3.870   3.755
 2061HOH     H2 6370   1.989   3.903   3.623
 2062HOH      O 6371   2.893   0.919   3.975
 2062HOH     H1 6372   2.942   0.942   3.896
 2062HOH     H2 6373   2.911   0.991   4.036
 2063HOH      O 6374   1.095   3.347   0.732
 2063HOH     H1 6375   1.131   3.322   0.647
 2063HOH     H2 6376   1.163   3.402   0.771
 2064HOH      O 6377   0.533   4.012   0.056
 2064HOH     H1 6378   0.527   3.933   0.110
 2064HOH     H2 6379   0.602   3.992  -0.007
 2065HOH      O 6380   2.193   1.419   0.924
 2065HOH     H1 6381   2.099   1.413   0.939
 2065HOH     H2 6382   2.209   1.362   0.849
 2066HOH      O 6383   3.042   2.462   3.415
 2066HOH     H1 6384   2.951   2.463   3.385
 2066HOH     H2 6385   3.076   2.548   3.390
 2067HOH      O 6386   1.392   1.024   1.277
 2067HOH     H1 6387   1.472   1.076   1.285
 2067HOH     H2 6388   1.397   0.986   1.188
 2068HOH      O 6389   2.930   2.002   0.514
 2068HOH     H1 6390   2.918   2.039   0.601
 2068HOH     H2 6391   2.956   1.911   0.530
 2069HOH      O 6392   3.477   3.339   1.925
 2069HOH     H1 6393   3.524   3.421   1.945
 2069HOH     H2 6394   3.446   3.308   2.009
 2070HOH      O 6395   2.225   1.412   3.957
 2070HOH     H1 6396   2.220   1.360   3.877
 2070HOH     H2 6397   2.316   1.405   3.986
 2071HOH      O 6398   0.855   0.980   3.123
 2071HOH     H1 6399   0.859   0.913   3.191
 2071HOH     H2 6400   0.941   0.976   3.080
 2072HOH      O 6401   0.359   1.362   1.702
 2072HOH     H1 6402   0.354   1.357   1.607
 2072HOH     H2 6403   0.289   1.305   1.733
 2073HOH      O 6404   3.682   2.910   0.500
 2073HOH     H1 6405   3.716   2.980   0.556
 2073HOH     H2 6406   3.721   2.927   0.414
 2074HOH      O 6407   2.097   0.263   3.859
 2074HOH     H1 6408   2.173   0.320   3.872
 2074HOH     H2 6409   2.098   0.242   3.766
 2075HOH      O 6410   3.717   2.672   1.525
 2075HOH     H1 6411   3.676   2.678   1.611
 2075HOH     H2 6412   3.806   2.642   1.542
 2076HOH      O 6413   0.036   2.237   0.893
 2076HOH     H1 6414  -0.006   2.307   0.844
 2076HOH     H2 6415   0.088   2.281   0.959
 2077HOH      O 6416   2.309   3.848   0.116
 2077HOH     H1 6417   2.263   3.889   0.043
 2077HOH     H2 6418   2.270   3.761   0.124
 2078HOH      O 6419   0.901   3.973   1.723
 2078HOH     H1 6420   0.935   3.888   1.751
 2078HOH     H2 6421   0.977   4.018   1.686
 2079HOH      O 6422   2.933   2.210   1.363
 2079HOH     H1 6423   2.882   2.269   1.418
 2079HOH     H2 6424   2.938   2.256   1.278
 2080HOH      O 6425   3.325   0.753   2.326
 2080HOH     H1 6426   3.322   0.691   2.399
 2080HOH     H2 6427   3.357   0.834   2.365
 2081HOH      O 6428   3.036   1.511   0.893
 2081HOH     H1 6429   3.127   1.495   0.918
 2081HOH     H2 6430   2.986   1.491   0.972
 2082HOH      O 6431   0.945   0.897   3.486
 2082HOH     H1 6432   0.955   0.820   3.542
 2082HOH     H2 6433   0.851   0.899   3.466
 2083HOH      O 6434   2.135   1.618   2.099
 2083HOH     H1 6435   2.139   1.709   2.070
 2083HOH     H2 6436   2.225   1.596   2.122
 2084HOH      O 6437   2.521   3.386   1.875
 2084HOH     H1 6438   2.520   3.406   1.969
 2084HOH     H2 6439   2.441   3.337   1.860
 2085HOH      O 6440   1.977   3.417   3.117
 2085HOH     H1 6441   2.054   3.457   3.077
 2085HOH     H2 6442   1.903   3.466   3.081
 2086HOH      O 6443   1.837   3.546   0.489
 2086HOH     H1 6444   1.756   3.504   0.458
 2086HOH     H2 6445   1.907   3.500   0.443
 2087HOH      O 6446   0.078   1.837   0.703
 2087HOH     H1 6447   0.093   1.896   0.628
 2087HOH     H2 6448   0.124   1.879   0.775
 2088HOH      O 6449   3.510   3.538   0.714
 2088HOH     H1 6450   3.583   3.483   0.743
 2088HOH     H2 6451   3.533   3.626   0.741
 2089HOH      O 6452   1.253   2.646   2.393
 2089HOH     H1 6453   1.202   2.577   2.437
 2089HOH     H2 6454   1.250   2.720   2.453
 2090HOH      O 6455   1.841   3.559   3.476
 2090HOH     H1 6456   1.837   3.465   3.490
 2090HOH     H2 6457   1.813   3.597   3.559
 2091HOH      O 6458   0.631   3.398   3.119
 2091HOH     H1 6459   0.574   3.328   3.149
 2091HOH     H2 6460   0.714   3.355   3.101
 2092HOH      O 6461   0.178   0.449   3.016
 2092HOH     H1 6462   0.159   0.393   2.941
 2092HOH     H2 6463   0.157   0.537   2.986
 2093HOH      O 6464   2.472   0.233   1.135
 2093HOH     H1 6465   2.496   0.192   1.052
 2093HOH     H2 6466   2.381   0.208   1.149
 2094HOH      O 6467   1.602   2.871   3.065
 2094HOH     H1 6468   1.686   2.915   3.052
 2094HOH     H2 6469   1.581   2.832   2.980
 2095HOH      O 6470   1.898   1.936   0.865
 2095HOH     H1 6471   1.820   1.920   0.919
 2095HOH     H2 6472   1.954   1.861   0.881
 2096HOH      O 6473   2.360   0.065   0.669
 2096HOH     H1 6474   2.362   0.161   0.665
 2096HOH     H2 6475   2.351   0.037   0.578
 2097HOH      O 6476   2.293   1.992   2.419
 2097HOH     H1 6477   2.333   1.984   2.333
 2097HOH     H2 6478   2.321   2.078   2.451
 2098HOH      O 6479   2.410   0.914   3.187
 2098HOH     H1 6480   2.440   0.876   3.105
 2098HOH     H2 6481   2.489   0.952   3.227
 2099HOH      O 6482   0.270   1.910   2.885
 2099HOH     H1 6483   0.198   1.909   2.948
 2099HOH     H2 6484   0.327   1.982   2.913
 2100HOH      O 6485   3.129   3.551   3.963
 2100HOH     H1 6486   3.215   3.516   3.938
 2100HOH     H2 6487   3.149   3.623   4.022
 2101HOH      O 6488   2.308   2.298   3.165
 2101HOH     H1 6489   2.259   2.314   3.246
 2101HOH     H2 6490   2.244   2.260   3.105
 2102HOH      O 6491   3.415   2.330   3.960
 2102HOH     H1 6492   3.376   2.417   3.960
 2102HOH     H2 6493   3.420   2.305   3.868
 2103HOH      O 6494   1.939   0.748   2.659
 2103HOH     H1 6495   1.994   0.801   2.717
 2103HOH     H2 6496   1.984   0.749   2.575
 2104HOH      O 6497   0.604   3.582   2.657
 2104HOH     H1 6498   0.637   3.514   2.597
 2104HOH     H2 6499   0.556   3.533   2.724
 2105HOH      O 6500   0.947   1.079   0.016
 2105HOH     H1 6501   1.025   1.050  -0.032
 2105HOH     H2 6502   0.972   1.072   0.108
 2106HOH      O 6503   2.105   1.986   2.631
 2106HOH     H1 6504   2.160   1.946   2.563
 2106HOH     H2 6505   2.148   2.069   2.651
 2107HOH      O 6506   3.091   4.063   0.851
 2107HOH     H1 6507   3.084   4.024   0.939
 2107HOH     H2 6508   3.078   3.990   0.791
 2108HOH      O 6509   2.197   3.339   2.054
 2108HOH     H1 6510   2.163   3.276   2.117
 2108HOH     H2 6511   2.121   3.364   2.001
 2109HOH      O 6512   0.123   0.091   1.809
 2109HOH     H1 6513   0.162   0.170   1.771
 2109HOH     H2 6514   0.030   0.111   1.817
 2110HOH      O 6515   3.860   0.026   1.152
 2110HOH     H1 6516   3.800  -0.040   1.187
 2110HOH     H2 6517   3.858   0.096   1.216
 2111HOH      O 6518   0.666   0.029   1.641
 2111HOH     H1 6519   0.693   0.105   1.590
 2111HOH     H2 6520   0.748  -0.014   1.667
   4.02731   4.02731   4.02731   0.00000   0.00000   0.00000   0.00000   0.00000   0.00000
