Generated with MDTraj, t= 1386.0
 6520
    1MOL     C1    1   3.441   2.636   1.032
    1MOL     C2    2   3.438   2.534   1.125
    1MOL     C3    3   3.377   2.417   1.101
    1MOL     C4    4   3.310   2.396   0.985
    1MOL     C5    5   3.299   2.502   0.893
    1MOL     C6    6   3.368   2.624   0.916
    1MOL     C7    7   3.382   2.310   1.191
    1MOL     N1    8   3.381   2.217   1.256
    1MOL     C8    9   3.345   2.751   0.836
    1MOL     O1   10   3.254   2.753   0.757
    1MOL     O2   11   3.427   2.836   0.828
    1MOL     H1   12   3.487   2.731   1.060
    1MOL     H2   13   3.485   2.541   1.223
    1MOL     H3   14   3.260   2.300   0.976
    1MOL     H4   15   3.245   2.482   0.801
    2OCB     C1   16   4.200   1.422   1.641
    2OCB     C2   17   4.332   1.648   1.533
    2OCB     C3   18   4.296   1.494   1.715
    2OCB     C4   19   4.182   1.465   1.508
    2OCB     C5   20   4.243   1.577   1.455
    2OCB     C6   21   4.368   1.601   1.661
    2OCB     O1   22   4.384   1.765   1.479
    2OCB     C7   23   4.472   1.674   1.740
    2OCB     C8   24   4.352   1.895   1.544
    2OCB     O2   25   4.451   1.943   1.639
    2OCB     C9   26   4.407   1.920   1.777
    2OCB    C10   27   4.409   1.787   1.824
    2OCB    C11   28   4.371   1.767   1.953
    2OCB    C12   29   4.341   2.023   1.843
    2OCB    C13   30   4.308   1.869   2.027
    2OCB    C14   31   4.286   1.995   1.968
    2OCB     O3   32   4.220   2.097   2.035
    2OCB    C15   33   4.254   1.844   2.169
    2OCB    C16   34   4.108   1.804   2.165
    2OCB    C17   35   4.004   1.901   2.159
    2OCB    C18   36   4.078   2.084   2.029
    2OCB     O4   37   4.033   2.031   2.151
    2OCB     O5   38   4.074   1.427   1.428
    2OCB    C19   39   4.128   1.299   1.693
    2OCB    C20   40   4.008   1.353   1.769
    2OCB     O6   41   3.887   1.373   1.556
    2OCB    C21   42   3.890   1.377   1.700
    2OCB    C22   43   3.870   1.860   2.150
    2OCB    C23   44   3.835   1.728   2.133
    2OCB    C24   45   3.785   1.444   1.753
    2OCB    C25   46   3.787   1.479   1.887
    2OCB     O7   47   3.709   1.700   2.095
    2OCB     O8   48   3.676   1.538   1.941
    2OCB    C26   49   3.686   1.681   1.959
    2OCB    C27   50   4.014   1.392   1.897
    2OCB    C28   51   3.907   1.455   1.958
    2OCB    C29   52   4.070   1.670   2.149
    2OCB    C30   53   3.902   1.483   2.110
    2OCB    C31   54   3.938   1.630   2.131
    2OCB    C32   55   3.943   1.473   1.473
    2OCB    C33   56   4.340   1.753   2.255
    2OCB    C34   57   4.337   1.795   2.411
    2OCB    C35   58   4.444   1.719   2.495
    2OCB     O9   59   4.433   1.600   2.520
    2OCB    C36   60   4.570   1.574   1.813
    2OCB    C37   61   4.633   1.468   1.723
    2OCB    C38   62   4.744   1.388   1.795
    2OCB    O10   63   4.724   1.327   1.902
    2OCB    C39   64   4.216   1.199   1.773
    2OCB    C40   65   4.150   1.072   1.828
    2OCB    C41   66   4.241   0.955   1.875
    2OCB    O11   67   4.281   0.876   1.790
    2OCB    C42   68   3.977   1.381   2.200
    2OCB    C43   69   3.945   1.389   2.350
    2OCB    C44   70   4.010   1.279   2.435
    2OCB    O12   71   3.954   1.167   2.441
    2OCB    C45   72   4.317   2.007   1.443
    2OCB    C46   73   4.220   2.197   1.269
    2OCB    C47   74   4.316   2.143   1.486
    2OCB    C48   75   4.258   1.967   1.322
    2OCB    C49   76   4.219   2.069   1.233
    2OCB    C50   77   4.266   2.236   1.394
    2OCB    C51   78   3.848   1.504   1.355
    2OCB    C52   79   3.677   1.590   1.144
    2OCB    C53   80   3.707   1.478   1.358
    2OCB    C54   81   3.898   1.568   1.245
    2OCB    C55   82   3.814   1.614   1.139
    2OCB    C56   83   3.622   1.515   1.251
    2OCB    C57   84   3.557   1.741   1.911
    2OCB    C58   85   3.323   1.860   1.808
    2OCB    C59   86   3.521   1.873   1.954
    2OCB    C60   87   3.470   1.664   1.828
    2OCB    C61   88   3.365   1.732   1.765
    2OCB    C62   89   3.403   1.931   1.899
    2OCB    C63   90   4.010   2.218   2.001
    2OCB    C64   91   3.879   2.464   1.961
    2OCB    C65   92   3.878   2.245   2.050
    2OCB    C66   93   4.070   2.317   1.930
    2OCB    C67   94   4.008   2.442   1.909
    2OCB    C68   95   3.812   2.367   2.029
    2OCB    O13   96   3.863   1.673   1.023
    2OCB    O14   97   3.293   1.669   1.671
    2OCB    O15   98   3.365   2.058   1.941
    2OCB    O16   99   4.167   2.037   1.111
    2OCB    O17  100   4.270   2.373   1.425
    2OCB    O18  101   3.691   2.394   2.092
    2OCB    O19  102   4.070   2.548   1.847
    2OCB    C69  103   3.335   1.563   1.592
    2OCB    C70  104   3.358   1.359   1.395
    2OCB    C71  105   3.403   1.587   1.472
    2OCB    C72  106   3.290   1.436   1.622
    2OCB    C73  107   3.307   1.326   1.528
    2OCB    C74  108   3.417   1.483   1.375
    2OCB    O20  109   3.486   1.512   1.259
    2OCB    C75  110   4.141   1.915   1.058
    2OCB    C76  111   4.085   1.665   0.945
    2OCB    C77  112   4.246   1.839   1.004
    2OCB    C78  113   4.007   1.866   1.063
    2OCB    C79  114   3.985   1.735   1.017
    2OCB    C80  115   4.220   1.710   0.952
    2OCB    C81  116   3.435   2.134   2.039
    2OCB    C82  117   3.591   2.246   2.236
    2OCB    C83  118   3.426   2.085   2.172
    2OCB    C84  119   3.511   2.251   2.008
    2OCB    C85  120   3.599   2.298   2.107
    2OCB    C86  121   3.511   2.139   2.270
    2OCB    C87  122   3.520   2.070   2.404
    2OCB    O21  123   3.622   2.082   2.471
    2OCB    C88  124   4.552   2.613   1.755
    2OCB    O22  125   4.564   2.666   1.864
    2OCB    C89  126   4.327   1.631   0.882
    2OCB    O23  127   4.298   1.522   0.832
    2OCB    O24  128   4.551   1.774   2.518
    2OCB    O25  129   4.123   1.292   2.486
    2OCB    O26  130   4.263   0.939   1.996
    2OCB    C90  131   3.265   1.187   1.555
    2OCB    O27  132   3.190   1.161   1.644
    2OCB    O28  133   4.648   2.587   1.691
    2OCB    O29  134   3.445   1.985   2.434
    2OCB    O30  135   3.306   1.097   1.487
    2OCB    O31  136   4.435   1.687   0.859
    2OCB    O32  137   4.858   1.419   1.761
    2OCB    C91  138   4.275   2.434   1.555
    2OCB    C92  139   4.297   2.589   1.786
    2OCB    C93  140   4.159   2.453   1.636
    2OCB    C94  141   4.401   2.491   1.591
    2OCB    C95  142   4.415   2.572   1.702
    2OCB    C96  143   4.172   2.530   1.752
    2OCB    C97  144   4.027   2.390   1.612
    2OCB    C98  145   3.887   1.936   1.111
    2OCB    C99  146   3.461   1.723   1.442
    2OCB      C  147   3.510   2.299   1.861
    2OCB     H1  148   4.312   1.479   1.821
    2OCB     H2  149   4.222   1.608   1.353
    2OCB     H3  150   4.536   1.726   1.668
    2OCB     H4  151   4.260   1.877   1.602
    2OCB     H5  152   4.383   1.670   2.000
    2OCB     H6  153   4.330   2.121   1.798
    2OCB     H7  154   4.257   1.940   2.220
    2OCB     H8  155   4.052   2.018   1.945
    2OCB     H9  156   4.086   1.241   1.611
    2OCB    H10  157   3.785   1.929   2.147
    2OCB    H11  158   3.704   1.484   1.693
    2OCB    H12  159   3.759   1.731   1.894
    2OCB    H13  160   4.103   1.377   1.958
    2OCB    H14  161   4.144   1.591   2.151
    2OCB    H15  162   3.800   1.468   2.145
    2OCB    H16  163   3.955   1.558   1.543
    2OCB    H17  164   4.303   1.651   2.269
    2OCB    H18  165   4.442   1.753   2.216
    2OCB    H19  166   4.357   1.902   2.425
    2OCB    H20  167   4.237   1.766   2.441
    2OCB    H21  168   4.517   1.522   1.893
    2OCB    H22  169   4.656   1.619   1.863
    2OCB    H23  170   4.558   1.392   1.701
    2OCB    H24  171   4.660   1.513   1.628
    2OCB    H25  172   4.296   1.168   1.706
    2OCB    H26  173   4.266   1.249   1.856
    2OCB    H27  174   4.076   1.099   1.904
    2OCB    H28  175   4.091   1.037   1.743
    2OCB    H29  176   3.951   1.283   2.160
    2OCB    H30  177   4.087   1.382   2.198
    2OCB    H31  178   3.979   1.489   2.378
    2OCB    H32  179   3.837   1.390   2.359
    2OCB    H33  180   4.173   2.264   1.198
    2OCB    H34  181   4.347   2.177   1.584
    2OCB    H35  182   4.249   1.863   1.290
    2OCB    H36  183   3.617   1.637   1.067
    2OCB    H37  184   3.659   1.445   1.449
    2OCB    H38  185   3.996   1.615   1.249
    2OCB    H39  186   3.229   1.908   1.785
    2OCB    H40  187   3.587   1.937   2.011
    2OCB    H41  188   3.502   1.566   1.795
    2OCB    H42  189   3.837   2.564   1.951
    2OCB    H43  190   3.834   2.171   2.117
    2OCB    H44  191   4.167   2.298   1.884
    2OCB    H45  192   3.353   1.286   1.315
    2OCB    H46  193   3.239   1.411   1.714
    2OCB    H47  194   4.064   1.570   0.897
    2OCB    H48  195   4.348   1.877   1.007
    2OCB    H49  196   3.665   2.281   2.308
    2OCB    H50  197   3.355   2.004   2.191
    2OCB    H51  198   4.308   2.636   1.884
    2OCB    H52  199   4.477   2.471   1.515
    2OCB    H53  200   4.014   2.349   1.512
    2OCB    H54  201   4.024   2.301   1.675
    2OCB    H55  202   3.937   2.448   1.634
    2OCB    H56  203   3.846   1.894   1.203
    2OCB    H57  204   3.898   2.043   1.130
    2OCB    H58  205   3.808   1.940   1.036
    2OCB    H59  206   3.566   1.713   1.413
    2OCB    H60  207   3.427   1.768   1.348
    2OCB    H61  208   3.451   1.803   1.516
    2OCB    H62  209   3.569   2.389   1.843
    2OCB    H63  210   3.574   2.234   1.801
    2OCB    H64  211   3.408   2.309   1.823
    3Na+    Na+  212   2.323   1.079   1.025
    4Na+    Na+  213   3.503   0.972   1.522
    5Na+    Na+  214   1.792   2.461   2.476
    6Na+    Na+  215   3.201   1.377   0.141
    7Na+    Na+  216   1.199   1.318   0.053
    8Na+    Na+  217   3.545   1.938   2.648
    9Na+    Na+  218   0.132   1.066   2.409
   10Na+    Na+  219   0.625   1.581   2.540
   11Na+    Na+  220   0.934   1.364   1.941
   12HOH      O  221   0.200   3.445   0.147
   12HOH     H1  222   0.164   3.509   0.085
   12HOH     H2  223   0.247   3.498   0.211
   13HOH      O  224   2.899   1.149   1.214
   13HOH     H1  225   2.900   1.136   1.309
   13HOH     H2  226   2.888   1.243   1.203
   14HOH      O  227   0.093   0.017   2.878
   14HOH     H1  228   0.142   0.099   2.885
   14HOH     H2  229   0.053   0.020   2.792
   15HOH      O  230   3.415   2.901   1.261
   15HOH     H1  231   3.371   2.966   1.315
   15HOH     H2  232   3.430   2.946   1.177
   16HOH      O  233   0.435   1.306   0.895
   16HOH     H1  234   0.378   1.378   0.866
   16HOH     H2  235   0.499   1.348   0.952
   17HOH      O  236   2.011   0.578   1.117
   17HOH     H1  237   2.071   0.504   1.125
   17HOH     H2  238   2.023   0.627   1.198
   18HOH      O  239   2.070   1.349   3.118
   18HOH     H1  240   2.118   1.395   3.187
   18HOH     H2  241   2.073   1.408   3.043
   19HOH      O  242   3.992   2.603   2.566
   19HOH     H1  243   3.979   2.515   2.601
   19HOH     H2  244   3.921   2.615   2.502
   20HOH      O  245   2.756   2.342   4.018
   20HOH     H1  246   2.788   2.309   3.934
   20HOH     H2  247   2.672   2.383   3.997
   21HOH      O  248   3.582   0.648   1.159
   21HOH     H1  249   3.575   0.725   1.216
   21HOH     H2  250   3.672   0.617   1.170
   22HOH      O  251   3.594   2.699   0.676
   22HOH     H1  252   3.528   2.738   0.733
   22HOH     H2  253   3.655   2.656   0.736
   23HOH      O  254   3.506   1.737   2.394
   23HOH     H1  255   3.502   1.832   2.402
   23HOH     H2  256   3.508   1.706   2.485
   24HOH      O  257   2.054   0.347   3.453
   24HOH     H1  258   2.064   0.421   3.393
   24HOH     H2  259   2.143   0.324   3.478
   25HOH      O  260   3.207   1.656   3.361
   25HOH     H1  261   3.258   1.737   3.362
   25HOH     H2  262   3.115   1.685   3.364
   26HOH      O  263   1.562   0.583   2.086
   26HOH     H1  264   1.554   0.542   2.172
   26HOH     H2  265   1.493   0.543   2.034
   27HOH      O  266   3.211   3.238   0.890
   27HOH     H1  267   3.250   3.310   0.841
   27HOH     H2  268   3.198   3.169   0.824
   28HOH      O  269   1.283   2.626   2.246
   28HOH     H1  270   1.248   2.614   2.158
   28HOH     H2  271   1.314   2.539   2.271
   29HOH      O  272   3.684   1.071   2.757
   29HOH     H1  273   3.635   0.995   2.789
   29HOH     H2  274   3.775   1.042   2.759
   30HOH      O  275   3.610   2.656   0.239
   30HOH     H1  276   3.696   2.612   0.237
   30HOH     H2  277   3.573   2.632   0.324
   31HOH      O  278   4.002   1.537   3.838
   31HOH     H1  279   4.009   1.632   3.846
   31HOH     H2  280   3.947   1.523   3.761
   32HOH      O  281   0.184   0.054   2.079
   32HOH     H1  282   0.233   0.114   2.023
   32HOH     H2  283   0.237   0.047   2.158
   33HOH      O  284   0.212   0.800   0.162
   33HOH     H1  285   0.203   0.821   0.255
   33HOH     H2  286   0.262   0.718   0.161
   34HOH      O  287   2.014   1.197   1.888
   34HOH     H1  288   2.045   1.137   1.956
   34HOH     H2  289   2.071   1.273   1.894
   35HOH      O  290   1.417   3.264   2.307
   35HOH     H1  291   1.333   3.256   2.262
   35HOH     H2  292   1.394   3.263   2.400
   36HOH      O  293   1.293   1.689   0.976
   36HOH     H1  294   1.362   1.733   0.927
   36HOH     H2  295   1.237   1.760   1.007
   37HOH      O  296   0.349   1.140   0.331
   37HOH     H1  297   0.273   1.193   0.307
   37HOH     H2  298   0.334   1.055   0.290
   38HOH      O  299   1.806   0.901   3.555
   38HOH     H1  300   1.830   0.810   3.538
   38HOH     H2  301   1.816   0.944   3.470
   39HOH      O  302   3.699   3.625   1.092
   39HOH     H1  303   3.706   3.532   1.069
   39HOH     H2  304   3.734   3.630   1.180
   40HOH      O  305   3.382   0.082   0.785
   40HOH     H1  306   3.310   0.020   0.778
   40HOH     H2  307   3.403   0.106   0.695
   41HOH      O  308   3.925   3.636   2.339
   41HOH     H1  309   4.004   3.583   2.332
   41HOH     H2  310   3.941   3.693   2.414
   42HOH      O  311   2.546   0.259   0.471
   42HOH     H1  312   2.495   0.178   0.472
   42HOH     H2  313   2.624   0.239   0.420
   43HOH      O  314   3.516   2.765   3.652
   43HOH     H1  315   3.591   2.790   3.599
   43HOH     H2  316   3.442   2.767   3.592
   44HOH      O  317   0.864   3.457   0.110
   44HOH     H1  318   0.775   3.484   0.090
   44HOH     H2  319   0.894   3.413   0.030
   45HOH      O  320   1.094   3.344   3.271
   45HOH     H1  321   1.048   3.263   3.251
   45HOH     H2  322   1.183   3.316   3.293
   46HOH      O  323   2.259   3.503   0.875
   46HOH     H1  324   2.281   3.530   0.786
   46HOH     H2  325   2.340   3.467   0.911
   47HOH      O  326   2.162   0.035   0.793
   47HOH     H1  327   2.222   0.021   0.867
   47HOH     H2  328   2.093  -0.029   0.807
   48HOH      O  329   3.928   3.966   0.653
   48HOH     H1  330   3.914   4.033   0.586
   48HOH     H2  331   4.019   3.978   0.680
   49HOH      O  332   0.201   2.119   0.371
   49HOH     H1  333   0.279   2.172   0.352
   49HOH     H2  334   0.135   2.153   0.310
   50HOH      O  335   1.533   2.096   1.552
   50HOH     H1  336   1.466   2.124   1.616
   50HOH     H2  337   1.531   2.001   1.556
   51HOH      O  338   3.017   1.146   3.182
   51HOH     H1  339   2.968   1.228   3.192
   51HOH     H2  340   3.038   1.142   3.089
   52HOH      O  341   3.914   3.757   2.054
   52HOH     H1  342   3.898   3.851   2.045
   52HOH     H2  343   3.914   3.742   2.149
   53HOH      O  344   0.069   2.961   1.940
   53HOH     H1  345   0.054   2.886   1.883
   53HOH     H2  346   0.015   3.030   1.903
   54HOH      O  347   0.141   2.954   1.550
   54HOH     H1  348   0.079   2.902   1.601
   54HOH     H2  349   0.135   3.042   1.588
   55HOH      O  350   3.438   2.816   3.905
   55HOH     H1  351   3.458   2.728   3.938
   55HOH     H2  352   3.472   2.817   3.816
   56HOH      O  353   0.422   1.942   0.727
   56HOH     H1  354   0.455   1.986   0.806
   56HOH     H2  355   0.411   1.851   0.754
   57HOH      O  356   3.883   2.620   2.232
   57HOH     H1  357   3.959   2.676   2.218
   57HOH     H2  358   3.920   2.535   2.255
   58HOH      O  359   2.290   1.788   1.497
   58HOH     H1  360   2.311   1.734   1.420
   58HOH     H2  361   2.339   1.747   1.569
   59HOH      O  362   0.574   0.508   2.639
   59HOH     H1  363   0.553   0.416   2.650
   59HOH     H2  364   0.670   0.511   2.635
   60HOH      O  365   0.791   2.052   2.601
   60HOH     H1  366   0.704   2.040   2.639
   60HOH     H2  367   0.838   2.105   2.666
   61HOH      O  368   3.031   0.868   2.049
   61HOH     H1  369   2.957   0.926   2.031
   61HOH     H2  370   3.092   0.922   2.100
   62HOH      O  371   3.173   1.267   0.347
   62HOH     H1  372   3.147   1.311   0.428
   62HOH     H2  373   3.197   1.179   0.375
   63HOH      O  374   1.818   0.413   3.881
   63HOH     H1  375   1.787   0.402   3.791
   63HOH     H2  376   1.741   0.442   3.930
   64HOH      O  377   1.852   1.740   0.390
   64HOH     H1  378   1.831   1.829   0.361
   64HOH     H2  379   1.789   1.722   0.460
   65HOH      O  380   2.847   3.680   0.803
   65HOH     H1  381   2.779   3.630   0.848
   65HOH     H2  382   2.808   3.705   0.719
   66HOH      O  383   0.060   2.571   1.206
   66HOH     H1  384   0.068   2.528   1.121
   66HOH     H2  385   0.150   2.596   1.228
   67HOH      O  386   3.770   3.346   1.453
   67HOH     H1  387   3.830   3.411   1.489
   67HOH     H2  388   3.696   3.397   1.420
   68HOH      O  389   1.352   3.681   1.629
   68HOH     H1  390   1.284   3.636   1.679
   68HOH     H2  391   1.363   3.628   1.550
   69HOH      O  392   0.327   0.632   0.877
   69HOH     H1  393   0.368   0.636   0.963
   69HOH     H2  394   0.332   0.540   0.853
   70HOH      O  395   2.923   2.729   3.578
   70HOH     H1  396   2.950   2.746   3.669
   70HOH     H2  397   2.841   2.776   3.568
   71HOH      O  398   2.115   0.804   3.399
   71HOH     H1  399   2.072   0.889   3.385
   71HOH     H2  400   2.208   0.824   3.402
   72HOH      O  401   3.331   0.164   2.163
   72HOH     H1  402   3.410   0.133   2.118
   72HOH     H2  403   3.265   0.168   2.094
   73HOH      O  404   3.703   2.404   3.205
   73HOH     H1  405   3.702   2.418   3.300
   73HOH     H2  406   3.717   2.491   3.168
   74HOH      O  407   2.854   2.774   2.631
   74HOH     H1  408   2.935   2.778   2.580
   74HOH     H2  409   2.786   2.762   2.565
   75HOH      O  410   3.789   2.354   3.467
   75HOH     H1  411   3.728   2.424   3.492
   75HOH     H2  412   3.737   2.274   3.471
   76HOH      O  413   3.861   0.832   2.982
   76HOH     H1  414   3.883   0.906   2.926
   76HOH     H2  415   3.930   0.768   2.966
   77HOH      O  416   3.957   0.379   3.023
   77HOH     H1  417   4.048   0.388   3.052
   77HOH     H2  418   3.910   0.444   3.075
   78HOH      O  419   2.566   1.001   1.798
   78HOH     H1  420   2.479   1.035   1.775
   78HOH     H2  421   2.547   0.925   1.852
   79HOH      O  422   2.984   0.141   2.935
   79HOH     H1  423   2.926   0.214   2.912
   79HOH     H2  424   3.055   0.147   2.871
   80HOH      O  425   2.765   3.736   3.956
   80HOH     H1  426   2.828   3.808   3.956
   80HOH     H2  427   2.804   3.669   4.012
   81HOH      O  428   0.328   0.464   3.507
   81HOH     H1  429   0.322   0.557   3.528
   81HOH     H2  430   0.378   0.426   3.580
   82HOH      O  431   2.566   3.181   3.658
   82HOH     H1  432   2.637   3.136   3.705
   82HOH     H2  433   2.608   3.213   3.578
   83HOH      O  434   3.223   1.950   0.894
   83HOH     H1  435   3.273   1.965   0.814
   83HOH     H2  436   3.268   1.877   0.937
   84HOH      O  437   0.777   3.463   1.377
   84HOH     H1  438   0.683   3.464   1.392
   84HOH     H2  439   0.812   3.532   1.434
   85HOH      O  440   0.832   1.730   0.027
   85HOH     H1  441   0.777   1.758   0.100
   85HOH     H2  442   0.775   1.734  -0.050
   86HOH      O  443   2.297   2.576   1.853
   86HOH     H1  444   2.246   2.646   1.893
   86HOH     H2  445   2.338   2.617   1.777
   87HOH      O  446   2.144   2.564   3.012
   87HOH     H1  447   2.071   2.624   3.003
   87HOH     H2  448   2.156   2.553   3.106
   88HOH      O  449   0.981   1.731   0.913
   88HOH     H1  450   0.993   1.670   0.985
   88HOH     H2  451   0.964   1.676   0.837
   89HOH      O  452   0.593   2.917   1.058
   89HOH     H1  453   0.565   2.852   1.123
   89HOH     H2  454   0.682   2.940   1.084
   90HOH      O  455   3.284  -0.003   2.716
   90HOH     H1  456   3.259  -0.043   2.633
   90HOH     H2  457   3.218   0.066   2.730
   91HOH      O  458   2.140   3.081   0.191
   91HOH     H1  459   2.201   3.008   0.204
   91HOH     H2  460   2.054   3.042   0.205
   92HOH      O  461   1.904   2.995   0.246
   92HOH     H1  462   1.827   2.986   0.190
   92HOH     H2  463   1.930   2.905   0.266
   93HOH      O  464   3.417   3.045   0.075
   93HOH     H1  465   3.343   3.105   0.064
   93HOH     H2  466   3.412   2.986   0.000
   94HOH      O  467   3.253   2.289   2.540
   94HOH     H1  468   3.248   2.264   2.632
   94HOH     H2  469   3.174   2.342   2.525
   95HOH      O  470   3.316   3.095   3.510
   95HOH     H1  471   3.249   3.034   3.481
   95HOH     H2  472   3.297   3.176   3.463
   96HOH      O  473   2.996   0.629   2.522
   96HOH     H1  474   3.045   0.640   2.441
   96HOH     H2  475   3.062   0.608   2.588
   97HOH      O  476   2.287   1.043   1.743
   97HOH     H1  477   2.287   0.948   1.752
   97HOH     H2  478   2.236   1.060   1.664
   98HOH      O  479   1.805   2.401   0.317
   98HOH     H1  480   1.889   2.379   0.356
   98HOH     H2  481   1.745   2.404   0.391
   99HOH      O  482   2.529   3.899   4.034
   99HOH     H1  483   2.500   3.941   3.953
   99HOH     H2  484   2.607   3.850   4.009
  100HOH      O  485   1.181   1.345   2.263
  100HOH     H1  486   1.274   1.336   2.242
  100HOH     H2  487   1.137   1.287   2.201
  101HOH      O  488   3.043   3.675   2.262
  101HOH     H1  489   3.010   3.673   2.352
  101HOH     H2  490   2.977   3.722   2.212
  102HOH      O  491   1.121   0.587   3.737
  102HOH     H1  492   1.079   0.564   3.654
  102HOH     H2  493   1.061   0.649   3.778
  103HOH      O  494   0.127   2.784   2.433
  103HOH     H1  495   0.094   2.800   2.345
  103HOH     H2  496   0.071   2.715   2.468
  104HOH      O  497   2.099   1.400   2.180
  104HOH     H1  498   2.144   1.403   2.096
  104HOH     H2  499   2.012   1.435   2.163
  105HOH      O  500   0.688   3.986   2.749
  105HOH     H1  501   0.615   3.969   2.689
  105HOH     H2  502   0.767   3.967   2.697
  106HOH      O  503   3.182   3.164   0.032
  106HOH     H1  504   3.184   3.140  -0.061
  106HOH     H2  505   3.090   3.182   0.050
  107HOH      O  506   0.931   2.093   3.423
  107HOH     H1  507   1.022   2.076   3.400
  107HOH     H2  508   0.881   2.029   3.372
  108HOH      O  509   0.406   2.372   2.117
  108HOH     H1  510   0.407   2.282   2.150
  108HOH     H2  511   0.444   2.367   2.030
  109HOH      O  512   3.781   0.323   2.312
  109HOH     H1  513   3.708   0.384   2.301
  109HOH     H2  514   3.857   0.371   2.278
  110HOH      O  515   0.658   3.446   3.386
  110HOH     H1  516   0.678   3.359   3.421
  110HOH     H2  517   0.726   3.461   3.320
  111HOH      O  518   0.728   2.866   0.036
  111HOH     H1  519   0.771   2.878   0.121
  111HOH     H2  520   0.635   2.858   0.058
  112HOH      O  521   1.451   1.378   3.766
  112HOH     H1  522   1.455   1.395   3.672
  112HOH     H2  523   1.497   1.295   3.777
  113HOH      O  524   2.627   0.446   0.656
  113HOH     H1  525   2.722   0.450   0.653
  113HOH     H2  526   2.603   0.384   0.586
  114HOH      O  527   0.678   3.975   0.320
  114HOH     H1  528   0.689   3.967   0.415
  114HOH     H2  529   0.650   3.889   0.291
  115HOH      O  530   0.363   0.737   3.273
  115HOH     H1  531   0.347   0.743   3.368
  115HOH     H2  532   0.277   0.718   3.236
  116HOH      O  533   3.164   1.823   0.092
  116HOH     H1  534   3.080   1.779   0.101
  116HOH     H2  535   3.166   1.888   0.162
  117HOH      O  536   1.104   0.122   1.309
  117HOH     H1  537   1.073   0.194   1.254
  117HOH     H2  538   1.035   0.109   1.374
  118HOH      O  539   1.554   1.432   3.175
  118HOH     H1  540   1.473   1.480   3.191
  118HOH     H2  541   1.534   1.342   3.199
  119HOH      O  542   3.405   2.319   3.459
  119HOH     H1  543   3.423   2.225   3.469
  119HOH     H2  544   3.322   2.332   3.505
  120HOH      O  545   1.262   0.364   0.644
  120HOH     H1  546   1.286   0.430   0.580
  120HOH     H2  547   1.255   0.412   0.727
  121HOH      O  548   2.038   2.832   0.749
  121HOH     H1  549   2.095   2.789   0.813
  121HOH     H2  550   2.027   2.768   0.679
  122HOH      O  551   0.202   0.028   3.733
  122HOH     H1  552   0.113   0.060   3.716
  122HOH     H2  553   0.193  -0.026   3.812
  123HOH      O  554   1.735   3.122   2.533
  123HOH     H1  555   1.701   3.195   2.585
  123HOH     H2  556   1.769   3.060   2.598
  124HOH      O  557   0.162   0.089   1.018
  124HOH     H1  558   0.120   0.004   1.005
  124HOH     H2  559   0.155   0.133   0.933
  125HOH      O  560   3.157   1.865   2.221
  125HOH     H1  561   3.172   1.907   2.305
  125HOH     H2  562   3.234   1.810   2.208
  126HOH      O  563   1.613   2.405   3.639
  126HOH     H1  564   1.622   2.499   3.625
  126HOH     H2  565   1.559   2.375   3.566
  127HOH      O  566   2.920   3.852   3.274
  127HOH     H1  567   2.926   3.808   3.359
  127HOH     H2  568   2.996   3.910   3.273
  128HOH      O  569   1.923   1.762   3.910
  128HOH     H1  570   1.953   1.836   3.857
  128HOH     H2  571   1.857   1.718   3.855
  129HOH      O  572   3.858   0.825   1.333
  129HOH     H1  573   3.844   0.755   1.396
  129HOH     H2  574   3.920   0.884   1.375
  130HOH      O  575   2.638   2.750   3.117
  130HOH     H1  576   2.556   2.702   3.107
  130HOH     H2  577   2.670   2.763   3.028
  131HOH      O  578   1.213  -0.028   1.086
  131HOH     H1  579   1.175   0.026   1.156
  131HOH     H2  580   1.224   0.034   1.013
  132HOH      O  581   3.677   2.723   2.110
  132HOH     H1  582   3.719   2.775   2.042
  132HOH     H2  583   3.749   2.674   2.151
  133HOH      O  584   3.444   1.346   0.648
  133HOH     H1  585   3.518   1.358   0.708
  133HOH     H2  586   3.446   1.252   0.629
  134HOH      O  587   1.043   2.023   0.531
  134HOH     H1  588   1.113   1.958   0.530
  134HOH     H2  589   1.082   2.100   0.572
  135HOH      O  590   3.544   0.427   3.935
  135HOH     H1  591   3.600   0.405   4.009
  135HOH     H2  592   3.599   0.481   3.878
  136HOH      O  593   0.848   0.281   2.596
  136HOH     H1  594   0.854   0.377   2.589
  136HOH     H2  595   0.938   0.254   2.616
  137HOH      O  596   1.646   3.368   0.708
  137HOH     H1  597   1.557   3.404   0.706
  137HOH     H2  598   1.702   3.445   0.719
  138HOH      O  599   2.469   1.653   2.295
  138HOH     H1  600   2.523   1.575   2.283
  138HOH     H2  601   2.522   1.725   2.260
  139HOH      O  602   1.131   1.477   1.523
  139HOH     H1  603   1.159   1.392   1.488
  139HOH     H2  604   1.202   1.503   1.582
  140HOH      O  605   1.903   1.606   2.141
  140HOH     H1  606   1.939   1.666   2.206
  140HOH     H2  607   1.916   1.651   2.057
  141HOH      O  608   2.239   1.606   2.669
  141HOH     H1  609   2.297   1.662   2.617
  141HOH     H2  610   2.214   1.535   2.609
  142HOH      O  611   3.548   1.624   3.677
  142HOH     H1  612   3.508   1.684   3.614
  142HOH     H2  613   3.497   1.543   3.669
  143HOH      O  614   1.061   0.886   1.329
  143HOH     H1  615   1.071   0.969   1.376
  143HOH     H2  616   1.128   0.829   1.369
  144HOH      O  617   0.416   3.600   2.218
  144HOH     H1  618   0.493   3.556   2.254
  144HOH     H2  619   0.363   3.529   2.181
  145HOH      O  620   2.094   3.704   2.604
  145HOH     H1  621   2.115   3.611   2.614
  145HOH     H2  622   2.155   3.748   2.663
  146HOH      O  623   0.781   2.811   3.266
  146HOH     H1  624   0.729   2.738   3.231
  146HOH     H2  625   0.735   2.838   3.345
  147HOH      O  626   2.967   1.797   3.407
  147HOH     H1  627   2.944   1.830   3.321
  147HOH     H2  628   2.891   1.815   3.462
  148HOH      O  629   2.173   0.093   2.588
  148HOH     H1  630   2.199   0.103   2.680
  148HOH     H2  631   2.202   0.004   2.565
  149HOH      O  632   0.342   0.254   3.259
  149HOH     H1  633   0.367   0.322   3.322
  149HOH     H2  634   0.247   0.263   3.251
  150HOH      O  635   0.624   1.455   3.541
  150HOH     H1  636   0.645   1.441   3.634
  150HOH     H2  637   0.535   1.488   3.542
  151HOH      O  638   1.071   2.672   2.458
  151HOH     H1  639   1.097   2.586   2.491
  151HOH     H2  640   1.013   2.654   2.384
  152HOH      O  641   1.291   1.521   0.605
  152HOH     H1  642   1.322   1.611   0.605
  152HOH     H2  643   1.253   1.508   0.517
  153HOH      O  644   2.004   3.230   2.698
  153HOH     H1  645   1.974   3.186   2.619
  153HOH     H2  646   2.030   3.159   2.757
  154HOH      O  647   0.854   3.328   0.680
  154HOH     H1  648   0.893   3.395   0.736
  154HOH     H2  649   0.762   3.324   0.706
  155HOH      O  650   2.373   2.945   0.704
  155HOH     H1  651   2.435   2.898   0.648
  155HOH     H2  652   2.340   2.878   0.764
  156HOH      O  653   1.237   2.209   3.006
  156HOH     H1  654   1.321   2.253   2.994
  156HOH     H2  655   1.176   2.258   2.952
  157HOH      O  656   2.979   1.300   1.763
  157HOH     H1  657   3.035   1.242   1.713
  157HOH     H2  658   2.988   1.385   1.721
  158HOH      O  659   0.648   1.797   3.668
  158HOH     H1  660   0.624   1.889   3.679
  158HOH     H2  661   0.573   1.748   3.703
  159HOH      O  662   1.300   1.185   2.530
  159HOH     H1  663   1.322   1.096   2.502
  159HOH     H2  664   1.255   1.223   2.455
  160HOH      O  665   1.001   0.056   3.302
  160HOH     H1  666   0.920   0.004   3.299
  160HOH     H2  667   0.990   0.122   3.234
  161HOH      O  668   2.992   0.981   1.589
  161HOH     H1  669   2.919   0.998   1.649
  161HOH     H2  670   3.049   1.057   1.597
  162HOH      O  671   0.523   1.115   3.994
  162HOH     H1  672   0.606   1.081   4.027
  162HOH     H2  673   0.459   1.049   4.018
  163HOH      O  674   1.193   1.278   3.508
  163HOH     H1  675   1.268   1.319   3.552
  163HOH     H2  676   1.201   1.185   3.529
  164HOH      O  677   3.943   1.837   0.480
  164HOH     H1  678   4.014   1.775   0.495
  164HOH     H2  679   3.927   1.877   0.565
  165HOH      O  680   2.018   0.656   1.402
  165HOH     H1  681   1.933   0.612   1.406
  165HOH     H2  682   1.996   0.750   1.403
  166HOH      O  683   1.689   1.883   0.084
  166HOH     H1  684   1.637   1.963   0.079
  166HOH     H2  685   1.658   1.840   0.164
  167HOH      O  686   3.180   0.746   1.458
  167HOH     H1  687   3.088   0.728   1.477
  167HOH     H2  688   3.178   0.820   1.397
  168HOH      O  689   0.615   1.393   1.375
  168HOH     H1  690   0.593   1.404   1.468
  168HOH     H2  691   0.555   1.452   1.329
  169HOH      O  692   2.414   3.091   0.958
  169HOH     H1  693   2.384   3.097   0.868
  169HOH     H2  694   2.477   3.019   0.958
  170HOH      O  695   0.546   3.782   3.176
  170HOH     H1  696   0.455   3.796   3.204
  170HOH     H2  697   0.545   3.696   3.134
  171HOH      O  698   0.298   3.101   3.847
  171HOH     H1  699   0.302   3.171   3.782
  171HOH     H2  700   0.379   3.110   3.898
  172HOH      O  701   2.866   0.181   1.444
  172HOH     H1  702   2.826   0.158   1.528
  172HOH     H2  703   2.952   0.215   1.468
  173HOH      O  704   1.129   1.524   3.674
  173HOH     H1  705   1.165   1.566   3.596
  173HOH     H2  706   1.055   1.580   3.700
  174HOH      O  707   1.923   3.502   0.769
  174HOH     H1  708   1.926   3.597   0.763
  174HOH     H2  709   1.894   3.485   0.858
  175HOH      O  710   3.356   0.248   3.931
  175HOH     H1  711   3.404   0.331   3.941
  175HOH     H2  712   3.401   0.202   3.861
  176HOH      O  713   2.279   2.067   2.498
  176HOH     H1  714   2.323   2.123   2.435
  176HOH     H2  715   2.187   2.071   2.474
  177HOH      O  716   3.552   2.968   2.985
  177HOH     H1  717   3.469   2.991   2.942
  177HOH     H2  718   3.599   2.917   2.920
  178HOH      O  719   1.670   3.737   0.984
  178HOH     H1  720   1.586   3.751   1.029
  178HOH     H2  721   1.736   3.757   1.050
  179HOH      O  722   3.429   3.570   3.978
  179HOH     H1  723   3.495   3.563   4.047
  179HOH     H2  724   3.477   3.551   3.897
  180HOH      O  725   2.583   0.697   1.055
  180HOH     H1  726   2.526   0.771   1.031
  180HOH     H2  727   2.596   0.650   0.973
  181HOH      O  728   0.291   0.608   0.368
  181HOH     H1  729   0.309   0.538   0.305
  181HOH     H2  730   0.377   0.637   0.397
  182HOH      O  731   0.967   3.264   3.914
  182HOH     H1  732   0.878   3.299   3.907
  182HOH     H2  733   0.959   3.172   3.890
  183HOH      O  734   0.766   3.218   2.346
  183HOH     H1  735   0.758   3.125   2.366
  183HOH     H2  736   0.853   3.226   2.306
  184HOH      O  737   4.003   3.788   3.626
  184HOH     H1  738   3.976   3.776   3.716
  184HOH     H2  739   4.096   3.762   3.625
  185HOH      O  740   2.511   1.473   1.897
  185HOH     H1  741   2.555   1.508   1.975
  185HOH     H2  742   2.583   1.447   1.839
  186HOH      O  743   0.709   3.371   3.893
  186HOH     H1  744   0.699   3.393   3.801
  186HOH     H2  745   0.655   3.434   3.940
  187HOH      O  746   1.621   2.597   3.097
  187HOH     H1  747   1.598   2.609   3.005
  187HOH     H2  748   1.597   2.679   3.140
  188HOH      O  749   2.825   1.349   0.372
  188HOH     H1  750   2.794   1.411   0.306
  188HOH     H2  751   2.878   1.287   0.322
  189HOH      O  752   3.637   0.671   3.817
  189HOH     H1  753   3.720   0.634   3.846
  189HOH     H2  754   3.636   0.658   3.722
  190HOH      O  755   0.756   0.069   0.552
  190HOH     H1  756   0.814   0.074   0.629
  190HOH     H2  757   0.742   0.161   0.528
  191HOH      O  758   0.204   0.425   2.264
  191HOH     H1  759   0.240   0.473   2.338
  191HOH     H2  760   0.260   0.447   2.190
  192HOH      O  761   1.621   1.025   2.450
  192HOH     H1  762   1.624   1.032   2.355
  192HOH     H2  763   1.530   1.005   2.470
  193HOH      O  764   3.523   2.831   2.743
  193HOH     H1  765   3.533   2.799   2.654
  193HOH     H2  766   3.436   2.803   2.770
  194HOH      O  767   2.333   3.078   3.535
  194HOH     H1  768   2.342   3.146   3.469
  194HOH     H2  769   2.397   3.101   3.602
  195HOH      O  770   0.150   0.504   3.341
  195HOH     H1  771   0.213   0.481   3.409
  195HOH     H2  772   0.072   0.453   3.361
  196HOH      O  773   1.131   1.964   0.129
  196HOH     H1  774   1.116   1.891   0.069
  196HOH     H2  775   1.046   2.006   0.138
  197HOH      O  776   0.706   0.329   0.523
  197HOH     H1  777   0.790   0.370   0.503
  197HOH     H2  778   0.669   0.383   0.592
  198HOH      O  779   2.294   2.710   1.110
  198HOH     H1  780   2.209   2.671   1.131
  198HOH     H2  781   2.357   2.656   1.158
  199HOH      O  782   2.250   3.216   2.419
  199HOH     H1  783   2.304   3.181   2.348
  199HOH     H2  784   2.160   3.197   2.392
  200HOH      O  785   0.400   0.050   3.066
  200HOH     H1  786   0.496   0.056   3.057
  200HOH     H2  787   0.378   0.118   3.130
  201HOH      O  788   3.892   1.926   0.742
  201HOH     H1  789   3.971   1.957   0.787
  201HOH     H2  790   3.822   1.983   0.773
  202HOH      O  791   1.365   2.463   1.771
  202HOH     H1  792   1.322   2.535   1.725
  202HOH     H2  793   1.313   2.451   1.851
  203HOH      O  794   2.445   0.427   0.910
  203HOH     H1  795   2.476   0.408   0.821
  203HOH     H2  796   2.420   0.520   0.907
  204HOH      O  797   1.345   3.599   2.571
  204HOH     H1  798   1.311   3.523   2.618
  204HOH     H2  799   1.379   3.564   2.489
  205HOH      O  800   2.200   0.955   1.180
  205HOH     H1  801   2.223   0.865   1.201
  205HOH     H2  802   2.104   0.957   1.182
  206HOH      O  803   0.272   3.542   1.503
  206HOH     H1  804   0.349   3.525   1.449
  206HOH     H2  805   0.307   3.589   1.579
  207HOH      O  806   1.896  -0.012   3.214
  207HOH     H1  807   1.882   0.072   3.258
  207HOH     H2  808   1.812  -0.057   3.222
  208HOH      O  809   2.343   2.800   1.689
  208HOH     H1  810   2.341   2.788   1.593
  208HOH     H2  811   2.393   2.880   1.702
  209HOH      O  812   3.813   2.502   1.135
  209HOH     H1  813   3.822   2.407   1.124
  209HOH     H2  814   3.890   2.528   1.185
  210HOH      O  815   1.525   2.050   3.494
  210HOH     H1  816   1.549   2.047   3.401
  210HOH     H2  817   1.584   1.988   3.536
  211HOH      O  818   2.639   1.820   0.862
  211HOH     H1  819   2.648   1.726   0.879
  211HOH     H2  820   2.644   1.860   0.949
  212HOH      O  821   1.046   0.934   3.402
  212HOH     H1  822   1.133   0.894   3.404
  212HOH     H2  823   1.042   0.979   3.318
  213HOH      O  824   2.712   0.999   2.949
  213HOH     H1  825   2.644   1.064   2.968
  213HOH     H2  826   2.767   0.998   3.027
  214HOH      O  827   2.641   1.746   3.075
  214HOH     H1  828   2.548   1.756   3.095
  214HOH     H2  829   2.643   1.706   2.988
  215HOH      O  830   3.786   3.240   0.219
  215HOH     H1  831   3.830   3.156   0.210
  215HOH     H2  832   3.701   3.219   0.258
  216HOH      O  833   1.948   1.641   1.118
  216HOH     H1  834   1.878   1.646   1.184
  216HOH     H2  835   1.910   1.680   1.040
  217HOH      O  836   3.998   0.510   0.254
  217HOH     H1  837   3.932   0.552   0.308
  217HOH     H2  838   4.067   0.486   0.316
  218HOH      O  839   0.349   3.229   0.468
  218HOH     H1  840   0.441   3.256   0.466
  218HOH     H2  841   0.319   3.254   0.555
  219HOH      O  842   2.169   2.525   0.379
  219HOH     H1  843   2.117   2.447   0.400
  219HOH     H2  844   2.239   2.525   0.444
  220HOH      O  845   2.219   1.614   1.205
  220HOH     H1  846   2.242   1.574   1.121
  220HOH     H2  847   2.137   1.661   1.188
  221HOH      O  848   0.276   1.237   2.893
  221HOH     H1  849   0.256   1.312   2.949
  221HOH     H2  850   0.213   1.243   2.821
  222HOH      O  851   3.079   1.975   2.767
  222HOH     H1  852   3.172   1.956   2.775
  222HOH     H2  853   3.061   1.968   2.673
  223HOH      O  854   1.321   3.230   3.368
  223HOH     H1  855   1.314   3.142   3.331
  223HOH     H2  856   1.340   3.216   3.461
  224HOH      O  857   1.631   2.630   3.484
  224HOH     H1  858   1.643   2.651   3.392
  224HOH     H2  859   1.544   2.664   3.506
  225HOH      O  860   1.969   3.037   2.081
  225HOH     H1  861   1.977   3.066   2.171
  225HOH     H2  862   2.052   3.060   2.040
  226HOH      O  863   1.021   1.883   1.668
  226HOH     H1  864   0.964   1.924   1.733
  226HOH     H2  865   0.976   1.803   1.643
  227HOH      O  866   0.364   1.593   2.944
  227HOH     H1  867   0.414   1.603   3.025
  227HOH     H2  868   0.289   1.538   2.969
  228HOH      O  869   1.842   3.408   1.420
  228HOH     H1  870   1.906   3.360   1.367
  228HOH     H2  871   1.771   3.429   1.359
  229HOH      O  872   2.689   0.969   3.840
  229HOH     H1  873   2.674   0.878   3.865
  229HOH     H2  874   2.602   1.007   3.832
  230HOH      O  875   1.217   1.465   3.912
  230HOH     H1  876   1.185   1.493   3.827
  230HOH     H2  877   1.300   1.422   3.893
  231HOH      O  878   1.426   3.213   3.618
  231HOH     H1  879   1.352   3.166   3.656
  231HOH     H2  880   1.408   3.305   3.637
  232HOH      O  881   2.694   1.397   3.742
  232HOH     H1  882   2.613   1.375   3.696
  232HOH     H2  883   2.704   1.328   3.809
  233HOH      O  884   1.635   3.349   1.238
  233HOH     H1  885   1.576   3.277   1.261
  233HOH     H2  886   1.599   3.385   1.157
  234HOH      O  887   1.746   3.864   3.563
  234HOH     H1  888   1.715   3.885   3.475
  234HOH     H2  889   1.718   3.773   3.577
  235HOH      O  890   1.545   3.952   2.982
  235HOH     H1  891   1.505   3.973   2.897
  235HOH     H2  892   1.474   3.963   3.045
  236HOH      O  893   1.373   0.045   2.406
  236HOH     H1  894   1.403   0.075   2.491
  236HOH     H2  895   1.329  -0.038   2.423
  237HOH      O  896   1.628   2.871   2.366
  237HOH     H1  897   1.636   2.913   2.280
  237HOH     H2  898   1.664   2.935   2.428
  238HOH      O  899   1.898   2.543   3.863
  238HOH     H1  900   1.907   2.639   3.866
  238HOH     H2  901   1.945   2.517   3.783
  239HOH      O  902   0.993   3.229   1.282
  239HOH     H1  903   1.038   3.297   1.332
  239HOH     H2  904   0.903   3.259   1.275
  240HOH      O  905   2.909   1.730   0.346
  240HOH     H1  906   2.964   1.685   0.411
  240HOH     H2  907   2.942   1.820   0.346
  241HOH      O  908   3.596   1.523   3.974
  241HOH     H1  909   3.562   1.569   4.051
  241HOH     H2  910   3.589   1.587   3.903
  242HOH      O  911   2.467   0.064   0.211
  242HOH     H1  912   2.483   0.134   0.148
  242HOH     H2  913   2.494  -0.015   0.167
  243HOH      O  914   3.536   2.348   0.771
  243HOH     H1  915   3.564   2.425   0.820
  243HOH     H2  916   3.485   2.383   0.698
  244HOH      O  917   3.502   1.720   2.686
  244HOH     H1  918   3.561   1.654   2.722
  244HOH     H2  919   3.414   1.687   2.708
  245HOH      O  920   2.313   0.624   3.869
  245HOH     H1  921   2.253   0.583   3.932
  245HOH     H2  922   2.271   0.707   3.847
  246HOH      O  923   2.084   2.271   2.089
  246HOH     H1  924   2.056   2.355   2.053
  246HOH     H2  925   2.172   2.258   2.055
  247HOH      O  926   3.796   1.858   3.427
  247HOH     H1  927   3.753   1.773   3.420
  247HOH     H2  928   3.847   1.866   3.346
  248HOH      O  929   1.412   1.264   0.038
  248HOH     H1  930   1.452   1.178   0.030
  248HOH     H2  931   1.477   1.325   0.003
  249HOH      O  932   1.382   3.434   0.715
  249HOH     H1  933   1.339   3.499   0.771
  249HOH     H2  934   1.329   3.355   0.724
  250HOH      O  935   2.812   3.231   1.380
  250HOH     H1  936   2.815   3.274   1.294
  250HOH     H2  937   2.787   3.141   1.361
  251HOH      O  938   3.485   0.808   0.193
  251HOH     H1  939   3.576   0.779   0.198
  251HOH     H2  940   3.491   0.901   0.171
  252HOH      O  941   1.688   1.600   3.791
  252HOH     H1  942   1.599   1.573   3.768
  252HOH     H2  943   1.735   1.518   3.803
  253HOH      O  944   2.954   2.258   3.697
  253HOH     H1  945   2.990   2.240   3.785
  253HOH     H2  946   2.862   2.280   3.713
  254HOH      O  947   2.949   0.101   2.385
  254HOH     H1  948   2.911   0.043   2.452
  254HOH     H2  949   2.875   0.125   2.330
  255HOH      O  950   0.109   3.700   1.340
  255HOH     H1  951   0.169   3.661   1.403
  255HOH     H2  952   0.072   3.626   1.292
  256HOH      O  953   0.179   1.035   2.644
  256HOH     H1  954   0.172   0.965   2.708
  256HOH     H2  955   0.202   1.112   2.695
  257HOH      O  956   2.830   0.096   3.507
  257HOH     H1  957   2.915   0.053   3.516
  257HOH     H2  958   2.778   0.062   3.580
  258HOH      O  959   1.598   0.027   1.339
  258HOH     H1  960   1.599  -0.001   1.248
  258HOH     H2  961   1.505   0.029   1.363
  259HOH      O  962   0.564   3.090   3.050
  259HOH     H1  963   0.628   3.032   3.010
  259HOH     H2  964   0.490   3.033   3.071
  260HOH      O  965   0.825   0.201   0.776
  260HOH     H1  966   0.885   0.197   0.851
  260HOH     H2  967   0.861   0.270   0.721
  261HOH      O  968   3.514   2.277   0.008
  261HOH     H1  969   3.476   2.191   0.027
  261HOH     H2  970   3.609   2.262   0.011
  262HOH      O  971   0.454   2.782   0.541
  262HOH     H1  972   0.475   2.808   0.630
  262HOH     H2  973   0.360   2.769   0.541
  263HOH      O  974   3.917   1.266   0.892
  263HOH     H1  975   3.948   1.223   0.972
  263HOH     H2  976   3.997   1.292   0.846
  264HOH      O  977   3.519   1.699   3.143
  264HOH     H1  978   3.510   1.687   3.237
  264HOH     H2  979   3.508   1.612   3.106
  265HOH      O  980   2.984   3.881   0.553
  265HOH     H1  981   2.896   3.866   0.518
  265HOH     H2  982   3.043   3.845   0.486
  266HOH      O  983   3.855   2.538   0.215
  266HOH     H1  984   3.848   2.542   0.120
  266HOH     H2  985   3.930   2.481   0.232
  267HOH      O  986   2.334   2.349   2.032
  267HOH     H1  987   2.336   2.427   1.975
  267HOH     H2  988   2.419   2.307   2.017
  268HOH      O  989   0.736   0.695   0.917
  268HOH     H1  990   0.754   0.788   0.918
  268HOH     H2  991   0.740   0.669   1.009
  269HOH      O  992   2.789   3.464   3.743
  269HOH     H1  993   2.719   3.477   3.806
  269HOH     H2  994   2.744   3.445   3.660
  270HOH      O  995   3.357   3.345   0.118
  270HOH     H1  996   3.281   3.291   0.095
  270HOH     H2  997   3.341   3.428   0.073
  271HOH      O  998   1.670   1.995   2.371
  271HOH     H1  999   1.760   1.966   2.378
  271HOH     H2 1000   1.628   1.966   2.452
  272HOH      O 1001   3.774   3.653   1.364
  272HOH     H1 1002   3.697   3.675   1.418
  272HOH     H2 1003   3.841   3.715   1.393
  273HOH      O 1004   1.569   2.744   0.935
  273HOH     H1 1005   1.519   2.815   0.975
  273HOH     H2 1006   1.622   2.788   0.868
  274HOH      O 1007   1.959   1.603   3.435
  274HOH     H1 1008   1.950   1.698   3.443
  274HOH     H2 1009   1.908   1.581   3.357
  275HOH      O 1010   3.453   2.904   2.139
  275HOH     H1 1011   3.435   2.912   2.232
  275HOH     H2 1012   3.516   2.832   2.132
  276HOH      O 1013   4.008   3.208   3.317
  276HOH     H1 1014   4.057   3.222   3.235
  276HOH     H2 1015   3.923   3.248   3.301
  277HOH      O 1016   0.259   3.046   3.003
  277HOH     H1 1017   0.274   3.015   3.092
  277HOH     H2 1018   0.290   2.975   2.947
  278HOH      O 1019   1.894   2.810   3.936
  278HOH     H1 1020   1.960   2.844   3.876
  278HOH     H2 1021   1.817   2.864   3.920
  279HOH      O 1022   2.650   1.946   0.600
  279HOH     H1 1023   2.660   1.868   0.654
  279HOH     H2 1024   2.555   1.953   0.586
  280HOH      O 1025   0.145   2.296   2.687
  280HOH     H1 1026   0.132   2.345   2.768
  280HOH     H2 1027   0.056   2.275   2.658
  281HOH      O 1028   2.153   2.530   0.116
  281HOH     H1 1029   2.166   2.516   0.210
  281HOH     H2 1030   2.117   2.447   0.084
  282HOH      O 1031   3.777   1.262   0.208
  282HOH     H1 1032   3.685   1.247   0.231
  282HOH     H2 1033   3.774   1.296   0.118
  283HOH      O 1034   0.660   2.548   2.800
  283HOH     H1 1035   0.597   2.586   2.739
  283HOH     H2 1036   0.618   2.469   2.832
  284HOH      O 1037   0.325   0.849   0.693
  284HOH     H1 1038   0.355   0.929   0.735
  284HOH     H2 1039   0.321   0.785   0.764
  285HOH      O 1040   2.771   3.826   2.787
  285HOH     H1 1041   2.806   3.876   2.861
  285HOH     H2 1042   2.702   3.772   2.825
  286HOH      O 1043   3.969   0.243   3.553
  286HOH     H1 1044   3.929   0.158   3.533
  286HOH     H2 1045   4.015   0.228   3.635
  287HOH      O 1046   3.808   1.424   0.417
  287HOH     H1 1047   3.837   1.351   0.362
  287HOH     H2 1048   3.880   1.436   0.479
  288HOH      O 1049   3.776   2.236   0.583
  288HOH     H1 1050   3.736   2.288   0.513
  288HOH     H2 1051   3.701   2.205   0.634
  289HOH      O 1052   3.172   2.435   3.606
  289HOH     H1 1053   3.106   2.385   3.654
  289HOH     H2 1054   3.224   2.479   3.673
  290HOH      O 1055   3.843   1.514   3.299
  290HOH     H1 1056   3.904   1.549   3.234
  290HOH     H2 1057   3.894   1.509   3.379
  291HOH      O 1058   2.907   1.126   0.216
  291HOH     H1 1059   2.895   1.046   0.165
  291HOH     H2 1060   3.002   1.139   0.219
  292HOH      O 1061   0.110   1.610   3.560
  292HOH     H1 1062   0.022   1.573   3.550
  292HOH     H2 1063   0.095   1.699   3.593
  293HOH      O 1064   1.482   3.266   2.664
  293HOH     H1 1065   1.557   3.302   2.710
  293HOH     H2 1066   1.406   3.305   2.706
  294HOH      O 1067   3.153   3.939   0.765
  294HOH     H1 1068   3.095   3.906   0.696
  294HOH     H2 1069   3.181   3.861   0.813
  295HOH      O 1070   2.794   1.281   1.947
  295HOH     H1 1071   2.862   1.292   1.881
  295HOH     H2 1072   2.718   1.251   1.898
  296HOH      O 1073   3.820   0.653   2.610
  296HOH     H1 1074   3.892   0.592   2.621
  296HOH     H2 1075   3.860   0.730   2.570
  297HOH      O 1076   1.943   2.008   3.792
  297HOH     H1 1077   1.878   2.062   3.747
  297HOH     H2 1078   2.026   2.054   3.778
  298HOH      O 1079   2.945   2.605   2.341
  298HOH     H1 1080   2.895   2.684   2.361
  298HOH     H2 1081   2.936   2.593   2.247
  299HOH      O 1082   2.652   1.282   3.395
  299HOH     H1 1083   2.660   1.361   3.342
  299HOH     H2 1084   2.735   1.278   3.444
  300HOH      O 1085   0.621   2.552   2.080
  300HOH     H1 1086   0.573   2.597   2.009
  300HOH     H2 1087   0.631   2.462   2.049
  301HOH      O 1088   3.048   3.353   1.093
  301HOH     H1 1089   3.114   3.344   1.025
  301HOH     H2 1090   2.967   3.373   1.047
  302HOH      O 1091   1.423   2.707   2.598
  302HOH     H1 1092   1.376   2.713   2.515
  302HOH     H2 1093   1.424   2.797   2.631
  303HOH      O 1094   1.615   1.059   1.451
  303HOH     H1 1095   1.626   0.964   1.453
  303HOH     H2 1096   1.704   1.094   1.459
  304HOH      O 1097   3.398   0.619   3.334
  304HOH     H1 1098   3.315   0.666   3.333
  304HOH     H2 1099   3.415   0.604   3.427
  305HOH      O 1100   0.776   3.277   1.089
  305HOH     H1 1101   0.699   3.272   1.032
  305HOH     H2 1102   0.827   3.350   1.054
  306HOH      O 1103   0.143   1.717   0.583
  306HOH     H1 1104   0.148   1.812   0.599
  306HOH     H2 1105   0.234   1.691   0.566
  307HOH      O 1106   3.653   3.913   1.107
  307HOH     H1 1107   3.614   3.936   1.023
  307HOH     H2 1108   3.632   3.821   1.120
  308HOH      O 1109   3.026   1.547   2.991
  308HOH     H1 1110   2.991   1.528   3.078
  308HOH     H2 1111   2.948   1.561   2.936
  309HOH      O 1112   0.864   2.574   0.491
  309HOH     H1 1113   0.932   2.568   0.424
  309HOH     H2 1114   0.856   2.668   0.507
  310HOH      O 1115   0.200   0.280   2.841
  310HOH     H1 1116   0.152   0.340   2.783
  310HOH     H2 1117   0.241   0.336   2.906
  311HOH      O 1118   2.825   0.988   1.771
  311HOH     H1 1119   2.730   1.001   1.777
  311HOH     H2 1120   2.852   0.966   1.860
  312HOH      O 1121   3.224   3.412   1.724
  312HOH     H1 1122   3.275   3.428   1.644
  312HOH     H2 1123   3.144   3.463   1.712
  313HOH      O 1124   0.030   1.223   3.091
  313HOH     H1 1125  -0.065   1.235   3.100
  313HOH     H2 1126   0.040   1.130   3.069
  314HOH      O 1127   0.082   2.409   0.280
  314HOH     H1 1128   0.096   2.430   0.372
  314HOH     H2 1129   0.152   2.455   0.234
  315HOH      O 1130   0.870   0.434   1.706
  315HOH     H1 1131   0.800   0.487   1.743
  315HOH     H2 1132   0.934   0.497   1.674
  316HOH      O 1133   0.358   0.380   0.815
  316HOH     H1 1134   0.407   0.331   0.882
  316HOH     H2 1135   0.357   0.322   0.739
  317HOH      O 1136   1.156   0.128   0.501
  317HOH     H1 1137   1.175   0.143   0.409
  317HOH     H2 1138   1.211   0.191   0.548
  318HOH      O 1139   3.598   0.845   3.137
  318HOH     H1 1140   3.591   0.750   3.146
  318HOH     H2 1141   3.680   0.858   3.089
  319HOH      O 1142   2.568   1.426   2.993
  319HOH     H1 1143   2.503   1.494   2.977
  319HOH     H2 1144   2.603   1.405   2.907
  320HOH      O 1145   2.392   0.869   2.878
  320HOH     H1 1146   2.311   0.888   2.924
  320HOH     H2 1147   2.461   0.896   2.939
  321HOH      O 1148   1.500   3.162   3.868
  321HOH     H1 1149   1.528   3.246   3.904
  321HOH     H2 1150   1.505   3.173   3.773
  322HOH      O 1151   2.917   0.406   2.053
  322HOH     H1 1152   2.895   0.467   1.983
  322HOH     H2 1153   2.849   0.419   2.119
  323HOH      O 1154   0.283   3.247   1.836
  323HOH     H1 1155   0.236   3.233   1.754
  323HOH     H2 1156   0.260   3.171   1.891
  324HOH      O 1157   0.963   2.948   2.498
  324HOH     H1 1158   1.005   2.876   2.451
  324HOH     H2 1159   0.912   2.906   2.566
  325HOH      O 1160   2.124   2.717   3.610
  325HOH     H1 1161   2.120   2.787   3.676
  325HOH     H2 1162   2.038   2.720   3.567
  326HOH      O 1163   3.657   0.911   3.983
  326HOH     H1 1164   3.706   0.976   3.933
  326HOH     H2 1165   3.667   0.830   3.933
  327HOH      O 1166   3.632   2.748   1.317
  327HOH     H1 1167   3.683   2.753   1.236
  327HOH     H2 1168   3.551   2.795   1.298
  328HOH      O 1169   2.276   2.077   1.243
  328HOH     H1 1170   2.224   2.117   1.312
  328HOH     H2 1171   2.357   2.126   1.242
  329HOH      O 1172   0.529   0.729   0.538
  329HOH     H1 1173   0.571   0.675   0.604
  329HOH     H2 1174   0.469   0.786   0.587
  330HOH      O 1175   0.240   3.367   0.686
  330HOH     H1 1176   0.271   3.298   0.744
  330HOH     H2 1177   0.194   3.428   0.743
  331HOH      O 1178   2.234   2.168   3.413
  331HOH     H1 1179   2.326   2.195   3.407
  331HOH     H2 1180   2.236   2.088   3.467
  332HOH      O 1181   3.159   0.669   1.899
  332HOH     H1 1182   3.127   0.738   1.956
  332HOH     H2 1183   3.083   0.641   1.849
  333HOH      O 1184   2.624   3.413   0.752
  333HOH     H1 1185   2.661   3.489   0.707
  333HOH     H2 1186   2.596   3.354   0.682
  334HOH      O 1187   0.817   1.316   2.385
  334HOH     H1 1188   0.737   1.348   2.426
  334HOH     H2 1189   0.873   1.393   2.376
  335HOH      O 1190   0.858   3.253   1.604
  335HOH     H1 1191   0.765   3.237   1.616
  335HOH     H2 1192   0.863   3.337   1.558
  336HOH      O 1193   2.960   0.524   1.777
  336HOH     H1 1194   2.955   0.592   1.710
  336HOH     H2 1195   2.891   0.462   1.753
  337HOH      O 1196   2.880   3.932   3.013
  337HOH     H1 1197   2.946   3.998   2.992
  337HOH     H2 1198   2.888   3.920   3.108
  338HOH      O 1199   0.904   0.387   3.923
  338HOH     H1 1200   0.942   0.360   4.007
  338HOH     H2 1201   0.969   0.361   3.858
  339HOH      O 1202   0.273   2.242   0.875
  339HOH     H1 1203   0.288   2.281   0.962
  339HOH     H2 1204   0.361   2.224   0.842
  340HOH      O 1205   0.174   1.124   3.802
  340HOH     H1 1206   0.218   1.041   3.822
  340HOH     H2 1207   0.125   1.144   3.881
  341HOH      O 1208   0.239   1.412   3.089
  341HOH     H1 1209   0.166   1.353   3.105
  341HOH     H2 1210   0.280   1.422   3.175
  342HOH      O 1211   2.489   0.260   3.224
  342HOH     H1 1212   2.547   0.185   3.227
  342HOH     H2 1213   2.458   0.270   3.314
  343HOH      O 1214   1.990   0.678   0.882
  343HOH     H1 1215   2.001   0.652   0.973
  343HOH     H2 1216   2.066   0.642   0.837
  344HOH      O 1217   2.071   2.044   2.903
  344HOH     H1 1218   2.147   2.015   2.851
  344HOH     H2 1219   2.103   2.047   2.993
  345HOH      O 1220   0.596   2.357   1.299
  345HOH     H1 1221   0.625   2.443   1.269
  345HOH     H2 1222   0.609   2.358   1.393
  346HOH      O 1223   1.787   2.179   3.645
  346HOH     H1 1224   1.706   2.230   3.646
  346HOH     H2 1225   1.857   2.245   3.640
  347HOH      O 1226   0.840   0.066   3.741
  347HOH     H1 1227   0.888   0.097   3.818
  347HOH     H2 1228   0.909   0.037   3.681
  348HOH      O 1229   0.398   3.730   1.222
  348HOH     H1 1230   0.430   3.806   1.172
  348HOH     H2 1231   0.303   3.732   1.209
  349HOH      O 1232   1.777   1.979   0.663
  349HOH     H1 1233   1.704   2.041   0.665
  349HOH     H2 1234   1.836   2.010   0.731
  350HOH      O 1235   1.434   2.744   1.502
  350HOH     H1 1236   1.456   2.675   1.440
  350HOH     H2 1237   1.469   2.824   1.464
  351HOH      O 1238   2.862   2.830   1.007
  351HOH     H1 1239   2.942   2.865   0.968
  351HOH     H2 1240   2.892   2.764   1.069
  352HOH      O 1241   3.291   3.133   0.411
  352HOH     H1 1242   3.281   3.049   0.456
  352HOH     H2 1243   3.385   3.143   0.398
  353HOH      O 1244   2.002   1.010   2.762
  353HOH     H1 1245   1.993   1.105   2.770
  353HOH     H2 1246   1.932   0.985   2.701
  354HOH      O 1247   0.427   0.078   1.703
  354HOH     H1 1248   0.354   0.123   1.747
  354HOH     H2 1249   0.476   0.037   1.775
  355HOH      O 1250   2.356   2.221   2.290
  355HOH     H1 1251   2.293   2.233   2.219
  355HOH     H2 1252   2.441   2.219   2.246
  356HOH      O 1253   3.747   1.657   0.747
  356HOH     H1 1254   3.814   1.634   0.683
  356HOH     H2 1255   3.796   1.698   0.819
  357HOH      O 1256   2.925   1.405   3.248
  357HOH     H1 1257   2.938   1.351   3.327
  357HOH     H2 1258   2.857   1.467   3.273
  358HOH      O 1259   1.868   3.384   1.995
  358HOH     H1 1260   1.923   3.398   2.072
  358HOH     H2 1261   1.783   3.360   2.031
  359HOH      O 1262   0.726   3.342   2.081
  359HOH     H1 1263   0.760   3.267   2.033
  359HOH     H2 1264   0.663   3.305   2.142
  360HOH      O 1265   2.345   3.879   1.285
  360HOH     H1 1266   2.425   3.879   1.232
  360HOH     H2 1267   2.329   3.971   1.305
  361HOH      O 1268   2.496   2.515   2.379
  361HOH     H1 1269   2.416   2.518   2.327
  361HOH     H2 1270   2.503   2.602   2.418
  362HOH      O 1271   1.277   3.616   0.121
  362HOH     H1 1272   1.221   3.573   0.057
  362HOH     H2 1273   1.218   3.672   0.171
  363HOH      O 1274   2.851   1.254   0.819
  363HOH     H1 1275   2.904   1.295   0.888
  363HOH     H2 1276   2.914   1.206   0.765
  364HOH      O 1277   0.328   2.861   2.836
  364HOH     H1 1278   0.244   2.819   2.818
  364HOH     H2 1279   0.384   2.789   2.865
  365HOH      O 1280   2.455   0.422   3.735
  365HOH     H1 1281   2.388   0.485   3.761
  365HOH     H2 1282   2.461   0.431   3.640
  366HOH      O 1283   2.744   4.019   3.766
  366HOH     H1 1284   2.815   4.017   3.829
  366HOH     H2 1285   2.724   3.926   3.750
  367HOH      O 1286   3.824   1.059   3.662
  367HOH     H1 1287   3.883   1.134   3.658
  367HOH     H2 1288   3.857   1.006   3.735
  368HOH      O 1289   0.843   0.315   3.598
  368HOH     H1 1290   0.842   0.247   3.666
  368HOH     H2 1291   0.935   0.334   3.584
  369HOH      O 1292   1.764   3.553   3.368
  369HOH     H1 1293   1.775   3.626   3.307
  369HOH     H2 1294   1.695   3.499   3.330
  370HOH      O 1295   1.397   0.400   1.543
  370HOH     H1 1296   1.450   0.435   1.614
  370HOH     H2 1297   1.460   0.371   1.477
  371HOH      O 1298   2.158   1.885   0.870
  371HOH     H1 1299   2.076   1.869   0.824
  371HOH     H2 1300   2.222   1.829   0.827
  372HOH      O 1301   3.157   1.467   3.935
  372HOH     H1 1302   3.112   1.419   3.866
  372HOH     H2 1303   3.136   1.559   3.917
  373HOH      O 1304   1.097   3.874   1.527
  373HOH     H1 1305   1.029   3.940   1.540
  373HOH     H2 1306   1.110   3.835   1.613
  374HOH      O 1307   1.779   1.435   1.870
  374HOH     H1 1308   1.730   1.397   1.797
  374HOH     H2 1309   1.818   1.514   1.834
  375HOH      O 1310   1.491   1.591   2.534
  375HOH     H1 1311   1.469   1.546   2.616
  375HOH     H2 1312   1.546   1.529   2.487
  376HOH      O 1313   3.401   0.549   0.993
  376HOH     H1 1314   3.413   0.455   1.004
  376HOH     H2 1315   3.480   0.588   1.030
  377HOH      O 1316   1.703   2.385   3.918
  377HOH     H1 1317   1.627   2.393   3.860
  377HOH     H2 1318   1.764   2.452   3.887
  378HOH      O 1319   2.178   3.936   2.294
  378HOH     H1 1320   2.128   3.927   2.213
  378HOH     H2 1321   2.118   3.909   2.363
  379HOH      O 1322   3.883   3.323   2.675
  379HOH     H1 1323   3.899   3.377   2.753
  379HOH     H2 1324   3.838   3.382   2.614
  380HOH      O 1325   0.378   0.209   1.937
  380HOH     H1 1326   0.350   0.299   1.949
  380HOH     H2 1327   0.471   0.215   1.916
  381HOH      O 1328   2.053   0.907   2.400
  381HOH     H1 1329   2.100   0.843   2.455
  381HOH     H2 1330   1.981   0.937   2.456
  382HOH      O 1331   1.641   0.039   1.836
  382HOH     H1 1332   1.572  -0.019   1.806
  382HOH     H2 1333   1.603   0.085   1.910
  383HOH      O 1334   0.623   0.520   0.691
  383HOH     H1 1335   0.528   0.518   0.703
  383HOH     H2 1336   0.657   0.544   0.777
  384HOH      O 1337   3.877   0.887   3.424
  384HOH     H1 1338   3.945   0.932   3.374
  384HOH     H2 1339   3.850   0.950   3.491
  385HOH      O 1340   2.259   0.049   3.163
  385HOH     H1 1341   2.237   0.012   3.249
  385HOH     H2 1342   2.295   0.135   3.183
  386HOH      O 1343   1.547   2.595   2.841
  386HOH     H1 1344   1.455   2.621   2.848
  386HOH     H2 1345   1.568   2.607   2.749
  387HOH      O 1346   0.183   0.365   0.518
  387HOH     H1 1347   0.274   0.349   0.495
  387HOH     H2 1348   0.186   0.445   0.571
  388HOH      O 1349   2.655   1.931   2.704
  388HOH     H1 1350   2.689   1.977   2.781
  388HOH     H2 1351   2.698   1.972   2.630
  389HOH      O 1352   3.551   3.706   1.524
  389HOH     H1 1353   3.543   3.798   1.548
  389HOH     H2 1354   3.460   3.675   1.513
  390HOH      O 1355   3.090   1.731   3.852
  390HOH     H1 1356   3.104   1.746   3.759
  390HOH     H2 1357   3.153   1.789   3.895
  391HOH      O 1358   1.344   1.524   0.221
  391HOH     H1 1359   1.392   1.570   0.152
  391HOH     H2 1360   1.272   1.583   0.243
  392HOH      O 1361   2.467   1.648   2.848
  392HOH     H1 1362   2.378   1.617   2.833
  392HOH     H2 1363   2.509   1.641   2.762
  393HOH      O 1364   2.229   2.319   0.962
  393HOH     H1 1365   2.160   2.260   0.990
  393HOH     H2 1366   2.273   2.346   1.043
  394HOH      O 1367   2.380   3.567   2.809
  394HOH     H1 1368   2.316   3.616   2.861
  394HOH     H2 1369   2.326   3.517   2.747
  395HOH      O 1370   1.497   2.123   0.291
  395HOH     H1 1371   1.587   2.101   0.316
  395HOH     H2 1372   1.505   2.158   0.202
  396HOH      O 1373   0.717   2.803   2.244
  396HOH     H1 1374   0.686   2.887   2.278
  396HOH     H2 1375   0.678   2.796   2.157
  397HOH      O 1376   1.868   1.216   3.006
  397HOH     H1 1377   1.935   1.238   3.070
  397HOH     H2 1378   1.901   1.253   2.924
  398HOH      O 1379   2.364   2.864   2.447
  398HOH     H1 1380   2.387   2.920   2.373
  398HOH     H2 1381   2.374   2.920   2.524
  399HOH      O 1382   0.362   0.582   2.452
  399HOH     H1 1383   0.404   0.565   2.536
  399HOH     H2 1384   0.423   0.639   2.405
  400HOH      O 1385   0.593   0.180   0.195
  400HOH     H1 1386   0.602   0.088   0.223
  400HOH     H2 1387   0.647   0.186   0.116
  401HOH      O 1388   2.926   0.700   1.554
  401HOH     H1 1389   2.857   0.719   1.491
  401HOH     H2 1390   2.946   0.784   1.595
  402HOH      O 1391   1.955   3.922   0.982
  402HOH     H1 1392   1.925   4.005   1.020
  402HOH     H2 1393   2.022   3.891   1.043
  403HOH      O 1394   0.135   1.769   3.341
  403HOH     H1 1395   0.135   1.830   3.415
  403HOH     H2 1396   0.177   1.690   3.375
  404HOH      O 1397   1.791   1.570   3.245
  404HOH     H1 1398   1.722   1.514   3.209
  404HOH     H2 1399   1.783   1.652   3.196
  405HOH      O 1400   1.059   1.779   2.215
  405HOH     H1 1401   1.112   1.836   2.271
  405HOH     H2 1402   1.101   1.784   2.129
  406HOH      O 1403   3.379   0.914   2.721
  406HOH     H1 1404   3.454   0.858   2.739
  406HOH     H2 1405   3.417   1.000   2.703
  407HOH      O 1406   3.586   1.183   3.727
  407HOH     H1 1407   3.522   1.147   3.666
  407HOH     H2 1408   3.668   1.141   3.704
  408HOH      O 1409   0.719   1.467   3.789
  408HOH     H1 1410   0.775   1.390   3.775
  408HOH     H2 1411   0.780   1.537   3.814
  409HOH      O 1412   0.408   3.593   3.043
  409HOH     H1 1413   0.324   3.617   3.084
  409HOH     H2 1414   0.405   3.498   3.037
  410HOH      O 1415   1.715   1.432   2.946
  410HOH     H1 1416   1.755   1.346   2.954
  410HOH     H2 1417   1.654   1.438   3.019
  411HOH      O 1418   0.622   2.418   0.965
  411HOH     H1 1419   0.705   2.450   1.001
  411HOH     H2 1420   0.556   2.446   1.027
  412HOH      O 1421   0.680   0.206   3.963
  412HOH     H1 1422   0.763   0.161   3.952
  412HOH     H2 1423   0.664   0.249   3.879
  413HOH      O 1424   0.555   2.389   0.695
  413HOH     H1 1425   0.577   2.397   0.788
  413HOH     H2 1426   0.633   2.419   0.649
  414HOH      O 1427   1.568   2.477   2.525
  414HOH     H1 1428   1.497   2.536   2.550
  414HOH     H2 1429   1.529   2.389   2.527
  415HOH      O 1430   3.269   2.702   3.526
  415HOH     H1 1431   3.226   2.764   3.468
  415HOH     H2 1432   3.214   2.624   3.523
  416HOH      O 1433   1.714   1.875   2.815
  416HOH     H1 1434   1.800   1.916   2.802
  416HOH     H2 1435   1.725   1.786   2.781
  417HOH      O 1436   3.629   1.279   2.573
  417HOH     H1 1437   3.648   1.198   2.621
  417HOH     H2 1438   3.541   1.266   2.537
  418HOH      O 1439   1.421   3.806   1.117
  418HOH     H1 1440   1.392   3.738   1.178
  418HOH     H2 1441   1.349   3.868   1.115
  419HOH      O 1442   2.771   1.972   3.973
  419HOH     H1 1443   2.856   2.010   3.993
  419HOH     H2 1444   2.791   1.885   3.938
  420HOH      O 1445   0.626   0.567   2.070
  420HOH     H1 1446   0.605   0.575   1.977
  420HOH     H2 1447   0.720   0.581   2.074
  421HOH      O 1448   0.010   3.771   2.566
  421HOH     H1 1449   0.039   3.695   2.616
  421HOH     H2 1450   0.069   3.774   2.490
  422HOH      O 1451   1.693   2.794   1.663
  422HOH     H1 1452   1.673   2.788   1.570
  422HOH     H2 1453   1.653   2.716   1.702
  423HOH      O 1454   1.129   2.460   0.067
  423HOH     H1 1455   1.039   2.463   0.098
  423HOH     H2 1456   1.175   2.407   0.131
  424HOH      O 1457   1.973   0.984   0.383
  424HOH     H1 1458   1.992   1.076   0.401
  424HOH     H2 1459   1.987   0.939   0.466
  425HOH      O 1460   3.371   0.716   3.932
  425HOH     H1 1461   3.447   0.687   3.882
  425HOH     H2 1462   3.390   0.690   4.022
  426HOH      O 1463   2.756   3.101   1.056
  426HOH     H1 1464   2.772   3.012   1.025
  426HOH     H2 1465   2.704   3.090   1.136
  427HOH      O 1466   3.593   0.498   2.285
  427HOH     H1 1467   3.531   0.560   2.323
  427HOH     H2 1468   3.598   0.522   2.192
  428HOH      O 1469   1.576   2.454   0.151
  428HOH     H1 1470   1.585   2.428   0.059
  428HOH     H2 1471   1.653   2.418   0.194
  429HOH      O 1472   2.393   1.282   3.834
  429HOH     H1 1473   2.302   1.308   3.840
  429HOH     H2 1474   2.401   1.209   3.896
  430HOH      O 1475   1.822   1.334   3.355
  430HOH     H1 1476   1.841   1.424   3.329
  430HOH     H2 1477   1.841   1.332   3.449
  431HOH      O 1478   1.633   3.912   3.994
  431HOH     H1 1479   1.645   3.863   4.075
  431HOH     H2 1480   1.689   3.989   4.004
  432HOH      O 1481   3.891   1.601   0.174
  432HOH     H1 1482   3.966   1.542   0.171
  432HOH     H2 1483   3.850   1.584   0.259
  433HOH      O 1484   3.346   3.188   1.292
  433HOH     H1 1485   3.323   3.189   1.385
  433HOH     H2 1486   3.277   3.136   1.250
  434HOH      O 1487   0.433   2.317   0.458
  434HOH     H1 1488   0.444   2.223   0.470
  434HOH     H2 1489   0.474   2.356   0.536
  435HOH      O 1490   0.296   4.023   2.555
  435HOH     H1 1491   0.324   4.045   2.644
  435HOH     H2 1492   0.250   3.940   2.563
  436HOH      O 1493   0.974   0.419   0.617
  436HOH     H1 1494   0.977   0.513   0.599
  436HOH     H2 1495   1.064   0.389   0.601
  437HOH      O 1496   2.022   3.775   3.266
  437HOH     H1 1497   1.951   3.772   3.201
  437HOH     H2 1498   2.030   3.868   3.287
  438HOH      O 1499   0.046   0.250   3.246
  438HOH     H1 1500  -0.030   0.282   3.197
  438HOH     H2 1501   0.010   0.184   3.305
  439HOH      O 1502   3.527   3.431   1.684
  439HOH     H1 1503   3.494   3.414   1.596
  439HOH     H2 1504   3.534   3.526   1.689
  440HOH      O 1505   2.725   3.290   3.457
  440HOH     H1 1506   2.745   3.266   3.367
  440HOH     H2 1507   2.810   3.286   3.502
  441HOH      O 1508   1.129   1.681   0.274
  441HOH     H1 1509   1.033   1.691   0.272
  441HOH     H2 1510   1.162   1.766   0.245
  442HOH      O 1511   2.809   0.138   0.667
  442HOH     H1 1512   2.841   0.131   0.757
  442HOH     H2 1513   2.734   0.079   0.664
  443HOH      O 1514   0.436   2.051   0.063
  443HOH     H1 1515   0.515   2.003   0.039
  443HOH     H2 1516   0.370   1.983   0.079
  444HOH      O 1517   1.417   3.633   3.426
  444HOH     H1 1518   1.423   3.660   3.518
  444HOH     H2 1519   1.324   3.641   3.405
  445HOH      O 1520   1.828   3.016   3.640
  445HOH     H1 1521   1.811   3.032   3.733
  445HOH     H2 1522   1.909   3.063   3.623
  446HOH      O 1523   2.706   2.361   1.724
  446HOH     H1 1524   2.761   2.313   1.786
  446HOH     H2 1525   2.616   2.336   1.745
  447HOH      O 1526   1.673   3.696   1.422
  447HOH     H1 1527   1.747   3.688   1.363
  447HOH     H2 1528   1.654   3.790   1.423
  448HOH      O 1529   2.370   4.009   0.627
  448HOH     H1 1530   2.350   3.915   0.621
  448HOH     H2 1531   2.298   4.046   0.677
  449HOH      O 1532   0.421   0.423   3.864
  449HOH     H1 1533   0.376   0.355   3.814
  449HOH     H2 1534   0.499   0.443   3.812
  450HOH      O 1535   2.046   2.129   0.189
  450HOH     H1 1536   1.982   2.077   0.141
  450HOH     H2 1537   2.059   2.207   0.136
  451HOH      O 1538   3.914   2.322   2.647
  451HOH     H1 1539   3.838   2.332   2.705
  451HOH     H2 1540   3.886   2.258   2.582
  452HOH      O 1541   2.977   1.323   2.858
  452HOH     H1 1542   3.004   1.383   2.927
  452HOH     H2 1543   3.029   1.245   2.872
  453HOH      O 1544   0.078   2.456   2.929
  453HOH     H1 1545   0.071   2.516   3.003
  453HOH     H2 1546   0.129   2.382   2.962
  454HOH      O 1547   1.355   1.801   0.570
  454HOH     H1 1548   1.339   1.866   0.639
  454HOH     H2 1549   1.326   1.844   0.490
  455HOH      O 1550   2.006   1.253   0.627
  455HOH     H1 1551   2.088   1.251   0.578
  455HOH     H2 1552   1.938   1.241   0.561
  456HOH      O 1553   1.229   3.653   2.126
  456HOH     H1 1554   1.140   3.645   2.159
  456HOH     H2 1555   1.239   3.581   2.065
  457HOH      O 1556   0.260   0.963   1.224
  457HOH     H1 1557   0.302   1.042   1.189
  457HOH     H2 1558   0.226   0.918   1.147
  458HOH      O 1559   1.788   1.923   1.349
  458HOH     H1 1560   1.817   1.991   1.288
  458HOH     H2 1561   1.786   1.966   1.434
  459HOH      O 1562   0.866   1.334   0.420
  459HOH     H1 1563   0.915   1.305   0.497
  459HOH     H2 1564   0.794   1.387   0.456
  460HOH      O 1565   2.742   2.825   1.591
  460HOH     H1 1566   2.736   2.920   1.602
  460HOH     H2 1567   2.711   2.809   1.502
  461HOH      O 1568   1.100   0.820   2.833
  461HOH     H1 1569   1.044   0.823   2.910
  461HOH     H2 1570   1.136   0.909   2.826
  462HOH      O 1571   0.490   3.216   2.788
  462HOH     H1 1572   0.481   3.179   2.876
  462HOH     H2 1573   0.572   3.178   2.755
  463HOH      O 1574   1.980   3.519   1.809
  463HOH     H1 1575   1.922   3.469   1.866
  463HOH     H2 1576   1.920   3.567   1.751
  464HOH      O 1577   2.851   3.087   0.596
  464HOH     H1 1578   2.816   3.001   0.615
  464HOH     H2 1579   2.774   3.142   0.583
  465HOH      O 1580   0.194   1.657   0.270
  465HOH     H1 1581   0.155   1.578   0.234
  465HOH     H2 1582   0.160   1.662   0.360
  466HOH      O 1583   0.596   3.223   0.223
  466HOH     H1 1584   0.589   3.283   0.297
  466HOH     H2 1585   0.563   3.140   0.257
  467HOH      O 1586   3.358   3.377   3.669
  467HOH     H1 1587   3.417   3.302   3.669
  467HOH     H2 1588   3.295   3.357   3.600
  468HOH      O 1589   0.341   1.437   0.605
  468HOH     H1 1590   0.308   1.481   0.683
  468HOH     H2 1591   0.390   1.504   0.558
  469HOH      O 1592   2.794   2.606   1.812
  469HOH     H1 1593   2.795   2.514   1.786
  469HOH     H2 1594   2.785   2.654   1.729
  470HOH      O 1595   2.033   3.749   0.029
  470HOH     H1 1596   2.015   3.810  -0.043
  470HOH     H2 1597   1.996   3.792   0.106
  471HOH      O 1598   2.455   1.632   1.651
  471HOH     H1 1599   2.476   1.644   1.744
  471HOH     H2 1600   2.387   1.564   1.651
  472HOH      O 1601   0.667   0.417   3.758
  472HOH     H1 1602   0.729   0.433   3.829
  472HOH     H2 1603   0.719   0.374   3.690
  473HOH      O 1604   3.959   3.702   1.728
  473HOH     H1 1605   4.029   3.754   1.768
  473HOH     H2 1606   3.878   3.746   1.754
  474HOH      O 1607   3.725   0.330   1.436
  474HOH     H1 1608   3.807   0.357   1.395
  474HOH     H2 1609   3.701   0.248   1.393
  475HOH      O 1610   2.968   1.279   2.597
  475HOH     H1 1611   2.961   1.300   2.690
  475HOH     H2 1612   2.973   1.183   2.594
  476HOH      O 1613   0.764   1.669   1.207
  476HOH     H1 1614   0.699   1.729   1.171
  476HOH     H2 1615   0.750   1.672   1.301
  477HOH      O 1616   1.368   2.453   3.265
  477HOH     H1 1617   1.457   2.462   3.231
  477HOH     H2 1618   1.375   2.388   3.334
  478HOH      O 1619   1.860   2.877   3.251
  478HOH     H1 1620   1.767   2.900   3.244
  478HOH     H2 1621   1.867   2.829   3.334
  479HOH      O 1622   2.636   2.928   0.302
  479HOH     H1 1623   2.681   3.012   0.302
  479HOH     H2 1624   2.692   2.870   0.251
  480HOH      O 1625   1.454   0.545   3.071
  480HOH     H1 1626   1.377   0.525   3.124
  480HOH     H2 1627   1.482   0.460   3.037
  481HOH      O 1628   1.872   2.058   0.875
  481HOH     H1 1629   1.931   2.072   0.950
  481HOH     H2 1630   1.786   2.047   0.914
  482HOH      O 1631   1.623   0.388   3.360
  482HOH     H1 1632   1.690   0.320   3.355
  482HOH     H2 1633   1.544   0.346   3.326
  483HOH      O 1634   0.333   3.084   3.308
  483HOH     H1 1635   0.359   3.003   3.263
  483HOH     H2 1636   0.268   3.056   3.372
  484HOH      O 1637   3.963   2.752   0.129
  484HOH     H1 1638   3.930   2.686   0.190
  484HOH     H2 1639   3.902   2.750   0.055
  485HOH      O 1640   1.371   0.748   2.888
  485HOH     H1 1641   1.373   0.693   2.965
  485HOH     H2 1642   1.277   0.759   2.869
  486HOH      O 1643   3.354   0.142   1.344
  486HOH     H1 1644   3.336   0.060   1.389
  486HOH     H2 1645   3.449   0.143   1.331
  487HOH      O 1646   1.812   0.930   2.582
  487HOH     H1 1647   1.739   0.972   2.536
  487HOH     H2 1648   1.770   0.863   2.636
  488HOH      O 1649   3.911   0.738   1.771
  488HOH     H1 1650   3.904   0.688   1.853
  488HOH     H2 1651   3.916   0.829   1.799
  489HOH      O 1652   0.691   0.482   0.181
  489HOH     H1 1653   0.717   0.403   0.132
  489HOH     H2 1654   0.774   0.516   0.215
  490HOH      O 1655   0.030   0.273   0.788
  490HOH     H1 1656  -0.006   0.335   0.852
  490HOH     H2 1657   0.024   0.319   0.704
  491HOH      O 1658   0.050   2.707   3.353
  491HOH     H1 1659   0.003   2.791   3.349
  491HOH     H2 1660   0.003   2.656   3.419
  492HOH      O 1661   3.602   0.808   1.674
  492HOH     H1 1662   3.532   0.820   1.738
  492HOH     H2 1663   3.582   0.726   1.630
  493HOH      O 1664   3.143   2.784   2.539
  493HOH     H1 1665   3.189   2.712   2.497
  493HOH     H2 1666   3.187   2.863   2.509
  494HOH      O 1667   3.768   1.110   0.708
  494HOH     H1 1668   3.809   1.099   0.795
  494HOH     H2 1669   3.769   1.205   0.694
  495HOH      O 1670   1.914   1.057   3.346
  495HOH     H1 1671   2.007   1.075   3.358
  495HOH     H2 1672   1.873   1.143   3.341
  496HOH      O 1673   1.083   2.965   1.697
  496HOH     H1 1674   0.997   2.930   1.675
  496HOH     H2 1675   1.068   3.022   1.772
  497HOH      O 1676   3.572   0.980   2.502
  497HOH     H1 1677   3.597   1.037   2.429
  497HOH     H2 1678   3.655   0.960   2.546
  498HOH      O 1679   2.673   2.011   1.642
  498HOH     H1 1680   2.727   1.942   1.681
  498HOH     H2 1681   2.706   2.019   1.553
  499HOH      O 1682   2.427   0.767   0.352
  499HOH     H1 1683   2.429   0.672   0.363
  499HOH     H2 1684   2.517   0.795   0.369
  500HOH      O 1685   3.645   3.555   0.147
  500HOH     H1 1686   3.729   3.555   0.100
  500HOH     H2 1687   3.670   3.564   0.239
  501HOH      O 1688   1.329   3.436   1.991
  501HOH     H1 1689   1.424   3.431   1.985
  501HOH     H2 1690   1.299   3.346   1.982
  502HOH      O 1691   2.622   1.437   2.252
  502HOH     H1 1692   2.581   1.350   2.251
  502HOH     H2 1693   2.709   1.422   2.215
  503HOH      O 1694   1.778   1.626   0.885
  503HOH     H1 1695   1.800   1.542   0.846
  503HOH     H2 1696   1.682   1.627   0.887
  504HOH      O 1697   3.927   3.146   1.827
  504HOH     H1 1698   3.903   3.198   1.904
  504HOH     H2 1699   3.844   3.115   1.792
  505HOH      O 1700   1.556   0.230   2.993
  505HOH     H1 1701   1.483   0.175   2.965
  505HOH     H2 1702   1.634   0.185   2.960
  506HOH      O 1703   2.975   2.926   2.033
  506HOH     H1 1704   2.997   2.835   2.054
  506HOH     H2 1705   2.900   2.946   2.090
  507HOH      O 1706   2.398   3.008   2.669
  507HOH     H1 1707   2.381   3.004   2.763
  507HOH     H2 1708   2.456   3.083   2.657
  508HOH      O 1709   0.797   1.260   1.150
  508HOH     H1 1710   0.785   1.174   1.189
  508HOH     H2 1711   0.892   1.276   1.156
  509HOH      O 1712   2.552   1.169   3.067
  509HOH     H1 1713   2.545   1.262   3.044
  509HOH     H2 1714   2.463   1.142   3.089
  510HOH      O 1715   0.674   0.812   3.039
  510HOH     H1 1716   0.769   0.824   3.040
  510HOH     H2 1717   0.640   0.895   3.007
  511HOH      O 1718   2.889   0.632   3.084
  511HOH     H1 1719   2.850   0.629   2.997
  511HOH     H2 1720   2.887   0.725   3.108
  512HOH      O 1721   0.701   1.945   3.427
  512HOH     H1 1722   0.722   1.853   3.443
  512HOH     H2 1723   0.713   1.987   3.513
  513HOH      O 1724   0.456   2.622   1.101
  513HOH     H1 1725   0.480   2.671   1.179
  513HOH     H2 1726   0.392   2.678   1.056
  514HOH      O 1727   3.906   2.442   0.742
  514HOH     H1 1728   3.882   2.486   0.660
  514HOH     H2 1729   3.871   2.353   0.732
  515HOH      O 1730   0.035   2.444   0.966
  515HOH     H1 1731  -0.053   2.432   0.928
  515HOH     H2 1732   0.084   2.367   0.937
  516HOH      O 1733   2.645   2.510   1.145
  516HOH     H1 1734   2.552   2.489   1.136
  516HOH     H2 1735   2.675   2.523   1.055
  517HOH      O 1736   3.505   0.801   0.548
  517HOH     H1 1737   3.456   0.745   0.489
  517HOH     H2 1738   3.479   0.773   0.636
  518HOH      O 1739   3.970   0.050   0.188
  518HOH     H1 1740   4.023   0.047   0.268
  518HOH     H2 1741   3.922  -0.032   0.189
  519HOH      O 1742   2.949   2.274   2.785
  519HOH     H1 1743   3.021   2.329   2.755
  519HOH     H2 1744   2.992   2.205   2.836
  520HOH      O 1745   3.953   3.569   3.431
  520HOH     H1 1746   3.964   3.646   3.487
  520HOH     H2 1747   4.040   3.531   3.425
  521HOH      O 1748   3.179   1.167   1.090
  521HOH     H1 1749   3.095   1.211   1.081
  521HOH     H2 1750   3.244   1.232   1.061
  522HOH      O 1751   0.718   0.403   1.076
  522HOH     H1 1752   0.654   0.454   1.126
  522HOH     H2 1753   0.800   0.452   1.085
  523HOH      O 1754   2.560   1.359   1.160
  523HOH     H1 1755   2.484   1.301   1.149
  523HOH     H2 1756   2.548   1.397   1.247
  524HOH      O 1757   0.346   0.056   2.300
  524HOH     H1 1758   0.396   0.135   2.321
  524HOH     H2 1759   0.307   0.029   2.383
  525HOH      O 1760   1.427   3.698   3.693
  525HOH     H1 1761   1.518   3.670   3.680
  525HOH     H2 1762   1.418   3.706   3.788
  526HOH      O 1763   3.067   0.204   2.032
  526HOH     H1 1764   3.003   0.267   2.064
  526HOH     H2 1765   3.019   0.121   2.025
  527HOH      O 1766   3.479   1.336   0.221
  527HOH     H1 1767   3.503   1.370   0.307
  527HOH     H2 1768   3.446   1.412   0.174
  528HOH      O 1769   1.674   1.864   3.663
  528HOH     H1 1770   1.710   1.789   3.711
  528HOH     H2 1771   1.652   1.928   3.731
  529HOH      O 1772   1.250   2.938   2.034
  529HOH     H1 1773   1.301   2.875   1.984
  529HOH     H2 1774   1.288   2.936   2.122
  530HOH      O 1775   0.726   3.978   1.608
  530HOH     H1 1776   0.772   4.061   1.611
  530HOH     H2 1777   0.696   3.970   1.517
  531HOH      O 1778   0.529   2.776   1.305
  531HOH     H1 1779   0.583   2.712   1.350
  531HOH     H2 1780   0.443   2.768   1.347
  532HOH      O 1781   2.439   3.905   2.208
  532HOH     H1 1782   2.368   3.926   2.269
  532HOH     H2 1783   2.403   3.835   2.154
  533HOH      O 1784   2.932   1.756   2.084
  533HOH     H1 1785   3.014   1.802   2.099
  533HOH     H2 1786   2.949   1.702   2.006
  534HOH      O 1787   0.411   0.480   0.098
  534HOH     H1 1788   0.399   0.485   0.003
  534HOH     H2 1789   0.492   0.431   0.109
  535HOH      O 1790   3.970   2.084   1.421
  535HOH     H1 1791   3.892   2.138   1.421
  535HOH     H2 1792   4.029   2.127   1.359
  536HOH      O 1793   3.253   2.195   0.263
  536HOH     H1 1794   3.292   2.188   0.175
  536HOH     H2 1795   3.283   2.279   0.296
  537HOH      O 1796   2.294   3.523   2.240
  537HOH     H1 1797   2.206   3.544   2.269
  537HOH     H2 1798   2.283   3.484   2.153
  538HOH      O 1799   1.064   1.270   1.101
  538HOH     H1 1800   1.097   1.180   1.105
  538HOH     H2 1801   1.109   1.309   1.026
  539HOH      O 1802   2.450   2.372   3.324
  539HOH     H1 1803   2.495   2.321   3.257
  539HOH     H2 1804   2.519   2.419   3.369
  540HOH      O 1805   2.115   0.245   2.370
  540HOH     H1 1806   2.180   0.312   2.353
  540HOH     H2 1807   2.145   0.201   2.449
  541HOH      O 1808   2.737   3.470   2.641
  541HOH     H1 1809   2.722   3.502   2.731
  541HOH     H2 1810   2.686   3.530   2.586
  542HOH      O 1811   0.638   2.742   3.011
  542HOH     H1 1812   0.692   2.811   2.972
  542HOH     H2 1813   0.642   2.670   2.948
  543HOH      O 1814   1.654   2.962   0.115
  543HOH     H1 1815   1.673   2.973   0.022
  543HOH     H2 1816   1.669   2.869   0.132
  544HOH      O 1817   1.801   1.235   3.806
  544HOH     H1 1818   1.896   1.231   3.820
  544HOH     H2 1819   1.791   1.236   3.711
  545HOH      O 1820   0.501   0.924   2.680
  545HOH     H1 1821   0.430   0.900   2.740
  545HOH     H2 1822   0.493   0.862   2.607
  546HOH      O 1823   2.819   0.352   2.878
  546HOH     H1 1824   2.827   0.434   2.830
  546HOH     H2 1825   2.769   0.294   2.819
  547HOH      O 1826   1.459   1.214   3.320
  547HOH     H1 1827   1.530   1.196   3.258
  547HOH     H2 1828   1.381   1.219   3.265
  548HOH      O 1829   0.657   3.170   1.821
  548HOH     H1 1830   0.638   3.172   1.915
  548HOH     H2 1831   0.580   3.209   1.780
  549HOH      O 1832   3.605   2.330   0.356
  549HOH     H1 1833   3.541   2.382   0.309
  549HOH     H2 1834   3.624   2.256   0.298
  550HOH      O 1835   1.850   0.552   2.068
  550HOH     H1 1836   1.873   0.626   2.124
  550HOH     H2 1837   1.754   0.554   2.064
  551HOH      O 1838   3.551   0.541   1.549
  551HOH     H1 1839   3.587   0.467   1.501
  551HOH     H2 1840   3.518   0.503   1.631
  552HOH      O 1841   1.160   3.097   2.670
  552HOH     H1 1842   1.107   3.058   2.601
  552HOH     H2 1843   1.112   3.177   2.695
  553HOH      O 1844   3.959   2.009   3.965
  553HOH     H1 1845   3.997   2.085   4.010
  553HOH     H2 1846   3.983   1.935   4.020
  554HOH      O 1847   0.594   0.719   0.269
  554HOH     H1 1848   0.644   0.652   0.222
  554HOH     H2 1849   0.608   0.700   0.361
  555HOH      O 1850   1.056   1.449   3.289
  555HOH     H1 1851   0.963   1.433   3.269
  555HOH     H2 1852   1.077   1.386   3.358
  556HOH      O 1853   3.847   0.589   1.158
  556HOH     H1 1854   3.883   0.655   1.218
  556HOH     H2 1855   3.924   0.555   1.112
  557HOH      O 1856   1.269   2.065   2.621
  557HOH     H1 1857   1.190   2.040   2.668
  557HOH     H2 1858   1.243   2.140   2.568
  558HOH      O 1859   2.579   3.863   1.783
  558HOH     H1 1860   2.488   3.841   1.763
  558HOH     H2 1861   2.592   3.950   1.745
  559HOH      O 1862   2.533   0.962   1.126
  559HOH     H1 1863   2.573   0.886   1.168
  559HOH     H2 1864   2.607   1.010   1.089
  560HOH      O 1865   3.785   3.312   2.027
  560HOH     H1 1866   3.766   3.405   2.010
  560HOH     H2 1867   3.702   3.276   2.058
  561HOH      O 1868   1.448   1.325   0.392
  561HOH     H1 1869   1.509   1.385   0.436
  561HOH     H2 1870   1.415   1.374   0.318
  562HOH      O 1871   3.721   3.168   1.202
  562HOH     H1 1872   3.725   3.180   1.297
  562HOH     H2 1873   3.631   3.190   1.178
  563HOH      O 1874   0.127   3.530   0.895
  563HOH     H1 1875   0.068   3.597   0.928
  563HOH     H2 1876   0.106   3.452   0.947
  564HOH      O 1877   1.914   3.835   0.258
  564HOH     H1 1878   1.906   3.904   0.324
  564HOH     H2 1879   1.914   3.754   0.308
  565HOH      O 1880   3.301   2.096   4.026
  565HOH     H1 1881   3.247   2.098   3.947
  565HOH     H2 1882   3.345   2.011   4.022
  566HOH      O 1883   2.104   0.271   1.472
  566HOH     H1 1884   2.047   0.216   1.419
  566HOH     H2 1885   2.133   0.340   1.412
  567HOH      O 1886   3.688   2.931   0.840
  567HOH     H1 1887   3.731   2.913   0.924
  567HOH     H2 1888   3.596   2.911   0.856
  568HOH      O 1889   2.825   3.123   2.486
  568HOH     H1 1890   2.848   3.213   2.463
  568HOH     H2 1891   2.747   3.130   2.540
  569HOH      O 1892   3.948   1.017   2.773
  569HOH     H1 1893   3.969   0.974   2.691
  569HOH     H2 1894   3.979   1.107   2.761
  570HOH      O 1895   0.295   2.158   3.430
  570HOH     H1 1896   0.251   2.218   3.370
  570HOH     H2 1897   0.329   2.214   3.500
  571HOH      O 1898   2.776   1.445   0.625
  571HOH     H1 1899   2.803   1.405   0.543
  571HOH     H2 1900   2.789   1.376   0.691
  572HOH      O 1901   0.866   3.173   0.204
  572HOH     H1 1902   0.868   3.254   0.254
  572HOH     H2 1903   0.774   3.162   0.180
  573HOH      O 1904   2.460   1.320   2.631
  573HOH     H1 1905   2.474   1.413   2.617
  573HOH     H2 1906   2.544   1.287   2.663
  574HOH      O 1907   3.573   3.805   2.433
  574HOH     H1 1908   3.574   3.736   2.367
  574HOH     H2 1909   3.612   3.881   2.390
  575HOH      O 1910   2.648   3.958   0.646
  575HOH     H1 1911   2.680   3.908   0.571
  575HOH     H2 1912   2.557   3.979   0.623
  576HOH      O 1913   0.361   0.644   1.353
  576HOH     H1 1914   0.362   0.724   1.405
  576HOH     H2 1915   0.268   0.619   1.350
  577HOH      O 1916   3.342   2.255   3.764
  577HOH     H1 1917   3.289   2.175   3.765
  577HOH     H2 1918   3.433   2.224   3.769
  578HOH      O 1919   2.346   3.184   0.619
  578HOH     H1 1920   2.337   3.094   0.650
  578HOH     H2 1921   2.268   3.229   0.652
  579HOH      O 1922   3.837   2.235   3.807
  579HOH     H1 1923   3.881   2.183   3.874
  579HOH     H2 1924   3.880   2.210   3.725
  580HOH      O 1925   1.875   1.209   1.542
  580HOH     H1 1926   1.907   1.260   1.467
  580HOH     H2 1927   1.948   1.208   1.604
  581HOH      O 1928   1.538   3.412   3.324
  581HOH     H1 1929   1.474   3.342   3.340
  581HOH     H2 1930   1.487   3.492   3.336
  582HOH      O 1931   3.194   0.903   1.033
  582HOH     H1 1932   3.191   0.895   0.938
  582HOH     H2 1933   3.161   0.991   1.051
  583HOH      O 1934   1.682   0.296   1.443
  583HOH     H1 1935   1.631   0.220   1.417
  583HOH     H2 1936   1.728   0.269   1.522
  584HOH      O 1937   1.987   1.761   2.640
  584HOH     H1 1938   1.918   1.711   2.683
  584HOH     H2 1939   2.069   1.724   2.673
  585HOH      O 1940   3.908   0.210   1.133
  585HOH     H1 1941   3.917   0.253   1.218
  585HOH     H2 1942   3.991   0.165   1.121
  586HOH      O 1943   1.796   0.840   1.858
  586HOH     H1 1944   1.811   0.784   1.935
  586HOH     H2 1945   1.786   0.778   1.786
  587HOH      O 1946   1.116   2.756   2.707
  587HOH     H1 1947   1.117   2.738   2.613
  587HOH     H2 1948   1.024   2.777   2.726
  588HOH      O 1949   0.939   2.648   1.546
  588HOH     H1 1950   1.030   2.649   1.577
  588HOH     H2 1951   0.892   2.703   1.609
  589HOH      O 1952   0.421   2.859   3.168
  589HOH     H1 1953   0.409   2.827   3.258
  589HOH     H2 1954   0.480   2.795   3.128
  590HOH      O 1955   1.682   0.257   0.530
  590HOH     H1 1956   1.641   0.174   0.506
  590HOH     H2 1957   1.683   0.257   0.626
  591HOH      O 1958   1.148   1.986   2.893
  591HOH     H1 1959   1.193   2.063   2.929
  591HOH     H2 1960   1.104   1.947   2.968
  592HOH      O 1961   0.648   0.636   1.782
  592HOH     H1 1962   0.590   0.700   1.823
  592HOH     H2 1963   0.590   0.580   1.731
  593HOH      O 1964   1.039   0.697   0.965
  593HOH     H1 1965   1.116   0.740   1.004
  593HOH     H2 1966   1.075   0.634   0.903
  594HOH      O 1967   3.080   2.214   3.029
  594HOH     H1 1968   3.155   2.272   3.040
  594HOH     H2 1969   3.112   2.128   3.055
  595HOH      O 1970   0.745   3.613   0.381
  595HOH     H1 1971   0.683   3.663   0.328
  595HOH     H2 1972   0.763   3.669   0.457
  596HOH      O 1973   3.094   2.424   2.087
  596HOH     H1 1974   3.151   2.428   2.164
  596HOH     H2 1975   3.035   2.499   2.096
  597HOH      O 1976   2.532   2.182   1.233
  597HOH     H1 1977   2.594   2.216   1.297
  597HOH     H2 1978   2.587   2.153   1.160
  598HOH      O 1979   2.504   3.667   0.152
  598HOH     H1 1980   2.523   3.758   0.128
  598HOH     H2 1981   2.437   3.640   0.089
  599HOH      O 1982   2.190   3.330   2.991
  599HOH     H1 1983   2.239   3.254   2.960
  599HOH     H2 1984   2.187   3.319   3.086
  600HOH      O 1985   0.798   2.234   2.810
  600HOH     H1 1986   0.850   2.314   2.817
  600HOH     H2 1987   0.738   2.239   2.884
  601HOH      O 1988   1.223   0.419   3.169
  601HOH     H1 1989   1.152   0.356   3.157
  601HOH     H2 1990   1.299   0.366   3.190
  602HOH      O 1991   1.179   2.154   1.582
  602HOH     H1 1992   1.160   2.060   1.587
  602HOH     H2 1993   1.095   2.194   1.559
  603HOH      O 1994   2.920   2.575   3.318
  603HOH     H1 1995   2.988   2.512   3.341
  603HOH     H2 1996   2.906   2.625   3.399
  604HOH      O 1997   1.623   0.532   2.482
  604HOH     H1 1998   1.569   0.513   2.405
  604HOH     H2 1999   1.713   0.524   2.451
  605HOH      O 2000   1.716   2.999   3.878
  605HOH     H1 2001   1.661   3.075   3.862
  605HOH     H2 2002   1.667   2.925   3.841
  606HOH      O 2003   2.617   0.199   1.328
  606HOH     H1 2004   2.708   0.211   1.356
  606HOH     H2 2005   2.604   0.264   1.260
  607HOH      O 2006   2.783   1.834   1.314
  607HOH     H1 2007   2.809   1.919   1.349
  607HOH     H2 2008   2.779   1.776   1.390
  608HOH      O 2009   3.365   3.649   2.780
  608HOH     H1 2010   3.431   3.590   2.816
  608HOH     H2 2011   3.410   3.733   2.771
  609HOH      O 2012   1.149   2.860   0.724
  609HOH     H1 2013   1.079   2.914   0.686
  609HOH     H2 2014   1.212   2.851   0.652
  610HOH      O 2015   3.713   2.545   2.568
  610HOH     H1 2016   3.653   2.473   2.550
  610HOH     H2 2017   3.682   2.617   2.512
  611HOH      O 2018   3.452   0.709   2.376
  611HOH     H1 2019   3.426   0.727   2.286
  611HOH     H2 2020   3.505   0.785   2.401
  612HOH      O 2021   1.404   2.749  -0.017
  612HOH     H1 2022   1.421   2.735   0.076
  612HOH     H2 2023   1.382   2.842  -0.024
  613HOH      O 2024   3.395   1.055   3.008
  613HOH     H1 2025   3.443   0.989   3.059
  613HOH     H2 2026   3.460   1.087   2.945
  614HOH      O 2027   0.825   1.226   2.764
  614HOH     H1 2028   0.830   1.150   2.705
  614HOH     H2 2029   0.745   1.271   2.738
  615HOH      O 2030   3.958   1.014   2.130
  615HOH     H1 2031   4.039   1.064   2.125
  615HOH     H2 2032   3.945   0.998   2.223
  616HOH      O 2033   2.336   2.704   0.825
  616HOH     H1 2034   2.316   2.731   0.915
  616HOH     H2 2035   2.367   2.614   0.833
  617HOH      O 2036   1.301   2.691   2.908
  617HOH     H1 2037   1.256   2.631   2.967
  617HOH     H2 2038   1.232   2.724   2.850
  618HOH      O 2039   0.988   2.695   0.972
  618HOH     H1 2040   1.070   2.743   0.964
  618HOH     H2 2041   0.925   2.749   0.924
  619HOH      O 2042   0.613   1.058   1.842
  619HOH     H1 2043   0.629   1.148   1.870
  619HOH     H2 2044   0.604   1.064   1.747
  620HOH      O 2045   1.720   3.381   0.426
  620HOH     H1 2046   1.633   3.363   0.391
  620HOH     H2 2047   1.707   3.391   0.521
  621HOH      O 2048   1.204   3.611   0.835
  621HOH     H1 2049   1.126   3.592   0.784
  621HOH     H2 2050   1.175   3.674   0.902
  622HOH      O 2051   2.804   0.712   2.342
  622HOH     H1 2052   2.898   0.720   2.357
  622HOH     H2 2053   2.764   0.769   2.408
  623HOH      O 2054   0.475   2.865   0.825
  623HOH     H1 2055   0.526   2.862   0.905
  623HOH     H2 2056   0.394   2.819   0.846
  624HOH      O 2057   1.883   2.725   3.487
  624HOH     H1 2058   1.809   2.669   3.508
  624HOH     H2 2059   1.871   2.802   3.542
  625HOH      O 2060   1.327   2.374   2.297
  625HOH     H1 2061   1.294   2.296   2.252
  625HOH     H2 2062   1.417   2.384   2.266
  626HOH      O 2063   2.011   0.524   4.016
  626HOH     H1 2064   1.974   0.603   3.977
  626HOH     H2 2065   1.966   0.452   3.972
  627HOH      O 2066   0.418   1.690   0.504
  627HOH     H1 2067   0.489   1.714   0.563
  627HOH     H2 2068   0.448   1.717   0.418
  628HOH      O 2069   1.313   3.446   3.702
  628HOH     H1 2070   1.354   3.530   3.687
  628HOH     H2 2071   1.246   3.463   3.768
  629HOH      O 2072   0.075   3.563   0.489
  629HOH     H1 2073   0.020   3.537   0.416
  629HOH     H2 2074   0.059   3.496   0.556
  630HOH      O 2075   1.057   3.847   3.541
  630HOH     H1 2076   1.071   3.765   3.588
  630HOH     H2 2077   0.973   3.836   3.497
  631HOH      O 2078   2.440   3.257   1.820
  631HOH     H1 2079   2.409   3.307   1.744
  631HOH     H2 2080   2.517   3.306   1.851
  632HOH      O 2081   1.930   1.536   2.473
  632HOH     H1 2082   1.944   1.619   2.518
  632HOH     H2 2083   2.014   1.517   2.431
  633HOH      O 2084   2.456   2.702   2.679
  633HOH     H1 2085   2.413   2.769   2.627
  633HOH     H2 2086   2.442   2.730   2.770
  634HOH      O 2087   1.475   1.081   1.166
  634HOH     H1 2088   1.527   1.108   1.242
  634HOH     H2 2089   1.538   1.040   1.107
  635HOH      O 2090   3.353   3.347   3.008
  635HOH     H1 2091   3.441   3.316   3.028
  635HOH     H2 2092   3.353   3.439   3.036
  636HOH      O 2093   1.766   2.404   3.355
  636HOH     H1 2094   1.862   2.410   3.359
  636HOH     H2 2095   1.737   2.424   3.444
  637HOH      O 2096   2.072   0.465   0.511
  637HOH     H1 2097   2.088   0.374   0.536
  637HOH     H2 2098   2.083   0.467   0.416
  638HOH      O 2099   1.811   0.532   0.541
  638HOH     H1 2100   1.829   0.438   0.537
  638HOH     H2 2101   1.897   0.573   0.550
  639HOH      O 2102   3.680   2.614   2.829
  639HOH     H1 2103   3.704   2.586   2.740
  639HOH     H2 2104   3.629   2.694   2.816
  640HOH      O 2105   1.798   2.674   1.358
  640HOH     H1 2106   1.852   2.601   1.389
  640HOH     H2 2107   1.859   2.748   1.354
  641HOH      O 2108   3.691   0.156   3.092
  641HOH     H1 2109   3.730   0.110   3.017
  641HOH     H2 2110   3.630   0.218   3.053
  642HOH      O 2111   2.112   1.561   0.764
  642HOH     H1 2112   2.075   1.508   0.693
  642HOH     H2 2113   2.071   1.647   0.754
  643HOH      O 2114   1.696   1.159   3.552
  643HOH     H1 2115   1.609   1.174   3.515
  643HOH     H2 2116   1.702   1.064   3.561
  644HOH      O 2117   0.799   3.796   0.569
  644HOH     H1 2118   0.713   3.835   0.583
  644HOH     H2 2119   0.861   3.868   0.587
  645HOH      O 2120   3.331   3.535   1.194
  645HOH     H1 2121   3.271   3.471   1.158
  645HOH     H2 2122   3.298   3.619   1.163
  646HOH      O 2123   2.510   3.103   3.224
  646HOH     H1 2124   2.486   3.185   3.267
  646HOH     H2 2125   2.576   3.127   3.159
  647HOH      O 2126   0.702   0.923   0.095
  647HOH     H1 2127   0.733   0.992   0.154
  647HOH     H2 2128   0.664   0.857   0.153
  648HOH      O 2129   2.300   0.345   2.710
  648HOH     H1 2130   2.356   0.338   2.788
  648HOH     H2 2131   2.335   0.279   2.650
  649HOH      O 2132   1.579   2.170   0.666
  649HOH     H1 2133   1.497   2.125   0.685
  649HOH     H2 2134   1.598   2.221   0.745
  650HOH      O 2135   0.860   1.760   0.337
  650HOH     H1 2136   0.850   1.755   0.432
  650HOH     H2 2137   0.813   1.839   0.311
  651HOH      O 2138   0.913   0.099   0.260
  651HOH     H1 2139   0.969   0.080   0.335
  651HOH     H2 2140   0.832   0.052   0.278
  652HOH      O 2141   3.944   0.535   2.244
  652HOH     H1 2142   3.947   0.625   2.211
  652HOH     H2 2143   4.012   0.532   2.311
  653HOH      O 2144   0.199   0.636   1.862
  653HOH     H1 2145   0.221   0.724   1.830
  653HOH     H2 2146   0.158   0.593   1.787
  654HOH      O 2147   2.317   1.013   3.647
  654HOH     H1 2148   2.404   1.008   3.607
  654HOH     H2 2149   2.332   0.999   3.740
  655HOH      O 2150   1.435   3.584   1.358
  655HOH     H1 2151   1.525   3.611   1.380
  655HOH     H2 2152   1.446   3.507   1.304
  656HOH      O 2153   2.021   0.436   0.249
  656HOH     H1 2154   1.932   0.402   0.259
  656HOH     H2 2155   2.021   0.479   0.164
  657HOH      O 2156   2.879   2.933   3.207
  657HOH     H1 2157   2.805   2.877   3.185
  657HOH     H2 2158   2.937   2.928   3.131
  658HOH      O 2159   2.037   3.259   1.281
  658HOH     H1 2160   2.045   3.193   1.212
  658HOH     H2 2161   2.101   3.326   1.257
  659HOH      O 2162   3.122   0.849   3.958
  659HOH     H1 2163   3.062   0.785   3.921
  659HOH     H2 2164   3.209   0.810   3.947
  660HOH      O 2165   1.959   1.857   2.373
  660HOH     H1 2166   1.974   1.951   2.373
  660HOH     H2 2167   1.960   1.832   2.465
  661HOH      O 2168   4.016   1.957   2.869
  661HOH     H1 2169   4.049   1.869   2.887
  661HOH     H2 2170   4.015   1.963   2.774
  662HOH      O 2171   1.277   2.883   0.231
  662HOH     H1 2172   1.280   2.957   0.292
  662HOH     H2 2173   1.294   2.807   0.286
  663HOH      O 2174   0.598   1.391   2.141
  663HOH     H1 2175   0.595   1.304   2.180
  663HOH     H2 2176   0.643   1.378   2.057
  664HOH      O 2177   1.436   1.792   1.976
  664HOH     H1 2178   1.500   1.736   1.932
  664HOH     H2 2179   1.442   1.768   2.068
  665HOH      O 2180   1.678   3.805   2.327
  665HOH     H1 2181   1.651   3.753   2.251
  665HOH     H2 2182   1.621   3.776   2.398
  666HOH      O 2183   2.840   3.213   3.219
  666HOH     H1 2184   2.850   3.118   3.218
  666HOH     H2 2185   2.905   3.244   3.156
  667HOH      O 2186   2.855   0.482   0.210
  667HOH     H1 2187   2.783   0.505   0.152
  667HOH     H2 2188   2.932   0.526   0.173
  668HOH      O 2189   1.690   0.767   2.766
  668HOH     H1 2190   1.719   0.676   2.760
  668HOH     H2 2191   1.630   0.768   2.841
  669HOH      O 2192   2.801   2.757   0.159
  669HOH     H1 2193   2.893   2.784   0.164
  669HOH     H2 2194   2.802   2.679   0.104
  670HOH      O 2195   3.854   0.549   3.205
  670HOH     H1 2196   3.762   0.550   3.180
  670HOH     H2 2197   3.853   0.540   3.300
  671HOH      O 2198   2.153   1.699   4.060
  671HOH     H1 2199   2.231   1.705   4.006
  671HOH     H2 2200   2.082   1.729   4.002
  672HOH      O 2201   0.250   2.995   0.379
  672HOH     H1 2202   0.278   3.082   0.407
  672HOH     H2 2203   0.194   2.963   0.450
  673HOH      O 2204   3.202   2.559   3.027
  673HOH     H1 2205   3.242   2.551   3.114
  673HOH     H2 2206   3.109   2.572   3.046
  674HOH      O 2207   2.118   3.724   1.211
  674HOH     H1 2208   2.201   3.771   1.225
  674HOH     H2 2209   2.145   3.639   1.177
  675HOH      O 2210   2.119   0.568   3.286
  675HOH     H1 2211   2.152   0.585   3.198
  675HOH     H2 2212   2.124   0.653   3.330
  676HOH      O 2213   3.922   2.596   3.538
  676HOH     H1 2214   3.903   2.520   3.483
  676HOH     H2 2215   3.903   2.566   3.627
  677HOH      O 2216   0.566   3.423   2.603
  677HOH     H1 2217   0.526   3.501   2.642
  677HOH     H2 2218   0.539   3.351   2.661
  678HOH      O 2219   2.934   1.568   1.587
  678HOH     H1 2220   2.984   1.616   1.521
  678HOH     H2 2221   2.843   1.596   1.573
  679HOH      O 2222   3.979   1.852   0.158
  679HOH     H1 2223   3.948   1.761   0.152
  679HOH     H2 2224   3.956   1.879   0.247
  680HOH      O 2225   2.510   1.747   3.528
  680HOH     H1 2226   2.444   1.715   3.589
  680HOH     H2 2227   2.471   1.733   3.442
  681HOH      O 2228   0.831   2.158   3.910
  681HOH     H1 2229   0.860   2.241   3.874
  681HOH     H2 2230   0.878   2.150   3.993
  682HOH      O 2231   2.440   2.602   3.018
  682HOH     H1 2232   2.492   2.524   2.996
  682HOH     H2 2233   2.351   2.579   2.990
  683HOH      O 2234   0.052   1.280   2.737
  683HOH     H1 2235  -0.002   1.357   2.754
  683HOH     H2 2236   0.066   1.281   2.642
  684HOH      O 2237   2.839   2.140   3.245
  684HOH     H1 2238   2.913   2.163   3.188
  684HOH     H2 2239   2.872   2.154   3.334
  685HOH      O 2240   2.861   0.587   2.768
  685HOH     H1 2241   2.807   0.666   2.773
  685HOH     H2 2242   2.941   0.616   2.724
  686HOH      O 2243   1.813   0.190   2.729
  686HOH     H1 2244   1.851   0.146   2.805
  686HOH     H2 2245   1.839   0.136   2.654
  687HOH      O 2246   1.428   1.349   2.141
  687HOH     H1 2247   1.465   1.291   2.073
  687HOH     H2 2248   1.484   1.426   2.140
  688HOH      O 2249   1.675   1.120   0.858
  688HOH     H1 2250   1.730   1.062   0.910
  688HOH     H2 2251   1.652   1.068   0.781
  689HOH      O 2252   1.955   2.862   1.666
  689HOH     H1 2253   1.958   2.947   1.709
  689HOH     H2 2254   1.861   2.842   1.659
  690HOH      O 2255   3.620   0.809   2.804
  690HOH     H1 2256   3.691   0.766   2.755
  690HOH     H2 2257   3.654   0.817   2.893
  691HOH      O 2258   3.456   2.551   0.020
  691HOH     H1 2259   3.473   2.460   0.044
  691HOH     H2 2260   3.509   2.603   0.080
  692HOH      O 2261   1.402   3.681   3.139
  692HOH     H1 2262   1.379   3.773   3.133
  692HOH     H2 2263   1.450   3.674   3.222
  693HOH      O 2264   0.278   3.129   0.809
  693HOH     H1 2265   0.364   3.090   0.824
  693HOH     H2 2266   0.237   3.073   0.744
  694HOH      O 2267   0.460   3.808   0.031
  694HOH     H1 2268   0.449   3.813  -0.064
  694HOH     H2 2269   0.389   3.861   0.066
  695HOH      O 2270   2.623   1.210   0.140
  695HOH     H1 2271   2.667   1.204   0.056
  695HOH     H2 2272   2.652   1.133   0.189
  696HOH      O 2273   2.753   2.738   3.859
  696HOH     H1 2274   2.849   2.739   3.864
  696HOH     H2 2275   2.734   2.677   3.787
  697HOH      O 2276   0.356   1.049   0.880
  697HOH     H1 2277   0.416   1.027   0.951
  697HOH     H2 2278   0.384   1.136   0.851
  698HOH      O 2279   1.167   2.445   2.736
  698HOH     H1 2280   1.214   2.449   2.819
  698HOH     H2 2281   1.081   2.481   2.756
  699HOH      O 2282   1.280   0.228   2.234
  699HOH     H1 2283   1.185   0.235   2.232
  699HOH     H2 2284   1.298   0.162   2.301
  700HOH      O 2285   0.385   2.363   1.103
  700HOH     H1 2286   0.427   2.343   1.187
  700HOH     H2 2287   0.389   2.459   1.098
  701HOH      O 2288   3.002   1.595   2.307
  701HOH     H1 2289   2.981   1.661   2.241
  701HOH     H2 2290   3.005   1.512   2.259
  702HOH      O 2291   3.086   1.016   3.510
  702HOH     H1 2292   3.008   0.971   3.543
  702HOH     H2 2293   3.128   1.051   3.589
  703HOH      O 2294   3.114   3.737   1.081
  703HOH     H1 2295   3.122   3.832   1.095
  703HOH     H2 2296   3.117   3.727   0.986
  704HOH      O 2297   3.663   1.385   0.797
  704HOH     H1 2298   3.750   1.359   0.829
  704HOH     H2 2299   3.672   1.478   0.776
  705HOH      O 2300   0.458   2.905   0.070
  705HOH     H1 2301   0.443   2.989   0.026
  705HOH     H2 2302   0.371   2.867   0.079
  706HOH      O 2303   1.591   4.040   0.873
  706HOH     H1 2304   1.532   4.020   0.800
  706HOH     H2 2305   1.609   3.955   0.914
  707HOH      O 2306   2.869   2.295   1.993
  707HOH     H1 2307   2.936   2.227   1.990
  707HOH     H2 2308   2.909   2.367   2.041
  708HOH      O 2309   0.930   2.201   1.491
  708HOH     H1 2310   0.907   2.214   1.584
  708HOH     H2 2311   0.877   2.125   1.464
  709HOH      O 2312   3.459   0.471   2.898
  709HOH     H1 2313   3.507   0.388   2.895
  709HOH     H2 2314   3.476   0.511   2.813
  710HOH      O 2315   1.833   0.076   3.991
  710HOH     H1 2316   1.896   0.089   4.062
  710HOH     H2 2317   1.821   0.163   3.953
  711HOH      O 2318   2.034   3.743   1.973
  711HOH     H1 2319   2.108   3.799   1.948
  711HOH     H2 2320   2.026   3.681   1.900
  712HOH      O 2321   2.720   3.093   1.634
  712HOH     H1 2322   2.729   3.180   1.594
  712HOH     H2 2323   2.799   3.083   1.688
  713HOH      O 2324   2.979   3.313   3.596
  713HOH     H1 2325   2.988   3.257   3.672
  713HOH     H2 2326   2.994   3.402   3.629
  714HOH      O 2327   0.407   2.887   2.170
  714HOH     H1 2328   0.385   2.874   2.262
  714HOH     H2 2329   0.330   2.929   2.133
  715HOH      O 2330   1.307   1.510   3.220
  715HOH     H1 2331   1.217   1.501   3.252
  715HOH     H2 2332   1.303   1.484   3.128
  716HOH      O 2333   3.178  -0.032   2.266
  716HOH     H1 2334   3.209   0.059   2.258
  716HOH     H2 2335   3.083  -0.025   2.257
  717HOH      O 2336   0.229   1.455   3.863
  717HOH     H1 2337   0.235   1.398   3.940
  717HOH     H2 2338   0.137   1.481   3.860
  718HOH      O 2339   3.584   3.970   3.555
  718HOH     H1 2340   3.607   3.879   3.574
  718HOH     H2 2341   3.595   3.978   3.461
  719HOH      O 2342   2.700   1.095   0.437
  719HOH     H1 2343   2.719   1.170   0.380
  719HOH     H2 2344   2.761   1.027   0.408
  720HOH      O 2345   0.052   2.048   1.694
  720HOH     H1 2346   0.088   1.960   1.702
  720HOH     H2 2347   0.037   2.059   1.600
  721HOH      O 2348   1.348   3.969   3.704
  721HOH     H1 2349   1.298   3.967   3.785
  721HOH     H2 2350   1.373   3.878   3.689
  722HOH      O 2351   1.361   0.939   2.441
  722HOH     H1 2352   1.355   0.924   2.347
  722HOH     H2 2353   1.348   0.853   2.480
  723HOH      O 2354   1.932   2.444   1.491
  723HOH     H1 2355   1.910   2.385   1.418
  723HOH     H2 2356   1.878   2.412   1.564
  724HOH      O 2357   1.002   0.384   1.992
  724HOH     H1 2358   0.988   0.456   1.929
  724HOH     H2 2359   1.006   0.306   1.937
  725HOH      O 2360   0.651   3.551   1.889
  725HOH     H1 2361   0.588   3.508   1.832
  725HOH     H2 2362   0.655   3.495   1.968
  726HOH      O 2363   0.843   1.125   3.583
  726HOH     H1 2364   0.752   1.101   3.564
  726HOH     H2 2365   0.886   1.130   3.498
  727HOH      O 2366   2.478   3.822   3.269
  727HOH     H1 2367   2.473   3.914   3.242
  727HOH     H2 2368   2.465   3.824   3.363
  728HOH      O 2369   1.260   0.756   1.098
  728HOH     H1 2370   1.343   0.802   1.109
  728HOH     H2 2371   1.275   0.670   1.136
  729HOH      O 2372   0.834   1.990   1.320
  729HOH     H1 2373   0.755   2.006   1.268
  729HOH     H2 2374   0.813   1.913   1.372
  730HOH      O 2375   2.354   0.175   0.988
  730HOH     H1 2376   2.392   0.251   0.943
  730HOH     H2 2377   2.401   0.100   0.951
  731HOH      O 2378   3.824   1.366   3.975
  731HOH     H1 2379   3.881   1.442   3.969
  731HOH     H2 2380   3.736   1.401   3.972
  732HOH      O 2381   3.975   0.741   0.073
  732HOH     H1 2382   4.067   0.763   0.081
  732HOH     H2 2383   3.966   0.657   0.118
  733HOH      O 2384   2.728   1.232   2.779
  733HOH     H1 2385   2.736   1.146   2.819
  733HOH     H2 2386   2.786   1.288   2.831
  734HOH      O 2387   0.315   1.041   3.273
  734HOH     H1 2388   0.374   0.989   3.327
  734HOH     H2 2389   0.366   1.060   3.194
  735HOH      O 2390   0.860   1.078   0.273
  735HOH     H1 2391   0.853   1.167   0.307
  735HOH     H2 2392   0.901   1.088   0.187
  736HOH      O 2393   0.967   0.317   3.201
  736HOH     H1 2394   0.932   0.388   3.255
  736HOH     H2 2395   0.913   0.318   3.122
  737HOH      O 2396   3.362   2.104   1.512
  737HOH     H1 2397   3.449   2.064   1.504
  737HOH     H2 2398   3.368   2.185   1.460
  738HOH      O 2399   1.428   2.896   3.043
  738HOH     H1 2400   1.402   2.827   2.982
  738HOH     H2 2401   1.402   2.977   3.001
  739HOH      O 2402   3.499   3.396   0.506
  739HOH     H1 2403   3.518   3.344   0.584
  739HOH     H2 2404   3.500   3.333   0.434
  740HOH      O 2405   3.607   0.142   3.734
  740HOH     H1 2406   3.610   0.067   3.676
  740HOH     H2 2407   3.598   0.217   3.675
  741HOH      O 2408   0.435   1.057   1.411
  741HOH     H1 2409   0.370   0.995   1.378
  741HOH     H2 2410   0.441   1.124   1.343
  742HOH      O 2411   1.557   2.137   2.866
  742HOH     H1 2412   1.597   2.051   2.858
  742HOH     H2 2413   1.565   2.158   2.959
  743HOH      O 2414   3.938   0.295   0.087
  743HOH     H1 2415   3.979   0.355   0.150
  743HOH     H2 2416   3.941   0.209   0.130
  744HOH      O 2417   1.374   3.954   0.054
  744HOH     H1 2418   1.388   3.884   0.117
  744HOH     H2 2419   1.460   3.969   0.016
  745HOH      O 2420   0.235   1.968   3.865
  745HOH     H1 2421   0.229   1.872   3.864
  745HOH     H2 2422   0.228   1.990   3.958
  746HOH      O 2423   3.554   0.543   2.660
  746HOH     H1 2424   3.544   0.485   2.585
  746HOH     H2 2425   3.636   0.591   2.643
  747HOH      O 2426   3.182   1.371   2.441
  747HOH     H1 2427   3.154   1.444   2.386
  747HOH     H2 2428   3.104   1.347   2.491
  748HOH      O 2429   1.387   3.571   0.494
  748HOH     H1 2430   1.411   3.496   0.440
  748HOH     H2 2431   1.395   3.540   0.584
  749HOH      O 2432   2.704   3.581   0.566
  749HOH     H1 2433   2.756   3.588   0.486
  749HOH     H2 2434   2.616   3.604   0.539
  750HOH      O 2435   2.922   3.537   0.062
  750HOH     H1 2436   2.917   3.445   0.036
  750HOH     H2 2437   3.012   3.562   0.043
  751HOH      O 2438   2.905   2.035   0.598
  751HOH     H1 2439   2.916   1.967   0.664
  751HOH     H2 2440   2.821   2.016   0.558
  752HOH      O 2441   3.160   3.325   0.588
  752HOH     H1 2442   3.103   3.260   0.629
  752HOH     H2 2443   3.196   3.280   0.511
  753HOH      O 2444   2.665   3.396   1.906
  753HOH     H1 2445   2.710   3.389   1.990
  753HOH     H2 2446   2.672   3.488   1.882
  754HOH      O 2447   1.625   3.541   2.979
  754HOH     H1 2448   1.606   3.553   2.886
  754HOH     H2 2449   1.579   3.613   3.023
  755HOH      O 2450   0.659   3.478   2.926
  755HOH     H1 2451   0.634   3.559   2.882
  755HOH     H2 2452   0.583   3.420   2.912
  756HOH      O 2453   2.403   2.430   1.585
  756HOH     H1 2454   2.408   2.422   1.680
  756HOH     H2 2455   2.361   2.349   1.556
  757HOH      O 2456   3.768   3.897   3.818
  757HOH     H1 2457   3.697   3.955   3.846
  757HOH     H2 2458   3.728   3.839   3.753
  758HOH      O 2459   0.881   3.569   2.038
  758HOH     H1 2460   0.842   3.609   1.960
  758HOH     H2 2461   0.819   3.501   2.064
  759HOH      O 2462   3.570   0.133   2.043
  759HOH     H1 2463   3.591   0.124   1.950
  759HOH     H2 2464   3.596   0.049   2.081
  760HOH      O 2465   0.173   2.745   0.552
  760HOH     H1 2466   0.089   2.760   0.596
  760HOH     H2 2467   0.178   2.650   0.542
  761HOH      O 2468   3.071   3.275   2.106
  761HOH     H1 2469   3.154   3.304   2.067
  761HOH     H2 2470   3.081   3.181   2.118
  762HOH      O 2471   1.332   3.137   2.947
  762HOH     H1 2472   1.380   3.218   2.962
  762HOH     H2 2473   1.341   3.121   2.853
  763HOH      O 2474   2.240   1.885   3.482
  763HOH     H1 2475   2.145   1.877   3.484
  763HOH     H2 2476   2.268   1.860   3.570
  764HOH      O 2477   3.583   1.257   2.943
  764HOH     H1 2478   3.640   1.248   3.019
  764HOH     H2 2479   3.627   1.206   2.874
  765HOH      O 2480   0.541   1.563   3.199
  765HOH     H1 2481   0.599   1.607   3.261
  765HOH     H2 2482   0.453   1.578   3.235
  766HOH      O 2483   3.267   3.558   0.589
  766HOH     H1 2484   3.230   3.470   0.599
  766HOH     H2 2485   3.356   3.551   0.623
  767HOH      O 2486   3.529   1.100   2.124
  767HOH     H1 2487   3.581   1.138   2.195
  767HOH     H2 2488   3.444   1.144   2.130
  768HOH      O 2489   2.662   1.626   0.326
  768HOH     H1 2490   2.728   1.696   0.328
  768HOH     H2 2491   2.710   1.548   0.353
  769HOH      O 2492   0.732   2.479   2.496
  769HOH     H1 2493   0.803   2.541   2.480
  769HOH     H2 2494   0.659   2.512   2.444
  770HOH      O 2495   1.524   2.180   2.581
  770HOH     H1 2496   1.445   2.128   2.565
  770HOH     H2 2497   1.556   2.149   2.666
  771HOH      O 2498   3.103   3.148   2.369
  771HOH     H1 2499   3.097   3.243   2.360
  771HOH     H2 2500   3.029   3.124   2.426
  772HOH      O 2501   0.854   0.718   3.751
  772HOH     H1 2502   0.766   0.746   3.776
  772HOH     H2 2503   0.861   0.740   3.658
  773HOH      O 2504   0.963   2.861   3.620
  773HOH     H1 2505   0.954   2.894   3.530
  773HOH     H2 2506   0.882   2.814   3.637
  774HOH      O 2507   1.380   2.606   0.292
  774HOH     H1 2508   1.341   2.527   0.328
  774HOH     H2 2509   1.457   2.576   0.244
  775HOH      O 2510   0.765   3.746   3.754
  775HOH     H1 2511   0.725   3.786   3.678
  775HOH     H2 2512   0.758   3.652   3.739
  776HOH      O 2513   2.998   1.678   1.830
  776HOH     H1 2514   3.088   1.702   1.807
  776HOH     H2 2515   2.960   1.648   1.748
  777HOH      O 2516   3.904   2.113   0.361
  777HOH     H1 2517   3.901   2.152   0.449
  777HOH     H2 2518   3.894   2.019   0.376
  778HOH      O 2519   2.196   1.395   1.901
  778HOH     H1 2520   2.183   1.463   1.835
  778HOH     H2 2521   2.291   1.393   1.915
  779HOH      O 2522   3.054   2.985   3.016
  779HOH     H1 2523   3.051   2.969   2.922
  779HOH     H2 2524   3.141   2.956   3.043
  780HOH      O 2525   3.123   3.686   0.813
  780HOH     H1 2526   3.027   3.684   0.808
  780HOH     H2 2527   3.151   3.657   0.726
  781HOH      O 2528   3.727   0.482   0.403
  781HOH     H1 2529   3.695   0.563   0.363
  781HOH     H2 2530   3.791   0.511   0.468
  782HOH      O 2531   0.057   2.766   2.158
  782HOH     H1 2532   0.119   2.699   2.131
  782HOH     H2 2533   0.064   2.834   2.090
  783HOH      O 2534   2.818   1.623   2.843
  783HOH     H1 2535   2.787   1.711   2.822
  783HOH     H2 2536   2.815   1.577   2.759
  784HOH      O 2537   0.492   1.378   0.287
  784HOH     H1 2538   0.522   1.422   0.366
  784HOH     H2 2539   0.467   1.290   0.317
  785HOH      O 2540   2.327   4.039   3.803
  785HOH     H1 2541   2.317   4.089   3.722
  785HOH     H2 2542   2.291   3.953   3.783
  786HOH      O 2543   1.445   0.716   1.636
  786HOH     H1 2544   1.450   0.633   1.683
  786HOH     H2 2545   1.363   0.756   1.665
  787HOH      O 2546   1.818   0.875   3.179
  787HOH     H1 2547   1.864   0.940   3.233
  787HOH     H2 2548   1.809   0.799   3.236
  788HOH      O 2549   2.467   1.989   2.038
  788HOH     H1 2550   2.505   1.971   2.124
  788HOH     H2 2551   2.512   2.068   2.008
  789HOH      O 2552   2.016   3.967   1.575
  789HOH     H1 2553   1.941   3.918   1.610
  789HOH     H2 2554   1.992   3.986   1.484
  790HOH      O 2555   0.524   2.747   3.798
  790HOH     H1 2556   0.577   2.828   3.796
  790HOH     H2 2557   0.500   2.737   3.890
  791HOH      O 2558   2.193   3.778   0.649
  791HOH     H1 2559   2.239   3.694   0.650
  791HOH     H2 2560   2.109   3.759   0.692
  792HOH      O 2561   3.129   2.910   3.364
  792HOH     H1 2562   3.049   2.868   3.394
  792HOH     H2 2563   3.120   2.917   3.269
  793HOH      O 2564   1.764   0.551   0.814
  793HOH     H1 2565   1.783   0.509   0.730
  793HOH     H2 2566   1.837   0.611   0.828
  794HOH      O 2567   3.336   0.838   1.654
  794HOH     H1 2568   3.309   0.772   1.719
  794HOH     H2 2569   3.286   0.814   1.576
  795HOH      O 2570   3.885   3.325   0.554
  795HOH     H1 2571   3.912   3.314   0.463
  795HOH     H2 2572   3.850   3.240   0.579
  796HOH      O 2573   0.405   0.646   2.873
  796HOH     H1 2574   0.436   0.639   2.783
  796HOH     H2 2575   0.453   0.578   2.920
  797HOH      O 2576   1.360   0.407   1.994
  797HOH     H1 2577   1.340   0.337   2.056
  797HOH     H2 2578   1.348   0.367   1.908
  798HOH      O 2579   0.622   3.486   3.650
  798HOH     H1 2580   0.534   3.516   3.625
  798HOH     H2 2581   0.660   3.453   3.569
  799HOH      O 2582   0.904   0.053  -0.012
  799HOH     H1 2583   0.921   0.057   0.082
  799HOH     H2 2584   0.839  -0.017  -0.021
  800HOH      O 2585   2.250   1.822   3.771
  800HOH     H1 2586   2.286   1.908   3.793
  800HOH     H2 2587   2.314   1.760   3.804
  801HOH      O 2588   0.290   3.864   0.477
  801HOH     H1 2589   0.378   3.891   0.503
  801HOH     H2 2590   0.302   3.776   0.440
  802HOH      O 2591   2.048   1.540   0.485
  802HOH     H1 2592   2.046   1.464   0.426
  802HOH     H2 2593   1.983   1.600   0.449
  803HOH      O 2594   0.391   2.807   2.428
  803HOH     H1 2595   0.398   2.711   2.418
  803HOH     H2 2596   0.297   2.824   2.434
  804HOH      O 2597   1.009   0.241   2.233
  804HOH     H1 2598   1.019   0.300   2.159
  804HOH     H2 2599   0.915   0.222   2.236
  805HOH      O 2600   0.527   3.167   3.960
  805HOH     H1 2601   0.539   3.195   4.051
  805HOH     H2 2602   0.566   3.237   3.908
  806HOH      O 2603   0.165   0.412   1.687
  806HOH     H1 2604   0.185   0.324   1.718
  806HOH     H2 2605   0.099   0.400   1.619
  807HOH      O 2606   2.698   2.384   2.507
  807HOH     H1 2607   2.621   2.420   2.463
  807HOH     H2 2608   2.693   2.419   2.596
  808HOH      O 2609   1.555   1.661   1.751
  808HOH     H1 2610   1.545   1.719   1.676
  808HOH     H2 2611   1.649   1.644   1.757
  809HOH      O 2612   0.768   0.830   2.737
  809HOH     H1 2613   0.693   0.879   2.704
  809HOH     H2 2614   0.748   0.813   2.829
  810HOH      O 2615   1.457   3.676   3.944
  810HOH     H1 2616   1.384   3.668   4.005
  810HOH     H2 2617   1.516   3.739   3.984
  811HOH      O 2618   2.921   0.788   1.251
  811HOH     H1 2619   3.006   0.826   1.273
  811HOH     H2 2620   2.940   0.696   1.232
  812HOH      O 2621   3.834   3.879   3.194
  812HOH     H1 2622   3.748   3.882   3.236
  812HOH     H2 2623   3.818   3.905   3.103
  813HOH      O 2624   1.195   3.765   0.559
  813HOH     H1 2625   1.258   3.707   0.515
  813HOH     H2 2626   1.134   3.705   0.602
  814HOH      O 2627   3.852   0.623   1.531
  814HOH     H1 2628   3.761   0.596   1.542
  814HOH     H2 2629   3.882   0.641   1.621
  815HOH      O 2630   1.049   0.987   3.712
  815HOH     H1 2631   1.085   0.950   3.631
  815HOH     H2 2632   0.972   1.036   3.683
  816HOH      O 2633   1.163   1.771   1.964
  816HOH     H1 2634   1.232   1.705   1.954
  816HOH     H2 2635   1.168   1.823   1.885
  817HOH      O 2636   3.179   2.062   3.762
  817HOH     H1 2637   3.192   2.003   3.687
  817HOH     H2 2638   3.090   2.044   3.791
  818HOH      O 2639   0.490   0.255   1.032
  818HOH     H1 2640   0.569   0.307   1.018
  818HOH     H2 2641   0.455   0.287   1.115
  819HOH      O 2642   3.228   1.995   1.320
  819HOH     H1 2643   3.253   2.029   1.406
  819HOH     H2 2644   3.220   2.072   1.264
  820HOH      O 2645   0.119   2.170   3.015
  820HOH     H1 2646   0.095   2.125   3.095
  820HOH     H2 2647   0.086   2.115   2.944
  821HOH      O 2648   0.849   3.001   1.043
  821HOH     H1 2649   0.903   2.997   0.964
  821HOH     H2 2650   0.838   3.095   1.060
  822HOH      O 2651   0.611   2.108   1.181
  822HOH     H1 2652   0.607   2.115   1.085
  822HOH     H2 2653   0.595   2.197   1.212
  823HOH      O 2654   2.967   1.895   1.656
  823HOH     H1 2655   3.034   1.857   1.600
  823HOH     H2 2656   2.992   1.987   1.665
  824HOH      O 2657   3.199   1.086   1.888
  824HOH     H1 2658   3.116   1.040   1.899
  824HOH     H2 2659   3.197   1.119   1.799
  825HOH      O 2660   0.186   3.820   1.777
  825HOH     H1 2661   0.212   3.871   1.854
  825HOH     H2 2662   0.269   3.803   1.731
  826HOH      O 2663   0.581   1.102   3.721
  826HOH     H1 2664   0.564   1.127   3.812
  826HOH     H2 2665   0.540   1.171   3.669
  827HOH      O 2666   2.385   0.257   3.929
  827HOH     H1 2667   2.408   0.311   3.854
  827HOH     H2 2668   2.356   0.174   3.892
  828HOH      O 2669   1.682   1.344   1.645
  828HOH     H1 2670   1.743   1.285   1.602
  828HOH     H2 2671   1.595   1.313   1.617
  829HOH      O 2672   3.414   1.077   0.548
  829HOH     H1 2673   3.324   1.044   0.538
  829HOH     H2 2674   3.467   0.998   0.554
  830HOH      O 2675   0.398   0.094   2.791
  830HOH     H1 2676   0.338   0.166   2.776
  830HOH     H2 2677   0.397   0.081   2.886
  831HOH      O 2678   1.224   0.669   1.427
  831HOH     H1 2679   1.304   0.681   1.477
  831HOH     H2 2680   1.250   0.611   1.355
  832HOH      O 2681   1.637   2.255   1.348
  832HOH     H1 2682   1.604   2.212   1.427
  832HOH     H2 2683   1.572   2.235   1.281
  833HOH      O 2684   2.584   2.169   0.804
  833HOH     H1 2685   2.497   2.145   0.773
  833HOH     H2 2686   2.643   2.145   0.733
  834HOH      O 2687   1.660   3.362   2.190
  834HOH     H1 2688   1.602   3.286   2.202
  834HOH     H2 2689   1.695   3.379   2.278
  835HOH      O 2690   0.560   2.071   2.067
  835HOH     H1 2691   0.592   2.144   2.120
  835HOH     H2 2692   0.548   2.000   2.130
  836HOH      O 2693   1.544   0.639   0.989
  836HOH     H1 2694   1.503   0.711   0.941
  836HOH     H2 2695   1.611   0.606   0.930
  837HOH      O 2696   0.901   1.708   3.714
  837HOH     H1 2697   0.823   1.734   3.665
  837HOH     H2 2698   0.932   1.789   3.753
  838HOH      O 2699   3.214   0.662   1.183
  838HOH     H1 2700   3.207   0.756   1.168
  838HOH     H2 2701   3.265   0.629   1.108
  839HOH      O 2702   0.933   3.995   2.633
  839HOH     H1 2703   0.963   4.034   2.551
  839HOH     H2 2704   1.006   3.940   2.662
  840HOH      O 2705   0.026   0.738   2.095
  840HOH     H1 2706   0.000   0.830   2.085
  840HOH     H2 2707   0.094   0.725   2.029
  841HOH      O 2708   1.901   3.327   3.446
  841HOH     H1 2709   1.968   3.311   3.380
  841HOH     H2 2710   1.855   3.405   3.416
  842HOH      O 2711   3.389   3.763   3.216
  842HOH     H1 2712   3.325   3.692   3.220
  842HOH     H2 2713   3.460   3.728   3.163
  843HOH      O 2714   0.860   2.433   0.149
  843HOH     H1 2715   0.868   2.350   0.196
  843HOH     H2 2716   0.767   2.437   0.123
  844HOH      O 2717   0.306   2.075   2.687
  844HOH     H1 2718   0.251   1.997   2.698
  844HOH     H2 2719   0.244   2.145   2.667
  845HOH      O 2720   3.017   2.829   1.537
  845HOH     H1 2721   2.928   2.839   1.569
  845HOH     H2 2722   3.010   2.838   1.442
  846HOH      O 2723   0.923   3.581   2.628
  846HOH     H1 2724   0.963   3.664   2.655
  846HOH     H2 2725   0.846   3.607   2.577
  847HOH      O 2726   0.616   0.954   1.061
  847HOH     H1 2727   0.644   0.974   1.150
  847HOH     H2 2728   0.695   0.964   1.008
  848HOH      O 2729   2.004   3.589   2.243
  848HOH     H1 2730   1.993   3.634   2.160
  848HOH     H2 2731   1.991   3.656   2.309
  849HOH      O 2732   1.927   0.018   1.317
  849HOH     H1 2733   1.846   0.046   1.360
  849HOH     H2 2734   1.939   0.080   1.246
  850HOH      O 2735   0.437   1.095   3.046
  850HOH     H1 2736   0.505   1.160   3.028
  850HOH     H2 2737   0.366   1.118   2.986
  851HOH      O 2738   3.162   1.362   0.614
  851HOH     H1 2739   3.138   1.273   0.642
  851HOH     H2 2740   3.238   1.384   0.669
  852HOH      O 2741   0.749   0.496   3.391
  852HOH     H1 2742   0.755   0.449   3.474
  852HOH     H2 2743   0.775   0.586   3.412
  853HOH      O 2744   2.751   1.568   1.084
  853HOH     H1 2745   2.720   1.648   1.126
  853HOH     H2 2746   2.689   1.501   1.112
  854HOH      O 2747   3.675   3.407   0.759
  854HOH     H1 2748   3.744   3.419   0.695
  854HOH     H2 2749   3.721   3.391   0.841
  855HOH      O 2750   1.365   2.494   3.907
  855HOH     H1 2751   1.287   2.470   3.957
  855HOH     H2 2752   1.392   2.579   3.942
  856HOH      O 2753   3.522   3.513   3.506
  856HOH     H1 2754   3.476   3.469   3.577
  856HOH     H2 2755   3.500   3.463   3.428
  857HOH      O 2756   3.014   2.658   0.720
  857HOH     H1 2757   3.103   2.683   0.744
  857HOH     H2 2758   2.990   2.592   0.785
  858HOH      O 2759   1.090   0.638   3.239
  858HOH     H1 2760   1.155   0.675   3.298
  858HOH     H2 2761   1.136   0.568   3.192
  859HOH      O 2762   0.843   2.485   1.122
  859HOH     H1 2763   0.868   2.484   1.215
  859HOH     H2 2764   0.902   2.549   1.083
  860HOH      O 2765   3.629   2.534   3.792
  860HOH     H1 2766   3.561   2.471   3.816
  860HOH     H2 2767   3.600   2.570   3.708
  861HOH      O 2768   3.380   1.343   1.055
  861HOH     H1 2769   3.427   1.381   1.129
  861HOH     H2 2770   3.409   1.395   0.980
  862HOH      O 2771   3.626   3.175   1.739
  862HOH     H1 2772   3.622   3.269   1.720
  862HOH     H2 2773   3.585   3.166   1.825
  863HOH      O 2774   0.993   1.355   0.668
  863HOH     H1 2775   0.948   1.293   0.725
  863HOH     H2 2776   1.025   1.423   0.726
  864HOH      O 2777   2.743   3.465   1.208
  864HOH     H1 2778   2.756   3.422   1.123
  864HOH     H2 2779   2.827   3.506   1.227
  865HOH      O 2780   0.382   2.138   2.955
  865HOH     H1 2781   0.295   2.137   2.996
  865HOH     H2 2782   0.363   2.135   2.861
  866HOH      O 2783   1.590   0.316   2.665
  866HOH     H1 2784   1.610   0.390   2.608
  866HOH     H2 2785   1.675   0.278   2.686
  867HOH      O 2786   3.006   3.292   2.737
  867HOH     H1 2787   3.077   3.353   2.717
  867HOH     H2 2788   2.952   3.338   2.801
  868HOH      O 2789   1.049   1.500   2.919
  868HOH     H1 2790   1.142   1.510   2.939
  868HOH     H2 2791   1.040   1.528   2.828
  869HOH      O 2792   2.037   2.306   0.405
  869HOH     H1 2793   2.040   2.239   0.337
  869HOH     H2 2794   2.063   2.260   0.485
  870HOH      O 2795   0.332   0.476   2.022
  870HOH     H1 2796   0.398   0.543   2.040
  870HOH     H2 2797   0.272   0.518   1.959
  871HOH      O 2798   0.090   0.617   2.504
  871HOH     H1 2799   0.180   0.616   2.471
  871HOH     H2 2800   0.094   0.569   2.587
  872HOH      O 2801   0.591   3.531   0.055
  872HOH     H1 2802   0.522   3.494   0.110
  872HOH     H2 2803   0.567   3.622   0.043
  873HOH      O 2804   0.324   2.715   3.399
  873HOH     H1 2805   0.343   2.782   3.465
  873HOH     H2 2806   0.229   2.707   3.400
  874HOH      O 2807   1.635   1.554   2.090
  874HOH     H1 2808   1.723   1.577   2.119
  874HOH     H2 2809   1.645   1.530   1.998
  875HOH      O 2810   0.937   2.391   3.785
  875HOH     H1 2811   0.956   2.438   3.867
  875HOH     H2 2812   1.008   2.417   3.726
  876HOH      O 2813   1.324   1.062   1.861
  876HOH     H1 2814   1.302   0.990   1.802
  876HOH     H2 2815   1.326   1.021   1.948
  877HOH      O 2816   2.794   2.673   0.426
  877HOH     H1 2817   2.806   2.741   0.360
  877HOH     H2 2818   2.844   2.599   0.393
  878HOH      O 2819   1.775   1.603   2.731
  878HOH     H1 2820   1.767   1.543   2.657
  878HOH     H2 2821   1.746   1.552   2.807
  879HOH      O 2822   2.418   1.020   3.942
  879HOH     H1 2823   2.466   0.955   3.992
  879HOH     H2 2824   2.328   0.988   3.940
  880HOH      O 2825   1.565   2.175   2.200
  880HOH     H1 2826   1.624   2.113   2.244
  880HOH     H2 2827   1.542   2.131   2.118
  881HOH      O 2828   1.177   2.496   3.043
  881HOH     H1 2829   1.241   2.447   3.096
  881HOH     H2 2830   1.094   2.483   3.089
  882HOH      O 2831   1.479   1.803   1.539
  882HOH     H1 2832   1.397   1.849   1.520
  882HOH     H2 2833   1.472   1.722   1.489
  883HOH      O 2834   1.755   0.657   3.323
  883HOH     H1 2835   1.707   0.577   3.301
  883HOH     H2 2836   1.813   0.631   3.394
  884HOH      O 2837   1.624   2.678   2.151
  884HOH     H1 2838   1.661   2.601   2.195
  884HOH     H2 2839   1.600   2.737   2.223
  885HOH      O 2840   1.752   3.259   0.908
  885HOH     H1 2841   1.694   3.295   0.840
  885HOH     H2 2842   1.830   3.231   0.860
  886HOH      O 2843   0.991   2.976   1.382
  886HOH     H1 2844   0.931   2.933   1.321
  886HOH     H2 2845   1.004   3.063   1.346
  887HOH      O 2846   2.052   1.018   2.110
  887HOH     H1 2847   2.073   1.012   2.203
  887HOH     H2 2848   2.098   0.944   2.070
  888HOH      O 2849   0.583   2.658   0.291
  888HOH     H1 2850   0.660   2.615   0.326
  888HOH     H2 2851   0.546   2.705   0.366
  889HOH      O 2852   1.150   3.607   3.375
  889HOH     H1 2853   1.136   3.694   3.339
  889HOH     H2 2854   1.134   3.548   3.301
  890HOH      O 2855   0.576   0.247   2.630
  890HOH     H1 2856   0.531   0.192   2.694
  890HOH     H2 2857   0.667   0.218   2.633
  891HOH      O 2858   2.290   3.011   1.413
  891HOH     H1 2859   2.332   3.037   1.496
  891HOH     H2 2860   2.349   3.044   1.345
  892HOH      O 2861   3.020   2.226   3.965
  892HOH     H1 2862   2.958   2.283   4.010
  892HOH     H2 2863   3.095   2.221   4.024
  893HOH      O 2864   0.124   3.653   3.999
  893HOH     H1 2865   0.146   3.616   3.914
  893HOH     H2 2866   0.115   3.747   3.983
  894HOH      O 2867   3.096   2.169   1.601
  894HOH     H1 2868   3.067   2.228   1.671
  894HOH     H2 2869   3.191   2.171   1.606
  895HOH      O 2870   0.365   2.442   3.190
  895HOH     H1 2871   0.316   2.512   3.233
  895HOH     H2 2872   0.357   2.460   3.097
  896HOH      O 2873   1.912   1.486   1.465
  896HOH     H1 2874   1.861   1.505   1.544
  896HOH     H2 2875   1.870   1.538   1.397
  897HOH      O 2876   0.958   3.316   2.797
  897HOH     H1 2877   0.918   3.391   2.753
  897HOH     H2 2878   0.909   3.307   2.879
  898HOH      O 2879   0.694   0.206   1.855
  898HOH     H1 2880   0.770   0.158   1.823
  898HOH     H2 2881   0.700   0.292   1.814
  899HOH      O 2882   2.340   0.081   2.068
  899HOH     H1 2883   2.379   0.039   2.145
  899HOH     H2 2884   2.314   0.009   2.012
  900HOH      O 2885   0.791   3.682   1.546
  900HOH     H1 2886   0.835   3.641   1.621
  900HOH     H2 2887   0.770   3.771   1.577
  901HOH      O 2888   2.507   0.664   0.762
  901HOH     H1 2889   2.602   0.674   0.762
  901HOH     H2 2890   2.491   0.585   0.710
  902HOH      O 2891   2.169   3.953   1.838
  902HOH     H1 2892   2.102   3.972   1.772
  902HOH     H2 2893   2.250   3.988   1.800
  903HOH      O 2894   1.151   3.819   2.716
  903HOH     H1 2895   1.192   3.751   2.769
  903HOH     H2 2896   1.175   3.796   2.626
  904HOH      O 2897   0.275   2.558   3.947
  904HOH     H1 2898   0.288   2.554   4.042
  904HOH     H2 2899   0.244   2.646   3.930
  905HOH      O 2900   1.193   1.108   2.840
  905HOH     H1 2901   1.235   1.152   2.766
  905HOH     H2 2902   1.116   1.160   2.859
  906HOH      O 2903   2.220   2.504   3.713
  906HOH     H1 2904   2.192   2.581   3.664
  906HOH     H2 2905   2.256   2.540   3.795
  907HOH      O 2906   2.348   0.790   1.327
  907HOH     H1 2907   2.374   0.720   1.387
  907HOH     H2 2908   2.398   0.866   1.357
  908HOH      O 2909   2.314   2.117   0.757
  908HOH     H1 2910   2.343   2.028   0.738
  908HOH     H2 2911   2.294   2.116   0.850
  909HOH      O 2912   1.137   2.162   3.738
  909HOH     H1 2913   1.163   2.254   3.732
  909HOH     H2 2914   1.046   2.165   3.765
  910HOH      O 2915   4.003   3.092   3.742
  910HOH     H1 2916   3.965   3.006   3.724
  910HOH     H2 2917   4.017   3.093   3.837
  911HOH      O 2918   2.320   0.581   1.139
  911HOH     H1 2919   2.413   0.579   1.117
  911HOH     H2 2920   2.312   0.649   1.206
  912HOH      O 2921   0.923   1.236   2.138
  912HOH     H1 2922   0.905   1.268   2.227
  912HOH     H2 2923   0.904   1.142   2.143
  913HOH      O 2924   3.128   1.739   1.455
  913HOH     H1 2925   3.161   1.818   1.411
  913HOH     H2 2926   3.204   1.682   1.461
  914HOH      O 2927   1.506   2.018   3.801
  914HOH     H1 2928   1.421   1.976   3.793
  914HOH     H2 2929   1.520   2.060   3.716
  915HOH      O 2930   2.607   0.103   3.016
  915HOH     H1 2931   2.700   0.099   3.036
  915HOH     H2 2932   2.571   0.165   3.080
  916HOH      O 2933   2.291   0.410   0.135
  916HOH     H1 2934   2.324   0.341   0.078
  916HOH     H2 2935   2.199   0.387   0.150
  917HOH      O 2936   0.354   2.892   3.595
  917HOH     H1 2937   0.394   2.872   3.680
  917HOH     H2 2938   0.317   2.979   3.607
  918HOH      O 2939   1.507   0.057   0.454
  918HOH     H1 2940   1.538  -0.014   0.398
  918HOH     H2 2941   1.424   0.084   0.414
  919HOH      O 2942   0.123   0.645   0.592
  919HOH     H1 2943   0.159   0.648   0.503
  919HOH     H2 2944   0.160   0.723   0.635
  920HOH      O 2945   1.975   1.297   2.743
  920HOH     H1 2946   2.024   1.291   2.661
  920HOH     H2 2947   1.883   1.302   2.716
  921HOH      O 2948   0.418   3.598   2.740
  921HOH     H1 2949   0.386   3.678   2.782
  921HOH     H2 2950   0.339   3.546   2.724
  922HOH      O 2951   3.209   1.941   3.339
  922HOH     H1 2952   3.203   1.913   3.248
  922HOH     H2 2953   3.164   2.025   3.341
  923HOH      O 2954   3.852   1.474   2.846
  923HOH     H1 2955   3.805   1.494   2.764
  923HOH     H2 2956   3.785   1.437   2.903
  924HOH      O 2957   0.008   2.143   0.834
  924HOH     H1 2958   0.014   2.130   0.739
  924HOH     H2 2959   0.099   2.143   0.863
  925HOH      O 2960   0.455   3.612   0.905
  925HOH     H1 2961   0.420   3.690   0.862
  925HOH     H2 2962   0.386   3.584   0.964
  926HOH      O 2963   0.264   0.243   0.101
  926HOH     H1 2964   0.205   0.251   0.176
  926HOH     H2 2965   0.309   0.328   0.096
  927HOH      O 2966   2.278   1.755   2.037
  927HOH     H1 2967   2.283   1.707   2.119
  927HOH     H2 2968   2.346   1.822   2.045
  928HOH      O 2969   1.554   4.035   2.152
  928HOH     H1 2970   1.495   4.053   2.226
  928HOH     H2 2971   1.503   3.980   2.093
  929HOH      O 2972   1.788   2.241   2.538
  929HOH     H1 2973   1.834   2.164   2.572
  929HOH     H2 2974   1.695   2.218   2.543
  930HOH      O 2975   1.349   2.829   0.540
  930HOH     H1 2976   1.426   2.774   0.555
  930HOH     H2 2977   1.386   2.917   0.527
  931HOH      O 2978   3.368   0.730   0.757
  931HOH     H1 2979   3.370   0.666   0.828
  931HOH     H2 2980   3.283   0.715   0.715
  932HOH      O 2981   3.186   0.411   2.218
  932HOH     H1 2982   3.258   0.348   2.226
  932HOH     H2 2983   3.142   0.387   2.137
  933HOH      O 2984   3.434   0.818   3.615
  933HOH     H1 2985   3.408   0.732   3.648
  933HOH     H2 2986   3.508   0.801   3.557
  934HOH      O 2987   2.581   0.450   3.503
  934HOH     H1 2988   2.651   0.430   3.565
  934HOH     H2 2989   2.626   0.488   3.428
  935HOH      O 2990   0.562   0.750   2.384
  935HOH     H1 2991   0.501   0.766   2.312
  935HOH     H2 2992   0.645   0.785   2.353
  936HOH      O 2993   1.635   1.751   0.590
  936HOH     H1 2994   1.540   1.764   0.584
  936HOH     H2 2995   1.670   1.838   0.610
  937HOH      O 2996   3.533   2.555   2.265
  937HOH     H1 2997   3.583   2.624   2.222
  937HOH     H2 2998   3.547   2.478   2.210
  938HOH      O 2999   0.448   0.732   1.102
  938HOH     H1 3000   0.433   0.711   1.195
  938HOH     H2 3001   0.499   0.813   1.105
  939HOH      O 3002   0.873   0.169   1.476
  939HOH     H1 3003   0.799   0.230   1.471
  939HOH     H2 3004   0.949   0.225   1.492
  940HOH      O 3005   2.188   1.326   2.569
  940HOH     H1 3006   2.272   1.313   2.614
  940HOH     H2 3007   2.198   1.279   2.486
  941HOH      O 3008   2.113   3.363   0.593
  941HOH     H1 3009   2.057   3.321   0.527
  941HOH     H2 3010   2.053   3.413   0.648
  942HOH      O 3011   2.265   0.335   2.005
  942HOH     H1 3012   2.203   0.326   1.932
  942HOH     H2 3013   2.302   0.248   2.015
  943HOH      O 3014   0.990   3.692   3.032
  943HOH     H1 3015   0.943   3.636   3.094
  943HOH     H2 3016   0.922   3.748   2.994
  944HOH      O 3017   3.535   2.691   3.274
  944HOH     H1 3018   3.507   2.776   3.307
  944HOH     H2 3019   3.621   2.707   3.236
  945HOH      O 3020   3.136   4.003   1.768
  945HOH     H1 3021   3.195   4.042   1.833
  945HOH     H2 3022   3.048   4.026   1.800
  946HOH      O 3023   0.099   3.945   3.143
  946HOH     H1 3024   0.004   3.935   3.144
  946HOH     H2 3025   0.118   3.978   3.056
  947HOH      O 3026   0.872   0.668   2.335
  947HOH     H1 3027   0.938   0.611   2.375
  947HOH     H2 3028   0.788   0.625   2.355
  948HOH      O 3029   0.622   1.117   2.284
  948HOH     H1 3030   0.685   1.168   2.335
  948HOH     H2 3031   0.674   1.049   2.242
  949HOH      O 3032   1.042   0.671   0.570
  949HOH     H1 3033   1.033   0.740   0.504
  949HOH     H2 3034   1.058   0.718   0.652
  950HOH      O 3035   1.715   3.039   1.070
  950HOH     H1 3036   1.794   3.023   1.122
  950HOH     H2 3037   1.729   3.126   1.032
  951HOH      O 3038   2.478   0.688   1.570
  951HOH     H1 3039   2.407   0.627   1.554
  951HOH     H2 3040   2.505   0.669   1.660
  952HOH      O 3041   1.610   2.008   3.224
  952HOH     H1 3042   1.691   1.959   3.214
  952HOH     H2 3043   1.624   2.089   3.175
  953HOH      O 3044   1.216   3.576   2.950
  953HOH     H1 3045   1.148   3.640   2.972
  953HOH     H2 3046   1.289   3.597   3.008
  954HOH      O 3047   0.681   2.583   1.439
  954HOH     H1 3048   0.769   2.609   1.467
  954HOH     H2 3049   0.632   2.570   1.520
  955HOH      O 3050   3.393   1.067   3.549
  955HOH     H1 3051   3.423   0.976   3.559
  955HOH     H2 3052   3.338   1.066   3.471
  956HOH      O 3053   2.235   3.895   2.948
  956HOH     H1 3054   2.218   3.812   2.992
  956HOH     H2 3055   2.247   3.958   3.019
  957HOH      O 3056   1.795   1.238   0.454
  957HOH     H1 3057   1.759   1.326   0.451
  957HOH     H2 3058   1.725   1.185   0.491
  958HOH      O 3059   0.030   3.176   2.407
  958HOH     H1 3060  -0.056   3.138   2.425
  958HOH     H2 3061   0.092   3.107   2.430
  959HOH      O 3062   2.866   0.615   0.454
  959HOH     H1 3063   2.896   0.556   0.522
  959HOH     H2 3064   2.839   0.558   0.382
  960HOH      O 3065   2.221   0.723   0.174
  960HOH     H1 3066   2.272   0.778   0.234
  960HOH     H2 3067   2.251   0.634   0.193
  961HOH      O 3068   0.448   1.701   0.193
  961HOH     H1 3069   0.374   1.649   0.224
  961HOH     H2 3070   0.492   1.645   0.128
  962HOH      O 3071   2.827   3.830   2.162
  962HOH     H1 3072   2.817   3.920   2.131
  962HOH     H2 3073   2.763   3.821   2.233
  963HOH      O 3074   3.844   3.385   1.053
  963HOH     H1 3075   3.791   3.316   1.093
  963HOH     H2 3076   3.922   3.339   1.021
  964HOH      O 3077   0.137   1.295   1.204
  964HOH     H1 3078   0.064   1.239   1.181
  964HOH     H2 3079   0.112   1.334   1.288
  965HOH      O 3080   1.154   3.134   2.299
  965HOH     H1 3081   1.069   3.107   2.334
  965HOH     H2 3082   1.209   3.057   2.306
  966HOH      O 3083   0.993   3.946   0.683
  966HOH     H1 3084   1.055   4.008   0.644
  966HOH     H2 3085   1.039   3.863   0.684
  967HOH      O 3086   3.310   3.568   0.322
  967HOH     H1 3087   3.354   3.484   0.310
  967HOH     H2 3088   3.270   3.562   0.409
  968HOH      O 3089   2.144   0.956   3.006
  968HOH     H1 3090   2.094   0.984   2.929
  968HOH     H2 3091   2.082   0.907   3.059
  969HOH      O 3092   1.359   0.096   3.456
  969HOH     H1 3093   1.333   0.031   3.521
  969HOH     H2 3094   1.392   0.169   3.507
  970HOH      O 3095   3.283   2.705   0.301
  970HOH     H1 3096   3.342   2.779   0.316
  970HOH     H2 3097   3.325   2.631   0.344
  971HOH      O 3098   2.651   2.835   3.448
  971HOH     H1 3099   2.560   2.836   3.476
  971HOH     H2 3100   2.655   2.894   3.373
  972HOH      O 3101   2.408   0.909   3.333
  972HOH     H1 3102   2.437   0.842   3.272
  972HOH     H2 3103   2.376   0.980   3.277
  973HOH      O 3104   0.127   3.621   3.116
  973HOH     H1 3105   0.118   3.670   3.034
  973HOH     H2 3106   0.039   3.620   3.154
  974HOH      O 3107   1.944   3.914   3.832
  974HOH     H1 3108   1.899   3.971   3.895
  974HOH     H2 3109   1.879   3.896   3.765
  975HOH      O 3110   0.383   3.362   3.328
  975HOH     H1 3111   0.473   3.363   3.360
  975HOH     H2 3112   0.355   3.271   3.337
  976HOH      O 3113   1.254   1.737   2.834
  976HOH     H1 3114   1.193   1.694   2.774
  976HOH     H2 3115   1.225   1.828   2.837
  977HOH      O 3116   1.774   3.110   1.390
  977HOH     H1 3117   1.862   3.073   1.389
  977HOH     H2 3118   1.788   3.204   1.403
  978HOH      O 3119   1.734   1.659   1.315
  978HOH     H1 3120   1.754   1.745   1.352
  978HOH     H2 3121   1.639   1.662   1.300
  979HOH      O 3122   0.120   0.894   0.969
  979HOH     H1 3123   0.031   0.920   0.946
  979HOH     H2 3124   0.175   0.930   0.899
  980HOH      O 3125   0.475   2.299   3.624
  980HOH     H1 3126   0.516   2.380   3.596
  980HOH     H2 3127   0.451   2.315   3.715
  981HOH      O 3128   0.241   1.864   0.095
  981HOH     H1 3129   0.290   1.798   0.144
  981HOH     H2 3130   0.150   1.854   0.124
  982HOH      O 3131   2.750   3.540   2.283
  982HOH     H1 3132   2.785   3.613   2.334
  982HOH     H2 3133   2.659   3.531   2.312
  983HOH      O 3134   3.537   2.330   2.532
  983HOH     H1 3135   3.587   2.249   2.529
  983HOH     H2 3136   3.447   2.303   2.514
  984HOH      O 3137   2.610   3.037   1.932
  984HOH     H1 3138   2.542   3.102   1.912
  984HOH     H2 3139   2.666   3.037   1.854
  985HOH      O 3140   1.719   2.117   1.858
  985HOH     H1 3141   1.637   2.076   1.884
  985HOH     H2 3142   1.781   2.090   1.926
  986HOH      O 3143   2.243   1.507   0.227
  986HOH     H1 3144   2.315   1.555   0.269
  986HOH     H2 3145   2.187   1.575   0.191
  987HOH      O 3146   3.731   3.522   2.524
  987HOH     H1 3147   3.669   3.590   2.499
  987HOH     H2 3148   3.801   3.527   2.459
  988HOH      O 3149   0.688   1.754   0.587
  988HOH     H1 3150   0.679   1.715   0.674
  988HOH     H2 3151   0.711   1.846   0.605
  989HOH      O 3152   1.463   0.311   3.957
  989HOH     H1 3153   1.382   0.283   4.000
  989HOH     H2 3154   1.518   0.343   4.029
  990HOH      O 3155   3.743   2.860   1.864
  990HOH     H1 3156   3.684   2.886   1.793
  990HOH     H2 3157   3.828   2.849   1.821
  991HOH      O 3158   1.740   0.206   0.789
  991HOH     H1 3159   1.808   0.210   0.857
  991HOH     H2 3160   1.682   0.135   0.818
  992HOH      O 3161   2.332   1.929   2.858
  992HOH     H1 3162   2.390   1.894   2.790
  992HOH     H2 3163   2.390   1.948   2.932
  993HOH      O 3164   3.531   0.784   1.393
  993HOH     H1 3165   3.450   0.769   1.344
  993HOH     H2 3166   3.542   0.705   1.445
  994HOH      O 3167   1.663   1.418   2.407
  994HOH     H1 3168   1.744   1.469   2.408
  994HOH     H2 3169   1.659   1.383   2.318
  995HOH      O 3170   1.460   0.708   0.266
  995HOH     H1 3171   1.451   0.752   0.181
  995HOH     H2 3172   1.547   0.734   0.296
  996HOH      O 3173   0.605   2.914   1.996
  996HOH     H1 3174   0.573   2.831   1.961
  996HOH     H2 3175   0.546   2.934   2.068
  997HOH      O 3176   1.589   3.580   2.703
  997HOH     H1 3177   1.515   3.590   2.644
  997HOH     H2 3178   1.654   3.641   2.669
  998HOH      O 3179   2.201   1.550   2.381
  998HOH     H1 3180   2.165   1.527   2.295
  998HOH     H2 3181   2.283   1.596   2.361
  999HOH      O 3182   0.023   1.237   3.586
  999HOH     H1 3183   0.036   1.180   3.510
  999HOH     H2 3184   0.082   1.202   3.653
 1000HOH      O 3185   0.102   3.062   1.134
 1000HOH     H1 3186   0.032   3.048   1.197
 1000HOH     H2 3187   0.180   3.077   1.187
 1001HOH      O 3188   3.886   0.626   0.572
 1001HOH     H1 3189   3.980   0.640   0.586
 1001HOH     H2 3190   3.844   0.678   0.640
 1002HOH      O 3191   1.997   2.744   0.248
 1002HOH     H1 3192   2.017   2.679   0.315
 1002HOH     H2 3193   2.036   2.708   0.168
 1003HOH      O 3194   1.213   1.215   0.282
 1003HOH     H1 3195   1.253   1.128   0.276
 1003HOH     H2 3196   1.242   1.249   0.367
 1004HOH      O 3197   1.411   0.711   2.597
 1004HOH     H1 3198   1.425   0.751   2.683
 1004HOH     H2 3199   1.495   0.671   2.576
 1005HOH      O 3200   0.149   0.923   3.089
 1005HOH     H1 3201   0.176   0.962   3.173
 1005HOH     H2 3202   0.099   0.846   3.114
 1006HOH      O 3203   2.607   2.756   2.017
 1006HOH     H1 3204   2.567   2.838   1.988
 1006HOH     H2 3205   2.625   2.708   1.935
 1007HOH      O 3206   1.144   3.481   3.905
 1007HOH     H1 3207   1.097   3.553   3.862
 1007HOH     H2 3208   1.095   3.402   3.879
 1008HOH      O 3209   4.009   2.378   3.307
 1008HOH     H1 3210   3.933   2.339   3.350
 1008HOH     H2 3211   4.019   2.328   3.226
 1009HOH      O 3212   2.575   1.569   2.583
 1009HOH     H1 3213   2.670   1.569   2.573
 1009HOH     H2 3214   2.547   1.655   2.552
 1010HOH      O 3215   2.461   1.443   3.596
 1010HOH     H1 3216   2.451   1.397   3.513
 1010HOH     H2 3217   2.415   1.387   3.660
 1011HOH      O 3218   2.966   3.774   3.513
 1011HOH     H1 3219   3.054   3.807   3.529
 1011HOH     H2 3220   2.932   3.753   3.600
 1012HOH      O 3221   2.904   0.833   0.107
 1012HOH     H1 3222   2.976   0.771   0.108
 1012HOH     H2 3223   2.872   0.833   0.017
 1013HOH      O 3224   0.126   2.153   2.356
 1013HOH     H1 3225   0.214   2.152   2.320
 1013HOH     H2 3226   0.069   2.140   2.280
 1014HOH      O 3227   0.944   2.362   3.153
 1014HOH     H1 3228   0.910   2.278   3.124
 1014HOH     H2 3229   0.866   2.415   3.172
 1015HOH      O 3230   2.607   0.670   3.812
 1015HOH     H1 3231   2.592   0.714   3.729
 1015HOH     H2 3232   2.527   0.619   3.827
 1016HOH      O 3233   0.303   1.388   2.361
 1016HOH     H1 3234   0.226   1.363   2.413
 1016HOH     H2 3235   0.347   1.455   2.415
 1017HOH      O 3236   0.834   0.784   3.463
 1017HOH     H1 3237   0.916   0.830   3.448
 1017HOH     H2 3238   0.768   0.835   3.417
 1018HOH      O 3239   3.599   1.602   3.383
 1018HOH     H1 3240   3.590   1.539   3.454
 1018HOH     H2 3241   3.685   1.584   3.346
 1019HOH      O 3242   1.458   2.780   1.946
 1019HOH     H1 3243   1.509   2.722   2.003
 1019HOH     H2 3244   1.480   2.752   1.857
 1020HOH      O 3245   2.235   2.612   2.402
 1020HOH     H1 3246   2.196   2.630   2.317
 1020HOH     H2 3247   2.272   2.696   2.430
 1021HOH      O 3248   4.002   2.955   2.756
 1021HOH     H1 3249   4.034   2.868   2.731
 1021HOH     H2 3250   4.000   2.952   2.852
 1022HOH      O 3251   2.397   2.317   3.641
 1022HOH     H1 3252   2.311   2.358   3.653
 1022HOH     H2 3253   2.399   2.295   3.548
 1023HOH      O 3254   1.533   3.788   0.397
 1023HOH     H1 3255   1.567   3.757   0.313
 1023HOH     H2 3256   1.504   3.709   0.442
 1024HOH      O 3257   0.848   2.471   0.737
 1024HOH     H1 3258   0.864   2.543   0.798
 1024HOH     H2 3259   0.852   2.512   0.650
 1025HOH      O 3260   2.394   1.860   0.736
 1025HOH     H1 3261   2.474   1.834   0.782
 1025HOH     H2 3262   2.370   1.784   0.684
 1026HOH      O 3263   1.864   1.664   1.704
 1026HOH     H1 3264   1.910   1.706   1.631
 1026HOH     H2 3265   1.883   1.720   1.779
 1027HOH      O 3266   3.703   1.868   3.726
 1027HOH     H1 3267   3.669   1.780   3.714
 1027HOH     H2 3268   3.784   1.869   3.676
 1028HOH      O 3269   1.001   0.182   1.817
 1028HOH     H1 3270   1.023   0.194   1.724
 1028HOH     H2 3271   1.071   0.125   1.850
 1029HOH      O 3272   4.009   1.828   3.714
 1029HOH     H1 3273   4.040   1.891   3.649
 1029HOH     H2 3274   3.983   1.882   3.789
 1030HOH      O 3275   0.730   1.367   0.162
 1030HOH     H1 3276   0.784   1.390   0.237
 1030HOH     H2 3277   0.644   1.347   0.200
 1031HOH      O 3278   1.724   1.111   1.887
 1031HOH     H1 3279   1.795   1.175   1.883
 1031HOH     H2 3280   1.766   1.027   1.869
 1032HOH      O 3281   2.033   0.445   2.689
 1032HOH     H1 3282   2.128   0.433   2.694
 1032HOH     H2 3283   1.999   0.358   2.667
 1033HOH      O 3284   3.139   2.137   0.650
 1033HOH     H1 3285   3.048   2.111   0.636
 1033HOH     H2 3286   3.188   2.054   0.647
 1034HOH      O 3287   0.933   2.227   0.330
 1034HOH     H1 3288   0.938   2.202   0.422
 1034HOH     H2 3289   1.013   2.276   0.314
 1035HOH      O 3290   1.986   3.236   0.013
 1035HOH     H1 3291   1.900   3.225   0.053
 1035HOH     H2 3292   2.043   3.176   0.062
 1036HOH      O 3293   0.572   3.919   2.462
 1036HOH     H1 3294   0.477   3.933   2.463
 1036HOH     H2 3295   0.608   4.008   2.454
 1037HOH      O 3296   2.986   2.447   0.906
 1037HOH     H1 3297   3.038   2.367   0.906
 1037HOH     H2 3298   2.995   2.482   0.995
 1038HOH      O 3299   3.380   3.958   0.085
 1038HOH     H1 3300   3.446   3.997   0.028
 1038HOH     H2 3301   3.421   3.879   0.120
 1039HOH      O 3302   1.730   3.306   2.780
 1039HOH     H1 3303   1.731   3.387   2.730
 1039HOH     H2 3304   1.821   3.277   2.783
 1040HOH      O 3305   0.315   1.397   2.075
 1040HOH     H1 3306   0.399   1.352   2.068
 1040HOH     H2 3307   0.299   1.404   2.169
 1041HOH      O 3308   1.943   3.397   2.393
 1041HOH     H1 3309   1.969   3.469   2.336
 1041HOH     H2 3310   1.951   3.319   2.338
 1042HOH      O 3311   3.127   0.221   2.734
 1042HOH     H1 3312   3.193   0.289   2.739
 1042HOH     H2 3313   3.066   0.252   2.668
 1043HOH      O 3314   1.111   3.168   0.107
 1043HOH     H1 3315   1.019   3.171   0.134
 1043HOH     H2 3316   1.112   3.208   0.020
 1044HOH      O 3317   3.077   3.017   2.723
 1044HOH     H1 3318   3.026   3.098   2.729
 1044HOH     H2 3319   3.019   2.956   2.678
 1045HOH      O 3320   0.115   1.319   0.770
 1045HOH     H1 3321   0.185   1.254   0.761
 1045HOH     H2 3322   0.161   1.402   0.779
 1046HOH      O 3323   1.966   3.092   0.717
 1046HOH     H1 3324   1.997   3.001   0.715
 1046HOH     H2 3325   1.975   3.123   0.627
 1047HOH      O 3326   0.999   4.040   2.902
 1047HOH     H1 3327   0.975   4.033   2.809
 1047HOH     H2 3328   1.051   3.962   2.919
 1048HOH      O 3329   1.772   2.019   0.374
 1048HOH     H1 3330   1.812   2.102   0.348
 1048HOH     H2 3331   1.788   2.014   0.469
 1049HOH      O 3332   3.015   1.846   0.737
 1049HOH     H1 3333   3.083   1.863   0.801
 1049HOH     H2 3334   3.011   1.750   0.732
 1050HOH      O 3335   3.273   2.744   2.798
 1050HOH     H1 3336   3.214   2.761   2.725
 1050HOH     H2 3337   3.218   2.701   2.864
 1051HOH      O 3338   2.607   2.229   2.175
 1051HOH     H1 3339   2.640   2.311   2.138
 1051HOH     H2 3340   2.680   2.195   2.227
 1052HOH      O 3341   0.938   3.059   3.314
 1052HOH     H1 3342   0.910   2.970   3.291
 1052HOH     H2 3343   1.034   3.054   3.313
 1053HOH      O 3344   2.621   3.915   1.145
 1053HOH     H1 3345   2.659   3.991   1.188
 1053HOH     H2 3346   2.660   3.840   1.191
 1054HOH      O 3347   1.307   2.901   2.325
 1054HOH     H1 3348   1.390   2.894   2.373
 1054HOH     H2 3349   1.275   2.810   2.319
 1055HOH      O 3350   0.182   2.221   3.802
 1055HOH     H1 3351   0.248   2.284   3.832
 1055HOH     H2 3352   0.205   2.139   3.846
 1056HOH      O 3353   0.497   3.959   1.079
 1056HOH     H1 3354   0.444   4.014   1.021
 1056HOH     H2 3355   0.536   4.022   1.141
 1057HOH      O 3356   2.139   2.928   3.790
 1057HOH     H1 3357   2.122   3.015   3.754
 1057HOH     H2 3358   2.229   2.932   3.822
 1058HOH      O 3359   3.313   1.590   0.169
 1058HOH     H1 3360   3.258   1.659   0.132
 1058HOH     H2 3361   3.380   1.636   0.219
 1059HOH      O 3362   4.027   1.175  -0.001
 1059HOH     H1 3363   3.983   1.260  -0.007
 1059HOH     H2 3364   4.054   1.168   0.090
 1060HOH      O 3365   3.809   2.623   3.976
 1060HOH     H1 3366   3.881   2.600   3.917
 1060HOH     H2 3367   3.730   2.606   3.926
 1061HOH      O 3368   3.189   2.033   2.437
 1061HOH     H1 3369   3.282   2.025   2.457
 1061HOH     H2 3370   3.166   2.123   2.463
 1062HOH      O 3371   0.810   3.224   3.486
 1062HOH     H1 3372   0.848   3.169   3.417
 1062HOH     H2 3373   0.885   3.273   3.520
 1063HOH      O 3374   1.882   2.687   3.026
 1063HOH     H1 3375   1.863   2.745   3.099
 1063HOH     H2 3376   1.812   2.622   3.027
 1064HOH      O 3377   0.264   3.169   0.157
 1064HOH     H1 3378   0.237   3.261   0.159
 1064HOH     H2 3379   0.266   3.142   0.249
 1065HOH      O 3380   0.031   0.289   2.085
 1065HOH     H1 3381   0.090   0.215   2.099
 1065HOH     H2 3382   0.068   0.360   2.136
 1066HOH      O 3383   1.328   1.470   2.944
 1066HOH     H1 3384   1.336   1.564   2.925
 1066HOH     H2 3385   1.364   1.427   2.867
 1067HOH      O 3386   1.427   2.366   2.923
 1067HOH     H1 3387   1.484   2.442   2.919
 1067HOH     H2 3388   1.461   2.307   2.855
 1068HOH      O 3389   2.648   0.869   2.507
 1068HOH     H1 3390   2.586   0.847   2.438
 1068HOH     H2 3391   2.643   0.964   2.515
 1069HOH      O 3392   3.991   4.025   2.620
 1069HOH     H1 3393   4.003   4.050   2.529
 1069HOH     H2 3394   4.001   3.930   2.620
 1070HOH      O 3395   2.127   2.628   1.566
 1070HOH     H1 3396   2.054   2.569   1.583
 1070HOH     H2 3397   2.100   2.712   1.603
 1071HOH      O 3398   0.693   1.238   3.362
 1071HOH     H1 3399   0.647   1.279   3.436
 1071HOH     H2 3400   0.664   1.287   3.285
 1072HOH      O 3401   0.743   3.881   3.987
 1072HOH     H1 3402   0.783   3.839   3.911
 1072HOH     H2 3403   0.649   3.866   3.976
 1073HOH      O 3404   2.604   2.739   1.311
 1073HOH     H1 3405   2.527   2.717   1.365
 1073HOH     H2 3406   2.624   2.658   1.264
 1074HOH      O 3407   2.914   0.407   0.633
 1074HOH     H1 3408   2.876   0.321   0.654
 1074HOH     H2 3409   3.006   0.400   0.659
 1075HOH      O 3410   3.721   0.076   2.647
 1075HOH     H1 3411   3.744   0.011   2.580
 1075HOH     H2 3412   3.794   0.138   2.646
 1076HOH      O 3413   1.623   3.236   3.075
 1076HOH     H1 3414   1.600   3.278   3.159
 1076HOH     H2 3415   1.645   3.309   3.018
 1077HOH      O 3416   2.824   0.700   2.070
 1077HOH     H1 3417   2.810   0.692   2.164
 1077HOH     H2 3418   2.915   0.729   2.062
 1078HOH      O 3419   1.052   0.364   1.197
 1078HOH     H1 3420   0.970   0.411   1.212
 1078HOH     H2 3421   1.043   0.325   1.110
 1079HOH      O 3422   3.607   0.444   1.992
 1079HOH     H1 3423   3.581   0.357   2.022
 1079HOH     H2 3424   3.667   0.427   1.919
 1080HOH      O 3425   3.187   3.489   2.618
 1080HOH     H1 3426   3.217   3.484   2.527
 1080HOH     H2 3427   3.268   3.501   2.669
 1081HOH      O 3428   3.147   2.794   1.234
 1081HOH     H1 3429   3.236   2.817   1.261
 1081HOH     H2 3430   3.107   2.878   1.210
 1082HOH      O 3431   4.001   0.884   0.640
 1082HOH     H1 3432   3.921   0.888   0.588
 1082HOH     H2 3433   3.976   0.919   0.725
 1083HOH      O 3434   0.216   2.549   2.150
 1083HOH     H1 3435   0.145   2.486   2.137
 1083HOH     H2 3436   0.295   2.501   2.125
 1084HOH      O 3437   1.032   3.690   3.763
 1084HOH     H1 3438   0.939   3.710   3.750
 1084HOH     H2 3439   1.072   3.774   3.786
 1085HOH      O 3440   2.179   2.150   3.790
 1085HOH     H1 3441   2.257   2.166   3.843
 1085HOH     H2 3442   2.147   2.238   3.768
 1086HOH      O 3443   0.830   2.544   3.594
 1086HOH     H1 3444   0.734   2.549   3.592
 1086HOH     H2 3445   0.850   2.490   3.670
 1087HOH      O 3446   3.301   3.558   2.158
 1087HOH     H1 3447   3.212   3.549   2.191
 1087HOH     H2 3448   3.306   3.496   2.086
 1088HOH      O 3449   3.436   1.939   3.028
 1088HOH     H1 3450   3.459   1.869   3.088
 1088HOH     H2 3451   3.343   1.956   3.045
 1089HOH      O 3452   3.468   1.117   0.889
 1089HOH     H1 3453   3.539   1.157   0.840
 1089HOH     H2 3454   3.448   1.180   0.958
 1090HOH      O 3455   3.355   3.463   2.394
 1090HOH     H1 3456   3.345   3.476   2.300
 1090HOH     H2 3457   3.420   3.528   2.420
 1091HOH      O 3458   1.338   0.392   3.510
 1091HOH     H1 3459   1.414   0.408   3.455
 1091HOH     H2 3460   1.344   0.459   3.579
 1092HOH      O 3461   3.749   0.966   1.115
 1092HOH     H1 3462   3.656   0.947   1.102
 1092HOH     H2 3463   3.771   0.925   1.198
 1093HOH      O 3464   2.795   0.262   0.378
 1093HOH     H1 3465   2.853   0.265   0.455
 1093HOH     H2 3466   2.826   0.332   0.322
 1094HOH      O 3467   2.316   0.637   2.729
 1094HOH     H1 3468   2.381   0.568   2.740
 1094HOH     H2 3469   2.361   0.717   2.757
 1095HOH      O 3470   2.325   1.491   0.984
 1095HOH     H1 3471   2.404   1.533   0.952
 1095HOH     H2 3472   2.261   1.503   0.913
 1096HOH      O 3473   3.530   1.129   1.709
 1096HOH     H1 3474   3.608   1.184   1.702
 1096HOH     H2 3475   3.506   1.135   1.801
 1097HOH      O 3476   2.538   0.517   2.024
 1097HOH     H1 3477   2.448   0.485   2.014
 1097HOH     H2 3478   2.532   0.588   2.089
 1098HOH      O 3479   2.958   1.402   1.031
 1098HOH     H1 3480   2.880   1.452   1.053
 1098HOH     H2 3481   3.024   1.469   1.010
 1099HOH      O 3482   1.290   0.500   1.224
 1099HOH     H1 3483   1.198   0.474   1.222
 1099HOH     H2 3484   1.333   0.439   1.164
 1100HOH      O 3485   0.895   2.002   3.693
 1100HOH     H1 3486   0.923   2.050   3.616
 1100HOH     H2 3487   0.875   2.070   3.758
 1101HOH      O 3488   3.198   0.576   2.929
 1101HOH     H1 3489   3.139   0.521   2.979
 1101HOH     H2 3490   3.285   0.540   2.945
 1102HOH      O 3491   0.357   2.347   2.443
 1102HOH     H1 3492   0.398   2.316   2.523
 1102HOH     H2 3493   0.271   2.378   2.471
 1103HOH      O 3494   1.569   1.045   0.038
 1103HOH     H1 3495   1.598   0.960   0.007
 1103HOH     H2 3496   1.650   1.093   0.056
 1104HOH      O 3497   1.451   1.771   3.281
 1104HOH     H1 3498   1.429   1.720   3.203
 1104HOH     H2 3499   1.474   1.857   3.249
 1105HOH      O 3500   4.004   0.447   2.752
 1105HOH     H1 3501   3.963   0.406   2.676
 1105HOH     H2 3502   3.959   0.408   2.827
 1106HOH      O 3503   3.759   0.912   0.525
 1106HOH     H1 3504   3.674   0.867   0.523
 1106HOH     H2 3505   3.750   0.978   0.594
 1107HOH      O 3506   3.065   2.176   0.911
 1107HOH     H1 3507   3.074   2.084   0.937
 1107HOH     H2 3508   3.107   2.181   0.825
 1108HOH      O 3509   3.764   3.083   0.613
 1108HOH     H1 3510   3.741   3.037   0.693
 1108HOH     H2 3511   3.734   3.025   0.542
 1109HOH      O 3512   0.114   3.272   3.077
 1109HOH     H1 3513   0.200   3.312   3.060
 1109HOH     H2 3514   0.128   3.178   3.064
 1110HOH      O 3515   2.017   2.962   1.388
 1110HOH     H1 3516   2.065   2.894   1.435
 1110HOH     H2 3517   2.085   3.021   1.356
 1111HOH      O 3518   2.764   2.417   2.947
 1111HOH     H1 3519   2.692   2.443   2.890
 1111HOH     H2 3520   2.821   2.363   2.891
 1112HOH      O 3521   0.865   2.608   3.931
 1112HOH     H1 3522   0.773   2.588   3.945
 1112HOH     H2 3523   0.900   2.622   4.019
 1113HOH      O 3524   1.530   0.373   2.268
 1113HOH     H1 3525   1.581   0.306   2.313
 1113HOH     H2 3526   1.453   0.326   2.235
 1114HOH      O 3527   2.888   3.990   1.852
 1114HOH     H1 3528   2.871   3.900   1.825
 1114HOH     H2 3529   2.803   4.023   1.880
 1115HOH      O 3530   3.787   0.399   1.750
 1115HOH     H1 3531   3.856   0.452   1.790
 1115HOH     H2 3532   3.822   0.376   1.663
 1116HOH      O 3533   0.976   1.549   2.069
 1116HOH     H1 3534   0.945   1.639   2.059
 1116HOH     H2 3535   1.067   1.557   2.097
 1117HOH      O 3536   2.302   2.617   3.931
 1117HOH     H1 3537   2.363   2.685   3.959
 1117HOH     H2 3538   2.244   2.603   4.006
 1118HOH      O 3539   0.919   3.978   0.943
 1118HOH     H1 3540   0.938   3.955   0.851
 1118HOH     H2 3541   0.834   3.939   0.960
 1119HOH      O 3542   1.265   1.305   1.334
 1119HOH     H1 3543   1.326   1.244   1.376
 1119HOH     H2 3544   1.298   1.314   1.244
 1120HOH      O 3545   1.655   3.087   1.685
 1120HOH     H1 3546   1.699   3.006   1.709
 1120HOH     H2 3547   1.652   3.086   1.590
 1121HOH      O 3548   0.507   3.207   2.173
 1121HOH     H1 3549   0.444   3.135   2.169
 1121HOH     H2 3550   0.504   3.237   2.264
 1122HOH      O 3551   1.145   3.885   3.189
 1122HOH     H1 3552   1.090   3.946   3.239
 1122HOH     H2 3553   1.082   3.825   3.149
 1123HOH      O 3554   1.839   3.527   4.015
 1123HOH     H1 3555   1.860   3.435   4.003
 1123HOH     H2 3556   1.921   3.573   3.999
 1124HOH      O 3557   3.494   0.349   0.406
 1124HOH     H1 3558   3.576   0.399   0.397
 1124HOH     H2 3559   3.426   0.416   0.408
 1125HOH      O 3560   3.108   2.933   0.904
 1125HOH     H1 3561   3.149   2.847   0.893
 1125HOH     H2 3562   3.121   2.977   0.821
 1126HOH      O 3563   1.397   2.996   2.659
 1126HOH     H1 3564   1.306   3.022   2.670
 1126HOH     H2 3565   1.443   3.078   2.640
 1127HOH      O 3566   0.647   1.924   0.282
 1127HOH     H1 3567   0.591   1.863   0.235
 1127HOH     H2 3568   0.590   1.961   0.350
 1128HOH      O 3569   3.258   0.476   1.429
 1128HOH     H1 3570   3.248   0.565   1.461
 1128HOH     H2 3571   3.269   0.485   1.334
 1129HOH      O 3572   1.293   1.884   2.348
 1129HOH     H1 3573   1.351   1.903   2.421
 1129HOH     H2 3574   1.341   1.820   2.296
 1130HOH      O 3575   1.719   3.928   1.561
 1130HOH     H1 3576   1.675   3.985   1.499
 1130HOH     H2 3577   1.719   3.978   1.643
 1131HOH      O 3578   1.847   0.806   2.230
 1131HOH     H1 3579   1.929   0.847   2.257
 1131HOH     H2 3580   1.781   0.874   2.244
 1132HOH      O 3581   1.515   1.856   2.556
 1132HOH     H1 3582   1.516   1.762   2.539
 1132HOH     H2 3583   1.466   1.865   2.638
 1133HOH      O 3584   3.067   3.353   1.358
 1133HOH     H1 3585   2.980   3.322   1.384
 1133HOH     H2 3586   3.065   3.353   1.263
 1134HOH      O 3587   1.274   3.179   1.934
 1134HOH     H1 3588   1.269   3.098   1.985
 1134HOH     H2 3589   1.190   3.183   1.887
 1135HOH      O 3590   1.322   4.007   1.425
 1135HOH     H1 3591   1.265   4.083   1.410
 1135HOH     H2 3592   1.261   3.936   1.449
 1136HOH      O 3593   1.643   1.389   1.318
 1136HOH     H1 3594   1.570   1.437   1.279
 1136HOH     H2 3595   1.702   1.457   1.350
 1137HOH      O 3596   3.019   0.991   2.639
 1137HOH     H1 3597   2.955   0.922   2.626
 1137HOH     H2 3598   3.075   0.959   2.710
 1138HOH      O 3599   3.677   2.144   3.215
 1138HOH     H1 3600   3.696   2.101   3.132
 1138HOH     H2 3601   3.668   2.237   3.192
 1139HOH      O 3602   3.136   0.967   1.315
 1139HOH     H1 3603   3.180   1.011   1.388
 1139HOH     H2 3604   3.151   1.025   1.240
 1140HOH      O 3605   1.201   2.387   1.212
 1140HOH     H1 3606   1.252   2.468   1.203
 1140HOH     H2 3607   1.121   2.415   1.256
 1141HOH      O 3608   0.410   0.196   3.673
 1141HOH     H1 3609   0.335   0.137   3.666
 1141HOH     H2 3610   0.486   0.141   3.651
 1142HOH      O 3611   3.166   0.321   0.113
 1142HOH     H1 3612   3.143   0.244   0.164
 1142HOH     H2 3613   3.207   0.286   0.034
 1143HOH      O 3614   1.497   1.413   3.511
 1143HOH     H1 3615   1.461   1.488   3.462
 1143HOH     H2 3616   1.494   1.340   3.449
 1144HOH      O 3617   2.815   1.697   3.853
 1144HOH     H1 3618   2.790   1.626   3.912
 1144HOH     H2 3619   2.911   1.696   3.853
 1145HOH      O 3620   2.579   0.809   1.989
 1145HOH     H1 3621   2.666   0.781   2.019
 1145HOH     H2 3622   2.524   0.803   2.067
 1146HOH      O 3623   1.044   1.127   1.436
 1146HOH     H1 3624   0.972   1.182   1.468
 1146HOH     H2 3625   1.072   1.169   1.355
 1147HOH      O 3626   1.128   3.744   1.059
 1147HOH     H1 3627   1.125   3.723   1.152
 1147HOH     H2 3628   1.134   3.840   1.056
 1148HOH      O 3629   3.755   0.677   0.790
 1148HOH     H1 3630   3.677   0.714   0.830
 1148HOH     H2 3631   3.729   0.589   0.762
 1149HOH      O 3632   2.546   3.469   3.876
 1149HOH     H1 3633   2.525   3.378   3.854
 1149HOH     H2 3634   2.467   3.502   3.920
 1150HOH      O 3635   2.504   2.607   0.226
 1150HOH     H1 3636   2.487   2.528   0.277
 1150HOH     H2 3637   2.599   2.610   0.216
 1151HOH      O 3638   1.880   2.054   4.038
 1151HOH     H1 3639   1.822   1.982   4.061
 1151HOH     H2 3640   1.900   2.041   3.946
 1152HOH      O 3641   0.633   2.328   1.914
 1152HOH     H1 3642   0.630   2.234   1.928
 1152HOH     H2 3643   0.677   2.339   1.830
 1153HOH      O 3644   1.376   1.012   3.513
 1153HOH     H1 3645   1.410   1.091   3.470
 1153HOH     H2 3646   1.403   1.021   3.604
 1154HOH      O 3647   1.182   3.541   1.775
 1154HOH     H1 3648   1.128   3.609   1.816
 1154HOH     H2 3649   1.237   3.508   1.846
 1155HOH      O 3650  -0.028   0.349   1.383
 1155HOH     H1 3651   0.000   0.441   1.385
 1155HOH     H2 3652   0.046   0.303   1.342
 1156HOH      O 3653   3.935   2.916   3.027
 1156HOH     H1 3654   3.847   2.932   2.994
 1156HOH     H2 3655   3.930   2.936   3.120
 1157HOH      O 3656   1.948   1.892   3.432
 1157HOH     H1 3657   1.921   1.917   3.344
 1157HOH     H2 3658   1.869   1.904   3.485
 1158HOH      O 3659   0.398   0.775   2.152
 1158HOH     H1 3660   0.464   0.775   2.083
 1158HOH     H2 3661   0.329   0.833   2.120
 1159HOH      O 3662  -0.033   1.539   0.611
 1159HOH     H1 3663   0.040   1.600   0.604
 1159HOH     H2 3664   0.000   1.468   0.666
 1160HOH      O 3665   0.896   0.265   2.931
 1160HOH     H1 3666   0.937   0.179   2.922
 1160HOH     H2 3667   0.929   0.315   2.857
 1161HOH      O 3668   1.136   0.869   3.944
 1161HOH     H1 3669   1.122   0.900   3.854
 1161HOH     H2 3670   1.052   0.833   3.970
 1162HOH      O 3671   3.147   3.799   0.276
 1162HOH     H1 3672   3.119   3.711   0.248
 1162HOH     H2 3673   3.242   3.797   0.269
 1163HOH      O 3674   3.500   2.676   1.873
 1163HOH     H1 3675   3.499   2.751   1.814
 1163HOH     H2 3676   3.546   2.707   1.951
 1164HOH      O 3677   0.210   3.761   2.402
 1164HOH     H1 3678   0.267   3.694   2.362
 1164HOH     H2 3679   0.189   3.820   2.329
 1165HOH      O 3680   0.058   1.780   1.749
 1165HOH     H1 3681   0.086   1.689   1.763
 1165HOH     H2 3682  -0.038   1.775   1.742
 1166HOH      O 3683   2.600   0.585   0.081
 1166HOH     H1 3684   2.557   0.535   0.150
 1166HOH     H2 3685   2.611   0.523   0.009
 1167HOH      O 3686   0.651   1.970   2.357
 1167HOH     H1 3687   0.724   2.012   2.402
 1167HOH     H2 3688   0.616   1.908   2.421
 1168HOH      O 3689   1.211   0.249   4.039
 1168HOH     H1 3690   1.183   0.249   3.947
 1168HOH     H2 3691   1.134   0.278   4.087
 1169HOH      O 3692   0.815   2.834   0.796
 1169HOH     H1 3693   0.824   2.824   0.702
 1169HOH     H2 3694   0.728   2.873   0.807
 1170HOH      O 3695   2.346   1.648   0.565
 1170HOH     H1 3696   2.254   1.623   0.564
 1170HOH     H2 3697   2.364   1.676   0.475
 1171HOH      O 3698   2.115   3.121   1.048
 1171HOH     H1 3699   2.209   3.118   1.032
 1171HOH     H2 3700   2.076   3.112   0.961
 1172HOH      O 3701   3.582   0.061   3.995
 1172HOH     H1 3702   3.583   0.124   4.067
 1172HOH     H2 3703   3.590   0.115   3.916
 1173HOH      O 3704   3.045   2.692   3.830
 1173HOH     H1 3705   3.117   2.630   3.845
 1173HOH     H2 3706   3.088   2.776   3.816
 1174HOH      O 3707   1.833   0.204   3.372
 1174HOH     H1 3708   1.921   0.234   3.397
 1174HOH     H2 3709   1.803   0.155   3.449
 1175HOH      O 3710   0.916   1.631   1.624
 1175HOH     H1 3711   0.872   1.568   1.682
 1175HOH     H2 3712   0.988   1.581   1.586
 1176HOH      O 3713   0.371   0.172   0.629
 1176HOH     H1 3714   0.440   0.143   0.689
 1176HOH     H2 3715   0.410   0.162   0.542
 1177HOH      O 3716   1.470   1.038   3.772
 1177HOH     H1 3717   1.470   0.942   3.780
 1177HOH     H2 3718   1.514   1.068   3.851
 1178HOH      O 3719   1.551   3.130   1.940
 1178HOH     H1 3720   1.455   3.131   1.948
 1178HOH     H2 3721   1.567   3.093   1.853
 1179HOH      O 3722   1.870   3.606   2.937
 1179HOH     H1 3723   1.789   3.571   2.974
 1179HOH     H2 3724   1.877   3.564   2.851
 1180HOH      O 3725   3.679   0.223   3.356
 1180HOH     H1 3726   3.668   0.206   3.262
 1180HOH     H2 3727   3.736   0.152   3.386
 1181HOH      O 3728   2.179   0.820   2.022
 1181HOH     H1 3729   2.173   0.735   2.065
 1181HOH     H2 3730   2.194   0.799   1.930
 1182HOH      O 3731   0.638   1.953   3.026
 1182HOH     H1 3732   0.585   1.926   2.950
 1182HOH     H2 3733   0.574   1.966   3.096
 1183HOH      O 3734   2.409   0.919   2.347
 1183HOH     H1 3735   2.357   0.977   2.291
 1183HOH     H2 3736   2.387   0.946   2.436
 1184HOH      O 3737   0.196   3.074   2.148
 1184HOH     H1 3738   0.152   3.030   2.076
 1184HOH     H2 3739   0.158   3.162   2.149
 1185HOH      O 3740   1.940   2.842   1.031
 1185HOH     H1 3741   2.032   2.869   1.023
 1185HOH     H2 3742   1.895   2.891   0.962
 1186HOH      O 3743   3.715   2.552   0.878
 1186HOH     H1 3744   3.715   2.568   0.973
 1186HOH     H2 3745   3.806   2.529   0.858
 1187HOH      O 3746   2.394   2.418   1.169
 1187HOH     H1 3747   2.323   2.455   1.221
 1187HOH     H2 3748   2.425   2.344   1.222
 1188HOH      O 3749   2.108   1.091   0.003
 1188HOH     H1 3750   2.174   1.150   0.040
 1188HOH     H2 3751   2.054   1.066   0.078
 1189HOH      O 3752   2.190   3.445   1.143
 1189HOH     H1 3753   2.187   3.440   1.047
 1189HOH     H2 3754   2.283   3.430   1.164
 1190HOH      O 3755   1.611   0.776   0.553
 1190HOH     H1 3756   1.700   0.808   0.570
 1190HOH     H2 3757   1.623   0.685   0.525
 1191HOH      O 3758   0.262   3.413   2.098
 1191HOH     H1 3759   0.295   3.362   2.025
 1191HOH     H2 3760   0.177   3.374   2.119
 1192HOH      O 3761   1.307   3.085   1.529
 1192HOH     H1 3762   1.354   3.054   1.607
 1192HOH     H2 3763   1.218   3.102   1.560
 1193HOH      O 3764   2.578   1.868   1.152
 1193HOH     H1 3765   2.529   1.948   1.171
 1193HOH     H2 3766   2.656   1.874   1.206
 1194HOH      O 3767   1.284   2.649   1.229
 1194HOH     H1 3768   1.277   2.720   1.293
 1194HOH     H2 3769   1.291   2.695   1.145
 1195HOH      O 3770   0.232   3.718   3.665
 1195HOH     H1 3771   0.281   3.750   3.741
 1195HOH     H2 3772   0.286   3.648   3.628
 1196HOH      O 3773   3.739   1.086   1.957
 1196HOH     H1 3774   3.810   1.058   2.015
 1196HOH     H2 3775   3.661   1.084   2.012
 1197HOH      O 3776   2.672   1.044   0.875
 1197HOH     H1 3777   2.713   1.124   0.842
 1197HOH     H2 3778   2.742   1.000   0.924
 1198HOH      O 3779   2.993   3.656   2.997
 1198HOH     H1 3780   2.938   3.729   3.026
 1198HOH     H2 3781   3.043   3.692   2.923
 1199HOH      O 3782   0.402   0.125   1.441
 1199HOH     H1 3783   0.448   0.061   1.387
 1199HOH     H2 3784   0.404   0.088   1.529
 1200HOH      O 3785   1.964   1.337   3.607
 1200HOH     H1 3786   2.019   1.348   3.685
 1200HOH     H2 3787   1.980   1.416   3.556
 1201HOH      O 3788   3.191   1.095   3.787
 1201HOH     H1 3789   3.254   1.036   3.745
 1201HOH     H2 3790   3.149   1.042   3.854
 1202HOH      O 3791   3.704   1.884   0.348
 1202HOH     H1 3792   3.779   1.857   0.402
 1202HOH     H2 3793   3.629   1.878   0.408
 1203HOH      O 3794   1.864   2.309   0.984
 1203HOH     H1 3795   1.849   2.398   1.015
 1203HOH     H2 3796   1.930   2.319   0.916
 1204HOH      O 3797   1.001   0.336   0.157
 1204HOH     H1 3798   0.944   0.404   0.194
 1204HOH     H2 3799   0.969   0.254   0.196
 1205HOH      O 3800   0.638   1.958   0.923
 1205HOH     H1 3801   0.691   2.037   0.937
 1205HOH     H2 3802   0.689   1.905   0.862
 1206HOH      O 3803   1.826   1.140   0.126
 1206HOH     H1 3804   1.807   1.113   0.216
 1206HOH     H2 3805   1.877   1.221   0.137
 1207HOH      O 3806   2.376   1.820   2.574
 1207HOH     H1 3807   2.327   1.888   2.527
 1207HOH     H2 3808   2.439   1.868   2.628
 1208HOH      O 3809   2.050   3.319   1.625
 1208HOH     H1 3810   2.033   3.407   1.659
 1208HOH     H2 3811   1.998   3.261   1.681
 1209HOH      O 3812   3.116   0.652   0.383
 1209HOH     H1 3813   3.029   0.665   0.419
 1209HOH     H2 3814   3.132   0.558   0.389
 1210HOH      O 3815   3.343   1.404   3.378
 1210HOH     H1 3816   3.289   1.483   3.373
 1210HOH     H2 3817   3.294   1.338   3.328
 1211HOH      O 3818   1.292   0.788   3.391
 1211HOH     H1 3819   1.350   0.819   3.322
 1211HOH     H2 3820   1.334   0.817   3.472
 1212HOH      O 3821   1.195   1.042   1.084
 1212HOH     H1 3822   1.289   1.054   1.092
 1212HOH     H2 3823   1.171   0.984   1.156
 1213HOH      O 3824   3.100   3.255   3.133
 1213HOH     H1 3825   3.118   3.161   3.127
 1213HOH     H2 3826   3.156   3.294   3.065
 1214HOH      O 3827   1.866   1.892   3.150
 1214HOH     H1 3828   1.915   1.815   3.122
 1214HOH     H2 3829   1.931   1.962   3.155
 1215HOH      O 3830   2.119   3.595   3.520
 1215HOH     H1 3831   2.180   3.591   3.446
 1215HOH     H2 3832   2.037   3.628   3.482
 1216HOH      O 3833   0.722   0.170   2.353
 1216HOH     H1 3834   0.679   0.246   2.315
 1216HOH     H2 3835   0.749   0.199   2.440
 1217HOH      O 3836   0.153   1.329   0.386
 1217HOH     H1 3837   0.098   1.280   0.447
 1217HOH     H2 3838   0.230   1.353   0.437
 1218HOH      O 3839   1.443   2.958   1.085
 1218HOH     H1 3840   1.531   2.995   1.077
 1218HOH     H2 3841   1.422   2.969   1.178
 1219HOH      O 3842   3.085   0.592   0.120
 1219HOH     H1 3843   3.126   0.632   0.197
 1219HOH     H2 3844   3.133   0.510   0.109
 1220HOH      O 3845   3.935   3.877   1.187
 1220HOH     H1 3846   3.842   3.894   1.205
 1220HOH     H2 3847   3.958   3.809   1.250
 1221HOH      O 3848   2.336   0.133   1.263
 1221HOH     H1 3849   2.421   0.172   1.285
 1221HOH     H2 3850   2.338   0.124   1.167
 1222HOH      O 3851   0.024   2.895   0.940
 1222HOH     H1 3852   0.066   2.947   1.008
 1222HOH     H2 3853  -0.070   2.911   0.952
 1223HOH      O 3854   1.958   3.197   0.446
 1223HOH     H1 3855   1.863   3.214   0.450
 1223HOH     H2 3856   1.970   3.147   0.366
 1224HOH      O 3857   2.222   1.280   0.444
 1224HOH     H1 3858   2.296   1.305   0.498
 1224HOH     H2 3859   2.259   1.261   0.358
 1225HOH      O 3860   2.947   3.259   4.023
 1225HOH     H1 3861   2.863   3.213   4.017
 1225HOH     H2 3862   2.959   3.296   3.936
 1226HOH      O 3863   0.130   0.255   2.467
 1226HOH     H1 3864   0.211   0.214   2.496
 1226HOH     H2 3865   0.153   0.301   2.387
 1227HOH      O 3866   0.855   3.493   3.206
 1227HOH     H1 3867   0.829   3.443   3.129
 1227HOH     H2 3868   0.931   3.445   3.240
 1228HOH      O 3869   3.653   0.283   0.134
 1228HOH     H1 3870   3.742   0.272   0.099
 1228HOH     H2 3871   3.666   0.328   0.217
 1229HOH      O 3872   1.620   2.733   0.516
 1229HOH     H1 3873   1.629   2.660   0.454
 1229HOH     H2 3874   1.652   2.809   0.468
 1230HOH      O 3875   0.637   0.915   3.336
 1230HOH     H1 3876   0.606   0.850   3.273
 1230HOH     H2 3877   0.673   0.986   3.282
 1231HOH      O 3878   0.824   1.259   1.518
 1231HOH     H1 3879   0.779   1.305   1.447
 1231HOH     H2 3880   0.847   1.329   1.580
 1232HOH      O 3881   0.276   3.811   3.301
 1232HOH     H1 3882   0.239   3.736   3.347
 1232HOH     H2 3883   0.202   3.850   3.255
 1233HOH      O 3884   2.436   3.127   1.231
 1233HOH     H1 3885   2.440   3.222   1.241
 1233HOH     H2 3886   2.412   3.114   1.139
 1234HOH      O 3887   1.889   2.756   2.016
 1234HOH     H1 3888   1.821   2.726   2.077
 1234HOH     H2 3889   1.898   2.850   2.035
 1235HOH      O 3890   3.207   2.660   1.928
 1235HOH     H1 3891   3.184   2.663   2.021
 1235HOH     H2 3892   3.303   2.666   1.927
 1236HOH      O 3893   2.563   3.529   3.520
 1236HOH     H1 3894   2.624   3.532   3.446
 1236HOH     H2 3895   2.537   3.437   3.525
 1237HOH      O 3896   4.012   2.380   2.351
 1237HOH     H1 3897   3.954   2.305   2.365
 1237HOH     H2 3898   4.099   2.347   2.371
 1238HOH      O 3899   1.009   1.083   3.153
 1238HOH     H1 3900   0.960   1.158   3.121
 1238HOH     H2 3901   1.100   1.102   3.129
 1239HOH      O 3902   3.033   3.571   3.752
 1239HOH     H1 3903   3.058   3.573   3.844
 1239HOH     H2 3904   2.943   3.539   3.752
 1240HOH      O 3905   2.640   2.509   0.628
 1240HOH     H1 3906   2.682   2.580   0.581
 1240HOH     H2 3907   2.610   2.449   0.560
 1241HOH      O 3908   0.559   0.117   0.812
 1241HOH     H1 3909   0.653   0.134   0.805
 1241HOH     H2 3910   0.532   0.164   0.891
 1242HOH      O 3911   0.992   2.831   2.085
 1242HOH     H1 3912   1.017   2.770   2.153
 1242HOH     H2 3913   1.071   2.881   2.067
 1243HOH      O 3914   3.573   3.598   2.253
 1243HOH     H1 3915   3.484   3.591   2.218
 1243HOH     H2 3916   3.630   3.580   2.178
 1244HOH      O 3917   1.466   3.155   0.554
 1244HOH     H1 3918   1.422   3.151   0.638
 1244HOH     H2 3919   1.425   3.228   0.508
 1245HOH      O 3920   3.167   0.296   0.740
 1245HOH     H1 3921   3.190   0.243   0.663
 1245HOH     H2 3922   3.232   0.272   0.806
 1246HOH      O 3923   0.499   3.264   1.000
 1246HOH     H1 3924   0.538   3.191   1.049
 1246HOH     H2 3925   0.413   3.276   1.039
 1247HOH      O 3926   1.745   3.894   0.573
 1247HOH     H1 3927   1.688   3.877   0.498
 1247HOH     H2 3928   1.813   3.952   0.540
 1248HOH      O 3929   2.287   3.608   4.006
 1248HOH     H1 3930   2.232   3.687   4.005
 1248HOH     H2 3931   2.227   3.536   4.022
 1249HOH      O 3932   1.566   2.831   3.276
 1249HOH     H1 3933   1.569   2.901   3.341
 1249HOH     H2 3934   1.502   2.862   3.211
 1250HOH      O 3935   3.849   3.589   3.193
 1250HOH     H1 3936   3.886   3.677   3.188
 1250HOH     H2 3937   3.874   3.558   3.280
 1251HOH      O 3938   3.533   1.499   0.455
 1251HOH     H1 3939   3.627   1.486   0.461
 1251HOH     H2 3940   3.496   1.430   0.511
 1252HOH      O 3941   1.786   0.409   1.066
 1252HOH     H1 3942   1.830   0.483   1.108
 1252HOH     H2 3943   1.774   0.437   0.975
 1253HOH      O 3944   1.919   0.982   1.197
 1253HOH     H1 3945   1.888   1.070   1.217
 1253HOH     H2 3946   1.922   0.938   1.282
 1254HOH      O 3947   0.646   1.305   3.079
 1254HOH     H1 3948   0.739   1.328   3.076
 1254HOH     H2 3949   0.600   1.389   3.077
 1255HOH      O 3950   3.278   1.253   2.081
 1255HOH     H1 3951   3.254   1.205   2.002
 1255HOH     H2 3952   3.250   1.343   2.063
 1256HOH      O 3953   0.609   0.080   3.530
 1256HOH     H1 3954   0.697   0.098   3.564
 1256HOH     H2 3955   0.608   0.123   3.445
 1257HOH      O 3956   1.350   3.237   1.321
 1257HOH     H1 3957   1.335   3.191   1.403
 1257HOH     H2 3958   1.337   3.171   1.253
 1258HOH      O 3959   2.107   0.306   1.766
 1258HOH     H1 3960   2.084   0.227   1.814
 1258HOH     H2 3961   2.100   0.281   1.674
 1259HOH      O 3962   2.636   3.178  -0.025
 1259HOH     H1 3963   2.660   3.144   0.061
 1259HOH     H2 3964   2.540   3.172  -0.028
 1260HOH      O 3965   3.090   1.996   0.354
 1260HOH     H1 3966   3.143   2.062   0.309
 1260HOH     H2 3967   3.066   2.037   0.437
 1261HOH      O 3968   3.178   0.334   1.787
 1261HOH     H1 3969   3.154   0.426   1.778
 1261HOH     H2 3970   3.133   0.305   1.866
 1262HOH      O 3971   3.190   3.926   3.268
 1262HOH     H1 3972   3.230   4.004   3.232
 1262HOH     H2 3973   3.252   3.856   3.248
 1263HOH      O 3974   2.434   1.406   0.553
 1263HOH     H1 3975   2.373   1.476   0.575
 1263HOH     H2 3976   2.520   1.447   0.558
 1264HOH      O 3977   3.074   0.663   0.787
 1264HOH     H1 3978   2.988   0.661   0.745
 1264HOH     H2 3979   3.074   0.588   0.847
 1265HOH      O 3980   3.980   3.421   2.915
 1265HOH     H1 3981   3.944   3.459   2.994
 1265HOH     H2 3982   4.049   3.362   2.946
 1266HOH      O 3983   2.928   0.888   0.642
 1266HOH     H1 3984   2.872   0.879   0.565
 1266HOH     H2 3985   2.884   0.834   0.708
 1267HOH      O 3986   3.982   1.578   3.086
 1267HOH     H1 3987   3.940   1.539   3.010
 1267HOH     H2 3988   4.076   1.574   3.067
 1268HOH      O 3989   1.525   1.619   0.037
 1268HOH     H1 3990   1.564   1.685  -0.020
 1268HOH     H2 3991   1.559   1.535   0.005
 1269HOH      O 3992   1.960   0.338   3.056
 1269HOH     H1 3993   1.902   0.393   3.108
 1269HOH     H2 3994   2.044   0.384   3.055
 1270HOH      O 3995   3.404   3.006   1.015
 1270HOH     H1 3996   3.404   2.942   0.945
 1270HOH     H2 3997   3.390   3.090   0.971
 1271HOH      O 3998   1.437   2.290   3.468
 1271HOH     H1 3999   1.471   2.202   3.489
 1271HOH     H2 4000   1.364   2.303   3.529
 1272HOH      O 4001   0.208   0.672   3.855
 1272HOH     H1 4002   0.117   0.648   3.835
 1272HOH     H2 4003   0.255   0.588   3.858
 1273HOH      O 4004   1.084   0.085   2.432
 1273HOH     H1 4005   1.112   0.025   2.363
 1273HOH     H2 4006   1.037   0.155   2.386
 1274HOH      O 4007   0.222   3.081   2.677
 1274HOH     H1 4008   0.148   3.031   2.712
 1274HOH     H2 4009   0.299   3.043   2.719
 1275HOH      O 4010   0.409   0.077   3.974
 1275HOH     H1 4011   0.358   0.140   4.025
 1275HOH     H2 4012   0.497   0.113   3.972
 1276HOH      O 4013   1.965   3.120   2.354
 1276HOH     H1 4014   1.874   3.143   2.371
 1276HOH     H2 4015   1.986   3.052   2.419
 1277HOH      O 4016   1.685   2.995   2.129
 1277HOH     H1 4017   1.629   3.031   2.061
 1277HOH     H2 4018   1.774   3.016   2.101
 1278HOH      O 4019   2.893   0.361   3.601
 1278HOH     H1 4020   2.892   0.417   3.523
 1278HOH     H2 4021   2.882   0.272   3.565
 1279HOH      O 4022   0.993   3.415   3.556
 1279HOH     H1 4023   0.998   3.491   3.498
 1279HOH     H2 4024   1.084   3.384   3.562
 1280HOH      O 4025   0.417   3.240   2.454
 1280HOH     H1 4026   0.329   3.227   2.491
 1280HOH     H2 4027   0.445   3.325   2.488
 1281HOH      O 4028   0.507   3.497   1.336
 1281HOH     H1 4029   0.473   3.433   1.273
 1281HOH     H2 4030   0.488   3.582   1.296
 1282HOH      O 4031   3.546   1.750   0.155
 1282HOH     H1 4032   3.554   1.807   0.078
 1282HOH     H2 4033   3.627   1.765   0.204
 1283HOH      O 4034   0.214   0.443   3.082
 1283HOH     H1 4035   0.294   0.391   3.083
 1283HOH     H2 4036   0.198   0.464   3.174
 1284HOH      O 4037   1.149   1.677   1.348
 1284HOH     H1 4038   1.146   1.606   1.413
 1284HOH     H2 4039   1.114   1.637   1.268
 1285HOH      O 4040   2.313   2.672   2.132
 1285HOH     H1 4041   2.400   2.649   2.098
 1285HOH     H2 4042   2.273   2.722   2.061
 1286HOH      O 4043   1.698   2.246   3.114
 1286HOH     H1 4044   1.768   2.287   3.064
 1286HOH     H2 4045   1.679   2.308   3.185
 1287HOH      O 4046   1.603   2.548   1.687
 1287HOH     H1 4047   1.578   2.549   1.595
 1287HOH     H2 4048   1.542   2.486   1.728
 1288HOH      O 4049   2.322   3.720   2.045
 1288HOH     H1 4050   2.300   3.653   2.111
 1288HOH     H2 4051   2.384   3.677   1.987
 1289HOH      O 4052   3.190   1.516   2.045
 1289HOH     H1 4053   3.162   1.568   1.969
 1289HOH     H2 4054   3.247   1.574   2.094
 1290HOH      O 4055   3.161   3.991   1.487
 1290HOH     H1 4056   3.105   4.069   1.486
 1290HOH     H2 4057   3.194   3.986   1.577
 1291HOH      O 4058   3.060   1.116   0.708
 1291HOH     H1 4059   3.136   1.063   0.731
 1291HOH     H2 4060   3.004   1.057   0.657
 1292HOH      O 4061   0.516   1.210   2.761
 1292HOH     H1 4062   0.442   1.228   2.818
 1292HOH     H2 4063   0.518   1.114   2.754
 1293HOH      O 4064   2.759   3.843   0.414
 1293HOH     H1 4065   2.736   3.760   0.373
 1293HOH     H2 4066   2.777   3.902   0.341
 1294HOH      O 4067   2.815   0.519   1.020
 1294HOH     H1 4068   2.804   0.434   0.977
 1294HOH     H2 4069   2.885   0.506   1.083
 1295HOH      O 4070   2.053   2.967   3.044
 1295HOH     H1 4071   2.109   2.970   3.121
 1295HOH     H2 4072   1.970   2.932   3.077
 1296HOH      O 4073   2.822   2.074   1.407
 1296HOH     H1 4074   2.914   2.094   1.424
 1296HOH     H2 4075   2.781   2.159   1.393
 1297HOH      O 4076   3.470   3.114   0.696
 1297HOH     H1 4077   3.434   3.027   0.681
 1297HOH     H2 4078   3.561   3.098   0.721
 1298HOH      O 4079   3.139   0.756   3.443
 1298HOH     H1 4080   3.118   0.849   3.447
 1298HOH     H2 4081   3.071   0.713   3.494
 1299HOH      O 4082   4.031   3.296   2.147
 1299HOH     H1 4083   3.951   3.324   2.103
 1299HOH     H2 4084   4.003   3.273   2.236
 1300HOH      O 4085   1.194   2.337   0.332
 1300HOH     H1 4086   1.200   2.371   0.421
 1300HOH     H2 4087   1.258   2.265   0.329
 1301HOH      O 4088   3.941   3.476   0.286
 1301HOH     H1 4089   3.917   3.388   0.257
 1301HOH     H2 4090   3.862   3.511   0.326
 1302HOH      O 4091   3.365   2.044   2.793
 1302HOH     H1 4092   3.396   2.014   2.879
 1302HOH     H2 4093   3.409   2.128   2.779
 1303HOH      O 4094   1.757   0.084   3.603
 1303HOH     H1 4095   1.685   0.101   3.663
 1303HOH     H2 4096   1.759  -0.011   3.592
 1304HOH      O 4097   0.550   2.792   2.672
 1304HOH     H1 4098   0.471   2.834   2.706
 1304HOH     H2 4099   0.539   2.793   2.577
 1305HOH      O 4100   1.416   1.378   2.700
 1305HOH     H1 4101   1.383   1.317   2.634
 1305HOH     H2 4102   1.508   1.353   2.711
 1306HOH      O 4103   3.323   0.145   3.163
 1306HOH     H1 4104   3.367   0.216   3.210
 1306HOH     H2 4105   3.305   0.181   3.077
 1307HOH      O 4106   3.978   2.224   0.119
 1307HOH     H1 4107   4.042   2.291   0.143
 1307HOH     H2 4108   3.944   2.192   0.202
 1308HOH      O 4109   2.455   3.368   0.975
 1308HOH     H1 4110   2.447   3.274   0.988
 1308HOH     H2 4111   2.497   3.377   0.889
 1309HOH      O 4112   1.473   2.062   1.985
 1309HOH     H1 4113   1.440   1.973   1.980
 1309HOH     H2 4114   1.424   2.110   1.919
 1310HOH      O 4115   1.907   0.284   2.173
 1310HOH     H1 4116   1.907   0.377   2.150
 1310HOH     H2 4117   1.976   0.276   2.239
 1311HOH      O 4118   0.071   2.696   3.085
 1311HOH     H1 4119   0.018   2.775   3.073
 1311HOH     H2 4120   0.088   2.693   3.179
 1312HOH      O 4121   0.169   3.424   3.828
 1312HOH     H1 4122   0.234   3.381   3.772
 1312HOH     H2 4123   0.103   3.357   3.844
 1313HOH      O 4124   3.919   1.839   3.187
 1313HOH     H1 4125   3.870   1.823   3.107
 1313HOH     H2 4126   3.977   1.763   3.195
 1314HOH      O 4127   2.616   1.128   2.516
 1314HOH     H1 4128   2.673   1.155   2.588
 1314HOH     H2 4129   2.530   1.165   2.538
 1315HOH      O 4130   0.435   3.754   1.741
 1315HOH     H1 4131   0.518   3.707   1.727
 1315HOH     H2 4132   0.457   3.820   1.807
 1316HOH      O 4133   1.521   0.766   3.786
 1316HOH     H1 4134   1.615   0.757   3.799
 1316HOH     H2 4135   1.492   0.680   3.757
 1317HOH      O 4136   2.282   0.461   2.377
 1317HOH     H1 4137   2.360   0.423   2.417
 1317HOH     H2 4138   2.217   0.462   2.447
 1318HOH      O 4139   0.655   1.954   3.948
 1318HOH     H1 4140   0.599   1.973   3.872
 1318HOH     H2 4141   0.721   2.023   3.947
 1319HOH      O 4142   3.672   3.109   3.938
 1319HOH     H1 4143   3.580   3.132   3.949
 1319HOH     H2 4144   3.698   3.076   4.025
 1320HOH      O 4145   1.674   2.990   0.483
 1320HOH     H1 4146   1.599   3.043   0.510
 1320HOH     H2 4147   1.702   3.028   0.400
 1321HOH      O 4148   1.870   0.426   1.821
 1321HOH     H1 4149   1.939   0.365   1.796
 1321HOH     H2 4150   1.900   0.463   1.905
 1322HOH      O 4151   2.171   2.820   1.944
 1322HOH     H1 4152   2.081   2.832   1.975
 1322HOH     H2 4153   2.166   2.834   1.849
 1323HOH      O 4154   3.607   1.101   3.296
 1323HOH     H1 4155   3.529   1.147   3.329
 1323HOH     H2 4156   3.578   1.011   3.281
 1324HOH      O 4157   3.312   2.970   2.411
 1324HOH     H1 4158   3.397   3.009   2.427
 1324HOH     H2 4159   3.254   3.044   2.392
 1325HOH      O 4160   0.021   1.971   2.554
 1325HOH     H1 4161   0.089   1.916   2.592
 1325HOH     H2 4162   0.069   2.030   2.495
 1326HOH      O 4163   0.038   0.699   3.213
 1326HOH     H1 4164   0.079   0.638   3.274
 1326HOH     H2 4165  -0.045   0.656   3.189
 1327HOH      O 4166   2.739   2.339   1.350
 1327HOH     H1 4167   2.778   2.392   1.420
 1327HOH     H2 4168   2.727   2.401   1.278
 1328HOH      O 4169   0.066   3.086   4.011
 1328HOH     H1 4170   0.146   3.112   3.965
 1328HOH     H2 4171   0.087   3.094   4.103
 1329HOH      O 4172   3.203   1.024   2.187
 1329HOH     H1 4173   3.249   1.108   2.182
 1329HOH     H2 4174   3.187   1.011   2.280
 1330HOH      O 4175   2.252   2.583   3.289
 1330HOH     H1 4176   2.286   2.671   3.303
 1330HOH     H2 4177   2.330   2.527   3.286
 1331HOH      O 4178   2.611   0.467   3.096
 1331HOH     H1 4179   2.686   0.493   3.150
 1331HOH     H2 4180   2.565   0.401   3.148
 1332HOH      O 4181   0.702   3.019   1.518
 1332HOH     H1 4182   0.716   2.965   1.596
 1332HOH     H2 4183   0.790   3.036   1.484
 1333HOH      O 4184   3.213   2.750   2.206
 1333HOH     H1 4185   3.248   2.677   2.256
 1333HOH     H2 4186   3.227   2.826   2.262
 1334HOH      O 4187   1.476   1.729   3.006
 1334HOH     H1 4188   1.389   1.732   2.965
 1334HOH     H2 4189   1.536   1.752   2.935
 1335HOH      O 4190   3.770   1.871   2.712
 1335HOH     H1 4191   3.813   1.788   2.693
 1335HOH     H2 4192   3.821   1.908   2.784
 1336HOH      O 4193   2.638   3.571   2.881
 1336HOH     H1 4194   2.643   3.558   2.975
 1336HOH     H2 4195   2.548   3.545   2.858
 1337HOH      O 4196   0.723   1.980   1.669
 1337HOH     H1 4197   0.797   2.034   1.697
 1337HOH     H2 4198   0.655   1.999   1.734
 1338HOH      O 4199   3.745   0.776   0.292
 1338HOH     H1 4200   3.763   0.806   0.381
 1338HOH     H2 4201   3.785   0.844   0.236
 1339HOH      O 4202   2.694   3.654   3.290
 1339HOH     H1 4203   2.626   3.722   3.290
 1339HOH     H2 4204   2.777   3.703   3.293
 1340HOH      O 4205   0.461   3.947   1.951
 1340HOH     H1 4206   0.416   4.027   1.977
 1340HOH     H2 4207   0.435   3.883   2.017
 1341HOH      O 4208   2.666   1.523   3.226
 1341HOH     H1 4209   2.667   1.615   3.199
 1341HOH     H2 4210   2.640   1.475   3.147
 1342HOH      O 4211   3.054   2.095   2.063
 1342HOH     H1 4212   3.102   2.021   2.101
 1342HOH     H2 4213   3.123   2.158   2.040
 1343HOH      O 4214   2.650   3.985   2.013
 1343HOH     H1 4215   2.618   4.073   1.994
 1343HOH     H2 4216   2.589   3.927   1.969
 1344HOH      O 4217   3.626   0.166   1.780
 1344HOH     H1 4218   3.670   0.247   1.753
 1344HOH     H2 4219   3.546   0.163   1.728
 1345HOH      O 4220   2.535   2.468   3.929
 1345HOH     H1 4221   2.461   2.524   3.950
 1345HOH     H2 4222   2.557   2.490   3.838
 1346HOH      O 4223   3.452   0.907   1.932
 1346HOH     H1 4224   3.385   0.966   1.896
 1346HOH     H2 4225   3.483   0.952   2.011
 1347HOH      O 4226   2.617   2.268   3.135
 1347HOH     H1 4227   2.667   2.322   3.075
 1347HOH     H2 4228   2.683   2.218   3.183
 1348HOH      O 4229   0.736   1.673   3.384
 1348HOH     H1 4230   0.753   1.597   3.439
 1348HOH     H2 4231   0.820   1.719   3.380
 1349HOH      O 4232   1.051   2.980   2.919
 1349HOH     H1 4233   1.064   3.071   2.945
 1349HOH     H2 4234   1.112   2.967   2.846
 1350HOH      O 4235   2.683   3.747   3.690
 1350HOH     H1 4236   2.697   3.721   3.781
 1350HOH     H2 4237   2.664   3.665   3.644
 1351HOH      O 4238   0.856   0.946   0.929
 1351HOH     H1 4239   0.865   1.036   0.899
 1351HOH     H2 4240   0.944   0.909   0.919
 1352HOH      O 4241   0.637   1.250   0.722
 1352HOH     H1 4242   0.588   1.210   0.651
 1352HOH     H2 4243   0.569   1.280   0.783
 1353HOH      O 4244   2.302   1.108   3.141
 1353HOH     H1 4245   2.248   1.056   3.081
 1353HOH     H2 4246   2.245   1.181   3.167
 1354HOH      O 4247   1.173   3.428   1.389
 1354HOH     H1 4248   1.249   3.382   1.354
 1354HOH     H2 4249   1.186   3.429   1.484
 1355HOH      O 4250   1.546   2.782   3.770
 1355HOH     H1 4251   1.473   2.756   3.827
 1355HOH     H2 4252   1.508   2.780   3.682
 1356HOH      O 4253   1.499   2.474   1.128
 1356HOH     H1 4254   1.476   2.527   1.204
 1356HOH     H2 4255   1.439   2.503   1.059
 1357HOH      O 4256   0.540   2.062   0.511
 1357HOH     H1 4257   0.633   2.078   0.528
 1357HOH     H2 4258   0.508   2.019   0.590
 1358HOH      O 4259   0.758   3.707   2.434
 1358HOH     H1 4260   0.706   3.634   2.398
 1358HOH     H2 4261   0.696   3.778   2.445
 1359HOH      O 4262   1.362   1.466   1.791
 1359HOH     H1 4263   1.409   1.540   1.754
 1359HOH     H2 4264   1.424   1.426   1.853
 1360HOH      O 4265   2.316   0.937   2.619
 1360HOH     H1 4266   2.366   0.918   2.699
 1360HOH     H2 4267   2.230   0.965   2.651
 1361HOH      O 4268   0.905   0.768   4.024
 1361HOH     H1 4269   0.831   0.823   4.050
 1361HOH     H2 4270   0.879   0.732   3.939
 1362HOH      O 4271   0.406   3.841   2.889
 1362HOH     H1 4272   0.356   3.898   2.947
 1362HOH     H2 4273   0.449   3.778   2.947
 1363HOH      O 4274   1.944   2.058   2.658
 1363HOH     H1 4275   1.985   2.098   2.734
 1363HOH     H2 4276   1.959   1.964   2.669
 1364HOH      O 4277   3.117   0.534   3.811
 1364HOH     H1 4278   3.182   0.561   3.876
 1364HOH     H2 4279   3.168   0.498   3.739
 1365HOH      O 4280   2.794   0.736   0.840
 1365HOH     H1 4281   2.803   0.820   0.886
 1365HOH     H2 4282   2.792   0.671   0.909
 1366HOH      O 4283   0.093   3.775   2.907
 1366HOH     H1 4284   0.081   3.869   2.893
 1366HOH     H2 4285   0.182   3.757   2.878
 1367HOH      O 4286   0.353   1.262   3.634
 1367HOH     H1 4287   0.299   1.194   3.673
 1367HOH     H2 4288   0.374   1.321   3.706
 1368HOH      O 4289   0.081   0.381   3.830
 1368HOH     H1 4290   0.133   0.386   3.910
 1368HOH     H2 4291   0.041   0.294   3.832
 1369HOH      O 4292   1.686   1.272   2.643
 1369HOH     H1 4293   1.672   1.188   2.599
 1369HOH     H2 4294   1.678   1.337   2.573
 1370HOH      O 4295   1.210   1.917   3.478
 1370HOH     H1 4296   1.209   1.950   3.568
 1370HOH     H2 4297   1.303   1.915   3.454
 1371HOH      O 4298   3.677   0.690   3.528
 1371HOH     H1 4299   3.711   0.766   3.481
 1371HOH     H2 4300   3.723   0.615   3.489
 1372HOH      O 4301   1.301   0.507   0.894
 1372HOH     H1 4302   1.374   0.567   0.881
 1372HOH     H2 4303   1.313   0.473   0.983
 1373HOH      O 4304   0.375   2.448   2.801
 1373HOH     H1 4305   0.335   2.425   2.717
 1373HOH     H2 4306   0.409   2.366   2.835
 1374HOH      O 4307   3.181   3.594   3.197
 1374HOH     H1 4308   3.113   3.594   3.129
 1374HOH     H2 4309   3.134   3.568   3.277
 1375HOH      O 4310   1.251   2.980   3.677
 1375HOH     H1 4311   1.281   2.962   3.766
 1375HOH     H2 4312   1.161   2.949   3.675
 1376HOH      O 4313   2.912   2.095   3.496
 1376HOH     H1 4314   2.942   2.153   3.566
 1376HOH     H2 4315   2.837   2.048   3.534
 1377HOH      O 4316   0.442   3.619   3.504
 1377HOH     H1 4317   0.482   3.705   3.498
 1377HOH     H2 4318   0.457   3.579   3.418
 1378HOH      O 4319   2.828   1.560   2.543
 1378HOH     H1 4320   2.828   1.468   2.517
 1378HOH     H2 4321   2.879   1.604   2.474
 1379HOH      O 4322   1.593   2.327   0.898
 1379HOH     H1 4323   1.688   2.321   0.902
 1379HOH     H2 4324   1.567   2.359   0.985
 1380HOH      O 4325   3.813  -0.003   2.889
 1380HOH     H1 4326   3.908   0.010   2.883
 1380HOH     H2 4327   3.781   0.018   2.801
 1381HOH      O 4328   3.274   1.028   3.286
 1381HOH     H1 4329   3.281   0.949   3.234
 1381HOH     H2 4330   3.184   1.058   3.271
 1382HOH      O 4331   2.742   3.031   2.161
 1382HOH     H1 4332   2.703   3.040   2.074
 1382HOH     H2 4333   2.770   3.120   2.184
 1383HOH      O 4334   3.431   4.004   2.953
 1383HOH     H1 4335   3.373   3.986   2.879
 1383HOH     H2 4336   3.470   3.919   2.975
 1384HOH      O 4337   0.926   2.521   2.809
 1384HOH     H1 4338   0.831   2.512   2.801
 1384HOH     H2 4339   0.938   2.585   2.879
 1385HOH      O 4340   0.850   2.055   0.150
 1385HOH     H1 4341   0.770   2.025   0.193
 1385HOH     H2 4342   0.878   2.131   0.202
 1386HOH      O 4343   1.900   3.455   1.026
 1386HOH     H1 4344   1.979   3.433   1.075
 1386HOH     H2 4345   1.848   3.374   1.026
 1387HOH      O 4346   0.723   1.585   2.290
 1387HOH     H1 4347   0.691   1.665   2.247
 1387HOH     H2 4348   0.692   1.514   2.235
 1388HOH      O 4349   3.314   1.687   0.592
 1388HOH     H1 4350   3.220   1.669   0.587
 1388HOH     H2 4351   3.355   1.609   0.554
 1389HOH      O 4352   1.118   2.317   2.485
 1389HOH     H1 4353   1.092   2.363   2.565
 1389HOH     H2 4354   1.199   2.361   2.458
 1390HOH      O 4355   1.141   3.967   3.894
 1390HOH     H1 4356   1.067   4.023   3.919
 1390HOH     H2 4357   1.204   3.979   3.965
 1391HOH      O 4358   1.033   2.276   0.627
 1391HOH     H1 4359   0.987   2.343   0.677
 1391HOH     H2 4360   1.125   2.303   0.631
 1392HOH      O 4361   2.294   0.866   0.589
 1392HOH     H1 4362   2.365   0.923   0.619
 1392HOH     H2 4363   2.327   0.827   0.509
 1393HOH      O 4364   1.384   0.779   4.044
 1393HOH     H1 4365   1.442   0.761   3.970
 1393HOH     H2 4366   1.298   0.794   4.004
 1394HOH      O 4367   1.300   0.121   2.912
 1394HOH     H1 4368   1.212   0.143   2.942
 1394HOH     H2 4369   1.289   0.099   2.820
 1395HOH      O 4370   3.930   0.937   3.932
 1395HOH     H1 4371   3.954   1.020   3.974
 1395HOH     H2 4372   3.932   0.873   4.004
 1396HOH      O 4373   3.401   3.885   2.054
 1396HOH     H1 4374   3.315   3.867   2.094
 1396HOH     H2 4375   3.431   3.799   2.024
 1397HOH      O 4376   0.592   3.011   2.432
 1397HOH     H1 4377   0.522   2.946   2.441
 1397HOH     H2 4378   0.546   3.094   2.422
 1398HOH      O 4379   2.363   2.241   3.955
 1398HOH     H1 4380   2.367   2.240   4.051
 1398HOH     H2 4381   2.399   2.326   3.931
 1399HOH      O 4382   3.635   0.108   1.298
 1399HOH     H1 4383   3.615   0.023   1.258
 1399HOH     H2 4384   3.700   0.146   1.240
 1400HOH      O 4385   2.021   1.365   0.083
 1400HOH     H1 4386   2.107   1.370   0.125
 1400HOH     H2 4387   1.983   1.452   0.096
 1401HOH      O 4388   0.427   3.867   3.796
 1401HOH     H1 4389   0.447   3.874   3.702
 1401HOH     H2 4390   0.413   3.958   3.824
 1402HOH      O 4391   0.983   0.836   0.350
 1402HOH     H1 4392   0.930   0.915   0.342
 1402HOH     H2 4393   1.068   0.859   0.312
 1403HOH      O 4394   3.654   0.432   0.734
 1403HOH     H1 4395   3.649   0.404   0.643
 1403HOH     H2 4396   3.668   0.350   0.783
 1404HOH      O 4397   0.179   0.933   0.449
 1404HOH     H1 4398   0.107   0.926   0.512
 1404HOH     H2 4399   0.254   0.892   0.494
 1405HOH      O 4400   2.377   3.657   1.467
 1405HOH     H1 4401   2.398   3.726   1.403
 1405HOH     H2 4402   2.308   3.695   1.522
 1406HOH      O 4403   2.211   4.009   3.420
 1406HOH     H1 4404   2.191   4.085   3.475
 1406HOH     H2 4405   2.201   3.934   3.479
 1407HOH      O 4406   1.821   2.367   1.735
 1407HOH     H1 4407   1.744   2.422   1.727
 1407HOH     H2 4408   1.789   2.285   1.772
 1408HOH      O 4409   3.508   3.840   0.366
 1408HOH     H1 4410   3.462   3.756   0.360
 1408HOH     H2 4411   3.548   3.839   0.453
 1409HOH      O 4412   3.997   2.799   1.733
 1409HOH     H1 4413   3.935   2.777   1.664
 1409HOH     H2 4414   4.019   2.714   1.773
 1410HOH      O 4415   2.795   2.834   0.688
 1410HOH     H1 4416   2.854   2.759   0.697
 1410HOH     H2 4417   2.748   2.839   0.771
 1411HOH      O 4418   0.460   3.898   3.502
 1411HOH     H1 4419   0.505   3.982   3.511
 1411HOH     H2 4420   0.397   3.911   3.431
 1412HOH      O 4421   2.059   2.407   3.363
 1412HOH     H1 4422   2.117   2.479   3.339
 1412HOH     H2 4423   2.115   2.330   3.362
 1413HOH      O 4424   2.667   1.637   1.481
 1413HOH     H1 4425   2.609   1.628   1.557
 1413HOH     H2 4426   2.607   1.632   1.406
 1414HOH      O 4427   2.034   2.326   0.765
 1414HOH     H1 4428   2.033   2.250   0.706
 1414HOH     H2 4429   2.127   2.338   0.787
 1415HOH      O 4430   0.632   0.217   3.276
 1415HOH     H1 4431   0.542   0.248   3.290
 1415HOH     H2 4432   0.687   0.292   3.298
 1416HOH      O 4433   1.890   3.184   3.169
 1416HOH     H1 4434   1.807   3.154   3.205
 1416HOH     H2 4435   1.880   3.171   3.074
 1417HOH      O 4436   2.562   0.812   3.576
 1417HOH     H1 4437   2.621   0.882   3.550
 1417HOH     H2 4438   2.491   0.815   3.512
 1418HOH      O 4439   2.787   2.814   2.895
 1418HOH     H1 4440   2.866   2.785   2.940
 1418HOH     H2 4441   2.802   2.789   2.803
 1419HOH      O 4442   2.749   1.486   0.010
 1419HOH     H1 4443   2.756   1.392  -0.006
 1419HOH     H2 4444   2.689   1.494   0.084
 1420HOH      O 4445   3.622   2.054   3.452
 1420HOH     H1 4446   3.699   1.999   3.465
 1420HOH     H2 4447   3.638   2.097   3.368
 1421HOH      O 4448   1.021   2.277   1.012
 1421HOH     H1 4449   1.093   2.255   1.071
 1421HOH     H2 4450   0.955   2.316   1.069
 1422HOH      O 4451   4.020   2.084   3.227
 1422HOH     H1 4452   3.977   2.105   3.310
 1422HOH     H2 4453   3.986   1.997   3.204
 1423HOH      O 4454   0.870   1.222   0.885
 1423HOH     H1 4455   0.865   1.293   0.948
 1423HOH     H2 4456   0.791   1.232   0.831
 1424HOH      O 4457   0.390   1.178   1.156
 1424HOH     H1 4458   0.318   1.240   1.167
 1424HOH     H2 4459   0.434   1.207   1.076
 1425HOH      O 4460   1.859   3.900   1.829
 1425HOH     H1 4461   1.894   3.856   1.906
 1425HOH     H2 4462   1.797   3.964   1.865
 1426HOH      O 4463   0.274   2.743   1.410
 1426HOH     H1 4464   0.197   2.788   1.443
 1426HOH     H2 4465   0.287   2.670   1.471
 1427HOH      O 4466   1.903   0.558   2.394
 1427HOH     H1 4467   1.919   0.629   2.333
 1427HOH     H2 4468   1.943   0.587   2.476
 1428HOH      O 4469   0.195   1.877   3.082
 1428HOH     H1 4470   0.157   1.833   3.157
 1428HOH     H2 4471   0.271   1.924   3.117
 1429HOH      O 4472   1.836   0.172   1.620
 1429HOH     H1 4473   1.815   0.149   1.710
 1429HOH     H2 4474   1.922   0.132   1.605
 1430HOH      O 4475   3.146   1.923   3.059
 1430HOH     H1 4476   3.133   1.944   2.967
 1430HOH     H2 4477   3.063   1.887   3.088
 1431HOH      O 4478   1.023   0.208   0.979
 1431HOH     H1 4479   1.084   0.230   0.909
 1431HOH     H2 4480   1.007   0.115   0.968
 1432HOH      O 4481   1.803   2.579   1.013
 1432HOH     H1 4482   1.708   2.579   1.029
 1432HOH     H2 4483   1.821   2.665   0.976
 1433HOH      O 4484   3.125   1.101   2.938
 1433HOH     H1 4485   3.216   1.094   2.968
 1433HOH     H2 4486   3.113   1.025   2.881
 1434HOH      O 4487   1.223   1.895   1.492
 1434HOH     H1 4488   1.155   1.891   1.558
 1434HOH     H2 4489   1.186   1.849   1.416
 1435HOH      O 4490   3.505   0.093   0.488
 1435HOH     H1 4491   3.496   0.012   0.436
 1435HOH     H2 4492   3.501   0.163   0.423
 1436HOH      O 4493   2.570   2.468   2.745
 1436HOH     H1 4494   2.544   2.555   2.715
 1436HOH     H2 4495   2.499   2.410   2.718
 1437HOH      O 4496   3.608   3.837   0.617
 1437HOH     H1 4497   3.696   3.801   0.624
 1437HOH     H2 4498   3.560   3.797   0.690
 1438HOH      O 4499   2.470   2.205   1.753
 1438HOH     H1 4500   2.508   2.118   1.741
 1438HOH     H2 4501   2.376   2.193   1.736
 1439HOH      O 4502   0.894   3.010   3.886
 1439HOH     H1 4503   0.960   2.954   3.846
 1439HOH     H2 4504   0.855   2.956   3.955
 1440HOH      O 4505   3.540   1.893   3.933
 1440HOH     H1 4506   3.504   1.856   3.852
 1440HOH     H2 4507   3.625   1.928   3.908
 1441HOH      O 4508   1.111   2.031   1.222
 1441HOH     H1 4509   1.173   2.031   1.295
 1441HOH     H2 4510   1.026   2.013   1.264
 1442HOH      O 4511   2.528   1.001   0.644
 1442HOH     H1 4512   2.584   1.030   0.572
 1442HOH     H2 4513   2.571   1.035   0.723
 1443HOH      O 4514   2.988   3.717   2.540
 1443HOH     H1 4515   3.044   3.690   2.612
 1443HOH     H2 4516   2.914   3.760   2.582
 1444HOH      O 4517   0.565   3.111   1.299
 1444HOH     H1 4518   0.608   3.082   1.379
 1444HOH     H2 4519   0.608   3.062   1.229
 1445HOH      O 4520   2.076   0.685   2.573
 1445HOH     H1 4521   2.159   0.711   2.613
 1445HOH     H2 4522   2.056   0.600   2.612
 1446HOH      O 4523   3.733   0.807   2.290
 1446HOH     H1 4524   3.679   0.728   2.299
 1446HOH     H2 4525   3.755   0.810   2.197
 1447HOH      O 4526   0.844   0.921   1.946
 1447HOH     H1 4527   0.911   0.961   1.892
 1447HOH     H2 4528   0.761   0.957   1.913
 1448HOH      O 4529   2.812   1.035   2.065
 1448HOH     H1 4530   2.805   1.124   2.029
 1448HOH     H2 4531   2.731   1.024   2.116
 1449HOH      O 4532   2.067   2.059   0.564
 1449HOH     H1 4533   2.042   1.968   0.578
 1449HOH     H2 4534   2.157   2.065   0.594
 1450HOH      O 4535   0.744   2.264   3.384
 1450HOH     H1 4536   0.823   2.218   3.412
 1450HOH     H2 4537   0.690   2.196   3.344
 1451HOH      O 4538   3.960   1.185   0.507
 1451HOH     H1 4539   3.937   1.143   0.424
 1451HOH     H2 4540   3.906   1.140   0.572
 1452HOH      O 4541   2.878   1.881   3.159
 1452HOH     H1 4542   2.818   1.822   3.114
 1452HOH     H2 4543   2.824   1.957   3.182
 1453HOH      O 4544   3.502   3.908   1.687
 1453HOH     H1 4545   3.486   3.841   1.754
 1453HOH     H2 4546   3.451   3.983   1.716
 1454HOH      O 4547   1.987   2.348   4.011
 1454HOH     H1 4548   1.927   2.281   3.979
 1454HOH     H2 4549   1.954   2.430   3.976
 1455HOH      O 4550   3.880   3.417   0.019
 1455HOH     H1 4551   3.828   3.346   0.058
 1455HOH     H2 4552   3.935   3.448   0.091
 1456HOH      O 4553   2.255   1.937   0.210
 1456HOH     H1 4554   2.206   1.872   0.160
 1456HOH     H2 4555   2.192   2.008   0.225
 1457HOH      O 4556   2.266   3.648   3.283
 1457HOH     H1 4557   2.341   3.704   3.265
 1457HOH     H2 4558   2.191   3.695   3.246
 1458HOH      O 4559   0.088   0.615   1.381
 1458HOH     H1 4560   0.070   0.653   1.295
 1458HOH     H2 4561   0.012   0.639   1.434
 1459HOH      O 4562   3.517   2.883   1.668
 1459HOH     H1 4563   3.491   2.803   1.623
 1459HOH     H2 4564   3.477   2.953   1.618
 1460HOH      O 4565   0.239   2.726   0.960
 1460HOH     H1 4566   0.199   2.640   0.952
 1460HOH     H2 4567   0.169   2.787   0.939
 1461HOH      O 4568   0.183   2.822   3.893
 1461HOH     H1 4569   0.150   2.901   3.936
 1461HOH     H2 4570   0.184   2.845   3.800
 1462HOH      O 4571   4.010   1.705   2.788
 1462HOH     H1 4572   3.965   1.621   2.799
 1462HOH     H2 4573   4.090   1.683   2.740
 1463HOH      O 4574   1.770   0.328   0.257
 1463HOH     H1 4575   1.732   0.321   0.345
 1463HOH     H2 4576   1.727   0.403   0.218
 1464HOH      O 4577   1.010   1.067   1.788
 1464HOH     H1 4578   1.059   1.147   1.806
 1464HOH     H2 4579   0.966   1.085   1.705
 1465HOH      O 4580   1.013   3.670   2.274
 1465HOH     H1 4581   0.953   3.629   2.212
 1465HOH     H2 4582   0.956   3.708   2.341
 1466HOH      O 4583   2.071   1.603   3.696
 1466HOH     H1 4584   2.139   1.668   3.712
 1466HOH     H2 4585   2.025   1.635   3.618
 1467HOH      O 4586   1.918   0.896   1.448
 1467HOH     H1 4587   1.935   0.953   1.524
 1467HOH     H2 4588   1.830   0.861   1.464
 1468HOH      O 4589   3.159   0.980   0.490
 1468HOH     H1 4590   3.136   0.915   0.557
 1468HOH     H2 4591   3.119   0.948   0.410
 1469HOH      O 4592   1.042   1.946   3.164
 1469HOH     H1 4593   1.080   2.016   3.216
 1469HOH     H2 4594   1.028   1.875   3.226
 1470HOH      O 4595   2.141   0.188   0.561
 1470HOH     H1 4596   2.205   0.131   0.518
 1470HOH     H2 4597   2.144   0.163   0.653
 1471HOH      O 4598   1.227   2.821   0.968
 1471HOH     H1 4599   1.305   2.873   0.989
 1471HOH     H2 4600   1.198   2.855   0.884
 1472HOH      O 4601   2.588   2.856   0.909
 1472HOH     H1 4602   2.554   2.790   0.848
 1472HOH     H2 4603   2.650   2.808   0.963
 1473HOH      O 4604   3.205   3.873   2.485
 1473HOH     H1 4605   3.199   3.917   2.400
 1473HOH     H2 4606   3.138   3.805   2.481
 1474HOH      O 4607   3.149   1.586   0.966
 1474HOH     H1 4608   3.232   1.628   0.945
 1474HOH     H2 4609   3.110   1.644   1.032
 1475HOH      O 4610   0.869   0.643   1.177
 1475HOH     H1 4611   0.891   0.701   1.250
 1475HOH     H2 4612   0.924   0.673   1.104
 1476HOH      O 4613   1.656   3.638   0.653
 1476HOH     H1 4614   1.710   3.703   0.607
 1476HOH     H2 4615   1.674   3.655   0.746
 1477HOH      O 4616   2.365   3.266   0.045
 1477HOH     H1 4617   2.293   3.306  -0.003
 1477HOH     H2 4618   2.332   3.257   0.134
 1478HOH      O 4619   2.676   1.837   2.196
 1478HOH     H1 4620   2.716   1.917   2.231
 1478HOH     H2 4621   2.751   1.782   2.170
 1479HOH      O 4622   3.089   0.664   2.256
 1479HOH     H1 4623   3.090   0.691   2.164
 1479HOH     H2 4624   3.160   0.600   2.262
 1480HOH      O 4625   1.844   3.672   1.645
 1480HOH     H1 4626   1.797   3.689   1.564
 1480HOH     H2 4627   1.797   3.721   1.712
 1481HOH      O 4628   3.278   0.972   0.764
 1481HOH     H1 4629   3.358   1.005   0.805
 1481HOH     H2 4630   3.293   0.877   0.755
 1482HOH      O 4631   2.506   2.076   3.485
 1482HOH     H1 4632   2.543   2.082   3.573
 1482HOH     H2 4633   2.509   1.982   3.465
 1483HOH      O 4634   3.409   3.640   1.870
 1483HOH     H1 4635   3.400   3.545   1.877
 1483HOH     H2 4636   3.333   3.675   1.916
 1484HOH      O 4637   1.166   1.466   0.842
 1484HOH     H1 4638   1.206   1.527   0.904
 1484HOH     H2 4639   1.223   1.469   0.765
 1485HOH      O 4640   2.184   1.569   1.702
 1485HOH     H1 4641   2.107   1.546   1.651
 1485HOH     H2 4642   2.181   1.664   1.711
 1486HOH      O 4643   1.797   1.389   0.754
 1486HOH     H1 4644   1.757   1.322   0.810
 1486HOH     H2 4645   1.869   1.343   0.710
 1487HOH      O 4646   0.617   2.206   1.543
 1487HOH     H1 4647   0.637   2.204   1.450
 1487HOH     H2 4648   0.586   2.117   1.563
 1488HOH      O 4649   3.374   0.190   1.645
 1488HOH     H1 4650   3.315   0.247   1.694
 1488HOH     H2 4651   3.337   0.188   1.557
 1489HOH      O 4652   1.939   1.781   0.728
 1489HOH     H1 4653   1.883   1.831   0.669
 1489HOH     H2 4654   1.879   1.742   0.791
 1490HOH      O 4655   3.746   3.881   1.769
 1490HOH     H1 4656   3.790   3.961   1.740
 1490HOH     H2 4657   3.656   3.891   1.737
 1491HOH      O 4658   0.568   3.929   1.382
 1491HOH     H1 4659   0.528   3.844   1.363
 1491HOH     H2 4660   0.657   3.923   1.345
 1492HOH      O 4661   3.159   3.737   1.991
 1492HOH     H1 4662   3.081   3.699   1.950
 1492HOH     H2 4663   3.134   3.751   2.082
 1493HOH      O 4664   1.727   3.598   3.656
 1493HOH     H1 4665   1.786   3.550   3.714
 1493HOH     H2 4666   1.732   3.551   3.573
 1494HOH      O 4667   3.178   3.318   3.420
 1494HOH     H1 4668   3.109   3.322   3.486
 1494HOH     H2 4669   3.133   3.296   3.339
 1495HOH      O 4670   3.548   0.214   2.857
 1495HOH     H1 4671   3.601   0.184   2.783
 1495HOH     H2 4672   3.502   0.135   2.886
 1496HOH      O 4673   2.656   2.505   2.160
 1496HOH     H1 4674   2.634   2.593   2.128
 1496HOH     H2 4675   2.609   2.499   2.244
 1497HOH      O 4676   1.208   3.308   0.335
 1497HOH     H1 4677   1.181   3.249   0.265
 1497HOH     H2 4678   1.129   3.359   0.355
 1498HOH      O 4679   1.522   1.791   0.855
 1498HOH     H1 4680   1.472   1.872   0.847
 1498HOH     H2 4681   1.594   1.812   0.914
 1499HOH      O 4682   2.407   2.447   0.809
 1499HOH     H1 4683   2.353   2.398   0.872
 1499HOH     H2 4684   2.493   2.405   0.815
 1500HOH      O 4685   1.859   3.205   1.794
 1500HOH     H1 4686   1.779   3.152   1.792
 1500HOH     H2 4687   1.851   3.258   1.873
 1501HOH      O 4688   3.476   2.580   0.470
 1501HOH     H1 4689   3.437   2.500   0.505
 1501HOH     H2 4690   3.514   2.624   0.546
 1502HOH      O 4691   3.707   1.098   1.476
 1502HOH     H1 4692   3.774   1.071   1.538
 1502HOH     H2 4693   3.753   1.158   1.416
 1503HOH      O 4694   2.807   3.358   0.962
 1503HOH     H1 4695   2.768   3.381   0.878
 1503HOH     H2 4696   2.789   3.265   0.973
 1504HOH      O 4697   3.595   1.962   1.656
 1504HOH     H1 4698   3.531   1.948   1.725
 1504HOH     H2 4699   3.671   2.001   1.700
 1505HOH      O 4700   2.323   2.581   1.386
 1505HOH     H1 4701   2.232   2.586   1.415
 1505HOH     H2 4702   2.369   2.537   1.458
 1506HOH      O 4703   2.121   3.056   1.791
 1506HOH     H1 4704   2.049   3.116   1.774
 1506HOH     H2 4705   2.172   3.055   1.710
 1507HOH      O 4706   1.419   0.500   3.781
 1507HOH     H1 4707   1.443   0.426   3.837
 1507HOH     H2 4708   1.327   0.515   3.801
 1508HOH      O 4709   0.194   1.138   2.179
 1508HOH     H1 4710   0.246   1.070   2.136
 1508HOH     H2 4711   0.226   1.220   2.142
 1509HOH      O 4712   0.081   3.252   0.959
 1509HOH     H1 4713   0.070   3.173   1.012
 1509HOH     H2 4714   0.155   3.233   0.902
 1510HOH      O 4715   1.437   0.329   1.082
 1510HOH     H1 4716   1.429   0.254   1.023
 1510HOH     H2 4717   1.526   0.322   1.117
 1511HOH      O 4718   1.448   1.678   2.238
 1511HOH     H1 4719   1.515   1.623   2.197
 1511HOH     H2 4720   1.464   1.669   2.332
 1512HOH      O 4721   1.971   3.878   2.829
 1512HOH     H1 4722   1.941   3.969   2.836
 1512HOH     H2 4723   2.060   3.879   2.862
 1513HOH      O 4724   3.094   4.047   3.522
 1513HOH     H1 4725   3.171   4.028   3.576
 1513HOH     H2 4726   3.105   3.993   3.444
 1514HOH      O 4727   1.797   0.752   3.982
 1514HOH     H1 4728   1.842   0.788   4.059
 1514HOH     H2 4729   1.794   0.825   3.921
 1515HOH      O 4730   3.875   0.917   2.519
 1515HOH     H1 4731   3.818   0.889   2.448
 1515HOH     H2 4732   3.861   1.012   2.524
 1516HOH      O 4733   1.063   3.935   2.194
 1516HOH     H1 4734   1.012   3.973   2.122
 1516HOH     H2 4735   1.018   3.854   2.215
 1517HOH      O 4736   3.634   0.390   3.560
 1517HOH     H1 4737   3.668   0.345   3.483
 1517HOH     H2 4738   3.708   0.439   3.594
 1518HOH      O 4739   2.802   1.204   3.938
 1518HOH     H1 4740   2.878   1.240   3.891
 1518HOH     H2 4741   2.798   1.113   3.910
 1519HOH      O 4742   1.355   1.655   3.502
 1519HOH     H1 4743   1.385   1.697   3.421
 1519HOH     H2 4744   1.368   1.723   3.569
 1520HOH      O 4745   0.568   1.535   4.003
 1520HOH     H1 4746   0.612   1.497   4.079
 1520HOH     H2 4747   0.616   1.501   3.928
 1521HOH      O 4748   2.109   2.455   2.741
 1521HOH     H1 4749   2.196   2.447   2.700
 1521HOH     H2 4750   2.128   2.470   2.833
 1522HOH      O 4751   3.944   2.940   3.355
 1522HOH     H1 4752   3.983   3.027   3.360
 1522HOH     H2 4753   3.861   2.948   3.403
 1523HOH      O 4754   0.407   3.317   3.045
 1523HOH     H1 4755   0.421   3.337   3.138
 1523HOH     H2 4756   0.443   3.229   3.034
 1524HOH      O 4757   2.119   1.137   0.918
 1524HOH     H1 4758   2.094   1.227   0.939
 1524HOH     H2 4759   2.086   1.123   0.829
 1525HOH      O 4760   0.918   3.382   0.404
 1525HOH     H1 4761   0.867   3.440   0.348
 1525HOH     H2 4762   0.903   3.415   0.493
 1526HOH      O 4763   0.890   2.281   2.337
 1526HOH     H1 4764   0.973   2.268   2.384
 1526HOH     H2 4765   0.843   2.346   2.390
 1527HOH      O 4766   4.001   2.838   1.267
 1527HOH     H1 4767   4.054   2.762   1.242
 1527HOH     H2 4768   3.964   2.813   1.352
 1528HOH      O 4769   0.591   0.324   1.487
 1528HOH     H1 4770   0.527   0.254   1.478
 1528HOH     H2 4771   0.541   0.399   1.521
 1529HOH      O 4772   0.531   2.967   0.324
 1529HOH     H1 4773   0.450   2.972   0.375
 1529HOH     H2 4774   0.504   2.930   0.240
 1530HOH      O 4775   0.897   3.585   0.902
 1530HOH     H1 4776   0.941   3.559   0.983
 1530HOH     H2 4777   0.844   3.662   0.927
 1531HOH      O 4778   2.392   1.751   0.326
 1531HOH     H1 4779   2.375   1.816   0.258
 1531HOH     H2 4780   2.486   1.735   0.321
 1532HOH      O 4781   0.504   2.010   3.277
 1532HOH     H1 4782   0.576   1.975   3.330
 1532HOH     H2 4783   0.451   2.061   3.338
 1533HOH      O 4784   0.953   2.875   0.291
 1533HOH     H1 4785   0.948   2.964   0.256
 1533HOH     H2 4786   0.996   2.824   0.222
 1534HOH      O 4787   1.859   0.020   2.522
 1534HOH     H1 4788   1.846   0.105   2.480
 1534HOH     H2 4789   1.953   0.002   2.511
 1535HOH      O 4790   3.334   2.591   2.433
 1535HOH     H1 4791   3.352   2.508   2.478
 1535HOH     H2 4792   3.411   2.606   2.379
 1536HOH      O 4793   2.232   0.768   1.761
 1536HOH     H1 4794   2.159   0.819   1.727
 1536HOH     H2 4795   2.244   0.697   1.698
 1537HOH      O 4796   3.198   3.141   1.685
 1537HOH     H1 4797   3.239   3.115   1.768
 1537HOH     H2 4798   3.201   3.237   1.686
 1538HOH      O 4799   3.701   0.234   0.925
 1538HOH     H1 4800   3.777   0.259   0.976
 1538HOH     H2 4801   3.704   0.138   0.922
 1539HOH      O 4802   1.385   4.020   3.203
 1539HOH     H1 4803   1.298   3.984   3.186
 1539HOH     H2 4804   1.373   4.074   3.282
 1540HOH      O 4805   3.319   3.458   1.472
 1540HOH     H1 4806   3.233   3.420   1.455
 1540HOH     H2 4807   3.334   3.518   1.399
 1541HOH      O 4808   3.573   2.400   2.960
 1541HOH     H1 4809   3.604   2.478   2.915
 1541HOH     H2 4810   3.596   2.415   3.052
 1542HOH      O 4811   1.242   3.184   0.771
 1542HOH     H1 4812   1.187   3.119   0.727
 1542HOH     H2 4813   1.191   3.212   0.846
 1543HOH      O 4814   1.809   2.068   1.585
 1543HOH     H1 4815   1.713   2.075   1.584
 1543HOH     H2 4816   1.831   2.075   1.678
 1544HOH      O 4817   1.870   0.543   3.525
 1544HOH     H1 4818   1.956   0.502   3.514
 1544HOH     H2 4819   1.822   0.485   3.584
 1545HOH      O 4820   3.333   0.775   2.145
 1545HOH     H1 4821   3.374   0.792   2.060
 1545HOH     H2 4822   3.274   0.849   2.159
 1546HOH      O 4823   2.689   2.239   3.778
 1546HOH     H1 4824   2.668   2.167   3.837
 1546HOH     H2 4825   2.605   2.266   3.741
 1547HOH      O 4826   3.740   1.523   2.621
 1547HOH     H1 4827   3.767   1.584   2.552
 1547HOH     H2 4828   3.696   1.452   2.574
 1548HOH      O 4829   1.168   2.154   3.257
 1548HOH     H1 4830   1.201   2.156   3.167
 1548HOH     H2 4831   1.194   2.238   3.294
 1549HOH      O 4832   2.911   1.242   3.500
 1549HOH     H1 4833   2.924   1.277   3.588
 1549HOH     H2 4834   2.959   1.159   3.499
 1550HOH      O 4835   0.856   1.768   2.655
 1550HOH     H1 4836   0.833   1.787   2.746
 1550HOH     H2 4837   0.853   1.853   2.611
 1551HOH      O 4838   0.631   3.489   2.348
 1551HOH     H1 4839   0.626   3.464   2.440
 1551HOH     H2 4840   0.671   3.414   2.305
 1552HOH      O 4841   1.406   1.612   1.304
 1552HOH     H1 4842   1.315   1.641   1.305
 1552HOH     H2 4843   1.414   1.558   1.226
 1553HOH      O 4844   2.423   1.924   1.766
 1553HOH     H1 4845   2.499   1.903   1.712
 1553HOH     H2 4846   2.454   1.910   1.856
 1554HOH      O 4847   2.941   3.068   1.788
 1554HOH     H1 4848   3.022   3.098   1.745
 1554HOH     H2 4849   2.972   3.006   1.854
 1555HOH      O 4850   1.073   2.735   0.102
 1555HOH     H1 4851   1.108   2.661   0.052
 1555HOH     H2 4852   1.150   2.788   0.123
 1556HOH      O 4853   3.906   1.819   1.439
 1556HOH     H1 4854   3.969   1.812   1.368
 1556HOH     H2 4855   3.880   1.911   1.441
 1557HOH      O 4856   2.641   2.561   3.418
 1557HOH     H1 4857   2.703   2.510   3.367
 1557HOH     H2 4858   2.656   2.651   3.391
 1558HOH      O 4859   2.905   3.980   0.877
 1558HOH     H1 4860   2.992   3.976   0.838
 1558HOH     H2 4861   2.859   3.904   0.841
 1559HOH      O 4862   0.840   2.419   1.731
 1559HOH     H1 4863   0.903   2.457   1.792
 1559HOH     H2 4864   0.780   2.491   1.710
 1560HOH      O 4865   3.571   3.944   3.302
 1560HOH     H1 4866   3.538   4.021   3.256
 1560HOH     H2 4867   3.505   3.877   3.287
 1561HOH      O 4868   2.450   1.255   1.549
 1561HOH     H1 4869   2.365   1.221   1.577
 1561HOH     H2 4870   2.490   1.183   1.501
 1562HOH      O 4871   1.804   0.898   0.969
 1562HOH     H1 4872   1.867   0.837   0.931
 1562HOH     H2 4873   1.847   0.933   1.047
 1563HOH      O 4874   3.501   2.888   0.305
 1563HOH     H1 4875   3.474   2.927   0.222
 1563HOH     H2 4876   3.577   2.834   0.283
 1564HOH      O 4877   0.130   0.090   0.400
 1564HOH     H1 4878   0.127   0.172   0.449
 1564HOH     H2 4879   0.165   0.026   0.462
 1565HOH      O 4880   1.949   0.204   1.126
 1565HOH     H1 4881   2.033   0.249   1.138
 1565HOH     H2 4882   1.890   0.272   1.092
 1566HOH      O 4883   0.370   3.571   0.401
 1566HOH     H1 4884   0.279   3.573   0.431
 1566HOH     H2 4885   0.416   3.521   0.469
 1567HOH      O 4886   1.010   0.644   1.619
 1567HOH     H1 4887   0.923   0.672   1.589
 1567HOH     H2 4888   1.070   0.679   1.553
 1568HOH      O 4889   3.492   1.517   2.849
 1568HOH     H1 4890   3.488   1.427   2.881
 1568HOH     H2 4891   3.400   1.541   2.832
 1569HOH      O 4892   1.282   2.532   0.930
 1569HOH     H1 4893   1.211   2.526   0.994
 1569HOH     H2 4894   1.281   2.624   0.902
 1570HOH      O 4895   2.013   1.783   1.525
 1570HOH     H1 4896   2.099   1.819   1.545
 1570HOH     H2 4897   1.994   1.812   1.436
 1571HOH      O 4898   1.840   1.224   1.200
 1571HOH     H1 4899   1.768   1.267   1.246
 1571HOH     H2 4900   1.860   1.283   1.127
 1572HOH      O 4901   3.626   1.877   0.632
 1572HOH     H1 4902   3.652   1.945   0.694
 1572HOH     H2 4903   3.661   1.796   0.670
 1573HOH      O 4904   0.515   0.431   1.250
 1573HOH     H1 4905   0.541   0.370   1.319
 1573HOH     H2 4906   0.468   0.501   1.297
 1574HOH      O 4907   2.370   2.794   3.494
 1574HOH     H1 4908   2.370   2.886   3.517
 1574HOH     H2 4909   2.314   2.753   3.559
 1575HOH      O 4910   2.316   3.552   0.593
 1575HOH     H1 4911   2.281   3.467   0.566
 1575HOH     H2 4912   2.362   3.585   0.516
 1576HOH      O 4913   1.840   2.692   2.422
 1576HOH     H1 4914   1.758   2.741   2.416
 1576HOH     H2 4915   1.902   2.753   2.462
 1577HOH      O 4916   3.775   0.023   2.350
 1577HOH     H1 4917   3.686   0.014   2.316
 1577HOH     H2 4918   3.798   0.115   2.334
 1578HOH      O 4919   1.295   0.525   0.399
 1578HOH     H1 4920   1.363   0.570   0.350
 1578HOH     H2 4921   1.217   0.577   0.386
 1579HOH      O 4922   0.646   2.502   3.247
 1579HOH     H1 4923   0.550   2.498   3.246
 1579HOH     H2 4924   0.672   2.426   3.300
 1580HOH      O 4925   1.889   0.055   0.428
 1580HOH     H1 4926   1.825   0.126   0.427
 1580HOH     H2 4927   1.973   0.098   0.440
 1581HOH      O 4928   3.503   1.268   3.953
 1581HOH     H1 4929   3.548   1.347   3.982
 1581HOH     H2 4930   3.560   1.230   3.887
 1582HOH      O 4931   2.513   0.074   3.559
 1582HOH     H1 4932   2.486  -0.017   3.546
 1582HOH     H2 4933   2.577   0.071   3.630
 1583HOH      O 4934   0.769   3.817   2.956
 1583HOH     H1 4935   0.681   3.818   2.993
 1583HOH     H2 4936   0.776   3.899   2.907
 1584HOH      O 4937   2.396   1.042   2.041
 1584HOH     H1 4938   2.418   1.067   1.951
 1584HOH     H2 4939   2.318   0.987   2.033
 1585HOH      O 4940   2.537   1.182   2.254
 1585HOH     H1 4941   2.581   1.135   2.325
 1585HOH     H2 4942   2.498   1.114   2.200
 1586HOH      O 4943   3.067   3.128   3.795
 1586HOH     H1 4944   3.001   3.069   3.831
 1586HOH     H2 4945   3.136   3.070   3.764
 1587HOH      O 4946   3.437   0.279   0.978
 1587HOH     H1 4947   3.416   0.206   0.919
 1587HOH     H2 4948   3.528   0.300   0.958
 1588HOH      O 4949   1.631   2.401   0.499
 1588HOH     H1 4950   1.614   2.448   0.581
 1588HOH     H2 4951   1.553   2.349   0.484
 1589HOH      O 4952   1.640   1.090   3.090
 1589HOH     H1 4953   1.696   1.020   3.122
 1589HOH     H2 4954   1.696   1.138   3.028
 1590HOH      O 4955   0.640   1.461   0.519
 1590HOH     H1 4956   0.682   1.406   0.586
 1590HOH     H2 4957   0.658   1.551   0.547
 1591HOH      O 4958   3.946   2.091   3.506
 1591HOH     H1 4959   3.901   2.007   3.507
 1591HOH     H2 4960   4.039   2.069   3.518
 1592HOH      O 4961   1.014   1.577   1.139
 1592HOH     H1 4962   0.932   1.621   1.159
 1592HOH     H2 4963   0.998   1.485   1.159
 1593HOH      O 4964   3.517   0.015   2.292
 1593HOH     H1 4965   3.447  -0.041   2.258
 1593HOH     H2 4966   3.473   0.097   2.314
 1594HOH      O 4967   3.353   1.708   0.855
 1594HOH     H1 4968   3.445   1.695   0.879
 1594HOH     H2 4969   3.354   1.718   0.760
 1595HOH      O 4970   3.728   1.797   3.008
 1595HOH     H1 4971   3.664   1.761   3.069
 1595HOH     H2 4972   3.725   1.738   2.932
 1596HOH      O 4973   1.465   2.577   0.689
 1596HOH     H1 4974   1.462   2.593   0.783
 1596HOH     H2 4975   1.535   2.634   0.657
 1597HOH      O 4976   3.259   2.503   3.860
 1597HOH     H1 4977   3.295   2.415   3.845
 1597HOH     H2 4978   3.321   2.544   3.921
 1598HOH      O 4979   2.556   2.831   0.558
 1598HOH     H1 4980   2.581   2.863   0.471
 1598HOH     H2 4981   2.640   2.820   0.604
 1599HOH      O 4982   0.464   1.574   1.211
 1599HOH     H1 4983   0.397   1.581   1.144
 1599HOH     H2 4984   0.497   1.663   1.222
 1600HOH      O 4985   3.572   3.662   0.821
 1600HOH     H1 4986   3.578   3.574   0.784
 1600HOH     H2 4987   3.626   3.658   0.900
 1601HOH      O 4988   1.934   1.785   1.948
 1601HOH     H1 4989   2.028   1.799   1.940
 1601HOH     H2 4990   1.897   1.874   1.953
 1602HOH      O 4991   1.458   3.388   0.291
 1602HOH     H1 4992   1.444   3.450   0.219
 1602HOH     H2 4993   1.371   3.355   0.312
 1603HOH      O 4994   2.097   2.076   1.038
 1603HOH     H1 4995   2.098   1.998   0.982
 1603HOH     H2 4996   2.165   2.060   1.104
 1604HOH      O 4997   2.479   3.677   0.420
 1604HOH     H1 4998   2.436   3.761   0.401
 1604HOH     H2 4999   2.508   3.645   0.334
 1605HOH      O 5000   0.636   1.429   1.012
 1605HOH     H1 5001   0.667   1.368   1.078
 1605HOH     H2 5002   0.632   1.513   1.057
 1606HOH      O 5003   3.883   4.012   3.490
 1606HOH     H1 5004   3.900   3.938   3.549
 1606HOH     H2 5005   3.903   3.979   3.403
 1607HOH      O 5006   0.532   3.730   0.283
 1607HOH     H1 5007   0.502   3.765   0.199
 1607HOH     H2 5008   0.468   3.662   0.304
 1608HOH      O 5009   2.831   0.855   0.360
 1608HOH     H1 5010   2.837   0.766   0.394
 1608HOH     H2 5011   2.853   0.846   0.267
 1609HOH      O 5012   0.738   1.775   1.481
 1609HOH     H1 5013   0.796   1.720   1.532
 1609HOH     H2 5014   0.709   1.843   1.542
 1610HOH      O 5015   2.329   2.370   2.601
 1610HOH     H1 5016   2.322   2.399   2.510
 1610HOH     H2 5017   2.317   2.275   2.596
 1611HOH      O 5018   1.193   2.613   3.432
 1611HOH     H1 5019   1.148   2.534   3.460
 1611HOH     H2 5020   1.254   2.584   3.364
 1612HOH      O 5021   1.458   1.279   0.869
 1612HOH     H1 5022   1.533   1.222   0.886
 1612HOH     H2 5023   1.459   1.293   0.775
 1613HOH      O 5024   1.711   0.191   2.351
 1613HOH     H1 5025   1.778   0.229   2.294
 1613HOH     H2 5026   1.714   0.097   2.332
 1614HOH      O 5027   2.189   0.616   3.006
 1614HOH     H1 5028   2.099   0.641   2.985
 1614HOH     H2 5029   2.238   0.634   2.926
 1615HOH      O 5030   0.867   0.572   2.617
 1615HOH     H1 5031   0.835   0.650   2.662
 1615HOH     H2 5032   0.955   0.558   2.653
 1616HOH      O 5033   2.643   3.049   2.899
 1616HOH     H1 5034   2.694   2.972   2.874
 1616HOH     H2 5035   2.658   3.112   2.828
 1617HOH      O 5036   0.644   3.002   3.750
 1617HOH     H1 5037   0.594   3.051   3.816
 1617HOH     H2 5038   0.735   3.021   3.770
 1618HOH      O 5039   2.284   3.056   2.055
 1618HOH     H1 5040   2.316   3.115   1.986
 1618HOH     H2 5041   2.245   2.984   2.007
 1619HOH      O 5042   1.053   0.456   3.490
 1619HOH     H1 5043   1.145   0.463   3.464
 1619HOH     H2 5044   1.008   0.519   3.434
 1620HOH      O 5045   0.675   1.515   2.762
 1620HOH     H1 5046   0.760   1.517   2.806
 1620HOH     H2 5047   0.612   1.500   2.833
 1621HOH      O 5048   3.005   0.514   1.190
 1621HOH     H1 5049   3.081   0.571   1.204
 1621HOH     H2 5050   3.040   0.425   1.202
 1622HOH      O 5051   2.951   1.383   2.149
 1622HOH     H1 5052   2.888   1.386   2.078
 1622HOH     H2 5053   3.036   1.381   2.105
 1623HOH      O 5054   2.640   3.801   2.365
 1623HOH     H1 5055   2.572   3.824   2.301
 1623HOH     H2 5056   2.599   3.736   2.422
 1624HOH      O 5057   2.028   2.422   2.467
 1624HOH     H1 5058   2.049   2.421   2.561
 1624HOH     H2 5059   2.086   2.487   2.430
 1625HOH      O 5060   0.455   0.349   3.005
 1625HOH     H1 5061   0.529   0.292   2.984
 1625HOH     H2 5062   0.493   0.417   3.061
 1626HOH      O 5063   3.993   2.477   3.823
 1626HOH     H1 5064   4.083   2.443   3.820
 1626HOH     H2 5065   3.938   2.399   3.820
 1627HOH      O 5066   1.726   3.232   0.128
 1627HOH     H1 5067   1.716   3.137   0.118
 1627HOH     H2 5068   1.638   3.262   0.151
 1628HOH      O 5069   0.066   3.090   0.612
 1628HOH     H1 5070   0.024   3.175   0.629
 1628HOH     H2 5071  -0.001   3.026   0.634
 1629HOH      O 5072   3.905   0.285   2.564
 1629HOH     H1 5073   3.999   0.284   2.547
 1629HOH     H2 5074   3.865   0.277   2.478
 1630HOH      O 5075   3.865   3.709   0.586
 1630HOH     H1 5076   3.937   3.675   0.533
 1630HOH     H2 5077   3.897   3.794   0.616
 1631HOH      O 5078   0.983   2.444   1.365
 1631HOH     H1 5079   0.940   2.361   1.384
 1631HOH     H2 5080   0.961   2.500   1.439
 1632HOH      O 5081   2.060   2.588   1.149
 1632HOH     H1 5082   1.993   2.652   1.127
 1632HOH     H2 5083   2.012   2.508   1.169
 1633HOH      O 5084   0.212   2.806   0.193
 1633HOH     H1 5085   0.223   2.881   0.252
 1633HOH     H2 5086   0.117   2.801   0.178
 1634HOH      O 5087   2.444   3.043   2.270
 1634HOH     H1 5088   2.399   3.031   2.187
 1634HOH     H2 5089   2.535   3.019   2.252
 1635HOH      O 5090   4.017   0.558   0.853
 1635HOH     H1 5091   4.087   0.582   0.792
 1635HOH     H2 5092   3.941   0.607   0.822
 1636HOH      O 5093   1.671   1.041   2.164
 1636HOH     H1 5094   1.609   1.005   2.101
 1636HOH     H2 5095   1.696   1.126   2.127
 1637HOH      O 5096   2.141   1.361   1.388
 1637HOH     H1 5097   2.078   1.427   1.417
 1637HOH     H2 5098   2.225   1.406   1.387
 1638HOH      O 5099   2.711   0.143   2.246
 1638HOH     H1 5100   2.642   0.084   2.216
 1638HOH     H2 5101   2.703   0.220   2.189
 1639HOH      O 5102   3.265   1.182   4.044
 1639HOH     H1 5103   3.261   1.148   3.955
 1639HOH     H2 5104   3.351   1.224   4.050
 1640HOH      O 5105   2.757   2.811   2.360
 1640HOH     H1 5106   2.687   2.828   2.297
 1640HOH     H2 5107   2.787   2.897   2.387
 1641HOH      O 5108   3.154   1.841   3.603
 1641HOH     H1 5109   3.239   1.865   3.566
 1641HOH     H2 5110   3.096   1.834   3.528
 1642HOH      O 5111   2.657   1.329   1.718
 1642HOH     H1 5112   2.724   1.277   1.674
 1642HOH     H2 5113   2.579   1.320   1.662
 1643HOH      O 5114   3.082   0.261   1.530
 1643HOH     H1 5115   3.126   0.327   1.477
 1643HOH     H2 5116   3.109   0.280   1.619
 1644HOH      O 5117   3.881   0.491   3.489
 1644HOH     H1 5118   3.955   0.542   3.523
 1644HOH     H2 5119   3.914   0.401   3.484
 1645HOH      O 5120   1.164   1.924   0.983
 1645HOH     H1 5121   1.087   1.882   0.947
 1645HOH     H2 5122   1.134   1.965   1.064
 1646HOH      O 5123   1.235   3.416   2.741
 1646HOH     H1 5124   1.152   3.368   2.735
 1646HOH     H2 5125   1.225   3.469   2.820
 1647HOH      O 5126   2.957   2.602   1.137
 1647HOH     H1 5127   2.919   2.527   1.183
 1647HOH     H2 5128   3.025   2.634   1.196
 1648HOH      O 5129   2.047   2.915   2.507
 1648HOH     H1 5130   2.040   2.912   2.602
 1648HOH     H2 5131   2.141   2.914   2.489
 1649HOH      O 5132   2.244   1.180   2.351
 1649HOH     H1 5133   2.335   1.207   2.346
 1649HOH     H2 5134   2.201   1.226   2.278
 1650HOH      O 5135   0.587   2.531   0.064
 1650HOH     H1 5136   0.547   2.448   0.090
 1650HOH     H2 5137   0.565   2.592   0.134
 1651HOH      O 5138   1.917   2.602   0.643
 1651HOH     H1 5139   1.967   2.542   0.699
 1651HOH     H2 5140   1.849   2.547   0.604
 1652HOH      O 5141   0.555   2.563   3.607
 1652HOH     H1 5142   0.476   2.583   3.556
 1652HOH     H2 5143   0.546   2.616   3.686
 1653HOH      O 5144   1.516   0.044   2.670
 1653HOH     H1 5145   1.589  -0.018   2.665
 1653HOH     H2 5146   1.549   0.123   2.628
 1654HOH      O 5147   0.825   2.822   2.699
 1654HOH     H1 5148   0.737   2.854   2.680
 1654HOH     H2 5149   0.811   2.749   2.759
 1655HOH      O 5150   2.679   0.694   1.378
 1655HOH     H1 5151   2.597   0.691   1.428
 1655HOH     H2 5152   2.654   0.671   1.289
 1656HOH      O 5153   2.672   0.320   4.015
 1656HOH     H1 5154   2.748   0.332   3.958
 1656HOH     H2 5155   2.611   0.267   3.964
 1657HOH      O 5156   3.769   2.048   2.961
 1657HOH     H1 5157   3.864   2.056   2.952
 1657HOH     H2 5158   3.753   1.955   2.975
 1658HOH      O 5159   2.694   0.996   3.370
 1658HOH     H1 5160   2.606   0.960   3.357
 1658HOH     H2 5161   2.680   1.090   3.372
 1659HOH      O 5162   0.448   0.345   0.413
 1659HOH     H1 5163   0.485   0.339   0.325
 1659HOH     H2 5164   0.519   0.318   0.471
 1660HOH      O 5165   2.220   3.304   0.322
 1660HOH     H1 5166   2.237   3.298   0.416
 1660HOH     H2 5167   2.195   3.216   0.296
 1661HOH      O 5168   3.734   3.907   0.175
 1661HOH     H1 5169   3.656   3.912   0.230
 1661HOH     H2 5170   3.706   3.943   0.091
 1662HOH      O 5171   3.319   2.499   3.254
 1662HOH     H1 5172   3.391   2.562   3.252
 1662HOH     H2 5173   3.360   2.417   3.284
 1663HOH      O 5174   1.711   3.729   0.141
 1663HOH     H1 5175   1.786   3.777   0.177
 1663HOH     H2 5176   1.750   3.651   0.102
 1664HOH      O 5177   3.197   3.902   3.917
 1664HOH     H1 5178   3.247   3.943   3.846
 1664HOH     H2 5179   3.249   3.919   3.996
 1665HOH      O 5180   1.440   3.549   2.319
 1665HOH     H1 5181   1.395   3.578   2.240
 1665HOH     H2 5182   1.450   3.454   2.308
 1666HOH      O 5183   3.796   1.682   2.426
 1666HOH     H1 5184   3.740   1.673   2.349
 1666HOH     H2 5185   3.885   1.670   2.392
 1667HOH      O 5186   1.941   0.788   0.203
 1667HOH     H1 5187   2.030   0.754   0.190
 1667HOH     H2 5188   1.953   0.869   0.252
 1668HOH      O 5189   3.579   2.129   3.751
 1668HOH     H1 5190   3.635   2.091   3.684
 1668HOH     H2 5191   3.635   2.190   3.798
 1669HOH      O 5192   0.299   3.097   1.316
 1669HOH     H1 5193   0.391   3.078   1.336
 1669HOH     H2 5194   0.250   3.049   1.382
 1670HOH      O 5195   0.778   2.823   1.715
 1670HOH     H1 5196   0.725   2.745   1.697
 1670HOH     H2 5197   0.747   2.854   1.801
 1671HOH      O 5198   0.107   3.455   2.408
 1671HOH     H1 5199   0.159   3.480   2.484
 1671HOH     H2 5200   0.104   3.360   2.411
 1672HOH      O 5201   0.142   0.040   0.691
 1672HOH     H1 5202   0.097   0.113   0.734
 1672HOH     H2 5203   0.222   0.078   0.656
 1673HOH      O 5204   2.763   3.581   0.309
 1673HOH     H1 5205   2.699   3.525   0.266
 1673HOH     H2 5206   2.836   3.586   0.247
 1674HOH      O 5207   2.739   1.881   3.556
 1674HOH     H1 5208   2.769   1.843   3.639
 1674HOH     H2 5209   2.657   1.837   3.537
 1675HOH      O 5210   0.330   3.289   3.652
 1675HOH     H1 5211   0.411   3.284   3.601
 1675HOH     H2 5212   0.272   3.225   3.611
 1676HOH      O 5213   0.966   3.481   1.176
 1676HOH     H1 5214   1.029   3.540   1.218
 1676HOH     H2 5215   0.888   3.486   1.232
 1677HOH      O 5216   1.127   3.310   1.019
 1677HOH     H1 5217   1.076   3.388   1.038
 1677HOH     H2 5218   1.097   3.244   1.082
 1678HOH      O 5219   0.507   2.022   3.744
 1678HOH     H1 5220   0.508   2.110   3.708
 1678HOH     H2 5221   0.420   2.012   3.782
 1679HOH      O 5222   3.180   0.046   0.240
 1679HOH     H1 5223   3.248   0.011   0.183
 1679HOH     H2 5224   3.131  -0.031   0.270
 1680HOH      O 5225   2.006   2.365   3.627
 1680HOH     H1 5226   2.093   2.383   3.662
 1680HOH     H2 5227   2.018   2.357   3.533
 1681HOH      O 5228   0.732   3.991   3.274
 1681HOH     H1 5229   0.692   4.074   3.247
 1681HOH     H2 5230   0.675   3.924   3.236
 1682HOH      O 5231   1.717   2.995   2.990
 1682HOH     H1 5232   1.638   2.944   3.007
 1682HOH     H2 5233   1.691   3.086   3.005
 1683HOH      O 5234   3.524   3.204   0.294
 1683HOH     H1 5235   3.473   3.252   0.229
 1683HOH     H2 5236   3.517   3.112   0.266
 1684HOH      O 5237   3.227   0.984   2.450
 1684HOH     H1 5238   3.276   0.922   2.503
 1684HOH     H2 5239   3.160   1.018   2.509
 1685HOH      O 5240   1.394   0.941   0.498
 1685HOH     H1 5241   1.457   0.880   0.535
 1685HOH     H2 5242   1.387   0.916   0.406
 1686HOH      O 5243   1.138   0.215   2.683
 1686HOH     H1 5244   1.179   0.299   2.666
 1686HOH     H2 5245   1.143   0.169   2.599
 1687HOH      O 5246   0.557   2.293   2.622
 1687HOH     H1 5247   0.610   2.363   2.583
 1687HOH     H2 5248   0.621   2.229   2.652
 1688HOH      O 5249   0.084   3.230   1.655
 1688HOH     H1 5250   0.050   3.302   1.602
 1688HOH     H2 5251   0.008   3.198   1.704
 1689HOH      O 5252   1.211   0.924   0.224
 1689HOH     H1 5253   1.192   0.933   0.130
 1689HOH     H2 5254   1.303   0.896   0.227
 1690HOH      O 5255   3.167  -0.017   1.156
 1690HOH     H1 5256   3.242   0.041   1.153
 1690HOH     H2 5257   3.117   0.011   1.233
 1691HOH      O 5258   2.486   0.465   0.321
 1691HOH     H1 5259   2.419   0.425   0.265
 1691HOH     H2 5260   2.510   0.396   0.383
 1692HOH      O 5261   1.734   0.619   0.305
 1692HOH     H1 5262   1.760   0.585   0.390
 1692HOH     H2 5263   1.810   0.670   0.275
 1693HOH      O 5264   3.169   3.628   4.014
 1693HOH     H1 5265   3.155   3.705   3.960
 1693HOH     H2 5266   3.263   3.612   4.008
 1694HOH      O 5267   1.506   1.243   1.866
 1694HOH     H1 5268   1.434   1.181   1.862
 1694HOH     H2 5269   1.584   1.189   1.881
 1695HOH      O 5270   2.178   0.339   1.192
 1695HOH     H1 5271   2.239   0.395   1.144
 1695HOH     H2 5272   2.226   0.258   1.207
 1696HOH      O 5273   1.580   2.140   4.057
 1696HOH     H1 5274   1.519   2.110   3.989
 1696HOH     H2 5275   1.648   2.187   4.008
 1697HOH      O 5276   0.474   3.429   1.754
 1697HOH     H1 5277   0.469   3.380   1.672
 1697HOH     H2 5278   0.389   3.416   1.795
 1698HOH      O 5279   2.408   3.593   1.776
 1698HOH     H1 5280   2.481   3.582   1.715
 1698HOH     H2 5281   2.333   3.612   1.721
 1699HOH      O 5282   3.795   2.791   1.536
 1699HOH     H1 5283   3.738   2.764   1.464
 1699HOH     H2 5284   3.783   2.886   1.542
 1700HOH      O 5285   1.396   3.988   0.681
 1700HOH     H1 5286   1.424   4.029   0.599
 1700HOH     H2 5287   1.341   3.914   0.653
 1701HOH      O 5288   2.169   2.310   1.376
 1701HOH     H1 5289   2.076   2.307   1.354
 1701HOH     H2 5290   2.174   2.370   1.450
 1702HOH      O 5291   1.663   1.943   1.042
 1702HOH     H1 5292   1.648   1.886   1.117
 1702HOH     H2 5293   1.599   2.014   1.052
 1703HOH      O 5294   0.289   3.343   1.182
 1703HOH     H1 5295   0.202   3.379   1.164
 1703HOH     H2 5296   0.271   3.260   1.227
 1704HOH      O 5297   0.553   3.169   3.495
 1704HOH     H1 5298   0.647   3.186   3.508
 1704HOH     H2 5299   0.547   3.074   3.484
 1705HOH      O 5300   3.152   0.380   0.401
 1705HOH     H1 5301   3.172   0.350   0.312
 1705HOH     H2 5302   3.124   0.301   0.447
 1706HOH      O 5303   1.316   2.263   0.891
 1706HOH     H1 5304   1.390   2.321   0.876
 1706HOH     H2 5305   1.255   2.316   0.943
 1707HOH      O 5306   1.181   0.966   0.839
 1707HOH     H1 5307   1.120   1.035   0.812
 1707HOH     H2 5308   1.205   0.988   0.929
 1708HOH      O 5309   2.521   2.748   4.000
 1708HOH     H1 5310   2.606   2.735   3.957
 1708HOH     H2 5311   2.529   2.701   4.083
 1709HOH      O 5312   3.214   0.340   1.188
 1709HOH     H1 5313   3.259   0.269   1.235
 1709HOH     H2 5314   3.272   0.359   1.114
 1710HOH      O 5315   3.613   2.188   2.796
 1710HOH     H1 5316   3.664   2.135   2.857
 1710HOH     H2 5317   3.616   2.277   2.832
 1711HOH      O 5318   1.121   2.379   1.931
 1711HOH     H1 5319   1.121   2.302   1.987
 1711HOH     H2 5320   1.054   2.436   1.969
 1712HOH      O 5321   3.239   2.967   1.483
 1712HOH     H1 5322   3.170   2.903   1.502
 1712HOH     H2 5323   3.227   3.036   1.548
 1713HOH      O 5324   2.191   1.518   3.300
 1713HOH     H1 5325   2.118   1.558   3.348
 1713HOH     H2 5326   2.233   1.462   3.365
 1714HOH      O 5327   2.780   3.705   1.915
 1714HOH     H1 5328   2.700   3.738   1.874
 1714HOH     H2 5329   2.787   3.753   1.998
 1715HOH      O 5330   1.107   0.277   3.764
 1715HOH     H1 5331   1.077   0.204   3.710
 1715HOH     H2 5332   1.165   0.327   3.707
 1716HOH      O 5333   0.787   0.739   1.523
 1716HOH     H1 5334   0.741   0.739   1.607
 1716HOH     H2 5335   0.717   0.736   1.457
 1717HOH      O 5336   1.667   0.799   1.442
 1717HOH     H1 5337   1.615   0.793   1.523
 1717HOH     H2 5338   1.606   0.773   1.373
 1718HOH      O 5339   1.562   1.142   0.562
 1718HOH     H1 5340   1.510   1.202   0.508
 1718HOH     H2 5341   1.503   1.070   0.581
 1719HOH      O 5342   1.770   0.966   3.808
 1719HOH     H1 5343   1.778   1.061   3.812
 1719HOH     H2 5344   1.773   0.946   3.715
 1720HOH      O 5345   0.522   3.250   1.559
 1720HOH     H1 5346   0.580   3.175   1.577
 1720HOH     H2 5347   0.496   3.239   1.468
 1721HOH      O 5348   0.131   2.464   0.552
 1721HOH     H1 5349   0.078   2.444   0.629
 1721HOH     H2 5350   0.220   2.439   0.577
 1722HOH      O 5351   2.522   3.359   2.358
 1722HOH     H1 5352   2.505   3.265   2.363
 1722HOH     H2 5353   2.462   3.391   2.291
 1723HOH      O 5354   3.933   0.042   1.611
 1723HOH     H1 5355   3.956   0.098   1.538
 1723HOH     H2 5356   3.940  -0.047   1.577
 1724HOH      O 5357   1.364   2.182   1.767
 1724HOH     H1 5358   1.285   2.166   1.715
 1724HOH     H2 5359   1.372   2.277   1.770
 1725HOH      O 5360   1.508   0.623   1.255
 1725HOH     H1 5361   1.535   0.617   1.164
 1725HOH     H2 5362   1.428   0.571   1.260
 1726HOH      O 5363   1.434   0.891   3.163
 1726HOH     H1 5364   1.491   0.955   3.120
 1726HOH     H2 5365   1.461   0.807   3.128
 1727HOH      O 5366   0.808   2.848   0.512
 1727HOH     H1 5367   0.856   2.866   0.431
 1727HOH     H2 5368   0.717   2.871   0.492
 1728HOH      O 5369   0.156   2.002   0.611
 1728HOH     H1 5370   0.246   2.006   0.644
 1728HOH     H2 5371   0.163   2.029   0.519
 1729HOH      O 5372   1.828   2.512   2.722
 1729HOH     H1 5373   1.923   2.514   2.727
 1729HOH     H2 5374   1.799   2.581   2.782
 1730HOH      O 5375   3.625   3.423   2.832
 1730HOH     H1 5376   3.682   3.499   2.843
 1730HOH     H2 5377   3.660   3.377   2.756
 1731HOH      O 5378   3.704   2.837   2.439
 1731HOH     H1 5379   3.724   2.925   2.470
 1731HOH     H2 5380   3.790   2.796   2.426
 1732HOH      O 5381   1.109   0.300   1.544
 1732HOH     H1 5382   1.085   0.392   1.548
 1732HOH     H2 5383   1.189   0.298   1.491
 1733HOH      O 5384   2.478   3.403   1.255
 1733HOH     H1 5385   2.450   3.485   1.296
 1733HOH     H2 5386   2.573   3.412   1.246
 1734HOH      O 5387   1.526   0.139   3.752
 1734HOH     H1 5388   1.464   0.066   3.743
 1734HOH     H2 5389   1.485   0.198   3.815
 1735HOH      O 5390   1.044   3.809   1.850
 1735HOH     H1 5391   1.098   3.866   1.905
 1735HOH     H2 5392   0.954   3.830   1.875
 1736HOH      O 5393   2.301   1.249   0.125
 1736HOH     H1 5394   2.281   1.333   0.166
 1736HOH     H2 5395   2.396   1.245   0.122
 1737HOH      O 5396   2.813   0.128   0.136
 1737HOH     H1 5397   2.775   0.200   0.086
 1737HOH     H2 5398   2.819   0.162   0.225
 1738HOH      O 5399   2.724   2.524   0.883
 1738HOH     H1 5400   2.816   2.499   0.888
 1738HOH     H2 5401   2.697   2.498   0.795
 1739HOH      O 5402   1.707   2.709   0.199
 1739HOH     H1 5403   1.660   2.636   0.158
 1739HOH     H2 5404   1.799   2.694   0.175
 1740HOH      O 5405   1.579   3.392   1.893
 1740HOH     H1 5406   1.601   3.304   1.924
 1740HOH     H2 5407   1.577   3.383   1.797
 1741HOH      O 5408   2.528   3.384   0.245
 1741HOH     H1 5409   2.508   3.337   0.164
 1741HOH     H2 5410   2.481   3.467   0.238
 1742HOH      O 5411   3.808   2.640   3.094
 1742HOH     H1 5412   3.901   2.616   3.090
 1742HOH     H2 5413   3.777   2.630   3.004
 1743HOH      O 5414   3.455   1.065   0.261
 1743HOH     H1 5415   3.438   1.148   0.216
 1743HOH     H2 5416   3.458   1.089   0.354
 1744HOH      O 5417   0.540   0.565   3.142
 1744HOH     H1 5418   0.479   0.610   3.201
 1744HOH     H2 5419   0.599   0.634   3.111
 1745HOH      O 5420   1.113   3.697   1.326
 1745HOH     H1 5421   1.170   3.629   1.360
 1745HOH     H2 5422   1.115   3.766   1.393
 1746HOH      O 5423   1.619   2.885   1.353
 1746HOH     H1 5424   1.676   2.962   1.352
 1746HOH     H2 5425   1.678   2.812   1.332
 1747HOH      O 5426   3.812   1.005   1.700
 1747HOH     H1 5427   3.793   1.036   1.789
 1747HOH     H2 5428   3.765   0.922   1.693
 1748HOH      O 5429   0.915   2.153   1.782
 1748HOH     H1 5430   0.889   2.245   1.783
 1748HOH     H2 5431   0.969   2.143   1.860
 1749HOH      O 5432   2.311   3.347   1.543
 1749HOH     H1 5433   2.312   3.434   1.502
 1749HOH     H2 5434   2.218   3.322   1.544
 1750HOH      O 5435   1.700   0.384   3.663
 1750HOH     H1 5436   1.674   0.408   3.574
 1750HOH     H2 5437   1.648   0.306   3.683
 1751HOH      O 5438   1.233   2.464   0.596
 1751HOH     H1 5439   1.177   2.502   0.663
 1751HOH     H2 5440   1.315   2.513   0.603
 1752HOH      O 5441   0.833   3.055   2.057
 1752HOH     H1 5442   0.744   3.021   2.063
 1752HOH     H2 5443   0.889   2.977   2.066
 1753HOH      O 5444   2.451   1.634   3.825
 1753HOH     H1 5445   2.545   1.641   3.810
 1753HOH     H2 5446   2.430   1.543   3.805
 1754HOH      O 5447   2.756   0.980   1.441
 1754HOH     H1 5448   2.762   0.921   1.366
 1754HOH     H2 5449   2.846   0.990   1.472
 1755HOH      O 5450   1.048   2.150   2.068
 1755HOH     H1 5451   0.982   2.174   2.132
 1755HOH     H2 5452   1.118   2.110   2.120
 1756HOH      O 5453   2.881   0.389   3.865
 1756HOH     H1 5454   2.904   0.393   3.772
 1756HOH     H2 5455   2.965   0.380   3.909
 1757HOH      O 5456   1.355   2.206   1.354
 1757HOH     H1 5457   1.306   2.285   1.330
 1757HOH     H2 5458   1.303   2.167   1.424
 1758HOH      O 5459   2.995   0.398   3.138
 1758HOH     H1 5460   2.956   0.340   3.073
 1758HOH     H2 5461   2.958   0.484   3.119
 1759HOH      O 5462   2.654   3.014   1.330
 1759HOH     H1 5463   2.642   2.919   1.319
 1759HOH     H2 5464   2.568   3.052   1.314
 1760HOH      O 5465   2.742   0.393   1.675
 1760HOH     H1 5466   2.769   0.400   1.583
 1760HOH     H2 5467   2.699   0.477   1.694
 1761HOH      O 5468   2.427   3.814   3.548
 1761HOH     H1 5469   2.489   3.753   3.589
 1761HOH     H2 5470   2.346   3.803   3.598
 1762HOH      O 5471   3.726   3.553   0.431
 1762HOH     H1 5472   3.666   3.500   0.483
 1762HOH     H2 5473   3.763   3.616   0.493
 1763HOH      O 5474   1.918   3.784   0.745
 1763HOH     H1 5475   1.855   3.839   0.698
 1763HOH     H2 5476   1.930   3.827   0.829
 1764HOH      O 5477   3.088   0.135   0.506
 1764HOH     H1 5478   3.025   0.073   0.542
 1764HOH     H2 5479   3.112   0.099   0.420
 1765HOH      O 5480   3.266   2.374   0.536
 1765HOH     H1 5481   3.222   2.289   0.538
 1765HOH     H2 5482   3.197   2.438   0.552
 1766HOH      O 5483   0.063   1.106   3.340
 1766HOH     H1 5484   0.158   1.104   3.350
 1766HOH     H2 5485   0.048   1.158   3.261
 1767HOH      O 5486   2.149   3.635   2.982
 1767HOH     H1 5487   2.162   3.567   3.048
 1767HOH     H2 5488   2.054   3.637   2.967
 1768HOH      O 5489   2.612   3.211   2.668
 1768HOH     H1 5490   2.555   3.238   2.740
 1768HOH     H2 5491   2.674   3.283   2.658
 1769HOH      O 5492   2.344   3.896   2.686
 1769HOH     H1 5493   2.318   3.909   2.777
 1769HOH     H2 5494   2.425   3.946   2.677
 1770HOH      O 5495   0.053   0.857   2.335
 1770HOH     H1 5496   0.030   0.799   2.408
 1770HOH     H2 5497   0.053   0.799   2.258
 1771HOH      O 5498   2.392   1.192   0.813
 1771HOH     H1 5499   2.389   1.144   0.730
 1771HOH     H2 5500   2.453   1.263   0.797
 1772HOH      O 5501   3.933   0.098   3.790
 1772HOH     H1 5502   3.872   0.144   3.848
 1772HOH     H2 5503   3.891   0.014   3.773
 1773HOH      O 5504   2.887   2.602   2.076
 1773HOH     H1 5505   2.804   2.570   2.111
 1773HOH     H2 5506   2.871   2.612   1.983
 1774HOH      O 5507   1.275   1.970   0.371
 1774HOH     H1 5508   1.224   1.984   0.291
 1774HOH     H2 5509   1.353   2.024   0.359
 1775HOH      O 5510   3.701   2.091   0.146
 1775HOH     H1 5511   3.671   2.034   0.217
 1775HOH     H2 5512   3.796   2.080   0.146
 1776HOH      O 5513   1.921   2.460   1.987
 1776HOH     H1 5514   1.915   2.555   1.980
 1776HOH     H2 5515   1.905   2.428   1.899
 1777HOH      O 5516   0.165   1.993   3.569
 1777HOH     H1 5517   0.220   2.038   3.505
 1777HOH     H2 5518   0.202   2.018   3.654
 1778HOH      O 5519   1.092   1.729   4.021
 1778HOH     H1 5520   1.130   1.641   4.031
 1778HOH     H2 5521   0.998   1.716   4.030
 1779HOH      O 5522   3.360   1.692   2.180
 1779HOH     H1 5523   3.367   1.681   2.275
 1779HOH     H2 5524   3.450   1.688   2.148
 1780HOH      O 5525   0.736   3.145   2.679
 1780HOH     H1 5526   0.734   3.111   2.590
 1780HOH     H2 5527   0.784   3.228   2.673
 1781HOH      O 5528   0.178   3.482   3.454
 1781HOH     H1 5529   0.232   3.470   3.532
 1781HOH     H2 5530   0.229   3.441   3.384
 1782HOH      O 5531   3.162   0.358   3.570
 1782HOH     H1 5532   3.170   0.271   3.530
 1782HOH     H2 5533   3.069   0.366   3.590
 1783HOH      O 5534   1.050   0.087   3.571
 1783HOH     H1 5535   1.078  -0.004   3.583
 1783HOH     H2 5536   1.045   0.097   3.476
 1784HOH      O 5537   0.263   3.392   2.665
 1784HOH     H1 5538   0.311   3.331   2.720
 1784HOH     H2 5539   0.190   3.341   2.629
 1785HOH      O 5540   3.118   2.248   3.357
 1785HOH     H1 5541   3.105   2.274   3.448
 1785HOH     H2 5542   3.169   2.320   3.319
 1786HOH      O 5543   4.002   2.812   3.693
 1786HOH     H1 5544   4.023   2.725   3.729
 1786HOH     H2 5545   3.984   2.796   3.600
 1787HOH      O 5546   3.282   2.886   3.062
 1787HOH     H1 5547   3.310   2.805   3.018
 1787HOH     H2 5548   3.356   2.909   3.119
 1788HOH      O 5549   3.953   3.829   1.477
 1788HOH     H1 5550   4.032   3.787   1.443
 1788HOH     H2 5551   3.942   3.792   1.565
 1789HOH      O 5552   2.501   3.974   0.909
 1789HOH     H1 5553   2.541   3.944   0.990
 1789HOH     H2 5554   2.566   3.954   0.841
 1790HOH      O 5555   3.520   3.885   2.679
 1790HOH     H1 5556   3.541   3.858   2.590
 1790HOH     H2 5557   3.437   3.932   2.670
 1791HOH      O 5558   2.145   1.135   3.475
 1791HOH     H1 5559   2.093   1.201   3.522
 1791HOH     H2 5560   2.190   1.087   3.544
 1792HOH      O 5561   0.928   0.594   0.217
 1792HOH     H1 5562   0.931   0.668   0.278
 1792HOH     H2 5563   0.962   0.629   0.135
 1793HOH      O 5564   3.833   0.486   3.856
 1793HOH     H1 5565   3.918   0.473   3.814
 1793HOH     H2 5566   3.839   0.438   3.938
 1794HOH      O 5567   2.441   3.050   1.633
 1794HOH     H1 5568   2.535   3.040   1.625
 1794HOH     H2 5569   2.428   3.143   1.652
 1795HOH      O 5570   0.992   3.164   1.851
 1795HOH     H1 5571   0.925   3.191   1.788
 1795HOH     H2 5572   0.943   3.139   1.929
 1796HOH      O 5573   0.085   3.848   0.981
 1796HOH     H1 5574   0.020   3.816   0.918
 1796HOH     H2 5575   0.038   3.846   1.065
 1797HOH      O 5576   3.211   1.692   2.823
 1797HOH     H1 5577   3.133   1.694   2.768
 1797HOH     H2 5578   3.181   1.660   2.907
 1798HOH      O 5579   3.655   2.105   0.807
 1798HOH     H1 5580   3.597   2.069   0.874
 1798HOH     H2 5581   3.621   2.194   0.791
 1799HOH      O 5582   2.983   3.158   0.356
 1799HOH     H1 5583   3.078   3.147   0.353
 1799HOH     H2 5584   2.958   3.124   0.442
 1800HOH      O 5585   3.448   2.614   1.604
 1800HOH     H1 5586   3.445   2.598   1.699
 1800HOH     H2 5587   3.357   2.609   1.576
 1801HOH      O 5588   3.052   2.357   1.804
 1801HOH     H1 5589   3.062   2.372   1.898
 1801HOH     H2 5590   3.077   2.441   1.764
 1802HOH      O 5591   1.621   3.897   3.309
 1802HOH     H1 5592   1.644   3.863   3.222
 1802HOH     H2 5593   1.563   3.971   3.291
 1803HOH      O 5594   1.623   1.494   0.537
 1803HOH     H1 5595   1.582   1.576   0.564
 1803HOH     H2 5596   1.682   1.471   0.610
 1804HOH      O 5597   1.338   0.461   2.690
 1804HOH     H1 5598   1.361   0.544   2.648
 1804HOH     H2 5599   1.422   0.419   2.706
 1805HOH      O 5600   1.213   2.682   1.662
 1805HOH     H1 5601   1.175   2.770   1.664
 1805HOH     H2 5602   1.290   2.691   1.606
 1806HOH      O 5603   2.497   1.628   1.262
 1806HOH     H1 5604   2.522   1.700   1.204
 1806HOH     H2 5605   2.402   1.622   1.252
 1807HOH      O 5606   1.381   1.457   1.089
 1807HOH     H1 5607   1.415   1.402   1.018
 1807HOH     H2 5608   1.344   1.534   1.044
 1808HOH      O 5609   3.619   3.271   3.042
 1808HOH     H1 5610   3.618   3.325   2.963
 1808HOH     H2 5611   3.626   3.181   3.010
 1809HOH      O 5612   3.283   3.689   3.595
 1809HOH     H1 5613   3.253   3.652   3.678
 1809HOH     H2 5614   3.354   3.631   3.568
 1810HOH      O 5615   1.199   3.868   0.311
 1810HOH     H1 5616   1.196   3.845   0.404
 1810HOH     H2 5617   1.110   3.848   0.279
 1811HOH      O 5618   2.061   0.117   3.634
 1811HOH     H1 5619   2.030   0.206   3.614
 1811HOH     H2 5620   1.982   0.069   3.660
 1812HOH      O 5621   3.639   2.490   1.427
 1812HOH     H1 5622   3.660   2.572   1.381
 1812HOH     H2 5623   3.588   2.518   1.503
 1813HOH      O 5624   1.584   0.498   1.707
 1813HOH     H1 5625   1.622   0.466   1.788
 1813HOH     H2 5626   1.656   0.546   1.664
 1814HOH      O 5627   1.016   2.390   3.417
 1814HOH     H1 5628   0.941   2.437   3.455
 1814HOH     H2 5629   0.977   2.333   3.351
 1815HOH      O 5630   0.147   3.127   3.513
 1815HOH     H1 5631   0.092   3.120   3.591
 1815HOH     H2 5632   0.095   3.180   3.452
 1816HOH      O 5633   3.509   3.328   1.157
 1816HOH     H1 5634   3.447   3.276   1.208
 1816HOH     H2 5635   3.474   3.417   1.159
 1817HOH      O 5636   3.148   2.491   0.093
 1817HOH     H1 5637   3.148   2.525   0.003
 1817HOH     H2 5638   3.169   2.567   0.147
 1818HOH      O 5639   2.752   0.570   3.325
 1818HOH     H1 5640   2.834   0.554   3.370
 1818HOH     H2 5641   2.776   0.621   3.247
 1819HOH      O 5642   2.241   3.433   1.999
 1819HOH     H1 5643   2.311   3.438   1.935
 1819HOH     H2 5644   2.162   3.458   1.951
 1820HOH      O 5645   0.522   2.558   2.340
 1820HOH     H1 5646   0.442   2.510   2.321
 1820HOH     H2 5647   0.564   2.570   2.254
 1821HOH      O 5648   1.664   3.418   1.637
 1821HOH     H1 5649   1.655   3.493   1.578
 1821HOH     H2 5650   1.719   3.356   1.590
 1822HOH      O 5651   1.324   0.891   2.101
 1822HOH     H1 5652   1.274   0.817   2.067
 1822HOH     H2 5653   1.414   0.874   2.073
 1823HOH      O 5654   2.806   1.545   3.532
 1823HOH     H1 5655   2.770   1.506   3.611
 1823HOH     H2 5656   2.730   1.579   3.485
 1824HOH      O 5657   3.068   2.822   0.200
 1824HOH     H1 5658   3.148   2.774   0.222
 1824HOH     H2 5659   3.095   2.914   0.202
 1825HOH      O 5660   2.776   2.068   2.904
 1825HOH     H1 5661   2.798   2.152   2.945
 1825HOH     H2 5662   2.860   2.023   2.895
 1826HOH      O 5663   3.402   0.628   0.365
 1826HOH     H1 5664   3.315   0.659   0.390
 1826HOH     H2 5665   3.418   0.670   0.280
 1827HOH      O 5666   1.678   1.402   4.020
 1827HOH     H1 5667   1.733   1.476   4.046
 1827HOH     H2 5668   1.734   1.349   3.964
 1828HOH      O 5669   0.892   2.597   1.971
 1828HOH     H1 5670   0.897   2.677   2.022
 1828HOH     H2 5671   0.806   2.561   1.991
 1829HOH      O 5672   1.821   3.947   2.111
 1829HOH     H1 5673   1.819   3.862   2.155
 1829HOH     H2 5674   1.735   3.984   2.127
 1830HOH      O 5675   3.078   1.536   3.582
 1830HOH     H1 5676   3.104   1.616   3.536
 1830HOH     H2 5677   2.986   1.524   3.560
 1831HOH      O 5678   0.950   0.808   3.076
 1831HOH     H1 5679   0.998   0.747   3.131
 1831HOH     H2 5680   0.977   0.895   3.107
 1832HOH      O 5681   3.153   0.942   0.223
 1832HOH     H1 5682   3.243   0.965   0.201
 1832HOH     H2 5683   3.123   0.890   0.148
 1833HOH      O 5684   3.623   3.237   3.679
 1833HOH     H1 5685   3.670   3.320   3.679
 1833HOH     H2 5686   3.656   3.190   3.756
 1834HOH      O 5687   2.065   1.322   3.854
 1834HOH     H1 5688   2.052   1.413   3.826
 1834HOH     H2 5689   2.035   1.321   3.945
 1835HOH      O 5690   3.853   3.004   0.133
 1835HOH     H1 5691   3.895   3.032   0.052
 1835HOH     H2 5692   3.891   2.918   0.151
 1836HOH      O 5693   2.250   3.799   0.378
 1836HOH     H1 5694   2.169   3.761   0.343
 1836HOH     H2 5695   2.238   3.798   0.473
 1837HOH      O 5696   3.590   1.370   3.509
 1837HOH     H1 5697   3.578   1.328   3.595
 1837HOH     H2 5698   3.508   1.356   3.463
 1838HOH      O 5699   0.387   1.661   3.822
 1838HOH     H1 5700   0.324   1.590   3.807
 1838HOH     H2 5701   0.428   1.639   3.906
 1839HOH      O 5702   0.279   0.875   1.545
 1839HOH     H1 5703   0.270   0.874   1.640
 1839HOH     H2 5704   0.347   0.940   1.528
 1840HOH      O 5705   2.756   0.129   3.250
 1840HOH     H1 5706   2.780   0.117   3.342
 1840HOH     H2 5707   2.749   0.040   3.216
 1841HOH      O 5708   2.885   2.448   1.539
 1841HOH     H1 5709   2.962   2.463   1.593
 1841HOH     H2 5710   2.823   2.403   1.596
 1842HOH      O 5711   2.022   0.877   0.621
 1842HOH     H1 5712   2.016   0.822   0.699
 1842HOH     H2 5713   2.114   0.873   0.595
 1843HOH      O 5714   0.809   1.793   2.921
 1843HOH     H1 5715   0.874   1.782   2.990
 1843HOH     H2 5716   0.743   1.851   2.958
 1844HOH      O 5717   2.863   2.111   2.575
 1844HOH     H1 5718   2.783   2.159   2.554
 1844HOH     H2 5719   2.912   2.169   2.633
 1845HOH      O 5720   2.865   0.934   1.023
 1845HOH     H1 5721   2.906   1.004   1.075
 1845HOH     H2 5722   2.875   0.856   1.076
 1846HOH      O 5723   2.214   0.563   1.579
 1846HOH     H1 5724   2.160   0.496   1.620
 1846HOH     H2 5725   2.157   0.600   1.511
 1847HOH      O 5726   3.909   1.460   3.571
 1847HOH     H1 5727   3.817   1.447   3.591
 1847HOH     H2 5728   3.946   1.372   3.568
 1848HOH      O 5729   0.452   0.547   1.612
 1848HOH     H1 5730   0.369   0.519   1.649
 1848HOH     H2 5731   0.429   0.591   1.530
 1849HOH      O 5732   3.592   3.663   3.088
 1849HOH     H1 5733   3.626   3.688   3.002
 1849HOH     H2 5734   3.655   3.599   3.121
 1850HOH      O 5735   0.662   1.614   0.816
 1850HOH     H1 5736   0.576   1.650   0.836
 1850HOH     H2 5737   0.676   1.546   0.881
 1851HOH      O 5738   0.892   2.628   2.288
 1851HOH     H1 5739   0.820   2.692   2.294
 1851HOH     H2 5740   0.860   2.562   2.227
 1852HOH      O 5741   2.758   3.151   0.232
 1852HOH     H1 5742   2.848   3.163   0.263
 1852HOH     H2 5743   2.704   3.185   0.304
 1853HOH      O 5744   1.872   1.608   0.113
 1853HOH     H1 5745   1.809   1.667   0.155
 1853HOH     H2 5746   1.909   1.659   0.042
 1854HOH      O 5747   2.164   3.376   3.918
 1854HOH     H1 5748   2.102   3.319   3.963
 1854HOH     H2 5749   2.124   3.392   3.833
 1855HOH      O 5750   2.517   0.491   2.840
 1855HOH     H1 5751   2.580   0.469   2.771
 1855HOH     H2 5752   2.562   0.469   2.922
 1856HOH      O 5753   2.777   3.954   2.545
 1856HOH     H1 5754   2.735   3.903   2.476
 1856HOH     H2 5755   2.751   3.911   2.626
 1857HOH      O 5756   2.180   1.830   1.795
 1857HOH     H1 5757   2.238   1.894   1.755
 1857HOH     H2 5758   2.233   1.791   1.865
 1858HOH      O 5759   1.012   1.152   3.954
 1858HOH     H1 5760   1.034   1.067   3.914
 1858HOH     H2 5761   0.989   1.208   3.880
 1859HOH      O 5762   3.412   1.218   2.430
 1859HOH     H1 5763   3.353   1.291   2.413
 1859HOH     H2 5764   3.356   1.140   2.421
 1860HOH      O 5765   1.375   3.886   2.003
 1860HOH     H1 5766   1.311   3.835   2.052
 1860HOH     H2 5767   1.433   3.821   1.963
 1861HOH      O 5768   1.892   3.608   0.389
 1861HOH     H1 5769   1.971   3.558   0.369
 1861HOH     H2 5770   1.821   3.543   0.388
 1862HOH      O 5771   0.651   0.149   2.971
 1862HOH     H1 5772   0.637   0.093   2.895
 1862HOH     H2 5773   0.734   0.193   2.952
 1863HOH      O 5774   1.718   2.424   2.225
 1863HOH     H1 5775   1.671   2.341   2.232
 1863HOH     H2 5776   1.773   2.414   2.148
 1864HOH      O 5777   3.814   0.989   0.163
 1864HOH     H1 5778   3.820   1.084   0.175
 1864HOH     H2 5779   3.741   0.977   0.103
 1865HOH      O 5780   1.788   3.798   2.648
 1865HOH     H1 5781   1.841   3.824   2.723
 1865HOH     H2 5782   1.799   3.869   2.585
 1866HOH      O 5783   3.794   1.774   1.680
 1866HOH     H1 5784   3.823   1.799   1.593
 1866HOH     H2 5785   3.707   1.813   1.689
 1867HOH      O 5786   2.920   3.963   3.972
 1867HOH     H1 5787   3.015   3.954   3.964
 1867HOH     H2 5788   2.908   4.033   4.037
 1868HOH      O 5789   2.630   3.422   3.122
 1868HOH     H1 5790   2.709   3.369   3.134
 1868HOH     H2 5791   2.634   3.487   3.192
 1869HOH      O 5792   1.092   0.565   2.740
 1869HOH     H1 5793   1.095   0.658   2.763
 1869HOH     H2 5794   1.179   0.532   2.760
 1870HOH      O 5795   0.467   0.917   3.556
 1870HOH     H1 5796   0.507   0.960   3.632
 1870HOH     H2 5797   0.538   0.912   3.492
 1871HOH      O 5798   0.680   2.844   3.519
 1871HOH     H1 5799   0.641   2.900   3.586
 1871HOH     H2 5800   0.680   2.757   3.558
 1872HOH      O 5801   1.129   2.769   3.229
 1872HOH     H1 5802   1.062   2.742   3.166
 1872HOH     H2 5803   1.124   2.705   3.299
 1873HOH      O 5804   2.486   3.306   2.878
 1873HOH     H1 5805   2.413   3.367   2.875
 1873HOH     H2 5806   2.528   3.323   2.962
 1874HOH      O 5807   1.941   0.146   1.922
 1874HOH     H1 5808   1.911   0.207   1.989
 1874HOH     H2 5809   1.958   0.065   1.969
 1875HOH      O 5810   0.784   1.819   2.137
 1875HOH     H1 5811   0.730   1.884   2.180
 1875HOH     H2 5812   0.861   1.810   2.194
 1876HOH      O 5813   2.053   2.080   3.204
 1876HOH     H1 5814   1.980   2.136   3.231
 1876HOH     H2 5815   2.121   2.096   3.269
 1877HOH      O 5816   2.115   3.188   3.302
 1877HOH     H1 5817   2.161   3.107   3.280
 1877HOH     H2 5818   2.034   3.184   3.251
 1878HOH      O 5819   1.004   1.428   0.124
 1878HOH     H1 5820   0.915   1.402   0.105
 1878HOH     H2 5821   1.005   1.443   0.219
 1879HOH      O 5822   0.785   3.760   3.409
 1879HOH     H1 5823   0.725   3.694   3.373
 1879HOH     H2 5824   0.768   3.838   3.356
 1880HOH      O 5825   2.772   3.611   1.594
 1880HOH     H1 5826   2.855   3.598   1.639
 1880HOH     H2 5827   2.741   3.522   1.575
 1881HOH      O 5828   1.785   1.282   2.115
 1881HOH     H1 5829   1.806   1.343   2.044
 1881HOH     H2 5830   1.870   1.252   2.147
 1882HOH      O 5831   1.234   0.660   1.991
 1882HOH     H1 5832   1.275   0.574   1.997
 1882HOH     H2 5833   1.151   0.651   2.037
 1883HOH      O 5834   0.382   1.166   0.588
 1883HOH     H1 5835   0.376   1.138   0.497
 1883HOH     H2 5836   0.375   1.261   0.584
 1884HOH      O 5837   2.938   3.695   1.271
 1884HOH     H1 5838   2.977   3.739   1.347
 1884HOH     H2 5839   3.006   3.699   1.203
 1885HOH      O 5840   3.640   4.006   0.839
 1885HOH     H1 5841   3.676   4.011   0.750
 1885HOH     H2 5842   3.545   4.013   0.827
 1886HOH      O 5843   0.304   3.843   0.794
 1886HOH     H1 5844   0.253   3.842   0.875
 1886HOH     H2 5845   0.239   3.854   0.724
 1887HOH      O 5846   1.149   1.302   1.845
 1887HOH     H1 5847   1.208   1.367   1.807
 1887HOH     H2 5848   1.201   1.221   1.848
 1888HOH      O 5849   1.257   3.831   2.448
 1888HOH     H1 5850   1.306   3.757   2.482
 1888HOH     H2 5851   1.205   3.795   2.376
 1889HOH      O 5852   0.802   0.044   2.090
 1889HOH     H1 5853   0.751   0.087   2.022
 1889HOH     H2 5854   0.754   0.064   2.171
 1890HOH      O 5855   3.707   1.144   2.344
 1890HOH     H1 5856   3.793   1.168   2.379
 1890HOH     H2 5857   3.646   1.202   2.389
 1891HOH      O 5858   0.595   2.277   3.019
 1891HOH     H1 5859   0.661   2.249   3.082
 1891HOH     H2 5860   0.517   2.226   3.042
 1892HOH      O 5861   3.106   3.071   0.666
 1892HOH     H1 5862   3.124   3.014   0.591
 1892HOH     H2 5863   3.010   3.077   0.668
 1893HOH      O 5864   2.364   3.337   3.394
 1893HOH     H1 5865   2.272   3.322   3.414
 1893HOH     H2 5866   2.370   3.430   3.376
 1894HOH      O 5867   0.805   3.857   1.939
 1894HOH     H1 5868   0.713   3.831   1.945
 1894HOH     H2 5869   0.811   3.936   1.993
 1895HOH      O 5870   1.810   0.645   1.696
 1895HOH     H1 5871   1.842   0.570   1.748
 1895HOH     H2 5872   1.849   0.632   1.610
 1896HOH      O 5873   0.279   0.881   2.847
 1896HOH     H1 5874   0.300   0.788   2.853
 1896HOH     H2 5875   0.233   0.900   2.928
 1897HOH      O 5876   2.109   1.499   2.895
 1897HOH     H1 5877   2.150   1.561   2.835
 1897HOH     H2 5878   2.070   1.433   2.839
 1898HOH      O 5879   2.339   0.311   3.488
 1898HOH     H1 5880   2.397   0.387   3.493
 1898HOH     H2 5881   2.395   0.238   3.515
 1899HOH      O 5882   2.881   0.701   3.891
 1899HOH     H1 5883   2.794   0.661   3.893
 1899HOH     H2 5884   2.939   0.632   3.859
 1900HOH      O 5885   2.010   2.141   2.348
 1900HOH     H1 5886   1.995   2.222   2.395
 1900HOH     H2 5887   2.039   2.169   2.261
 1901HOH      O 5888   0.524   1.820   1.152
 1901HOH     H1 5889   0.510   1.897   1.209
 1901HOH     H2 5890   0.566   1.856   1.074
 1902HOH      O 5891   2.195   3.432   2.658
 1902HOH     H1 5892   2.193   3.397   2.569
 1902HOH     H2 5893   2.151   3.366   2.711
 1903HOH      O 5894   0.773   2.022   0.629
 1903HOH     H1 5895   0.781   2.077   0.707
 1903HOH     H2 5896   0.863   2.000   0.606
 1904HOH      O 5897   1.813   2.950   2.742
 1904HOH     H1 5898   1.900   2.922   2.770
 1904HOH     H2 5899   1.760   2.947   2.822
 1905HOH      O 5900   2.729   2.192   1.043
 1905HOH     H1 5901   2.695   2.196   0.954
 1905HOH     H2 5902   2.823   2.209   1.034
 1906HOH      O 5903   2.448   0.688   2.205
 1906HOH     H1 5904   2.408   0.764   2.249
 1906HOH     H2 5905   2.375   0.627   2.192
 1907HOH      O 5906   1.747   2.900   0.765
 1907HOH     H1 5907   1.804   2.975   0.780
 1907HOH     H2 5908   1.721   2.908   0.673
 1908HOH      O 5909   1.286   2.098   2.193
 1908HOH     H1 5910   1.378   2.108   2.169
 1908HOH     H2 5911   1.286   2.031   2.261
 1909HOH      O 5912   1.012   1.736   3.357
 1909HOH     H1 5913   1.045   1.657   3.314
 1909HOH     H2 5914   1.086   1.768   3.409
 1910HOH      O 5915   3.272   0.613   2.573
 1910HOH     H1 5916   3.280   0.640   2.482
 1910HOH     H2 5917   3.355   0.636   2.613
 1911HOH      O 5918   2.544   0.045   2.753
 1911HOH     H1 5919   2.620   0.104   2.758
 1911HOH     H2 5920   2.515   0.036   2.844
 1912HOH      O 5921   2.537   0.425   1.167
 1912HOH     H1 5922   2.515   0.417   1.074
 1912HOH     H2 5923   2.605   0.491   1.170
 1913HOH      O 5924   2.001   0.948   1.729
 1913HOH     H1 5925   1.923   0.917   1.776
 1913HOH     H2 5926   2.022   1.032   1.771
 1914HOH      O 5927   2.952   3.379   2.448
 1914HOH     H1 5928   2.973   3.392   2.541
 1914HOH     H2 5929   2.899   3.455   2.425
 1915HOH      O 5930   2.544   0.060   1.631
 1915HOH     H1 5931   2.460   0.022   1.609
 1915HOH     H2 5932   2.538   0.151   1.601
 1916HOH      O 5933   1.069   1.590   2.660
 1916HOH     H1 5934   1.090   1.572   2.568
 1916HOH     H2 5935   0.991   1.645   2.657
 1917HOH      O 5936   3.501   2.934   3.352
 1917HOH     H1 5937   3.589   2.963   3.378
 1917HOH     H2 5938   3.442   2.985   3.408
 1918HOH      O 5939   0.793   0.909   2.223
 1918HOH     H1 5940   0.835   0.907   2.137
 1918HOH     H2 5941   0.839   0.842   2.274
 1919HOH      O 5942   3.511   3.152   1.995
 1919HOH     H1 5943   3.480   3.063   2.011
 1919HOH     H2 5944   3.551   3.179   2.077
 1920HOH      O 5945   2.675   0.413   2.627
 1920HOH     H1 5946   2.733   0.339   2.614
 1920HOH     H2 5947   2.726   0.490   2.600
 1921HOH      O 5948   0.794   3.297   3.033
 1921HOH     H1 5949   0.735   3.357   2.988
 1921HOH     H2 5950   0.743   3.217   3.045
 1922HOH      O 5951   3.809   2.065   1.780
 1922HOH     H1 5952   3.825   2.159   1.774
 1922HOH     H2 5953   3.896   2.027   1.795
 1923HOH      O 5954   2.000   3.447   3.702
 1923HOH     H1 5955   2.068   3.495   3.654
 1923HOH     H2 5956   1.991   3.364   3.655
 1924HOH      O 5957   1.446   2.103   1.092
 1924HOH     H1 5958   1.399   2.105   1.175
 1924HOH     H2 5959   1.409   2.176   1.042
 1925HOH      O 5960   3.952   1.147   1.156
 1925HOH     H1 5961   3.943   1.096   1.237
 1925HOH     H2 5962   3.865   1.145   1.117
 1926HOH      O 5963   1.287   2.990   3.960
 1926HOH     H1 5964   1.361   3.048   3.982
 1926HOH     H2 5965   1.225   3.004   4.031
 1927HOH      O 5966   1.266   1.917   3.746
 1927HOH     H1 5967   1.210   1.994   3.761
 1927HOH     H2 5968   1.231   1.850   3.804
 1928HOH      O 5969   1.994   1.398   1.026
 1928HOH     H1 5970   1.995   1.477   1.080
 1928HOH     H2 5971   1.995   1.431   0.936
 1929HOH      O 5972   2.792   0.218   0.989
 1929HOH     H1 5973   2.780   0.126   0.966
 1929HOH     H2 5974   2.863   0.217   1.053
 1930HOH      O 5975   0.955   1.313   3.745
 1930HOH     H1 5976   0.931   1.250   3.678
 1930HOH     H2 5977   1.023   1.367   3.704
 1931HOH      O 5978   3.070   1.785   1.129
 1931HOH     H1 5979   3.110   1.862   1.169
 1931HOH     H2 5980   2.978   1.788   1.156
 1932HOH      O 5981   2.965   3.491   1.792
 1932HOH     H1 5982   2.931   3.565   1.842
 1932HOH     H2 5983   2.973   3.421   1.856
 1933HOH      O 5984   1.935   3.793   2.396
 1933HOH     H1 5985   1.841   3.803   2.407
 1933HOH     H2 5986   1.967   3.777   2.485
 1934HOH      O 5987   2.354   1.309   3.396
 1934HOH     H1 5988   2.296   1.236   3.418
 1934HOH     H2 5989   2.434   1.267   3.364
 1935HOH      O 5990   0.611   3.409   0.790
 1935HOH     H1 5991   0.555   3.359   0.849
 1935HOH     H2 5992   0.604   3.499   0.821
 1936HOH      O 5993   3.811   2.945   1.102
 1936HOH     H1 5994   3.886   2.929   1.160
 1936HOH     H2 5995   3.768   3.021   1.139
 1937HOH      O 5996   1.451   0.803   0.793
 1937HOH     H1 5997   1.501   0.791   0.713
 1937HOH     H2 5998   1.372   0.851   0.765
 1938HOH      O 5999   0.396   2.133   2.280
 1938HOH     H1 6000   0.393   2.214   2.331
 1938HOH     H2 6001   0.436   2.069   2.338
 1939HOH      O 6002   1.236   2.891   1.341
 1939HOH     H1 6003   1.270   2.941   1.414
 1939HOH     H2 6004   1.142   2.905   1.343
 1940HOH      O 6005   1.222   2.431   3.664
 1940HOH     H1 6006   1.192   2.517   3.633
 1940HOH     H2 6007   1.285   2.452   3.733
 1941HOH      O 6008   2.924   2.610   3.052
 1941HOH     H1 6009   2.902   2.605   3.145
 1941HOH     H2 6010   2.868   2.544   3.011
 1942HOH      O 6011   3.635   3.709   3.631
 1942HOH     H1 6012   3.676   3.649   3.694
 1942HOH     H2 6013   3.604   3.652   3.560
 1943HOH      O 6014   3.588   0.580   3.150
 1943HOH     H1 6015   3.513   0.591   3.209
 1943HOH     H2 6016   3.552   0.533   3.075
 1944HOH      O 6017   2.344   0.857   0.896
 1944HOH     H1 6018   2.392   0.796   0.840
 1944HOH     H2 6019   2.251   0.839   0.877
 1945HOH      O 6020   3.239   2.882   0.520
 1945HOH     H1 6021   3.240   2.842   0.607
 1945HOH     H2 6022   3.192   2.818   0.465
 1946HOH      O 6023   2.704   0.463   2.279
 1946HOH     H1 6024   2.752   0.541   2.306
 1946HOH     H2 6025   2.612   0.491   2.277
 1947HOH      O 6026   1.103   2.684   3.761
 1947HOH     H1 6027   1.055   2.690   3.843
 1947HOH     H2 6028   1.058   2.745   3.702
 1948HOH      O 6029   3.457   0.951   1.144
 1948HOH     H1 6030   3.463   1.030   1.092
 1948HOH     H2 6031   3.369   0.918   1.129
 1949HOH      O 6032   0.117   3.937   3.968
 1949HOH     H1 6033   0.038   3.978   4.001
 1949HOH     H2 6034   0.183   3.954   4.035
 1950HOH      O 6035   0.557   1.946   2.718
 1950HOH     H1 6036   0.479   1.995   2.741
 1950HOH     H2 6037   0.526   1.875   2.662
 1951HOH      O 6038   3.900   0.918   0.884
 1951HOH     H1 6039   3.849   0.941   0.962
 1951HOH     H2 6040   3.870   0.830   0.861
 1952HOH      O 6041   0.574   3.425   0.517
 1952HOH     H1 6042   0.593   3.423   0.611
 1952HOH     H2 6043   0.656   3.454   0.477
 1953HOH      O 6044   0.958   3.784   0.248
 1953HOH     H1 6045   0.923   3.698   0.272
 1953HOH     H2 6046   0.894   3.820   0.186
 1954HOH      O 6047   0.330   2.546   0.196
 1954HOH     H1 6048   0.353   2.513   0.283
 1954HOH     H2 6049   0.318   2.640   0.209
 1955HOH      O 6050   3.904   0.495   1.974
 1955HOH     H1 6051   3.932   0.548   2.049
 1955HOH     H2 6052   3.942   0.409   1.989
 1956HOH      O 6053   1.892   2.084   2.044
 1956HOH     H1 6054   1.878   2.050   2.133
 1956HOH     H2 6055   1.969   2.141   2.053
 1957HOH      O 6056   2.233   0.050   0.345
 1957HOH     H1 6057   2.215  -0.044   0.348
 1957HOH     H2 6058   2.320   0.057   0.306
 1958HOH      O 6059   0.165   1.544   2.618
 1958HOH     H1 6060   0.257   1.556   2.597
 1958HOH     H2 6061   0.142   1.459   2.581
 1959HOH      O 6062   1.384   2.769   3.551
 1959HOH     H1 6063   1.313   2.709   3.526
 1959HOH     H2 6064   1.339   2.850   3.576
 1960HOH      O 6065   2.635   0.639   1.775
 1960HOH     H1 6066   2.720   0.668   1.808
 1960HOH     H2 6067   2.585   0.617   1.853
 1961HOH      O 6068  -0.026   1.044   1.427
 1961HOH     H1 6069   0.062   1.048   1.389
 1961HOH     H2 6070  -0.012   1.050   1.521
 1962HOH      O 6071   2.518   0.846   0.075
 1962HOH     H1 6072   2.470   0.848   0.158
 1962HOH     H2 6073   2.549   0.756   0.067
 1963HOH      O 6074   1.559   2.516   1.418
 1963HOH     H1 6075   1.637   2.554   1.378
 1963HOH     H2 6076   1.569   2.422   1.407
 1964HOH      O 6077   3.440   0.597   1.816
 1964HOH     H1 6078   3.498   0.539   1.865
 1964HOH     H2 6079   3.357   0.592   1.863
 1965HOH      O 6080   2.270   0.049   1.592
 1965HOH     H1 6081   2.256   0.132   1.548
 1965HOH     H2 6082   2.208  -0.012   1.551
 1966HOH      O 6083   2.901   0.893   3.649
 1966HOH     H1 6084   2.812   0.926   3.665
 1966HOH     H2 6085   2.919   0.835   3.723
 1967HOH      O 6086   0.364   1.044   2.414
 1967HOH     H1 6087   0.412   1.048   2.497
 1967HOH     H2 6088   0.419   1.092   2.352
 1968HOH      O 6089   0.291   1.451   3.413
 1968HOH     H1 6090   0.300   1.363   3.450
 1968HOH     H2 6091   0.244   1.500   3.480
 1969HOH      O 6092   1.296   0.093   0.280
 1969HOH     H1 6093   1.294   0.123   0.189
 1969HOH     H2 6094   1.250   0.009   0.278
 1970HOH      O 6095   1.208   0.824   1.763
 1970HOH     H1 6096   1.202   0.764   1.837
 1970HOH     H2 6097   1.124   0.815   1.718
 1971HOH      O 6098   0.289   0.929   3.945
 1971HOH     H1 6099   0.301   0.849   3.895
 1971HOH     H2 6100   0.251   0.900   4.028
 1972HOH      O 6101   2.803   0.161   2.677
 1972HOH     H1 6102   2.798   0.068   2.653
 1972HOH     H2 6103   2.885   0.191   2.639
 1973HOH      O 6104   1.193   0.014   1.882
 1973HOH     H1 6105   1.281  -0.000   1.848
 1973HOH     H2 6106   1.202   0.006   1.977
 1974HOH      O 6107   0.023   0.659   2.899
 1974HOH     H1 6108   0.003   0.577   2.853
 1974HOH     H2 6109   0.103   0.640   2.948
 1975HOH      O 6110   1.369   1.121   1.492
 1975HOH     H1 6111   1.458   1.092   1.469
 1975HOH     H2 6112   1.370   1.126   1.587
 1976HOH      O 6113   2.511   3.601   2.491
 1976HOH     H1 6114   2.497   3.511   2.464
 1976HOH     H2 6115   2.425   3.632   2.517
 1977HOH      O 6116   1.652   0.529   0.052
 1977HOH     H1 6117   1.718   0.586   0.012
 1977HOH     H2 6118   1.631   0.570   0.136
 1978HOH      O 6119   1.867   3.507   2.645
 1978HOH     H1 6120   1.914   3.461   2.575
 1978HOH     H2 6121   1.847   3.593   2.608
 1979HOH      O 6122   3.333   3.185   2.741
 1979HOH     H1 6123   3.286   3.101   2.740
 1979HOH     H2 6124   3.265   3.250   2.757
 1980HOH      O 6125  -0.025   3.479   1.550
 1980HOH     H1 6126  -0.021   3.539   1.624
 1980HOH     H2 6127   0.064   3.480   1.514
 1981HOH      O 6128   3.357   1.959   0.629
 1981HOH     H1 6129   3.450   1.982   0.631
 1981HOH     H2 6130   3.354   1.873   0.587
 1982HOH      O 6131   0.494   2.303   0.160
 1982HOH     H1 6132   0.480   2.309   0.254
 1982HOH     H2 6133   0.462   2.215   0.137
 1983HOH      O 6134   1.853   3.647   1.229
 1983HOH     H1 6135   1.947   3.660   1.235
 1983HOH     H2 6136   1.843   3.578   1.163
 1984HOH      O 6137   3.298   3.381   1.965
 1984HOH     H1 6138   3.369   3.318   1.959
 1984HOH     H2 6139   3.260   3.384   1.877
 1985HOH      O 6140   3.724   3.559   2.000
 1985HOH     H1 6141   3.682   3.593   1.922
 1985HOH     H2 6142   3.800   3.616   2.014
 1986HOH      O 6143   0.928   1.282   3.014
 1986HOH     H1 6144   0.896   1.259   2.926
 1986HOH     H2 6145   0.972   1.365   3.002
 1987HOH      O 6146   1.782   0.501   2.782
 1987HOH     H1 6147   1.860   0.484   2.729
 1987HOH     H2 6148   1.769   0.420   2.833
 1988HOH      O 6149   1.625   3.026   3.459
 1988HOH     H1 6150   1.706   3.057   3.500
 1988HOH     H2 6151   1.557   3.083   3.494
 1989HOH      O 6152   2.708   0.801   2.762
 1989HOH     H1 6153   2.646   0.849   2.816
 1989HOH     H2 6154   2.684   0.824   2.672
 1990HOH      O 6155   0.262   1.830   2.817
 1990HOH     H1 6156   0.277   1.736   2.807
 1990HOH     H2 6157   0.245   1.842   2.910
 1991HOH      O 6158   2.587   1.492   0.867
 1991HOH     H1 6159   2.631   1.444   0.937
 1991HOH     H2 6160   2.654   1.503   0.800
 1992HOH      O 6161   1.426   0.274   3.229
 1992HOH     H1 6162   1.396   0.194   3.273
 1992HOH     H2 6163   1.474   0.243   3.152
 1993HOH      O 6164   3.767   2.258   1.349
 1993HOH     H1 6165   3.736   2.316   1.279
 1993HOH     H2 6166   3.747   2.305   1.430
 1994HOH      O 6167   1.423   3.478   1.046
 1994HOH     H1 6168   1.387   3.531   0.974
 1994HOH     H2 6169   1.367   3.401   1.049
 1995HOH      O 6170   1.658   3.629   2.117
 1995HOH     H1 6171   1.675   3.535   2.112
 1995HOH     H2 6172   1.603   3.647   2.040
 1996HOH      O 6173   3.711   3.062   3.475
 1996HOH     H1 6174   3.678   3.085   3.562
 1996HOH     H2 6175   3.733   3.146   3.435
 1997HOH      O 6176   2.126   3.706   1.609
 1997HOH     H1 6177   2.032   3.687   1.615
 1997HOH     H2 6178   2.131   3.799   1.588
 1998HOH      O 6179   2.363   2.984   2.923
 1998HOH     H1 6180   2.456   3.006   2.934
 1998HOH     H2 6181   2.337   2.948   3.008
 1999HOH      O 6182   3.441   1.937   3.613
 1999HOH     H1 6183   3.498   1.962   3.686
 1999HOH     H2 6184   3.485   1.972   3.535
 2000HOH      O 6185   2.431   0.724   3.149
 2000HOH     H1 6186   2.469   0.643   3.116
 2000HOH     H2 6187   2.338   0.718   3.127
 2001HOH      O 6188   1.771   0.535   1.366
 2001HOH     H1 6189   1.729   0.453   1.392
 2001HOH     H2 6190   1.710   0.574   1.303
 2002HOH      O 6191   0.488   0.823   1.903
 2002HOH     H1 6192   0.399   0.845   1.875
 2002HOH     H2 6193   0.533   0.907   1.908
 2003HOH      O 6194   2.886   3.444   2.926
 2003HOH     H1 6195   2.793   3.466   2.923
 2003HOH     H2 6196   2.929   3.527   2.947
 2004HOH      O 6197   2.210   0.620   0.716
 2004HOH     H1 6198   2.261   0.688   0.671
 2004HOH     H2 6199   2.179   0.563   0.646
 2005HOH      O 6200   3.005   1.496   0.163
 2005HOH     H1 6201   2.977   1.585   0.185
 2005HOH     H2 6202   2.929   1.456   0.121
 2006HOH      O 6203   2.164   1.120   1.511
 2006HOH     H1 6204   2.153   1.198   1.457
 2006HOH     H2 6205   2.197   1.054   1.451
 2007HOH      O 6206   3.909   3.706   0.899
 2007HOH     H1 6207   3.862   3.698   0.816
 2007HOH     H2 6208   3.852   3.759   0.954
 2008HOH      O 6209   0.539   3.913   0.629
 2008HOH     H1 6210   0.488   3.874   0.700
 2008HOH     H2 6211   0.563   4.000   0.661
 2009HOH      O 6212   1.900   0.083   2.960
 2009HOH     H1 6213   1.900   0.024   3.036
 2009HOH     H2 6214   1.921   0.168   2.997
 2010HOH      O 6215   3.592   3.277   2.235
 2010HOH     H1 6216   3.536   3.347   2.269
 2010HOH     H2 6217   3.622   3.231   2.313
 2011HOH      O 6218   2.750   3.032   3.801
 2011HOH     H1 6219   2.718   3.090   3.870
 2011HOH     H2 6220   2.717   2.946   3.825
 2012HOH      O 6221   3.066   2.605   1.706
 2012HOH     H1 6222   3.070   2.684   1.652
 2012HOH     H2 6223   3.119   2.627   1.783
 2013HOH      O 6224   3.010   1.572   0.561
 2013HOH     H1 6225   2.926   1.552   0.602
 2013HOH     H2 6226   3.062   1.492   0.573
 2014HOH      O 6227   2.450   2.047   3.068
 2014HOH     H1 6228   2.505   2.120   3.095
 2014HOH     H2 6229   2.367   2.062   3.113
 2015HOH      O 6230   3.565   2.521   3.483
 2015HOH     H1 6231   3.497   2.455   3.469
 2015HOH     H2 6232   3.548   2.587   3.416
 2016HOH      O 6233   3.318   1.416   3.680
 2016HOH     H1 6234   3.258   1.451   3.615
 2016HOH     H2 6235   3.327   1.323   3.657
 2017HOH      O 6236   2.854   0.887   3.152
 2017HOH     H1 6237   2.814   0.894   3.239
 2017HOH     H2 6238   2.926   0.950   3.153
 2018HOH      O 6239   0.154   0.182   1.293
 2018HOH     H1 6240   0.225   0.159   1.352
 2018HOH     H2 6241   0.192   0.174   1.206
 2019HOH      O 6242   2.120   3.559   0.259
 2019HOH     H1 6243   2.149   3.468   0.271
 2019HOH     H2 6244   2.086   3.562   0.170
 2020HOH      O 6245   0.058   1.053   0.260
 2020HOH     H1 6246  -0.017   0.995   0.247
 2020HOH     H2 6247   0.098   1.022   0.341
 2021HOH      O 6248   4.023   3.448   1.250
 2021HOH     H1 6249   3.951   3.450   1.187
 2021HOH     H2 6250   3.981   3.437   1.335
 2022HOH      O 6251   2.475   0.276   2.450
 2022HOH     H1 6252   2.526   0.212   2.400
 2022HOH     H2 6253   2.534   0.306   2.519
 2023HOH      O 6254   0.337   1.306   0.064
 2023HOH     H1 6255   0.391   1.358   0.123
 2023HOH     H2 6256   0.399   1.259   0.008
 2024HOH      O 6257   2.371   1.742   3.262
 2024HOH     H1 6258   2.299   1.679   3.258
 2024HOH     H2 6259   2.340   1.810   3.322
 2025HOH      O 6260   1.274   0.155   0.861
 2025HOH     H1 6261   1.273   0.218   0.789
 2025HOH     H2 6262   1.320   0.079   0.826
 2026HOH      O 6263   3.288   2.356   2.821
 2026HOH     H1 6264   3.369   2.378   2.868
 2026HOH     H2 6265   3.228   2.427   2.844
 2027HOH      O 6266   3.109   3.764   2.792
 2027HOH     H1 6267   3.136   3.851   2.762
 2027HOH     H2 6268   3.191   3.714   2.796
 2028HOH      O 6269   0.597   0.414   2.295
 2028HOH     H1 6270   0.553   0.478   2.351
 2028HOH     H2 6271   0.602   0.457   2.209
 2029HOH      O 6272   1.560   3.417   3.941
 2029HOH     H1 6273   1.642   3.446   3.981
 2029HOH     H2 6274   1.508   3.498   3.932
 2030HOH      O 6275   2.793   3.313   2.129
 2030HOH     H1 6276   2.887   3.299   2.137
 2030HOH     H2 6277   2.775   3.390   2.183
 2031HOH      O 6278   2.650   3.753   1.373
 2031HOH     H1 6279   2.649   3.703   1.455
 2031HOH     H2 6280   2.721   3.713   1.322
 2032HOH      O 6281   0.661   1.056   1.570
 2032HOH     H1 6282   0.710   1.137   1.557
 2032HOH     H2 6283   0.606   1.047   1.492
 2033HOH      O 6284   2.481   0.967   1.509
 2033HOH     H1 6285   2.572   0.988   1.486
 2033HOH     H2 6286   2.487   0.884   1.556
 2034HOH      O 6287   3.003   0.516   3.395
 2034HOH     H1 6288   3.084   0.498   3.443
 2034HOH     H2 6289   3.019   0.482   3.307
 2035HOH      O 6290   2.178   0.886   3.868
 2035HOH     H1 6291   2.127   0.941   3.928
 2035HOH     H2 6292   2.122   0.875   3.792
 2036HOH      O 6293   0.927   2.743   3.016
 2036HOH     H1 6294   0.975   2.824   3.004
 2036HOH     H2 6295   0.877   2.756   3.097
 2037HOH      O 6296   3.873   2.153   2.430
 2037HOH     H1 6297   3.923   2.089   2.480
 2037HOH     H2 6298   3.782   2.134   2.450
 2038HOH      O 6299   2.602   3.372   1.536
 2038HOH     H1 6300   2.653   3.319   1.475
 2038HOH     H2 6301   2.513   3.371   1.502
 2039HOH      O 6302   4.027   0.757   3.618
 2039HOH     H1 6303   3.992   0.821   3.681
 2039HOH     H2 6304   3.988   0.782   3.535
 2040HOH      O 6305   3.847   0.120   0.481
 2040HOH     H1 6306   3.753   0.111   0.495
 2040HOH     H2 6307   3.856   0.197   0.424
 2041HOH      O 6308   0.268   0.740   3.532
 2041HOH     H1 6309   0.333   0.807   3.553
 2041HOH     H2 6310   0.185   0.776   3.565
 2042HOH      O 6311   2.869   2.461   0.249
 2042HOH     H1 6312   2.833   2.418   0.172
 2042HOH     H2 6313   2.959   2.429   0.254
 2043HOH      O 6314   3.844   2.253   1.008
 2043HOH     H1 6315   3.897   2.203   0.945
 2043HOH     H2 6316   3.753   2.234   0.983
 2044HOH      O 6317   2.169   3.812   3.683
 2044HOH     H1 6318   2.087   3.838   3.725
 2044HOH     H2 6319   2.163   3.717   3.677
 2045HOH      O 6320   1.289   1.123   3.124
 2045HOH     H1 6321   1.314   1.031   3.125
 2045HOH     H2 6322   1.286   1.145   3.031
 2046HOH      O 6323   0.089   2.711   2.770
 2046HOH     H1 6324   0.092   2.633   2.824
 2046HOH     H2 6325   0.046   2.683   2.689
 2047HOH      O 6326   0.771   2.988   2.914
 2047HOH     H1 6327   0.865   2.974   2.927
 2047HOH     H2 6328   0.766   3.038   2.832
 2048HOH      O 6329   0.985   3.084   0.712
 2048HOH     H1 6330   1.025   3.168   0.690
 2048HOH     H2 6331   0.906   3.080   0.658
 2049HOH      O 6332   3.325   3.972   3.643
 2049HOH     H1 6333   3.413   3.977   3.607
 2049HOH     H2 6334   3.298   3.881   3.629
 2050HOH      O 6335   0.274   3.976   0.185
 2050HOH     H1 6336   0.301   4.068   0.187
 2050HOH     H2 6337   0.224   3.964   0.266
 2051HOH      O 6338   3.756   3.290   3.271
 2051HOH     H1 6339   3.711   3.263   3.191
 2051HOH     H2 6340   3.758   3.385   3.267
 2052HOH      O 6341   0.563   1.352   2.498
 2052HOH     H1 6342   0.529   1.340   2.587
 2052HOH     H2 6343   0.493   1.323   2.441
 2053HOH      O 6344   2.585   3.226   0.481
 2053HOH     H1 6345   2.553   3.288   0.416
 2053HOH     H2 6346   2.506   3.191   0.522
 2054HOH      O 6347   1.398   3.968   1.716
 2054HOH     H1 6348   1.402   3.875   1.737
 2054HOH     H2 6349   1.382   3.971   1.621
 2055HOH      O 6350   2.373   2.563   0.569
 2055HOH     H1 6351   2.356   2.657   0.571
 2055HOH     H2 6352   2.413   2.545   0.654
 2056HOH      O 6353   3.109   3.070   1.180
 2056HOH     H1 6354   3.135   3.032   1.096
 2056HOH     H2 6355   3.041   3.134   1.157
 2057HOH      O 6356   0.689   3.811   0.936
 2057HOH     H1 6357   0.629   3.872   0.978
 2057HOH     H2 6358   0.652   3.724   0.953
 2058HOH      O 6359   1.320   2.018   0.765
 2058HOH     H1 6360   1.312   2.112   0.780
 2058HOH     H2 6361   1.269   1.978   0.835
 2059HOH      O 6362   2.834   2.071   2.261
 2059HOH     H1 6363   2.875   2.086   2.346
 2059HOH     H2 6364   2.907   2.063   2.200
 2060HOH      O 6365   2.187   2.245   1.717
 2060HOH     H1 6366   2.115   2.199   1.674
 2060HOH     H2 6367   2.145   2.290   1.790
 2061HOH      O 6368   3.212   3.053   1.969
 2061HOH     H1 6369   3.131   3.016   2.004
 2061HOH     H2 6370   3.281   3.009   2.018
 2062HOH      O 6371   3.901  -0.006   2.041
 2062HOH     H1 6372   3.853   0.045   1.976
 2062HOH     H2 6373   3.992   0.019   2.028
 2063HOH      O 6374   3.798   1.238   3.160
 2063HOH     H1 6375   3.803   1.299   3.234
 2063HOH     H2 6376   3.746   1.165   3.194
 2064HOH      O 6377   3.854   2.654   0.548
 2064HOH     H1 6378   3.833   2.647   0.455
 2064HOH     H2 6379   3.783   2.705   0.585
 2065HOH      O 6380   3.161   0.853   2.851
 2065HOH     H1 6381   3.171   0.765   2.887
 2065HOH     H2 6382   3.240   0.868   2.799
 2066HOH      O 6383   2.047   1.723   3.035
 2066HOH     H1 6384   2.052   1.631   3.011
 2066HOH     H2 6385   2.132   1.759   3.008
 2067HOH      O 6386   1.932   0.711   2.966
 2067HOH     H1 6387   1.900   0.736   2.879
 2067HOH     H2 6388   1.862   0.735   3.026
 2068HOH      O 6389   2.096   2.967   2.777
 2068HOH     H1 6390   2.190   2.958   2.788
 2068HOH     H2 6391   2.061   2.967   2.866
 2069HOH      O 6392   2.505   2.005   3.844
 2069HOH     H1 6393   2.465   2.076   3.894
 2069HOH     H2 6394   2.561   1.960   3.908
 2070HOH      O 6395   0.080   1.431   0.164
 2070HOH     H1 6396   0.084   1.369   0.236
 2070HOH     H2 6397   0.145   1.399   0.101
 2071HOH      O 6398   3.665   0.739   2.038
 2071HOH     H1 6399   3.596   0.764   1.977
 2071HOH     H2 6400   3.693   0.652   2.008
 2072HOH      O 6401   3.763   3.075   1.556
 2072HOH     H1 6402   3.705   3.099   1.628
 2072HOH     H2 6403   3.769   3.153   1.503
 2073HOH      O 6404   2.700   1.784   1.848
 2073HOH     H1 6405   2.780   1.733   1.833
 2073HOH     H2 6406   2.709   1.816   1.938
 2074HOH      O 6407   3.533   2.039   1.056
 2074HOH     H1 6408   3.557   2.100   1.126
 2074HOH     H2 6409   3.447   2.006   1.082
 2075HOH      O 6410   2.313   2.882   0.218
 2075HOH     H1 6411   2.295   2.788   0.223
 2075HOH     H2 6412   2.401   2.891   0.256
 2076HOH      O 6413   2.206   0.565   2.143
 2076HOH     H1 6414   2.213   0.536   2.234
 2076HOH     H2 6415   2.202   0.484   2.092
 2077HOH      O 6416   1.205   3.031   3.223
 2077HOH     H1 6417   1.257   3.033   3.143
 2077HOH     H2 6418   1.184   2.938   3.236
 2078HOH      O 6419   0.839   2.118   3.103
 2078HOH     H1 6420   0.925   2.076   3.102
 2078HOH     H2 6421   0.779   2.052   3.070
 2079HOH      O 6422   0.978   3.619   0.659
 2079HOH     H1 6423   0.913   3.678   0.621
 2079HOH     H2 6424   0.941   3.594   0.743
 2080HOH      O 6425   1.109   3.325   1.634
 2080HOH     H1 6426   1.123   3.374   1.716
 2080HOH     H2 6427   1.023   3.286   1.645
 2081HOH      O 6428   0.106   0.612   1.092
 2081HOH     H1 6429   0.128   0.699   1.057
 2081HOH     H2 6430   0.082   0.561   1.016
 2082HOH      O 6431   1.566   0.857   2.004
 2082HOH     H1 6432   1.643   0.869   1.948
 2082HOH     H2 6433   1.571   0.765   2.032
 2083HOH      O 6434   3.026   1.327   3.745
 2083HOH     H1 6435   3.055   1.396   3.686
 2083HOH     H2 6436   3.095   1.261   3.741
 2084HOH      O 6437   1.890   2.297   1.259
 2084HOH     H1 6438   1.889   2.279   1.165
 2084HOH     H2 6439   1.804   2.267   1.289
 2085HOH      O 6440   3.390   0.510   3.588
 2085HOH     H1 6441   3.327   0.439   3.575
 2085HOH     H2 6442   3.476   0.469   3.579
 2086HOH      O 6443   2.678   0.279   1.927
 2086HOH     H1 6444   2.708   0.295   1.837
 2086HOH     H2 6445   2.629   0.358   1.950
 2087HOH      O 6446   1.728   3.796   3.095
 2087HOH     H1 6447   1.797   3.771   3.034
 2087HOH     H2 6448   1.671   3.854   3.043
 2088HOH      O 6449   0.805   1.003   1.282
 2088HOH     H1 6450   0.761   0.984   1.364
 2088HOH     H2 6451   0.891   0.961   1.290
 2089HOH      O 6452   0.937   0.636   1.926
 2089HOH     H1 6453   0.954   0.657   1.834
 2089HOH     H2 6454   0.905   0.717   1.963
 2090HOH      O 6455   0.438   2.332   3.904
 2090HOH     H1 6456   0.486   2.303   3.983
 2090HOH     H2 6457   0.375   2.396   3.937
 2091HOH      O 6458   2.600   2.533   3.678
 2091HOH     H1 6459   2.634   2.555   3.591
 2091HOH     H2 6460   2.513   2.498   3.661
 2092HOH      O 6461   0.794   2.170   0.882
 2092HOH     H1 6462   0.768   2.260   0.864
 2092HOH     H2 6463   0.880   2.178   0.924
 2093HOH      O 6464   2.280   2.985   3.211
 2093HOH     H1 6465   2.359   3.036   3.196
 2093HOH     H2 6466   2.298   2.933   3.289
 2094HOH      O 6467   2.396   2.220   0.232
 2094HOH     H1 6468   2.395   2.234   0.327
 2094HOH     H2 6469   2.392   2.124   0.222
 2095HOH      O 6470   2.368   2.269   0.529
 2095HOH     H1 6471   2.346   2.360   0.546
 2095HOH     H2 6472   2.339   2.221   0.606
 2096HOH      O 6473   0.833   3.869   1.210
 2096HOH     H1 6474   0.901   3.816   1.251
 2096HOH     H2 6475   0.878   3.918   1.142
 2097HOH      O 6476   2.361   2.981   3.938
 2097HOH     H1 6477   2.339   3.003   4.028
 2097HOH     H2 6478   2.417   2.903   3.944
 2098HOH      O 6479   3.682   3.797   2.880
 2098HOH     H1 6480   3.646   3.828   2.797
 2098HOH     H2 6481   3.752   3.859   2.900
 2099HOH      O 6482   2.981   0.326   2.545
 2099HOH     H1 6483   2.999   0.246   2.496
 2099HOH     H2 6484   3.000   0.397   2.483
 2100HOH      O 6485   3.841   3.069   2.569
 2100HOH     H1 6486   3.849   3.161   2.592
 2100HOH     H2 6487   3.888   3.022   2.638
 2101HOH      O 6488   3.739   3.466   3.793
 2101HOH     H1 6489   3.788   3.445   3.872
 2101HOH     H2 6490   3.807   3.480   3.726
 2102HOH      O 6491   3.519   3.138   2.496
 2102HOH     H1 6492   3.464   3.209   2.529
 2102HOH     H2 6493   3.550   3.093   2.575
 2103HOH      O 6494   0.280   3.756   2.036
 2103HOH     H1 6495   0.204   3.698   2.032
 2103HOH     H2 6496   0.335   3.719   2.105
 2104HOH      O 6497   2.990   2.381   2.503
 2104HOH     H1 6498   2.983   2.463   2.454
 2104HOH     H2 6499   2.901   2.345   2.503
 2105HOH      O 6500   2.017   0.152   0.142
 2105HOH     H1 6501   1.998   0.220   0.207
 2105HOH     H2 6502   2.069   0.087   0.190
 2106HOH      O 6503   2.052   3.141   3.595
 2106HOH     H1 6504   2.017   3.173   3.512
 2106HOH     H2 6505   2.141   3.112   3.574
 2107HOH      O 6506   3.207   2.884   3.766
 2107HOH     H1 6507   3.243   2.843   3.687
 2107HOH     H2 6508   3.271   2.866   3.834
 2108HOH      O 6509   1.013   1.521   2.390
 2108HOH     H1 6510   1.099   1.496   2.355
 2108HOH     H2 6511   0.971   1.569   2.319
 2109HOH      O 6512   1.537   3.682   1.874
 2109HOH     H1 6513   1.566   3.593   1.855
 2109HOH     H2 6514   1.504   3.715   1.791
 2110HOH      O 6515   2.300   1.275   1.146
 2110HOH     H1 6516   2.241   1.314   1.211
 2110HOH     H2 6517   2.318   1.346   1.085
 2111HOH      O 6518   0.028   3.935   2.286
 2111HOH     H1 6519  -0.066   3.950   2.284
 2111HOH     H2 6520   0.062   3.985   2.211
   4.02731   4.02731   4.02731   0.00000   0.00000   0.00000   0.00000   0.00000   0.00000
