Generated with MDTraj, t= 27399.0
 6520
    1MOL     C1    1   0.366   3.573   1.329
    1MOL     C2    2   0.392   3.695   1.268
    1MOL     C3    3   0.279   3.780   1.241
    1MOL     C4    4   0.155   3.744   1.287
    1MOL     C5    5   0.132   3.615   1.346
    1MOL     C6    6   0.237   3.522   1.361
    1MOL     C7    7   0.301   3.909   1.173
    1MOL     N1    8   0.313   4.011   1.121
    1MOL     C8    9   0.215   3.386   1.423
    1MOL     O1   10   0.105   3.343   1.429
    1MOL     O2   11   0.307   3.316   1.461
    1MOL     H1   12   0.441   3.497   1.349
    1MOL     H2   13   0.491   3.734   1.245
    1MOL     H3   14   0.080   3.823   1.286
    1MOL     H4   15   0.031   3.589   1.378
    2OCB     C1   16   3.876   0.998   0.585
    2OCB     C2   17   3.645   0.892   0.682
    2OCB     C3   18   3.787   1.078   0.647
    2OCB     C4   19   3.852   0.862   0.572
    2OCB     C5   20   3.728   0.805   0.613
    2OCB     C6   21   3.672   1.025   0.703
    2OCB     O1   22   3.534   0.832   0.740
    2OCB     C7   23   3.583   1.115   0.797
    2OCB     C8   24   3.550   0.794   0.874
    2OCB     O2   25   3.482   0.889   0.957
    2OCB     C9   26   3.554   0.992   1.018
    2OCB    C10   27   3.611   1.097   0.945
    2OCB    C11   28   3.688   1.189   1.018
    2OCB    C12   29   3.562   0.984   1.152
    2OCB    C13   30   3.718   1.172   1.149
    2OCB    C14   31   3.656   1.066   1.215
    2OCB     O3   32   3.706   1.014   1.338
    2OCB    C15   33   3.833   1.253   1.221
    2OCB    C16   34   3.969   1.196   1.191
    2OCB    C17   35   4.015   1.096   1.278
    2OCB    C18   36   3.828   0.946   1.342
    2OCB     O4   37   3.931   1.045   1.379
    2OCB     O5   38   3.938   0.778   0.516
    2OCB    C19   39   3.999   1.049   0.517
    2OCB    C20   40   4.116   1.031   0.616
    2OCB     O6   41   4.175   0.810   0.532
    2OCB    C21   42   4.201   0.917   0.615
    2OCB    C22   43   4.132   1.032   1.245
    2OCB    C23   44   4.213   1.072   1.141
    2OCB    C24   45   4.294   0.892   0.721
    2OCB    C25   46   4.310   0.990   0.818
    2OCB     O7   47   4.333   1.011   1.123
    2OCB     O8   48   4.403   0.969   0.920
    2OCB    C26   49   4.344   0.906   1.028
    2OCB    C27   50   4.135   1.129   0.717
    2OCB    C28   51   4.230   1.109   0.821
    2OCB    C29   52   4.043   1.227   1.075
    2OCB    C30   53   4.249   1.219   0.933
    2OCB    C31   54   4.170   1.176   1.055
    2OCB    C32   55   4.061   0.734   0.581
    2OCB    C33   56   3.831   1.408   1.193
    2OCB    C34   57   3.915   1.493   1.287
    2OCB    C35   58   3.922   1.639   1.250
    2OCB     O9   59   3.826   1.713   1.257
    2OCB    C36   60   3.554   1.265   0.760
    2OCB    C37   61   3.435   1.337   0.825
    2OCB    C38   62   3.377   1.447   0.741
    2OCB    O10   63   3.306   1.421   0.648
    2OCB    C39   64   3.993   1.189   0.450
    2OCB    C40   65   4.091   1.207   0.329
    2OCB    C41   66   4.036   1.306   0.236
    2OCB    O11   67   3.963   1.269   0.143
    2OCB    C42   68   4.227   1.366   0.878
    2OCB    C43   69   4.336   1.415   0.774
    2OCB    C44   70   4.480   1.426   0.818
    2OCB    O12   71   4.520   1.528   0.866
    2OCB    C45   72   3.499   0.659   0.898
    2OCB    C46   73   3.407   0.397   0.931
    2OCB    C47   74   3.447   0.615   1.022
    2OCB    C48   75   3.491   0.571   0.790
    2OCB    C49   76   3.454   0.441   0.811
    2OCB    C50   77   3.401   0.483   1.041
    2OCB    C51   78   4.080   0.582   0.555
    2OCB    C52   79   4.105   0.302   0.547
    2OCB    C53   80   4.198   0.520   0.590
    2OCB    C54   81   3.972   0.495   0.519
    2OCB    C55   82   3.983   0.360   0.520
    2OCB    C56   83   4.212   0.382   0.592
    2OCB    C57   84   4.430   0.792   1.083
    2OCB    C58   85   4.603   0.587   1.183
    2OCB    C59   86   4.450   0.775   1.223
    2OCB    C60   87   4.486   0.700   0.996
    2OCB    C61   88   4.571   0.599   1.045
    2OCB    C62   89   4.535   0.678   1.271
    2OCB    C63   90   3.833   0.833   1.452
    2OCB    C64   91   3.871   0.595   1.596
    2OCB    C65   92   3.961   0.793   1.502
    2OCB    C66   93   3.725   0.745   1.477
    2OCB    C67   94   3.745   0.629   1.554
    2OCB    C68   95   3.981   0.678   1.579
    2OCB    O13   96   3.877   0.277   0.480
    2OCB    O14   97   4.631   0.505   0.959
    2OCB    O15   98   4.539   0.655   1.409
    2OCB    O16   99   3.470   0.342   0.713
    2OCB    O17  100   3.385   0.422   1.166
    2OCB    O18  101   4.100   0.641   1.635
    2OCB    O19  102   3.639   0.541   1.569
    2OCB    C69  103   4.587   0.487   0.832
    2OCB    C70  104   4.513   0.460   0.570
    2OCB    C71  105   4.478   0.399   0.802
    2OCB    C72  106   4.660   0.553   0.735
    2OCB    C73  107   4.626   0.541   0.600
    2OCB    C74  108   4.443   0.389   0.669
    2OCB    O20  109   4.332   0.319   0.626
    2OCB    C75  110   3.543   0.350   0.596
    2OCB    C76  111   3.678   0.334   0.360
    2OCB    C77  112   3.479   0.393   0.483
    2OCB    C78  113   3.677   0.317   0.598
    2OCB    C79  114   3.748   0.314   0.480
    2OCB    C80  115   3.543   0.376   0.358
    2OCB    C81  116   4.439   0.707   1.490
    2OCB    C82  117   4.252   0.817   1.667
    2OCB    C83  118   4.476   0.816   1.560
    2OCB    C84  119   4.320   0.638   1.512
    2OCB    C85  120   4.221   0.694   1.605
    2OCB    C86  121   4.376   0.878   1.641
    2OCB    C87  122   4.411   1.006   1.715
    2OCB    O21  123   4.324   1.044   1.786
    2OCB    C88  124   3.190   0.716   1.491
    2OCB    O22  125   3.106   0.755   1.412
    2OCB    C89  126   3.471   0.404   0.226
    2OCB    O23  127   3.535   0.397   0.119
    2OCB    O24  128   4.019   1.677   1.186
    2OCB    O25  129   4.561   1.340   0.803
    2OCB    O26  130   4.097   1.411   0.223
    2OCB    C90  131   4.700   0.615   0.492
    2OCB    O27  132   4.651   0.613   0.380
    2OCB    O28  133   3.182   0.766   1.599
    2OCB    O29  134   4.508   1.072   1.690
    2OCB    O30  135   4.790   0.691   0.519
    2OCB    O31  136   3.355   0.430   0.219
    2OCB    O32  137   3.394   1.560   0.781
    2OCB    C91  138   3.409   0.482   1.292
    2OCB    C92  139   3.417   0.625   1.537
    2OCB    C93  140   3.529   0.481   1.367
    2OCB    C94  141   3.310   0.558   1.337
    2OCB    C95  142   3.310   0.633   1.450
    2OCB    C96  143   3.526   0.544   1.488
    2OCB    C97  144   3.652   0.413   1.310
    2OCB    C98  145   3.738   0.279   0.736
    2OCB    C99  146   4.394   0.323   0.908
    2OCB      C  147   4.294   0.516   1.433
    2OCB     H1  148   3.807   1.185   0.657
    2OCB     H2  149   3.708   0.700   0.592
    2OCB     H3  150   3.486   1.068   0.776
    2OCB     H4  151   3.654   0.792   0.910
    2OCB     H5  152   3.736   1.268   0.961
    2OCB     H6  153   3.526   0.897   1.208
    2OCB     H7  154   3.808   1.242   1.326
    2OCB     H8  155   3.859   0.897   1.248
    2OCB     H9  156   4.011   0.990   0.425
    2OCB    H10  157   4.164   0.954   1.313
    2OCB    H11  158   4.348   0.799   0.739
    2OCB    H12  159   4.244   0.868   1.003
    2OCB    H13  160   4.069   1.215   0.723
    2OCB    H14  161   3.998   1.294   1.001
    2OCB    H15  162   4.356   1.216   0.957
    2OCB    H16  163   4.061   0.746   0.690
    2OCB    H17  164   3.868   1.431   1.093
    2OCB    H18  165   3.725   1.436   1.190
    2OCB    H19  166   3.886   1.487   1.392
    2OCB    H20  167   4.018   1.456   1.296
    2OCB    H21  168   3.548   1.265   0.651
    2OCB    H22  169   3.647   1.319   0.778
    2OCB    H23  170   3.365   1.258   0.852
    2OCB    H24  171   3.477   1.373   0.920
    2OCB    H25  172   3.890   1.206   0.419
    2OCB    H26  173   4.013   1.276   0.514
    2OCB    H27  174   4.187   1.228   0.376
    2OCB    H28  175   4.098   1.110   0.279
    2OCB    H29  176   4.126   1.380   0.838
    2OCB    H30  177   4.237   1.432   0.964
    2OCB    H31  178   4.325   1.343   0.692
    2OCB    H32  179   4.307   1.515   0.740
    2OCB    H33  180   3.383   0.291   0.934
    2OCB    H34  181   3.438   0.684   1.106
    2OCB    H35  182   3.535   0.602   0.696
    2OCB    H36  183   4.112   0.194   0.543
    2OCB    H37  184   4.282   0.585   0.613
    2OCB    H38  185   3.875   0.536   0.492
    2OCB    H39  186   4.669   0.512   1.224
    2OCB    H40  187   4.401   0.845   1.291
    2OCB    H41  188   4.467   0.709   0.889
    2OCB    H42  189   3.877   0.507   1.659
    2OCB    H43  190   4.045   0.857   1.475
    2OCB    H44  191   3.627   0.768   1.436
    2OCB    H45  192   4.484   0.453   0.465
    2OCB    H46  193   4.751   0.610   0.751
    2OCB    H47  194   3.726   0.321   0.263
    2OCB    H48  195   3.375   0.420   0.492
    2OCB    H49  196   4.173   0.867   1.721
    2OCB    H50  197   4.577   0.854   1.545
    2OCB    H51  198   3.425   0.683   1.629
    2OCB    H52  199   3.231   0.574   1.264
    2OCB    H53  200   3.735   0.479   1.284
    2OCB    H54  201   3.687   0.350   1.392
    2OCB    H55  202   3.627   0.362   1.217
    2OCB    H56  203   3.834   0.330   0.750
    2OCB    H57  204   3.673   0.300   0.820
    2OCB    H58  205   3.752   0.171   0.744
    2OCB    H59  206   4.437   0.331   1.008
    2OCB    H60  207   4.299   0.376   0.908
    2OCB    H61  208   4.382   0.218   0.878
    2OCB    H62  209   4.185   0.506   1.427
    2OCB    H63  210   4.330   0.529   1.331
    2OCB    H64  211   4.334   0.426   1.482
    3Na+    Na+  212   1.969   3.280   3.417
    4Na+    Na+  213   0.865   1.046   0.214
    5Na+    Na+  214   0.219   3.897   2.778
    6Na+    Na+  215   2.611   2.761   0.665
    7Na+    Na+  216   2.660   1.911   1.128
    8Na+    Na+  217   0.376   1.884   1.115
    9Na+    Na+  218   1.900   0.530   1.614
   10Na+    Na+  219   3.840   2.532   2.185
   11Na+    Na+  220   3.879   2.900   0.971
   12HOH      O  221   3.060   2.050   0.411
   12HOH     H1  222   2.967   2.053   0.437
   12HOH     H2  223   3.104   2.013   0.488
   13HOH      O  224   1.055   1.944   3.563
   13HOH     H1  225   1.097   1.869   3.520
   13HOH     H2  226   1.093   1.945   3.651
   14HOH      O  227   1.762   3.436   2.382
   14HOH     H1  228   1.722   3.350   2.369
   14HOH     H2  229   1.856   3.418   2.383
   15HOH      O  230   0.727   0.971   1.691
   15HOH     H1  231   0.756   1.017   1.770
   15HOH     H2  232   0.632   0.978   1.693
   16HOH      O  233   1.881   0.751   1.742
   16HOH     H1  234   1.925   0.741   1.827
   16HOH     H2  235   1.870   0.846   1.732
   17HOH      O  236   2.337   0.407   1.702
   17HOH     H1  237   2.396   0.435   1.632
   17HOH     H2  238   2.344   0.312   1.704
   18HOH      O  239   4.048   2.160   3.877
   18HOH     H1  240   4.046   2.194   3.787
   18HOH     H2  241   3.961   2.179   3.911
   19HOH      O  242   2.799   1.836   0.921
   19HOH     H1  243   2.740   1.799   0.856
   19HOH     H2  244   2.852   1.899   0.873
   20HOH      O  245   2.488   0.511   1.179
   20HOH     H1  246   2.523   0.595   1.211
   20HOH     H2  247   2.430   0.482   1.250
   21HOH      O  248   3.644   3.986   1.845
   21HOH     H1  249   3.566   3.962   1.895
   21HOH     H2  250   3.652   4.081   1.857
   22HOH      O  251   3.509   1.513   1.446
   22HOH     H1  252   3.536   1.550   1.362
   22HOH     H2  253   3.464   1.432   1.423
   23HOH      O  254   2.423   0.055   1.951
   23HOH     H1  255   2.376   0.004   1.886
   23HOH     H2  256   2.466  -0.010   2.006
   24HOH      O  257   1.424   1.639   2.368
   24HOH     H1  258   1.507   1.656   2.323
   24HOH     H2  259   1.450   1.611   2.456
   25HOH      O  260   1.528   1.748   3.974
   25HOH     H1  261   1.556   1.716   4.060
   25HOH     H2  262   1.461   1.814   3.993
   26HOH      O  263   0.023   3.823   4.039
   26HOH     H1  264   0.028   3.745   3.985
   26HOH     H2  265   0.044   3.895   3.979
   27HOH      O  266   3.375   0.491   3.544
   27HOH     H1  267   3.455   0.441   3.557
   27HOH     H2  268   3.329   0.485   3.628
   28HOH      O  269   1.142   1.615   1.647
   28HOH     H1  270   1.058   1.649   1.677
   28HOH     H2  271   1.140   1.523   1.670
   29HOH      O  272   2.484   3.895   0.650
   29HOH     H1  273   2.498   3.802   0.638
   29HOH     H2  274   2.483   3.908   0.745
   30HOH      O  275   0.386   3.154   2.267
   30HOH     H1  276   0.316   3.202   2.224
   30HOH     H2  277   0.466   3.183   2.222
   31HOH      O  278   1.239   0.882   2.100
   31HOH     H1  279   1.217   0.791   2.078
   31HOH     H2  280   1.301   0.909   2.033
   32HOH      O  281   2.741   0.098   3.159
   32HOH     H1  282   2.784   0.067   3.079
   32HOH     H2  283   2.686   0.025   3.186
   33HOH      O  284   3.201   3.632   2.362
   33HOH     H1  285   3.193   3.727   2.369
   33HOH     H2  286   3.294   3.614   2.376
   34HOH      O  287   3.376   3.718   2.658
   34HOH     H1  288   3.401   3.707   2.566
   34HOH     H2  289   3.426   3.793   2.688
   35HOH      O  290   1.031   0.535   1.768
   35HOH     H1  291   0.987   0.594   1.707
   35HOH     H2  292   0.988   0.450   1.756
   36HOH      O  293   1.757   0.440   3.249
   36HOH     H1  294   1.824   0.505   3.271
   36HOH     H2  295   1.757   0.379   3.323
   37HOH      O  296   3.465   2.501   0.896
   37HOH     H1  297   3.415   2.436   0.945
   37HOH     H2  298   3.490   2.566   0.961
   38HOH      O  299   1.096   2.331   1.089
   38HOH     H1  300   1.174   2.384   1.073
   38HOH     H2  301   1.094   2.318   1.184
   39HOH      O  302   1.842   2.404   0.708
   39HOH     H1  303   1.803   2.442   0.629
   39HOH     H2  304   1.884   2.323   0.678
   40HOH      O  305   3.842   3.250   2.364
   40HOH     H1  306   3.817   3.168   2.407
   40HOH     H2  307   3.845   3.228   2.271
   41HOH      O  308   2.437   2.169   0.950
   41HOH     H1  309   2.522   2.127   0.962
   41HOH     H2  310   2.392   2.156   1.033
   42HOH      O  311   1.310   2.785   0.889
   42HOH     H1  312   1.302   2.852   0.821
   42HOH     H2  313   1.304   2.702   0.841
   43HOH      O  314   2.052   1.396   0.974
   43HOH     H1  315   1.987   1.395   0.904
   43HOH     H2  316   2.071   1.304   0.991
   44HOH      O  317   2.935   3.618   2.107
   44HOH     H1  318   2.851   3.613   2.062
   44HOH     H2  319   2.981   3.539   2.081
   45HOH      O  320   2.500   1.844   3.923
   45HOH     H1  321   2.467   1.756   3.944
   45HOH     H2  322   2.537   1.835   3.835
   46HOH      O  323   2.760   0.724   0.825
   46HOH     H1  324   2.790   0.645   0.870
   46HOH     H2  325   2.759   0.792   0.893
   47HOH      O  326   2.904   1.279   0.701
   47HOH     H1  327   2.971   1.212   0.719
   47HOH     H2  328   2.950   1.362   0.710
   48HOH      O  329   2.041   1.802   3.687
   48HOH     H1  330   1.973   1.799   3.620
   48HOH     H2  331   1.994   1.811   3.770
   49HOH      O  332   4.000   0.567   3.427
   49HOH     H1  333   3.908   0.541   3.417
   49HOH     H2  334   4.000   0.625   3.503
   50HOH      O  335   3.699   3.545   3.781
   50HOH     H1  336   3.769   3.600   3.747
   50HOH     H2  337   3.730   3.518   3.868
   51HOH      O  338   3.980   0.204   1.788
   51HOH     H1  339   3.980   0.152   1.867
   51HOH     H2  340   4.043   0.274   1.805
   52HOH      O  341   2.306   0.926   0.607
   52HOH     H1  342   2.314   0.830   0.604
   52HOH     H2  343   2.368   0.953   0.675
   53HOH      O  344   4.001   0.876   0.969
   53HOH     H1  345   3.924   0.829   1.003
   53HOH     H2  346   3.971   0.967   0.961
   54HOH      O  347   1.664   2.930   0.714
   54HOH     H1  348   1.673   2.864   0.783
   54HOH     H2  349   1.606   2.996   0.752
   55HOH      O  350   1.422   0.859   3.310
   55HOH     H1  351   1.482   0.907   3.367
   55HOH     H2  352   1.474   0.784   3.280
   56HOH      O  353   1.073   2.553   3.062
   56HOH     H1  354   1.163   2.570   3.088
   56HOH     H2  355   1.025   2.547   3.144
   57HOH      O  356   0.088   2.927   2.204
   57HOH     H1  357   0.164   2.934   2.147
   57HOH     H2  358   0.082   3.012   2.248
   58HOH      O  359   2.389   1.075   0.380
   58HOH     H1  360   2.340   1.071   0.462
   58HOH     H2  361   2.446   1.152   0.389
   59HOH      O  362   1.647   3.823   0.875
   59HOH     H1  363   1.680   3.909   0.850
   59HOH     H2  364   1.674   3.765   0.804
   60HOH      O  365   2.489   2.043   1.742
   60HOH     H1  366   2.532   2.017   1.823
   60HOH     H2  367   2.446   1.963   1.711
   61HOH      O  368   2.986   2.762   0.712
   61HOH     H1  369   2.899   2.745   0.749
   61HOH     H2  370   3.046   2.718   0.771
   62HOH      O  371   2.685   3.584   0.880
   62HOH     H1  372   2.621   3.621   0.819
   62HOH     H2  373   2.679   3.490   0.867
   63HOH      O  374   3.313   0.086   2.507
   63HOH     H1  375   3.336   0.170   2.548
   63HOH     H2  376   3.278   0.034   2.579
   64HOH      O  377   2.899   2.939   1.643
   64HOH     H1  378   2.867   2.864   1.693
   64HOH     H2  379   2.861   3.015   1.687
   65HOH      O  380   2.984   3.865   0.965
   65HOH     H1  381   3.003   3.912   1.046
   65HOH     H2  382   3.067   3.863   0.918
   66HOH      O  383   2.889   2.784   1.041
   66HOH     H1  384   2.936   2.708   1.008
   66HOH     H2  385   2.906   2.783   1.136
   67HOH      O  386   0.567   0.738   2.994
   67HOH     H1  387   0.543   0.732   3.087
   67HOH     H2  388   0.645   0.793   2.994
   68HOH      O  389   3.069   3.404   1.793
   68HOH     H1  390   3.106   3.480   1.748
   68HOH     H2  391   3.077   3.426   1.886
   69HOH      O  392   2.616   3.182   0.579
   69HOH     H1  393   2.694   3.218   0.622
   69HOH     H2  394   2.572   3.258   0.542
   70HOH      O  395   3.091   3.820   3.103
   70HOH     H1  396   3.156   3.891   3.098
   70HOH     H2  397   3.135   3.751   3.153
   71HOH      O  398   1.976   0.782   2.842
   71HOH     H1  399   1.939   0.762   2.928
   71HOH     H2  400   1.900   0.782   2.783
   72HOH      O  401   2.134   0.468   1.242
   72HOH     H1  402   2.073   0.510   1.302
   72HOH     H2  403   2.209   0.444   1.297
   73HOH      O  404   0.146   0.644   0.889
   73HOH     H1  405   0.113   0.565   0.932
   73HOH     H2  406   0.074   0.706   0.894
   74HOH      O  407   1.109   1.701   3.134
   74HOH     H1  408   1.132   1.676   3.044
   74HOH     H2  409   1.032   1.756   3.125
   75HOH      O  410   2.285   3.466   0.288
   75HOH     H1  411   2.195   3.443   0.263
   75HOH     H2  412   2.281   3.559   0.310
   76HOH      O  413   1.279   1.878   2.375
   76HOH     H1  414   1.340   1.804   2.366
   76HOH     H2  415   1.207   1.843   2.428
   77HOH      O  416   3.725   1.029   2.980
   77HOH     H1  417   3.644   1.042   3.030
   77HOH     H2  418   3.696   0.987   2.899
   78HOH      O  419   1.633   2.385   0.208
   78HOH     H1  420   1.714   2.394   0.157
   78HOH     H2  421   1.611   2.474   0.235
   79HOH      O  422   3.852   2.304   1.693
   79HOH     H1  423   3.882   2.380   1.744
   79HOH     H2  424   3.762   2.290   1.722
   80HOH      O  425   1.575   0.792   1.183
   80HOH     H1  426   1.543   0.784   1.273
   80HOH     H2  427   1.551   0.880   1.156
   81HOH      O  428   3.333   2.793   2.957
   81HOH     H1  429   3.261   2.819   2.900
   81HOH     H2  430   3.301   2.811   3.046
   82HOH      O  431   0.883   3.025   1.236
   82HOH     H1  432   0.792   3.037   1.265
   82HOH     H2  433   0.902   2.934   1.256
   83HOH      O  434   1.310   1.928   0.019
   83HOH     H1  435   1.222   1.894   0.036
   83HOH     H2  436   1.297   2.020   0.000
   84HOH      O  437   2.493   2.071   2.773
   84HOH     H1  438   2.580   2.036   2.754
   84HOH     H2  439   2.472   2.038   2.860
   85HOH      O  440   2.841   3.355   4.021
   85HOH     H1  441   2.915   3.338   3.963
   85HOH     H2  442   2.854   3.295   4.094
   86HOH      O  443   2.016   3.154   3.215
   86HOH     H1  444   2.015   3.201   3.132
   86HOH     H2  445   2.090   3.093   3.208
   87HOH      O  446   1.094   1.344   1.816
   87HOH     H1  447   1.020   1.369   1.871
   87HOH     H2  448   1.156   1.303   1.876
   88HOH      O  449   0.117   0.247   3.123
   88HOH     H1  450   0.197   0.194   3.120
   88HOH     H2  451   0.097   0.264   3.031
   89HOH      O  452   2.642   1.275   2.247
   89HOH     H1  453   2.566   1.267   2.189
   89HOH     H2  454   2.606   1.273   2.335
   90HOH      O  455   2.951   3.065   1.134
   90HOH     H1  456   2.951   3.021   1.219
   90HOH     H2  457   2.898   3.144   1.148
   91HOH      O  458   1.791   0.692   3.642
   91HOH     H1  459   1.764   0.610   3.683
   91HOH     H2  460   1.863   0.723   3.697
   92HOH      O  461   3.420   3.618   3.805
   92HOH     H1  462   3.491   3.583   3.751
   92HOH     H2  463   3.464   3.678   3.866
   93HOH      O  464   1.155   3.011   2.113
   93HOH     H1  465   1.070   2.972   2.094
   93HOH     H2  466   1.134   3.098   2.148
   94HOH      O  467   1.404   3.132   1.580
   94HOH     H1  468   1.481   3.149   1.526
   94HOH     H2  469   1.332   3.121   1.517
   95HOH      O  470   0.004   2.798   3.481
   95HOH     H1  471  -0.004   2.883   3.438
   95HOH     H2  472   0.090   2.765   3.456
   96HOH      O  473   3.903   2.517   1.186
   96HOH     H1  474   3.861   2.454   1.127
   96HOH     H2  475   3.850   2.516   1.265
   97HOH      O  476   3.518   2.161   1.141
   97HOH     H1  477   3.484   2.073   1.125
   97HOH     H2  478   3.612   2.147   1.154
   98HOH      O  479   2.644   0.240   1.807
   98HOH     H1  480   2.693   0.268   1.884
   98HOH     H2  481   2.558   0.216   1.840
   99HOH      O  482   0.789   1.500   0.334
   99HOH     H1  483   0.737   1.566   0.286
   99HOH     H2  484   0.805   1.540   0.419
  100HOH      O  485   1.781   3.013   2.521
  100HOH     H1  486   1.807   3.048   2.436
  100HOH     H2  487   1.760   3.090   2.574
  101HOH      O  488   2.767   1.514   1.447
  101HOH     H1  489   2.844   1.458   1.437
  101HOH     H2  490   2.700   1.473   1.393
  102HOH      O  491   3.577   2.547   3.900
  102HOH     H1  492   3.608   2.530   3.988
  102HOH     H2  493   3.484   2.523   3.902
  103HOH      O  494   2.469   3.772   0.052
  103HOH     H1  495   2.495   3.688   0.091
  103HOH     H2  496   2.442   3.749  -0.037
  104HOH      O  497   0.795   0.311   0.304
  104HOH     H1  498   0.864   0.378   0.308
  104HOH     H2  499   0.718   0.358   0.271
  105HOH      O  500   0.674   3.696   2.129
  105HOH     H1  501   0.746   3.653   2.082
  105HOH     H2  502   0.717   3.750   2.194
  106HOH      O  503   0.234   1.242   2.753
  106HOH     H1  504   0.239   1.333   2.781
  106HOH     H2  505   0.284   1.238   2.672
  107HOH      O  506   0.664   3.821   1.456
  107HOH     H1  507   0.659   3.866   1.371
  107HOH     H2  508   0.755   3.832   1.484
  108HOH      O  509   1.690   3.396   0.938
  108HOH     H1  510   1.756   3.455   0.974
  108HOH     H2  511   1.720   3.379   0.849
  109HOH      O  512   3.627   2.529   0.148
  109HOH     H1  513   3.682   2.604   0.130
  109HOH     H2  514   3.682   2.470   0.200
  110HOH      O  515   2.377   2.919   2.761
  110HOH     H1  516   2.364   3.011   2.786
  110HOH     H2  517   2.399   2.875   2.844
  111HOH      O  518   3.768   1.878   1.449
  111HOH     H1  519   3.693   1.847   1.500
  111HOH     H2  520   3.784   1.809   1.385
  112HOH      O  521   0.884   0.299   1.748
  112HOH     H1  522   0.797   0.315   1.710
  112HOH     H2  523   0.868   0.231   1.814
  113HOH      O  524   0.919   1.609   3.562
  113HOH     H1  525   0.984   1.582   3.628
  113HOH     H2  526   0.969   1.617   3.481
  114HOH      O  527   2.243   0.256   2.896
  114HOH     H1  528   2.335   0.247   2.871
  114HOH     H2  529   2.225   0.350   2.887
  115HOH      O  530   1.027   1.088   3.085
  115HOH     H1  531   0.946   1.092   3.136
  115HOH     H2  532   1.094   1.067   3.150
  116HOH      O  533   2.707   2.625   0.845
  116HOH     H1  534   2.665   2.632   0.931
  116HOH     H2  535   2.769   2.553   0.854
  117HOH      O  536   1.248   3.753   2.797
  117HOH     H1  537   1.280   3.663   2.808
  117HOH     H2  538   1.186   3.747   2.724
  118HOH      O  539   0.869   0.824   2.765
  118HOH     H1  540   0.891   0.903   2.716
  118HOH     H2  541   0.864   0.853   2.856
  119HOH      O  542   2.613   1.709   0.760
  119HOH     H1  543   2.630   1.619   0.787
  119HOH     H2  544   2.659   1.719   0.677
  120HOH      O  545   0.337   2.554   1.073
  120HOH     H1  546   0.295   2.472   1.045
  120HOH     H2  547   0.421   2.526   1.110
  121HOH      O  548   1.284   3.025   3.627
  121HOH     H1  549   1.358   3.086   3.632
  121HOH     H2  550   1.247   3.024   3.715
  122HOH      O  551   2.294   2.509   0.071
  122HOH     H1  552   2.245   2.437   0.032
  122HOH     H2  553   2.311   2.568  -0.002
  123HOH      O  554   1.358   1.442   3.679
  123HOH     H1  555   1.438   1.423   3.728
  123HOH     H2  556   1.382   1.430   3.588
  124HOH      O  557   1.021   2.389   1.650
  124HOH     H1  558   0.967   2.314   1.626
  124HOH     H2  559   1.074   2.358   1.724
  125HOH      O  560   1.003   1.314   1.551
  125HOH     H1  561   1.072   1.305   1.617
  125HOH     H2  562   1.017   1.241   1.491
  126HOH      O  563   0.341   2.430   1.944
  126HOH     H1  564   0.354   2.489   1.870
  126HOH     H2  565   0.249   2.403   1.937
  127HOH      O  566   1.566   1.241   2.085
  127HOH     H1  567   1.634   1.175   2.097
  127HOH     H2  568   1.612   1.324   2.078
  128HOH      O  569   3.507   1.460   3.736
  128HOH     H1  570   3.426   1.473   3.687
  128HOH     H2  571   3.497   1.516   3.813
  129HOH      O  572   3.132   1.504   3.123
  129HOH     H1  573   3.075   1.496   3.047
  129HOH     H2  574   3.095   1.577   3.173
  130HOH      O  575   3.708   0.580   3.474
  130HOH     H1  576   3.668   0.513   3.530
  130HOH     H2  577   3.696   0.662   3.523
  131HOH      O  578   3.530   3.819   1.229
  131HOH     H1  579   3.494   3.900   1.193
  131HOH     H2  580   3.622   3.821   1.206
  132HOH      O  581   3.088   3.817   3.585
  132HOH     H1  582   2.995   3.836   3.598
  132HOH     H2  583   3.132   3.863   3.656
  133HOH      O  584   2.043   1.634   0.522
  133HOH     H1  585   2.083   1.683   0.450
  133HOH     H2  586   2.057   1.688   0.599
  134HOH      O  587   1.635   0.095   2.289
  134HOH     H1  588   1.582   0.061   2.361
  134HOH     H2  589   1.585   0.074   2.210
  135HOH      O  590   2.478   3.921   1.514
  135HOH     H1  591   2.562   3.881   1.490
  135HOH     H2  592   2.496   4.015   1.515
  136HOH      O  593   2.987   4.004   3.775
  136HOH     H1  594   2.913   4.030   3.829
  136HOH     H2  595   3.059   3.989   3.837
  137HOH      O  596   2.726   3.819   2.348
  137HOH     H1  597   2.790   3.855   2.410
  137HOH     H2  598   2.757   3.730   2.330
  138HOH      O  599   3.009   2.696   0.465
  138HOH     H1  600   3.000   2.753   0.541
  138HOH     H2  601   3.100   2.667   0.467
  139HOH      O  602   3.105   3.985   1.832
  139HOH     H1  603   3.087   3.931   1.909
  139HOH     H2  604   3.031   3.968   1.773
  140HOH      O  605   2.646   0.573   3.134
  140HOH     H1  606   2.741   0.560   3.126
  140HOH     H2  607   2.614   0.491   3.172
  141HOH      O  608   0.195   1.544   2.527
  141HOH     H1  609   0.217   1.454   2.503
  141HOH     H2  610   0.279   1.584   2.549
  142HOH      O  611   3.513   1.348   2.635
  142HOH     H1  612   3.600   1.359   2.595
  142HOH     H2  613   3.486   1.438   2.656
  143HOH      O  614   1.189   2.828   1.138
  143HOH     H1  615   1.248   2.822   1.063
  143HOH     H2  616   1.231   2.776   1.206
  144HOH      O  617   0.524   3.825   0.043
  144HOH     H1  618   0.448   3.843   0.098
  144HOH     H2  619   0.543   3.909   0.000
  145HOH      O  620   3.478   0.686   3.916
  145HOH     H1  621   3.571   0.675   3.936
  145HOH     H2  622   3.456   0.770   3.955
  146HOH      O  623   0.567   3.030   0.647
  146HOH     H1  624   0.650   3.065   0.679
  146HOH     H2  625   0.590   2.984   0.567
  147HOH      O  626   1.485   0.798  -0.018
  147HOH     H1  627   1.484   0.834   0.071
  147HOH     H2  628   1.393   0.783  -0.039
  148HOH      O  629   0.882   1.727   0.038
  148HOH     H1  630   0.867   1.787  -0.036
  148HOH     H2  631   0.795   1.692   0.057
  149HOH      O  632   1.813   0.295   3.019
  149HOH     H1  633   1.899   0.260   3.044
  149HOH     H2  634   1.791   0.356   3.089
  150HOH      O  635   3.777   2.918   0.258
  150HOH     H1  636   3.792   2.871   0.176
  150HOH     H2  637   3.727   2.857   0.312
  151HOH      O  638   0.661   3.890   0.986
  151HOH     H1  639   0.656   3.799   0.957
  151HOH     H2  640   0.709   3.934   0.916
  152HOH      O  641   1.628   2.564   2.653
  152HOH     H1  642   1.705   2.591   2.602
  152HOH     H2  643   1.596   2.645   2.692
  153HOH      O  644   3.861   1.097   2.296
  153HOH     H1  645   3.880   1.074   2.205
  153HOH     H2  646   3.944   1.129   2.331
  154HOH      O  647   0.204   1.990   0.569
  154HOH     H1  648   0.271   1.922   0.574
  154HOH     H2  649   0.145   1.960   0.501
  155HOH      O  650   0.787   1.072   0.436
  155HOH     H1  651   0.716   1.013   0.460
  155HOH     H2  652   0.767   1.153   0.483
  156HOH      O  653   3.602   3.686   1.869
  156HOH     H1  654   3.675   3.749   1.863
  156HOH     H2  655   3.526   3.736   1.840
  157HOH      O  656   0.305   0.849   1.959
  157HOH     H1  657   0.294   0.907   1.884
  157HOH     H2  658   0.237   0.783   1.949
  158HOH      O  659   1.447   1.246   2.361
  158HOH     H1  660   1.490   1.274   2.280
  158HOH     H2  661   1.354   1.257   2.343
  159HOH      O  662   2.361   3.663   1.869
  159HOH     H1  663   2.431   3.622   1.818
  159HOH     H2  664   2.364   3.755   1.843
  160HOH      O  665   2.121   3.061   1.664
  160HOH     H1  666   2.092   3.053   1.574
  160HOH     H2  667   2.145   2.972   1.690
  161HOH      O  668   2.769   0.699   2.703
  161HOH     H1  669   2.768   0.609   2.734
  161HOH     H2  670   2.678   0.718   2.679
  162HOH      O  671   2.291   0.093   1.152
  162HOH     H1  672   2.211   0.102   1.204
  162HOH     H2  673   2.319   0.003   1.167
  163HOH      O  674   0.779   2.554   2.310
  163HOH     H1  675   0.865   2.516   2.289
  163HOH     H2  676   0.798   2.644   2.335
  164HOH      O  677   2.916   2.824   2.469
  164HOH     H1  678   2.989   2.873   2.432
  164HOH     H2  679   2.945   2.733   2.470
  165HOH      O  680   2.158   3.004   2.588
  165HOH     H1  681   2.214   2.942   2.634
  165HOH     H2  682   2.207   3.086   2.590
  166HOH      O  683   1.453   0.730   1.452
  166HOH     H1  684   1.391   0.790   1.494
  166HOH     H2  685   1.399   0.658   1.420
  167HOH      O  686   3.960   1.106   3.641
  167HOH     H1  687   4.035   1.056   3.673
  167HOH     H2  688   3.951   1.079   3.549
  168HOH      O  689   0.085   0.671   1.913
  168HOH     H1  690  -0.002   0.660   1.951
  168HOH     H2  691   0.071   0.672   1.819
  169HOH      O  692   1.968   2.939   2.822
  169HOH     H1  693   1.894   2.994   2.849
  169HOH     H2  694   2.004   2.983   2.745
  170HOH      O  695   0.443   1.697   3.889
  170HOH     H1  696   0.415   1.725   3.976
  170HOH     H2  697   0.373   1.640   3.858
  171HOH      O  698   0.557   2.036   2.370
  171HOH     H1  699   0.571   2.014   2.279
  171HOH     H2  700   0.565   2.131   2.373
  172HOH      O  701   3.944   3.323   1.626
  172HOH     H1  702   4.020   3.328   1.567
  172HOH     H2  703   3.938   3.410   1.664
  173HOH      O  704   3.627   3.131   3.439
  173HOH     H1  705   3.548   3.092   3.476
  173HOH     H2  706   3.687   3.138   3.513
  174HOH      O  707   0.118   3.658   3.137
  174HOH     H1  708   0.045   3.596   3.144
  174HOH     H2  709   0.087   3.737   3.181
  175HOH      O  710   3.824   2.892   1.669
  175HOH     H1  711   3.753   2.888   1.606
  175HOH     H2  712   3.842   2.800   1.690
  176HOH      O  713   2.462   3.436   3.676
  176HOH     H1  714   2.407   3.512   3.658
  176HOH     H2  715   2.535   3.444   3.614
  177HOH      O  716   1.768   0.882   0.981
  177HOH     H1  717   1.850   0.855   0.940
  177HOH     H2  718   1.752   0.816   1.048
  178HOH      O  719   1.750   1.241   3.905
  178HOH     H1  720   1.662   1.231   3.940
  178HOH     H2  721   1.766   1.159   3.858
  179HOH      O  722   1.653   1.143   3.522
  179HOH     H1  723   1.652   1.084   3.597
  179HOH     H2  724   1.732   1.120   3.474
  180HOH      O  725   2.097   3.037   1.023
  180HOH     H1  726   2.116   2.958   0.972
  180HOH     H2  727   2.105   3.109   0.960
  181HOH      O  728   1.327   0.168   0.214
  181HOH     H1  729   1.249   0.136   0.258
  181HOH     H2  730   1.337   0.258   0.246
  182HOH      O  731   1.030   3.700   0.692
  182HOH     H1  732   0.987   3.734   0.770
  182HOH     H2  733   0.988   3.746   0.619
  183HOH      O  734   3.851   1.885   0.096
  183HOH     H1  735   3.843   1.797   0.134
  183HOH     H2  736   3.929   1.880   0.041
  184HOH      O  737   1.565   0.671   1.773
  184HOH     H1  738   1.604   0.756   1.790
  184HOH     H2  739   1.619   0.633   1.704
  185HOH      O  740   0.887   3.933   2.863
  185HOH     H1  741   0.803   3.970   2.835
  185HOH     H2  742   0.879   3.923   2.958
  186HOH      O  743   2.507   0.767   2.630
  186HOH     H1  744   2.425   0.736   2.666
  186HOH     H2  745   2.516   0.856   2.662
  187HOH      O  746   3.147   1.613   0.110
  187HOH     H1  747   3.187   1.686   0.065
  187HOH     H2  748   3.201   1.537   0.087
  188HOH      O  749   0.504   3.666   0.847
  188HOH     H1  750   0.517   3.638   0.757
  188HOH     H2  751   0.439   3.605   0.882
  189HOH      O  752   0.827   1.744   1.455
  189HOH     H1  753   0.802   1.784   1.371
  189HOH     H2  754   0.864   1.659   1.431
  190HOH      O  755   3.569   3.285   3.246
  190HOH     H1  756   3.622   3.232   3.306
  190HOH     H2  757   3.480   3.274   3.277
  191HOH      O  758   3.975   1.484   1.798
  191HOH     H1  759   4.055   1.514   1.756
  191HOH     H2  760   3.955   1.551   1.863
  192HOH      O  761   0.043   0.920   3.802
  192HOH     H1  762  -0.022   0.941   3.870
  192HOH     H2  763   0.127   0.935   3.844
  193HOH      O  764   2.913   3.910   2.541
  193HOH     H1  765   2.891   3.868   2.624
  193HOH     H2  766   2.926   4.002   2.564
  194HOH      O  767   2.230   3.600   3.615
  194HOH     H1  768   2.223   3.660   3.541
  194HOH     H2  769   2.143   3.559   3.620
  195HOH      O  770   2.384   0.423   0.033
  195HOH     H1  771   2.429   0.487   0.088
  195HOH     H2  772   2.420   0.338   0.060
  196HOH      O  773   2.005   3.310   2.980
  196HOH     H1  774   2.026   3.282   2.891
  196HOH     H2  775   2.022   3.404   2.980
  197HOH      O  776   3.402   0.132   3.882
  197HOH     H1  777   3.310   0.135   3.909
  197HOH     H2  778   3.433   0.222   3.893
  198HOH      O  779   1.016   0.180   1.516
  198HOH     H1  780   1.111   0.177   1.530
  198HOH     H2  781   0.988   0.262   1.559
  199HOH      O  782   2.814  -0.002   3.521
  199HOH     H1  783   2.858   0.019   3.603
  199HOH     H2  784   2.832   0.073   3.464
  200HOH      O  785   1.712   0.578   0.245
  200HOH     H1  786   1.791   0.615   0.205
  200HOH     H2  787   1.739   0.559   0.336
  201HOH      O  788   2.692   3.808   1.395
  201HOH     H1  789   2.637   3.787   1.319
  201HOH     H2  790   2.727   3.724   1.423
  202HOH      O  791   0.003   2.354   0.367
  202HOH     H1  792   0.057   2.365   0.445
  202HOH     H2  793   0.059   2.304   0.307
  203HOH      O  794   1.184   2.008   1.605
  203HOH     H1  795   1.204   1.991   1.513
  203HOH     H2  796   1.091   1.986   1.614
  204HOH      O  797   1.537   2.225   2.749
  204HOH     H1  798   1.549   2.316   2.721
  204HOH     H2  799   1.458   2.196   2.704
  205HOH      O  800   1.931   1.262   0.087
  205HOH     H1  801   1.920   1.170   0.111
  205HOH     H2  802   1.889   1.270   0.002
  206HOH      O  803   1.282   1.472   3.116
  206HOH     H1  804   1.311   1.525   3.041
  206HOH     H2  805   1.267   1.536   3.185
  207HOH      O  806   1.501   3.634   1.204
  207HOH     H1  807   1.429   3.589   1.249
  207HOH     H2  808   1.469   3.646   1.114
  208HOH      O  809   2.008   1.033   2.327
  208HOH     H1  810   2.017   1.050   2.420
  208HOH     H2  811   1.988   0.940   2.320
  209HOH      O  812   2.183   2.802   1.775
  209HOH     H1  813   2.103   2.778   1.728
  209HOH     H2  814   2.251   2.750   1.734
  210HOH      O  815   3.072   0.452   2.289
  210HOH     H1  816   2.987   0.491   2.312
  210HOH     H2  817   3.082   0.470   2.196
  211HOH      O  818   1.207   3.613   3.818
  211HOH     H1  819   1.190   3.548   3.749
  211HOH     H2  820   1.180   3.570   3.899
  212HOH      O  821   0.726   2.496   0.492
  212HOH     H1  822   0.806   2.498   0.439
  212HOH     H2  823   0.679   2.418   0.462
  213HOH      O  824   3.152   4.029   3.396
  213HOH     H1  825   3.170   3.935   3.395
  213HOH     H2  826   3.118   4.045   3.484
  214HOH      O  827   1.191   3.169   1.790
  214HOH     H1  828   1.170   3.076   1.790
  214HOH     H2  829   1.250   3.180   1.715
  215HOH      O  830   0.440   3.571   0.219
  215HOH     H1  831   0.416   3.641   0.158
  215HOH     H2  832   0.363   3.561   0.275
  216HOH      O  833   3.363   1.188   2.839
  216HOH     H1  834   3.349   1.250   2.911
  216HOH     H2  835   3.429   1.230   2.784
  217HOH      O  836   1.402   0.213   1.420
  217HOH     H1  837   1.436   0.269   1.350
  217HOH     H2  838   1.467   0.143   1.429
  218HOH      O  839   2.374   3.152   3.673
  218HOH     H1  840   2.408   3.241   3.666
  218HOH     H2  841   2.428   3.101   3.612
  219HOH      O  842   1.249   2.770   2.845
  219HOH     H1  843   1.176   2.811   2.799
  219HOH     H2  844   1.212   2.736   2.926
  220HOH      O  845   3.780   3.808   1.476
  220HOH     H1  846   3.686   3.806   1.490
  220HOH     H2  847   3.818   3.809   1.564
  221HOH      O  848   2.609   2.272   3.914
  221HOH     H1  849   2.669   2.197   3.919
  221HOH     H2  850   2.527   2.240   3.952
  222HOH      O  851   0.975   3.393   0.670
  222HOH     H1  852   0.953   3.486   0.675
  222HOH     H2  853   0.906   3.355   0.615
  223HOH      O  854   1.575   3.316   1.160
  223HOH     H1  855   1.626   3.348   1.086
  223HOH     H2  856   1.485   3.316   1.128
  224HOH      O  857   1.900   0.162   0.635
  224HOH     H1  858   1.952   0.225   0.584
  224HOH     H2  859   1.964   0.116   0.688
  225HOH      O  860   2.276   3.605   2.671
  225HOH     H1  861   2.277   3.515   2.702
  225HOH     H2  862   2.365   3.621   2.641
  226HOH      O  863   1.316   0.756   1.730
  226HOH     H1  864   1.409   0.733   1.723
  226HOH     H2  865   1.308   0.838   1.681
  227HOH      O  866   2.601   0.314   3.260
  227HOH     H1  867   2.532   0.272   3.312
  227HOH     H2  868   2.643   0.242   3.213
  228HOH      O  869   1.665   4.026   1.382
  228HOH     H1  870   1.579   3.984   1.387
  228HOH     H2  871   1.699   4.000   1.296
  229HOH      O  872   0.198   2.458   0.622
  229HOH     H1  873   0.170   2.526   0.683
  229HOH     H2  874   0.234   2.389   0.677
  230HOH      O  875   3.143   2.813   3.830
  230HOH     H1  876   3.184   2.850   3.751
  230HOH     H2  877   3.106   2.888   3.875
  231HOH      O  878   0.461   1.169   0.412
  231HOH     H1  879   0.488   1.091   0.460
  231HOH     H2  880   0.480   1.242   0.471
  232HOH      O  881   0.217   1.798   2.971
  232HOH     H1  882   0.136   1.748   2.965
  232HOH     H2  883   0.197   1.868   3.033
  233HOH      O  884   0.908   0.207   0.715
  233HOH     H1  885   0.980   0.253   0.672
  233HOH     H2  886   0.844   0.190   0.645
  234HOH      O  887   0.441   3.369   3.692
  234HOH     H1  888   0.491   3.295   3.657
  234HOH     H2  889   0.370   3.382   3.629
  235HOH      O  890   1.127   0.704   2.404
  235HOH     H1  891   1.088   0.736   2.322
  235HOH     H2  892   1.129   0.782   2.460
  236HOH      O  893   1.745   2.010   1.204
  236HOH     H1  894   1.736   1.950   1.130
  236HOH     H2  895   1.745   2.097   1.165
  237HOH      O  896   3.103   3.912   2.341
  237HOH     H1  897   3.042   3.888   2.411
  237HOH     H2  898   3.094   4.008   2.335
  238HOH      O  899   2.803   1.549   0.598
  238HOH     H1  900   2.772   1.528   0.686
  238HOH     H2  901   2.898   1.555   0.608
  239HOH      O  902   3.085   2.161   1.623
  239HOH     H1  903   3.138   2.098   1.575
  239HOH     H2  904   3.125   2.166   1.709
  240HOH      O  905   4.043   1.940   1.410
  240HOH     H1  906   4.057   1.859   1.360
  240HOH     H2  907   3.948   1.953   1.408
  241HOH      O  908   0.358   2.568   1.710
  241HOH     H1  909   0.398   2.528   1.633
  241HOH     H2  910   0.420   2.636   1.736
  242HOH      O  911   0.867   2.507   1.417
  242HOH     H1  912   0.851   2.440   1.484
  242HOH     H2  913   0.950   2.546   1.442
  243HOH      O  914   1.251   2.022   1.325
  243HOH     H1  915   1.209   1.953   1.273
  243HOH     H2  916   1.279   2.086   1.260
  244HOH      O  917   1.490   3.236   1.853
  244HOH     H1  918   1.490   3.330   1.835
  244HOH     H2  919   1.453   3.197   1.774
  245HOH      O  920   0.229   3.892   2.120
  245HOH     H1  921   0.162   3.907   2.187
  245HOH     H2  922   0.306   3.939   2.152
  246HOH      O  923   2.315   1.258   2.572
  246HOH     H1  924   2.222   1.279   2.565
  246HOH     H2  925   2.320   1.195   2.645
  247HOH      O  926   2.451   0.828   2.359
  247HOH     H1  927   2.491   0.776   2.429
  247HOH     H2  928   2.379   0.774   2.327
  248HOH      O  929   0.829   2.195   0.114
  248HOH     H1  930   0.902   2.234   0.161
  248HOH     H2  931   0.798   2.264   0.056
  249HOH      O  932   0.610   0.853   3.303
  249HOH     H1  933   0.523   0.814   3.304
  249HOH     H2  934   0.595   0.947   3.292
  250HOH      O  935   1.127   3.255   0.228
  250HOH     H1  936   1.076   3.248   0.147
  250HOH     H2  937   1.211   3.291   0.200
  251HOH      O  938   2.207   0.154   1.453
  251HOH     H1  939   2.166   0.143   1.539
  251HOH     H2  940   2.138   0.131   1.391
  252HOH      O  941   0.413   0.867   2.214
  252HOH     H1  942   0.379   0.876   2.125
  252HOH     H2  943   0.439   0.956   2.239
  253HOH      O  944   2.029   1.035   0.556
  253HOH     H1  945   2.115   0.997   0.568
  253HOH     H2  946   2.046   1.128   0.538
  254HOH      O  947   1.600   2.855   0.470
  254HOH     H1  948   1.620   2.871   0.562
  254HOH     H2  949   1.547   2.930   0.444
  255HOH      O  950   1.570   2.239   1.825
  255HOH     H1  951   1.580   2.237   1.920
  255HOH     H2  952   1.516   2.163   1.805
  256HOH      O  953   0.525   3.366   3.948
  256HOH     H1  954   0.515   3.331   3.859
  256HOH     H2  955   0.444   3.342   3.993
  257HOH      O  956   2.186   1.955   1.925
  257HOH     H1  957   2.135   1.881   1.892
  257HOH     H2  958   2.206   2.007   1.848
  258HOH      O  959   1.486   0.323   1.906
  258HOH     H1  960   1.517   0.238   1.876
  258HOH     H2  961   1.420   0.349   1.840
  259HOH      O  962   0.892   3.706   3.476
  259HOH     H1  963   0.808   3.664   3.492
  259HOH     H2  964   0.899   3.774   3.543
  260HOH      O  965   3.308   2.862   0.918
  260HOH     H1  966   3.263   2.871   0.834
  260HOH     H2  967   3.267   2.928   0.974
  261HOH      O  968   1.933   1.006   3.053
  261HOH     H1  969   1.869   0.943   3.086
  261HOH     H2  970   1.918   1.009   2.959
  262HOH      O  971   0.756   2.669   0.714
  262HOH     H1  972   0.733   2.605   0.646
  262HOH     H2  973   0.851   2.662   0.723
  263HOH      O  974   2.486   0.782   3.084
  263HOH     H1  975   2.409   0.762   3.136
  263HOH     H2  976   2.529   0.698   3.072
  264HOH      O  977   1.644   1.678   2.215
  264HOH     H1  978   1.664   1.615   2.146
  264HOH     H2  979   1.730   1.701   2.251
  265HOH      O  980   1.536   1.342   0.704
  265HOH     H1  981   1.462   1.297   0.663
  265HOH     H2  982   1.594   1.271   0.732
  266HOH      O  983   0.633   2.240   0.484
  266HOH     H1  984   0.693   2.165   0.483
  266HOH     H2  985   0.594   2.240   0.396
  267HOH      O  986   1.813   0.406   0.795
  267HOH     H1  987   1.719   0.424   0.794
  267HOH     H2  988   1.824   0.335   0.733
  268HOH      O  989   2.555   1.211   1.466
  268HOH     H1  990   2.461   1.192   1.477
  268HOH     H2  991   2.589   1.214   1.555
  269HOH      O  992   2.206   2.149   2.568
  269HOH     H1  993   2.218   2.096   2.647
  269HOH     H2  994   2.140   2.214   2.593
  270HOH      O  995   3.674   3.434   2.822
  270HOH     H1  996   3.746   3.395   2.772
  270HOH     H2  997   3.645   3.364   2.880
  271HOH      O  998   3.655   0.302   2.394
  271HOH     H1  999   3.583   0.350   2.434
  271HOH     H2 1000   3.617   0.264   2.315
  272HOH      O 1001   1.641   3.107   2.907
  272HOH     H1 1002   1.551   3.077   2.921
  272HOH     H2 1003   1.692   3.062   2.975
  273HOH      O 1004   1.752   3.473   0.296
  273HOH     H1 1005   1.812   3.548   0.301
  273HOH     H2 1006   1.679   3.503   0.242
  274HOH      O 1007   0.448   3.405   1.075
  274HOH     H1 1008   0.469   3.360   0.994
  274HOH     H2 1009   0.352   3.406   1.077
  275HOH      O 1010   0.041   1.601   0.435
  275HOH     H1 1011   0.047   1.515   0.393
  275HOH     H2 1012   0.066   1.663   0.366
  276HOH      O 1013   1.826   2.225   3.036
  276HOH     H1 1014   1.857   2.193   2.950
  276HOH     H2 1015   1.758   2.288   3.014
  277HOH      O 1016   2.349   0.694   0.421
  277HOH     H1 1017   2.426   0.724   0.470
  277HOH     H2 1018   2.353   0.743   0.339
  278HOH      O 1019   0.259   3.002   4.040
  278HOH     H1 1020   0.234   3.064   3.971
  278HOH     H2 1021   0.222   2.919   4.011
  279HOH      O 1022   2.354   0.384   1.387
  279HOH     H1 1023   2.281   0.330   1.418
  279HOH     H2 1024   2.428   0.356   1.441
  280HOH      O 1025   0.615   1.739   2.001
  280HOH     H1 1026   0.673   1.704   2.069
  280HOH     H2 1027   0.589   1.825   2.034
  281HOH      O 1028   3.813   3.825   3.243
  281HOH     H1 1029   3.773   3.742   3.217
  281HOH     H2 1030   3.907   3.808   3.244
  282HOH      O 1031   3.874   3.331   2.067
  282HOH     H1 1032   3.923   3.267   2.015
  282HOH     H2 1033   3.792   3.342   2.020
  283HOH      O 1034   2.523   3.145   0.044
  283HOH     H1 1035   2.480   3.183   0.121
  283HOH     H2 1036   2.524   3.216  -0.020
  284HOH      O 1037   0.417   3.168   2.533
  284HOH     H1 1038   0.470   3.248   2.542
  284HOH     H2 1039   0.401   3.160   2.439
  285HOH      O 1040   1.794   3.349   1.650
  285HOH     H1 1041   1.854   3.422   1.641
  285HOH     H2 1042   1.708   3.390   1.662
  286HOH      O 1043   1.468   1.992   0.231
  286HOH     H1 1044   1.410   1.989   0.154
  286HOH     H2 1045   1.415   1.953   0.301
  287HOH      O 1046   0.496   0.406   3.857
  287HOH     H1 1047   0.430   0.446   3.913
  287HOH     H2 1048   0.517   0.474   3.793
  288HOH      O 1049   1.524   0.285   3.500
  288HOH     H1 1050   1.543   0.194   3.523
  288HOH     H2 1051   1.609   0.320   3.472
  289HOH      O 1052   1.959   2.122   0.120
  289HOH     H1 1053   1.870   2.087   0.120
  289HOH     H2 1054   1.956   2.194   0.182
  290HOH      O 1055   0.335   1.805   1.928
  290HOH     H1 1056   0.429   1.800   1.914
  290HOH     H2 1057   0.308   1.715   1.946
  291HOH      O 1058   1.843   0.135   1.105
  291HOH     H1 1059   1.907   0.203   1.082
  291HOH     H2 1060   1.780   0.137   1.033
  292HOH      O 1061   1.020   3.402   2.793
  292HOH     H1 1062   1.053   3.413   2.882
  292HOH     H2 1063   1.003   3.491   2.763
  293HOH      O 1064   1.988   2.815   2.457
  293HOH     H1 1065   2.001   2.878   2.527
  293HOH     H2 1066   2.070   2.765   2.454
  294HOH      O 1067   1.305   2.987   0.704
  294HOH     H1 1068   1.243   3.053   0.735
  294HOH     H2 1069   1.366   3.034   0.649
  295HOH      O 1070   1.346   1.627   0.387
  295HOH     H1 1071   1.257   1.646   0.358
  295HOH     H2 1072   1.401   1.655   0.314
  296HOH      O 1073   3.703   1.985   2.590
  296HOH     H1 1074   3.764   1.913   2.575
  296HOH     H2 1075   3.707   2.002   2.684
  297HOH      O 1076   0.273   0.214   1.276
  297HOH     H1 1077   0.323   0.205   1.357
  297HOH     H2 1078   0.297   0.137   1.225
  298HOH      O 1079   2.029   1.194   3.209
  298HOH     H1 1080   1.994   1.123   3.154
  298HOH     H2 1081   2.012   1.273   3.159
  299HOH      O 1082   1.450   3.490   1.748
  299HOH     H1 1083   1.504   3.504   1.670
  299HOH     H2 1084   1.360   3.487   1.714
  300HOH      O 1085   2.769   2.976   3.507
  300HOH     H1 1086   2.775   3.061   3.551
  300HOH     H2 1087   2.745   2.914   3.577
  301HOH      O 1088   3.007   0.756   0.231
  301HOH     H1 1089   2.985   0.696   0.160
  301HOH     H2 1090   3.102   0.753   0.237
  302HOH      O 1091   2.977   3.148   2.231
  302HOH     H1 1092   2.911   3.080   2.246
  302HOH     H2 1093   3.061   3.105   2.249
  303HOH      O 1094   1.386   2.525   3.884
  303HOH     H1 1095   1.373   2.548   3.792
  303HOH     H2 1096   1.300   2.540   3.924
  304HOH      O 1097   0.115   0.087   0.886
  304HOH     H1 1098   0.201   0.120   0.909
  304HOH     H2 1099   0.057   0.119   0.955
  305HOH      O 1100   2.061   3.665   1.348
  305HOH     H1 1101   2.093   3.587   1.304
  305HOH     H2 1102   2.012   3.713   1.281
  306HOH      O 1103   0.698   2.904   0.447
  306HOH     H1 1104   0.675   2.823   0.402
  306HOH     H2 1105   0.682   2.973   0.382
  307HOH      O 1106   1.833   2.121   3.561
  307HOH     H1 1107   1.757   2.177   3.544
  307HOH     H2 1108   1.855   2.137   3.653
  308HOH      O 1109   0.238   2.219   0.244
  308HOH     H1 1110   0.231   2.228   0.148
  308HOH     H2 1111   0.254   2.309   0.274
  309HOH      O 1112   1.499   2.035   3.350
  309HOH     H1 1113   1.512   2.128   3.369
  309HOH     H2 1114   1.567   2.013   3.287
  310HOH      O 1115   0.244   2.653   0.838
  310HOH     H1 1116   0.330   2.660   0.798
  310HOH     H2 1117   0.258   2.602   0.918
  311HOH      O 1118   2.681   1.952   3.167
  311HOH     H1 1119   2.735   1.874   3.155
  311HOH     H2 1120   2.597   1.929   3.129
  312HOH      O 1121   3.755   3.465   0.002
  312HOH     H1 1122   3.739   3.472   0.096
  312HOH     H2 1123   3.787   3.376  -0.011
  313HOH      O 1124   2.835   1.806   2.492
  313HOH     H1 1125   2.926   1.790   2.518
  313HOH     H2 1126   2.801   1.864   2.560
  314HOH      O 1127   0.616   2.694   0.319
  314HOH     H1 1128   0.657   2.636   0.382
  314HOH     H2 1129   0.542   2.733   0.367
  315HOH      O 1130   0.466   3.643   2.437
  315HOH     H1 1131   0.460   3.643   2.532
  315HOH     H2 1132   0.432   3.728   2.410
  316HOH      O 1133   0.552   1.380   0.539
  316HOH     H1 1134   0.545   1.371   0.634
  316HOH     H2 1135   0.603   1.459   0.526
  317HOH      O 1136   1.088   2.185   2.852
  317HOH     H1 1137   1.143   2.237   2.794
  317HOH     H2 1138   1.131   2.190   2.937
  318HOH      O 1139   0.947   2.834   3.746
  318HOH     H1 1140   0.952   2.833   3.650
  318HOH     H2 1141   0.888   2.907   3.766
  319HOH      O 1142   0.432   1.440   3.318
  319HOH     H1 1143   0.497   1.466   3.253
  319HOH     H2 1144   0.366   1.509   3.315
  320HOH      O 1145   1.968   1.781   1.532
  320HOH     H1 1146   1.874   1.799   1.529
  320HOH     H2 1147   2.008   1.864   1.558
  321HOH      O 1148   2.181   1.488   2.993
  321HOH     H1 1149   2.149   1.401   2.972
  321HOH     H2 1150   2.211   1.523   2.909
  322HOH      O 1151   0.609   0.348   3.052
  322HOH     H1 1152   0.665   0.425   3.041
  322HOH     H2 1153   0.654   0.295   3.118
  323HOH      O 1154   2.734   1.915   2.205
  323HOH     H1 1155   2.661   1.858   2.228
  323HOH     H2 1156   2.760   1.954   2.288
  324HOH      O 1157   0.518   1.435   1.899
  324HOH     H1 1158   0.548   1.526   1.889
  324HOH     H2 1159   0.514   1.402   1.809
  325HOH      O 1160   0.956   2.748   1.007
  325HOH     H1 1161   0.998   2.689   0.945
  325HOH     H2 1162   1.029   2.794   1.049
  326HOH      O 1163   3.141   3.313   2.556
  326HOH     H1 1164   3.182   3.234   2.522
  326HOH     H2 1165   3.196   3.339   2.630
  327HOH      O 1166   0.614   1.099   0.753
  327HOH     H1 1167   0.537   1.048   0.778
  327HOH     H2 1168   0.587   1.190   0.766
  328HOH      O 1169   0.574   2.214   1.050
  328HOH     H1 1170   0.500   2.164   1.085
  328HOH     H2 1171   0.546   2.239   0.962
  329HOH      O 1172   2.778   1.485   1.103
  329HOH     H1 1173   2.758   1.424   1.174
  329HOH     H2 1174   2.770   1.572   1.142
  330HOH      O 1175   0.069   1.104   1.894
  330HOH     H1 1176   0.016   1.143   1.824
  330HOH     H2 1177   0.156   1.095   1.854
  331HOH      O 1178   0.551   3.108   3.340
  331HOH     H1 1179   0.561   3.070   3.252
  331HOH     H2 1180   0.456   3.117   3.351
  332HOH      O 1181   1.243   3.514   1.585
  332HOH     H1 1182   1.169   3.574   1.593
  332HOH     H2 1183   1.245   3.492   1.491
  333HOH      O 1184   2.579   1.131   3.359
  333HOH     H1 1185   2.633   1.143   3.438
  333HOH     H2 1186   2.637   1.085   3.298
  334HOH      O 1187   3.098   1.691   2.026
  334HOH     H1 1188   3.063   1.661   2.110
  334HOH     H2 1189   3.035   1.755   1.994
  335HOH      O 1190   0.690   0.235   0.928
  335HOH     H1 1191   0.652   0.321   0.908
  335HOH     H2 1192   0.759   0.225   0.862
  336HOH      O 1193   0.645   1.604   3.169
  336HOH     H1 1194   0.622   1.691   3.202
  336HOH     H2 1195   0.720   1.577   3.222
  337HOH      O 1196   0.382   0.764   2.462
  337HOH     H1 1197   0.470   0.784   2.494
  337HOH     H2 1198   0.383   0.789   2.370
  338HOH      O 1199   2.167   0.741   2.530
  338HOH     H1 1200   2.099   0.751   2.463
  338HOH     H2 1201   2.233   0.685   2.489
  339HOH      O 1202   1.420   4.013   3.497
  339HOH     H1 1203   1.388   4.010   3.407
  339HOH     H2 1204   1.351   3.971   3.549
  340HOH      O 1205   3.025   1.544   1.730
  340HOH     H1 1206   3.064   1.626   1.701
  340HOH     H2 1207   3.055   1.534   1.821
  341HOH      O 1208   0.125   3.060   1.324
  341HOH     H1 1209   0.153   2.999   1.391
  341HOH     H2 1210   0.112   3.143   1.371
  342HOH      O 1211   1.914   1.239   1.885
  342HOH     H1 1212   1.871   1.154   1.880
  342HOH     H2 1213   1.996   1.222   1.931
  343HOH      O 1214   3.164   0.477   3.746
  343HOH     H1 1215   3.186   0.438   3.830
  343HOH     H2 1216   3.068   0.480   3.745
  344HOH      O 1217   0.914   2.763   0.208
  344HOH     H1 1218   0.952   2.851   0.208
  344HOH     H2 1219   0.822   2.777   0.232
  345HOH      O 1220   1.249   0.220   2.530
  345HOH     H1 1221   1.304   0.210   2.452
  345HOH     H2 1222   1.226   0.313   2.532
  346HOH      O 1223   3.732   3.498   2.361
  346HOH     H1 1224   3.686   3.511   2.278
  346HOH     H2 1225   3.766   3.409   2.355
  347HOH      O 1226   3.339   1.946   1.987
  347HOH     H1 1227   3.390   1.916   2.062
  347HOH     H2 1228   3.254   1.902   1.997
  348HOH      O 1229   1.907   3.936   0.441
  348HOH     H1 1230   1.898   3.969   0.530
  348HOH     H2 1231   1.952   4.006   0.394
  349HOH      O 1232   3.501   3.102   0.915
  349HOH     H1 1233   3.457   3.126   0.996
  349HOH     H2 1234   3.429   3.079   0.855
  350HOH      O 1235   3.147   2.944   2.350
  350HOH     H1 1236   3.185   2.885   2.286
  350HOH     H2 1237   3.222   2.974   2.402
  351HOH      O 1238   2.574   3.494   0.122
  351HOH     H1 1239   2.646   3.550   0.093
  351HOH     H2 1240   2.560   3.433   0.049
  352HOH      O 1241   4.004   0.128   0.276
  352HOH     H1 1242   3.951   0.151   0.352
  352HOH     H2 1243   4.036   0.211   0.242
  353HOH      O 1244   3.910   0.270   3.868
  353HOH     H1 1245   3.852   0.335   3.907
  353HOH     H2 1246   3.873   0.186   3.893
  354HOH      O 1247   3.114   1.105   3.407
  354HOH     H1 1248   3.174   1.111   3.482
  354HOH     H2 1249   3.138   1.024   3.364
  355HOH      O 1250   2.162   3.796   3.402
  355HOH     H1 1251   2.071   3.772   3.387
  355HOH     H2 1252   2.158   3.879   3.449
  356HOH      O 1253   2.184   0.513   0.268
  356HOH     H1 1254   2.277   0.537   0.277
  356HOH     H2 1255   2.141   0.555   0.342
  357HOH      O 1256   3.723   1.292   2.929
  357HOH     H1 1257   3.806   1.330   2.955
  357HOH     H2 1258   3.734   1.198   2.944
  358HOH      O 1259   1.235   0.883   0.428
  358HOH     H1 1260   1.151   0.837   0.435
  358HOH     H2 1261   1.259   0.903   0.519
  359HOH      O 1262   1.346   1.693   0.701
  359HOH     H1 1263   1.373   1.782   0.679
  359HOH     H2 1264   1.380   1.639   0.630
  360HOH      O 1265   1.457   0.050   2.572
  360HOH     H1 1266   1.524   0.094   2.624
  360HOH     H2 1267   1.379   0.105   2.583
  361HOH      O 1268   3.991   1.521   2.673
  361HOH     H1 1269   4.006   1.428   2.689
  361HOH     H2 1270   4.059   1.546   2.612
  362HOH      O 1271   2.140   0.020   3.517
  362HOH     H1 1272   2.095   0.060   3.442
  362HOH     H2 1273   2.219   0.073   3.529
  363HOH      O 1274   3.802   0.580   2.791
  363HOH     H1 1275   3.718   0.625   2.778
  363HOH     H2 1276   3.837   0.617   2.872
  364HOH      O 1277   2.051   1.571   0.036
  364HOH     H1 1278   1.987   1.630   0.076
  364HOH     H2 1279   2.013   1.547  -0.048
  365HOH      O 1280   1.403   3.125   3.982
  365HOH     H1 1281   1.393   3.194   4.048
  365HOH     H2 1282   1.358   3.159   3.905
  366HOH      O 1283   2.190   2.810   1.448
  366HOH     H1 1284   2.152   2.723   1.437
  366HOH     H2 1285   2.114   2.868   1.452
  367HOH      O 1286   0.128   2.846   0.541
  367HOH     H1 1287   0.067   2.920   0.547
  367HOH     H2 1288   0.132   2.811   0.630
  368HOH      O 1289   0.992   3.922   0.211
  368HOH     H1 1290   0.911   3.972   0.201
  368HOH     H2 1291   0.963   3.836   0.243
  369HOH      O 1292   1.509   1.040   1.120
  369HOH     H1 1293   1.572   1.082   1.062
  369HOH     H2 1294   1.423   1.057   1.080
  370HOH      O 1295   2.766   1.019   0.166
  370HOH     H1 1296   2.795   1.081   0.099
  370HOH     H2 1297   2.839   1.015   0.227
  371HOH      O 1298   0.691   0.081   3.340
  371HOH     H1 1299   0.753   0.139   3.383
  371HOH     H2 1300   0.606   0.123   3.354
  372HOH      O 1301   3.201   3.123   3.988
  372HOH     H1 1302   3.192   3.116   4.083
  372HOH     H2 1303   3.128   3.179   3.960
  373HOH      O 1304   0.341   1.269   3.989
  373HOH     H1 1305   0.365   1.270   4.081
  373HOH     H2 1306   0.248   1.293   3.989
  374HOH      O 1307   0.231   2.530   2.642
  374HOH     H1 1308   0.257   2.588   2.571
  374HOH     H2 1309   0.288   2.454   2.635
  375HOH      O 1310   0.292   2.726   2.474
  375HOH     H1 1311   0.336   2.795   2.524
  375HOH     H2 1312   0.333   2.729   2.388
  376HOH      O 1313   0.921   3.058   0.959
  376HOH     H1 1314   0.847   2.997   0.964
  376HOH     H2 1315   0.943   3.076   1.051
  377HOH      O 1316   2.699   1.474   0.845
  377HOH     H1 1317   2.715   1.468   0.939
  377HOH     H2 1318   2.671   1.386   0.820
  378HOH      O 1319   3.855   2.738   3.279
  378HOH     H1 1320   3.916   2.762   3.349
  378HOH     H2 1321   3.771   2.773   3.308
  379HOH      O 1322   0.903   3.095   2.239
  379HOH     H1 1323   0.832   3.065   2.296
  379HOH     H2 1324   0.869   3.174   2.197
  380HOH      O 1325   1.454   1.537   1.919
  380HOH     H1 1326   1.545   1.517   1.943
  380HOH     H2 1327   1.436   1.480   1.845
  381HOH      O 1328   3.333   4.001   1.647
  381HOH     H1 1329   3.309   4.074   1.590
  381HOH     H2 1330   3.267   4.002   1.716
  382HOH      O 1331   1.673   2.451   3.821
  382HOH     H1 1332   1.726   2.439   3.899
  382HOH     H2 1333   1.582   2.452   3.852
  383HOH      O 1334   3.144   0.198   3.983
  383HOH     H1 1335   3.121   0.235   4.068
  383HOH     H2 1336   3.119   0.265   3.920
  384HOH      O 1337   0.250   3.237   3.848
  384HOH     H1 1338   0.307   3.303   3.808
  384HOH     H2 1339   0.217   3.279   3.927
  385HOH      O 1340   2.747   1.015   2.899
  385HOH     H1 1341   2.819   0.965   2.861
  385HOH     H2 1342   2.748   1.098   2.851
  386HOH      O 1343   2.185   0.928   0.976
  386HOH     H1 1344   2.145   0.849   1.012
  386HOH     H2 1345   2.274   0.929   1.013
  387HOH      O 1346   2.356   3.722   2.409
  387HOH     H1 1347   2.294   3.779   2.364
  387HOH     H2 1348   2.422   3.701   2.344
  388HOH      O 1349   3.144   1.834   3.785
  388HOH     H1 1350   3.181   1.808   3.869
  388HOH     H2 1351   3.055   1.799   3.786
  389HOH      O 1352   2.369   0.867   0.200
  389HOH     H1 1353   2.369   0.952   0.245
  389HOH     H2 1354   2.429   0.879   0.127
  390HOH      O 1355   2.070   0.132   0.862
  390HOH     H1 1356   2.040   0.213   0.902
  390HOH     H2 1357   2.165   0.139   0.862
  391HOH      O 1358   0.118   1.035   2.944
  391HOH     H1 1359   0.197   0.986   2.965
  391HOH     H2 1360   0.146   1.099   2.879
  392HOH      O 1361   2.462   2.356   3.662
  392HOH     H1 1362   2.554   2.355   3.687
  392HOH     H2 1363   2.446   2.447   3.634
  393HOH      O 1364   2.579   3.363   3.919
  393HOH     H1 1365   2.673   3.355   3.904
  393HOH     H2 1366   2.543   3.392   3.835
  394HOH      O 1367   0.477   1.940   1.665
  394HOH     H1 1368   0.501   1.867   1.608
  394HOH     H2 1369   0.391   1.967   1.634
  395HOH      O 1370   2.288   2.322   1.237
  395HOH     H1 1371   2.353   2.363   1.294
  395HOH     H2 1372   2.239   2.264   1.295
  396HOH      O 1373   0.904   2.445   1.946
  396HOH     H1 1374   0.952   2.365   1.969
  396HOH     H2 1375   0.906   2.498   2.025
  397HOH      O 1376   2.791   1.960   3.619
  397HOH     H1 1377   2.845   2.039   3.621
  397HOH     H2 1378   2.855   1.888   3.623
  398HOH      O 1379   0.087   3.539   0.169
  398HOH     H1 1380   0.071   3.556   0.076
  398HOH     H2 1381   0.008   3.495   0.200
  399HOH      O 1382   0.891   1.200   3.811
  399HOH     H1 1383   0.925   1.251   3.738
  399HOH     H2 1384   0.836   1.262   3.860
  400HOH      O 1385   3.985   1.243   2.663
  400HOH     H1 1386   4.079   1.245   2.679
  400HOH     H2 1387   3.969   1.156   2.626
  401HOH      O 1388   1.367   1.374   0.467
  401HOH     H1 1389   1.284   1.356   0.424
  401HOH     H2 1390   1.368   1.468   0.480
  402HOH      O 1391   1.448   2.033   1.702
  402HOH     H1 1392   1.360   2.034   1.666
  402HOH     H2 1393   1.461   1.942   1.730
  403HOH      O 1394   2.258   1.156   3.549
  403HOH     H1 1395   2.314   1.080   3.566
  403HOH     H2 1396   2.182   1.142   3.606
  404HOH      O 1397   2.061   2.455   2.311
  404HOH     H1 1398   2.015   2.393   2.368
  404HOH     H2 1399   2.145   2.470   2.356
  405HOH      O 1400   2.752   2.422   3.729
  405HOH     H1 1401   2.827   2.472   3.763
  405HOH     H2 1402   2.712   2.383   3.807
  406HOH      O 1403   2.051   2.413   2.039
  406HOH     H1 1404   2.143   2.418   2.011
  406HOH     H2 1405   2.054   2.420   2.134
  407HOH      O 1406   2.298   0.436   0.782
  407HOH     H1 1407   2.338   0.380   0.849
  407HOH     H2 1408   2.339   0.408   0.700
  408HOH      O 1409   0.740   1.282   1.171
  408HOH     H1 1410   0.746   1.293   1.076
  408HOH     H2 1411   0.658   1.235   1.185
  409HOH      O 1412   1.387   3.751   1.862
  409HOH     H1 1413   1.299   3.749   1.899
  409HOH     H2 1414   1.409   3.658   1.848
  410HOH      O 1415   3.546   3.420   1.861
  410HOH     H1 1416   3.549   3.361   1.936
  410HOH     H2 1417   3.565   3.506   1.897
  411HOH      O 1418   3.701   0.869   2.752
  411HOH     H1 1419   3.676   0.958   2.727
  411HOH     H2 1420   3.791   0.860   2.722
  412HOH      O 1421   3.342   0.969   1.636
  412HOH     H1 1422   3.321   1.008   1.721
  412HOH     H2 1423   3.275   0.901   1.624
  413HOH      O 1424   3.170   2.673   0.073
  413HOH     H1 1425   3.243   2.733   0.087
  413HOH     H2 1426   3.197   2.617   0.001
  414HOH      O 1427   3.341   1.353   3.051
  414HOH     H1 1428   3.255   1.388   3.074
  414HOH     H2 1429   3.401   1.426   3.064
  415HOH      O 1430   2.561   1.175   3.812
  415HOH     H1 1431   2.490   1.236   3.793
  415HOH     H2 1432   2.609   1.166   3.729
  416HOH      O 1433   1.863   1.589   0.789
  416HOH     H1 1434   1.915   1.656   0.744
  416HOH     H2 1435   1.780   1.587   0.740
  417HOH      O 1436   1.668   3.839   1.152
  417HOH     H1 1437   1.609   3.774   1.191
  417HOH     H2 1438   1.657   3.827   1.057
  418HOH      O 1439   1.492   0.397   3.010
  418HOH     H1 1440   1.568   0.339   2.997
  418HOH     H2 1441   1.466   0.421   2.921
  419HOH      O 1442   0.894   1.090   2.605
  419HOH     H1 1443   0.838   1.057   2.534
  419HOH     H2 1444   0.945   1.160   2.565
  420HOH      O 1445   3.520   1.547  -0.022
  420HOH     H1 1446   3.487   1.537   0.067
  420HOH     H2 1447   3.607   1.506  -0.020
  421HOH      O 1448   2.610   0.806   3.439
  421HOH     H1 1449   2.673   0.831   3.371
  421HOH     H2 1450   2.665   0.769   3.509
  422HOH      O 1451   2.281   1.019   1.916
  422HOH     H1 1452   2.365   1.052   1.885
  422HOH     H2 1453   2.288   1.021   2.011
  423HOH      O 1454   0.556   2.997   1.038
  423HOH     H1 1455   0.619   2.933   1.006
  423HOH     H2 1456   0.574   3.005   1.131
  424HOH      O 1457   1.351   2.300   2.057
  424HOH     H1 1458   1.397   2.383   2.052
  424HOH     H2 1459   1.362   2.272   2.148
  425HOH      O 1460   2.252   0.774   2.814
  425HOH     H1 1461   2.157   0.768   2.798
  425HOH     H2 1462   2.259   0.794   2.907
  426HOH      O 1463   2.916   1.905   1.918
  426HOH     H1 1464   2.821   1.898   1.934
  426HOH     H2 1465   2.949   1.950   1.995
  427HOH      O 1466   1.224   3.089   1.321
  427HOH     H1 1467   1.150   3.124   1.272
  427HOH     H2 1468   1.251   3.012   1.270
  428HOH      O 1469   1.868   3.827   3.101
  428HOH     H1 1470   1.826   3.911   3.118
  428HOH     H2 1471   1.896   3.833   3.009
  429HOH      O 1472   0.748   0.185   3.887
  429HOH     H1 1473   0.735   0.272   3.925
  429HOH     H2 1474   0.831   0.192   3.839
  430HOH      O 1475   1.007   2.002   0.051
  430HOH     H1 1476   0.932   2.061   0.055
  430HOH     H2 1477   1.073   2.045   0.106
  431HOH      O 1478   3.947   2.695   0.405
  431HOH     H1 1479   4.008   2.730   0.471
  431HOH     H2 1480   4.003   2.643   0.348
  432HOH      O 1481   1.253   3.846   0.538
  432HOH     H1 1482   1.192   3.837   0.611
  432HOH     H2 1483   1.322   3.904   0.570
  433HOH      O 1484   1.560   1.581   0.162
  433HOH     H1 1485   1.553   1.487   0.176
  433HOH     H2 1486   1.653   1.600   0.176
  434HOH      O 1487   1.676   0.474   3.739
  434HOH     H1 1488   1.625   0.465   3.658
  434HOH     H2 1489   1.611   0.481   3.808
  435HOH      O 1490   1.667   2.349   3.570
  435HOH     H1 1491   1.683   2.383   3.658
  435HOH     H2 1492   1.586   2.299   3.579
  436HOH      O 1493   1.616   1.439   2.931
  436HOH     H1 1494   1.536   1.488   2.951
  436HOH     H2 1495   1.591   1.348   2.943
  437HOH      O 1496   3.814   2.490   1.948
  437HOH     H1 1497   3.722   2.468   1.928
  437HOH     H2 1498   3.846   2.533   1.869
  438HOH      O 1499   1.915   3.952   2.389
  438HOH     H1 1500   1.836   3.938   2.339
  438HOH     H2 1501   1.981   3.897   2.347
  439HOH      O 1502   1.891   1.213   1.271
  439HOH     H1 1503   1.798   1.193   1.270
  439HOH     H2 1504   1.925   1.175   1.189
  440HOH      O 1505   3.174   3.626   1.619
  440HOH     H1 1506   3.170   3.699   1.557
  440HOH     H2 1507   3.249   3.574   1.589
  441HOH      O 1508   2.847   1.733   3.049
  441HOH     H1 1509   2.809   1.747   2.962
  441HOH     H2 1510   2.855   1.638   3.056
  442HOH      O 1511   0.446   3.632   1.857
  442HOH     H1 1512   0.482   3.632   1.769
  442HOH     H2 1513   0.358   3.669   1.847
  443HOH      O 1514   3.481   3.110   1.365
  443HOH     H1 1515   3.569   3.144   1.379
  443HOH     H2 1516   3.455   3.144   1.280
  444HOH      O 1517   0.967   3.249   1.503
  444HOH     H1 1518   1.044   3.296   1.469
  444HOH     H2 1519   0.978   3.160   1.471
  445HOH      O 1520   3.575   0.118   0.065
  445HOH     H1 1521   3.555   0.206   0.096
  445HOH     H2 1522   3.522   0.108  -0.014
  446HOH      O 1523   3.271   3.149   2.931
  446HOH     H1 1524   3.231   3.074   2.975
  446HOH     H2 1525   3.197   3.204   2.905
  447HOH      O 1526   0.766   0.222   1.197
  447HOH     H1 1527   0.828   0.294   1.202
  447HOH     H2 1528   0.749   0.211   1.103
  448HOH      O 1529   0.755   2.846   2.887
  448HOH     H1 1530   0.839   2.859   2.932
  448HOH     H2 1531   0.769   2.884   2.800
  449HOH      O 1532   0.851   3.616   3.892
  449HOH     H1 1533   0.762   3.603   3.858
  449HOH     H2 1534   0.892   3.675   3.830
  450HOH      O 1535   2.038   2.512   0.447
  450HOH     H1 1536   1.989   2.593   0.432
  450HOH     H2 1537   2.118   2.523   0.396
  451HOH      O 1538   2.922   3.550   0.726
  451HOH     H1 1539   2.847   3.557   0.785
  451HOH     H2 1540   2.987   3.609   0.763
  452HOH      O 1541   3.611   0.004   0.544
  452HOH     H1 1542   3.614   0.079   0.605
  452HOH     H2 1543   3.696  -0.039   0.556
  453HOH      O 1544   0.143   1.591   1.601
  453HOH     H1 1545   0.125   1.600   1.508
  453HOH     H2 1546   0.094   1.663   1.642
  454HOH      O 1547   3.325   2.660   2.195
  454HOH     H1 1548   3.294   2.614   2.273
  454HOH     H2 1549   3.405   2.613   2.170
  455HOH      O 1550   3.631   3.560   1.592
  455HOH     H1 1551   3.628   3.606   1.676
  455HOH     H2 1552   3.588   3.476   1.610
  456HOH      O 1553   1.161   1.832   3.809
  456HOH     H1 1554   1.071   1.827   3.842
  456HOH     H2 1555   1.211   1.774   3.866
  457HOH      O 1556   0.667   2.528   1.670
  457HOH     H1 1557   0.618   2.480   1.603
  457HOH     H2 1558   0.725   2.586   1.621
  458HOH      O 1559   2.006   0.961   3.964
  458HOH     H1 1560   1.916   0.933   3.982
  458HOH     H2 1561   2.051   0.953   4.048
  459HOH      O 1562   0.495   1.510   2.962
  459HOH     H1 1563   0.539   1.430   2.934
  459HOH     H2 1564   0.540   1.535   3.043
  460HOH      O 1565   2.661   3.628   0.418
  460HOH     H1 1566   2.601   3.556   0.437
  460HOH     H2 1567   2.720   3.594   0.350
  461HOH      O 1568   2.026   1.315   2.567
  461HOH     H1 1569   1.941   1.284   2.536
  461HOH     H2 1570   2.007   1.360   2.650
  462HOH      O 1571   2.329   1.468   1.003
  462HOH     H1 1572   2.239   1.485   1.031
  462HOH     H2 1573   2.322   1.443   0.911
  463HOH      O 1574   3.675   2.141   3.687
  463HOH     H1 1575   3.699   2.225   3.646
  463HOH     H2 1576   3.642   2.165   3.773
  464HOH      O 1577   2.036   0.341   1.034
  464HOH     H1 1578   2.031   0.422   0.983
  464HOH     H2 1579   2.058   0.369   1.122
  465HOH      O 1580   1.199   0.868   1.466
  465HOH     H1 1581   1.182   0.806   1.396
  465HOH     H2 1582   1.216   0.951   1.422
  466HOH      O 1583   3.019   0.226   2.871
  466HOH     H1 1584   3.012   0.161   2.941
  466HOH     H2 1585   3.112   0.250   2.871
  467HOH      O 1586   0.282   3.325   0.082
  467HOH     H1 1587   0.285   3.253   0.145
  467HOH     H2 1588   0.235   3.395   0.128
  468HOH      O 1589   2.015   2.251   3.771
  468HOH     H1 1590   2.039   2.273   3.861
  468HOH     H2 1591   2.087   2.194   3.741
  469HOH      O 1592   3.672   1.480   0.454
  469HOH     H1 1593   3.654   1.399   0.407
  469HOH     H2 1594   3.742   1.457   0.515
  470HOH      O 1595   1.450   1.453   1.394
  470HOH     H1 1596   1.444   1.478   1.302
  470HOH     H2 1597   1.500   1.523   1.436
  471HOH      O 1598   2.910   2.436   0.867
  471HOH     H1 1599   2.912   2.392   0.782
  471HOH     H2 1600   2.995   2.478   0.875
  472HOH      O 1601   1.325   0.463   1.731
  472HOH     H1 1602   1.233   0.489   1.730
  472HOH     H2 1603   1.373   0.542   1.754
  473HOH      O 1604   3.410   0.973   3.031
  473HOH     H1 1605   3.365   1.002   3.110
  473HOH     H2 1606   3.389   1.040   2.965
  474HOH      O 1607   3.560   3.325   0.756
  474HOH     H1 1608   3.546   3.236   0.789
  474HOH     H2 1609   3.495   3.378   0.802
  475HOH      O 1610   1.477   3.178   3.209
  475HOH     H1 1611   1.491   3.207   3.119
  475HOH     H2 1612   1.434   3.252   3.252
  476HOH      O 1613   2.517   0.620   0.172
  476HOH     H1 1614   2.600   0.651   0.136
  476HOH     H2 1615   2.468   0.700   0.191
  477HOH      O 1616   3.284   3.482   2.735
  477HOH     H1 1617   3.237   3.481   2.818
  477HOH     H2 1618   3.287   3.575   2.711
  478HOH      O 1619   2.970   1.274   3.568
  478HOH     H1 1620   2.951   1.351   3.513
  478HOH     H2 1621   3.025   1.218   3.512
  479HOH      O 1622   2.576   3.965   3.746
  479HOH     H1 1623   2.566   3.892   3.685
  479HOH     H2 1624   2.592   3.924   3.831
  480HOH      O 1625   3.133   0.893   0.910
  480HOH     H1 1626   3.130   0.865   1.002
  480HOH     H2 1627   3.118   0.813   0.860
  481HOH      O 1628   3.030   1.622   2.598
  481HOH     H1 1629   3.092   1.564   2.554
  481HOH     H2 1630   3.082   1.666   2.665
  482HOH      O 1631   2.494   2.875   0.853
  482HOH     H1 1632   2.469   2.803   0.910
  482HOH     H2 1633   2.497   2.952   0.911
  483HOH      O 1634   2.631   1.974   1.959
  483HOH     H1 1635   2.618   1.880   1.952
  483HOH     H2 1636   2.662   1.988   2.048
  484HOH      O 1637   3.005   3.548   0.289
  484HOH     H1 1638   3.094   3.518   0.271
  484HOH     H2 1639   2.975   3.492   0.361
  485HOH      O 1640   1.774   0.527   2.843
  485HOH     H1 1641   1.813   0.463   2.902
  485HOH     H2 1642   1.831   0.526   2.766
  486HOH      O 1643   3.158   1.963   3.089
  486HOH     H1 1644   3.106   1.934   3.163
  486HOH     H2 1645   3.249   1.950   3.117
  487HOH      O 1646   3.373   2.884   3.975
  487HOH     H1 1647   3.429   2.887   3.897
  487HOH     H2 1648   3.304   2.948   3.957
  488HOH      O 1649   1.607   3.790   0.427
  488HOH     H1 1650   1.597   3.747   0.343
  488HOH     H2 1651   1.632   3.880   0.405
  489HOH      O 1652   2.398   3.416   0.565
  489HOH     H1 1653   2.358   3.368   0.638
  489HOH     H2 1654   2.335   3.406   0.493
  490HOH      O 1655   0.540   1.794   1.328
  490HOH     H1 1656   0.559   1.727   1.263
  490HOH     H2 1657   0.495   1.748   1.399
  491HOH      O 1658   1.795   1.741   3.193
  491HOH     H1 1659   1.742   1.718   3.269
  491HOH     H2 1660   1.781   1.834   3.181
  492HOH      O 1661   0.020   2.631   1.474
  492HOH     H1 1662   0.081   2.695   1.437
  492HOH     H2 1663   0.020   2.559   1.411
  493HOH      O 1664   1.034   2.255   0.276
  493HOH     H1 1665   1.002   2.342   0.301
  493HOH     H2 1666   1.112   2.241   0.329
  494HOH      O 1667   3.164   3.795   1.419
  494HOH     H1 1668   3.200   3.761   1.337
  494HOH     H2 1669   3.129   3.881   1.396
  495HOH      O 1670   2.392   3.183   3.138
  495HOH     H1 1671   2.458   3.159   3.072
  495HOH     H2 1672   2.326   3.114   3.131
  496HOH      O 1673   2.440   3.292   1.632
  496HOH     H1 1674   2.456   3.229   1.561
  496HOH     H2 1675   2.409   3.239   1.705
  497HOH      O 1676   1.647   3.124   0.145
  497HOH     H1 1677   1.614   3.211   0.167
  497HOH     H2 1678   1.572   3.066   0.156
  498HOH      O 1679   3.584   3.435   3.559
  498HOH     H1 1680   3.628   3.368   3.507
  498HOH     H2 1681   3.635   3.440   3.640
  499HOH      O 1682   2.557   3.545   2.779
  499HOH     H1 1683   2.619   3.474   2.796
  499HOH     H2 1684   2.601   3.601   2.715
  500HOH      O 1685   3.929   0.444   0.992
  500HOH     H1 1686   3.924   0.356   0.956
  500HOH     H2 1687   4.000   0.440   1.056
  501HOH      O 1688   3.684   2.876   1.365
  501HOH     H1 1689   3.650   2.953   1.319
  501HOH     H2 1690   3.713   2.817   1.295
  502HOH      O 1691   2.738   1.955   2.732
  502HOH     H1 1692   2.769   2.013   2.802
  502HOH     H2 1693   2.703   1.879   2.778
  503HOH      O 1694   1.302   0.642   3.781
  503HOH     H1 1695   1.300   0.592   3.699
  503HOH     H2 1696   1.390   0.627   3.816
  504HOH      O 1697   3.038   3.029   1.891
  504HOH     H1 1698   3.100   2.991   1.829
  504HOH     H2 1699   3.049   2.978   1.971
  505HOH      O 1700   2.440   3.262   0.279
  505HOH     H1 1701   2.385   3.199   0.325
  505HOH     H2 1702   2.388   3.343   0.277
  506HOH      O 1703   2.585   3.040   3.832
  506HOH     H1 1704   2.508   3.003   3.789
  506HOH     H2 1705   2.568   3.031   3.926
  507HOH      O 1706   0.992   1.636   0.537
  507HOH     H1 1707   1.015   1.691   0.462
  507HOH     H2 1708   0.968   1.697   0.606
  508HOH      O 1709   3.598   2.151   0.519
  508HOH     H1 1710   3.640   2.139   0.433
  508HOH     H2 1711   3.664   2.121   0.582
  509HOH      O 1712   2.974   2.713   3.122
  509HOH     H1 1713   2.967   2.641   3.185
  509HOH     H2 1714   2.889   2.716   3.079
  510HOH      O 1715   2.009   2.634   3.900
  510HOH     H1 1716   2.001   2.716   3.850
  510HOH     H2 1717   2.061   2.659   3.976
  511HOH      O 1718   0.968   0.495   1.406
  511HOH     H1 1719   0.931   0.572   1.448
  511HOH     H2 1720   0.897   0.431   1.406
  512HOH      O 1721   3.189   1.934   2.349
  512HOH     H1 1722   3.280   1.964   2.337
  512HOH     H2 1723   3.157   1.986   2.423
  513HOH      O 1724   2.246   2.116   0.767
  513HOH     H1 1725   2.196   2.054   0.821
  513HOH     H2 1726   2.328   2.128   0.814
  514HOH      O 1727   2.585   0.411   3.694
  514HOH     H1 1728   2.577   0.491   3.746
  514HOH     H2 1729   2.601   0.442   3.605
  515HOH      O 1730   3.900   2.715   2.503
  515HOH     H1 1731   3.837   2.644   2.505
  515HOH     H2 1732   3.937   2.712   2.415
  516HOH      O 1733   1.773   2.333   1.424
  516HOH     H1 1734   1.751   2.417   1.463
  516HOH     H2 1735   1.691   2.284   1.423
  517HOH      O 1736   3.769   1.263   3.975
  517HOH     H1 1737   3.773   1.358   3.963
  517HOH     H2 1738   3.824   1.246   4.051
  518HOH      O 1739   2.400   2.776   2.997
  518HOH     H1 1740   2.368   2.687   3.016
  518HOH     H2 1741   2.491   2.775   3.026
  519HOH      O 1742   3.771   3.637   3.477
  519HOH     H1 1743   3.764   3.702   3.406
  519HOH     H2 1744   3.695   3.580   3.465
  520HOH      O 1745   3.631   1.643   2.667
  520HOH     H1 1746   3.667   1.592   2.740
  520HOH     H2 1747   3.690   1.717   2.658
  521HOH      O 1748   0.275   2.282   1.382
  521HOH     H1 1749   0.212   2.330   1.328
  521HOH     H2 1750   0.221   2.225   1.437
  522HOH      O 1751   1.738   2.703   3.375
  522HOH     H1 1752   1.681   2.780   3.372
  522HOH     H2 1753   1.778   2.706   3.462
  523HOH      O 1754   0.427   1.019   2.794
  523HOH     H1 1755   0.340   0.996   2.762
  523HOH     H2 1756   0.484   0.952   2.757
  524HOH      O 1757   2.457   0.566   3.489
  524HOH     H1 1758   2.396   0.553   3.416
  524HOH     H2 1759   2.518   0.633   3.458
  525HOH      O 1760   3.959   0.763   3.613
  525HOH     H1 1761   3.975   0.836   3.553
  525HOH     H2 1762   3.999   0.790   3.695
  526HOH      O 1763   3.575   1.082   2.624
  526HOH     H1 1764   3.605   1.173   2.627
  526HOH     H2 1765   3.487   1.087   2.586
  527HOH      O 1766   3.332   1.199   0.498
  527HOH     H1 1767   3.297   1.133   0.558
  527HOH     H2 1768   3.322   1.282   0.545
  528HOH      O 1769   3.518   2.553   1.920
  528HOH     H1 1770   3.510   2.647   1.906
  528HOH     H2 1771   3.432   2.518   1.897
  529HOH      O 1772   0.342   0.215   2.197
  529HOH     H1 1773   0.246   0.212   2.204
  529HOH     H2 1774   0.362   0.308   2.187
  530HOH      O 1775   1.105   3.177   0.775
  530HOH     H1 1776   1.068   3.260   0.746
  530HOH     H2 1777   1.037   3.139   0.831
  531HOH      O 1778   0.504   3.237   1.300
  531HOH     H1 1779   0.485   3.273   1.214
  531HOH     H2 1780   0.435   3.271   1.356
  532HOH      O 1781   0.695   3.948   1.792
  532HOH     H1 1782   0.732   3.866   1.823
  532HOH     H2 1783   0.602   3.942   1.814
  533HOH      O 1784   3.175   0.457   2.706
  533HOH     H1 1785   3.087   0.439   2.672
  533HOH     H2 1786   3.217   0.508   2.637
  534HOH      O 1787   3.869   3.829   3.635
  534HOH     H1 1788   3.823   3.764   3.582
  534HOH     H2 1789   3.874   3.906   3.579
  535HOH      O 1790   2.145   0.783   3.484
  535HOH     H1 1791   2.188   0.867   3.469
  535HOH     H2 1792   2.113   0.788   3.575
  536HOH      O 1793   2.629   0.312   4.052
  536HOH     H1 1794   2.576   0.382   4.014
  536HOH     H2 1795   2.650   0.254   3.979
  537HOH      O 1796   3.383   1.667   2.836
  537HOH     H1 1797   3.461   1.615   2.854
  537HOH     H2 1798   3.392   1.695   2.745
  538HOH      O 1799   0.240   3.650   0.941
  538HOH     H1 1800   0.198   3.735   0.956
  538HOH     H2 1801   0.195   3.590   1.001
  539HOH      O 1802   3.321   0.859   0.035
  539HOH     H1 1803   3.235   0.886   0.003
  539HOH     H2 1804   3.304   0.818   0.119
  540HOH      O 1805   2.742   2.655   0.496
  540HOH     H1 1806   2.696   2.577   0.464
  540HOH     H2 1807   2.833   2.639   0.474
  541HOH      O 1808   3.881   1.800   2.637
  541HOH     H1 1809   3.945   1.748   2.588
  541HOH     H2 1810   3.892   1.772   2.727
  542HOH      O 1811   2.703   2.115   0.998
  542HOH     H1 1812   2.772   2.126   0.932
  542HOH     H2 1813   2.693   2.202   1.037
  543HOH      O 1814   0.470   0.733   2.734
  543HOH     H1 1815   0.509   0.728   2.821
  543HOH     H2 1816   0.378   0.709   2.748
  544HOH      O 1817   0.560   2.577   2.789
  544HOH     H1 1818   0.508   2.640   2.738
  544HOH     H2 1819   0.650   2.608   2.780
  545HOH      O 1820   1.206   1.085   3.564
  545HOH     H1 1821   1.193   1.169   3.608
  545HOH     H2 1822   1.276   1.042   3.614
  546HOH      O 1823   2.798   2.213   1.898
  546HOH     H1 1824   2.877   2.209   1.952
  546HOH     H2 1825   2.763   2.124   1.901
  547HOH      O 1826   0.064   2.039   0.812
  547HOH     H1 1827   0.119   2.027   0.734
  547HOH     H2 1828  -0.018   1.996   0.790
  548HOH      O 1829   0.256   0.423   0.275
  548HOH     H1 1830   0.215   0.448   0.358
  548HOH     H2 1831   0.266   0.328   0.281
  549HOH      O 1832   0.051   1.681   0.915
  549HOH     H1 1833  -0.020   1.731   0.874
  549HOH     H2 1834   0.021   1.668   1.005
  550HOH      O 1835   3.358   3.105   3.618
  550HOH     H1 1836   3.321   3.018   3.599
  550HOH     H2 1837   3.288   3.166   3.595
  551HOH      O 1838   0.833   2.412   2.998
  551HOH     H1 1839   0.927   2.422   3.013
  551HOH     H2 1840   0.822   2.426   2.904
  552HOH      O 1841   1.799   3.583   0.717
  552HOH     H1 1842   1.873   3.578   0.656
  552HOH     H2 1843   1.723   3.561   0.663
  553HOH      O 1844   0.999   0.131   2.584
  553HOH     H1 1845   1.086   0.165   2.603
  553HOH     H2 1846   0.941   0.175   2.647
  554HOH      O 1847   3.954   2.574   3.893
  554HOH     H1 1848   4.031   2.571   3.949
  554HOH     H2 1849   3.945   2.485   3.859
  555HOH      O 1850   2.846   0.734   0.468
  555HOH     H1 1851   2.882   0.747   0.381
  555HOH     H2 1852   2.895   0.659   0.503
  556HOH      O 1853   3.396   3.939   2.231
  556HOH     H1 1854   3.376   4.019   2.280
  556HOH     H2 1855   3.342   3.871   2.272
  557HOH      O 1856   2.417   0.420   2.619
  557HOH     H1 1857   2.472   0.343   2.636
  557HOH     H2 1858   2.443   0.451   2.533
  558HOH      O 1859   3.054   2.303   2.340
  558HOH     H1 1860   2.988   2.263   2.397
  558HOH     H2 1861   3.128   2.322   2.398
  559HOH      O 1862   0.219   3.205   1.698
  559HOH     H1 1863   0.245   3.247   1.616
  559HOH     H2 1864   0.127   3.230   1.709
  560HOH      O 1865   1.335   2.508   0.800
  560HOH     H1 1866   1.413   2.455   0.784
  560HOH     H2 1867   1.267   2.467   0.746
  561HOH      O 1868   0.601   2.219   2.993
  561HOH     H1 1869   0.653   2.290   2.954
  561HOH     H2 1870   0.530   2.204   2.929
  562HOH      O 1871   0.072   3.928   1.692
  562HOH     H1 1872   0.121   3.994   1.741
  562HOH     H2 1873   0.050   3.971   1.610
  563HOH      O 1874   1.611   2.665   0.268
  563HOH     H1 1875   1.577   2.695   0.183
  563HOH     H2 1876   1.598   2.738   0.327
  564HOH      O 1877   3.252   1.362   4.023
  564HOH     H1 1878   3.343   1.346   4.001
  564HOH     H2 1879   3.209   1.380   3.940
  565HOH      O 1880   1.936   1.016   0.237
  565HOH     H1 1881   1.977   1.053   0.316
  565HOH     H2 1882   1.940   0.922   0.250
  566HOH      O 1883   0.644   3.312   0.177
  566HOH     H1 1884   0.592   3.338   0.101
  566HOH     H2 1885   0.694   3.391   0.199
  567HOH      O 1886   2.292   2.558   0.331
  567HOH     H1 1887   2.297   2.547   0.237
  567HOH     H2 1888   2.290   2.653   0.344
  568HOH      O 1889   0.914   2.591   3.603
  568HOH     H1 1890   0.890   2.668   3.552
  568HOH     H2 1891   0.896   2.517   3.544
  569HOH      O 1892   3.446   1.198   1.455
  569HOH     H1 1893   3.390   1.132   1.495
  569HOH     H2 1894   3.440   1.182   1.361
  570HOH      O 1895   2.547   0.054   3.421
  570HOH     H1 1896   2.629   0.018   3.457
  570HOH     H2 1897   2.511  -0.018   3.369
  571HOH      O 1898   3.318   2.286   1.011
  571HOH     H1 1899   3.380   2.239   1.066
  571HOH     H2 1900   3.234   2.243   1.028
  572HOH      O 1901   1.628   3.782   2.883
  572HOH     H1 1902   1.616   3.781   2.788
  572HOH     H2 1903   1.722   3.771   2.895
  573HOH      O 1904   1.240   0.490   1.396
  573HOH     H1 1905   1.269   0.400   1.412
  573HOH     H2 1906   1.145   0.485   1.393
  574HOH      O 1907   2.061   0.805   0.343
  574HOH     H1 1908   2.147   0.844   0.329
  574HOH     H2 1909   2.073   0.750   0.421
  575HOH      O 1910   1.927   2.704   2.144
  575HOH     H1 1911   1.847   2.681   2.097
  575HOH     H2 1912   1.914   2.667   2.231
  576HOH      O 1913   1.323   2.183   2.603
  576HOH     H1 1914   1.228   2.173   2.600
  576HOH     H2 1915   1.341   2.257   2.544
  577HOH      O 1916   3.860   0.597   1.979
  577HOH     H1 1917   3.856   0.665   2.046
  577HOH     H2 1918   3.819   0.521   2.020
  578HOH      O 1919   4.021   1.797   1.690
  578HOH     H1 1920   4.011   1.844   1.773
  578HOH     H2 1921   3.978   1.852   1.625
  579HOH      O 1922   2.745   0.203   0.944
  579HOH     H1 1923   2.738   0.109   0.928
  579HOH     H2 1924   2.655   0.233   0.958
  580HOH      O 1925   2.933   3.532   2.360
  580HOH     H1 1926   3.028   3.538   2.370
  580HOH     H2 1927   2.917   3.561   2.270
  581HOH      O 1928   2.411   2.626   0.620
  581HOH     H1 1929   2.389   2.601   0.530
  581HOH     H2 1930   2.329   2.619   0.668
  582HOH      O 1931   3.365   0.329   2.028
  582HOH     H1 1932   3.275   0.297   2.026
  582HOH     H2 1933   3.365   0.403   1.967
  583HOH      O 1934   0.385   3.307   0.444
  583HOH     H1 1935   0.367   3.242   0.376
  583HOH     H2 1936   0.355   3.390   0.406
  584HOH      O 1937   0.094   2.359   1.214
  584HOH     H1 1938   0.071   2.280   1.164
  584HOH     H2 1939   0.023   2.420   1.197
  585HOH      O 1940   0.360   1.819   0.283
  585HOH     H1 1941   0.309   1.740   0.269
  585HOH     H2 1942   0.297   1.882   0.319
  586HOH      O 1943   0.886   0.896   1.409
  586HOH     H1 1944   0.968   0.900   1.457
  586HOH     H2 1945   0.874   0.802   1.392
  587HOH      O 1946   3.250   1.444   2.560
  587HOH     H1 1947   3.322   1.381   2.560
  587HOH     H2 1948   3.291   1.527   2.582
  588HOH      O 1949   3.264   3.457   0.228
  588HOH     H1 1950   3.317   3.466   0.149
  588HOH     H2 1951   3.312   3.505   0.295
  589HOH      O 1952   3.265   2.583   3.812
  589HOH     H1 1953   3.233   2.672   3.826
  589HOH     H2 1954   3.270   2.573   3.717
  590HOH      O 1955   1.862   0.659   3.374
  590HOH     H1 1956   1.945   0.705   3.358
  590HOH     H2 1957   1.844   0.674   3.466
  591HOH      O 1958   2.816   2.123   2.946
  591HOH     H1 1959   2.784   2.075   3.023
  591HOH     H2 1960   2.843   2.208   2.981
  592HOH      O 1961   1.846   2.469   0.021
  592HOH     H1 1962   1.882   2.541  -0.031
  592HOH     H2 1963   1.900   2.468   0.100
  593HOH      O 1964   3.560   1.517   2.948
  593HOH     H1 1965   3.591   1.427   2.945
  593HOH     H2 1966   3.591   1.550   3.033
  594HOH      O 1967   3.232   0.559   2.458
  594HOH     H1 1968   3.210   0.652   2.449
  594HOH     H2 1969   3.173   0.515   2.396
  595HOH      O 1970   4.054   2.984   0.224
  595HOH     H1 1971   3.967   2.948   0.239
  595HOH     H2 1972   4.056   3.065   0.275
  596HOH      O 1973   3.857   3.871   1.215
  596HOH     H1 1974   3.849   3.842   1.305
  596HOH     H2 1975   3.817   3.958   1.214
  597HOH      O 1976   0.147   3.213   0.894
  597HOH     H1 1977   0.208   3.212   0.820
  597HOH     H2 1978   0.182   3.149   0.955
  598HOH      O 1979   2.277   1.923   1.354
  598HOH     H1 1980   2.295   1.904   1.446
  598HOH     H2 1981   2.184   1.905   1.343
  599HOH      O 1982   2.587   0.730   0.529
  599HOH     H1 1983   2.677   0.747   0.503
  599HOH     H2 1984   2.585   0.745   0.624
  600HOH      O 1985   2.567   3.880   3.228
  600HOH     H1 1986   2.604   3.812   3.171
  600HOH     H2 1987   2.506   3.927   3.173
  601HOH      O 1988   0.873   2.194   1.526
  601HOH     H1 1989   0.845   2.164   1.439
  601HOH     H2 1990   0.905   2.115   1.569
  602HOH      O 1991   2.817   3.825   2.769
  602HOH     H1 1992   2.725   3.833   2.795
  602HOH     H2 1993   2.848   3.745   2.811
  603HOH      O 1994   0.825   1.130   0.924
  603HOH     H1 1995   0.767   1.082   0.983
  603HOH     H2 1996   0.782   1.125   0.839
  604HOH      O 1997   3.293   3.252   1.977
  604HOH     H1 1998   3.298   3.225   1.885
  604HOH     H2 1999   3.373   3.216   2.016
  605HOH      O 2000   0.637   2.673   3.461
  605HOH     H1 2001   0.638   2.695   3.367
  605HOH     H2 2002   0.647   2.578   3.463
  606HOH      O 2003   3.406   3.291   1.128
  606HOH     H1 2004   3.436   3.366   1.180
  606HOH     H2 2005   3.379   3.329   1.044
  607HOH      O 2006   2.772   1.490   2.653
  607HOH     H1 2007   2.755   1.551   2.581
  607HOH     H2 2008   2.854   1.448   2.630
  608HOH      O 2009   0.989   0.491   0.288
  608HOH     H1 2010   1.054   0.432   0.326
  608HOH     H2 2011   0.985   0.565   0.348
  609HOH      O 2012   2.388   0.263   0.585
  609HOH     H1 2013   2.366   0.287   0.495
  609HOH     H2 2014   2.471   0.215   0.577
  610HOH      O 2015   2.283   1.032   2.183
  610HOH     H1 2016   2.329   0.953   2.211
  610HOH     H2 2017   2.219   1.048   2.253
  611HOH      O 2018   2.940   4.005   2.957
  611HOH     H1 2019   2.916   3.964   2.873
  611HOH     H2 2020   2.983   3.935   3.006
  612HOH      O 2021   0.516   1.265   3.490
  612HOH     H1 2022   0.488   1.298   3.575
  612HOH     H2 2023   0.499   1.337   3.429
  613HOH      O 2024   2.985   1.299   2.584
  613HOH     H1 2025   3.072   1.334   2.601
  613HOH     H2 2026   2.980   1.293   2.489
  614HOH      O 2027   1.228   1.062   3.279
  614HOH     H1 2028   1.224   1.063   3.374
  614HOH     H2 2029   1.309   1.017   3.259
  615HOH      O 2030   0.999   3.688   1.452
  615HOH     H1 2031   0.969   3.633   1.525
  615HOH     H2 2032   0.950   3.770   1.463
  616HOH      O 2033   1.254   3.510   0.619
  616HOH     H1 2034   1.194   3.584   0.627
  616HOH     H2 2035   1.205   3.443   0.572
  617HOH      O 2036   1.458   3.520   3.544
  617HOH     H1 2037   1.456   3.426   3.561
  617HOH     H2 2038   1.437   3.528   3.451
  618HOH      O 2039   1.770   0.814   3.962
  618HOH     H1 2040   1.807   0.756   4.028
  618HOH     H2 2041   1.675   0.808   3.975
  619HOH      O 2042   2.462   2.917   0.553
  619HOH     H1 2043   2.389   2.917   0.615
  619HOH     H2 2044   2.476   3.010   0.533
  620HOH      O 2045   0.043   3.579   3.914
  620HOH     H1 2046   0.119   3.589   3.857
  620HOH     H2 2047  -0.001   3.501   3.880
  621HOH      O 2048   2.575   3.512   1.773
  621HOH     H1 2049   2.655   3.531   1.724
  621HOH     H2 2050   2.541   3.432   1.733
  622HOH      O 2051   2.834   2.188   1.505
  622HOH     H1 2052   2.851   2.236   1.424
  622HOH     H2 2053   2.921   2.156   1.532
  623HOH      O 2054   3.870   3.433   0.264
  623HOH     H1 2055   3.921   3.414   0.343
  623HOH     H2 2056   3.806   3.361   0.259
  624HOH      O 2057   3.452   2.994   2.768
  624HOH     H1 2058   3.456   2.908   2.810
  624HOH     H2 2059   3.398   3.047   2.826
  625HOH      O 2060   0.568   3.394   2.678
  625HOH     H1 2061   0.653   3.390   2.722
  625HOH     H2 2062   0.533   3.480   2.702
  626HOH      O 2063   0.677   3.982   1.255
  626HOH     H1 2064   0.696   4.075   1.245
  626HOH     H2 2065   0.658   3.951   1.166
  627HOH      O 2066   0.002   3.120   1.967
  627HOH     H1 2067  -0.027   3.029   1.972
  627HOH     H2 2068   0.097   3.114   1.955
  628HOH      O 2069   3.290   1.102   2.559
  628HOH     H1 2070   3.196   1.086   2.551
  628HOH     H2 2071   3.305   1.109   2.653
  629HOH      O 2072   3.286   2.222   3.636
  629HOH     H1 2073   3.274   2.127   3.636
  629HOH     H2 2074   3.366   2.236   3.687
  630HOH      O 2075   0.843   1.470   1.351
  630HOH     H1 2076   0.886   1.415   1.417
  630HOH     H2 2077   0.796   1.409   1.295
  631HOH      O 2078   0.172   2.062   2.699
  631HOH     H1 2079   0.092   2.114   2.708
  631HOH     H2 2080   0.160   1.989   2.761
  632HOH      O 2081   2.853   3.664   1.119
  632HOH     H1 2082   2.869   3.743   1.069
  632HOH     H2 2083   2.823   3.600   1.054
  633HOH      O 2084   0.841   1.111   1.901
  633HOH     H1 2085   0.810   1.198   1.925
  633HOH     H2 2086   0.914   1.095   1.959
  634HOH      O 2087   2.293   1.400   3.435
  634HOH     H1 2088   2.296   1.309   3.465
  634HOH     H2 2089   2.208   1.409   3.394
  635HOH      O 2090   3.422   1.874   3.023
  635HOH     H1 2091   3.516   1.880   3.010
  635HOH     H2 2092   3.395   1.796   2.974
  636HOH      O 2093   1.074   1.101   2.009
  636HOH     H1 2094   1.107   1.023   2.054
  636HOH     H2 2095   1.130   1.172   2.040
  637HOH      O 2096   1.594   1.180   1.338
  637HOH     H1 2097   1.565   1.145   1.254
  637HOH     H2 2098   1.545   1.262   1.347
  638HOH      O 2099   0.716   2.824   0.930
  638HOH     H1 2100   0.778   2.771   0.980
  638HOH     H2 2101   0.725   2.793   0.840
  639HOH      O 2102   2.732   3.463   2.018
  639HOH     H1 2103   2.644   3.458   1.980
  639HOH     H2 2104   2.790   3.438   1.946
  640HOH      O 2105   1.129   3.055   2.446
  640HOH     H1 2106   1.072   3.114   2.495
  640HOH     H2 2107   1.087   3.047   2.360
  641HOH      O 2108   1.849   0.550   2.215
  641HOH     H1 2109   1.782   0.487   2.189
  641HOH     H2 2110   1.931   0.514   2.181
  642HOH      O 2111   3.081   0.681   3.131
  642HOH     H1 2112   3.139   0.655   3.059
  642HOH     H2 2113   3.046   0.765   3.103
  643HOH      O 2114   1.471   2.716   0.041
  643HOH     H1 2115   1.389   2.709   0.090
  643HOH     H2 2116   1.467   2.645  -0.023
  644HOH      O 2117   3.311   3.363   2.288
  644HOH     H1 2118   3.272   3.373   2.375
  644HOH     H2 2119   3.274   3.435   2.237
  645HOH      O 2120   0.146   2.351   1.737
  645HOH     H1 2121   0.167   2.270   1.690
  645HOH     H2 2122   0.209   2.415   1.704
  646HOH      O 2123   1.521   3.824   0.038
  646HOH     H1 2124   1.525   3.801  -0.055
  646HOH     H2 2125   1.429   3.847   0.053
  647HOH      O 2126   3.527   1.043   3.338
  647HOH     H1 2127   3.439   1.033   3.375
  647HOH     H2 2128   3.567   0.957   3.346
  648HOH      O 2129   3.948   1.558   3.326
  648HOH     H1 2130   3.879   1.621   3.304
  648HOH     H2 2131   3.917   1.475   3.291
  649HOH      O 2132   1.392   3.160   2.515
  649HOH     H1 2133   1.434   3.201   2.439
  649HOH     H2 2134   1.309   3.128   2.482
  650HOH      O 2135   3.042   3.855   2.069
  650HOH     H1 2136   2.985   3.778   2.076
  650HOH     H2 2137   3.061   3.879   2.160
  651HOH      O 2138   0.643   2.664   3.760
  651HOH     H1 2139   0.616   2.576   3.735
  651HOH     H2 2140   0.705   2.691   3.692
  652HOH      O 2141   1.669   3.144   2.060
  652HOH     H1 2142   1.739   3.089   2.026
  652HOH     H2 2143   1.620   3.171   1.982
  653HOH      O 2144   2.761   1.608   1.727
  653HOH     H1 2145   2.745   1.586   1.635
  653HOH     H2 2146   2.849   1.577   1.745
  654HOH      O 2147   1.833   3.827   3.806
  654HOH     H1 2148   1.769   3.887   3.846
  654HOH     H2 2149   1.917   3.873   3.814
  655HOH      O 2150   0.181   2.710   1.216
  655HOH     H1 2151   0.107   2.725   1.157
  655HOH     H2 2152   0.244   2.661   1.163
  656HOH      O 2153   2.201   3.066   0.161
  656HOH     H1 2154   2.168   3.135   0.218
  656HOH     H2 2155   2.193   3.102   0.073
  657HOH      O 2156   0.837   0.721   1.627
  657HOH     H1 2157   0.907   0.757   1.681
  657HOH     H2 2158   0.785   0.798   1.603
  658HOH      O 2159   0.841   3.091   3.444
  658HOH     H1 2160   0.933   3.118   3.443
  658HOH     H2 2161   0.793   3.171   3.424
  659HOH      O 2162   0.672   1.709   0.786
  659HOH     H1 2163   0.630   1.791   0.811
  659HOH     H2 2164   0.612   1.641   0.817
  660HOH      O 2165   0.512   0.382   2.788
  660HOH     H1 2166   0.424   0.420   2.786
  660HOH     H2 2167   0.537   0.382   2.880
  661HOH      O 2168   1.861   3.459   3.306
  661HOH     H1 2169   1.833   3.490   3.220
  661HOH     H2 2170   1.880   3.540   3.355
  662HOH      O 2171   0.811   2.299   3.231
  662HOH     H1 2172   0.824   2.206   3.211
  662HOH     H2 2173   0.811   2.342   3.146
  663HOH      O 2174   1.110   1.684   2.854
  663HOH     H1 2175   1.073   1.622   2.792
  663HOH     H2 2176   1.060   1.764   2.841
  664HOH      O 2177   0.182   1.273   1.511
  664HOH     H1 2178   0.187   1.277   1.606
  664HOH     H2 2179   0.091   1.249   1.493
  665HOH      O 2180   3.670   1.757   0.577
  665HOH     H1 2181   3.584   1.800   0.577
  665HOH     H2 2182   3.661   1.687   0.512
  666HOH      O 2183   2.622   2.986   1.276
  666HOH     H1 2184   2.588   2.952   1.359
  666HOH     H2 2185   2.682   2.919   1.245
  667HOH      O 2186   2.815   3.142   0.206
  667HOH     H1 2187   2.748   3.129   0.140
  667HOH     H2 2188   2.808   3.065   0.263
  668HOH      O 2189   3.568   2.445   2.873
  668HOH     H1 2190   3.527   2.438   2.959
  668HOH     H2 2191   3.650   2.492   2.889
  669HOH      O 2192   3.418   1.113   0.085
  669HOH     H1 2193   3.399   1.021   0.069
  669HOH     H2 2194   3.449   1.146   0.000
  670HOH      O 2195   2.357   3.196   1.874
  670HOH     H1 2196   2.371   3.229   1.962
  670HOH     H2 2197   2.288   3.130   1.884
  671HOH      O 2198   0.363   1.965   3.450
  671HOH     H1 2199   0.389   1.901   3.516
  671HOH     H2 2200   0.268   1.959   3.446
  672HOH      O 2201   3.685   2.373   2.236
  672HOH     H1 2202   3.599   2.378   2.194
  672HOH     H2 2203   3.711   2.281   2.226
  673HOH      O 2204   1.249   2.324   3.304
  673HOH     H1 2205   1.282   2.394   3.360
  673HOH     H2 2206   1.325   2.293   3.256
  674HOH      O 2207   2.871   3.627   2.951
  674HOH     H1 2208   2.936   3.571   2.908
  674HOH     H2 2209   2.917   3.665   3.026
  675HOH      O 2210   0.535   1.565   1.115
  675HOH     H1 2211   0.519   1.481   1.159
  675HOH     H2 2212   0.519   1.547   1.023
  676HOH      O 2213   2.671   2.712   2.201
  676HOH     H1 2214   2.706   2.644   2.259
  676HOH     H2 2215   2.715   2.697   2.117
  677HOH      O 2216   3.166   3.971   0.564
  677HOH     H1 2217   3.167   4.064   0.541
  677HOH     H2 2218   3.117   3.929   0.494
  678HOH      O 2219   2.559   2.362   1.939
  678HOH     H1 2220   2.584   2.454   1.932
  678HOH     H2 2221   2.641   2.314   1.932
  679HOH      O 2222   0.906   1.013   3.991
  679HOH     H1 2223   0.906   0.955   3.914
  679HOH     H2 2224   0.909   1.101   3.954
  680HOH      O 2225   1.926   3.065   0.269
  680HOH     H1 2226   1.899   3.030   0.184
  680HOH     H2 2227   1.984   2.998   0.306
  681HOH      O 2228   2.473   2.654   1.017
  681HOH     H1 2229   2.402   2.651   1.080
  681HOH     H2 2230   2.451   2.587   0.952
  682HOH      O 2231   0.898   4.004   3.952
  682HOH     H1 2232   0.843   4.082   3.945
  682HOH     H2 2233   0.907   3.990   4.046
  683HOH      O 2234   2.367   0.686   0.741
  683HOH     H1 2235   2.346   0.697   0.834
  683HOH     H2 2236   2.363   0.592   0.726
  684HOH      O 2237   2.428   2.727   3.765
  684HOH     H1 2238   2.388   2.640   3.774
  684HOH     H2 2239   2.414   2.768   3.850
  685HOH      O 2240   0.657   1.642   0.525
  685HOH     H1 2241   0.679   1.689   0.606
  685HOH     H2 2242   0.639   1.712   0.462
  686HOH      O 2243   2.205   1.463   0.241
  686HOH     H1 2244   2.133   1.508   0.196
  686HOH     H2 2245   2.216   1.382   0.192
  687HOH      O 2246   2.969   2.560   1.979
  687HOH     H1 2247   3.041   2.617   1.952
  687HOH     H2 2248   2.891   2.614   1.971
  688HOH      O 2249   2.902   0.192   3.370
  688HOH     H1 2250   2.859   0.177   3.285
  688HOH     H2 2251   2.992   0.161   3.357
  689HOH      O 2252   0.869   2.821   3.476
  689HOH     H1 2253   0.864   2.915   3.462
  689HOH     H2 2254   0.778   2.791   3.473
  690HOH      O 2255   3.541   3.928   2.663
  690HOH     H1 2256   3.554   4.021   2.681
  690HOH     H2 2257   3.601   3.909   2.592
  691HOH      O 2258   3.956   3.694   0.754
  691HOH     H1 2259   3.920   3.610   0.782
  691HOH     H2 2260   3.986   3.735   0.835
  692HOH      O 2261   1.803   0.339   3.505
  692HOH     H1 2262   1.854   0.259   3.513
  692HOH     H2 2263   1.852   0.403   3.557
  693HOH      O 2264   2.466   2.841   1.461
  693HOH     H1 2265   2.373   2.837   1.437
  693HOH     H2 2266   2.466   2.887   1.545
  694HOH      O 2267   1.513   2.250   1.444
  694HOH     H1 2268   1.499   2.174   1.500
  694HOH     H2 2269   1.443   2.311   1.468
  695HOH      O 2270   1.698   1.586   2.609
  695HOH     H1 2271   1.642   1.509   2.609
  695HOH     H2 2272   1.766   1.566   2.544
  696HOH      O 2273   1.601   1.517   3.900
  696HOH     H1 2274   1.560   1.593   3.940
  696HOH     H2 2275   1.584   1.445   3.961
  697HOH      O 2276   1.660   0.123   1.798
  697HOH     H1 2277   1.598   0.053   1.775
  697HOH     H2 2278   1.716   0.131   1.720
  698HOH      O 2279   1.918   3.702   0.301
  698HOH     H1 2280   1.997   3.722   0.250
  698HOH     H2 2281   1.892   3.786   0.338
  699HOH      O 2282   0.463   2.130   3.870
  699HOH     H1 2283   0.551   2.162   3.888
  699HOH     H2 2284   0.475   2.054   3.814
  700HOH      O 2285   3.754   2.752   4.053
  700HOH     H1 2286   3.837   2.717   4.021
  700HOH     H2 2287   3.696   2.749   3.977
  701HOH      O 2288   3.877   0.711   3.049
  701HOH     H1 2289   3.799   0.721   3.104
  701HOH     H2 2290   3.950   0.734   3.106
  702HOH      O 2291   0.872   2.815   2.337
  702HOH     H1 2292   0.895   2.819   2.244
  702HOH     H2 2293   0.815   2.890   2.352
  703HOH      O 2294   0.280   3.604   3.777
  703HOH     H1 2295   0.309   3.694   3.760
  703HOH     H2 2296   0.338   3.550   3.723
  704HOH      O 2297   2.586   2.752   0.134
  704HOH     H1 2298   2.540   2.765   0.217
  704HOH     H2 2299   2.638   2.673   0.147
  705HOH      O 2300   3.747   3.201   3.937
  705HOH     H1 2301   3.735   3.144   4.013
  705HOH     H2 2302   3.670   3.184   3.882
  706HOH      O 2303   3.122   2.871   2.795
  706HOH     H1 2304   3.033   2.834   2.795
  706HOH     H2 2305   3.141   2.885   2.702
  707HOH      O 2306   0.931   3.233   2.596
  707HOH     H1 2307   0.880   3.285   2.535
  707HOH     H2 2308   0.969   3.298   2.656
  708HOH      O 2309   2.091   3.852   0.633
  708HOH     H1 2310   2.172   3.804   0.648
  708HOH     H2 2311   2.119   3.942   0.615
  709HOH      O 2312   3.034   3.151   3.443
  709HOH     H1 2313   3.034   3.107   3.358
  709HOH     H2 2314   2.944   3.140   3.476
  710HOH      O 2315   0.590   1.970   0.799
  710HOH     H1 2316   0.600   2.064   0.788
  710HOH     H2 2317   0.539   1.943   0.722
  711HOH      O 2318   0.802   3.136   0.729
  711HOH     H1 2319   0.799   3.228   0.753
  711HOH     H2 2320   0.821   3.091   0.811
  712HOH      O 2321   1.561   1.707   1.523
  712HOH     H1 2322   1.496   1.728   1.456
  712HOH     H2 2323   1.641   1.752   1.495
  713HOH      O 2324   0.865   3.353   2.181
  713HOH     H1 2325   0.891   3.438   2.146
  713HOH     H2 2326   0.859   3.366   2.275
  714HOH      O 2327   0.319   0.091   3.215
  714HOH     H1 2328   0.368   0.138   3.283
  714HOH     H2 2329   0.383   0.031   3.176
  715HOH      O 2330   0.174   2.494   3.998
  715HOH     H1 2331   0.230   2.518   3.924
  715HOH     H2 2332   0.181   2.398   4.004
  716HOH      O 2333   0.722   3.397   0.826
  716HOH     H1 2334   0.655   3.330   0.833
  716HOH     H2 2335   0.697   3.449   0.750
  717HOH      O 2336   3.284   1.755   0.629
  717HOH     H1 2337   3.318   1.696   0.696
  717HOH     H2 2338   3.292   1.705   0.548
  718HOH      O 2339   3.104   2.962   3.069
  718HOH     H1 2340   3.015   2.998   3.065
  718HOH     H2 2341   3.091   2.869   3.087
  719HOH      O 2342   1.702   1.122   0.807
  719HOH     H1 2343   1.786   1.155   0.778
  719HOH     H2 2344   1.723   1.038   0.850
  720HOH      O 2345   2.659   1.717   2.798
  720HOH     H1 2346   2.568   1.691   2.813
  720HOH     H2 2347   2.702   1.637   2.768
  721HOH      O 2348   0.384   1.819   0.650
  721HOH     H1 2349   0.351   1.796   0.737
  721HOH     H2 2350   0.410   1.735   0.611
  722HOH      O 2351   3.014   2.227   1.042
  722HOH     H1 2352   2.998   2.151   0.985
  722HOH     H2 2353   2.984   2.302   0.990
  723HOH      O 2354   3.215   2.848   1.769
  723HOH     H1 2355   3.307   2.820   1.774
  723HOH     H2 2356   3.166   2.767   1.759
  724HOH      O 2357   2.070   0.380   3.658
  724HOH     H1 2358   2.150   0.407   3.703
  724HOH     H2 2359   2.101   0.338   3.577
  725HOH      O 2360   3.389   2.882   0.582
  725HOH     H1 2361   3.325   2.936   0.627
  725HOH     H2 2362   3.364   2.887   0.490
  726HOH      O 2363   1.498   0.597   3.238
  726HOH     H1 2364   1.436   0.553   3.180
  726HOH     H2 2365   1.580   0.549   3.227
  727HOH      O 2366   1.820   1.682   1.276
  727HOH     H1 2367   1.894   1.715   1.328
  727HOH     H2 2368   1.848   1.692   1.185
  728HOH      O 2369   0.219   2.085   3.115
  728HOH     H1 2370   0.141   2.139   3.122
  728HOH     H2 2371   0.278   2.119   3.183
  729HOH      O 2372   0.952   2.511   0.348
  729HOH     H1 2373   1.040   2.532   0.381
  729HOH     H2 2374   0.938   2.572   0.276
  730HOH      O 2375   3.427   0.761   2.531
  730HOH     H1 2376   3.363   0.820   2.490
  730HOH     H2 2377   3.509   0.780   2.486
  731HOH      O 2378   0.296   0.310   3.653
  731HOH     H1 2379   0.250   0.321   3.737
  731HOH     H2 2380   0.379   0.269   3.677
  732HOH      O 2381   2.415   1.581   1.308
  732HOH     H1 2382   2.340   1.563   1.364
  732HOH     H2 2383   2.394   1.538   1.226
  733HOH      O 2384   1.932   2.317   0.295
  733HOH     H1 2385   1.951   2.402   0.334
  733HOH     H2 2386   1.892   2.267   0.366
  734HOH      O 2387   3.633   0.906   2.044
  734HOH     H1 2388   3.587   0.988   2.027
  734HOH     H2 2389   3.725   0.928   2.034
  735HOH      O 2390   0.866   0.686   1.245
  735HOH     H1 2391   0.934   0.624   1.272
  735HOH     H2 2392   0.877   0.693   1.150
  736HOH      O 2393   3.776   3.115   0.917
  736HOH     H1 2394   3.834   3.168   0.863
  736HOH     H2 2395   3.688   3.144   0.892
  737HOH      O 2396   0.893   1.822   2.424
  737HOH     H1 2397   0.950   1.785   2.491
  737HOH     H2 2398   0.805   1.815   2.460
  738HOH      O 2399   3.220   2.355   3.395
  738HOH     H1 2400   3.216   2.310   3.310
  738HOH     H2 2401   3.276   2.298   3.449
  739HOH      O 2402   2.643   0.092   0.536
  739HOH     H1 2403   2.734   0.120   0.540
  739HOH     H2 2404   2.643   0.001   0.564
  740HOH      O 2405   0.441   1.170   1.976
  740HOH     H1 2406   0.485   1.249   1.945
  740HOH     H2 2407   0.411   1.126   1.896
  741HOH      O 2408   0.669   0.825   2.490
  741HOH     H1 2409   0.672   0.789   2.579
  741HOH     H2 2410   0.682   0.749   2.433
  742HOH      O 2411   2.581   0.620   3.861
  742HOH     H1 2412   2.632   0.647   3.937
  742HOH     H2 2413   2.512   0.685   3.853
  743HOH      O 2414   1.872   0.035   2.734
  743HOH     H1 2415   1.793   0.090   2.734
  743HOH     H2 2416   1.930   0.077   2.671
  744HOH      O 2417   0.504   2.154   0.246
  744HOH     H1 2418   0.409   2.167   0.252
  744HOH     H2 2419   0.517   2.113   0.161
  745HOH      O 2420   2.334   0.667   1.029
  745HOH     H1 2421   2.405   0.615   1.067
  745HOH     H2 2422   2.257   0.644   1.080
  746HOH      O 2423   1.849   1.054   2.779
  746HOH     H1 2424   1.921   1.068   2.716
  746HOH     H2 2425   1.784   1.004   2.730
  747HOH      O 2426   0.775   3.723   0.140
  747HOH     H1 2427   0.702   3.784   0.132
  747HOH     H2 2428   0.800   3.702   0.050
  748HOH      O 2429   1.849   0.066   1.573
  748HOH     H1 2430   1.899  -0.014   1.586
  748HOH     H2 2431   1.778   0.041   1.515
  749HOH      O 2432   1.093   1.038   0.260
  749HOH     H1 2433   1.088   1.130   0.283
  749HOH     H2 2434   1.148   0.998   0.328
  750HOH      O 2435   2.214   2.738   2.116
  750HOH     H1 2436   2.121   2.717   2.104
  750HOH     H2 2437   2.226   2.820   2.069
  751HOH      O 2438   2.081   1.380   3.709
  751HOH     H1 2439   2.046   1.416   3.627
  751HOH     H2 2440   2.019   1.407   3.776
  752HOH      O 2441   0.575   2.167   3.587
  752HOH     H1 2442   0.625   2.086   3.575
  752HOH     H2 2443   0.492   2.150   3.543
  753HOH      O 2444   3.997   3.861   0.315
  753HOH     H1 2445   4.016   3.825   0.228
  753HOH     H2 2446   3.979   3.953   0.299
  754HOH      O 2447   1.364   1.616   2.915
  754HOH     H1 2448   1.276   1.643   2.890
  754HOH     H2 2449   1.421   1.686   2.883
  755HOH      O 2450   1.844   2.982   4.022
  755HOH     H1 2451   1.785   3.038   4.072
  755HOH     H2 2452   1.794   2.960   3.943
  756HOH      O 2453   0.990   1.171   1.297
  756HOH     H1 2454   0.952   1.084   1.309
  756HOH     H2 2455   0.919   1.224   1.263
  757HOH      O 2456   2.559   0.346   1.566
  757HOH     H1 2457   2.608   0.310   1.641
  757HOH     H2 2458   2.611   0.421   1.537
  758HOH      O 2459   1.066   2.124   2.505
  758HOH     H1 2460   1.072   2.097   2.413
  758HOH     H2 2461   1.015   2.055   2.547
  759HOH      O 2462   1.605   3.850   1.630
  759HOH     H1 2463   1.662   3.828   1.703
  759HOH     H2 2464   1.539   3.908   1.667
  760HOH      O 2465   3.593   1.839   3.274
  760HOH     H1 2466   3.504   1.834   3.238
  760HOH     H2 2467   3.605   1.931   3.296
  761HOH      O 2468   3.652   2.101   2.001
  761HOH     H1 2469   3.625   2.012   1.978
  761HOH     H2 2470   3.648   2.149   1.919
  762HOH      O 2471   0.473   2.464  -0.012
  762HOH     H1 2472   0.479   2.558   0.007
  762HOH     H2 2473   0.404   2.433   0.047
  763HOH      O 2474   2.913   2.082   0.826
  763HOH     H1 2475   2.988   2.036   0.788
  763HOH     H2 2476   2.899   2.157   0.768
  764HOH      O 2477   0.266   3.863   0.422
  764HOH     H1 2478   0.340   3.923   0.432
  764HOH     H2 2479   0.200   3.895   0.484
  765HOH      O 2480   2.519   1.532   3.893
  765HOH     H1 2481   2.478   1.485   3.821
  765HOH     H2 2482   2.446   1.567   3.943
  766HOH      O 2483   2.650   2.475   0.091
  766HOH     H1 2484   2.607   2.437   0.014
  766HOH     H2 2485   2.742   2.483   0.066
  767HOH      O 2486   0.657   0.798   3.958
  767HOH     H1 2487   0.695   0.812   4.045
  767HOH     H2 2488   0.727   0.821   3.897
  768HOH      O 2489   3.908   3.360   1.265
  768HOH     H1 2490   3.851   3.437   1.271
  768HOH     H2 2491   3.969   3.370   1.338
  769HOH      O 2492   2.722   3.326   2.799
  769HOH     H1 2493   2.706   3.271   2.723
  769HOH     H2 2494   2.805   3.370   2.779
  770HOH      O 2495   1.295   2.678   3.118
  770HOH     H1 2496   1.380   2.650   3.151
  770HOH     H2 2497   1.290   2.771   3.141
  771HOH      O 2498   1.612   1.349   0.342
  771HOH     H1 2499   1.524   1.341   0.379
  771HOH     H2 2500   1.651   1.262   0.354
  772HOH      O 2501   2.668   3.166   2.578
  772HOH     H1 2502   2.724   3.209   2.514
  772HOH     H2 2503   2.617   3.102   2.527
  773HOH      O 2504   1.719   1.447   1.998
  773HOH     H1 2505   1.789   1.387   2.021
  773HOH     H2 2506   1.756   1.502   1.929
  774HOH      O 2507   3.853   3.202   3.596
  774HOH     H1 2508   3.890   3.218   3.683
  774HOH     H2 2509   3.925   3.165   3.545
  775HOH      O 2510   1.734   0.637   2.517
  775HOH     H1 2511   1.808   0.596   2.563
  775HOH     H2 2512   1.766   0.648   2.427
  776HOH      O 2513   3.554   3.044   3.800
  776HOH     H1 2514   3.495   3.080   3.733
  776HOH     H2 2515   3.578   2.958   3.767
  777HOH      O 2516   0.981   3.212   4.013
  777HOH     H1 2517   1.030   3.154   3.955
  777HOH     H2 2518   0.894   3.217   3.974
  778HOH      O 2519   3.105   3.227   1.546
  778HOH     H1 2520   3.157   3.302   1.520
  778HOH     H2 2521   3.053   3.258   1.620
  779HOH      O 2522   2.352   3.412   2.888
  779HOH     H1 2523   2.431   3.460   2.862
  779HOH     H2 2524   2.358   3.406   2.984
  780HOH      O 2525   1.364   1.100   3.965
  780HOH     H1 2526   1.390   1.040   3.896
  780HOH     H2 2527   1.284   1.063   4.001
  781HOH      O 2528   1.235   2.939   3.166
  781HOH     H1 2529   1.278   2.963   3.248
  781HOH     H2 2530   1.262   3.007   3.105
  782HOH      O 2531   3.946   0.294   3.331
  782HOH     H1 2532   4.000   0.359   3.375
  782HOH     H2 2533   3.998   0.265   3.256
  783HOH      O 2534   1.280   1.537   2.146
  783HOH     H1 2535   1.330   1.572   2.072
  783HOH     H2 2536   1.334   1.557   2.223
  784HOH      O 2537   1.152   1.296   2.963
  784HOH     H1 2538   1.085   1.243   3.008
  784HOH     H2 2539   1.181   1.358   3.030
  785HOH      O 2540   2.420   2.675   2.289
  785HOH     H1 2541   2.499   2.713   2.251
  785HOH     H2 2542   2.348   2.712   2.237
  786HOH      O 2543   3.918   2.953   0.569
  786HOH     H1 2544   3.883   2.926   0.484
  786HOH     H2 2545   3.879   3.039   0.586
  787HOH      O 2546   0.180   0.976   3.275
  787HOH     H1 2547   0.219   1.030   3.344
  787HOH     H2 2548   0.208   1.017   3.194
  788HOH      O 2549   3.654   3.803   2.256
  788HOH     H1 2550   3.570   3.844   2.237
  788HOH     H2 2551   3.713   3.837   2.189
  789HOH      O 2552   0.087   1.357   3.952
  789HOH     H1 2553   0.019   1.339   3.887
  789HOH     H2 2554   0.043   1.344   4.036
  790HOH      O 2555   3.532   3.618   2.983
  790HOH     H1 2556   3.530   3.704   2.941
  790HOH     H2 2557   3.595   3.568   2.931
  791HOH      O 2558   1.125   3.931   2.137
  791HOH     H1 2559   1.093   3.993   2.202
  791HOH     H2 2560   1.127   3.981   2.055
  792HOH      O 2561   3.337   3.444   1.504
  792HOH     H1 2562   3.407   3.390   1.541
  792HOH     H2 2563   3.369   3.471   1.418
  793HOH      O 2564   0.686   2.410   3.473
  793HOH     H1 2565   0.698   2.368   3.388
  793HOH     H2 2566   0.655   2.340   3.530
  794HOH      O 2567   1.044   3.723   2.381
  794HOH     H1 2568   1.070   3.631   2.389
  794HOH     H2 2569   1.115   3.771   2.423
  795HOH      O 2570   0.224   2.239   4.012
  795HOH     H1 2571   0.140   2.210   3.975
  795HOH     H2 2572   0.289   2.208   3.948
  796HOH      O 2573   3.609   4.017   3.245
  796HOH     H1 2574   3.673   3.947   3.259
  796HOH     H2 2575   3.551   3.983   3.177
  797HOH      O 2576   3.318   0.079   3.171
  797HOH     H1 2577   3.393   0.127   3.206
  797HOH     H2 2578   3.262   0.063   3.247
  798HOH      O 2579   1.936   3.206   1.823
  798HOH     H1 2580   1.881   3.257   1.764
  798HOH     H2 2581   1.997   3.159   1.765
  799HOH      O 2582   2.502   1.250   1.045
  799HOH     H1 2583   2.434   1.315   1.027
  799HOH     H2 2584   2.551   1.243   0.963
  800HOH      O 2585   3.256   1.007   0.681
  800HOH     H1 2586   3.260   0.970   0.770
  800HOH     H2 2587   3.171   0.979   0.648
  801HOH      O 2588   0.404   0.663   3.499
  801HOH     H1 2589   0.339   0.698   3.560
  801HOH     H2 2590   0.468   0.619   3.555
  802HOH      O 2591   0.698   1.793   2.719
  802HOH     H1 2592   0.671   1.775   2.629
  802HOH     H2 2593   0.618   1.783   2.771
  803HOH      O 2594   0.702   2.029   1.772
  803HOH     H1 2595   0.626   1.981   1.739
  803HOH     H2 2596   0.685   2.120   1.748
  804HOH      O 2597   0.656   2.706   2.556
  804HOH     H1 2598   0.745   2.677   2.575
  804HOH     H2 2599   0.637   2.671   2.469
  805HOH      O 2600   0.906   2.358   0.911
  805HOH     H1 2601   0.861   2.435   0.947
  805HOH     H2 2602   0.975   2.339   0.975
  806HOH      O 2603   1.053   1.417   2.741
  806HOH     H1 2604   0.959   1.437   2.744
  806HOH     H2 2605   1.072   1.379   2.826
  807HOH      O 2606   0.780   1.417   0.821
  807HOH     H1 2607   0.691   1.384   0.835
  807HOH     H2 2608   0.777   1.507   0.854
  808HOH      O 2609   2.785   0.034   1.287
  808HOH     H1 2610   2.773  -0.050   1.330
  808HOH     H2 2611   2.705   0.083   1.305
  809HOH      O 2612   2.978   1.059   0.315
  809HOH     H1 2613   3.044   1.125   0.297
  809HOH     H2 2614   2.985   1.043   0.409
  810HOH      O 2615   3.128   1.411   3.769
  810HOH     H1 2616   3.180   1.467   3.711
  810HOH     H2 2617   3.082   1.352   3.710
  811HOH      O 2618   1.022   3.925   3.144
  811HOH     H1 2619   1.086   3.907   3.213
  811HOH     H2 2620   1.072   3.923   3.063
  812HOH      O 2621   0.854   1.449   3.984
  812HOH     H1 2622   0.823   1.477   3.898
  812HOH     H2 2623   0.876   1.530   4.030
  813HOH      O 2624   3.456   0.376   3.889
  813HOH     H1 2625   3.459   0.461   3.844
  813HOH     H2 2626   3.477   0.397   3.980
  814HOH      O 2627   0.658   2.292   2.335
  814HOH     H1 2628   0.653   2.311   2.242
  814HOH     H2 2629   0.729   2.348   2.367
  815HOH      O 2630   3.810   3.996   2.996
  815HOH     H1 2631   3.826   4.016   3.088
  815HOH     H2 2632   3.714   3.993   2.989
  816HOH      O 2633   2.391   1.031   1.170
  816HOH     H1 2634   2.317   1.070   1.217
  816HOH     H2 2635   2.423   1.102   1.114
  817HOH      O 2636   3.006   3.544   3.547
  817HOH     H1 2637   2.957   3.587   3.477
  817HOH     H2 2638   3.046   3.616   3.596
  818HOH      O 2639   0.119   0.113   0.019
  818HOH     H1 2640   0.036   0.097   0.064
  818HOH     H2 2641   0.119   0.207   0.000
  819HOH      O 2642   3.212   3.949   0.837
  819HOH     H1 2643   3.210   3.923   0.745
  819HOH     H2 2644   3.165   4.032   0.839
  820HOH      O 2645   3.307   1.936   3.578
  820HOH     H1 2646   3.394   1.927   3.617
  820HOH     H2 2647   3.252   1.878   3.631
  821HOH      O 2648   0.403   3.870   1.547
  821HOH     H1 2649   0.492   3.855   1.517
  821HOH     H2 2650   0.350   3.804   1.501
  822HOH      O 2651   2.788   0.968   1.258
  822HOH     H1 2652   2.766   1.032   1.325
  822HOH     H2 2653   2.717   0.903   1.262
  823HOH      O 2654   1.131   1.642   2.547
  823HOH     H1 2655   1.194   1.589   2.498
  823HOH     H2 2656   1.116   1.593   2.627
  824HOH      O 2657   1.950   2.574   1.135
  824HOH     H1 2658   1.924   2.578   1.043
  824HOH     H2 2659   1.882   2.521   1.177
  825HOH      O 2660   1.707   0.043   3.248
  825HOH     H1 2661   1.621   0.073   3.218
  825HOH     H2 2662   1.750   0.122   3.281
  826HOH      O 2663   3.788   2.300   3.953
  826HOH     H1 2664   3.699   2.270   3.935
  826HOH     H2 2665   3.787   2.326   4.045
  827HOH      O 2666   3.104   0.166   0.420
  827HOH     H1 2667   3.018   0.141   0.385
  827HOH     H2 2668   3.138   0.228   0.356
  828HOH      O 2669   1.218   1.895   0.325
  828HOH     H1 2670   1.226   1.970   0.384
  828HOH     H2 2671   1.129   1.864   0.338
  829HOH      O 2672   0.064   3.039   3.350
  829HOH     H1 2673   0.049   3.121   3.304
  829HOH     H2 2674   0.153   3.047   3.385
  830HOH      O 2675   4.058   1.590   3.597
  830HOH     H1 2676   4.001   1.666   3.582
  830HOH     H2 2677   3.998   1.518   3.617
  831HOH      O 2678   1.957   2.687   1.680
  831HOH     H1 2679   1.871   2.722   1.704
  831HOH     H2 2680   1.942   2.594   1.665
  832HOH      O 2681   1.771   3.537   3.061
  832HOH     H1 2682   1.820   3.504   2.987
  832HOH     H2 2683   1.680   3.514   3.042
  833HOH      O 2684   2.266   3.972   2.718
  833HOH     H1 2685   2.248   4.008   2.805
  833HOH     H2 2686   2.210   3.895   2.712
  834HOH      O 2687   3.317   2.245   1.378
  834HOH     H1 2688   3.277   2.163   1.349
  834HOH     H2 2689   3.394   2.256   1.321
  835HOH      O 2690   1.793   1.731   0.400
  835HOH     H1 2691   1.824   1.697   0.316
  835HOH     H2 2692   1.858   1.700   0.463
  836HOH      O 2693   1.210   3.913   3.767
  836HOH     H1 2694   1.197   3.823   3.797
  836HOH     H2 2695   1.255   3.956   3.840
  837HOH      O 2696   0.241   1.514   2.851
  837HOH     H1 2697   0.333   1.513   2.878
  837HOH     H2 2698   0.222   1.606   2.833
  838HOH      O 2699   1.257   1.592   3.974
  838HOH     H1 2700   1.276   1.525   4.040
  838HOH     H2 2701   1.338   1.601   3.925
  839HOH      O 2702   2.708   3.635   2.574
  839HOH     H1 2703   2.659   3.711   2.542
  839HOH     H2 2704   2.783   3.628   2.514
  840HOH      O 2705   3.147   0.192   3.624
  840HOH     H1 2706   3.089   0.150   3.688
  840HOH     H2 2707   3.225   0.136   3.622
  841HOH      O 2708   2.038   3.352   2.701
  841HOH     H1 2709   2.009   3.433   2.744
  841HOH     H2 2710   1.957   3.308   2.675
  842HOH      O 2711   3.830   0.336   2.090
  842HOH     H1 2712   3.785   0.281   2.154
  842HOH     H2 2713   3.914   0.357   2.131
  843HOH      O 2714   3.361   2.146   1.785
  843HOH     H1 2715   3.358   2.078   1.852
  843HOH     H2 2716   3.398   2.102   1.708
  844HOH      O 2717   2.461   0.292   0.991
  844HOH     H1 2718   2.419   0.217   1.034
  844HOH     H2 2719   2.459   0.361   1.057
  845HOH      O 2720   2.347   2.814   0.337
  845HOH     H1 2721   2.368   2.864   0.416
  845HOH     H2 2722   2.287   2.870   0.288
  846HOH      O 2723   0.609   3.070   0.273
  846HOH     H1 2724   0.647   3.155   0.249
  846HOH     H2 2725   0.517   3.076   0.247
  847HOH      O 2726   0.213   1.145   2.121
  847HOH     H1 2727   0.156   1.133   2.044
  847HOH     H2 2728   0.301   1.127   2.088
  848HOH      O 2729   2.886   1.125   2.345
  848HOH     H1 2730   2.835   1.191   2.297
  848HOH     H2 2731   2.966   1.115   2.294
  849HOH      O 2732   0.836   3.587   1.672
  849HOH     H1 2733   0.843   3.494   1.695
  849HOH     H2 2734   0.755   3.593   1.622
  850HOH      O 2735   0.462   3.362   1.863
  850HOH     H1 2736   0.421   3.343   1.779
  850HOH     H2 2737   0.476   3.456   1.863
  851HOH      O 2738   2.550   0.979   0.791
  851HOH     H1 2739   2.548   0.888   0.761
  851HOH     H2 2740   2.616   0.980   0.860
  852HOH      O 2741   3.661   2.969   2.988
  852HOH     H1 2742   3.609   3.044   3.017
  852HOH     H2 2743   3.712   3.002   2.914
  853HOH      O 2744   3.145   1.436   1.268
  853HOH     H1 2745   3.110   1.392   1.346
  853HOH     H2 2746   3.234   1.403   1.260
  854HOH      O 2747   2.185   1.572   1.462
  854HOH     H1 2748   2.127   1.514   1.413
  854HOH     H2 2749   2.127   1.642   1.493
  855HOH      O 2750   2.939   1.292   3.243
  855HOH     H1 2751   3.020   1.343   3.243
  855HOH     H2 2752   2.953   1.225   3.176
  856HOH      O 2753   0.661   2.616   2.038
  856HOH     H1 2754   0.569   2.630   2.060
  856HOH     H2 2755   0.703   2.594   2.121
  857HOH      O 2756   2.050   3.258   0.851
  857HOH     H1 2757   2.082   3.347   0.867
  857HOH     H2 2758   1.960   3.259   0.883
  858HOH      O 2759   0.199   2.776   3.914
  858HOH     H1 2760   0.182   2.839   3.844
  858HOH     H2 2761   0.233   2.699   3.869
  859HOH      O 2762   1.648   2.743   0.891
  859HOH     H1 2763   1.702   2.666   0.911
  859HOH     H2 2764   1.591   2.753   0.967
  860HOH      O 2765   2.900   0.593   1.801
  860HOH     H1 2766   2.976   0.651   1.814
  860HOH     H2 2767   2.909   0.563   1.710
  861HOH      O 2768   2.044   2.821   0.068
  861HOH     H1 2769   1.984   2.880   0.022
  861HOH     H2 2770   2.125   2.871   0.076
  862HOH      O 2771   2.895   1.504   0.240
  862HOH     H1 2772   2.914   1.447   0.315
  862HOH     H2 2773   2.980   1.513   0.196
  863HOH      O 2774   3.224   3.336   0.485
  863HOH     H1 2775   3.296   3.278   0.460
  863HOH     H2 2776   3.183   3.360   0.402
  864HOH      O 2777   0.752   2.427   3.968
  864HOH     H1 2778   0.816   2.498   3.980
  864HOH     H2 2779   0.669   2.472   3.953
  865HOH      O 2780   2.579   3.323   3.260
  865HOH     H1 2781   2.489   3.303   3.234
  865HOH     H2 2782   2.614   3.239   3.291
  866HOH      O 2783   2.859   3.215   1.835
  866HOH     H1 2784   2.912   3.295   1.835
  866HOH     H2 2785   2.914   3.149   1.877
  867HOH      O 2786   2.763   0.008   1.804
  867HOH     H1 2787   2.714   0.088   1.784
  867HOH     H2 2788   2.786   0.016   1.897
  868HOH      O 2789   1.551   2.905   3.302
  868HOH     H1 2790   1.559   2.875   3.212
  868HOH     H2 2791   1.560   3.000   3.297
  869HOH      O 2792   0.526   2.897   3.852
  869HOH     H1 2793   0.566   2.811   3.840
  869HOH     H2 2794   0.484   2.892   3.939
  870HOH      O 2795   1.019   2.789   1.353
  870HOH     H1 2796   1.068   2.796   1.272
  870HOH     H2 2797   1.086   2.789   1.422
  871HOH      O 2798   1.924   0.910   1.367
  871HOH     H1 2799   2.003   0.963   1.364
  871HOH     H2 2800   1.897   0.901   1.275
  872HOH      O 2801   1.488   0.275   1.137
  872HOH     H1 2802   1.534   0.205   1.092
  872HOH     H2 2803   1.412   0.293   1.082
  873HOH      O 2804   1.652   1.148   2.987
  873HOH     H1 2805   1.723   1.093   2.953
  873HOH     H2 2806   1.695   1.207   3.049
  874HOH      O 2807   0.320   0.466   3.102
  874HOH     H1 2808   0.241   0.437   3.147
  874HOH     H2 2809   0.385   0.397   3.119
  875HOH      O 2810   3.133   3.365   0.733
  875HOH     H1 2811   3.048   3.407   0.719
  875HOH     H2 2812   3.165   3.345   0.645
  876HOH      O 2813   3.836   1.321   3.260
  876HOH     H1 2814   3.770   1.292   3.323
  876HOH     H2 2815   3.878   1.240   3.231
  877HOH      O 2816   2.619   0.420   0.410
  877HOH     H1 2817   2.583   0.508   0.424
  877HOH     H2 2818   2.555   0.378   0.353
  878HOH      O 2819   1.069   1.504   3.743
  878HOH     H1 2820   1.158   1.473   3.724
  878HOH     H2 2821   1.071   1.527   3.836
  879HOH      O 2822   1.863   3.558   4.007
  879HOH     H1 2823   1.897   3.647   4.005
  879HOH     H2 2824   1.776   3.564   3.966
  880HOH      O 2825   0.286   3.015   1.058
  880HOH     H1 2826   0.271   3.013   1.153
  880HOH     H2 2827   0.376   2.987   1.048
  881HOH      O 2828   1.432   4.027   1.758
  881HOH     H1 2829   1.351   4.073   1.737
  881HOH     H2 2830   1.403   3.951   1.810
  882HOH      O 2831   0.928   1.885   3.069
  882HOH     H1 2832   0.932   1.937   3.149
  882HOH     H2 2833   0.837   1.893   3.040
  883HOH      O 2834   3.936   3.000   1.164
  883HOH     H1 2835   4.002   2.990   1.232
  883HOH     H2 2836   3.867   3.052   1.206
  884HOH      O 2837   2.760   2.764   1.923
  884HOH     H1 2838   2.702   2.724   1.859
  884HOH     H2 2839   2.726   2.852   1.935
  885HOH      O 2840   3.511   3.253   2.414
  885HOH     H1 2841   3.444   3.299   2.363
  885HOH     H2 2842   3.536   3.316   2.482
  886HOH      O 2843   0.295   2.379   2.399
  886HOH     H1 2844   0.360   2.346   2.462
  886HOH     H2 2845   0.212   2.344   2.430
  887HOH      O 2846   3.194   0.809   2.376
  887HOH     H1 2847   3.240   0.856   2.306
  887HOH     H2 2848   3.139   0.876   2.417
  888HOH      O 2849   2.199   1.870   2.860
  888HOH     H1 2850   2.283   1.905   2.889
  888HOH     H2 2851   2.148   1.861   2.941
  889HOH      O 2852   2.047   0.043   1.265
  889HOH     H1 2853   1.974   0.076   1.214
  889HOH     H2 2854   2.040  -0.052   1.259
  890HOH      O 2855   0.052   1.888   0.313
  890HOH     H1 2856  -0.016   1.947   0.279
  890HOH     H2 2857   0.043   1.809   0.260
  891HOH      O 2858   2.259   0.095   2.486
  891HOH     H1 2859   2.336   0.086   2.430
  891HOH     H2 2860   2.280   0.044   2.564
  892HOH      O 2861   2.884   0.858   1.561
  892HOH     H1 2862   2.896   0.881   1.653
  892HOH     H2 2863   2.950   0.791   1.544
  893HOH      O 2864   0.470   3.603   2.789
  893HOH     H1 2865   0.402   3.565   2.845
  893HOH     H2 2866   0.480   3.692   2.822
  894HOH      O 2867   1.943   2.723   0.293
  894HOH     H1 2868   1.854   2.759   0.289
  894HOH     H2 2869   1.981   2.743   0.208
  895HOH      O 2870   2.031   0.122   3.046
  895HOH     H1 2871   1.986   0.047   3.006
  895HOH     H2 2872   2.108   0.135   2.991
  896HOH      O 2873   3.552   1.502   3.211
  896HOH     H1 2874   3.545   1.416   3.252
  896HOH     H2 2875   3.471   1.547   3.235
  897HOH      O 2876   3.943   0.966   3.397
  897HOH     H1 2877   3.890   1.002   3.326
  897HOH     H2 2878   4.034   0.981   3.369
  898HOH      O 2879   2.187   0.838   3.140
  898HOH     H1 2880   2.120   0.892   3.097
  898HOH     H2 2881   2.244   0.902   3.183
  899HOH      O 2882   3.625   0.178   2.803
  899HOH     H1 2883   3.549   0.231   2.826
  899HOH     H2 2884   3.693   0.241   2.780
  900HOH      O 2885   1.112   0.449   2.528
  900HOH     H1 2886   1.142   0.514   2.464
  900HOH     H2 2887   1.119   0.494   2.613
  901HOH      O 2888   2.690   0.827   1.968
  901HOH     H1 2889   2.745   0.848   1.892
  901HOH     H2 2890   2.664   0.736   1.954
  902HOH      O 2891   2.661   1.279   1.769
  902HOH     H1 2892   2.753   1.255   1.780
  902HOH     H2 2893   2.660   1.374   1.779
  903HOH      O 2894   0.719   0.608   2.344
  903HOH     H1 2895   0.786   0.549   2.379
  903HOH     H2 2896   0.708   0.581   2.253
  904HOH      O 2897   0.971   0.434   0.007
  904HOH     H1 2898   0.988   0.463   0.096
  904HOH     H2 2899   0.875   0.435  -0.001
  905HOH      O 2900   2.274   3.734   0.876
  905HOH     H1 2901   2.345   3.796   0.891
  905HOH     H2 2902   2.195   3.779   0.908
  906HOH      O 2903   1.570   0.768   2.881
  906HOH     H1 2904   1.623   0.689   2.871
  906HOH     H2 2905   1.602   0.827   2.813
  907HOH      O 2906   3.231   1.446   1.959
  907HOH     H1 2907   3.247   1.406   2.044
  907HOH     H2 2908   3.218   1.539   1.978
  908HOH      O 2909   0.028   1.657   2.357
  908HOH     H1 2910   0.102   1.626   2.409
  908HOH     H2 2911   0.039   1.614   2.272
  909HOH      O 2912   1.893   0.308   3.851
  909HOH     H1 2913   1.965   0.308   3.788
  909HOH     H2 2914   1.825   0.361   3.810
  910HOH      O 2915   2.788   3.606   1.640
  910HOH     H1 2916   2.824   3.684   1.683
  910HOH     H2 2917   2.838   3.599   1.558
  911HOH      O 2918   0.580   3.150   3.598
  911HOH     H1 2919   0.661   3.105   3.621
  911HOH     H2 2920   0.565   3.126   3.506
  912HOH      O 2921   3.520   3.847   1.533
  912HOH     H1 2922   3.471   3.792   1.472
  912HOH     H2 2923   3.453   3.882   1.592
  913HOH      O 2924   2.135   3.819   2.009
  913HOH     H1 2925   2.192   3.826   1.932
  913HOH     H2 2926   2.072   3.751   1.985
  914HOH      O 2927   3.952   3.548   1.749
  914HOH     H1 2928   3.960   3.553   1.844
  914HOH     H2 2929   3.893   3.619   1.725
  915HOH      O 2930   1.767   3.191   3.522
  915HOH     H1 2931   1.749   3.101   3.546
  915HOH     H2 2932   1.761   3.240   3.604
  916HOH      O 2933   1.857   1.449   2.799
  916HOH     H1 2934   1.848   1.530   2.748
  916HOH     H2 2935   1.775   1.443   2.848
  917HOH      O 2936   2.556   3.354   2.272
  917HOH     H1 2937   2.553   3.444   2.241
  917HOH     H2 2938   2.650   3.332   2.274
  918HOH      O 2939   0.708   0.349   1.427
  918HOH     H1 2940   0.672   0.283   1.486
  918HOH     H2 2941   0.716   0.304   1.343
  919HOH      O 2942   1.485   0.112   3.117
  919HOH     H1 2943   1.492   0.057   3.039
  919HOH     H2 2944   1.396   0.098   3.149
  920HOH      O 2945   3.898   1.930   1.060
  920HOH     H1 2946   3.921   1.853   1.111
  920HOH     H2 2947   3.842   1.981   1.118
  921HOH      O 2948   3.293   1.538   3.613
  921HOH     H1 2949   3.269   1.630   3.620
  921HOH     H2 2950   3.295   1.521   3.518
  922HOH      O 2951   3.692   0.871   3.644
  922HOH     H1 2952   3.717   0.901   3.732
  922HOH     H2 2953   3.771   0.826   3.612
  923HOH      O 2954   0.252   2.050   2.020
  923HOH     H1 2955   0.286   1.965   1.992
  923HOH     H2 2956   0.276   2.110   1.949
  924HOH      O 2957   3.542   2.461   0.459
  924HOH     H1 2958   3.574   2.385   0.508
  924HOH     H2 2959   3.561   2.440   0.368
  925HOH      O 2960   2.919   1.828   0.626
  925HOH     H1 2961   2.960   1.788   0.549
  925HOH     H2 2962   2.940   1.767   0.697
  926HOH      O 2963   2.462   2.987   1.693
  926HOH     H1 2964   2.530   2.956   1.753
  926HOH     H2 2965   2.423   3.062   1.738
  927HOH      O 2966   2.789   2.942   2.944
  927HOH     H1 2967   2.796   2.923   2.850
  927HOH     H2 2968   2.743   2.866   2.980
  928HOH      O 2969   3.291   2.542   0.583
  928HOH     H1 2970   3.382   2.543   0.554
  928HOH     H2 2971   3.246   2.488   0.518
  929HOH      O 2972   3.054   1.717   0.402
  929HOH     H1 2973   3.049   1.710   0.306
  929HOH     H2 2974   3.111   1.644   0.428
  930HOH      O 2975   4.015   2.285   3.095
  930HOH     H1 2976   3.965   2.361   3.125
  930HOH     H2 2977   3.969   2.210   3.132
  931HOH      O 2978   2.787   3.029   0.918
  931HOH     H1 2979   2.754   2.941   0.938
  931HOH     H2 2980   2.867   3.037   0.971
  932HOH      O 2981   3.896   0.986   2.046
  932HOH     H1 2982   3.947   0.906   2.063
  932HOH     H2 2983   3.945   1.032   1.979
  933HOH      O 2984   1.011   2.192   2.034
  933HOH     H1 2985   1.009   2.144   2.117
  933HOH     H2 2986   1.102   2.220   2.024
  934HOH      O 2987   1.456   0.574   2.509
  934HOH     H1 2988   1.548   0.600   2.506
  934HOH     H2 2989   1.419   0.607   2.427
  935HOH      O 2990   3.777   1.675   3.161
  935HOH     H1 2991   3.721   1.601   3.182
  935HOH     H2 2992   3.737   1.749   3.206
  936HOH      O 2993   2.053   1.517   2.043
  936HOH     H1 2994   2.002   1.448   2.085
  936HOH     H2 2995   2.004   1.597   2.062
  937HOH      O 2996   3.754   2.420   3.691
  937HOH     H1 2997   3.796   2.505   3.675
  937HOH     H2 2998   3.723   2.425   3.781
  938HOH      O 2999   0.305   1.537   0.217
  938HOH     H1 3000   0.220   1.498   0.236
  938HOH     H2 3001   0.365   1.463   0.213
  939HOH      O 3002   2.902   0.417   2.592
  939HOH     H1 3003   2.848   0.436   2.668
  939HOH     H2 3004   2.860   0.464   2.520
  940HOH      O 3005   3.839   2.233   2.517
  940HOH     H1 3006   3.855   2.191   2.432
  940HOH     H2 3007   3.781   2.172   2.563
  941HOH      O 3008   1.133   0.634   3.054
  941HOH     H1 3009   1.183   0.558   3.085
  941HOH     H2 3010   1.197   0.705   3.051
  942HOH      O 3011   2.089   1.727   1.796
  942HOH     H1 3012   2.069   1.663   1.864
  942HOH     H2 3013   2.050   1.690   1.716
  943HOH      O 3014   0.234   2.033   2.426
  943HOH     H1 3015   0.209   2.050   2.517
  943HOH     H2 3016   0.329   2.021   2.429
  944HOH      O 3017   3.550   1.755   0.851
  944HOH     H1 3018   3.602   1.766   0.771
  944HOH     H2 3019   3.487   1.686   0.828
  945HOH      O 3020   0.103   3.382   2.846
  945HOH     H1 3021   0.103   3.428   2.763
  945HOH     H2 3022   0.099   3.451   2.912
  946HOH      O 3023   0.120   0.123   2.351
  946HOH     H1 3024   0.032   0.156   2.369
  946HOH     H2 3025   0.178   0.184   2.397
  947HOH      O 3026   0.234   3.713   2.633
  947HOH     H1 3027   0.176   3.758   2.572
  947HOH     H2 3028   0.181   3.641   2.668
  948HOH      O 3029   0.352   1.926   4.024
  948HOH     H1 3030   0.373   1.981   3.948
  948HOH     H2 3031   0.432   1.927   4.076
  949HOH      O 3032   1.447   1.356   3.440
  949HOH     H1 3033   1.464   1.262   3.449
  949HOH     H2 3034   1.503   1.384   3.368
  950HOH      O 3035   2.186   2.346   2.902
  950HOH     H1 3036   2.138   2.356   2.984
  950HOH     H2 3037   2.129   2.385   2.836
  951HOH      O 3038   2.979   0.436   1.577
  951HOH     H1 3039   2.935   0.352   1.562
  951HOH     H2 3040   2.982   0.478   1.491
  952HOH      O 3041   3.932   1.728   3.856
  952HOH     H1 3042   3.999   1.784   3.896
  952HOH     H2 3043   3.981   1.657   3.815
  953HOH      O 3044   1.149   0.053   1.876
  953HOH     H1 3045   1.053   0.057   1.879
  953HOH     H2 3046   1.174   0.126   1.819
  954HOH      O 3047   0.636   1.078   0.096
  954HOH     H1 3048   0.611   1.105   0.008
  954HOH     H2 3049   0.552   1.066   0.142
  955HOH      O 3050   1.347   2.659   1.321
  955HOH     H1 3051   1.379   2.715   1.392
  955HOH     H2 3052   1.342   2.572   1.359
  956HOH      O 3053   3.292   2.218   2.454
  956HOH     H1 3054   3.367   2.160   2.442
  956HOH     H2 3055   3.241   2.177   2.523
  957HOH      O 3056   1.946   0.622   1.391
  957HOH     H1 3057   1.955   0.716   1.402
  957HOH     H2 3058   1.852   0.607   1.385
  958HOH      O 3059   0.132   0.376   3.858
  958HOH     H1 3060   0.037   0.370   3.874
  958HOH     H2 3061   0.161   0.448   3.914
  959HOH      O 3062   2.641   2.170   3.325
  959HOH     H1 3063   2.549   2.189   3.341
  959HOH     H2 3064   2.640   2.085   3.280
  960HOH      O 3065   1.999   1.437   1.325
  960HOH     H1 3066   1.932   1.499   1.298
  960HOH     H2 3067   1.971   1.353   1.288
  961HOH      O 3068   3.547   1.252   0.335
  961HOH     H1 3069   3.475   1.235   0.395
  961HOH     H2 3070   3.516   1.221   0.250
  962HOH      O 3071   1.797   0.558   0.528
  962HOH     H1 3072   1.858   0.601   0.588
  962HOH     H2 3073   1.713   0.560   0.573
  963HOH      O 3074   1.968   3.055   2.271
  963HOH     H1 3075   1.978   2.977   2.326
  963HOH     H2 3076   1.924   3.023   2.193
  964HOH      O 3077   2.280   0.541   2.388
  964HOH     H1 3078   2.237   0.473   2.441
  964HOH     H2 3079   2.341   0.492   2.332
  965HOH      O 3080   1.871   3.631   0.976
  965HOH     H1 3081   1.828   3.634   0.891
  965HOH     H2 3082   1.955   3.587   0.959
  966HOH      O 3083   1.683   2.820   2.330
  966HOH     H1 3084   1.755   2.758   2.341
  966HOH     H2 3085   1.693   2.881   2.404
  967HOH      O 3086   1.642   3.186   1.414
  967HOH     H1 3087   1.587   3.232   1.350
  967HOH     H2 3088   1.730   3.219   1.399
  968HOH      O 3089   1.280   2.200   3.996
  968HOH     H1 3090   1.252   2.262   4.063
  968HOH     H2 3091   1.267   2.246   3.914
  969HOH      O 3092   2.423   0.952   1.606
  969HOH     H1 3093   2.467   0.974   1.688
  969HOH     H2 3094   2.334   0.928   1.632
  970HOH      O 3095   3.096   1.815   1.723
  970HOH     H1 3096   3.055   1.835   1.639
  970HOH     H2 3097   3.037   1.854   1.788
  971HOH      O 3098   0.392   3.062   3.047
  971HOH     H1 3099   0.341   3.006   3.105
  971HOH     H2 3100   0.483   3.047   3.073
  972HOH      O 3101   3.536   0.295   3.075
  972HOH     H1 3102   3.551   0.333   3.161
  972HOH     H2 3103   3.596   0.220   3.071
  973HOH      O 3104   2.448   3.646   1.266
  973HOH     H1 3105   2.399   3.605   1.337
  973HOH     H2 3106   2.464   3.576   1.203
  974HOH      O 3107   0.619   3.006   1.299
  974HOH     H1 3108   0.569   3.069   1.350
  974HOH     H2 3109   0.624   2.928   1.354
  975HOH      O 3110   3.194   3.061   0.690
  975HOH     H1 3111   3.121   3.060   0.627
  975HOH     H2 3112   3.182   3.142   0.739
  976HOH      O 3113   0.279   2.490   0.330
  976HOH     H1 3114   0.270   2.517   0.421
  976HOH     H2 3115   0.242   2.562   0.280
  977HOH      O 3116   1.926   2.026   2.077
  977HOH     H1 3117   1.993   2.088   2.049
  977HOH     H2 3118   1.844   2.074   2.066
  978HOH      O 3119   1.189   2.447   2.839
  978HOH     H1 3120   1.126   2.470   2.907
  978HOH     H2 3121   1.275   2.456   2.881
  979HOH      O 3122   0.537   2.831   1.515
  979HOH     H1 3123   0.568   2.795   1.598
  979HOH     H2 3124   0.487   2.908   1.540
  980HOH      O 3125   0.539   0.290   1.951
  980HOH     H1 3126   0.500   0.219   2.002
  980HOH     H2 3127   0.496   0.284   1.865
  981HOH      O 3128   1.493   3.653   3.790
  981HOH     H1 3129   1.500   3.610   3.705
  981HOH     H2 3130   1.402   3.638   3.817
  982HOH      O 3131   3.823   0.670   1.065
  982HOH     H1 3132   3.739   0.636   1.097
  982HOH     H2 3133   3.868   0.593   1.030
  983HOH      O 3134   3.702   1.215   3.491
  983HOH     H1 3135   3.737   1.173   3.570
  983HOH     H2 3136   3.634   1.155   3.460
  984HOH      O 3137   3.369   0.045   3.608
  984HOH     H1 3138   3.375  -0.019   3.537
  984HOH     H2 3139   3.454   0.089   3.608
  985HOH      O 3140  -0.023   2.377   2.226
  985HOH     H1 3141   0.061   2.422   2.240
  985HOH     H2 3142  -0.000   2.284   2.222
  986HOH      O 3143   2.431   1.578   3.115
  986HOH     H1 3144   2.499   1.531   3.163
  986HOH     H2 3145   2.378   1.509   3.075
  987HOH      O 3146   3.204   1.471   0.412
  987HOH     H1 3147   3.227   1.455   0.504
  987HOH     H2 3148   3.183   1.384   0.378
  988HOH      O 3149   0.961   0.782   2.228
  988HOH     H1 3150   0.920   0.792   2.142
  988HOH     H2 3151   0.889   0.766   2.288
  989HOH      O 3152   1.805   2.593   2.406
  989HOH     H1 3153   1.799   2.498   2.417
  989HOH     H2 3154   1.893   2.615   2.437
  990HOH      O 3155   0.909   3.956   1.570
  990HOH     H1 3156   0.835   3.985   1.624
  990HOH     H2 3157   0.973   4.026   1.579
  991HOH      O 3158   3.626   3.689   0.209
  991HOH     H1 3159   3.588   3.776   0.216
  991HOH     H2 3160   3.552   3.630   0.215
  992HOH      O 3161   3.527   3.312   1.617
  992HOH     H1 3162   3.533   3.353   1.704
  992HOH     H2 3163   3.573   3.229   1.626
  993HOH      O 3164   1.134   3.140   2.813
  993HOH     H1 3165   1.126   3.223   2.766
  993HOH     H2 3166   1.115   3.162   2.904
  994HOH      O 3167   0.374   2.213   2.830
  994HOH     H1 3168   0.315   2.277   2.869
  994HOH     H2 3169   0.317   2.157   2.776
  995HOH      O 3170   3.952   0.950   2.673
  995HOH     H1 3171   3.998   0.916   2.595
  995HOH     H2 3172   4.008   0.924   2.746
  996HOH      O 3173   0.744   3.427   3.645
  996HOH     H1 3174   0.670   3.488   3.640
  996HOH     H2 3175   0.751   3.392   3.556
  997HOH      O 3176   3.994   3.242   3.176
  997HOH     H1 3177   3.919   3.183   3.169
  997HOH     H2 3178   4.056   3.208   3.111
  998HOH      O 3179   1.124   1.241   2.522
  998HOH     H1 3180   1.193   1.207   2.579
  998HOH     H2 3181   1.111   1.331   2.553
  999HOH      O 3182   2.480   3.110   1.031
  999HOH     H1 3183   2.398   3.128   1.077
  999HOH     H2 3184   2.540   3.082   1.100
 1000HOH      O 3185   2.095   0.313   2.421
 1000HOH     H1 3186   2.018   0.256   2.430
 1000HOH     H2 3187   2.166   0.262   2.459
 1001HOH      O 3188   0.515   3.226   0.877
 1001HOH     H1 3189   0.448   3.195   0.816
 1001HOH     H2 3190   0.542   3.147   0.924
 1002HOH      O 3191   3.571   3.252   2.986
 1002HOH     H1 3192   3.580   3.270   3.079
 1002HOH     H2 3193   3.480   3.223   2.975
 1003HOH      O 3194   3.785   2.148   1.188
 1003HOH     H1 3195   3.875   2.157   1.157
 1003HOH     H2 3196   3.793   2.145   1.284
 1004HOH      O 3197   0.487   1.601   2.267
 1004HOH     H1 3198   0.433   1.523   2.277
 1004HOH     H2 3199   0.482   1.622   2.173
 1005HOH      O 3200   1.390   3.880   2.995
 1005HOH     H1 3201   1.464   3.853   2.940
 1005HOH     H2 3202   1.314   3.872   2.938
 1006HOH      O 3203   3.134   0.384   3.410
 1006HOH     H1 3204   3.157   0.320   3.477
 1006HOH     H2 3205   3.189   0.460   3.429
 1007HOH      O 3206   1.240   2.073   0.810
 1007HOH     H1 3207   1.297   2.043   0.880
 1007HOH     H2 3208   1.296   2.080   0.733
 1008HOH      O 3209   0.343   3.891   3.694
 1008HOH     H1 3210   0.363   3.946   3.769
 1008HOH     H2 3211   0.250   3.869   3.704
 1009HOH      O 3212   3.075   3.377   2.074
 1009HOH     H1 3213   3.028   3.324   2.138
 1009HOH     H2 3214   3.136   3.315   2.033
 1010HOH      O 3215   0.608   1.633   0.147
 1010HOH     H1 3216   0.557   1.597   0.075
 1010HOH     H2 3217   0.545   1.681   0.200
 1011HOH      O 3218   3.474   1.999   2.396
 1011HOH     H1 3219   3.553   2.018   2.447
 1011HOH     H2 3220   3.504   1.943   2.325
 1012HOH      O 3221   1.627   0.011   3.804
 1012HOH     H1 3222   1.532   0.027   3.796
 1012HOH     H2 3223   1.655   0.070   3.875
 1013HOH      O 3224   3.522   1.587   1.953
 1013HOH     H1 3225   3.477   1.525   2.010
 1013HOH     H2 3226   3.581   1.533   1.901
 1014HOH      O 3227   1.118   3.248   3.072
 1014HOH     H1 3228   1.032   3.208   3.090
 1014HOH     H2 3229   1.101   3.342   3.071
 1015HOH      O 3230   3.479   0.082   1.178
 1015HOH     H1 3231   3.463   0.176   1.184
 1015HOH     H2 3232   3.452   0.059   1.089
 1016HOH      O 3233   0.504   1.104   3.262
 1016HOH     H1 3234   0.499   1.160   3.340
 1016HOH     H2 3235   0.442   1.144   3.200
 1017HOH      O 3236   1.933   1.676   1.051
 1017HOH     H1 3237   1.893   1.643   0.970
 1017HOH     H2 3238   2.009   1.620   1.064
 1018HOH      O 3239   1.764   1.619   1.754
 1018HOH     H1 3240   1.698   1.613   1.685
 1018HOH     H2 3241   1.765   1.711   1.779
 1019HOH      O 3242   1.414   1.983   3.749
 1019HOH     H1 3243   1.344   1.959   3.808
 1019HOH     H2 3244   1.426   1.907   3.692
 1020HOH      O 3245   0.906   3.338   1.754
 1020HOH     H1 3246   0.981   3.319   1.699
 1020HOH     H2 3247   0.879   3.253   1.789
 1021HOH      O 3248   1.101   3.468   4.013
 1021HOH     H1 3249   1.009   3.492   4.003
 1021HOH     H2 3250   1.100   3.373   4.020
 1022HOH      O 3251   2.739   1.118   3.601
 1022HOH     H1 3252   2.827   1.152   3.590
 1022HOH     H2 3253   2.752   1.025   3.620
 1023HOH      O 3254   3.333   3.551   2.029
 1023HOH     H1 3255   3.271   3.612   1.989
 1023HOH     H2 3256   3.323   3.470   1.979
 1024HOH      O 3257   2.203   3.454   1.770
 1024HOH     H1 3258   2.220   3.364   1.799
 1024HOH     H2 3259   2.247   3.508   1.835
 1025HOH      O 3260   1.972   0.875   0.799
 1025HOH     H1 3261   2.057   0.884   0.842
 1025HOH     H2 3262   1.991   0.884   0.706
 1026HOH      O 3263   1.252   0.399   3.139
 1026HOH     H1 3264   1.336   0.379   3.096
 1026HOH     H2 3265   1.194   0.328   3.112
 1027HOH      O 3266   3.054   2.077   2.117
 1027HOH     H1 3267   3.065   2.171   2.131
 1027HOH     H2 3268   3.100   2.036   2.190
 1028HOH      O 3269   2.500   0.207   2.843
 1028HOH     H1 3270   2.528   0.212   2.752
 1028HOH     H2 3271   2.562   0.263   2.890
 1029HOH      O 3272   3.489   1.792   1.530
 1029HOH     H1 3273   3.488   1.742   1.448
 1029HOH     H2 3274   3.433   1.742   1.589
 1030HOH      O 3275   2.889   0.948   1.805
 1030HOH     H1 3276   2.907   1.038   1.778
 1030HOH     H2 3277   2.958   0.927   1.868
 1031HOH      O 3278   0.548   0.441   0.203
 1031HOH     H1 3279   0.565   0.523   0.250
 1031HOH     H2 3280   0.453   0.433   0.204
 1032HOH      O 3281   1.307   1.987   1.984
 1032HOH     H1 3282   1.276   1.898   1.995
 1032HOH     H2 3283   1.311   2.000   1.889
 1033HOH      O 3284   2.594   3.702   3.639
 1033HOH     H1 3285   2.681   3.667   3.660
 1033HOH     H2 3286   2.560   3.642   3.572
 1034HOH      O 3287   2.220   3.118   2.188
 1034HOH     H1 3288   2.137   3.104   2.234
 1034HOH     H2 3289   2.202   3.090   2.098
 1035HOH      O 3290   0.144   2.801   1.751
 1035HOH     H1 3291   0.169   2.850   1.673
 1035HOH     H2 3292   0.141   2.710   1.722
 1036HOH      O 3293   2.378   2.211   3.437
 1036HOH     H1 3294   2.357   2.120   3.456
 1036HOH     H2 3295   2.406   2.247   3.521
 1037HOH      O 3296   2.011   3.606   0.556
 1037HOH     H1 3297   2.050   3.693   0.566
 1037HOH     H2 3298   1.975   3.606   0.467
 1038HOH      O 3299   2.609   3.684   3.044
 1038HOH     H1 3300   2.573   3.623   2.981
 1038HOH     H2 3301   2.704   3.672   3.038
 1039HOH      O 3302   0.813   0.871   3.078
 1039HOH     H1 3303   0.811   0.946   3.138
 1039HOH     H2 3304   0.840   0.798   3.132
 1040HOH      O 3305   3.749   3.157   1.702
 1040HOH     H1 3306   3.796   3.079   1.674
 1040HOH     H2 3307   3.809   3.229   1.682
 1041HOH      O 3308   3.833   1.360   2.067
 1041HOH     H1 3309   3.833   1.398   1.979
 1041HOH     H2 3310   3.748   1.317   2.074
 1042HOH      O 3311   2.815   3.762   3.446
 1042HOH     H1 3312   2.776   3.770   3.359
 1042HOH     H2 3313   2.801   3.848   3.486
 1043HOH      O 3314   1.152   2.771   0.614
 1043HOH     H1 3315   1.068   2.814   0.594
 1043HOH     H2 3316   1.209   2.843   0.640
 1044HOH      O 3317   0.290   3.110   3.466
 1044HOH     H1 3318   0.298   3.075   3.555
 1044HOH     H2 3319   0.289   3.205   3.477
 1045HOH      O 3320   1.323   3.421   2.859
 1045HOH     H1 3321   1.332   3.326   2.853
 1045HOH     H2 3322   1.311   3.450   2.768
 1046HOH      O 3323   0.294   2.253   3.448
 1046HOH     H1 3324   0.348   2.284   3.376
 1046HOH     H2 3325   0.300   2.157   3.443
 1047HOH      O 3326   0.658   1.099   2.115
 1047HOH     H1 3327   0.584   1.125   2.060
 1047HOH     H2 3328   0.720   1.057   2.055
 1048HOH      O 3329   2.498   1.989   2.444
 1048HOH     H1 3330   2.504   1.904   2.402
 1048HOH     H2 3331   2.404   1.999   2.463
 1049HOH      O 3332   0.514   1.982   2.106
 1049HOH     H1 3333   0.527   2.072   2.074
 1049HOH     H2 3334   0.426   1.983   2.144
 1050HOH      O 3335   0.151   3.238   2.158
 1050HOH     H1 3336   0.090   3.210   2.089
 1050HOH     H2 3337   0.096   3.286   2.220
 1051HOH      O 3338   3.411   0.887   3.564
 1051HOH     H1 3339   3.408   0.805   3.515
 1051HOH     H2 3340   3.494   0.883   3.612
 1052HOH      O 3341   1.522   3.150   0.796
 1052HOH     H1 3342   1.507   3.082   0.863
 1052HOH     H2 3343   1.458   3.218   0.817
 1053HOH      O 3344   2.052   0.094   1.773
 1053HOH     H1 3345   1.974   0.069   1.723
 1053HOH     H2 3346   2.018   0.148   1.845
 1054HOH      O 3347   2.033   1.946   1.209
 1054HOH     H1 3348   1.941   1.922   1.219
 1054HOH     H2 3349   2.031   2.038   1.182
 1055HOH      O 3350   0.380   3.920   0.827
 1055HOH     H1 3351   0.364   3.962   0.912
 1055HOH     H2 3352   0.432   3.842   0.848
 1056HOH      O 3353   0.189   2.079   1.613
 1056HOH     H1 3354   0.163   2.054   1.702
 1056HOH     H2 3355   0.138   2.021   1.557
 1057HOH      O 3356   1.188   3.617   1.099
 1057HOH     H1 3357   1.236   3.631   1.017
 1057HOH     H2 3358   1.111   3.566   1.072
 1058HOH      O 3359   2.259   2.528   1.896
 1058HOH     H1 3360   2.287   2.560   1.982
 1058HOH     H2 3361   2.315   2.574   1.833
 1059HOH      O 3362   0.027   0.645   0.265
 1059HOH     H1 3363   0.104   0.697   0.287
 1059HOH     H2 3364  -0.046   0.707   0.265
 1060HOH      O 3365   3.890   3.718   2.436
 1060HOH     H1 3366   3.852   3.775   2.369
 1060HOH     H2 3367   3.821   3.654   2.455
 1061HOH      O 3368   3.002   1.142   2.979
 1061HOH     H1 3369   3.047   1.224   2.957
 1061HOH     H2 3370   3.006   1.090   2.899
 1062HOH      O 3371   3.976   0.164   1.084
 1062HOH     H1 3372   4.013   0.234   1.138
 1062HOH     H2 3373   3.893   0.142   1.127
 1063HOH      O 3374   1.713   1.821   3.470
 1063HOH     H1 3375   1.747   1.903   3.506
 1063HOH     H2 3376   1.690   1.770   3.548
 1064HOH      O 3377   3.700   1.956   3.013
 1064HOH     H1 3378   3.721   2.026   2.951
 1064HOH     H2 3379   3.778   1.901   3.016
 1065HOH      O 3380   0.468   3.866   3.130
 1065HOH     H1 3381   0.459   3.828   3.217
 1065HOH     H2 3382   0.562   3.880   3.120
 1066HOH      O 3383   0.339   3.473   3.225
 1066HOH     H1 3384   0.368   3.408   3.161
 1066HOH     H2 3385   0.260   3.511   3.186
 1067HOH      O 3386   3.839   1.478   0.721
 1067HOH     H1 3387   3.810   1.480   0.813
 1067HOH     H2 3388   3.884   1.561   0.708
 1068HOH      O 3389   0.339   0.099   1.552
 1068HOH     H1 3390   0.357   0.004   1.551
 1068HOH     H2 3391   0.245   0.105   1.569
 1069HOH      O 3392   2.094   1.000   2.614
 1069HOH     H1 3393   2.130   0.911   2.614
 1069HOH     H2 3394   2.150   1.049   2.673
 1070HOH      O 3395   1.040   0.125   2.312
 1070HOH     H1 3396   1.021   0.144   2.403
 1070HOH     H2 3397   0.978   0.179   2.263
 1071HOH      O 3398   3.958   1.855   0.638
 1071HOH     H1 3399   4.034   1.816   0.594
 1071HOH     H2 3400   3.883   1.812   0.598
 1072HOH      O 3401   0.041   1.673   0.150
 1072HOH     H1 3402   0.096   1.696   0.075
 1072HOH     H2 3403   0.052   1.578   0.158
 1073HOH      O 3404   3.855   3.305   2.656
 1073HOH     H1 3405   3.900   3.230   2.694
 1073HOH     H2 3406   3.852   3.285   2.562
 1074HOH      O 3407   0.946   2.942   0.582
 1074HOH     H1 3408   0.889   2.945   0.505
 1074HOH     H2 3409   0.903   3.000   0.646
 1075HOH      O 3410   2.987   0.426   3.165
 1075HOH     H1 3411   3.039   0.381   3.232
 1075HOH     H2 3412   3.018   0.516   3.168
 1076HOH      O 3413   0.417   1.662   1.529
 1076HOH     H1 3414   0.326   1.633   1.534
 1076HOH     H2 3415   0.463   1.612   1.596
 1077HOH      O 3416   3.380   3.324   3.862
 1077HOH     H1 3417   3.377   3.341   3.768
 1077HOH     H2 3418   3.345   3.235   3.872
 1078HOH      O 3419   1.263   0.196   1.669
 1078HOH     H1 3420   1.311   0.200   1.586
 1078HOH     H2 3421   1.270   0.285   1.704
 1079HOH      O 3422   0.218   0.048   2.635
 1079HOH     H1 3423   0.201   0.015   2.547
 1079HOH     H2 3424   0.231   0.142   2.623
 1080HOH      O 3425   0.869   3.757   0.494
 1080HOH     H1 3426   0.804   3.825   0.514
 1080HOH     H2 3427   0.818   3.676   0.493
 1081HOH      O 3428   1.418   1.767   1.298
 1081HOH     H1 3429   1.344   1.706   1.306
 1081HOH     H2 3430   1.376   1.853   1.283
 1082HOH      O 3431   2.015   3.074   1.388
 1082HOH     H1 3432   1.963   3.150   1.416
 1082HOH     H2 3433   1.972   3.044   1.308
 1083HOH      O 3434   3.828   2.976   2.379
 1083HOH     H1 3435   3.792   2.923   2.450
 1083HOH     H2 3436   3.812   2.925   2.300
 1084HOH      O 3437   2.992   0.884   2.795
 1084HOH     H1 3438   3.061   0.831   2.837
 1084HOH     H2 3439   2.928   0.820   2.764
 1085HOH      O 3440   1.465   4.009   2.083
 1085HOH     H1 3441   1.395   4.040   2.026
 1085HOH     H2 3442   1.419   3.964   2.155
 1086HOH      O 3443   2.536   3.538   3.414
 1086HOH     H1 3444   2.477   3.589   3.359
 1086HOH     H2 3445   2.546   3.455   3.368
 1087HOH      O 3446   1.685   1.959   2.291
 1087HOH     H1 3447   1.675   1.864   2.290
 1087HOH     H2 3448   1.777   1.973   2.316
 1088HOH      O 3449   2.104   3.116   3.525
 1088HOH     H1 3450   2.140   3.044   3.473
 1088HOH     H2 3451   2.178   3.146   3.578
 1089HOH      O 3452   3.259   2.374   1.848
 1089HOH     H1 3453   3.293   2.288   1.823
 1089HOH     H2 3454   3.215   2.359   1.931
 1090HOH      O 3455   3.597   3.250   2.105
 1090HOH     H1 3456   3.581   3.196   2.183
 1090HOH     H2 3457   3.597   3.340   2.138
 1091HOH      O 3458   2.154   1.935   0.049
 1091HOH     H1 3459   2.230   1.993   0.052
 1091HOH     H2 3460   2.079   1.994   0.052
 1092HOH      O 3461   0.554   2.250   2.050
 1092HOH     H1 3462   0.608   2.273   1.975
 1092HOH     H2 3463   0.489   2.321   2.055
 1093HOH      O 3464   2.723   3.876   0.240
 1093HOH     H1 3465   2.708   3.789   0.203
 1093HOH     H2 3466   2.635   3.906   0.265
 1094HOH      O 3467   0.758   3.291   3.860
 1094HOH     H1 3468   0.762   3.344   3.780
 1094HOH     H2 3469   0.670   3.306   3.894
 1095HOH      O 3470   0.466   2.389   2.608
 1095HOH     H1 3471   0.530   2.318   2.607
 1095HOH     H2 3472   0.505   2.456   2.665
 1096HOH      O 3473   0.555   1.239   2.896
 1096HOH     H1 3474   0.642   1.211   2.921
 1096HOH     H2 3475   0.515   1.162   2.856
 1097HOH      O 3476   0.796   0.287   2.215
 1097HOH     H1 3477   0.721   0.228   2.214
 1097HOH     H2 3478   0.796   0.325   2.303
 1098HOH      O 3479   0.551   0.197   3.655
 1098HOH     H1 3480   0.626   0.141   3.636
 1098HOH     H2 3481   0.588   0.271   3.704
 1099HOH      O 3482   3.458   0.028   0.902
 1099HOH     H1 3483   3.450   0.096   0.835
 1099HOH     H2 3484   3.409  -0.046   0.866
 1100HOH      O 3485   3.085   0.819   3.743
 1100HOH     H1 3486   3.145   0.894   3.750
 1100HOH     H2 3487   3.142   0.747   3.717
 1101HOH      O 3488   0.390   0.316   1.714
 1101HOH     H1 3489   0.463   0.371   1.683
 1101HOH     H2 3490   0.390   0.241   1.654
 1102HOH      O 3491   3.482   3.656   2.401
 1102HOH     H1 3492   3.514   3.584   2.456
 1102HOH     H2 3493   3.556   3.677   2.344
 1103HOH      O 3494   3.397   0.811   0.493
 1103HOH     H1 3495   3.412   0.902   0.468
 1103HOH     H2 3496   3.431   0.804   0.582
 1104HOH      O 3497   1.860   0.215   1.971
 1104HOH     H1 3498   1.802   0.252   2.038
 1104HOH     H2 3499   1.808   0.145   1.931
 1105HOH      O 3500   0.288   3.776   2.967
 1105HOH     H1 3501   0.342   3.822   3.031
 1105HOH     H2 3502   0.216   3.739   3.019
 1106HOH      O 3503   3.414   2.204   0.788
 1106HOH     H1 3504   3.373   2.227   0.871
 1106HOH     H2 3505   3.455   2.286   0.758
 1107HOH      O 3506   1.523   1.372   2.578
 1107HOH     H1 3507   1.458   1.326   2.632
 1107HOH     H2 3508   1.524   1.323   2.496
 1108HOH      O 3509   2.168   2.899   3.105
 1108HOH     H1 3510   2.111   2.875   3.032
 1108HOH     H2 3511   2.247   2.846   3.093
 1109HOH      O 3512   2.758   1.439   3.712
 1109HOH     H1 3513   2.790   1.352   3.687
 1109HOH     H2 3514   2.764   1.439   3.808
 1110HOH      O 3515   2.384   3.272   0.803
 1110HOH     H1 3516   2.322   3.259   0.875
 1110HOH     H2 3517   2.470   3.257   0.843
 1111HOH      O 3518   3.582   3.042   1.922
 1111HOH     H1 3519   3.605   3.077   1.836
 1111HOH     H2 3520   3.602   3.113   1.983
 1112HOH      O 3521   2.536   1.053   1.834
 1112HOH     H1 3522   2.573   1.141   1.821
 1112HOH     H2 3523   2.605   1.005   1.880
 1113HOH      O 3524   2.349   3.497   1.481
 1113HOH     H1 3525   2.371   3.424   1.539
 1113HOH     H2 3526   2.307   3.561   1.538
 1114HOH      O 3527   2.805   1.178   3.950
 1114HOH     H1 3528   2.802   1.272   3.968
 1114HOH     H2 3529   2.745   1.165   3.877
 1115HOH      O 3530   3.020   2.854   3.422
 1115HOH     H1 3531   2.998   2.822   3.335
 1115HOH     H2 3532   2.939   2.891   3.455
 1116HOH      O 3533   2.605   3.151   2.955
 1116HOH     H1 3534   2.685   3.098   2.959
 1116HOH     H2 3535   2.632   3.230   2.908
 1117HOH      O 3536   2.747   2.970   2.321
 1117HOH     H1 3537   2.804   2.900   2.352
 1117HOH     H2 3538   2.680   2.925   2.269
 1118HOH      O 3539   1.019   0.250   3.828
 1118HOH     H1 3540   1.087   0.183   3.838
 1118HOH     H2 3541   1.037   0.312   3.898
 1119HOH      O 3542   1.977   0.181   3.328
 1119HOH     H1 3543   2.042   0.248   3.347
 1119HOH     H2 3544   1.993   0.158   3.236
 1120HOH      O 3545   3.968   3.338   3.841
 1120HOH     H1 3546   3.878   3.327   3.871
 1120HOH     H2 3547   3.998   3.249   3.823
 1121HOH      O 3548   2.057   2.009   1.635
 1121HOH     H1 3549   1.968   2.033   1.659
 1121HOH     H2 3550   2.104   2.093   1.633
 1122HOH      O 3551   2.116   3.325   0.562
 1122HOH     H1 3552   2.055   3.398   0.558
 1122HOH     H2 3553   2.100   3.285   0.647
 1123HOH      O 3554   3.016   1.144   0.975
 1123HOH     H1 3555   3.046   1.232   0.999
 1123HOH     H2 3556   3.088   1.086   0.999
 1124HOH      O 3557   2.925   3.369   1.043
 1124HOH     H1 3558   3.020   3.355   1.039
 1124HOH     H2 3559   2.905   3.371   1.137
 1125HOH      O 3560   0.463   0.207   3.407
 1125HOH     H1 3561   0.400   0.279   3.412
 1125HOH     H2 3562   0.492   0.194   3.497
 1126HOH      O 3563   1.797   3.237   2.709
 1126HOH     H1 3564   1.736   3.306   2.685
 1126HOH     H2 3565   1.753   3.190   2.779
 1127HOH      O 3566   0.726   3.364   1.383
 1127HOH     H1 3567   0.653   3.302   1.380
 1127HOH     H2 3568   0.799   3.314   1.419
 1128HOH      O 3569   0.038   2.033   1.847
 1128HOH     H1 3570  -0.008   2.116   1.854
 1128HOH     H2 3571   0.113   2.042   1.906
 1129HOH      O 3572   2.382   1.625   2.580
 1129HOH     H1 3573   2.379   1.580   2.496
 1129HOH     H2 3574   2.297   1.668   2.587
 1130HOH      O 3575   2.300   1.665   0.004
 1130HOH     H1 3576   2.233   1.602   0.030
 1130HOH     H2 3577   2.255   1.749   0.002
 1131HOH      O 3578   1.577   1.816   2.879
 1131HOH     H1 3579   1.654   1.765   2.904
 1131HOH     H2 3580   1.581   1.817   2.783
 1132HOH      O 3581   3.764   3.816  -0.005
 1132HOH     H1 3582   3.843   3.763   0.010
 1132HOH     H2 3583   3.702   3.784   0.060
 1133HOH      O 3584   1.172   0.870   1.153
 1133HOH     H1 3585   1.206   0.941   1.098
 1133HOH     H2 3586   1.145   0.803   1.090
 1134HOH      O 3587   2.341   0.299   0.307
 1134HOH     H1 3588   2.278   0.354   0.261
 1134HOH     H2 3589   2.380   0.245   0.238
 1135HOH      O 3590   2.143   1.702   2.353
 1135HOH     H1 3591   2.122   1.709   2.446
 1135HOH     H2 3592   2.205   1.629   2.348
 1136HOH      O 3593   1.814   1.827   3.883
 1136HOH     H1 3594   1.783   1.918   3.882
 1136HOH     H2 3595   1.752   1.780   3.828
 1137HOH      O 3596   0.748   3.337   0.496
 1137HOH     H1 3597   0.705   3.267   0.545
 1137HOH     H2 3598   0.676   3.389   0.460
 1138HOH      O 3599   2.572   2.535   2.788
 1138HOH     H1 3600   2.533   2.590   2.720
 1138HOH     H2 3601   2.578   2.448   2.748
 1139HOH      O 3602   0.485   2.811   0.755
 1139HOH     H1 3603   0.569   2.777   0.787
 1139HOH     H2 3604   0.504   2.902   0.731
 1140HOH      O 3605   0.731   1.538   3.773
 1140HOH     H1 3606   0.795   1.545   3.702
 1140HOH     H2 3607   0.682   1.620   3.770
 1141HOH      O 3608   1.272   0.245   0.805
 1141HOH     H1 3609   1.276   0.149   0.805
 1141HOH     H2 3610   1.253   0.268   0.895
 1142HOH      O 3611   3.830   0.781   0.245
 1142HOH     H1 3612   3.818   0.875   0.262
 1142HOH     H2 3613   3.821   0.740   0.331
 1143HOH      O 3614   1.168   3.466   2.363
 1143HOH     H1 3615   1.169   3.475   2.268
 1143HOH     H2 3616   1.142   3.375   2.378
 1144HOH      O 3617   2.361   1.307   2.174
 1144HOH     H1 3618   2.321   1.220   2.171
 1144HOH     H2 3619   2.344   1.344   2.088
 1145HOH      O 3620   0.410   2.077   1.236
 1145HOH     H1 3621   0.479   2.057   1.299
 1145HOH     H2 3622   0.352   2.137   1.282
 1146HOH      O 3623   0.278   0.115   0.294
 1146HOH     H1 3624   0.286   0.086   0.203
 1146HOH     H2 3625   0.183   0.120   0.308
 1147HOH      O 3626   0.247   1.531   1.850
 1147HOH     H1 3627   0.340   1.506   1.856
 1147HOH     H2 3628   0.228   1.529   1.756
 1148HOH      O 3629   0.926   3.516   1.011
 1148HOH     H1 3630   0.869   3.508   0.934
 1148HOH     H2 3631   0.868   3.542   1.082
 1149HOH      O 3632   0.810   0.571   2.704
 1149HOH     H1 3633   0.794   0.525   2.786
 1149HOH     H2 3634   0.839   0.658   2.732
 1150HOH      O 3635   3.446   1.416   2.140
 1150HOH     H1 3636   3.379   1.403   2.207
 1150HOH     H2 3637   3.527   1.385   2.181
 1151HOH      O 3638   2.026   2.322   2.678
 1151HOH     H1 3639   1.991   2.410   2.670
 1151HOH     H2 3640   1.950   2.268   2.700
 1152HOH      O 3641   0.853   3.949   0.737
 1152HOH     H1 3642   0.880   4.041   0.727
 1152HOH     H2 3643   0.765   3.946   0.699
 1153HOH      O 3644   1.627   1.105   0.173
 1153HOH     H1 3645   1.722   1.094   0.166
 1153HOH     H2 3646   1.594   1.016   0.187
 1154HOH      O 3647   1.076   1.989   0.616
 1154HOH     H1 3648   1.008   1.934   0.653
 1154HOH     H2 3649   1.155   1.967   0.666
 1155HOH      O 3650   0.318   1.392   2.166
 1155HOH     H1 3651   0.369   1.387   2.085
 1155HOH     H2 3652   0.272   1.308   2.170
 1156HOH      O 3653   1.185   0.235   1.098
 1156HOH     H1 3654   1.179   0.139   1.100
 1156HOH     H2 3655   1.096   0.265   1.077
 1157HOH      O 3656   0.798   1.539   2.799
 1157HOH     H1 3657   0.794   1.587   2.882
 1157HOH     H2 3658   0.765   1.600   2.734
 1158HOH      O 3659   2.533   0.066   2.393
 1158HOH     H1 3660   2.583   0.137   2.353
 1158HOH     H2 3661   2.557  -0.012   2.343
 1159HOH      O 3662   3.802   1.756   3.615
 1159HOH     H1 3663   3.755   1.674   3.597
 1159HOH     H2 3664   3.803   1.762   3.711
 1160HOH      O 3665   1.625   1.657   3.673
 1160HOH     H1 3666   1.594   1.612   3.752
 1160HOH     H2 3667   1.546   1.694   3.634
 1161HOH      O 3668   3.768   0.092   1.261
 1161HOH     H1 3669   3.673   0.101   1.249
 1161HOH     H2 3670   3.778   0.078   1.355
 1162HOH      O 3671   3.048   0.444   1.067
 1162HOH     H1 3672   2.969   0.463   1.015
 1162HOH     H2 3673   3.088   0.370   1.022
 1163HOH      O 3674   3.614   2.587   1.616
 1163HOH     H1 3675   3.591   2.662   1.562
 1163HOH     H2 3676   3.530   2.544   1.634
 1164HOH      O 3677   2.142   0.969   1.685
 1164HOH     H1 3678   2.154   1.006   1.772
 1164HOH     H2 3679   2.062   1.010   1.652
 1165HOH      O 3680   0.201   0.386   1.901
 1165HOH     H1 3681   0.261   0.379   1.827
 1165HOH     H2 3682   0.169   0.476   1.898
 1166HOH      O 3683   1.231   1.439   1.165
 1166HOH     H1 3684   1.192   1.478   1.243
 1166HOH     H2 3685   1.177   1.473   1.093
 1167HOH      O 3686   2.833   2.149   2.518
 1167HOH     H1 3687   2.792   2.100   2.589
 1167HOH     H2 3688   2.760   2.185   2.468
 1168HOH      O 3689   3.176   2.464   1.297
 1168HOH     H1 3690   3.222   2.384   1.323
 1168HOH     H2 3691   3.211   2.485   1.210
 1169HOH      O 3692   2.698   3.358   0.357
 1169HOH     H1 3693   2.604   3.351   0.336
 1169HOH     H2 3694   2.738   3.286   0.309
 1170HOH      O 3695   2.713   1.288   1.257
 1170HOH     H1 3696   2.665   1.250   1.183
 1170HOH     H2 3697   2.661   1.264   1.334
 1171HOH      O 3698   0.318   1.014   0.212
 1171HOH     H1 3699   0.323   0.925   0.246
 1171HOH     H2 3700   0.343   1.070   0.286
 1172HOH      O 3701   0.586   3.242   2.082
 1172HOH     H1 3702   0.613   3.318   2.132
 1172HOH     H2 3703   0.556   3.277   1.998
 1173HOH      O 3704   2.752   2.945   0.651
 1173HOH     H1 3705   2.692   3.008   0.613
 1173HOH     H2 3706   2.787   2.989   0.729
 1174HOH      O 3707   2.639   1.233   0.785
 1174HOH     H1 3708   2.731   1.237   0.757
 1174HOH     H2 3709   2.619   1.139   0.788
 1175HOH      O 3710   0.739   0.350   3.367
 1175HOH     H1 3711   0.676   0.420   3.352
 1175HOH     H2 3712   0.759   0.355   3.460
 1176HOH      O 3713   1.300   3.314   3.770
 1176HOH     H1 3714   1.364   3.314   3.700
 1176HOH     H2 3715   1.218   3.339   3.728
 1177HOH      O 3716   1.424   2.998   1.002
 1177HOH     H1 3717   1.486   2.975   1.071
 1177HOH     H2 3718   1.390   2.913   0.972
 1178HOH      O 3719   0.220   3.598   2.091
 1178HOH     H1 3720   0.248   3.690   2.085
 1178HOH     H2 3721   0.295   3.548   2.060
 1179HOH      O 3722   1.095   3.650   0.193
 1179HOH     H1 3723   1.113   3.589   0.121
 1179HOH     H2 3724   1.020   3.613   0.238
 1180HOH      O 3725   2.563   2.330   0.575
 1180HOH     H1 3726   2.548   2.362   0.486
 1180HOH     H2 3727   2.500   2.259   0.586
 1181HOH      O 3728   2.198   3.469   1.188
 1181HOH     H1 3729   2.290   3.480   1.209
 1181HOH     H2 3730   2.174   3.384   1.226
 1182HOH      O 3731   1.494   3.339   0.420
 1182HOH     H1 3732   1.579   3.383   0.417
 1182HOH     H2 3733   1.445   3.385   0.488
 1183HOH      O 3734   0.260   0.552   2.826
 1183HOH     H1 3735   0.259   0.517   2.915
 1183HOH     H2 3736   0.198   0.625   2.829
 1184HOH      O 3737   3.553   2.751   2.476
 1184HOH     H1 3738   3.474   2.801   2.454
 1184HOH     H2 3739   3.604   2.811   2.531
 1185HOH      O 3740   0.584   3.638   3.611
 1185HOH     H1 3741   0.567   3.655   3.704
 1185HOH     H2 3742   0.593   3.726   3.573
 1186HOH      O 3743   1.781   3.220   0.707
 1186HOH     H1 3744   1.773   3.207   0.613
 1186HOH     H2 3745   1.697   3.191   0.743
 1187HOH      O 3746   3.107   0.362   0.189
 1187HOH     H1 3747   3.195   0.392   0.210
 1187HOH     H2 3748   3.054   0.442   0.189
 1188HOH      O 3749   0.653   0.514   1.653
 1188HOH     H1 3750   0.700   0.597   1.660
 1188HOH     H2 3751   0.635   0.504   1.559
 1189HOH      O 3752   1.030   2.496   2.202
 1189HOH     H1 3753   1.074   2.581   2.210
 1189HOH     H2 3754   1.101   2.432   2.214
 1190HOH      O 3755   3.179   1.246   0.241
 1190HOH     H1 3756   3.196   1.293   0.159
 1190HOH     H2 3757   3.252   1.185   0.249
 1191HOH      O 3758   3.455   1.913   0.468
 1191HOH     H1 3759   3.380   1.899   0.526
 1191HOH     H2 3760   3.494   1.995   0.497
 1192HOH      O 3761   3.040   0.996   2.523
 1192HOH     H1 3762   3.005   0.959   2.604
 1192HOH     H2 3763   2.963   1.015   2.470
 1193HOH      O 3764   3.794   1.527   4.000
 1193HOH     H1 3765   3.826   1.590   3.936
 1193HOH     H2 3766   3.841   1.547   4.080
 1194HOH      O 3767   0.562   0.036   3.987
 1194HOH     H1 3768   0.625   0.091   3.941
 1194HOH     H2 3769   0.479   0.050   3.940
 1195HOH      O 3770   1.374   1.080   3.013
 1195HOH     H1 3771   1.466   1.108   3.013
 1195HOH     H2 3772   1.325   1.162   3.016
 1196HOH      O 3773   0.630   2.976   2.018
 1196HOH     H1 3774   0.604   2.932   2.099
 1196HOH     H2 3775   0.623   3.069   2.038
 1197HOH      O 3776   3.166   3.570   3.911
 1197HOH     H1 3777   3.242   3.556   3.855
 1197HOH     H2 3778   3.192   3.642   3.969
 1198HOH      O 3779   2.348   2.585   2.534
 1198HOH     H1 3780   2.376   2.624   2.451
 1198HOH     H2 3781   2.378   2.494   2.530
 1199HOH      O 3782   0.630   1.988   0.059
 1199HOH     H1 3783   0.689   2.055   0.094
 1199HOH     H2 3784   0.681   1.943  -0.008
 1200HOH      O 3785   0.771   3.032   3.779
 1200HOH     H1 3786   0.769   3.114   3.828
 1200HOH     H2 3787   0.686   2.991   3.796
 1201HOH      O 3788   1.965   0.152   0.328
 1201HOH     H1 3789   1.999   0.230   0.373
 1201HOH     H2 3790   1.958   0.178   0.236
 1202HOH      O 3791   0.811   1.364   3.509
 1202HOH     H1 3792   0.829   1.458   3.507
 1202HOH     H2 3793   0.720   1.357   3.536
 1203HOH      O 3794   1.238   1.223   1.358
 1203HOH     H1 3795   1.151   1.221   1.316
 1203HOH     H2 3796   1.273   1.309   1.336
 1204HOH      O 3797   0.928   1.702   1.791
 1204HOH     H1 3798   0.948   1.648   1.868
 1204HOH     H2 3799   0.924   1.791   1.825
 1205HOH      O 3800   3.265   1.943   1.547
 1205HOH     H1 3801   3.330   1.875   1.530
 1205HOH     H2 3802   3.224   1.917   1.629
 1206HOH      O 3803   1.550   3.233   2.302
 1206HOH     H1 3804   1.598   3.193   2.229
 1206HOH     H2 3805   1.514   3.314   2.266
 1207HOH      O 3806   3.747   0.711   3.985
 1207HOH     H1 3807   3.778   0.792   3.943
 1207HOH     H2 3808   3.763   0.725   4.078
 1208HOH      O 3809   2.421   0.937   3.597
 1208HOH     H1 3810   2.464   0.922   3.513
 1208HOH     H2 3811   2.465   0.879   3.658
 1209HOH      O 3812   3.149   3.433   3.023
 1209HOH     H1 3813   3.206   3.497   3.065
 1209HOH     H2 3814   3.114   3.381   3.095
 1210HOH      O 3815   0.037   0.146   3.664
 1210HOH     H1 3816  -0.011   0.200   3.727
 1210HOH     H2 3817   0.127   0.179   3.668
 1211HOH      O 3818   2.146   2.999   1.966
 1211HOH     H1 3819   2.138   2.922   1.910
 1211HOH     H2 3820   2.057   3.034   1.971
 1212HOH      O 3821   2.116   3.515   0.940
 1212HOH     H1 3822   2.139   3.503   1.032
 1212HOH     H2 3823   2.169   3.590   0.912
 1213HOH      O 3824   0.123   3.729   3.524
 1213HOH     H1 3825   0.089   3.757   3.609
 1213HOH     H2 3826   0.111   3.634   3.523
 1214HOH      O 3827   2.725   0.744   0.026
 1214HOH     H1 3828   2.790   0.774   0.089
 1214HOH     H2 3829   2.713   0.818  -0.034
 1215HOH      O 3830   3.271   0.718   0.266
 1215HOH     H1 3831   3.301   0.627   0.261
 1215HOH     H2 3832   3.311   0.752   0.346
 1216HOH      O 3833   0.473   2.315   3.253
 1216HOH     H1 3834   0.459   2.401   3.212
 1216HOH     H2 3835   0.524   2.266   3.188
 1217HOH      O 3836   1.953   1.481   3.184
 1217HOH     H1 3837   1.905   1.564   3.179
 1217HOH     H2 3838   2.035   1.498   3.137
 1218HOH      O 3839   2.025   1.265   2.941
 1218HOH     H1 3840   1.987   1.178   2.934
 1218HOH     H2 3841   1.957   1.324   2.906
 1219HOH      O 3842   0.394   0.770   4.039
 1219HOH     H1 3843   0.356   0.857   4.023
 1219HOH     H2 3844   0.481   0.775   4.000
 1220HOH      O 3845   0.835   2.515   1.146
 1220HOH     H1 3846   0.837   2.520   1.241
 1220HOH     H2 3847   0.898   2.580   1.116
 1221HOH      O 3848   1.586   0.943   1.922
 1221HOH     H1 3849   1.493   0.936   1.899
 1221HOH     H2 3850   1.587   0.944   2.018
 1222HOH      O 3851   0.447   0.062   0.511
 1222HOH     H1 3852   0.385   0.077   0.439
 1222HOH     H2 3853   0.425   0.129   0.575
 1223HOH      O 3854   3.791   2.471   1.434
 1223HOH     H1 3855   3.813   2.382   1.462
 1223HOH     H2 3856   3.734   2.505   1.503
 1224HOH      O 3857   2.726   3.308   0.832
 1224HOH     H1 3858   2.815   3.321   0.867
 1224HOH     H2 3859   2.697   3.226   0.871
 1225HOH      O 3860   1.354   4.017   0.881
 1225HOH     H1 3861   1.361   3.982   0.970
 1225HOH     H2 3862   1.261   4.011   0.860
 1226HOH      O 3863   0.583   1.851   3.357
 1226HOH     H1 3864   0.597   1.885   3.268
 1226HOH     H2 3865   0.507   1.899   3.389
 1227HOH      O 3866   0.969   0.473   2.086
 1227HOH     H1 3867   0.905   0.433   2.144
 1227HOH     H2 3868   0.917   0.510   2.015
 1228HOH      O 3869   0.862   0.460   1.066
 1228HOH     H1 3870   0.839   0.493   0.978
 1228HOH     H2 3871   0.821   0.522   1.126
 1229HOH      O 3872   1.711   2.008   0.117
 1229HOH     H1 3873   1.691   2.013   0.023
 1229HOH     H2 3874   1.627   1.992   0.158
 1230HOH      O 3875   1.544   3.607   0.196
 1230HOH     H1 3876   1.560   3.682   0.139
 1230HOH     H2 3877   1.450   3.608   0.212
 1231HOH      O 3878   0.993   0.929   3.560
 1231HOH     H1 3879   0.995   0.904   3.468
 1231HOH     H2 3880   1.068   0.987   3.571
 1232HOH      O 3881   2.992   0.930   3.140
 1232HOH     H1 3882   2.924   0.952   3.204
 1232HOH     H2 3883   2.994   1.005   3.081
 1233HOH      O 3884   1.553   3.575   2.552
 1233HOH     H1 3885   1.572   3.668   2.561
 1233HOH     H2 3886   1.614   3.544   2.485
 1234HOH      O 3887   3.373   2.498   1.627
 1234HOH     H1 3888   3.313   2.467   1.695
 1234HOH     H2 3889   3.353   2.444   1.551
 1235HOH      O 3890   1.024   3.498   3.058
 1235HOH     H1 3891   1.077   3.548   3.119
 1235HOH     H2 3892   0.934   3.514   3.086
 1236HOH      O 3893   3.578   3.380   0.492
 1236HOH     H1 3894   3.557   3.347   0.579
 1236HOH     H2 3895   3.520   3.333   0.433
 1237HOH      O 3896   1.863   2.294   2.446
 1237HOH     H1 3897   1.919   2.217   2.454
 1237HOH     H2 3898   1.779   2.260   2.418
 1238HOH      O 3899   2.662   0.433   2.172
 1238HOH     H1 3900   2.708   0.391   2.099
 1238HOH     H2 3901   2.645   0.522   2.141
 1239HOH      O 3902   3.138   2.387   2.109
 1239HOH     H1 3903   3.069   2.438   2.067
 1239HOH     H2 3904   3.103   2.367   2.196
 1240HOH      O 3905   3.785   1.007   3.848
 1240HOH     H1 3906   3.852   1.018   3.781
 1240HOH     H2 3907   3.793   1.086   3.903
 1241HOH      O 3908   1.170   4.025   0.370
 1241HOH     H1 3909   1.129   3.972   0.302
 1241HOH     H2 3910   1.216   3.962   0.425
 1242HOH      O 3911   0.295   0.432   3.390
 1242HOH     H1 3912   0.337   0.514   3.419
 1242HOH     H2 3913   0.235   0.410   3.461
 1243HOH      O 3914   2.418   2.440   0.861
 1243HOH     H1 3915   2.406   2.345   0.866
 1243HOH     H2 3916   2.470   2.453   0.781
 1244HOH      O 3917   1.395   3.949   1.134
 1244HOH     H1 3918   1.392   3.854   1.121
 1244HOH     H2 3919   1.331   3.966   1.202
 1245HOH      O 3920   2.019   3.332   3.930
 1245HOH     H1 3921   1.944   3.386   3.957
 1245HOH     H2 3922   2.096   3.384   3.953
 1246HOH      O 3923   2.779   3.879   0.565
 1246HOH     H1 3924   2.721   3.842   0.499
 1246HOH     H2 3925   2.861   3.829   0.555
 1247HOH      O 3926   1.574   1.608   1.171
 1247HOH     H1 3927   1.657   1.626   1.217
 1247HOH     H2 3928   1.515   1.678   1.199
 1248HOH      O 3929   0.271   2.563   3.736
 1248HOH     H1 3930   0.221   2.538   3.659
 1248HOH     H2 3931   0.351   2.511   3.730
 1249HOH      O 3932   0.604   1.888   1.057
 1249HOH     H1 3933   0.611   1.925   0.969
 1249HOH     H2 3934   0.691   1.900   1.095
 1250HOH      O 3935   0.783   1.490   2.425
 1250HOH     H1 3936   0.768   1.558   2.360
 1250HOH     H2 3937   0.817   1.416   2.374
 1251HOH      O 3938   3.529   1.787   2.139
 1251HOH     H1 3939   3.620   1.777   2.167
 1251HOH     H2 3940   3.518   1.721   2.070
 1252HOH      O 3941   1.050   0.839   1.759
 1252HOH     H1 3942   1.124   0.802   1.711
 1252HOH     H2 3943   1.085   0.861   1.844
 1253HOH      O 3944   0.896   1.278   0.171
 1253HOH     H1 3945   0.864   1.338   0.239
 1253HOH     H2 3946   0.885   1.327   0.089
 1254HOH      O 3947   3.346   3.719   0.917
 1254HOH     H1 3948   3.439   3.735   0.899
 1254HOH     H2 3949   3.302   3.797   0.885
 1255HOH      O 3950   0.616   1.084   3.819
 1255HOH     H1 3951   0.653   1.004   3.783
 1255HOH     H2 3952   0.614   1.145   3.745
 1256HOH      O 3953   1.178   1.779   3.388
 1256HOH     H1 3954   1.196   1.865   3.349
 1256HOH     H2 3955   1.146   1.726   3.315
 1257HOH      O 3956   3.071   0.883   1.178
 1257HOH     H1 3957   3.093   0.849   1.265
 1257HOH     H2 3958   2.975   0.880   1.175
 1258HOH      O 3959   2.609   2.617   1.772
 1258HOH     H1 3960   2.535   2.644   1.718
 1258HOH     H2 3961   2.666   2.568   1.713
 1259HOH      O 3962   1.120   2.343   0.728
 1259HOH     H1 3963   1.024   2.334   0.728
 1259HOH     H2 3964   1.150   2.280   0.793
 1260HOH      O 3965   1.159   0.213   0.537
 1260HOH     H1 3966   1.192   0.181   0.621
 1260HOH     H2 3967   1.159   0.136   0.480
 1261HOH      O 3968   2.603   0.612   1.831
 1261HOH     H1 3969   2.592   0.668   1.754
 1261HOH     H2 3970   2.685   0.565   1.814
 1262HOH      O 3971   1.510   2.062   2.967
 1262HOH     H1 3972   1.521   1.968   2.951
 1262HOH     H2 3973   1.540   2.104   2.886
 1263HOH      O 3974   1.731   1.320   3.168
 1263HOH     H1 3975   1.793   1.265   3.216
 1263HOH     H2 3976   1.778   1.402   3.154
 1264HOH      O 3977   1.733   3.952   2.037
 1264HOH     H1 3978   1.766   3.897   1.967
 1264HOH     H2 3979   1.640   3.964   2.017
 1265HOH      O 3980   2.213   0.612   3.287
 1265HOH     H1 3981   2.216   0.671   3.211
 1265HOH     H2 3982   2.201   0.670   3.362
 1266HOH      O 3983   2.371   3.893   1.242
 1266HOH     H1 3984   2.412   3.913   1.326
 1266HOH     H2 3985   2.387   3.800   1.228
 1267HOH      O 3986   0.442   2.916   2.637
 1267HOH     H1 3987   0.445   2.935   2.730
 1267HOH     H2 3988   0.443   3.002   2.595
 1268HOH      O 3989   3.348   3.436   0.883
 1268HOH     H1 3990   3.358   3.530   0.902
 1268HOH     H2 3991   3.291   3.434   0.806
 1269HOH      O 3992   3.524   3.458   2.594
 1269HOH     H1 3993   3.440   3.489   2.627
 1269HOH     H2 3994   3.581   3.456   2.671
 1270HOH      O 3995   3.347   1.959   3.315
 1270HOH     H1 3996   3.420   2.019   3.326
 1270HOH     H2 3997   3.318   1.939   3.404
 1271HOH      O 3998   1.258   1.155   1.028
 1271HOH     H1 3999   1.264   1.227   1.091
 1271HOH     H2 4000   1.186   1.181   0.970
 1272HOH      O 4001   3.675   3.712   1.005
 1272HOH     H1 4002   3.758   3.739   1.043
 1272HOH     H2 4003   3.675   3.749   0.916
 1273HOH      O 4004   0.084   0.766   2.863
 1273HOH     H1 4005   0.014   0.725   2.913
 1273HOH     H2 4006   0.110   0.841   2.916
 1274HOH      O 4007   0.782   3.447   2.435
 1274HOH     H1 4008   0.820   3.531   2.462
 1274HOH     H2 4009   0.688   3.463   2.432
 1275HOH      O 4010   2.548   2.574   3.230
 1275HOH     H1 4011   2.600   2.520   3.289
 1275HOH     H2 4012   2.493   2.512   3.183
 1276HOH      O 4013   2.196   2.532   1.085
 1276HOH     H1 4014   2.230   2.457   1.134
 1276HOH     H2 4015   2.105   2.539   1.113
 1277HOH      O 4016   0.557   3.640   3.874
 1277HOH     H1 4017   0.569   3.712   3.935
 1277HOH     H2 4018   0.554   3.562   3.930
 1278HOH      O 4019   3.168   2.855   2.073
 1278HOH     H1 4020   3.221   2.881   1.998
 1278HOH     H2 4021   3.209   2.774   2.104
 1279HOH      O 4022   0.814   2.171   1.267
 1279HOH     H1 4023   0.727   2.133   1.282
 1279HOH     H2 4024   0.800   2.234   1.197
 1280HOH      O 4025   3.850   2.546   2.885
 1280HOH     H1 4026   3.938   2.585   2.889
 1280HOH     H2 4027   3.835   2.530   2.792
 1281HOH      O 4028   2.969   2.553   2.509
 1281HOH     H1 4029   2.898   2.504   2.468
 1281HOH     H2 4030   2.936   2.573   2.597
 1282HOH      O 4031   0.959   2.639   3.285
 1282HOH     H1 4032   0.983   2.725   3.320
 1282HOH     H2 4033   1.005   2.577   3.342
 1283HOH      O 4034   0.756   3.592   3.143
 1283HOH     H1 4035   0.667   3.602   3.178
 1283HOH     H2 4036   0.810   3.646   3.201
 1284HOH      O 4037   1.744   2.513   0.943
 1284HOH     H1 4038   1.791   2.460   0.879
 1284HOH     H2 4039   1.714   2.451   1.009
 1285HOH      O 4040   2.181   3.412   3.342
 1285HOH     H1 4041   2.148   3.381   3.257
 1285HOH     H2 4042   2.244   3.480   3.320
 1286HOH      O 4043   3.563   3.868   3.865
 1286HOH     H1 4044   3.649   3.859   3.906
 1286HOH     H2 4045   3.566   3.952   3.820
 1287HOH      O 4046   1.404   1.072   1.576
 1287HOH     H1 4047   1.491   1.054   1.541
 1287HOH     H2 4048   1.365   1.132   1.511
 1288HOH      O 4049   0.693   2.208   2.610
 1288HOH     H1 4050   0.671   2.135   2.552
 1288HOH     H2 4051   0.774   2.243   2.572
 1289HOH      O 4052   0.691   3.004   2.379
 1289HOH     H1 4053   0.613   2.970   2.336
 1289HOH     H2 4054   0.679   2.982   2.472
 1290HOH      O 4055   0.661   0.085   2.803
 1290HOH     H1 4056   0.624   0.115   2.885
 1290HOH     H2 4057   0.650   0.158   2.743
 1291HOH      O 4058   2.648   1.745   1.287
 1291HOH     H1 4059   2.707   1.704   1.350
 1291HOH     H2 4060   2.562   1.710   1.309
 1292HOH      O 4061   3.627   0.368   3.637
 1292HOH     H1 4062   3.621   0.287   3.586
 1292HOH     H2 4063   3.651   0.340   3.725
 1293HOH      O 4064   2.686   0.181   3.785
 1293HOH     H1 4065   2.639   0.250   3.738
 1293HOH     H2 4066   2.656   0.100   3.745
 1294HOH      O 4067   1.574   3.659   3.257
 1294HOH     H1 4068   1.613   3.717   3.323
 1294HOH     H2 4069   1.644   3.645   3.193
 1295HOH      O 4070   2.368   3.678   3.846
 1295HOH     H1 4071   2.433   3.722   3.791
 1295HOH     H2 4072   2.298   3.653   3.785
 1296HOH      O 4073   1.072   0.906   0.721
 1296HOH     H1 4074   1.095   0.979   0.779
 1296HOH     H2 4075   0.978   0.915   0.707
 1297HOH      O 4076   0.748   1.220   1.515
 1297HOH     H1 4077   0.821   1.232   1.577
 1297HOH     H2 4078   0.746   1.126   1.498
 1298HOH      O 4079   0.064   0.355   2.171
 1298HOH     H1 4080   0.107   0.410   2.236
 1298HOH     H2 4081   0.111   0.373   2.089
 1299HOH      O 4082   1.168   2.822   1.576
 1299HOH     H1 4083   1.117   2.837   1.656
 1299HOH     H2 4084   1.252   2.787   1.608
 1300HOH      O 4085   2.358   1.585   0.409
 1300HOH     H1 4086   2.303   1.546   0.342
 1300HOH     H2 4087   2.444   1.544   0.397
 1301HOH      O 4088   1.447   0.559   3.530
 1301HOH     H1 4089   1.482   0.471   3.545
 1301HOH     H2 4090   1.465   0.576   3.438
 1302HOH      O 4091   3.565   1.618   2.413
 1302HOH     H1 4092   3.636   1.610   2.349
 1302HOH     H2 4093   3.610   1.620   2.498
 1303HOH      O 4094   1.043   0.086   3.445
 1303HOH     H1 4095   1.084   0.014   3.397
 1303HOH     H2 4096   1.108   0.156   3.444
 1304HOH      O 4097   0.813   3.149   3.061
 1304HOH     H1 4098   0.777   3.129   2.975
 1304HOH     H2 4099   0.786   3.076   3.116
 1305HOH      O 4100   1.912   2.880   1.188
 1305HOH     H1 4101   1.928   2.788   1.168
 1305HOH     H2 4102   1.972   2.928   1.131
 1306HOH      O 4103   1.164   0.799   3.364
 1306HOH     H1 4104   1.252   0.827   3.340
 1306HOH     H2 4105   1.154   0.714   3.320
 1307HOH      O 4106   4.019   3.462   3.530
 1307HOH     H1 4107   4.003   3.411   3.609
 1307HOH     H2 4108   3.934   3.502   3.510
 1308HOH      O 4109   1.699   0.586   1.512
 1308HOH     H1 4110   1.676   0.507   1.463
 1308HOH     H2 4111   1.642   0.654   1.476
 1309HOH      O 4112   2.262   1.699   3.573
 1309HOH     H1 4113   2.311   1.621   3.600
 1309HOH     H2 4114   2.207   1.721   3.649
 1310HOH      O 4115   1.070   4.026   1.142
 1310HOH     H1 4116   0.981   4.051   1.167
 1310HOH     H2 4117   1.092   3.954   1.201
 1311HOH      O 4118   3.991   2.693   2.253
 1311HOH     H1 4119   4.012   2.780   2.219
 1311HOH     H2 4120   4.075   2.656   2.277
 1312HOH      O 4121   0.943   3.560   1.993
 1312HOH     H1 4122   0.964   3.639   1.944
 1312HOH     H2 4123   0.932   3.492   1.926
 1313HOH      O 4124   3.415   3.594   0.387
 1313HOH     H1 4125   3.466   3.525   0.430
 1313HOH     H2 4126   3.432   3.672   0.440
 1314HOH      O 4127   3.344   1.702   1.755
 1314HOH     H1 4128   3.253   1.725   1.772
 1314HOH     H2 4129   3.378   1.673   1.839
 1315HOH      O 4130   0.545   2.766   1.805
 1315HOH     H1 4131   0.610   2.715   1.852
 1315HOH     H2 4132   0.541   2.849   1.851
 1316HOH      O 4133   0.806   3.857   2.297
 1316HOH     H1 4134   0.892   3.819   2.317
 1316HOH     H2 4135   0.826   3.939   2.252
 1317HOH      O 4136   3.916   3.506   3.171
 1317HOH     H1 4137   3.925   3.414   3.193
 1317HOH     H2 4138   3.821   3.521   3.168
 1318HOH      O 4139   0.975   3.659   2.713
 1318HOH     H1 4140   0.919   3.680   2.638
 1318HOH     H2 4141   0.938   3.709   2.786
 1319HOH      O 4142   0.357   1.031   3.846
 1319HOH     H1 4143   0.453   1.037   3.840
 1319HOH     H2 4144   0.332   1.108   3.896
 1320HOH      O 4145   2.973   0.555   1.318
 1320HOH     H1 4146   3.024   0.528   1.241
 1320HOH     H2 4147   3.018   0.632   1.351
 1321HOH      O 4148   1.029   2.903   2.683
 1321HOH     H1 4149   1.009   2.938   2.596
 1321HOH     H2 4150   1.036   2.980   2.739
 1322HOH      O 4151   3.623   2.851   3.398
 1322HOH     H1 4152   3.539   2.832   3.355
 1322HOH     H2 4153   3.616   2.944   3.422
 1323HOH      O 4154   3.321   1.661   3.298
 1323HOH     H1 4155   3.321   1.754   3.272
 1323HOH     H2 4156   3.236   1.628   3.267
 1324HOH      O 4157   3.015   0.058   1.143
 1324HOH     H1 4158   3.069   0.052   1.223
 1324HOH     H2 4159   2.925   0.058   1.175
 1325HOH      O 4160   2.772   2.051   3.897
 1325HOH     H1 4161   2.754   2.014   3.811
 1325HOH     H2 4162   2.759   1.979   3.958
 1326HOH      O 4163   2.960   2.286   3.530
 1326HOH     H1 4164   2.919   2.352   3.586
 1326HOH     H2 4165   3.050   2.281   3.561
 1327HOH      O 4166   1.765   0.402   1.775
 1327HOH     H1 4167   1.674   0.408   1.802
 1327HOH     H2 4168   1.806   0.346   1.841
 1328HOH      O 4169   2.519   3.839   2.618
 1328HOH     H1 4170   2.447   3.878   2.668
 1328HOH     H2 4171   2.488   3.835   2.528
 1329HOH      O 4172   0.818   0.131   1.941
 1329HOH     H1 4173   0.783   0.196   2.002
 1329HOH     H2 4174   0.760   0.055   1.952
 1330HOH      O 4175   2.781   1.587   2.361
 1330HOH     H1 4176   2.791   1.678   2.390
 1330HOH     H2 4177   2.687   1.571   2.366
 1331HOH      O 4178   3.242   0.923   3.256
 1331HOH     H1 4179   3.163   0.908   3.203
 1331HOH     H2 4180   3.268   0.836   3.286
 1332HOH      O 4181   0.941   3.786   1.831
 1332HOH     H1 4182   0.963   3.856   1.769
 1332HOH     H2 4183   0.902   3.717   1.777
 1333HOH      O 4184   0.085   2.001   3.453
 1333HOH     H1 4185   0.098   2.091   3.483
 1333HOH     H2 4186  -0.002   1.977   3.485
 1334HOH      O 4187   2.344   3.652   3.246
 1334HOH     H1 4188   2.390   3.718   3.196
 1334HOH     H2 4189   2.281   3.700   3.299
 1335HOH      O 4190   3.860   3.228   0.665
 1335HOH     H1 4191   3.942   3.277   0.650
 1335HOH     H2 4192   3.796   3.295   0.689
 1336HOH      O 4193   1.015   0.727   0.456
 1336HOH     H1 4194   1.055   0.680   0.529
 1336HOH     H2 4195   0.921   0.723   0.473
 1337HOH      O 4196   1.554   2.190   0.385
 1337HOH     H1 4197   1.516   2.120   0.332
 1337HOH     H2 4198   1.567   2.263   0.324
 1338HOH      O 4199   2.635   1.584   3.494
 1338HOH     H1 4200   2.637   1.504   3.548
 1338HOH     H2 4201   2.545   1.588   3.462
 1339HOH      O 4202   2.372   2.844   4.004
 1339HOH     H1 4203   2.378   2.939   3.990
 1339HOH     H2 4204   2.426   2.828   4.081
 1340HOH      O 4205   3.518   0.444   2.799
 1340HOH     H1 4206   3.613   0.458   2.808
 1340HOH     H2 4207   3.480   0.531   2.816
 1341HOH      O 4208   3.059   3.941   0.022
 1341HOH     H1 4209   3.138   3.888   0.018
 1341HOH     H2 4210   3.090   4.030   0.039
 1342HOH      O 4211   2.380   0.801   3.865
 1342HOH     H1 4212   2.402   0.861   3.935
 1342HOH     H2 4213   2.314   0.847   3.813
 1343HOH      O 4214   3.078   0.511   2.031
 1343HOH     H1 4215   3.007   0.537   1.972
 1343HOH     H2 4216   3.157   0.518   1.977
 1344HOH      O 4217   3.842   3.824   1.757
 1344HOH     H1 4218   3.917   3.884   1.759
 1344HOH     H2 4219   3.772   3.872   1.802
 1345HOH      O 4220   3.663   0.377   3.289
 1345HOH     H1 4221   3.749   0.336   3.301
 1345HOH     H2 4222   3.674   0.465   3.323
 1346HOH      O 4223   2.951   1.879   1.489
 1346HOH     H1 4224   2.935   1.899   1.397
 1346HOH     H2 4225   2.867   1.895   1.532
 1347HOH      O 4226   3.126   1.171   2.166
 1347HOH     H1 4227   3.091   1.255   2.196
 1347HOH     H2 4228   3.203   1.157   2.222
 1348HOH      O 4229   3.503   1.805   0.213
 1348HOH     H1 4230   3.471   1.717   0.233
 1348HOH     H2 4231   3.512   1.848   0.298
 1349HOH      O 4232   0.472   2.888   2.237
 1349HOH     H1 4233   0.428   2.833   2.172
 1349HOH     H2 4234   0.414   2.964   2.246
 1350HOH      O 4235   1.258   3.399   1.335
 1350HOH     H1 4236   1.302   3.317   1.313
 1350HOH     H2 4237   1.190   3.409   1.267
 1351HOH      O 4238   0.310   2.892   3.241
 1351HOH     H1 4239   0.321   2.945   3.319
 1351HOH     H2 4240   0.278   2.807   3.273
 1352HOH      O 4241   0.027   0.517   2.575
 1352HOH     H1 4242   0.059   0.533   2.486
 1352HOH     H2 4243  -0.035   0.588   2.591
 1353HOH      O 4244   2.993   0.431   0.730
 1353HOH     H1 4245   2.969   0.425   0.638
 1353HOH     H2 4246   3.034   0.347   0.750
 1354HOH      O 4247   3.397   0.876   2.225
 1354HOH     H1 4248   3.474   0.902   2.176
 1354HOH     H2 4249   3.393   0.781   2.215
 1355HOH      O 4250   1.528   3.623   0.607
 1355HOH     H1 4251   1.442   3.596   0.573
 1355HOH     H2 4252   1.539   3.712   0.576
 1356HOH      O 4253   2.467   3.924   0.368
 1356HOH     H1 4254   2.469   3.881   0.454
 1356HOH     H2 4255   2.472   4.017   0.388
 1357HOH      O 4256   1.714   2.929   1.350
 1357HOH     H1 4257   1.788   2.915   1.291
 1357HOH     H2 4258   1.683   3.017   1.328
 1358HOH      O 4259   1.593   1.966   2.013
 1358HOH     H1 4260   1.499   1.974   2.002
 1358HOH     H2 4261   1.606   1.961   2.108
 1359HOH      O 4262   1.880   3.335   1.377
 1359HOH     H1 4263   1.869   3.413   1.323
 1359HOH     H2 4264   1.929   3.365   1.453
 1360HOH      O 4265   3.930   1.084   3.136
 1360HOH     H1 4266   4.013   1.065   3.092
 1360HOH     H2 4267   3.863   1.059   3.073
 1361HOH      O 4268   3.223   0.018   1.306
 1361HOH     H1 4269   3.243   0.063   1.388
 1361HOH     H2 4270   3.305   0.017   1.257
 1362HOH      O 4271   1.338   1.035   1.835
 1362HOH     H1 4272   1.247   1.063   1.822
 1362HOH     H2 4273   1.381   1.055   1.751
 1363HOH      O 4274   2.361   1.496   1.686
 1363HOH     H1 4275   2.365   1.400   1.693
 1363HOH     H2 4276   2.321   1.512   1.601
 1364HOH      O 4277   2.059   3.533   2.395
 1364HOH     H1 4278   2.136   3.589   2.392
 1364HOH     H2 4279   2.095   3.444   2.402
 1365HOH      O 4280   1.669   2.814   2.749
 1365HOH     H1 4281   1.703   2.847   2.833
 1365HOH     H2 4282   1.709   2.872   2.684
 1366HOH      O 4283   0.312   2.836   1.982
 1366HOH     H1 4284   0.254   2.789   1.922
 1366HOH     H2 4285   0.316   2.925   1.947
 1367HOH      O 4286   1.527   0.626   0.955
 1367HOH     H1 4287   1.554   0.691   1.019
 1367HOH     H2 4288   1.445   0.590   0.990
 1368HOH      O 4289   1.540   2.499   1.742
 1368HOH     H1 4290   1.519   2.526   1.832
 1368HOH     H2 4291   1.581   2.413   1.753
 1369HOH      O 4292   1.320   2.819   3.457
 1369HOH     H1 4293   1.400   2.868   3.438
 1369HOH     H2 4294   1.274   2.873   3.521
 1370HOH      O 4295   2.308   1.027   3.300
 1370HOH     H1 4296   2.398   1.056   3.287
 1370HOH     H2 4297   2.279   1.073   3.379
 1371HOH      O 4298   1.986   0.776   2.269
 1371HOH     H1 4299   2.078   0.753   2.253
 1371HOH     H2 4300   1.937   0.699   2.242
 1372HOH      O 4301   0.739   1.865   3.582
 1372HOH     H1 4302   0.817   1.811   3.572
 1372HOH     H2 4303   0.688   1.848   3.502
 1373HOH      O 4304   2.118   0.609   0.560
 1373HOH     H1 4305   2.115   0.630   0.653
 1373HOH     H2 4306   2.211   0.602   0.539
 1374HOH      O 4307   1.628   3.841   2.597
 1374HOH     H1 4308   1.689   3.853   2.524
 1374HOH     H2 4309   1.557   3.902   2.579
 1375HOH      O 4310   3.195   0.709   2.868
 1375HOH     H1 4311   3.287   0.708   2.896
 1375HOH     H2 4312   3.188   0.637   2.806
 1376HOH      O 4313   2.029   1.794   0.729
 1376HOH     H1 4314   2.086   1.792   0.806
 1376HOH     H2 4315   2.006   1.886   0.718
 1377HOH      O 4316   1.075   2.889   1.843
 1377HOH     H1 4317   1.127   2.847   1.911
 1377HOH     H2 4318   1.015   2.821   1.813
 1378HOH      O 4319   1.496   1.316   0.022
 1378HOH     H1 4320   1.522   1.281   0.108
 1378HOH     H2 4321   1.430   1.253  -0.009
 1379HOH      O 4322   1.756   3.002   1.637
 1379HOH     H1 4323   1.804   2.990   1.555
 1379HOH     H2 4324   1.702   3.080   1.622
 1380HOH      O 4325   2.007   3.504   1.568
 1380HOH     H1 4326   2.084   3.477   1.618
 1380HOH     H2 4327   2.038   3.576   1.513
 1381HOH      O 4328   0.823   0.788   1.964
 1381HOH     H1 4329   0.734   0.776   1.932
 1381HOH     H2 4330   0.865   0.844   1.898
 1382HOH      O 4331   1.677   0.104   0.054
 1382HOH     H1 4332   1.671   0.044   0.129
 1382HOH     H2 4333   1.770   0.128   0.051
 1383HOH      O 4334   1.941   2.997   0.664
 1383HOH     H1 4335   1.949   3.084   0.703
 1383HOH     H2 4336   1.848   2.977   0.668
 1384HOH      O 4337   3.944   2.817   1.940
 1384HOH     H1 4338   3.923   2.724   1.926
 1384HOH     H2 4339   4.027   2.829   1.895
 1385HOH      O 4340   0.965   0.629   3.545
 1385HOH     H1 4341   1.007   0.715   3.543
 1385HOH     H2 4342   1.024   0.573   3.594
 1386HOH      O 4343   0.080   2.657   2.815
 1386HOH     H1 4344   0.088   2.742   2.771
 1386HOH     H2 4345   0.135   2.598   2.763
 1387HOH      O 4346   1.356   2.673   2.584
 1387HOH     H1 4347   1.326   2.737   2.648
 1387HOH     H2 4348   1.362   2.722   2.502
 1388HOH      O 4349   3.880   0.149   2.428
 1388HOH     H1 4350   3.884   0.120   2.519
 1388HOH     H2 4351   3.794   0.189   2.419
 1389HOH      O 4352   3.238   1.645   1.005
 1389HOH     H1 4353   3.229   1.571   1.065
 1389HOH     H2 4354   3.280   1.608   0.927
 1390HOH      O 4355   0.717   0.932   1.135
 1390HOH     H1 4356   0.649   0.996   1.157
 1390HOH     H2 4357   0.763   0.918   1.218
 1391HOH      O 4358   3.129   0.219   1.930
 1391HOH     H1 4359   3.148   0.263   1.847
 1391HOH     H2 4360   3.120   0.127   1.906
 1392HOH      O 4361   1.465   3.222   3.558
 1392HOH     H1 4362   1.480   3.207   3.465
 1392HOH     H2 4363   1.549   3.255   3.591
 1393HOH      O 4364   2.793   4.034   2.097
 1393HOH     H1 4365   2.777   4.079   2.180
 1393HOH     H2 4366   2.806   3.943   2.121
 1394HOH      O 4367   2.110   2.832   0.844
 1394HOH     H1 4368   2.138   2.760   0.788
 1394HOH     H2 4369   2.046   2.880   0.792
 1395HOH      O 4370   3.724   3.216   0.262
 1395HOH     H1 4371   3.633   3.243   0.277
 1395HOH     H2 4372   3.722   3.120   0.270
 1396HOH      O 4373   0.581   3.528   3.356
 1396HOH     H1 4374   0.556   3.578   3.434
 1396HOH     H2 4375   0.498   3.509   3.312
 1397HOH      O 4376   0.024   3.419   1.047
 1397HOH     H1 4377  -0.021   3.387   1.124
 1397HOH     H2 4378   0.064   3.341   1.008
 1398HOH      O 4379   2.947   1.293   1.424
 1398HOH     H1 4380   2.988   1.208   1.438
 1398HOH     H2 4381   2.877   1.276   1.361
 1399HOH      O 4382   3.921   2.525   0.869
 1399HOH     H1 4383   3.838   2.495   0.906
 1399HOH     H2 4384   3.903   2.613   0.837
 1400HOH      O 4385   1.500   3.664   2.123
 1400HOH     H1 4386   1.484   3.708   2.039
 1400HOH     H2 4387   1.463   3.724   2.188
 1401HOH      O 4388   1.688   2.545   1.537
 1401HOH     H1 4389   1.632   2.542   1.614
 1401HOH     H2 4390   1.666   2.628   1.494
 1402HOH      O 4391   2.798   3.938  -0.027
 1402HOH     H1 4392   2.751   3.946   0.057
 1402HOH     H2 4393   2.890   3.938  -0.002
 1403HOH      O 4394   2.239   0.035   0.602
 1403HOH     H1 4395   2.275   0.122   0.590
 1403HOH     H2 4396   2.315  -0.023   0.608
 1404HOH      O 4397   1.175   0.621   1.990
 1404HOH     H1 4398   1.146   0.622   1.898
 1404HOH     H2 4399   1.100   0.588   2.038
 1405HOH      O 4400   2.524   2.319   2.632
 1405HOH     H1 4401   2.511   2.232   2.669
 1405HOH     H2 4402   2.458   2.325   2.563
 1406HOH      O 4403   1.007   1.980   0.950
 1406HOH     H1 4404   1.045   1.989   1.038
 1406HOH     H2 4405   1.069   2.025   0.892
 1407HOH      O 4406   0.238   2.830   1.475
 1407HOH     H1 4407   0.332   2.821   1.484
 1407HOH     H2 4408   0.221   2.818   1.381
 1408HOH      O 4409   2.531   0.973   0.013
 1408HOH     H1 4410   2.544   1.029  -0.063
 1408HOH     H2 4411   2.582   1.014   0.083
 1409HOH      O 4412   2.031   3.376   0.218
 1409HOH     H1 4413   1.959   3.437   0.201
 1409HOH     H2 4414   1.987   3.293   0.237
 1410HOH      O 4415   1.905   3.722   3.393
 1410HOH     H1 4416   1.894   3.739   3.300
 1410HOH     H2 4417   1.824   3.753   3.434
 1411HOH      O 4418   1.811   0.041   3.572
 1411HOH     H1 4419   1.763   0.032   3.654
 1411HOH     H2 4420   1.812  -0.047   3.535
 1412HOH      O 4421   3.047   0.179   0.914
 1412HOH     H1 4422   3.072   0.126   0.989
 1412HOH     H2 4423   2.951   0.175   0.913
 1413HOH      O 4424   3.626   2.332   3.264
 1413HOH     H1 4425   3.701   2.368   3.217
 1413HOH     H2 4426   3.593   2.405   3.316
 1414HOH      O 4427   2.289   2.179   3.792
 1414HOH     H1 4428   2.358   2.233   3.753
 1414HOH     H2 4429   2.301   2.092   3.753
 1415HOH      O 4430   3.745   2.737   1.107
 1415HOH     H1 4431   3.653   2.711   1.106
 1415HOH     H2 4432   3.791   2.660   1.142
 1416HOH      O 4433   0.296   0.492  -0.001
 1416HOH     H1 4434   0.341   0.574   0.017
 1416HOH     H2 4435   0.265   0.462   0.084
 1417HOH      O 4436   1.549   0.803   3.583
 1417HOH     H1 4437   1.516   0.716   3.560
 1417HOH     H2 4438   1.644   0.793   3.582
 1418HOH      O 4439   3.385   1.363   1.173
 1418HOH     H1 4440   3.348   1.286   1.130
 1418HOH     H2 4441   3.438   1.405   1.106
 1419HOH      O 4442   2.068   0.755   3.784
 1419HOH     H1 4443   2.045   0.831   3.838
 1419HOH     H2 4444   2.089   0.686   3.846
 1420HOH      O 4445   3.259   0.574   0.015
 1420HOH     H1 4446   3.300   0.515   0.077
 1420HOH     H2 4447   3.329   0.633  -0.012
 1421HOH      O 4448   0.606   0.156   1.621
 1421HOH     H1 4449   0.630   0.082   1.675
 1421HOH     H2 4450   0.541   0.122   1.559
 1422HOH      O 4451   1.993   1.431   1.743
 1422HOH     H1 4452   1.919   1.490   1.729
 1422HOH     H2 4453   1.955   1.355   1.787
 1423HOH      O 4454   0.226   2.562   2.186
 1423HOH     H1 4455   0.286   2.510   2.239
 1423HOH     H2 4456   0.256   2.548   2.096
 1424HOH      O 4457   3.725   3.558   1.337
 1424HOH     H1 4458   3.753   3.644   1.367
 1424HOH     H2 4459   3.705   3.510   1.417
 1425HOH      O 4460   2.030   3.692   2.607
 1425HOH     H1 4461   2.123   3.687   2.629
 1425HOH     H2 4462   2.023   3.647   2.522
 1426HOH      O 4463   3.563   2.083   1.614
 1426HOH     H1 4464   3.499   2.065   1.545
 1426HOH     H2 4465   3.583   1.997   1.651
 1427HOH      O 4466   1.983   2.067   3.280
 1427HOH     H1 4467   1.992   2.073   3.376
 1427HOH     H2 4468   1.955   1.976   3.265
 1428HOH      O 4469   2.263   0.694   2.157
 1428HOH     H1 4470   2.290   0.640   2.083
 1428HOH     H2 4471   2.256   0.632   2.230
 1429HOH      O 4472   1.995   2.427   3.570
 1429HOH     H1 4473   2.009   2.382   3.654
 1429HOH     H2 4474   1.903   2.409   3.549
 1430HOH      O 4475   3.906   2.079   3.198
 1430HOH     H1 4476   3.914   2.065   3.292
 1430HOH     H2 4477   3.816   2.050   3.178
 1431HOH      O 4478   2.837   2.268   0.625
 1431HOH     H1 4479   2.743   2.281   0.629
 1431HOH     H2 4480   2.859   2.276   0.533
 1432HOH      O 4481   3.102   2.046   2.588
 1432HOH     H1 4482   3.024   2.090   2.553
 1432HOH     H2 4483   3.075   2.015   2.674
 1433HOH      O 4484   3.063   1.514   0.719
 1433HOH     H1 4485   3.073   1.527   0.813
 1433HOH     H2 4486   3.149   1.486   0.689
 1434HOH      O 4487   3.854   0.165   1.558
 1434HOH     H1 4488   3.762   0.150   1.576
 1434HOH     H2 4489   3.890   0.197   1.641
 1435HOH      O 4490   0.439   3.926   2.712
 1435HOH     H1 4491   0.495   3.998   2.743
 1435HOH     H2 4492   0.476   3.902   2.627
 1436HOH      O 4493   3.579   3.532   2.133
 1436HOH     H1 4494   3.614   3.596   2.071
 1436HOH     H2 4495   3.485   3.537   2.123
 1437HOH      O 4496   2.480   1.284   0.552
 1437HOH     H1 4497   2.530   1.334   0.487
 1437HOH     H2 4498   2.540   1.271   0.625
 1438HOH      O 4499   2.951   3.460   2.705
 1438HOH     H1 4500   2.885   3.458   2.635
 1438HOH     H2 4501   3.033   3.440   2.660
 1439HOH      O 4502   2.606   2.213   2.301
 1439HOH     H1 4503   2.581   2.127   2.335
 1439HOH     H2 4504   2.536   2.237   2.241
 1440HOH      O 4505   1.147   0.205   3.015
 1440HOH     H1 4506   1.058   0.193   3.049
 1440HOH     H2 4507   1.158   0.134   2.952
 1441HOH      O 4508   2.180   0.507   2.756
 1441HOH     H1 4509   2.254   0.487   2.699
 1441HOH     H2 4510   2.202   0.592   2.795
 1442HOH      O 4511   3.650   3.555   3.212
 1442HOH     H1 4512   3.609   3.473   3.240
 1442HOH     H2 4513   3.594   3.586   3.141
 1443HOH      O 4514   0.827   1.710   2.187
 1443HOH     H1 4515   0.842   1.765   2.264
 1443HOH     H2 4516   0.906   1.656   2.180
 1444HOH      O 4517   1.714   1.985   3.145
 1444HOH     H1 4518   1.653   2.011   3.076
 1444HOH     H2 4519   1.778   2.057   3.149
 1445HOH      O 4520   3.816   0.067   4.008
 1445HOH     H1 4521   3.841  -0.022   4.031
 1445HOH     H2 4522   3.727   0.077   4.041
 1446HOH      O 4523   0.338   1.253   3.111
 1446HOH     H1 4524   0.331   1.225   3.020
 1446HOH     H2 4525   0.342   1.348   3.107
 1447HOH      O 4526   3.846   2.476   3.155
 1447HOH     H1 4527   3.846   2.561   3.199
 1447HOH     H2 4528   3.826   2.496   3.064
 1448HOH      O 4529   2.006   0.713   1.043
 1448HOH     H1 4530   2.034   0.681   0.958
 1448HOH     H2 4531   1.931   0.659   1.066
 1449HOH      O 4532   2.571   1.369   2.497
 1449HOH     H1 4533   2.643   1.376   2.560
 1449HOH     H2 4534   2.506   1.315   2.542
 1450HOH      O 4535   3.069   2.282   0.261
 1450HOH     H1 4536   3.163   2.298   0.251
 1450HOH     H2 4537   3.065   2.203   0.316
 1451HOH      O 4538   3.666   0.891   2.443
 1451HOH     H1 4539   3.689   0.947   2.370
 1451HOH     H2 4540   3.642   0.952   2.513
 1452HOH      O 4541   2.113   2.296   0.644
 1452HOH     H1 4542   2.185   2.253   0.690
 1452HOH     H2 4543   2.154   2.372   0.602
 1453HOH      O 4544   1.675   1.019   3.769
 1453HOH     H1 4545   1.720   0.943   3.807
 1453HOH     H2 4546   1.583   0.991   3.764
 1454HOH      O 4547   2.299   0.436   3.782
 1454HOH     H1 4548   2.350   0.403   3.856
 1454HOH     H2 4549   2.353   0.504   3.742
 1455HOH      O 4550   1.866   1.832   2.676
 1455HOH     H1 4551   1.883   1.813   2.768
 1455HOH     H2 4552   1.791   1.776   2.654
 1456HOH      O 4553   3.665   1.804   3.906
 1456HOH     H1 4554   3.755   1.798   3.938
 1456HOH     H2 4555   3.615   1.749   3.967
 1457HOH      O 4556   2.798   0.463   0.952
 1457HOH     H1 4557   2.847   0.437   0.874
 1457HOH     H2 4558   2.751   0.384   0.978
 1458HOH      O 4559   0.452   2.458   1.466
 1458HOH     H1 4560   0.488   2.491   1.384
 1458HOH     H2 4561   0.401   2.381   1.441
 1459HOH      O 4562   0.606   3.892   3.497
 1459HOH     H1 4563   0.640   3.964   3.445
 1459HOH     H2 4564   0.549   3.933   3.562
 1460HOH      O 4565   2.043   2.206   1.070
 1460HOH     H1 4566   2.022   2.239   1.158
 1460HOH     H2 4567   2.085   2.280   1.026
 1461HOH      O 4568   3.231   2.797   1.231
 1461HOH     H1 4569   3.242   2.812   1.325
 1461HOH     H2 4570   3.217   2.884   1.194
 1462HOH      O 4571   0.621   0.644   3.653
 1462HOH     H1 4572   0.700   0.590   3.656
 1462HOH     H2 4573   0.652   0.729   3.622
 1463HOH      O 4574   0.864   1.908   1.199
 1463HOH     H1 4575   0.944   1.897   1.146
 1463HOH     H2 4576   0.865   2.001   1.224
 1464HOH      O 4577   1.703   2.928   3.625
 1464HOH     H1 4578   1.729   2.836   3.632
 1464HOH     H2 4579   1.646   2.943   3.701
 1465HOH      O 4580   3.118   3.095   0.247
 1465HOH     H1 4581   3.116   3.059   0.336
 1465HOH     H2 4582   3.027   3.123   0.231
 1466HOH      O 4583   2.342   2.203   2.173
 1466HOH     H1 4584   2.346   2.237   2.084
 1466HOH     H2 4585   2.280   2.130   2.169
 1467HOH      O 4586   1.622   0.990   2.410
 1467HOH     H1 4587   1.642   0.984   2.316
 1467HOH     H2 4588   1.530   0.967   2.416
 1468HOH      O 4589   2.633   1.471   0.403
 1468HOH     H1 4590   2.686   1.403   0.363
 1468HOH     H2 4591   2.694   1.522   0.456
 1469HOH      O 4592   2.093   3.796   0.086
 1469HOH     H1 4593   2.136   3.880   0.070
 1469HOH     H2 4594   2.156   3.731   0.053
 1470HOH      O 4595   2.858   2.979   2.680
 1470HOH     H1 4596   2.787   3.038   2.653
 1470HOH     H2 4597   2.885   2.936   2.599
 1471HOH      O 4598   2.917   3.665   3.828
 1471HOH     H1 4599   3.012   3.663   3.820
 1471HOH     H2 4600   2.899   3.739   3.887
 1472HOH      O 4601   2.660   2.701   2.993
 1472HOH     H1 4602   2.634   2.656   3.073
 1472HOH     H2 4603   2.622   2.649   2.922
 1473HOH      O 4604   0.318   1.306   2.496
 1473HOH     H1 4605   0.407   1.279   2.519
 1473HOH     H2 4606   0.314   1.300   2.401
 1474HOH      O 4607   3.353   1.216   1.797
 1474HOH     H1 4608   3.357   1.230   1.703
 1474HOH     H2 4609   3.293   1.283   1.829
 1475HOH      O 4610   0.494   2.398   3.743
 1475HOH     H1 4611   0.537   2.320   3.707
 1475HOH     H2 4612   0.484   2.379   3.836
 1476HOH      O 4613   2.179   0.349   3.392
 1476HOH     H1 4614   2.262   0.308   3.419
 1476HOH     H2 4615   2.203   0.439   3.371
 1477HOH      O 4616   1.905   1.462   3.868
 1477HOH     H1 4617   1.829   1.405   3.884
 1477HOH     H2 4618   1.867   1.545   3.839
 1478HOH      O 4619   3.549   1.193   1.980
 1478HOH     H1 4620   3.605   1.267   1.956
 1478HOH     H2 4621   3.472   1.202   1.925
 1479HOH      O 4622   0.193   1.589   3.851
 1479HOH     H1 4623   0.137   1.590   3.773
 1479HOH     H2 4624   0.186   1.499   3.884
 1480HOH      O 4625   2.505   2.059   1.254
 1480HOH     H1 4626   2.433   1.997   1.265
 1480HOH     H2 4627   2.501   2.113   1.332
 1481HOH      O 4628   1.611   2.234   2.338
 1481HOH     H1 4629   1.555   2.300   2.379
 1481HOH     H2 4630   1.550   2.174   2.294
 1482HOH      O 4631   2.369   0.218   3.538
 1482HOH     H1 4632   2.444   0.163   3.514
 1482HOH     H2 4633   2.406   0.286   3.594
 1483HOH      O 4634   2.588   0.700   2.164
 1483HOH     H1 4635   2.634   0.749   2.097
 1483HOH     H2 4636   2.546   0.767   2.218
 1484HOH      O 4637   0.743   2.180   3.851
 1484HOH     H1 4638   0.754   2.258   3.905
 1484HOH     H2 4639   0.791   2.199   3.771
 1485HOH      O 4640   2.933   0.151   2.607
 1485HOH     H1 4641   2.948   0.147   2.702
 1485HOH     H2 4642   2.928   0.245   2.588
 1486HOH      O 4643   3.434   3.235   0.315
 1486HOH     H1 4644   3.433   3.147   0.277
 1486HOH     H2 4645   3.387   3.290   0.252
 1487HOH      O 4646   0.727   0.153   0.523
 1487HOH     H1 4647   0.741   0.217   0.453
 1487HOH     H2 4648   0.633   0.135   0.521
 1488HOH      O 4649   1.964   1.325   0.433
 1488HOH     H1 4650   1.965   1.321   0.337
 1488HOH     H2 4651   1.982   1.417   0.453
 1489HOH      O 4652   2.893   1.675   3.500
 1489HOH     H1 4653   2.915   1.650   3.590
 1489HOH     H2 4654   2.798   1.666   3.495
 1490HOH      O 4655   1.320   1.223   2.750
 1490HOH     H1 4656   1.250   1.261   2.802
 1490HOH     H2 4657   1.359   1.157   2.807
 1491HOH      O 4658   0.324   0.897   3.051
 1491HOH     H1 4659   0.351   0.847   3.128
 1491HOH     H2 4660   0.405   0.908   3.001
 1492HOH      O 4661   2.776   2.886   0.308
 1492HOH     H1 4662   2.801   2.811   0.362
 1492HOH     H2 4663   2.712   2.851   0.247
 1493HOH      O 4664   2.867   3.855   1.649
 1493HOH     H1 4665   2.803   3.915   1.688
 1493HOH     H2 4666   2.878   3.886   1.560
 1494HOH      O 4667   3.782   2.464   2.638
 1494HOH     H1 4668   3.803   2.401   2.569
 1494HOH     H2 4669   3.687   2.477   2.630
 1495HOH      O 4670   2.856   0.218   1.497
 1495HOH     H1 4671   2.765   0.221   1.529
 1495HOH     H2 4672   2.856   0.148   1.433
 1496HOH      O 4673   0.944   3.849   3.725
 1496HOH     H1 4674   1.037   3.865   3.705
 1496HOH     H2 4675   0.930   3.898   3.807
 1497HOH      O 4676   0.506   3.884   2.096
 1497HOH     H1 4677   0.487   3.894   2.002
 1497HOH     H2 4678   0.557   3.803   2.101
 1498HOH      O 4679   2.802   3.637   0.118
 1498HOH     H1 4680   2.875   3.619   0.177
 1498HOH     H2 4681   2.821   3.582   0.041
 1499HOH      O 4682   3.757   0.429   4.016
 1499HOH     H1 4683   3.681   0.406   4.071
 1499HOH     H2 4684   3.742   0.520   3.991
 1500HOH      O 4685   0.161   1.249   3.387
 1500HOH     H1 4686   0.143   1.324   3.445
 1500HOH     H2 4687   0.194   1.288   3.307
 1501HOH      O 4688   2.443   1.759   0.225
 1501HOH     H1 4689   2.419   1.719   0.142
 1501HOH     H2 4690   2.405   1.701   0.291
 1502HOH      O 4691   0.857   0.683   3.289
 1502HOH     H1 4692   0.933   0.659   3.343
 1502HOH     H2 4693   0.794   0.719   3.351
 1503HOH      O 4694   1.098   0.567   2.796
 1503HOH     H1 4695   1.127   0.589   2.885
 1503HOH     H2 4696   1.028   0.630   2.778
 1504HOH      O 4697   1.654   0.790   2.162
 1504HOH     H1 4698   1.579   0.744   2.200
 1504HOH     H2 4699   1.727   0.729   2.173
 1505HOH      O 4700   1.114   0.680   0.977
 1505HOH     H1 4701   1.163   0.683   0.894
 1505HOH     H2 4702   1.022   0.688   0.951
 1506HOH      O 4703   1.004   2.354   3.415
 1506HOH     H1 4704   0.945   2.325   3.346
 1506HOH     H2 4705   1.092   2.333   3.383
 1507HOH      O 4706   1.307   0.481   1.066
 1507HOH     H1 4707   1.251   0.417   1.110
 1507HOH     H2 4708   1.256   0.562   1.069
 1508HOH      O 4709   3.474   3.517   1.275
 1508HOH     H1 4710   3.450   3.603   1.238
 1508HOH     H2 4711   3.565   3.526   1.301
 1509HOH      O 4712   0.787   3.352   3.351
 1509HOH     H1 4713   0.764   3.288   3.284
 1509HOH     H2 4714   0.719   3.420   3.344
 1510HOH      O 4715   1.203   3.675   2.070
 1510HOH     H1 4716   1.113   3.643   2.066
 1510HOH     H2 4717   1.198   3.754   2.123
 1511HOH      O 4718   2.367   2.199   3.150
 1511HOH     H1 4719   2.368   2.211   3.245
 1511HOH     H2 4720   2.298   2.258   3.119
 1512HOH      O 4721   2.546   2.477   0.349
 1512HOH     H1 4722   2.460   2.513   0.369
 1512HOH     H2 4723   2.552   2.480   0.253
 1513HOH      O 4724   2.373   1.503   2.342
 1513HOH     H1 4725   2.418   1.449   2.407
 1513HOH     H2 4726   2.354   1.443   2.270
 1514HOH      O 4727   0.043   1.487   2.138
 1514HOH     H1 4728   0.133   1.466   2.113
 1514HOH     H2 4729  -0.007   1.407   2.117
 1515HOH      O 4730   0.006   0.798   2.194
 1515HOH     H1 4731  -0.046   0.777   2.271
 1515HOH     H2 4732   0.089   0.830   2.230
 1516HOH      O 4733   1.228   2.228   0.465
 1516HOH     H1 4734   1.295   2.294   0.480
 1516HOH     H2 4735   1.194   2.207   0.552
 1517HOH      O 4736   1.165   2.543   3.717
 1517HOH     H1 4737   1.182   2.561   3.624
 1517HOH     H2 4738   1.072   2.562   3.729
 1518HOH      O 4739   2.810   0.576   2.376
 1518HOH     H1 4740   2.784   0.665   2.400
 1518HOH     H2 4741   2.731   0.537   2.338
 1519HOH      O 4742   0.076   2.121   2.209
 1519HOH     H1 4743   0.142   2.098   2.144
 1519HOH     H2 4744   0.118   2.106   2.293
 1520HOH      O 4745   1.855   0.187   2.484
 1520HOH     H1 4746   1.871   0.101   2.447
 1520HOH     H2 4747   1.792   0.228   2.424
 1521HOH      O 4748   0.809   3.070   1.845
 1521HOH     H1 4749   0.742   3.036   1.905
 1521HOH     H2 4750   0.891   3.039   1.881
 1522HOH      O 4751   3.841   4.056   2.644
 1522HOH     H1 4752   3.876   3.969   2.623
 1522HOH     H2 4753   3.827   4.053   2.739
 1523HOH      O 4754   2.336   0.527   1.944
 1523HOH     H1 4755   2.317   0.479   1.864
 1523HOH     H2 4756   2.428   0.552   1.936
 1524HOH      O 4757   1.767   1.239   2.419
 1524HOH     H1 4758   1.750   1.152   2.383
 1524HOH     H2 4759   1.719   1.241   2.501
 1525HOH      O 4760   3.893   1.731   1.952
 1525HOH     H1 4761   3.880   1.736   2.047
 1525HOH     H2 4762   3.968   1.787   1.935
 1526HOH      O 4763   2.052   3.577   2.928
 1526HOH     H1 4764   1.999   3.651   2.957
 1526HOH     H2 4765   2.135   3.616   2.900
 1527HOH      O 4766   0.755   3.044   2.666
 1527HOH     H1 4767   0.690   3.111   2.688
 1527HOH     H2 4768   0.827   3.093   2.625
 1528HOH      O 4769   0.833   2.464   2.745
 1528HOH     H1 4770   0.785   2.410   2.683
 1528HOH     H2 4771   0.877   2.529   2.691
 1529HOH      O 4772   2.157   3.865   2.284
 1529HOH     H1 4773   2.143   3.845   2.192
 1529HOH     H2 4774   2.149   3.961   2.290
 1530HOH      O 4775   3.400   0.602   2.210
 1530HOH     H1 4776   3.382   0.614   2.304
 1530HOH     H2 4777   3.354   0.520   2.188
 1531HOH      O 4778   1.371   1.769   1.767
 1531HOH     H1 4779   1.320   1.735   1.693
 1531HOH     H2 4780   1.396   1.692   1.817
 1532HOH      O 4781   0.398   2.750   3.506
 1532HOH     H1 4782   0.492   2.765   3.499
 1532HOH     H2 4783   0.386   2.657   3.491
 1533HOH      O 4784   3.933   2.157   2.825
 1533HOH     H1 4785   3.839   2.175   2.832
 1533HOH     H2 4786   3.969   2.183   2.909
 1534HOH      O 4787   3.839   3.490   0.899
 1534HOH     H1 4788   3.894   3.475   0.976
 1534HOH     H2 4789   3.755   3.519   0.935
 1535HOH      O 4790   3.667   1.383   1.819
 1535HOH     H1 4791   3.706   1.446   1.759
 1535HOH     H2 4792   3.664   1.301   1.769
 1536HOH      O 4793   1.320   3.650   0.356
 1536HOH     H1 4794   1.302   3.721   0.417
 1536HOH     H2 4795   1.251   3.658   0.289
 1537HOH      O 4796   2.031   1.228   1.544
 1537HOH     H1 4797   1.967   1.257   1.480
 1537HOH     H2 4798   2.032   1.296   1.611
 1538HOH      O 4799  -0.028   1.357   2.995
 1538HOH     H1 4800  -0.006   1.332   3.085
 1538HOH     H2 4801   0.054   1.344   2.947
 1539HOH      O 4802   2.182   2.584   0.759
 1539HOH     H1 4803   2.226   2.558   0.840
 1539HOH     H2 4804   2.099   2.537   0.760
 1540HOH      O 4805   2.977   1.389   2.274
 1540HOH     H1 4806   3.009   1.471   2.312
 1540HOH     H2 4807   2.883   1.400   2.267
 1541HOH      O 4808   1.122   3.289   2.032
 1541HOH     H1 4809   1.029   3.308   2.018
 1541HOH     H2 4810   1.154   3.262   1.945
 1542HOH      O 4811   1.423   2.205   3.571
 1542HOH     H1 4812   1.427   2.129   3.629
 1542HOH     H2 4813   1.330   2.224   3.563
 1543HOH      O 4814   2.831   0.437   2.857
 1543HOH     H1 4815   2.808   0.483   2.938
 1543HOH     H2 4816   2.896   0.373   2.883
 1544HOH      O 4817   0.079   1.874   3.989
 1544HOH     H1 4818   0.172   1.875   4.010
 1544HOH     H2 4819   0.061   1.962   3.955
 1545HOH      O 4820   0.966   3.454   0.341
 1545HOH     H1 4821   0.901   3.410   0.395
 1545HOH     H2 4822   1.040   3.393   0.337
 1546HOH      O 4823   0.053   3.148   0.438
 1546HOH     H1 4824   0.146   3.161   0.418
 1546HOH     H2 4825   0.032   3.217   0.501
 1547HOH      O 4826   1.429   2.021   1.003
 1547HOH     H1 4827   1.421   2.098   1.059
 1547HOH     H2 4828   1.511   1.980   1.029
 1548HOH      O 4829   3.985   3.609   0.444
 1548HOH     H1 4830   4.008   3.687   0.395
 1548HOH     H2 4831   3.895   3.625   0.474
 1549HOH      O 4832   2.271   3.937   1.770
 1549HOH     H1 4833   2.194   3.994   1.772
 1549HOH     H2 4834   2.267   3.895   1.684
 1550HOH      O 4835   1.424   0.094  -0.022
 1550HOH     H1 4836   1.511   0.084   0.018
 1550HOH     H2 4837   1.370   0.131   0.048
 1551HOH      O 4838   2.905   2.638   2.768
 1551HOH     H1 4839   2.977   2.593   2.812
 1551HOH     H2 4840   2.834   2.640   2.833
 1552HOH      O 4841   2.112   1.962   0.940
 1552HOH     H1 4842   2.094   1.919   1.023
 1552HOH     H2 4843   2.063   2.044   0.944
 1553HOH      O 4844   1.114   3.154   3.383
 1553HOH     H1 4845   1.142   3.170   3.293
 1553HOH     H2 4846   1.164   3.077   3.410
 1554HOH      O 4847   2.079   3.274   2.416
 1554HOH     H1 4848   2.171   3.263   2.442
 1554HOH     H2 4849   2.054   3.189   2.380
 1555HOH      O 4850   1.558   0.347   0.117
 1555HOH     H1 4851   1.597   0.262   0.098
 1555HOH     H2 4852   1.631   0.399   0.152
 1556HOH      O 4853   1.694   2.103   0.764
 1556HOH     H1 4854   1.777   2.073   0.727
 1556HOH     H2 4855   1.639   2.024   0.765
 1557HOH      O 4856   0.327   3.170   0.683
 1557HOH     H1 4857   0.369   3.087   0.659
 1557HOH     H2 4858   0.349   3.229   0.612
 1558HOH      O 4859   3.299   0.265   2.912
 1558HOH     H1 4860   3.372   0.263   2.974
 1558HOH     H2 4861   3.323   0.333   2.850
 1559HOH      O 4862   2.885   0.417   3.801
 1559HOH     H1 4863   2.835   0.355   3.854
 1559HOH     H2 4864   2.842   0.415   3.715
 1560HOH      O 4865   0.020   1.055   0.017
 1560HOH     H1 4866   0.114   1.068   0.024
 1560HOH     H2 4867  -0.017   1.143   0.030
 1561HOH      O 4868   0.909   2.330   2.462
 1561HOH     H1 4869   0.962   2.251   2.471
 1561HOH     H2 4870   0.970   2.402   2.478
 1562HOH      O 4871   2.904   3.326   3.210
 1562HOH     H1 4872   2.859   3.242   3.198
 1562HOH     H2 4873   2.836   3.385   3.241
 1563HOH      O 4874   1.038   2.601   0.777
 1563HOH     H1 4875   1.089   2.522   0.763
 1563HOH     H2 4876   1.086   2.669   0.729
 1564HOH      O 4877   2.253   3.182   2.790
 1564HOH     H1 4878   2.167   3.224   2.796
 1564HOH     H2 4879   2.314   3.247   2.824
 1565HOH      O 4880   1.252   3.856   3.305
 1565HOH     H1 4881   1.207   3.786   3.352
 1565HOH     H2 4882   1.283   3.815   3.224
 1566HOH      O 4883   3.558   2.172   3.935
 1566HOH     H1 4884   3.469   2.202   3.955
 1566HOH     H2 4885   3.550   2.076   3.932
 1567HOH      O 4886   3.652   2.049   0.216
 1567HOH     H1 4887   3.728   2.022   0.165
 1567HOH     H2 4888   3.589   1.978   0.205
 1568HOH      O 4889   2.748   2.515   3.469
 1568HOH     H1 4890   2.725   2.601   3.506
 1568HOH     H2 4891   2.731   2.453   3.540
 1569HOH      O 4892   2.887   0.424   0.462
 1569HOH     H1 4893   2.936   0.414   0.380
 1569HOH     H2 4894   2.796   0.412   0.437
 1570HOH      O 4895   1.255   2.625   0.183
 1570HOH     H1 4896   1.217   2.548   0.141
 1570HOH     H2 4897   1.241   2.611   0.276
 1571HOH      O 4898   3.282   2.235   3.927
 1571HOH     H1 4899   3.238   2.298   3.870
 1571HOH     H2 4900   3.212   2.176   3.955
 1572HOH      O 4901   1.387   3.342   0.158
 1572HOH     H1 4902   1.424   3.356   0.245
 1572HOH     H2 4903   1.439   3.398   0.100
 1573HOH      O 4904   1.688   0.017   0.316
 1573HOH     H1 4905   1.764   0.046   0.366
 1573HOH     H2 4906   1.621   0.083   0.333
 1574HOH      O 4907   1.975   2.040   2.345
 1574HOH     H1 4908   2.064   2.032   2.378
 1574HOH     H2 4909   1.981   2.013   2.253
 1575HOH      O 4910   3.787   1.587   2.250
 1575HOH     H1 4911   3.813   1.514   2.194
 1575HOH     H2 4912   3.868   1.613   2.294
 1576HOH      O 4913   0.910   1.279   2.311
 1576HOH     H1 4914   0.998   1.258   2.340
 1576HOH     H2 4915   0.858   1.201   2.332
 1577HOH      O 4916   1.344   0.260   3.783
 1577HOH     H1 4917   1.401   0.218   3.848
 1577HOH     H2 4918   1.392   0.253   3.701
 1578HOH      O 4919   3.270   3.619   3.184
 1578HOH     H1 4920   3.310   3.606   3.271
 1578HOH     H2 4921   3.344   3.642   3.128
 1579HOH      O 4922   2.755   1.006   0.950
 1579HOH     H1 4923   2.764   1.003   1.045
 1579HOH     H2 4924   2.824   1.067   0.921
 1580HOH      O 4925   1.017   1.488   0.983
 1580HOH     H1 4926   0.978   1.418   0.931
 1580HOH     H2 4927   0.942   1.532   1.023
 1581HOH      O 4928   4.019   0.095   2.050
 1581HOH     H1 4929   3.994   0.062   2.136
 1581HOH     H2 4930   3.992   0.187   2.051
 1582HOH      O 4931   0.607   3.913   0.618
 1582HOH     H1 4932   0.559   3.959   0.549
 1582HOH     H2 4933   0.541   3.896   0.686
 1583HOH      O 4934   0.527   3.479   2.232
 1583HOH     H1 4935   0.557   3.558   2.186
 1583HOH     H2 4936   0.487   3.513   2.312
 1584HOH      O 4937   3.288   1.047   1.183
 1584HOH     H1 4938   3.336   1.005   1.112
 1584HOH     H2 4939   3.203   1.003   1.184
 1585HOH      O 4940   0.043   0.002   2.906
 1585HOH     H1 4941  -0.047  -0.017   2.933
 1585HOH     H2 4942   0.042   0.095   2.882
 1586HOH      O 4943   2.352   2.553   3.511
 1586HOH     H1 4944   2.292   2.588   3.577
 1586HOH     H2 4945   2.294   2.518   3.442
 1587HOH      O 4946   1.146   3.992   2.859
 1587HOH     H1 4947   1.183   3.909   2.828
 1587HOH     H2 4948   1.052   3.984   2.843
 1588HOH      O 4949   1.631   1.995   2.582
 1588HOH     H1 4950   1.642   2.032   2.494
 1588HOH     H2 4951   1.537   1.982   2.592
 1589HOH      O 4952   3.734   2.080   2.256
 1589HOH     H1 4953   3.803   2.017   2.236
 1589HOH     H2 4954   3.677   2.078   2.178
 1590HOH      O 4955   2.257   3.797   1.532
 1590HOH     H1 4956   2.348   3.826   1.531
 1590HOH     H2 4957   2.231   3.795   1.440
 1591HOH      O 4958   1.290   3.386   3.323
 1591HOH     H1 4959   1.203   3.374   3.361
 1591HOH     H2 4960   1.282   3.463   3.267
 1592HOH      O 4961   0.821   0.723   0.959
 1592HOH     H1 4962   0.765   0.775   1.017
 1592HOH     H2 4963   0.813   0.767   0.874
 1593HOH      O 4964   3.149   2.607   0.931
 1593HOH     H1 4965   3.193   2.670   0.989
 1593HOH     H2 4966   3.221   2.563   0.885
 1594HOH      O 4967   2.329   1.986   3.576
 1594HOH     H1 4968   2.270   1.912   3.577
 1594HOH     H2 4969   2.417   1.947   3.574
 1595HOH      O 4970   2.249   2.507   3.789
 1595HOH     H1 4971   2.170   2.535   3.835
 1595HOH     H2 4972   2.232   2.415   3.766
 1596HOH      O 4973   1.167   0.852   4.021
 1596HOH     H1 4974   1.114   0.893   4.089
 1596HOH     H2 4975   1.105   0.798   3.971
 1597HOH      O 4976   2.526   0.810   1.248
 1597HOH     H1 4977   2.471   0.798   1.325
 1597HOH     H2 4978   2.504   0.898   1.217
 1598HOH      O 4979   2.494   3.914   0.940
 1598HOH     H1 4980   2.482   3.926   1.034
 1598HOH     H2 4981   2.586   3.888   0.931
 1599HOH      O 4982   1.114   1.361   3.384
 1599HOH     H1 4983   1.081   1.272   3.377
 1599HOH     H2 4984   1.209   1.351   3.393
 1600HOH      O 4985   1.775   0.788   3.122
 1600HOH     H1 4986   1.788   0.728   3.196
 1600HOH     H2 4987   1.682   0.782   3.103
 1601HOH      O 4988   0.681   2.678   3.194
 1601HOH     H1 4989   0.767   2.635   3.191
 1601HOH     H2 4990   0.632   2.639   3.122
 1602HOH      O 4991   2.075   2.276   3.125
 1602HOH     H1 4992   1.982   2.273   3.101
 1602HOH     H2 4993   2.090   2.193   3.171
 1603HOH      O 4994   1.999   1.475   3.463
 1603HOH     H1 4995   1.991   1.480   3.368
 1603HOH     H2 4996   1.908   1.470   3.495
 1604HOH      O 4997   1.519   0.344   0.653
 1604HOH     H1 4998   1.454   0.330   0.723
 1604HOH     H2 4999   1.552   0.432   0.668
 1605HOH      O 5000   3.047   3.324   3.863
 1605HOH     H1 5001   3.082   3.306   3.776
 1605HOH     H2 5002   3.096   3.401   3.893
 1606HOH      O 5003   1.398   3.887   2.299
 1606HOH     H1 5004   1.473   3.852   2.347
 1606HOH     H2 5005   1.335   3.910   2.368
 1607HOH      O 5006   2.978   2.652   1.330
 1607HOH     H1 5007   3.036   2.578   1.313
 1607HOH     H2 5008   3.036   2.728   1.336
 1608HOH      O 5009   0.838   0.396   2.492
 1608HOH     H1 5010   0.933   0.402   2.500
 1608HOH     H2 5011   0.804   0.454   2.560
 1609HOH      O 5012   1.336   1.905   2.666
 1609HOH     H1 5013   1.251   1.883   2.706
 1609HOH     H2 5014   1.331   1.999   2.650
 1610HOH      O 5015   3.388   2.334   0.161
 1610HOH     H1 5016   3.379   2.302   0.071
 1610HOH     H2 5017   3.457   2.400   0.156
 1611HOH      O 5018   2.689   0.935   3.178
 1611HOH     H1 5019   2.708   0.971   3.092
 1611HOH     H2 5020   2.632   0.860   3.161
 1612HOH      O 5021   3.723   3.145   1.220
 1612HOH     H1 5022   3.722   3.122   1.127
 1612HOH     H2 5023   3.777   3.224   1.224
 1613HOH      O 5024   2.833   0.853   3.620
 1613HOH     H1 5025   2.909   0.876   3.673
 1613HOH     H2 5026   2.869   0.816   3.540
 1614HOH      O 5027   3.047   1.838   1.092
 1614HOH     H1 5028   3.096   1.763   1.060
 1614HOH     H2 5029   2.966   1.837   1.041
 1615HOH      O 5030   0.472   1.900   3.713
 1615HOH     H1 5031   0.565   1.880   3.723
 1615HOH     H2 5032   0.428   1.834   3.768
 1616HOH      O 5033   3.583   0.157   2.189
 1616HOH     H1 5034   3.533   0.076   2.202
 1616HOH     H2 5035   3.526   0.211   2.134
 1617HOH      O 5036   1.300   3.509   2.600
 1617HOH     H1 5037   1.259   3.500   2.514
 1617HOH     H2 5038   1.389   3.539   2.582
 1618HOH      O 5039   1.865   2.362   1.805
 1618HOH     H1 5040   1.924   2.413   1.860
 1618HOH     H2 5041   1.812   2.312   1.866
 1619HOH      O 5042   3.982   3.588   2.043
 1619HOH     H1 5043   3.949   3.504   2.077
 1619HOH     H2 5044   4.074   3.588   2.066
 1620HOH      O 5045   1.262   1.287   2.044
 1620HOH     H1 5046   1.285   1.378   2.058
 1620HOH     H2 5047   1.344   1.239   2.058
 1621HOH      O 5048   2.352   2.336   2.420
 1621HOH     H1 5049   2.307   2.261   2.459
 1621HOH     H2 5050   2.382   2.304   2.335
 1622HOH      O 5051   1.456   0.838   0.245
 1622HOH     H1 5052   1.387   0.869   0.304
 1622HOH     H2 5053   1.502   0.771   0.296
 1623HOH      O 5054   1.582   0.265   0.413
 1623HOH     H1 5055   1.549   0.332   0.354
 1623HOH     H2 5056   1.558   0.296   0.501
 1624HOH      O 5057   0.429   3.338   3.013
 1624HOH     H1 5058   0.512   3.356   2.967
 1624HOH     H2 5059   0.415   3.244   3.000
 1625HOH      O 5060   2.394   1.480   2.803
 1625HOH     H1 5061   2.414   1.561   2.756
 1625HOH     H2 5062   2.399   1.412   2.737
 1626HOH      O 5063   2.847   2.446   1.683
 1626HOH     H1 5064   2.820   2.364   1.643
 1626HOH     H2 5065   2.828   2.434   1.776
 1627HOH      O 5066   0.415   0.469   2.248
 1627HOH     H1 5067   0.456   0.451   2.333
 1627HOH     H2 5068   0.482   0.517   2.199
 1628HOH      O 5069   3.892   3.072   2.822
 1628HOH     H1 5070   3.936   3.016   2.758
 1628HOH     H2 5071   3.963   3.103   2.880
 1629HOH      O 5072   0.288   2.920   3.687
 1629HOH     H1 5073   0.326   2.857   3.626
 1629HOH     H2 5074   0.353   2.929   3.757
 1630HOH      O 5075   1.575   2.784   1.154
 1630HOH     H1 5076   1.668   2.770   1.174
 1630HOH     H2 5077   1.534   2.795   1.239
 1631HOH      O 5078   1.327   0.193   2.270
 1631HOH     H1 5079   1.237   0.160   2.267
 1631HOH     H2 5080   1.322   0.281   2.233
 1632HOH      O 5081   1.415   2.238   1.169
 1632HOH     H1 5082   1.428   2.250   1.263
 1632HOH     H2 5083   1.389   2.324   1.137
 1633HOH      O 5084   0.771   0.048   0.164
 1633HOH     H1 5085   0.775   0.138   0.196
 1633HOH     H2 5086   0.692   0.046   0.109
 1634HOH      O 5087   1.600   2.760   2.077
 1634HOH     H1 5088   1.563   2.847   2.065
 1634HOH     H2 5089   1.634   2.760   2.167
 1635HOH      O 5090   2.131   2.518   3.346
 1635HOH     H1 5091   2.132   2.459   3.270
 1635HOH     H2 5092   2.084   2.469   3.413
 1636HOH      O 5093   0.825   0.083   3.625
 1636HOH     H1 5094   0.897   0.101   3.564
 1636HOH     H2 5095   0.841  -0.005   3.657
 1637HOH      O 5096   3.396   3.011   2.492
 1637HOH     H1 5097   3.414   3.012   2.586
 1637HOH     H2 5098   3.452   3.081   2.456
 1638HOH      O 5099   0.066   0.748   3.190
 1638HOH     H1 5100   0.060   0.675   3.252
 1638HOH     H2 5101   0.126   0.810   3.231
 1639HOH      O 5102   1.781   0.864   0.576
 1639HOH     H1 5103   1.854   0.908   0.533
 1639HOH     H2 5104   1.781   0.900   0.665
 1640HOH      O 5105   1.971   3.830   2.855
 1640HOH     H1 5106   1.940   3.898   2.795
 1640HOH     H2 5107   1.984   3.753   2.800
 1641HOH      O 5108   3.001   3.080   0.494
 1641HOH     H1 5109   2.974   3.171   0.486
 1641HOH     H2 5110   2.918   3.031   0.498
 1642HOH      O 5111   2.219   3.419   2.120
 1642HOH     H1 5112   2.141   3.369   2.094
 1642HOH     H2 5113   2.268   3.360   2.177
 1643HOH      O 5114   1.955   0.512   2.623
 1643HOH     H1 5115   1.974   0.424   2.590
 1643HOH     H2 5116   2.031   0.534   2.677
 1644HOH      O 5117   1.339   0.433   2.108
 1644HOH     H1 5118   1.387   0.389   2.038
 1644HOH     H2 5119   1.269   0.480   2.063
 1645HOH      O 5120   1.515   2.796   1.499
 1645HOH     H1 5121   1.583   2.858   1.474
 1645HOH     H2 5122   1.508   2.806   1.594
 1646HOH      O 5123   1.129   3.008   3.857
 1646HOH     H1 5124   1.143   2.966   3.942
 1646HOH     H2 5125   1.052   2.964   3.822
 1647HOH      O 5126   3.674   2.709   0.401
 1647HOH     H1 5127   3.764   2.677   0.409
 1647HOH     H2 5128   3.627   2.667   0.473
 1648HOH      O 5129   3.997   2.302   3.623
 1648HOH     H1 5130   4.071   2.345   3.582
 1648HOH     H2 5131   3.928   2.368   3.624
 1649HOH      O 5132   1.677   1.004   1.528
 1649HOH     H1 5133   1.667   1.064   1.453
 1649HOH     H2 5134   1.747   0.944   1.501
 1650HOH      O 5135   3.418   3.902   1.964
 1650HOH     H1 5136   3.337   3.854   1.948
 1650HOH     H2 5137   3.412   3.930   2.056
 1651HOH      O 5138   2.934   3.322   1.303
 1651HOH     H1 5139   2.938   3.254   1.370
 1651HOH     H2 5140   2.929   3.404   1.352
 1652HOH      O 5141   3.390   2.778   3.279
 1652HOH     H1 5142   3.450   2.736   3.216
 1652HOH     H2 5143   3.360   2.706   3.335
 1653HOH      O 5144   2.684   3.024   1.961
 1653HOH     H1 5145   2.734   3.102   1.934
 1653HOH     H2 5146   2.625   3.056   2.029
 1654HOH      O 5147   1.432   2.411   0.517
 1654HOH     H1 5148   1.488   2.386   0.591
 1654HOH     H2 5149   1.490   2.459   0.458
 1655HOH      O 5150   2.284   0.209   2.132
 1655HOH     H1 5151   2.330   0.172   2.057
 1655HOH     H2 5152   2.202   0.160   2.137
 1656HOH      O 5153   2.621   0.775   1.598
 1656HOH     H1 5154   2.695   0.827   1.568
 1656HOH     H2 5155   2.549   0.837   1.605
 1657HOH      O 5156   1.725   1.868   1.794
 1657HOH     H1 5157   1.686   1.905   1.873
 1657HOH     H2 5158   1.689   1.921   1.722
 1658HOH      O 5159   3.169   1.006   1.965
 1658HOH     H1 5160   3.203   1.063   1.896
 1658HOH     H2 5161   3.166   1.062   2.043
 1659HOH      O 5162   0.819   1.100   3.263
 1659HOH     H1 5163   0.724   1.110   3.267
 1659HOH     H2 5164   0.851   1.140   3.344
 1660HOH      O 5165   1.456   2.801   1.762
 1660HOH     H1 5166   1.395   2.732   1.788
 1660HOH     H2 5167   1.434   2.875   1.818
 1661HOH      O 5168   0.758   1.894   3.856
 1661HOH     H1 5169   0.741   1.864   3.766
 1661HOH     H2 5170   0.743   1.988   3.853
 1662HOH      O 5171   0.746   3.906   3.154
 1662HOH     H1 5172   0.838   3.928   3.139
 1662HOH     H2 5173   0.717   3.966   3.222
 1663HOH      O 5174   1.955   2.065   0.678
 1663HOH     H1 5175   2.005   2.146   0.664
 1663HOH     H2 5176   1.901   2.057   0.599
 1664HOH      O 5177   1.285   3.612   3.130
 1664HOH     H1 5178   1.307   3.549   3.062
 1664HOH     H2 5179   1.362   3.668   3.138
 1665HOH      O 5180   3.587   1.874   1.857
 1665HOH     H1 5181   3.598   1.782   1.833
 1665HOH     H2 5182   3.496   1.881   1.886
 1666HOH      O 5183   0.248   1.719   1.252
 1666HOH     H1 5184   0.287   1.632   1.253
 1666HOH     H2 5185   0.155   1.704   1.234
 1667HOH      O 5186   0.217   0.317   2.511
 1667HOH     H1 5187   0.151   0.381   2.539
 1667HOH     H2 5188   0.300   0.364   2.515
 1668HOH      O 5189   1.169   1.712   0.912
 1668HOH     H1 5190   1.234   1.709   0.841
 1668HOH     H2 5191   1.115   1.634   0.899
 1669HOH      O 5192   1.080   2.285   1.350
 1669HOH     H1 5193   0.987   2.267   1.366
 1669HOH     H2 5194   1.123   2.202   1.368
 1670HOH      O 5195   1.799   2.103   0.446
 1670HOH     H1 5196   1.822   2.021   0.402
 1670HOH     H2 5197   1.711   2.124   0.414
 1671HOH      O 5198   1.651   3.880   3.444
 1671HOH     H1 5199   1.576   3.920   3.489
 1671HOH     H2 5200   1.659   3.928   3.362
 1672HOH      O 5201   2.490   3.617   0.713
 1672HOH     H1 5202   2.461   3.553   0.649
 1672HOH     H2 5203   2.411   3.642   0.760
 1673HOH      O 5204   3.722   1.478   3.608
 1673HOH     H1 5205   3.641   1.485   3.659
 1673HOH     H2 5206   3.706   1.405   3.548
 1674HOH      O 5207   0.909   1.583   3.275
 1674HOH     H1 5208   0.933   1.493   3.299
 1674HOH     H2 5209   0.971   1.606   3.205
 1675HOH      O 5210   0.979   1.378   0.639
 1675HOH     H1 5211   0.987   1.460   0.591
 1675HOH     H2 5212   0.893   1.384   0.683
 1676HOH      O 5213   0.094   3.132   2.968
 1676HOH     H1 5214   0.174   3.078   2.969
 1676HOH     H2 5215   0.117   3.208   2.915
 1677HOH      O 5216   3.655   1.179   1.627
 1677HOH     H1 5217   3.610   1.094   1.634
 1677HOH     H2 5218   3.617   1.220   1.549
 1678HOH      O 5219   1.432   2.975   0.201
 1678HOH     H1 5220   1.447   2.890   0.160
 1678HOH     H2 5221   1.355   3.010   0.156
 1679HOH      O 5222   2.796   3.185   3.684
 1679HOH     H1 5223   2.782   3.278   3.701
 1679HOH     H2 5224   2.724   3.141   3.729
 1680HOH      O 5225   2.436   2.778   3.403
 1680HOH     H1 5226   2.436   2.737   3.489
 1680HOH     H2 5227   2.466   2.710   3.343
 1681HOH      O 5228   3.901   3.867   2.121
 1681HOH     H1 5229   3.918   3.776   2.097
 1681HOH     H2 5230   3.922   3.917   2.042
 1682HOH      O 5231   0.565   2.447   1.211
 1682HOH     H1 5232   0.655   2.479   1.218
 1682HOH     H2 5233   0.574   2.360   1.172
 1683HOH      O 5234   1.045   3.565   3.330
 1683HOH     H1 5235   0.978   3.497   3.338
 1683HOH     H2 5236   1.015   3.635   3.387
 1684HOH      O 5237   3.430   1.531   0.241
 1684HOH     H1 5238   3.343   1.510   0.277
 1684HOH     H2 5239   3.491   1.491   0.303
 1685HOH      O 5240   2.130   1.790   2.616
 1685HOH     H1 5241   2.169   1.841   2.687
 1685HOH     H2 5242   2.036   1.807   2.623
 1686HOH      O 5243   2.131   0.580   3.985
 1686HOH     H1 5244   2.187   0.529   3.926
 1686HOH     H2 5245   2.128   0.530   4.066
 1687HOH      O 5246   0.598   2.028   1.426
 1687HOH     H1 5247   0.599   2.015   1.521
 1687HOH     H2 5248   0.594   1.940   1.390
 1688HOH      O 5249   3.208   0.339   1.695
 1688HOH     H1 5250   3.254   0.414   1.734
 1688HOH     H2 5251   3.124   0.374   1.666
 1689HOH      O 5252   2.892   2.309   1.275
 1689HOH     H1 5253   2.932   2.271   1.197
 1689HOH     H2 5254   2.957   2.371   1.308
 1690HOH      O 5255   2.798   0.456   3.452
 1690HOH     H1 5256   2.738   0.407   3.395
 1690HOH     H2 5257   2.877   0.402   3.456
 1691HOH      O 5258   2.420   1.937   3.035
 1691HOH     H1 5259   2.395   2.025   3.063
 1691HOH     H2 5260   2.353   1.880   3.072
 1692HOH      O 5261   3.030   1.725   3.265
 1692HOH     H1 5262   2.956   1.753   3.210
 1692HOH     H2 5263   2.993   1.715   3.352
 1693HOH      O 5264   0.659   2.244   0.775
 1693HOH     H1 5265   0.679   2.264   0.684
 1693HOH     H2 5266   0.706   2.309   0.826
 1694HOH      O 5267   3.836   2.007   3.508
 1694HOH     H1 5268   3.814   2.061   3.584
 1694HOH     H2 5269   3.822   1.917   3.537
 1695HOH      O 5270   3.336   3.784   0.072
 1695HOH     H1 5271   3.313   3.744   0.156
 1695HOH     H2 5272   3.409   3.843   0.092
 1696HOH      O 5273   2.577   2.057   0.275
 1696HOH     H1 5274   2.499   2.060   0.332
 1696HOH     H2 5275   2.600   1.964   0.274
 1697HOH      O 5276   0.966   1.906   2.743
 1697HOH     H1 5277   0.876   1.877   2.758
 1697HOH     H2 5278   0.970   1.992   2.784
 1698HOH      O 5279   0.173   0.971   2.325
 1698HOH     H1 5280   0.180   1.049   2.271
 1698HOH     H2 5281   0.259   0.960   2.364
 1699HOH      O 5282   3.200   3.724   1.866
 1699HOH     H1 5283   3.194   3.692   1.776
 1699HOH     H2 5284   3.123   3.779   1.877
 1700HOH      O 5285   3.492   1.254   3.888
 1700HOH     H1 5286   3.511   1.326   3.826
 1700HOH     H2 5287   3.578   1.230   3.922
 1701HOH      O 5288   3.513   3.898   2.928
 1701HOH     H1 5289   3.434   3.952   2.934
 1701HOH     H2 5290   3.528   3.887   2.834
 1702HOH      O 5291   1.393   0.451   2.770
 1702HOH     H1 5292   1.313   0.403   2.748
 1702HOH     H2 5293   1.419   0.494   2.688
 1703HOH      O 5294   1.538   3.337   2.670
 1703HOH     H1 5295   1.544   3.410   2.610
 1703HOH     H2 5296   1.488   3.270   2.623
 1704HOH      O 5297   0.156   1.950   1.063
 1704HOH     H1 5298   0.066   1.952   1.096
 1704HOH     H2 5299   0.147   1.963   0.969
 1705HOH      O 5300   0.149   3.144   2.526
 1705HOH     H1 5301   0.118   3.227   2.490
 1705HOH     H2 5302   0.227   3.167   2.577
 1706HOH      O 5303   2.313   1.213   1.612
 1706HOH     H1 5304   2.343   1.130   1.649
 1706HOH     H2 5305   2.227   1.194   1.576
 1707HOH      O 5306   1.012   2.868   3.016
 1707HOH     H1 5307   1.088   2.883   3.072
 1707HOH     H2 5308   0.981   2.781   3.040
 1708HOH      O 5309   1.871   2.705   2.937
 1708HOH     H1 5310   1.909   2.709   3.025
 1708HOH     H2 5311   1.919   2.770   2.887
 1709HOH      O 5312   1.621   1.818   0.617
 1709HOH     H1 5313   1.617   1.736   0.666
 1709HOH     H2 5314   1.643   1.792   0.528
 1710HOH      O 5315   0.706   3.394   2.933
 1710HOH     H1 5316   0.739   3.476   2.971
 1710HOH     H2 5317   0.736   3.326   2.994
 1711HOH      O 5318   2.253   1.924   2.193
 1711HOH     H1 5319   2.202   1.854   2.233
 1711HOH     H2 5320   2.232   1.918   2.100
 1712HOH      O 5321   2.308   1.449   1.954
 1712HOH     H1 5322   2.222   1.465   1.993
 1712HOH     H2 5323   2.308   1.501   1.874
 1713HOH      O 5324   2.749   3.958   0.836
 1713HOH     H1 5325   2.738   3.927   0.746
 1713HOH     H2 5326   2.837   3.928   0.861
 1714HOH      O 5327   2.535   0.122   1.355
 1714HOH     H1 5328   2.531   0.208   1.397
 1714HOH     H2 5329   2.453   0.114   1.307
 1715HOH      O 5330   2.499   3.021   3.479
 1715HOH     H1 5331   2.593   3.006   3.488
 1715HOH     H2 5332   2.463   2.934   3.458
 1716HOH      O 5333   1.443   2.259   3.136
 1716HOH     H1 5334   1.451   2.191   3.069
 1716HOH     H2 5335   1.519   2.315   3.122
 1717HOH      O 5336   1.405   0.657   2.241
 1717HOH     H1 5337   1.319   0.679   2.277
 1717HOH     H2 5338   1.388   0.580   2.186
 1718HOH      O 5339   0.811   1.130   2.885
 1718HOH     H1 5340   0.879   1.104   2.948
 1718HOH     H2 5341   0.851   1.118   2.799
 1719HOH      O 5342   2.096   2.915   0.447
 1719HOH     H1 5343   2.031   2.959   0.501
 1719HOH     H2 5344   2.064   2.826   0.438
 1720HOH      O 5345   3.956   1.234   1.650
 1720HOH     H1 5346   3.952   1.314   1.703
 1720HOH     H2 5347   3.868   1.197   1.657
 1721HOH      O 5348   1.393   3.390   2.144
 1721HOH     H1 5349   1.333   3.348   2.083
 1721HOH     H2 5350   1.394   3.482   2.118
 1722HOH      O 5351   0.024   0.029   1.451
 1722HOH     H1 5352  -0.041   0.089   1.486
 1722HOH     H2 5353   0.086   0.085   1.405
 1723HOH      O 5354   2.646   1.383   3.233
 1723HOH     H1 5355   2.595   1.331   3.295
 1723HOH     H2 5356   2.734   1.348   3.239
 1724HOH      O 5357   1.579   2.933   3.877
 1724HOH     H1 5358   1.537   2.851   3.904
 1724HOH     H2 5359   1.536   3.000   3.931
 1725HOH      O 5360   2.079   1.748   3.381
 1725HOH     H1 5361   2.145   1.736   3.449
 1725HOH     H2 5362   2.007   1.691   3.409
 1726HOH      O 5363   2.070   1.111   3.741
 1726HOH     H1 5364   2.088   1.204   3.734
 1726HOH     H2 5365   2.045   1.098   3.832
 1727HOH      O 5366   0.235   1.423   1.258
 1727HOH     H1 5367   0.181   1.403   1.334
 1727HOH     H2 5368   0.235   1.342   1.207
 1728HOH      O 5369   1.822   3.815   1.822
 1728HOH     H1 5370   1.880   3.833   1.749
 1728HOH     H2 5371   1.857   3.734   1.861
 1729HOH      O 5372   3.329   1.715   2.546
 1729HOH     H1 5373   3.290   1.796   2.512
 1729HOH     H2 5374   3.410   1.704   2.496
 1730HOH      O 5375   2.259   3.728   0.338
 1730HOH     H1 5376   2.192   3.771   0.286
 1730HOH     H2 5377   2.324   3.796   0.355
 1731HOH      O 5378   3.581   0.094   1.496
 1731HOH     H1 5379   3.576  -0.000   1.514
 1731HOH     H2 5380   3.495   0.128   1.523
 1732HOH      O 5381   2.055   0.558   0.827
 1732HOH     H1 5382   2.140   0.514   0.825
 1732HOH     H2 5383   1.991   0.488   0.809
 1733HOH      O 5384   3.593   2.086   3.369
 1733HOH     H1 5385   3.610   2.178   3.347
 1733HOH     H2 5386   3.664   2.062   3.429
 1734HOH      O 5387   3.122   2.544   2.904
 1734HOH     H1 5388   3.178   2.610   2.945
 1734HOH     H2 5389   3.172   2.515   2.827
 1735HOH      O 5390   3.602   2.279   1.792
 1735HOH     H1 5391   3.559   2.230   1.721
 1735HOH     H2 5392   3.529   2.314   1.843
 1736HOH      O 5393   2.710   1.790   0.247
 1736HOH     H1 5394   2.614   1.782   0.246
 1736HOH     H2 5395   2.742   1.701   0.262
 1737HOH      O 5396   2.625   0.203   2.598
 1737HOH     H1 5397   2.712   0.163   2.605
 1737HOH     H2 5398   2.578   0.147   2.537
 1738HOH      O 5399   1.562   2.340   0.747
 1738HOH     H1 5400   1.598   2.251   0.754
 1738HOH     H2 5401   1.639   2.396   0.740
 1739HOH      O 5402   2.010   2.223   1.344
 1739HOH     H1 5403   1.921   2.250   1.366
 1739HOH     H2 5404   2.051   2.202   1.428
 1740HOH      O 5405   2.864   1.713   3.826
 1740HOH     H1 5406   2.840   1.760   3.906
 1740HOH     H2 5407   2.800   1.642   3.820
 1741HOH      O 5408   1.145   3.815   1.266
 1741HOH     H1 5409   1.102   3.774   1.341
 1741HOH     H2 5410   1.157   3.744   1.203
 1742HOH      O 5411   3.329   0.565   1.864
 1742HOH     H1 5412   3.416   0.598   1.886
 1742HOH     H2 5413   3.275   0.644   1.857
 1743HOH      O 5414   3.528   3.017   0.138
 1743HOH     H1 5415   3.598   2.954   0.154
 1743HOH     H2 5416   3.483   2.983   0.061
 1744HOH      O 5417   0.915   2.192   3.635
 1744HOH     H1 5418   0.967   2.117   3.604
 1744HOH     H2 5419   0.923   2.257   3.565
 1745HOH      O 5420   2.101   0.785   1.932
 1745HOH     H1 5421   2.114   0.778   2.026
 1745HOH     H2 5422   2.162   0.854   1.904
 1746HOH      O 5423   1.094   2.286   3.817
 1746HOH     H1 5424   1.037   2.251   3.749
 1746HOH     H2 5425   1.133   2.364   3.778
 1747HOH      O 5426   0.481   1.122   2.310
 1747HOH     H1 5427   0.528   1.149   2.389
 1747HOH     H2 5428   0.550   1.117   2.243
 1748HOH      O 5429   1.714   3.802   2.301
 1748HOH     H1 5430   1.720   3.709   2.282
 1748HOH     H2 5431   1.711   3.844   2.215
 1749HOH      O 5432   0.789   1.624   1.063
 1749HOH     H1 5433   0.789   1.719   1.070
 1749HOH     H2 5434   0.700   1.598   1.087
 1750HOH      O 5435   1.402   0.025   0.606
 1750HOH     H1 5436   1.439   0.041   0.693
 1750HOH     H2 5437   1.436   0.096   0.552
 1751HOH      O 5438   0.176   2.484   3.500
 1751HOH     H1 5439   0.237   2.412   3.511
 1751HOH     H2 5440   0.183   2.507   3.407
 1752HOH      O 5441   0.267   2.304   0.948
 1752HOH     H1 5442   0.294   2.286   0.858
 1752HOH     H2 5443   0.193   2.246   0.964
 1753HOH      O 5444   3.041   2.111   3.940
 1753HOH     H1 5445   2.945   2.108   3.941
 1753HOH     H2 5446   3.067   2.059   4.016
 1754HOH      O 5447   3.657   2.784   3.767
 1754HOH     H1 5448   3.607   2.714   3.809
 1754HOH     H2 5449   3.735   2.741   3.734
 1755HOH      O 5450   2.632   1.025   2.458
 1755HOH     H1 5451   2.562   0.971   2.421
 1755HOH     H2 5452   2.685   1.050   2.383
 1756HOH      O 5453   1.380   2.832   2.358
 1756HOH     H1 5454   1.456   2.849   2.302
 1756HOH     H2 5455   1.349   2.918   2.385
 1757HOH      O 5456   2.008   0.371   0.494
 1757HOH     H1 5457   2.055   0.452   0.515
 1757HOH     H2 5458   1.916   0.397   0.491
 1758HOH      O 5459   2.885   0.728   3.389
 1758HOH     H1 5460   2.953   0.696   3.331
 1758HOH     H2 5461   2.843   0.649   3.423
 1759HOH      O 5462   3.400   2.391   2.184
 1759HOH     H1 5463   3.362   2.350   2.262
 1759HOH     H2 5464   3.326   2.404   2.125
 1760HOH      O 5465   2.252   3.143   1.219
 1760HOH     H1 5466   2.185   3.099   1.167
 1760HOH     H2 5467   2.257   3.092   1.300
 1761HOH      O 5468   1.882   1.543   2.425
 1761HOH     H1 5469   1.936   1.608   2.382
 1761HOH     H2 5470   1.938   1.465   2.431
 1762HOH      O 5471   2.243   3.485   4.002
 1762HOH     H1 5472   2.279   3.470   4.089
 1762HOH     H2 5473   2.310   3.535   3.956
 1763HOH      O 5474   0.705   2.299   1.826
 1763HOH     H1 5475   0.689   2.351   1.748
 1763HOH     H2 5476   0.769   2.349   1.876
 1764HOH      O 5477   1.963   3.378   2.050
 1764HOH     H1 5478   1.957   3.321   1.974
 1764HOH     H2 5479   1.872   3.396   2.075
 1765HOH      O 5480   3.080   1.059   1.432
 1765HOH     H1 5481   3.150   1.052   1.367
 1765HOH     H2 5482   3.054   0.969   1.450
 1766HOH      O 5483   1.680   2.218   1.022
 1766HOH     H1 5484   1.661   2.172   0.940
 1766HOH     H2 5485   1.594   2.241   1.057
 1767HOH      O 5486   0.333   1.736   0.890
 1767HOH     H1 5487   0.366   1.647   0.902
 1767HOH     H2 5488   0.239   1.728   0.905
 1768HOH      O 5489   1.559   3.361   2.979
 1768HOH     H1 5490   1.593   3.294   2.920
 1768HOH     H2 5491   1.489   3.403   2.929
 1769HOH      O 5492   1.974   2.687   3.195
 1769HOH     H1 5493   2.040   2.638   3.245
 1769HOH     H2 5494   1.895   2.682   3.249
 1770HOH      O 5495   0.414   2.779   0.472
 1770HOH     H1 5496   0.437   2.769   0.564
 1770HOH     H2 5497   0.327   2.820   0.474
 1771HOH      O 5498   3.821   0.348   2.678
 1771HOH     H1 5499   3.819   0.432   2.723
 1771HOH     H2 5500   3.830   0.370   2.586
 1772HOH      O 5501   2.906   2.593   0.230
 1772HOH     H1 5502   2.961   2.621   0.157
 1772HOH     H2 5503   2.956   2.617   0.308
 1773HOH      O 5504   2.339   1.424   0.733
 1773HOH     H1 5505   2.310   1.489   0.669
 1773HOH     H2 5506   2.365   1.349   0.680
 1774HOH      O 5507   1.669   3.322   3.743
 1774HOH     H1 5508   1.714   3.405   3.726
 1774HOH     H2 5509   1.610   3.341   3.816
 1775HOH      O 5510   2.938   2.182   3.274
 1775HOH     H1 5511   2.945   2.228   3.358
 1775HOH     H2 5512   2.852   2.139   3.278
 1776HOH      O 5513   3.382   2.088   2.858
 1776HOH     H1 5514   3.345   2.028   2.923
 1776HOH     H2 5515   3.306   2.122   2.811
 1777HOH      O 5516   1.739   1.412   3.502
 1777HOH     H1 5517   1.677   1.465   3.553
 1777HOH     H2 5518   1.712   1.322   3.519
 1778HOH      O 5519   3.526   2.857   1.574
 1778HOH     H1 5520   3.582   2.845   1.498
 1778HOH     H2 5521   3.466   2.927   1.548
 1779HOH      O 5522   2.498   3.427   1.097
 1779HOH     H1 5523   2.507   3.332   1.110
 1779HOH     H2 5524   2.536   3.443   1.011
 1780HOH      O 5525   1.892   0.318   1.487
 1780HOH     H1 5526   1.867   0.290   1.398
 1780HOH     H2 5527   1.863   0.247   1.543
 1781HOH      O 5528   2.046   0.002   3.776
 1781HOH     H1 5529   1.993   0.081   3.777
 1781HOH     H2 5530   2.072  -0.009   3.684
 1782HOH      O 5531   4.017   0.372   0.147
 1782HOH     H1 5532   3.941   0.397   0.095
 1782HOH     H2 5533   4.038   0.451   0.197
 1783HOH      O 5534   1.365   0.921   3.715
 1783HOH     H1 5535   1.314   0.848   3.750
 1783HOH     H2 5536   1.435   0.880   3.664
 1784HOH      O 5537   3.918   2.259   0.678
 1784HOH     H1 5538   3.950   2.348   0.661
 1784HOH     H2 5539   3.992   2.202   0.656
 1785HOH      O 5540   0.900   1.944   1.932
 1785HOH     H1 5541   0.927   2.027   1.973
 1785HOH     H2 5542   0.815   1.962   1.894
 1786HOH      O 5543   2.373   2.624   1.641
 1786HOH     H1 5544   2.384   2.656   1.551
 1786HOH     H2 5545   2.352   2.531   1.631
 1787HOH      O 5546   3.159   3.308   3.593
 1787HOH     H1 5547   3.096   3.244   3.559
 1787HOH     H2 5548   3.119   3.393   3.574
 1788HOH      O 5549   1.212   2.578   0.430
 1788HOH     H1 5550   1.279   2.529   0.478
 1788HOH     H2 5551   1.193   2.653   0.487
 1789HOH      O 5552   0.538   3.467   0.635
 1789HOH     H1 5553   0.565   3.518   0.559
 1789HOH     H2 5554   0.479   3.401   0.601
 1790HOH      O 5555   1.101   1.334   0.394
 1790HOH     H1 5556   1.091   1.411   0.338
 1790HOH     H2 5557   1.053   1.356   0.475
 1791HOH      O 5558   2.282   3.132   0.455
 1791HOH     H1 5559   2.231   3.196   0.506
 1791HOH     H2 5560   2.216   3.072   0.420
 1792HOH      O 5561   2.414   1.828   0.582
 1792HOH     H1 5562   2.437   1.788   0.665
 1792HOH     H2 5563   2.414   1.755   0.519
 1793HOH      O 5564   3.191   1.977   0.768
 1793HOH     H1 5565   3.277   2.014   0.785
 1793HOH     H2 5566   3.207   1.904   0.708
 1794HOH      O 5567   1.887   1.760   2.935
 1794HOH     H1 5568   1.814   1.748   2.996
 1794HOH     H2 5569   1.965   1.748   2.989
 1795HOH      O 5570   0.432   3.932   1.815
 1795HOH     H1 5571   0.417   3.907   1.723
 1795HOH     H2 5572   0.353   3.980   1.840
 1796HOH      O 5573   1.331   0.797   3.000
 1796HOH     H1 5574   1.367   0.875   3.042
 1796HOH     H2 5575   1.405   0.759   2.953
 1797HOH      O 5576   1.260   2.341   1.763
 1797HOH     H1 5577   1.280   2.247   1.757
 1797HOH     H2 5578   1.339   2.380   1.801
 1798HOH      O 5579   3.540   2.486   2.487
 1798HOH     H1 5580   3.553   2.464   2.395
 1798HOH     H2 5581   3.562   2.579   2.492
 1799HOH      O 5582   3.861   0.717   2.420
 1799HOH     H1 5583   3.811   0.649   2.375
 1799HOH     H2 5584   3.798   0.787   2.435
 1800HOH      O 5585   2.489   0.993   2.901
 1800HOH     H1 5586   2.584   0.999   2.899
 1800HOH     H2 5587   2.470   0.922   2.962
 1801HOH      O 5588   1.089   3.984   0.872
 1801HOH     H1 5589   1.010   3.961   0.825
 1801HOH     H2 5590   1.061   3.997   0.963
 1802HOH      O 5591   3.305   3.062   3.234
 1802HOH     H1 5592   3.225   3.030   3.192
 1802HOH     H2 5593   3.354   2.982   3.255
 1803HOH      O 5594   0.187   3.673   1.715
 1803HOH     H1 5595   0.122   3.741   1.700
 1803HOH     H2 5596   0.136   3.595   1.735
 1804HOH      O 5597   0.227   2.438   3.007
 1804HOH     H1 5598   0.170   2.498   2.958
 1804HOH     H2 5599   0.169   2.370   3.039
 1805HOH      O 5600   0.427   1.192   1.449
 1805HOH     H1 5601   0.356   1.253   1.471
 1805HOH     H2 5602   0.439   1.140   1.529
 1806HOH      O 5603   1.441   2.022   0.620
 1806HOH     H1 5604   1.500   1.947   0.626
 1806HOH     H2 5605   1.486   2.084   0.563
 1807HOH      O 5606   1.318   2.542   3.475
 1807HOH     H1 5607   1.406   2.520   3.443
 1807HOH     H2 5608   1.312   2.637   3.463
 1808HOH      O 5609   3.043   1.707   2.291
 1808HOH     H1 5610   3.104   1.780   2.297
 1808HOH     H2 5611   2.966   1.735   2.339
 1809HOH      O 5612   0.228   0.078   1.858
 1809HOH     H1 5613   0.261   0.167   1.873
 1809HOH     H2 5614   0.166   0.063   1.930
 1810HOH      O 5615   1.426   1.760   3.532
 1810HOH     H1 5616   1.337   1.752   3.497
 1810HOH     H2 5617   1.465   1.830   3.480
 1811HOH      O 5618   1.136   2.984   0.319
 1811HOH     H1 5619   1.143   2.955   0.410
 1811HOH     H2 5620   1.139   3.080   0.324
 1812HOH      O 5621   1.965   3.826   1.165
 1812HOH     H1 5622   1.996   3.850   1.077
 1812HOH     H2 5623   1.876   3.793   1.151
 1813HOH      O 5624   0.064   3.117   3.722
 1813HOH     H1 5625   0.135   3.169   3.757
 1813HOH     H2 5626   0.104   3.032   3.702
 1814HOH      O 5627   0.626   2.929   3.130
 1814HOH     H1 5628   0.675   2.855   3.164
 1814HOH     H2 5629   0.622   2.914   3.035
 1815HOH      O 5630   2.939   1.258   1.714
 1815HOH     H1 5631   2.951   1.253   1.619
 1815HOH     H2 5632   2.960   1.348   1.736
 1816HOH      O 5633   2.821   3.298   2.387
 1816HOH     H1 5634   2.875   3.377   2.383
 1816HOH     H2 5635   2.862   3.238   2.325
 1817HOH      O 5636   1.979   3.609   1.918
 1817HOH     H1 5637   2.034   3.565   1.853
 1817HOH     H2 5638   1.968   3.545   1.988
 1818HOH      O 5639   2.813   0.261   2.027
 1818HOH     H1 5640   2.816   0.168   2.050
 1818HOH     H2 5641   2.905   0.286   2.019
 1819HOH      O 5642   1.027   0.660   3.867
 1819HOH     H1 5643   1.119   0.645   3.844
 1819HOH     H2 5644   1.000   0.578   3.908
 1820HOH      O 5645   2.974   2.958   1.372
 1820HOH     H1 5646   2.925   2.952   1.454
 1820HOH     H2 5647   3.062   2.984   1.399
 1821HOH      O 5648   2.590   1.804   3.667
 1821HOH     H1 5649   2.653   1.869   3.635
 1821HOH     H2 5650   2.620   1.721   3.630
 1822HOH      O 5651   2.950   2.580   3.835
 1822HOH     H1 5652   3.007   2.657   3.835
 1822HOH     H2 5653   2.978   2.530   3.912
 1823HOH      O 5654   1.158   2.455   2.543
 1823HOH     H1 5655   1.206   2.537   2.559
 1823HOH     H2 5656   1.120   2.433   2.628
 1824HOH      O 5657   1.081   1.201   0.830
 1824HOH     H1 5658   1.000   1.186   0.879
 1824HOH     H2 5659   1.059   1.267   0.765
 1825HOH      O 5660   3.284   0.191   1.489
 1825HOH     H1 5661   3.262   0.236   1.571
 1825HOH     H2 5662   3.326   0.259   1.436
 1826HOH      O 5663   2.157   2.893   3.405
 1826HOH     H1 5664   2.242   2.851   3.394
 1826HOH     H2 5665   2.112   2.881   3.322
 1827HOH      O 5666   3.799   2.298   0.199
 1827HOH     H1 5667   3.754   2.216   0.218
 1827HOH     H2 5668   3.876   2.297   0.256
 1828HOH      O 5669   1.771   3.593   3.659
 1828HOH     H1 5670   1.701   3.602   3.595
 1828HOH     H2 5671   1.788   3.683   3.688
 1829HOH      O 5672   3.867   2.775   0.765
 1829HOH     H1 5673   3.777   2.747   0.750
 1829HOH     H2 5674   3.885   2.837   0.695
 1830HOH      O 5675   0.482   2.540   2.306
 1830HOH     H1 5676   0.565   2.499   2.330
 1830HOH     H2 5677   0.418   2.501   2.365
 1831HOH      O 5678   2.195   0.026   4.040
 1831HOH     H1 5679   2.207   0.042   3.946
 1831HOH     H2 5680   2.272   0.065   4.081
 1832HOH      O 5681   0.578   0.087   2.231
 1832HOH     H1 5682   0.549   0.002   2.196
 1832HOH     H2 5683   0.501   0.120   2.278
 1833HOH      O 5684   3.550   1.894   3.681
 1833HOH     H1 5685   3.587   1.982   3.673
 1833HOH     H2 5686   3.607   1.850   3.744
 1834HOH      O 5687   2.354   1.800   1.667
 1834HOH     H1 5688   2.389   1.712   1.651
 1834HOH     H2 5689   2.272   1.786   1.714
 1835HOH      O 5690   1.738   2.789   1.805
 1835HOH     H1 5691   1.746   2.861   1.742
 1835HOH     H2 5692   1.644   2.769   1.807
 1836HOH      O 5693   0.710   0.450   4.006
 1836HOH     H1 5694   0.631   0.430   3.955
 1836HOH     H2 5695   0.681   0.450   4.097
 1837HOH      O 5696   0.485   2.535   3.057
 1837HOH     H1 5697   0.503   2.600   2.989
 1837HOH     H2 5698   0.408   2.488   3.024
 1838HOH      O 5699   3.771   1.356   2.524
 1838HOH     H1 5700   3.843   1.296   2.540
 1838HOH     H2 5701   3.804   1.441   2.553
 1839HOH      O 5702   0.197   1.581   3.350
 1839HOH     H1 5703   0.111   1.558   3.314
 1839HOH     H2 5704   0.178   1.610   3.440
 1840HOH      O 5705   1.539   2.240  -0.019
 1840HOH     H1 5706   1.444   2.230  -0.010
 1840HOH     H2 5707   1.565   2.287   0.061
 1841HOH      O 5708   2.722   2.545   1.416
 1841HOH     H1 5709   2.790   2.551   1.483
 1841HOH     H2 5710   2.768   2.561   1.334
 1842HOH      O 5711   3.070   0.171   2.331
 1842HOH     H1 5712   3.068   0.253   2.282
 1842HOH     H2 5713   3.117   0.191   2.411
 1843HOH      O 5714   1.445   2.498   2.899
 1843HOH     H1 5715   1.442   2.564   2.830
 1843HOH     H2 5716   1.534   2.463   2.893
 1844HOH      O 5717   3.897   2.615   1.710
 1844HOH     H1 5718   3.964   2.629   1.643
 1844HOH     H2 5719   3.818   2.592   1.662
 1845HOH      O 5720   2.363   3.292   2.456
 1845HOH     H1 5721   2.414   3.310   2.377
 1845HOH     H2 5722   2.425   3.302   2.528
 1846HOH      O 5723   1.572   0.615   0.683
 1846HOH     H1 5724   1.544   0.637   0.772
 1846HOH     H2 5725   1.560   0.697   0.634
 1847HOH      O 5726   3.927   1.701   2.916
 1847HOH     H1 5727   3.901   1.686   3.007
 1847HOH     H2 5728   3.961   1.617   2.886
 1848HOH      O 5729   1.666   1.527   0.579
 1848HOH     H1 5730   1.622   1.456   0.626
 1848HOH     H2 5731   1.688   1.489   0.494
 1849HOH      O 5732   1.445   0.959   0.670
 1849HOH     H1 5733   1.531   0.970   0.629
 1849HOH     H2 5734   1.404   1.045   0.665
 1850HOH      O 5735   1.682   0.410   1.291
 1850HOH     H1 5736   1.748   0.445   1.231
 1850HOH     H2 5737   1.612   0.379   1.234
 1851HOH      O 5738   1.327   1.192   0.642
 1851HOH     H1 5739   1.236   1.176   0.668
 1851HOH     H2 5740   1.320   1.253   0.569
 1852HOH      O 5741   3.737   2.915   2.099
 1852HOH     H1 5742   3.675   2.928   2.027
 1852HOH     H2 5743   3.808   2.863   2.060
 1853HOH      O 5744   3.590   0.811   3.159
 1853HOH     H1 5745   3.635   0.793   3.077
 1853HOH     H2 5746   3.509   0.854   3.132
 1854HOH      O 5747   1.489   2.428   2.471
 1854HOH     H1 5748   1.541   2.483   2.529
 1854HOH     H2 5749   1.426   2.488   2.430
 1855HOH      O 5750   1.103   2.440   4.052
 1855HOH     H1 5751   1.048   2.517   4.038
 1855HOH     H2 5752   1.078   2.379   3.982
 1856HOH      O 5753   2.087   0.544   1.750
 1856HOH     H1 5754   2.100   0.622   1.804
 1856HOH     H2 5755   2.176   0.508   1.740
 1857HOH      O 5756   1.193   2.712   2.193
 1857HOH     H1 5757   1.252   2.717   2.267
 1857HOH     H2 5758   1.139   2.791   2.199
 1858HOH      O 5759   0.157   2.752   0.176
 1858HOH     H1 5760   0.118   2.840   0.174
 1858HOH     H2 5761   0.183   2.736   0.085
 1859HOH      O 5762   0.916   2.685   1.820
 1859HOH     H1 5763   0.883   2.602   1.854
 1859HOH     H2 5764   0.883   2.687   1.729
 1860HOH      O 5765   2.788   1.260   0.403
 1860HOH     H1 5766   2.843   1.252   0.481
 1860HOH     H2 5767   2.784   1.171   0.368
 1861HOH      O 5768   0.379   0.712   3.243
 1861HOH     H1 5769   0.346   0.637   3.194
 1861HOH     H2 5770   0.375   0.685   3.335
 1862HOH      O 5771   2.023   2.869   3.788
 1862HOH     H1 5772   1.977   2.944   3.750
 1862HOH     H2 5773   2.082   2.908   3.853
 1863HOH      O 5774   3.591   2.751   0.707
 1863HOH     H1 5775   3.552   2.683   0.762
 1863HOH     H2 5776   3.516   2.793   0.666
 1864HOH      O 5777   1.257   0.277   3.412
 1864HOH     H1 5778   1.251   0.327   3.331
 1864HOH     H2 5779   1.350   0.278   3.435
 1865HOH      O 5780   3.162   2.289   3.153
 1865HOH     H1 5781   3.163   2.319   3.062
 1865HOH     H2 5782   3.084   2.234   3.159
 1866HOH      O 5783   2.267   1.108   2.806
 1866HOH     H1 5784   2.240   1.178   2.865
 1866HOH     H2 5785   2.333   1.059   2.854
 1867HOH      O 5786   1.097   1.577   1.370
 1867HOH     H1 5787   1.121   1.597   1.461
 1867HOH     H2 5788   1.011   1.535   1.377
 1868HOH      O 5789   0.277   3.819   0.156
 1868HOH     H1 5790   0.279   3.805   0.251
 1868HOH     H2 5791   0.185   3.812   0.133
 1869HOH      O 5792   0.460   3.119   1.577
 1869HOH     H1 5793   0.418   3.183   1.519
 1869HOH     H2 5794   0.404   3.116   1.654
 1870HOH      O 5795   1.680   0.005   0.681
 1870HOH     H1 5796   1.759   0.058   0.669
 1870HOH     H2 5797   1.655  -0.019   0.592
 1871HOH      O 5798   0.569   0.908   0.507
 1871HOH     H1 5799   0.490   0.864   0.474
 1871HOH     H2 5800   0.641   0.851   0.480
 1872HOH      O 5801   0.731   3.074   1.568
 1872HOH     H1 5802   0.757   3.059   1.659
 1872HOH     H2 5803   0.642   3.109   1.574
 1873HOH      O 5804   0.633   1.667   1.745
 1873HOH     H1 5805   0.616   1.747   1.796
 1873HOH     H2 5806   0.726   1.672   1.723
 1874HOH      O 5807   2.513   3.057   2.177
 1874HOH     H1 5808   2.421   3.042   2.199
 1874HOH     H2 5809   2.545   3.115   2.246
 1875HOH      O 5810   2.003   1.095   1.056
 1875HOH     H1 5811   2.072   1.041   1.018
 1875HOH     H2 5812   1.925   1.072   1.005
 1876HOH      O 5813   0.863   0.241   3.120
 1876HOH     H1 5814   0.860   0.219   3.214
 1876HOH     H2 5815   0.860   0.337   3.118
 1877HOH      O 5816   3.589   2.522   3.470
 1877HOH     H1 5817   3.634   2.469   3.536
 1877HOH     H2 5818   3.636   2.606   3.470
 1878HOH      O 5819   3.632   3.744   0.722
 1878HOH     H1 5820   3.678   3.815   0.676
 1878HOH     H2 5821   3.624   3.675   0.656
 1879HOH      O 5822   3.239   2.888   3.572
 1879HOH     H1 5823   3.161   2.891   3.517
 1879HOH     H2 5824   3.292   2.818   3.533
 1880HOH      O 5825   1.351   0.943   2.375
 1880HOH     H1 5826   1.288   0.947   2.447
 1880HOH     H2 5827   1.302   0.901   2.303
 1881HOH      O 5828   3.248   1.073   3.669
 1881HOH     H1 5829   3.302   1.009   3.623
 1881HOH     H2 5830   3.308   1.115   3.731
 1882HOH      O 5831   1.717   2.472   2.904
 1882HOH     H1 5832   1.711   2.475   2.809
 1882HOH     H2 5833   1.782   2.539   2.926
 1883HOH      O 5834   3.474   2.796   1.836
 1883HOH     H1 5835   3.510   2.871   1.883
 1883HOH     H2 5836   3.510   2.804   1.747
 1884HOH      O 5837   2.390   2.098   0.539
 1884HOH     H1 5838   2.436   2.015   0.554
 1884HOH     H2 5839   2.320   2.100   0.604
 1885HOH      O 5840   1.844   2.128   2.755
 1885HOH     H1 5841   1.758   2.166   2.736
 1885HOH     H2 5842   1.833   2.035   2.736
 1886HOH      O 5843   2.697   0.532   1.425
 1886HOH     H1 5844   2.777   0.510   1.378
 1886HOH     H2 5845   2.703   0.626   1.442
 1887HOH      O 5846   1.239   2.024   3.269
 1887HOH     H1 5847   1.331   2.005   3.289
 1887HOH     H2 5848   1.239   2.117   3.247
 1888HOH      O 5849   1.982   3.849   1.602
 1888HOH     H1 5850   2.066   3.843   1.557
 1888HOH     H2 5851   1.920   3.801   1.547
 1889HOH      O 5852   0.527   1.140   1.217
 1889HOH     H1 5853   0.510   1.165   1.308
 1889HOH     H2 5854   0.445   1.099   1.188
 1890HOH      O 5855   1.704   0.865   2.655
 1890HOH     H1 5856   1.692   0.921   2.578
 1890HOH     H2 5857   1.699   0.776   2.621
 1891HOH      O 5858   0.804   0.537   3.065
 1891HOH     H1 5859   0.776   0.586   3.143
 1891HOH     H2 5860   0.898   0.552   3.059
 1892HOH      O 5861   2.052   0.061   2.094
 1892HOH     H1 5862   1.970   0.102   2.064
 1892HOH     H2 5863   2.049  -0.027   2.056
 1893HOH      O 5864   1.907   1.754   2.048
 1893HOH     H1 5865   1.938   1.839   2.080
 1893HOH     H2 5866   1.841   1.776   1.983
 1894HOH      O 5867   2.990   0.557   4.027
 1894HOH     H1 5868   2.938   0.561   3.947
 1894HOH     H2 5869   3.080   0.574   3.999
 1895HOH      O 5870   3.403   3.824   0.539
 1895HOH     H1 5871   3.326   3.880   0.548
 1895HOH     H2 5872   3.477   3.884   0.540
 1896HOH      O 5873   1.922   1.320   2.195
 1896HOH     H1 5874   1.956   1.234   2.221
 1896HOH     H2 5875   1.858   1.341   2.262
 1897HOH      O 5876   1.551   2.790   3.042
 1897HOH     H1 5877   1.493   2.790   2.966
 1897HOH     H2 5878   1.601   2.709   3.034
 1898HOH      O 5879   2.821   2.187   0.343
 1898HOH     H1 5880   2.861   2.251   0.285
 1898HOH     H2 5881   2.733   2.173   0.307
 1899HOH      O 5882   0.789   1.389   1.950
 1899HOH     H1 5883   0.781   1.478   1.984
 1899HOH     H2 5884   0.704   1.372   1.909
 1900HOH      O 5885   1.878   2.683   3.600
 1900HOH     H1 5886   1.912   2.598   3.628
 1900HOH     H2 5887   1.943   2.746   3.632
 1901HOH      O 5888   2.467   1.766   2.252
 1901HOH     H1 5889   2.408   1.831   2.214
 1901HOH     H2 5890   2.429   1.682   2.228
 1902HOH      O 5891   3.625   1.237   2.328
 1902HOH     H1 5892   3.668   1.284   2.399
 1902HOH     H2 5893   3.696   1.186   2.287
 1903HOH      O 5894   1.174   2.874   0.087
 1903HOH     H1 5895   1.160   2.916   0.172
 1903HOH     H2 5896   1.182   2.781   0.106
 1904HOH      O 5897   2.172   3.097   3.894
 1904HOH     H1 5898   2.239   3.105   3.826
 1904HOH     H2 5899   2.120   3.177   3.886
 1905HOH      O 5900   1.418   3.072   0.456
 1905HOH     H1 5901   1.402   3.052   0.363
 1905HOH     H2 5902   1.463   3.156   0.455
 1906HOH      O 5903   3.534   3.929   0.234
 1906HOH     H1 5904   3.564   3.958   0.320
 1906HOH     H2 5905   3.551   4.003   0.176
 1907HOH      O 5906   1.780   3.559   1.233
 1907HOH     H1 5907   1.802   3.606   1.153
 1907HOH     H2 5908   1.685   3.549   1.229
 1908HOH      O 5909   1.499   3.450   3.962
 1908HOH     H1 5910   1.420   3.418   3.918
 1908HOH     H2 5911   1.525   3.527   3.911
 1909HOH      O 5912   1.898   1.795   0.138
 1909HOH     H1 5913   1.841   1.836   0.072
 1909HOH     H2 5914   1.956   1.866   0.167
 1910HOH      O 5915   3.114   1.736   2.829
 1910HOH     H1 5916   3.209   1.729   2.835
 1910HOH     H2 5917   3.095   1.829   2.842
 1911HOH      O 5918   0.169   0.555   2.337
 1911HOH     H1 5919   0.164   0.631   2.279
 1911HOH     H2 5920   0.257   0.520   2.323
 1912HOH      O 5921   0.317   2.223   0.696
 1912HOH     H1 5922   0.408   2.237   0.671
 1912HOH     H2 5923   0.299   2.132   0.670
 1913HOH      O 5924   3.335   1.242   2.346
 1913HOH     H1 5925   3.313   1.190   2.422
 1913HOH     H2 5926   3.428   1.223   2.330
 1914HOH      O 5927   3.711   2.941   2.624
 1914HOH     H1 5928   3.643   2.981   2.678
 1914HOH     H2 5929   3.791   2.951   2.675
 1915HOH      O 5930   0.856   2.812   1.578
 1915HOH     H1 5931   0.896   2.798   1.492
 1915HOH     H2 5932   0.800   2.889   1.565
 1916HOH      O 5933   3.282  -0.006   2.914
 1916HOH     H1 5934   3.263   0.077   2.871
 1916HOH     H2 5935   3.270   0.011   3.007
 1917HOH      O 5936   0.223   0.905   2.648
 1917HOH     H1 5937   0.262   0.865   2.570
 1917HOH     H2 5938   0.190   0.831   2.699
 1918HOH      O 5939   3.996   2.227   0.995
 1918HOH     H1 5940   4.006   2.155   0.933
 1918HOH     H2 5941   3.973   2.302   0.941
 1919HOH      O 5942   1.133   1.822   1.160
 1919HOH     H1 5943   1.078   1.757   1.203
 1919HOH     H2 5944   1.158   1.782   1.077
 1920HOH      O 5945   2.780   3.467   3.730
 1920HOH     H1 5946   2.850   3.476   3.664
 1920HOH     H2 5947   2.804   3.531   3.798
 1921HOH      O 5948   1.634   2.472   3.310
 1921HOH     H1 5949   1.651   2.423   3.391
 1921HOH     H2 5950   1.674   2.558   3.325
 1922HOH      O 5951   3.165   2.023   1.283
 1922HOH     H1 5952   3.130   1.952   1.230
 1922HOH     H2 5953   3.195   1.980   1.363
 1923HOH      O 5954   3.661   0.239   1.897
 1923HOH     H1 5955   3.601   0.311   1.883
 1923HOH     H2 5956   3.724   0.272   1.961
 1924HOH      O 5957   0.853   0.818   0.231
 1924HOH     H1 5958   0.942   0.802   0.262
 1924HOH     H2 5959   0.803   0.741   0.259
 1925HOH      O 5960   0.947   1.787   0.298
 1925HOH     H1 5961   0.939   1.781   0.203
 1925HOH     H2 5962   0.867   1.832   0.326
 1926HOH      O 5963   2.086   0.427   2.177
 1926HOH     H1 5964   2.140   0.362   2.132
 1926HOH     H2 5965   2.091   0.402   2.269
 1927HOH      O 5966   3.011   3.860   0.361
 1927HOH     H1 5967   2.931   3.894   0.321
 1927HOH     H2 5968   3.024   3.774   0.322
 1928HOH      O 5969   1.244   3.870   0.066
 1928HOH     H1 5970   1.222   3.956   0.101
 1928HOH     H2 5971   1.177   3.812   0.103
 1929HOH      O 5972   3.116   0.746   1.846
 1929HOH     H1 5973   3.146   0.820   1.898
 1929HOH     H2 5974   3.142   0.768   1.756
 1930HOH      O 5975   2.107   2.299   1.617
 1930HOH     H1 5976   2.132   2.299   1.709
 1930HOH     H2 5977   2.164   2.363   1.576
 1931HOH      O 5978   3.840   3.638   2.911
 1931HOH     H1 5979   3.853   3.620   3.004
 1931HOH     H2 5980   3.790   3.564   2.879
 1932HOH      O 5981   3.211   3.059   1.094
 1932HOH     H1 5982   3.242   3.146   1.117
 1932HOH     H2 5983   3.116   3.068   1.086
 1933HOH      O 5984   1.683   2.066   3.818
 1933HOH     H1 5985   1.600   2.055   3.770
 1933HOH     H2 5986   1.677   2.154   3.856
 1934HOH      O 5987   2.988   2.409   0.002
 1934HOH     H1 5988   2.995   2.380   0.093
 1934HOH     H2 5989   2.991   2.328  -0.049
 1935HOH      O 5990   0.611   0.241   2.563
 1935HOH     H1 5991   0.558   0.304   2.612
 1935HOH     H2 5992   0.688   0.290   2.536
 1936HOH      O 5993   0.252   3.550   0.399
 1936HOH     H1 5994   0.270   3.597   0.480
 1936HOH     H2 5995   0.167   3.585   0.369
 1937HOH      O 5996   1.376   1.360   1.721
 1937HOH     H1 5997   1.288   1.337   1.691
 1937HOH     H2 5998   1.431   1.287   1.692
 1938HOH      O 5999   3.637   2.177   2.851
 1938HOH     H1 6000   3.613   2.270   2.847
 1938HOH     H2 6001   3.555   2.131   2.864
 1939HOH      O 6002   1.298   2.413   1.453
 1939HOH     H1 6003   1.214   2.389   1.413
 1939HOH     H2 6004   1.275   2.440   1.542
 1940HOH      O 6005   0.446   2.700   0.087
 1940HOH     H1 6006   0.505   2.689   0.161
 1940HOH     H2 6007   0.374   2.753   0.122
 1941HOH      O 6008   2.958   1.510   2.888
 1941HOH     H1 6009   3.011   1.577   2.845
 1941HOH     H2 6010   2.891   1.486   2.823
 1942HOH      O 6011   0.039   0.267   2.820
 1942HOH     H1 6012  -0.032   0.258   2.756
 1942HOH     H2 6013   0.097   0.333   2.782
 1943HOH      O 6014   2.165   1.101   1.350
 1943HOH     H1 6015   2.126   1.134   1.431
 1943HOH     H2 6016   2.147   1.169   1.285
 1944HOH      O 6017   0.196   3.627   0.669
 1944HOH     H1 6018   0.243   3.609   0.750
 1944HOH     H2 6019   0.110   3.659   0.697
 1945HOH      O 6020   1.954   2.584   2.681
 1945HOH     H1 6021   2.040   2.622   2.699
 1945HOH     H2 6022   1.897   2.619   2.749
 1946HOH      O 6023   1.931   0.679   0.113
 1946HOH     H1 6024   1.985   0.648   0.040
 1946HOH     H2 6025   1.995   0.715   0.175
 1947HOH      O 6026   2.420   0.001   3.051
 1947HOH     H1 6027   2.340   0.052   3.066
 1947HOH     H2 6028   2.461   0.042   2.975
 1948HOH      O 6029   2.508   1.777   0.992
 1948HOH     H1 6030   2.433   1.719   1.004
 1948HOH     H2 6031   2.535   1.762   0.901
 1949HOH      O 6032   1.208   3.925   2.537
 1949HOH     H1 6033   1.220   3.955   2.627
 1949HOH     H2 6034   1.168   4.000   2.492
 1950HOH      O 6035   1.607   0.126   0.913
 1950HOH     H1 6036   1.529   0.077   0.941
 1950HOH     H2 6037   1.623   0.095   0.824
 1951HOH      O 6038   0.282   3.095   1.952
 1951HOH     H1 6039   0.295   3.164   2.018
 1951HOH     H2 6040   0.291   3.140   1.868
 1952HOH      O 6041   2.922   3.617   1.400
 1952HOH     H1 6042   2.895   3.641   1.312
 1952HOH     H2 6043   3.005   3.662   1.414
 1953HOH      O 6044   3.335   2.464   2.702
 1953HOH     H1 6045   3.410   2.469   2.760
 1953HOH     H2 6046   3.362   2.405   2.632
 1954HOH      O 6047   3.875   2.656   3.653
 1954HOH     H1 6048   3.913   2.656   3.741
 1954HOH     H2 6049   3.939   2.703   3.600
 1955HOH      O 6050   0.762   1.055   2.369
 1955HOH     H1 6051   0.713   0.985   2.412
 1955HOH     H2 6052   0.726   1.060   2.280
 1956HOH      O 6053   1.393   2.077   2.240
 1956HOH     H1 6054   1.369   1.991   2.274
 1956HOH     H2 6055   1.367   2.075   2.148
 1957HOH      O 6056   1.880   1.315   0.748
 1957HOH     H1 6057   1.827   1.384   0.790
 1957HOH     H2 6058   1.886   1.343   0.656
 1958HOH      O 6059   0.657   3.615   0.359
 1958HOH     H1 6060   0.734   3.635   0.305
 1958HOH     H2 6061   0.583   3.621   0.299
 1959HOH      O 6062   3.142   2.602   1.769
 1959HOH     H1 6063   3.085   2.575   1.697
 1959HOH     H2 6064   3.158   2.522   1.819
 1960HOH      O 6065   3.449   0.392   2.543
 1960HOH     H1 6066   3.395   0.465   2.513
 1960HOH     H2 6067   3.457   0.406   2.637
 1961HOH      O 6068   0.314   3.998   3.919
 1961HOH     H1 6069   0.243   4.054   3.950
 1961HOH     H2 6070   0.315   3.925   3.982
 1962HOH      O 6071   3.572   0.675   1.928
 1962HOH     H1 6072   3.645   0.679   1.866
 1962HOH     H2 6073   3.585   0.750   1.986
 1963HOH      O 6074   2.974   2.520   3.301
 1963HOH     H1 6075   3.048   2.471   3.337
 1963HOH     H2 6076   2.900   2.498   3.359
 1964HOH      O 6077   2.732   2.463   2.357
 1964HOH     H1 6078   2.757   2.372   2.338
 1964HOH     H2 6079   2.651   2.455   2.408
 1965HOH      O 6080   2.781   0.166   2.324
 1965HOH     H1 6081   2.786   0.256   2.291
 1965HOH     H2 6082   2.866   0.151   2.365
 1966HOH      O 6083   3.251   3.887   3.817
 1966HOH     H1 6084   3.309   3.958   3.789
 1966HOH     H2 6085   3.310   3.814   3.836
 1967HOH      O 6086   0.531   1.325   1.665
 1967HOH     H1 6087   0.515   1.232   1.679
 1967HOH     H2 6088   0.601   1.328   1.600
 1968HOH      O 6089   3.951   1.891   2.235
 1968HOH     H1 6090   3.999   1.831   2.292
 1968HOH     H2 6091   4.010   1.966   2.225
 1969HOH      O 6092   1.027   3.257   1.181
 1969HOH     H1 6093   0.945   3.236   1.225
 1969HOH     H2 6094   1.001   3.301   1.100
 1970HOH      O 6095   0.567   0.733   1.894
 1970HOH     H1 6096   0.542   0.707   1.805
 1970HOH     H2 6097   0.491   0.781   1.927
 1971HOH      O 6098   1.235   2.636   1.855
 1971HOH     H1 6099   1.203   2.590   1.778
 1971HOH     H2 6100   1.176   2.611   1.925
 1972HOH      O 6101   1.155   0.955   2.849
 1972HOH     H1 6102   1.116   0.992   2.928
 1972HOH     H2 6103   1.220   0.893   2.881
 1973HOH      O 6104   3.036   1.395   1.036
 1973HOH     H1 6105   3.067   1.402   1.126
 1973HOH     H2 6106   2.941   1.407   1.042
 1974HOH      O 6107   1.383   3.420   0.848
 1974HOH     H1 6108   1.461   3.475   0.855
 1974HOH     H2 6109   1.333   3.460   0.776
 1975HOH      O 6110   3.616   0.139   3.481
 1975HOH     H1 6111   3.707   0.110   3.490
 1975HOH     H2 6112   3.595   0.124   3.389
 1976HOH      O 6113   1.658   2.574   0.538
 1976HOH     H1 6114   1.640   2.652   0.591
 1976HOH     H2 6115   1.683   2.609   0.453
 1977HOH      O 6116   1.156   0.919   2.569
 1977HOH     H1 6117   1.197   0.934   2.654
 1977HOH     H2 6118   1.065   0.946   2.581
 1978HOH      O 6119   1.821   2.992   3.073
 1978HOH     H1 6120   1.884   3.018   3.139
 1978HOH     H2 6121   1.784   2.910   3.106
 1979HOH      O 6122   0.458   0.502   2.524
 1979HOH     H1 6123   0.399   0.577   2.515
 1979HOH     H2 6124   0.511   0.523   2.602
 1980HOH      O 6125   1.444   2.551   2.017
 1980HOH     H1 6126   1.503   2.605   2.070
 1980HOH     H2 6127   1.381   2.614   1.981
 1981HOH      O 6128   1.560   1.297   1.066
 1981HOH     H1 6129   1.564   1.392   1.076
 1981HOH     H2 6130   1.512   1.283   0.984
 1982HOH      O 6131   1.991   3.413   3.632
 1982HOH     H1 6132   2.027   3.370   3.710
 1982HOH     H2 6133   1.927   3.475   3.667
 1983HOH      O 6134   2.419   3.623   2.143
 1983HOH     H1 6135   2.416   3.642   2.049
 1983HOH     H2 6136   2.341   3.569   2.159
 1984HOH      O 6137   2.861   2.025   1.239
 1984HOH     H1 6138   2.851   2.118   1.258
 1984HOH     H2 6139   2.923   2.023   1.166
 1985HOH      O 6140   0.581   1.789   2.456
 1985HOH     H1 6141   0.559   1.877   2.424
 1985HOH     H2 6142   0.548   1.730   2.388
 1986HOH      O 6143   3.368   3.637   3.456
 1986HOH     H1 6144   3.343   3.671   3.542
 1986HOH     H2 6145   3.431   3.567   3.475
 1987HOH      O 6146   3.949   1.362   3.726
 1987HOH     H1 6147   3.961   1.284   3.672
 1987HOH     H2 6148   3.855   1.379   3.724
 1988HOH      O 6149   1.321   3.259   1.041
 1988HOH     H1 6150   1.337   3.324   0.972
 1988HOH     H2 6151   1.373   3.183   1.014
 1989HOH      O 6152   2.023   3.888   0.901
 1989HOH     H1 6153   2.032   3.984   0.902
 1989HOH     H2 6154   2.024   3.865   0.808
 1990HOH      O 6155   0.303   3.085   0.259
 1990HOH     H1 6156   0.249   3.021   0.305
 1990HOH     H2 6157   0.307   3.053   0.169
 1991HOH      O 6158   4.026   3.835   0.957
 1991HOH     H1 6159   3.986   3.818   1.042
 1991HOH     H2 6160   4.014   3.929   0.943
 1992HOH      O 6161   3.678   0.568   2.272
 1992HOH     H1 6162   3.625   0.568   2.192
 1992HOH     H2 6163   3.657   0.486   2.316
 1993HOH      O 6164   0.859   2.050   0.456
 1993HOH     H1 6165   0.928   2.035   0.520
 1993HOH     H2 6166   0.901   2.101   0.386
 1994HOH      O 6167   1.518   0.536   3.941
 1994HOH     H1 6168   1.495   0.619   3.981
 1994HOH     H2 6169   1.514   0.473   4.012
 1995HOH      O 6170   1.164   0.480   0.573
 1995HOH     H1 6171   1.192   0.500   0.662
 1995HOH     H2 6172   1.186   0.388   0.562
 1996HOH      O 6173   0.964   2.033   3.299
 1996HOH     H1 6174   0.937   1.985   3.378
 1996HOH     H2 6175   1.059   2.026   3.299
 1997HOH      O 6176   4.006   2.908   2.658
 1997HOH     H1 6177   3.971   2.842   2.598
 1997HOH     H2 6178   4.078   2.948   2.609
 1998HOH      O 6179   0.840   0.852   3.761
 1998HOH     H1 6180   0.896   0.894   3.695
 1998HOH     H2 6181   0.883   0.769   3.780
 1999HOH      O 6182   0.641   1.868   0.345
 1999HOH     H1 6183   0.549   1.887   0.325
 1999HOH     H2 6184   0.684   1.953   0.347
 2000HOH      O 6185   0.225   2.613   3.269
 2000HOH     H1 6186   0.306   2.611   3.218
 2000HOH     H2 6187   0.155   2.606   3.204
 2001HOH      O 6188   3.573   2.707   3.080
 2001HOH     H1 6189   3.638   2.776   3.062
 2001HOH     H2 6190   3.510   2.716   3.008
 2002HOH      O 6191   3.804   2.178   1.453
 2002HOH     H1 6192   3.833   2.218   1.535
 2002HOH     H2 6193   3.727   2.127   1.476
 2003HOH      O 6194   3.771   1.610   0.956
 2003HOH     H1 6195   3.686   1.647   0.931
 2003HOH     H2 6196   3.813   1.678   1.009
 2004HOH      O 6197   3.485   2.693   1.118
 2004HOH     H1 6198   3.414   2.707   1.180
 2004HOH     H2 6199   3.467   2.755   1.047
 2005HOH      O 6200   1.939   0.158   0.049
 2005HOH     H1 6201   1.923   0.220  -0.023
 2005HOH     H2 6202   2.024   0.121   0.029
 2006HOH      O 6203   3.459   1.899   1.062
 2006HOH     H1 6204   3.503   1.838   1.003
 2006HOH     H2 6205   3.370   1.865   1.071
 2007HOH      O 6206   0.678   3.542   1.183
 2007HOH     H1 6207   0.599   3.517   1.136
 2007HOH     H2 6208   0.697   3.468   1.241
 2008HOH      O 6209   1.792   3.559   2.737
 2008HOH     H1 6210   1.847   3.604   2.672
 2008HOH     H2 6211   1.707   3.603   2.732
 2009HOH      O 6212   0.790   0.874   0.714
 2009HOH     H1 6213   0.735   0.949   0.693
 2009HOH     H2 6214   0.776   0.812   0.643
 2010HOH      O 6215   1.098   1.571   0.246
 2010HOH     H1 6216   1.103   1.574   0.151
 2010HOH     H2 6217   1.035   1.640   0.269
 2011HOH      O 6218   1.659   0.243   2.765
 2011HOH     H1 6219   1.622   0.331   2.773
 2011HOH     H2 6220   1.726   0.239   2.833
 2012HOH      O 6221   3.306   2.887   0.328
 2012HOH     H1 6222   3.378   2.867   0.268
 2012HOH     H2 6223   3.242   2.932   0.273
 2013HOH      O 6224   2.452   2.448   1.426
 2013HOH     H1 6225   2.532   2.500   1.416
 2013HOH     H2 6226   2.477   2.376   1.484
 2014HOH      O 6227   0.604   3.553   1.545
 2014HOH     H1 6228   0.604   3.636   1.498
 2014HOH     H2 6229   0.641   3.490   1.483
 2015HOH      O 6230   2.430   2.091   0.040
 2015HOH     H1 6231   2.472   2.089   0.126
 2015HOH     H2 6232   2.454   2.008  -0.000
 2016HOH      O 6233   3.841   3.908   0.604
 2016HOH     H1 6234   3.900   3.889   0.531
 2016HOH     H2 6235   3.857   3.837   0.666
 2017HOH      O 6236   0.930   1.952   1.621
 2017HOH     H1 6237   0.866   1.951   1.692
 2017HOH     H2 6238   0.907   1.876   1.566
 2018HOH      O 6239   3.990   3.769   2.723
 2018HOH     H1 6240   3.944   3.755   2.805
 2018HOH     H2 6241   3.964   3.695   2.667
 2019HOH      O 6242   3.059   2.018   2.854
 2019HOH     H1 6243   3.086   1.994   2.943
 2019HOH     H2 6244   2.979   2.070   2.867
 2020HOH      O 6245   3.728   1.546   1.612
 2020HOH     H1 6246   3.653   1.563   1.556
 2020HOH     H2 6247   3.771   1.631   1.622
 2021HOH      O 6248   0.628   1.958   3.080
 2021HOH     H1 6249   0.632   2.051   3.059
 2021HOH     H2 6250   0.545   1.929   3.043
 2022HOH      O 6251   3.322   3.326   3.354
 2022HOH     H1 6252   3.289   3.243   3.318
 2022HOH     H2 6253   3.273   3.339   3.435
 2023HOH      O 6254   0.045   2.750   3.116
 2023HOH     H1 6255   0.017   2.722   3.029
 2023HOH     H2 6256  -0.036   2.771   3.162
 2024HOH      O 6257   3.711   3.620   0.467
 2024HOH     H1 6258   3.667   3.536   0.476
 2024HOH     H2 6259   3.713   3.636   0.372
 2025HOH      O 6260   3.315   1.806   4.026
 2025HOH     H1 6261   3.370   1.827   3.952
 2025HOH     H2 6262   3.374   1.803   4.101
 2026HOH      O 6263   0.954   2.652   3.978
 2026HOH     H1 6264   0.921   2.692   3.898
 2026HOH     H2 6265   0.952   2.722   4.043
 2027HOH      O 6266   0.083   3.880   2.457
 2027HOH     H1 6267   0.001   3.832   2.452
 2027HOH     H2 6268   0.061   3.969   2.431
 2028HOH      O 6269   2.394   2.312   1.746
 2028HOH     H1 6270   2.451   2.355   1.810
 2028HOH     H2 6271   2.422   2.221   1.746
 2029HOH      O 6272   0.064   3.901   3.280
 2029HOH     H1 6273   0.093   3.853   3.358
 2029HOH     H2 6274   0.115   3.982   3.282
 2030HOH      O 6275   2.925   3.357   0.498
 2030HOH     H1 6276   2.914   3.415   0.573
 2030HOH     H2 6277   2.840   3.355   0.455
 2031HOH      O 6278   2.963   0.953   0.589
 2031HOH     H1 6279   2.932   0.879   0.537
 2031HOH     H2 6280   2.916   0.944   0.672
 2032HOH      O 6281   1.738   1.918   1.484
 2032HOH     H1 6282   1.758   2.003   1.522
 2032HOH     H2 6283   1.735   1.933   1.390
 2033HOH      O 6284   2.441   0.362   2.283
 2033HOH     H1 6285   2.377   0.315   2.231
 2033HOH     H2 6286   2.522   0.358   2.232
 2034HOH      O 6287   3.333   2.528   3.159
 2034HOH     H1 6288   3.283   2.447   3.177
 2034HOH     H2 6289   3.393   2.535   3.233
 2035HOH      O 6290   2.847   0.206   0.269
 2035HOH     H1 6291   2.814   0.117   0.258
 2035HOH     H2 6292   2.788   0.260   0.216
 2036HOH      O 6293   1.138   0.441   3.613
 2036HOH     H1 6294   1.122   0.385   3.689
 2036HOH     H2 6295   1.173   0.382   3.546
 2037HOH      O 6296   0.091   0.393   1.166
 2037HOH     H1 6297   0.141   0.471   1.190
 2037HOH     H2 6298   0.141   0.320   1.202
 2038HOH      O 6299   1.870   2.931   1.990
 2038HOH     H1 6300   1.834   2.887   1.913
 2038HOH     H2 6301   1.877   2.862   2.056
 2039HOH      O 6302   2.377   1.386   3.726
 2039HOH     H1 6303   2.281   1.385   3.723
 2039HOH     H2 6304   2.403   1.352   3.640
 2040HOH      O 6305   3.240   1.703   1.309
 2040HOH     H1 6306   3.184   1.686   1.234
 2040HOH     H2 6307   3.262   1.616   1.343
 2041HOH      O 6308   0.437   0.771   0.281
 2041HOH     H1 6309   0.500   0.704   0.310
 2041HOH     H2 6310   0.447   0.773   0.186
 2042HOH      O 6311   2.797   3.074   3.200
 2042HOH     H1 6312   2.769   2.993   3.242
 2042HOH     H2 6313   2.791   3.056   3.106
 2043HOH      O 6314   0.057   3.912   3.766
 2043HOH     H1 6315  -0.029   3.870   3.757
 2043HOH     H2 6316   0.047   3.995   3.719
 2044HOH      O 6317   1.800   2.144   1.646
 2044HOH     H1 6318   1.716   2.170   1.685
 2044HOH     H2 6319   1.852   2.224   1.645
 2045HOH      O 6320   0.755   3.695   2.522
 2045HOH     H1 6321   0.761   3.757   2.449
 2045HOH     H2 6322   0.672   3.717   2.565
 2046HOH      O 6323   1.779   1.045   2.138
 2046HOH     H1 6324   1.740   0.959   2.124
 2046HOH     H2 6325   1.861   1.027   2.183
 2047HOH      O 6326   0.826   0.415   3.636
 2047HOH     H1 6327   0.884   0.369   3.698
 2047HOH     H2 6328   0.877   0.490   3.607
 2048HOH      O 6329   3.219   2.545   2.450
 2048HOH     H1 6330   3.256   2.524   2.536
 2048HOH     H2 6331   3.126   2.559   2.466
 2049HOH      O 6332   1.363   2.489   1.069
 2049HOH     H1 6333   1.422   2.560   1.091
 2049HOH     H2 6334   1.344   2.500   0.976
 2050HOH      O 6335   0.032   3.394   0.589
 2050HOH     H1 6336   0.003   3.469   0.538
 2050HOH     H2 6337   0.099   3.429   0.648
 2051HOH      O 6338   2.770   1.454   3.977
 2051HOH     H1 6339   2.796   1.488   4.062
 2051HOH     H2 6340   2.675   1.466   3.975
 2052HOH      O 6341   1.754   3.242   0.428
 2052HOH     H1 6342   1.776   3.321   0.377
 2052HOH     H2 6343   1.774   3.169   0.369
 2053HOH      O 6344   1.702   2.503   1.220
 2053HOH     H1 6345   1.722   2.422   1.266
 2053HOH     H2 6346   1.608   2.516   1.233
 2054HOH      O 6347   0.080   2.858   0.964
 2054HOH     H1 6348   0.137   2.930   0.993
 2054HOH     H2 6349   0.140   2.784   0.953
 2055HOH      O 6350   2.674   2.382   1.101
 2055HOH     H1 6351   2.592   2.424   1.129
 2055HOH     H2 6352   2.723   2.369   1.182
 2056HOH      O 6353   2.596   1.688   1.910
 2056HOH     H1 6354   2.654   1.663   1.838
 2056HOH     H2 6355   2.577   1.606   1.955
 2057HOH      O 6356   4.031   3.512   2.616
 2057HOH     H1 6357   4.030   3.495   2.522
 2057HOH     H2 6358   3.966   3.452   2.652
 2058HOH      O 6359   3.234   3.682   1.177
 2058HOH     H1 6360   3.176   3.622   1.130
 2058HOH     H2 6361   3.308   3.695   1.118
 2059HOH      O 6362   0.585   3.960   2.472
 2059HOH     H1 6363   0.583   4.052   2.500
 2059HOH     H2 6364   0.643   3.959   2.396
 2060HOH      O 6365   2.852   1.841   0.036
 2060HOH     H1 6366   2.795   1.830   0.113
 2060HOH     H2 6367   2.937   1.866   0.073
 2061HOH      O 6368   3.721   2.350   1.014
 2061HOH     H1 6369   3.638   2.320   0.977
 2061HOH     H2 6370   3.768   2.269   1.038
 2062HOH      O 6371   1.397   3.704   0.937
 2062HOH     H1 6372   1.331   3.721   0.871
 2062HOH     H2 6373   1.478   3.740   0.900
 2063HOH      O 6374   2.732   1.186   2.686
 2063HOH     H1 6375   2.700   1.133   2.613
 2063HOH     H2 6376   2.813   1.226   2.652
 2064HOH      O 6377   1.790   2.312   2.096
 2064HOH     H1 6378   1.747   2.315   2.181
 2064HOH     H2 6379   1.882   2.332   2.115
 2065HOH      O 6380   1.616   3.582   1.532
 2065HOH     H1 6381   1.617   3.676   1.548
 2065HOH     H2 6382   1.647   3.573   1.442
 2066HOH      O 6383   1.054   2.021   2.258
 2066HOH     H1 6384   1.141   1.984   2.241
 2066HOH     H2 6385   1.005   1.949   2.299
 2067HOH      O 6386   3.469   3.441   0.069
 2067HOH     H1 6387   3.551   3.479   0.038
 2067HOH     H2 6388   3.419   3.424  -0.011
 2068HOH      O 6389   3.876   0.046   3.499
 2068HOH     H1 6390   3.915   0.079   3.418
 2068HOH     H2 6391   3.942   0.064   3.566
 2069HOH      O 6392   1.702   1.873   0.967
 2069HOH     H1 6393   1.637   1.803   0.955
 2069HOH     H2 6394   1.762   1.862   0.894
 2070HOH      O 6395   0.913   2.668   2.573
 2070HOH     H1 6396   0.920   2.719   2.493
 2070HOH     H2 6397   0.947   2.726   2.641
 2071HOH      O 6398   1.669   0.351   2.172
 2071HOH     H1 6399   1.590   0.361   2.118
 2071HOH     H2 6400   1.659   0.266   2.215
 2072HOH      O 6401   3.335   2.582   3.481
 2072HOH     H1 6402   3.422   2.544   3.468
 2072HOH     H2 6403   3.274   2.515   3.452
 2073HOH      O 6404   1.055   3.363   3.637
 2073HOH     H1 6405   0.965   3.374   3.667
 2073HOH     H2 6406   1.051   3.289   3.576
 2074HOH      O 6407   3.579   1.668   1.224
 2074HOH     H1 6408   3.562   1.749   1.175
 2074HOH     H2 6409   3.671   1.674   1.248
 2075HOH      O 6410   2.412   0.124   0.122
 2075HOH     H1 6411   2.502   0.139   0.091
 2075HOH     H2 6412   2.411   0.032   0.149
 2076HOH      O 6413   3.165   0.645   0.783
 2076HOH     H1 6414   3.227   0.584   0.823
 2076HOH     H2 6415   3.088   0.592   0.763
 2077HOH      O 6416   1.386   2.980   1.952
 2077HOH     H1 6417   1.418   3.069   1.935
 2077HOH     H2 6418   1.324   2.990   2.025
 2078HOH      O 6419   0.448   1.329   3.731
 2078HOH     H1 6420   0.405   1.279   3.800
 2078HOH     H2 6421   0.469   1.413   3.771
 2079HOH      O 6422   1.011   1.515   2.168
 2079HOH     H1 6423   1.107   1.519   2.169
 2079HOH     H2 6424   0.989   1.432   2.210
 2080HOH      O 6425   1.217   0.691   0.738
 2080HOH     H1 6426   1.303   0.733   0.744
 2080HOH     H2 6427   1.155   0.763   0.727
 2081HOH      O 6428   1.362   3.027   2.909
 2081HOH     H1 6429   1.280   3.073   2.895
 2081HOH     H2 6430   1.368   2.965   2.836
 2082HOH      O 6431   0.647   0.510   2.076
 2082HOH     H1 6432   0.638   0.587   2.021
 2082HOH     H2 6433   0.612   0.438   2.024
 2083HOH      O 6434   2.573   2.197   1.520
 2083HOH     H1 6435   2.537   2.138   1.585
 2083HOH     H2 6436   2.667   2.178   1.517
 2084HOH      O 6437   0.475   1.770   2.877
 2084HOH     H1 6438   0.479   1.681   2.912
 2084HOH     H2 6439   0.386   1.799   2.893
 2085HOH      O 6440   3.499   0.706   2.792
 2085HOH     H1 6441   3.565   0.774   2.804
 2085HOH     H2 6442   3.480   0.708   2.698
 2086HOH      O 6443   0.473   1.315   0.184
 2086HOH     H1 6444   0.466   1.259   0.261
 2086HOH     H2 6445   0.558   1.358   0.193
 2087HOH      O 6446   2.518   3.886   2.118
 2087HOH     H1 6447   2.476   3.800   2.126
 2087HOH     H2 6448   2.577   3.891   2.193
 2088HOH      O 6449   3.072   1.963   0.144
 2088HOH     H1 6450   3.167   1.963   0.154
 2088HOH     H2 6451   3.039   2.001   0.226
 2089HOH      O 6452   0.885   2.843   2.064
 2089HOH     H1 6453   0.822   2.911   2.042
 2089HOH     H2 6454   0.882   2.782   1.990
 2090HOH      O 6455   2.417   2.475   3.006
 2090HOH     H1 6456   2.358   2.401   2.995
 2090HOH     H2 6457   2.447   2.495   2.917
 2091HOH      O 6458   1.552   1.668   0.907
 2091HOH     H1 6459   1.458   1.659   0.890
 2091HOH     H2 6460   1.565   1.631   0.994
 2092HOH      O 6461   2.933   2.384   3.015
 2092HOH     H1 6462   2.945   2.410   3.107
 2092HOH     H2 6463   2.995   2.439   2.967
 2093HOH      O 6464   0.037   3.483   2.345
 2093HOH     H1 6465  -0.046   3.522   2.315
 2093HOH     H2 6466   0.102   3.552   2.330
 2094HOH      O 6467   1.798   0.530   1.038
 2094HOH     H1 6468   1.828   0.497   0.953
 2094HOH     H2 6469   1.703   0.537   1.028
 2095HOH      O 6470   1.693   3.497   2.060
 2095HOH     H1 6471   1.658   3.409   2.076
 2095HOH     H2 6472   1.631   3.556   2.101
 2096HOH      O 6473   0.274   3.408   3.478
 2096HOH     H1 6474   0.183   3.439   3.477
 2096HOH     H2 6475   0.307   3.428   3.391
 2097HOH      O 6476   3.643   2.659   2.173
 2097HOH     H1 6477   3.590   2.647   2.094
 2097HOH     H2 6478   3.652   2.754   2.181
 2098HOH      O 6479   3.377   0.701   3.372
 2098HOH     H1 6480   3.449   0.687   3.311
 2098HOH     H2 6481   3.366   0.617   3.416
 2099HOH      O 6482   2.669   2.717   3.661
 2099HOH     H1 6483   2.724   2.670   3.724
 2099HOH     H2 6484   2.583   2.719   3.703
 2100HOH      O 6485   3.229   2.973   1.487
 2100HOH     H1 6486   3.188   2.978   1.574
 2100HOH     H2 6487   3.257   3.063   1.469
 2101HOH      O 6488   0.075   2.308   2.554
 2101HOH     H1 6489   0.074   2.380   2.617
 2101HOH     H2 6490  -0.014   2.272   2.557
 2102HOH      O 6491   3.757   1.659   0.261
 2102HOH     H1 6492   3.707   1.733   0.292
 2102HOH     H2 6493   3.739   1.589   0.324
 2103HOH      O 6494   2.212   2.675   2.741
 2103HOH     H1 6495   2.241   2.624   2.665
 2103HOH     H2 6496   2.284   2.735   2.758
 2104HOH      O 6497   2.131   2.286   4.012
 2104HOH     H1 6498   2.180   2.220   3.962
 2104HOH     H2 6499   2.081   2.236   4.076
 2105HOH      O 6500   0.156   3.943   0.669
 2105HOH     H1 6501   0.114   3.992   0.740
 2105HOH     H2 6502   0.234   3.905   0.709
 2106HOH      O 6503   1.812   1.019   1.786
 2106HOH     H1 6504   1.767   1.060   1.712
 2106HOH     H2 6505   1.743   0.997   1.847
 2107HOH      O 6506   1.839   1.480   0.227
 2107HOH     H1 6507   1.865   1.417   0.160
 2107HOH     H2 6508   1.758   1.444   0.263
 2108HOH      O 6509   2.131   1.775   3.125
 2108HOH     H1 6510   2.098   1.762   3.214
 2108HOH     H2 6511   2.188   1.700   3.109
 2109HOH      O 6512   0.934   1.810   0.736
 2109HOH     H1 6513   0.950   1.857   0.818
 2109HOH     H2 6514   0.854   1.760   0.753
 2110HOH      O 6515   0.579   1.326   2.592
 2110HOH     H1 6516   0.593   1.302   2.683
 2110HOH     H2 6517   0.655   1.380   2.570
 2111HOH      O 6518   1.905   1.092   3.450
 2111HOH     H1 6519   1.969   1.112   3.382
 2111HOH     H2 6520   1.953   1.041   3.515
   4.02731   4.02731   4.02731   0.00000   0.00000   0.00000   0.00000   0.00000   0.00000
