Generated with MDTraj, t= 18248.0
 6520
    1MOL     C1    1   1.881   0.422   0.624
    1MOL     C2    2   1.902   0.534   0.707
    1MOL     C3    3   1.835   0.539   0.833
    1MOL     C4    4   1.735   0.447   0.861
    1MOL     C5    5   1.703   0.344   0.766
    1MOL     C6    6   1.784   0.331   0.650
    1MOL     C7    7   1.864   0.646   0.929
    1MOL     N1    8   1.881   0.735   1.001
    1MOL     C8    9   1.764   0.200   0.572
    1MOL     O1   10   1.719   0.102   0.628
    1MOL     O2   11   1.799   0.203   0.456
    1MOL     H1   12   1.948   0.400   0.541
    1MOL     H2   13   1.985   0.601   0.688
    1MOL     H3   14   1.681   0.449   0.955
    1MOL     H4   15   1.627   0.275   0.801
    2OCB     C1   16   1.655   1.580   1.913
    2OCB     C2   17   1.863   1.394   1.910
    2OCB     C3   18   1.786   1.620   1.931
    2OCB     C4   19   1.622   1.439   1.898
    2OCB     C5   20   1.732   1.348   1.905
    2OCB     C6   21   1.891   1.529   1.929
    2OCB     O1   22   1.964   1.300   1.898
    2OCB     C7   23   2.044   1.569   1.935
    2OCB     C8   24   2.037   1.279   1.772
    2OCB     O2   25   2.165   1.347   1.785
    2OCB     C9   26   2.157   1.473   1.732
    2OCB    C10   27   2.104   1.583   1.798
    2OCB    C11   28   2.098   1.707   1.739
    2OCB    C12   29   2.216   1.491   1.609
    2OCB    C13   30   2.158   1.727   1.613
    2OCB    C14   31   2.221   1.614   1.554
    2OCB     O3   32   2.280   1.623   1.430
    2OCB    C15   33   2.167   1.865   1.539
    2OCB    C16   34   2.042   1.870   1.453
    2OCB    C17   35   2.055   1.827   1.317
    2OCB    C18   36   2.197   1.628   1.313
    2OCB     O4   37   2.168   1.761   1.265
    2OCB     O5   38   1.495   1.402   1.872
    2OCB    C19   39   1.543   1.680   1.886
    2OCB    C20   40   1.522   1.713   1.733
    2OCB     O6   41   1.371   1.531   1.715
    2OCB    C21   42   1.430   1.640   1.657
    2OCB    C22   43   1.938   1.810   1.239
    2OCB    C23   44   1.812   1.846   1.291
    2OCB    C24   45   1.419   1.665   1.515
    2OCB    C25   46   1.496   1.766   1.455
    2OCB     O7   47   1.704   1.820   1.212
    2OCB     O8   48   1.499   1.773   1.323
    2OCB    C26   49   1.608   1.720   1.246
    2OCB    C27   50   1.593   1.817   1.673
    2OCB    C28   51   1.583   1.843   1.537
    2OCB    C29   52   1.913   1.895   1.497
    2OCB    C30   53   1.667   1.953   1.468
    2OCB    C31   54   1.799   1.891   1.421
    2OCB    C32   55   1.450   1.412   1.730
    2OCB    C33   56   2.181   1.994   1.622
    2OCB    C34   57   2.309   1.997   1.713
    2OCB    C35   58   2.339   2.130   1.783
    2OCB     O9   59   2.413   2.214   1.729
    2OCB    C36   60   2.072   1.684   2.035
    2OCB    C37   61   2.215   1.694   2.093
    2OCB    C38   62   2.226   1.803   2.200
    2OCB    O10   63   2.238   1.757   2.315
    2OCB    C39   64   1.554   1.798   1.992
    2OCB    C40   65   1.443   1.900   1.980
    2OCB    C41   66   1.475   2.029   2.043
    2OCB    O11   67   1.506   2.030   2.160
    2OCB    C42   68   1.686   2.084   1.556
    2OCB    C43   69   1.555   2.141   1.589
    2OCB    C44   70   1.572   2.287   1.634
    2OCB    O12   71   1.681   2.320   1.681
    2OCB    C45   72   2.058   1.134   1.723
    2OCB    C46   73   2.072   0.877   1.609
    2OCB    C47   74   2.154   1.105   1.627
    2OCB    C48   75   1.966   1.040   1.763
    2OCB    C49   76   1.969   0.915   1.700
    2OCB    C50   77   2.161   0.978   1.566
    2OCB    C51   78   1.373   1.293   1.677
    2OCB    C52   79   1.257   1.070   1.562
    2OCB    C53   80   1.262   1.309   1.597
    2OCB    C54   81   1.426   1.166   1.691
    2OCB    C55   82   1.359   1.050   1.653
    2OCB    C56   83   1.206   1.196   1.537
    2OCB    C57   84   1.557   1.653   1.118
    2OCB    C58   85   1.460   1.498   0.898
    2OCB    C59   86   1.633   1.644   0.996
    2OCB    C60   87   1.430   1.589   1.122
    2OCB    C61   88   1.386   1.509   1.016
    2OCB    C62   89   1.579   1.569   0.887
    2OCB    C63   90   2.249   1.532   1.202
    2OCB    C64   91   2.300   1.339   1.008
    2OCB    C65   92   2.172   1.527   1.082
    2OCB    C66   93   2.353   1.442   1.220
    2OCB    C67   94   2.378   1.339   1.125
    2OCB    C68   95   2.196   1.429   0.988
    2OCB    O13   96   1.407   0.923   1.691
    2OCB    O14   97   1.268   1.440   1.028
    2OCB    O15   98   1.657   1.550   0.775
    2OCB    O16   99   1.879   0.817   1.735
    2OCB    O17  100   2.268   0.946   1.484
    2OCB    O18  101   2.112   1.404   0.878
    2OCB    O19  102   2.472   1.248   1.153
    2OCB    C69  103   1.189   1.429   1.138
    2OCB    C70  104   1.019   1.428   1.362
    2OCB    C71  105   1.194   1.322   1.227
    2OCB    C72  106   1.097   1.531   1.163
    2OCB    C73  107   1.017   1.540   1.282
    2OCB    C74  108   1.118   1.327   1.346
    2OCB    O20  109   1.116   1.220   1.435
    2OCB    C75  110   1.756   0.844   1.787
    2OCB    C76  111   1.502   0.870   1.897
    2OCB    C77  112   1.736   0.822   1.924
    2OCB    C78  113   1.648   0.887   1.708
    2OCB    C79  114   1.518   0.898   1.764
    2OCB    C80  115   1.608   0.840   1.980
    2OCB    C81  116   1.792   1.570   0.766
    2OCB    C82  117   2.070   1.622   0.790
    2OCB    C83  118   1.840   1.696   0.740
    2OCB    C84  119   1.884   1.473   0.811
    2OCB    C85  120   2.021   1.496   0.822
    2OCB    C86  121   1.978   1.721   0.749
    2OCB    C87  122   2.032   1.856   0.717
    2OCB    O21  123   1.960   1.940   0.668
    2OCB    C88  124   2.748   1.070   1.499
    2OCB    O22  125   2.833   1.148   1.472
    2OCB    C89  126   1.586   0.812   2.125
    2OCB    O23  127   1.483   0.839   2.181
    2OCB    O24  128   2.280   2.162   1.888
    2OCB    O25  129   1.482   2.369   1.626
    2OCB    O26  130   1.441   2.130   1.981
    2OCB    C90  131   0.919   1.654   1.315
    2OCB    O27  132   0.879   1.665   1.428
    2OCB    O28  133   2.775   0.973   1.565
    2OCB    O29  134   2.148   1.872   0.732
    2OCB    O30  135   0.883   1.725   1.224
    2OCB    O31  136   1.668   0.748   2.187
    2OCB    O32  137   2.233   1.925   2.185
    2OCB    C91  138   2.371   1.024   1.435
    2OCB    C92  139   2.590   1.158   1.336
    2OCB    C93  140   2.363   1.092   1.314
    2OCB    C94  141   2.494   1.018   1.496
    2OCB    C95  142   2.607   1.077   1.446
    2OCB    C96  143   2.469   1.169   1.271
    2OCB    C97  144   2.239   1.078   1.225
    2OCB    C98  145   1.669   0.919   1.556
    2OCB    C99  146   1.282   1.199   1.194
    2OCB      C  147   1.830   1.328   0.841
    2OCB     H1  148   1.798   1.727   1.949
    2OCB     H2  149   1.706   1.243   1.892
    2OCB     H3  150   2.091   1.485   1.986
    2OCB     H4  151   1.981   1.324   1.688
    2OCB     H5  152   2.056   1.798   1.781
    2OCB     H6  153   2.271   1.413   1.559
    2OCB     H7  154   2.262   1.874   1.486
    2OCB     H8  155   2.097   1.589   1.339
    2OCB     H9  156   1.455   1.624   1.917
    2OCB    H10  157   1.941   1.761   1.142
    2OCB    H11  158   1.354   1.606   1.450
    2OCB    H12  159   1.649   1.636   1.304
    2OCB    H13  160   1.666   1.873   1.730
    2OCB    H14  161   1.908   1.927   1.601
    2OCB    H15  162   1.613   1.982   1.377
    2OCB    H16  163   1.540   1.423   1.668
    2OCB    H17  164   2.182   2.074   1.548
    2OCB    H18  165   2.090   2.005   1.681
    2OCB    H19  166   2.305   1.920   1.791
    2OCB    H20  167   2.394   1.963   1.655
    2OCB    H21  168   2.006   1.667   2.120
    2OCB    H22  169   2.045   1.783   1.998
    2OCB    H23  170   2.250   1.596   2.128
    2OCB    H24  171   2.290   1.716   2.017
    2OCB    H25  172   1.561   1.768   2.097
    2OCB    H26  173   1.640   1.865   1.979
    2OCB    H27  174   1.407   1.912   1.877
    2OCB    H28  175   1.359   1.854   2.031
    2OCB    H29  176   1.751   2.071   1.642
    2OCB    H30  177   1.735   2.162   1.498
    2OCB    H31  178   1.482   2.127   1.509
    2OCB    H32  179   1.515   2.088   1.675
    2OCB    H33  180   2.079   0.784   1.554
    2OCB    H34  181   2.220   1.187   1.602
    2OCB    H35  182   1.892   1.068   1.838
    2OCB    H36  183   1.211   0.985   1.513
    2OCB    H37  184   1.226   1.410   1.579
    2OCB    H38  185   1.514   1.157   1.755
    2OCB    H39  186   1.417   1.438   0.819
    2OCB    H40  187   1.727   1.694   0.978
    2OCB    H41  188   1.370   1.593   1.212
    2OCB    H42  189   2.312   1.262   0.933
    2OCB    H43  190   2.100   1.604   1.056
    2OCB    H44  191   2.407   1.440   1.314
    2OCB    H45  192   0.957   1.422   1.451
    2OCB    H46  193   1.091   1.622   1.104
    2OCB    H47  194   1.403   0.870   1.942
    2OCB    H48  195   1.818   0.775   1.978
    2OCB    H49  196   2.176   1.641   0.804
    2OCB    H50  197   1.773   1.777   0.716
    2OCB    H51  198   2.670   1.214   1.290
    2OCB    H52  199   2.508   0.965   1.590
    2OCB    H53  200   2.189   1.173   1.245
    2OCB    H54  201   2.262   1.053   1.121
    2OCB    H55  202   2.173   0.998   1.258
    2OCB    H56  203   1.737   0.843   1.517
    2OCB    H57  204   1.582   0.932   1.491
    2OCB    H58  205   1.730   1.010   1.553
    2OCB    H59  206   1.214   1.115   1.182
    2OCB    H60  207   1.340   1.213   1.102
    2OCB    H61  208   1.346   1.177   1.279
    2OCB    H62  209   1.746   1.333   0.911
    2OCB    H63  210   1.797   1.281   0.748
    2OCB    H64  211   1.908   1.267   0.886
    3Na+    Na+  212   1.348   1.800   3.144
    4Na+    Na+  213   2.435   2.166   0.923
    5Na+    Na+  214   0.558   2.418   2.073
    6Na+    Na+  215   0.782   1.648   1.651
    7Na+    Na+  216   3.195   2.344   1.461
    8Na+    Na+  217   3.527   2.737   1.936
    9Na+    Na+  218   1.870   2.425   2.524
   10Na+    Na+  219   1.030   3.655   1.859
   11Na+    Na+  220   0.821   2.495   1.251
   12HOH      O  221   0.475   2.202   1.207
   12HOH     H1  222   0.526   2.162   1.278
   12HOH     H2  223   0.395   2.149   1.202
   13HOH      O  224   1.435   3.974   2.941
   13HOH     H1  225   1.471   3.941   2.859
   13HOH     H2  226   1.341   3.983   2.923
   14HOH      O  227   2.554   0.175   1.766
   14HOH     H1  228   2.611   0.246   1.736
   14HOH     H2  229   2.611   0.099   1.773
   15HOH      O  230   3.036   0.299   3.707
   15HOH     H1  231   3.061   0.380   3.750
   15HOH     H2  232   3.119   0.253   3.692
   16HOH      O  233   1.206   2.670   3.060
   16HOH     H1  234   1.147   2.649   3.132
   16HOH     H2  235   1.220   2.764   3.068
   17HOH      O  236   1.577   3.692   0.717
   17HOH     H1  237   1.641   3.690   0.645
   17HOH     H2  238   1.579   3.783   0.748
   18HOH      O  239   3.144   1.801   3.325
   18HOH     H1  240   3.183   1.718   3.354
   18HOH     H2  241   3.124   1.848   3.405
   19HOH      O  242   2.534   1.719   0.927
   19HOH     H1  243   2.598   1.651   0.906
   19HOH     H2  244   2.486   1.732   0.845
   20HOH      O  245   0.561   1.709   1.592
   20HOH     H1  246   0.543   1.647   1.521
   20HOH     H2  247   0.493   1.692   1.657
   21HOH      O  248   3.112   3.225   2.375
   21HOH     H1  249   3.123   3.137   2.410
   21HOH     H2  250   3.153   3.221   2.288
   22HOH      O  251   2.122   0.230   3.819
   22HOH     H1  252   2.149   0.318   3.791
   22HOH     H2  253   2.045   0.245   3.874
   23HOH      O  254   3.898   1.987   2.326
   23HOH     H1  255   3.979   1.950   2.293
   23HOH     H2  256   3.844   1.911   2.350
   24HOH      O  257   1.201   1.608   2.693
   24HOH     H1  258   1.283   1.561   2.705
   24HOH     H2  259   1.220   1.671   2.623
   25HOH      O  260   1.861   2.826   0.428
   25HOH     H1  261   1.933   2.889   0.433
   25HOH     H2  262   1.785   2.873   0.462
   26HOH      O  263   2.106   2.359   1.859
   26HOH     H1  264   2.084   2.396   1.944
   26HOH     H2  265   2.176   2.296   1.877
   27HOH      O  266   0.670   1.297   1.936
   27HOH     H1  267   0.646   1.209   1.966
   27HOH     H2  268   0.751   1.285   1.886
   28HOH      O  269   2.257   2.396   2.949
   28HOH     H1  270   2.197   2.328   2.919
   28HOH     H2  271   2.343   2.353   2.948
   29HOH      O  272   0.535   1.817   0.430
   29HOH     H1  273   0.558   1.802   0.338
   29HOH     H2  274   0.477   1.893   0.428
   30HOH      O  275   0.478   1.986   2.572
   30HOH     H1  276   0.460   1.895   2.545
   30HOH     H2  277   0.519   2.026   2.495
   31HOH      O  278   1.585   1.058   3.994
   31HOH     H1  279   1.520   1.119   4.028
   31HOH     H2  280   1.650   1.114   3.952
   32HOH      O  281   0.956   1.788   2.383
   32HOH     H1  282   1.008   1.805   2.461
   32HOH     H2  283   1.017   1.794   2.311
   33HOH      O  284   2.697   3.215   0.245
   33HOH     H1  285   2.624   3.231   0.305
   33HOH     H2  286   2.752   3.151   0.291
   34HOH      O  287   2.302   2.732   3.484
   34HOH     H1  288   2.212   2.755   3.506
   34HOH     H2  289   2.349   2.731   3.567
   35HOH      O  290   2.950   3.374   4.012
   35HOH     H1  291   2.915   3.447   4.062
   35HOH     H2  292   3.022   3.412   3.961
   36HOH      O  293   1.172   1.862   2.211
   36HOH     H1  294   1.204   1.948   2.186
   36HOH     H2  295   1.239   1.827   2.269
   37HOH      O  296   1.043   2.517   0.222
   37HOH     H1  297   1.074   2.467   0.147
   37HOH     H2  298   1.036   2.453   0.293
   38HOH      O  299   0.135   3.503   1.005
   38HOH     H1  300   0.177   3.570   1.059
   38HOH     H2  301   0.206   3.444   0.981
   39HOH      O  302   1.010   0.805   1.289
   39HOH     H1  303   0.925   0.763   1.300
   39HOH     H2  304   0.991   0.899   1.291
   40HOH      O  305   2.444   2.615   2.983
   40HOH     H1  306   2.411   2.649   3.066
   40HOH     H2  307   2.396   2.533   2.970
   41HOH      O  308   2.987   3.362   0.791
   41HOH     H1  309   2.951   3.451   0.787
   41HOH     H2  310   3.074   3.370   0.752
   42HOH      O  311   3.964   1.775   0.626
   42HOH     H1  312   4.005   1.831   0.692
   42HOH     H2  313   3.994   1.687   0.648
   43HOH      O  314   3.883   2.972   1.364
   43HOH     H1  315   3.936   2.893   1.361
   43HOH     H2  316   3.927   3.033   1.304
   44HOH      O  317   3.623   2.877   2.692
   44HOH     H1  318   3.697   2.936   2.676
   44HOH     H2  319   3.621   2.820   2.615
   45HOH      O  320   4.015   3.056   3.032
   45HOH     H1  321   3.933   3.075   3.078
   45HOH     H2  322   4.039   3.139   2.991
   46HOH      O  323   1.265   3.891   0.393
   46HOH     H1  324   1.288   3.826   0.326
   46HOH     H2  325   1.340   3.950   0.395
   47HOH      O  326   2.379   3.479   3.419
   47HOH     H1  327   2.328   3.524   3.351
   47HOH     H2  328   2.403   3.396   3.379
   48HOH      O  329   1.171   0.763   0.147
   48HOH     H1  330   1.100   0.756   0.211
   48HOH     H2  331   1.140   0.715   0.070
   49HOH      O  332   1.880   2.310   2.956
   49HOH     H1  333   1.803   2.254   2.958
   49HOH     H2  334   1.923   2.296   3.040
   50HOH      O  335   2.324   2.563   3.829
   50HOH     H1  336   2.336   2.503   3.903
   50HOH     H2  337   2.235   2.597   3.840
   51HOH      O  338   3.970   0.802   3.054
   51HOH     H1  339   3.878   0.780   3.041
   51HOH     H2  340   3.980   0.888   3.011
   52HOH      O  341   3.383   1.636   2.759
   52HOH     H1  342   3.478   1.628   2.746
   52HOH     H2  343   3.362   1.570   2.824
   53HOH      O  344   3.254   1.124   3.353
   53HOH     H1  345   3.239   1.031   3.370
   53HOH     H2  346   3.175   1.168   3.385
   54HOH      O  347   1.208   1.646   3.003
   54HOH     H1  348   1.203   1.674   2.911
   54HOH     H2  349   1.263   1.567   3.000
   55HOH      O  350   2.682   1.583   3.492
   55HOH     H1  351   2.664   1.623   3.577
   55HOH     H2  352   2.596   1.558   3.458
   56HOH      O  353   2.480   2.257   2.971
   56HOH     H1  354   2.523   2.274   2.887
   56HOH     H2  355   2.514   2.171   2.998
   57HOH      O  356   3.694   2.745   1.471
   57HOH     H1  357   3.765   2.794   1.429
   57HOH     H2  358   3.725   2.655   1.475
   58HOH      O  359   1.828   3.804   1.463
   58HOH     H1  360   1.859   3.785   1.552
   58HOH     H2  361   1.764   3.875   1.475
   59HOH      O  362   1.653   3.245   3.351
   59HOH     H1  363   1.570   3.202   3.368
   59HOH     H2  364   1.687   3.201   3.273
   60HOH      O  365   0.619   0.685   2.070
   60HOH     H1  366   0.593   0.705   2.160
   60HOH     H2  367   0.551   0.724   2.016
   61HOH      O  368   2.284   2.598   0.945
   61HOH     H1  369   2.200   2.570   0.981
   61HOH     H2  370   2.263   2.633   0.858
   62HOH      O  371   0.114   3.033   3.639
   62HOH     H1  372   0.053   2.977   3.592
   62HOH     H2  373   0.097   3.014   3.732
   63HOH      O  374   3.871   3.451   0.349
   63HOH     H1  375   3.826   3.425   0.269
   63HOH     H2  376   3.802   3.484   0.406
   64HOH      O  377   1.085   3.074   3.571
   64HOH     H1  378   1.011   3.129   3.544
   64HOH     H2  379   1.114   3.111   3.654
   65HOH      O  380   3.199   1.689   1.763
   65HOH     H1  381   3.216   1.613   1.707
   65HOH     H2  382   3.120   1.665   1.812
   66HOH      O  383   0.323   0.897   1.941
   66HOH     H1  384   0.334   0.843   2.019
   66HOH     H2  385   0.343   0.838   1.868
   67HOH      O  386   1.105   1.917   0.471
   67HOH     H1  387   1.142   1.830   0.461
   67HOH     H2  388   1.042   1.925   0.399
   68HOH      O  389   1.420   0.546   2.710
   68HOH     H1  390   1.507   0.528   2.676
   68HOH     H2  391   1.360   0.515   2.642
   69HOH      O  392   3.591   1.830   2.163
   69HOH     H1  393   3.543   1.760   2.208
   69HOH     H2  394   3.550   1.911   2.195
   70HOH      O  395   3.283   0.043   0.682
   70HOH     H1  396   3.362   0.027   0.734
   70HOH     H2  397   3.217  -0.014   0.722
   71HOH      O  398   2.268   3.561   2.099
   71HOH     H1  399   2.203   3.631   2.112
   71HOH     H2  400   2.320   3.562   2.179
   72HOH      O  401   0.483   0.722   3.969
   72HOH     H1  402   0.453   0.632   3.980
   72HOH     H2  403   0.412   0.765   3.921
   73HOH      O  404   3.586   2.623   2.828
   73HOH     H1  405   3.595   2.620   2.923
   73HOH     H2  406   3.591   2.716   2.806
   74HOH      O  407   2.280   1.482   2.685
   74HOH     H1  408   2.299   1.392   2.657
   74HOH     H2  409   2.341   1.497   2.758
   75HOH      O  410   3.517   2.187   2.697
   75HOH     H1  411   3.435   2.148   2.665
   75HOH     H2  412   3.494   2.278   2.717
   76HOH      O  413   0.886   1.601   3.319
   76HOH     H1  414   0.977   1.630   3.320
   76HOH     H2  415   0.837   1.675   3.354
   77HOH      O  416   3.608   2.621   3.855
   77HOH     H1  417   3.659   2.697   3.886
   77HOH     H2  418   3.665   2.578   3.793
   78HOH      O  419   2.027   1.238   3.134
   78HOH     H1  420   2.065   1.162   3.177
   78HOH     H2  421   1.933   1.231   3.151
   79HOH      O  422   2.251   0.021   3.908
   79HOH     H1  423   2.247   0.030   4.003
   79HOH     H2  424   2.212   0.102   3.875
   80HOH      O  425   2.625   0.637   2.768
   80HOH     H1  426   2.718   0.613   2.762
   80HOH     H2  427   2.588   0.613   2.683
   81HOH      O  428   0.179   0.476   0.884
   81HOH     H1  429   0.225   0.400   0.919
   81HOH     H2  430   0.232   0.551   0.911
   82HOH      O  431   2.742   3.263   1.369
   82HOH     H1  432   2.802   3.188   1.366
   82HOH     H2  433   2.798   3.339   1.351
   83HOH      O  434   2.601   2.742   2.799
   83HOH     H1  435   2.551   2.704   2.870
   83HOH     H2  436   2.539   2.798   2.753
   84HOH      O  437   3.599   1.564   0.915
   84HOH     H1  438   3.647   1.582   0.834
   84HOH     H2  439   3.629   1.477   0.942
   85HOH      O  440   3.788   1.732   2.884
   85HOH     H1  441   3.815   1.801   2.824
   85HOH     H2  442   3.731   1.675   2.831
   86HOH      O  443   1.388   2.273   2.282
   86HOH     H1  444   1.384   2.195   2.338
   86HOH     H2  445   1.471   2.264   2.235
   87HOH      O  446   1.786   2.225   1.210
   87HOH     H1  447   1.747   2.312   1.213
   87HOH     H2  448   1.834   2.223   1.128
   88HOH      O  449   1.227   2.502   1.372
   88HOH     H1  450   1.142   2.546   1.368
   88HOH     H2  451   1.225   2.439   1.300
   89HOH      O  452   0.592   0.796   1.760
   89HOH     H1  453   0.681   0.763   1.747
   89HOH     H2  454   0.587   0.874   1.704
   90HOH      O  455   2.836   1.854   0.820
   90HOH     H1  456   2.784   1.913   0.875
   90HOH     H2  457   2.895   1.810   0.881
   91HOH      O  458   0.050   3.776   2.147
   91HOH     H1  459   0.129   3.725   2.166
   91HOH     H2  460  -0.015   3.711   2.120
   92HOH      O  461   3.195   0.685   3.915
   92HOH     H1  462   3.153   0.634   3.983
   92HOH     H2  463   3.162   0.774   3.928
   93HOH      O  464   2.459   2.759   3.699
   93HOH     H1  465   2.419   2.831   3.749
   93HOH     H2  466   2.439   2.681   3.750
   94HOH      O  467   1.007   0.912   3.168
   94HOH     H1  468   1.076   0.933   3.105
   94HOH     H2  469   0.939   0.978   3.151
   95HOH      O  470   0.892   3.139   3.200
   95HOH     H1  471   0.827   3.077   3.233
   95HOH     H2  472   0.852   3.225   3.210
   96HOH      O  473   3.814   2.294   3.892
   96HOH     H1  474   3.886   2.251   3.846
   96HOH     H2  475   3.833   2.388   3.884
   97HOH      O  476   2.744   2.840   0.044
   97HOH     H1  477   2.693   2.758   0.040
   97HOH     H2  478   2.692   2.898   0.100
   98HOH      O  479   3.217   3.381   2.663
   98HOH     H1  480   3.212   3.311   2.728
   98HOH     H2  481   3.135   3.373   2.614
   99HOH      O  482   4.006   2.726   1.409
   99HOH     H1  483   4.018   2.641   1.367
   99HOH     H2  484   4.006   2.707   1.502
  100HOH      O  485   2.787   3.669   3.786
  100HOH     H1  486   2.717   3.611   3.756
  100HOH     H2  487   2.748   3.756   3.785
  101HOH      O  488   0.849   3.232   3.511
  101HOH     H1  489   0.757   3.205   3.507
  101HOH     H2  490   0.855   3.304   3.448
  102HOH      O  491   3.986   3.228   3.917
  102HOH     H1  492   4.017   3.216   4.006
  102HOH     H2  493   3.902   3.182   3.914
  103HOH      O  494   1.748   2.247   2.656
  103HOH     H1  495   1.716   2.169   2.611
  103HOH     H2  496   1.750   2.222   2.748
  104HOH      O  497   0.996   1.326   2.140
  104HOH     H1  498   1.074   1.290   2.096
  104HOH     H2  499   0.995   1.418   2.115
  105HOH      O  500   2.809   1.250   3.913
  105HOH     H1  501   2.823   1.316   3.845
  105HOH     H2  502   2.754   1.294   3.978
  106HOH      O  503   0.792   0.827   0.942
  106HOH     H1  504   0.769   0.807   0.851
  106HOH     H2  505   0.861   0.893   0.936
  107HOH      O  506   0.739   1.384   2.185
  107HOH     H1  507   0.705   1.358   2.099
  107HOH     H2  508   0.831   1.357   2.183
  108HOH      O  509   3.909   0.932   3.669
  108HOH     H1  510   3.911   1.024   3.642
  108HOH     H2  511   3.816   0.910   3.674
  109HOH      O  512   3.970   0.972   2.391
  109HOH     H1  513   4.020   1.041   2.348
  109HOH     H2  514   3.894   0.958   2.334
  110HOH      O  515   0.662   1.157   2.686
  110HOH     H1  516   0.653   1.208   2.767
  110HOH     H2  517   0.684   1.222   2.619
  111HOH      O  518   0.544   2.435   1.304
  111HOH     H1  519   0.479   2.369   1.278
  111HOH     H2  520   0.495   2.518   1.302
  112HOH      O  521   0.349   0.621   2.820
  112HOH     H1  522   0.300   0.539   2.819
  112HOH     H2  523   0.282   0.689   2.832
  113HOH      O  524   0.026   3.247   0.402
  113HOH     H1  525   0.086   3.268   0.473
  113HOH     H2  526  -0.039   3.317   0.404
  114HOH      O  527   2.028   1.898   3.748
  114HOH     H1  528   1.995   1.983   3.778
  114HOH     H2  529   1.960   1.836   3.774
  115HOH      O  530   2.844   2.545   0.074
  115HOH     H1  531   2.870   2.479   0.139
  115HOH     H2  532   2.903   2.619   0.090
  116HOH      O  533   3.799   1.332   0.144
  116HOH     H1  534   3.820   1.418   0.108
  116HOH     H2  535   3.797   1.274   0.069
  117HOH      O  536   3.620   3.029   1.435
  117HOH     H1  537   3.701   3.021   1.385
  117HOH     H2  538   3.611   2.946   1.481
  118HOH      O  539   2.184   4.034   1.119
  118HOH     H1  540   2.182   3.942   1.092
  118HOH     H2  541   2.241   4.034   1.196
  119HOH      O  542   2.478   2.941   0.190
  119HOH     H1  543   2.461   2.857   0.146
  119HOH     H2  544   2.406   2.950   0.251
  120HOH      O  545   2.964   0.288   2.979
  120HOH     H1  546   2.874   0.308   2.953
  120HOH     H2  547   2.967   0.306   3.073
  121HOH      O  548   2.940   1.069   3.283
  121HOH     H1  549   2.887   1.114   3.218
  121HOH     H2  550   3.007   1.023   3.233
  122HOH      O  551   1.858   2.842   1.068
  122HOH     H1  552   1.938   2.791   1.056
  122HOH     H2  553   1.837   2.875   0.981
  123HOH      O  554   1.610   1.645   3.671
  123HOH     H1  555   1.685   1.679   3.721
  123HOH     H2  556   1.630   1.552   3.659
  124HOH      O  557   2.087   3.371   3.552
  124HOH     H1  558   2.172   3.360   3.595
  124HOH     H2  559   2.084   3.463   3.529
  125HOH      O  560   2.070   3.588   0.130
  125HOH     H1  561   2.147   3.531   0.131
  125HOH     H2  562   2.072   3.629   0.043
  126HOH      O  563   2.365   0.547   0.059
  126HOH     H1  564   2.301   0.478   0.043
  126HOH     H2  565   2.428   0.538  -0.012
  127HOH      O  566   3.351   1.190   0.549
  127HOH     H1  567   3.380   1.112   0.598
  127HOH     H2  568   3.365   1.263   0.609
  128HOH      O  569   3.557   2.370   1.717
  128HOH     H1  570   3.629   2.328   1.671
  128HOH     H2  571   3.478   2.326   1.683
  129HOH      O  572   0.377   2.360   0.557
  129HOH     H1  573   0.338   2.410   0.629
  129HOH     H2  574   0.426   2.424   0.506
  130HOH      O  575   0.593   2.906   0.406
  130HOH     H1  576   0.594   2.985   0.352
  130HOH     H2  577   0.631   2.838   0.351
  131HOH      O  578   2.651   3.325   0.645
  131HOH     H1  579   2.636   3.271   0.568
  131HOH     H2  580   2.614   3.275   0.717
  132HOH      O  581   2.394   3.941   2.252
  132HOH     H1  582   2.341   4.002   2.303
  132HOH     H2  583   2.344   3.927   2.172
  133HOH      O  584   1.454   3.782   3.765
  133HOH     H1  585   1.525   3.810   3.708
  133HOH     H2  586   1.466   3.687   3.773
  134HOH      O  587   2.785   0.337   0.578
  134HOH     H1  588   2.758   0.245   0.568
  134HOH     H2  589   2.732   0.384   0.514
  135HOH      O  590   3.000   1.819   2.314
  135HOH     H1  591   2.956   1.762   2.376
  135HOH     H2  592   2.936   1.888   2.295
  136HOH      O  593   2.340   2.560   2.172
  136HOH     H1  594   2.265   2.558   2.112
  136HOH     H2  595   2.316   2.499   2.242
  137HOH      O  596   2.450   2.720   1.121
  137HOH     H1  597   2.405   2.798   1.154
  137HOH     H2  598   2.385   2.678   1.064
  138HOH      O  599   2.384   2.098   2.303
  138HOH     H1  600   2.336   2.036   2.247
  138HOH     H2  601   2.352   2.184   2.276
  139HOH      O  602   1.110   0.591   3.721
  139HOH     H1  603   1.113   0.498   3.741
  139HOH     H2  604   1.052   0.597   3.645
  140HOH      O  605   3.672   2.600   0.114
  140HOH     H1  606   3.759   2.630   0.139
  140HOH     H2  607   3.677   2.590   0.018
  141HOH      O  608   0.857   0.257   0.816
  141HOH     H1  609   0.792   0.203   0.861
  141HOH     H2  610   0.935   0.201   0.811
  142HOH      O  611   1.371   0.542   0.377
  142HOH     H1  612   1.446   0.489   0.348
  142HOH     H2  613   1.315   0.480   0.424
  143HOH      O  614   0.421   3.066   1.005
  143HOH     H1  615   0.506   3.069   0.961
  143HOH     H2  616   0.389   2.977   0.989
  144HOH      O  617   0.081   0.717   3.769
  144HOH     H1  618   0.164   0.686   3.806
  144HOH     H2  619   0.046   0.776   3.836
  145HOH      O  620   2.746   3.952   2.697
  145HOH     H1  621   2.834   3.974   2.727
  145HOH     H2  622   2.705   3.909   2.772
  146HOH      O  623   1.934   0.167   1.069
  146HOH     H1  624   2.019   0.123   1.066
  146HOH     H2  625   1.887   0.133   0.993
  147HOH      O  626   3.668   2.814   2.402
  147HOH     H1  627   3.740   2.867   2.368
  147HOH     H2  628   3.671   2.733   2.351
  148HOH      O  629   1.364   0.818   2.590
  148HOH     H1  630   1.444   0.868   2.575
  148HOH     H2  631   1.392   0.741   2.639
  149HOH      O  632   2.097   1.740   3.347
  149HOH     H1  633   2.167   1.774   3.403
  149HOH     H2  634   2.133   1.660   3.309
  150HOH      O  635   3.937   3.244   2.420
  150HOH     H1  636   3.890   3.166   2.389
  150HOH     H2  637   3.888   3.318   2.383
  151HOH      O  638   2.525   2.256   0.215
  151HOH     H1  639   2.564   2.283   0.298
  151HOH     H2  640   2.560   2.317   0.151
  152HOH      O  641   3.605   3.226   2.151
  152HOH     H1  642   3.540   3.296   2.144
  152HOH     H2  643   3.610   3.207   2.244
  153HOH      O  644   1.324   2.397   3.827
  153HOH     H1  645   1.293   2.487   3.839
  153HOH     H2  646   1.415   2.398   3.856
  154HOH      O  647   2.241   1.392   3.043
  154HOH     H1  648   2.288   1.329   2.988
  154HOH     H2  649   2.167   1.343   3.078
  155HOH      O  650   1.586   1.911   0.270
  155HOH     H1  651   1.495   1.898   0.244
  155HOH     H2  652   1.581   1.952   0.357
  156HOH      O  653   1.431   3.351   3.135
  156HOH     H1  654   1.442   3.257   3.148
  156HOH     H2  655   1.444   3.364   3.041
  157HOH      O  656   3.243   0.140   2.389
  157HOH     H1  657   3.245   0.170   2.480
  157HOH     H2  658   3.155   0.161   2.358
  158HOH      O  659   1.271   1.311   2.004
  158HOH     H1  660   1.320   1.266   2.072
  158HOH     H2  661   1.336   1.329   1.936
  159HOH      O  662   0.927   1.079   1.298
  159HOH     H1  663   0.900   1.115   1.213
  159HOH     H2  664   0.989   1.144   1.332
  160HOH      O  665   2.325   2.292   2.554
  160HOH     H1  666   2.383   2.219   2.535
  160HOH     H2  667   2.373   2.345   2.618
  161HOH      O  668   3.629   1.432   1.399
  161HOH     H1  669   3.723   1.417   1.384
  161HOH     H2  670   3.623   1.456   1.492
  162HOH      O  671   0.033   0.776   2.564
  162HOH     H1  672   0.043   0.697   2.511
  162HOH     H2  673  -0.008   0.839   2.505
  163HOH      O  674   2.446   1.347   3.730
  163HOH     H1  675   2.382   1.417   3.744
  163HOH     H2  676   2.417   1.276   3.788
  164HOH      O  677   3.992   3.952   3.512
  164HOH     H1  678   4.046   3.931   3.436
  164HOH     H2  679   4.023   3.893   3.581
  165HOH      O  680   2.600   1.262   3.474
  165HOH     H1  681   2.573   1.255   3.566
  165HOH     H2  682   2.552   1.192   3.430
  166HOH      O  683   0.149   2.021   3.515
  166HOH     H1  684   0.090   2.049   3.585
  166HOH     H2  685   0.166   1.929   3.532
  167HOH      O  686   0.224   1.531   2.318
  167HOH     H1  687   0.204   1.571   2.234
  167HOH     H2  688   0.307   1.485   2.305
  168HOH      O  689   3.638   3.260   3.412
  168HOH     H1  690   3.572   3.229   3.350
  168HOH     H2  691   3.598   3.336   3.454
  169HOH      O  692   1.666   3.383   2.905
  169HOH     H1  693   1.657   3.473   2.935
  169HOH     H2  694   1.739   3.347   2.957
  170HOH      O  695   1.942   3.928   0.916
  170HOH     H1  696   1.912   3.868   0.984
  170HOH     H2  697   1.881   3.914   0.843
  171HOH      O  698   2.827   3.129   2.497
  171HOH     H1  699   2.892   3.073   2.454
  171HOH     H2  700   2.869   3.215   2.503
  172HOH      O  701   2.154   0.626   3.183
  172HOH     H1  702   2.211   0.622   3.106
  172HOH     H2  703   2.136   0.535   3.204
  173HOH      O  704   2.226   1.964   2.476
  173HOH     H1  705   2.280   2.030   2.432
  173HOH     H2  706   2.239   1.884   2.426
  174HOH      O  707   1.706   0.624   2.816
  174HOH     H1  708   1.715   0.694   2.752
  174HOH     H2  709   1.630   0.648   2.868
  175HOH      O  710   3.007   3.570   2.546
  175HOH     H1  711   3.055   3.608   2.473
  175HOH     H2  712   3.027   3.628   2.620
  176HOH      O  713   2.421   2.279   3.247
  176HOH     H1  714   2.429   2.187   3.274
  176HOH     H2  715   2.423   2.275   3.151
  177HOH      O  716   1.438   2.511   0.336
  177HOH     H1  717   1.530   2.535   0.342
  177HOH     H2  718   1.433   2.452   0.261
  178HOH      O  719   2.534   0.334   3.921
  178HOH     H1  720   2.489   0.293   3.995
  178HOH     H2  721   2.466   0.349   3.856
  179HOH      O  722   3.362   3.012   2.741
  179HOH     H1  723   3.420   2.988   2.669
  179HOH     H2  724   3.300   3.074   2.702
  180HOH      O  725   1.262   2.273   1.182
  180HOH     H1  726   1.287   2.268   1.090
  180HOH     H2  727   1.291   2.190   1.220
  181HOH      O  728   1.861   3.205   1.787
  181HOH     H1  729   1.836   3.117   1.814
  181HOH     H2  730   1.915   3.238   1.859
  182HOH      O  731   0.364   0.669   1.697
  182HOH     H1  732   0.443   0.721   1.713
  182HOH     H2  733   0.301   0.731   1.660
  183HOH      O  734   0.665   2.972   2.457
  183HOH     H1  735   0.671   2.995   2.550
  183HOH     H2  736   0.742   2.918   2.440
  184HOH      O  737   3.505   2.190   0.726
  184HOH     H1  738   3.482   2.132   0.799
  184HOH     H2  739   3.428   2.189   0.669
  185HOH      O  740   3.041   0.049   0.169
  185HOH     H1  741   2.950   0.030   0.191
  185HOH     H2  742   3.036   0.110   0.096
  186HOH      O  743   3.341   3.707   0.112
  186HOH     H1  744   3.329   3.786   0.165
  186HOH     H2  745   3.436   3.697   0.105
  187HOH      O  746   1.625   0.164   2.856
  187HOH     H1  747   1.678   0.087   2.876
  187HOH     H2  748   1.685   0.237   2.865
  188HOH      O  749   3.703   3.011   0.185
  188HOH     H1  750   3.765   3.006   0.258
  188HOH     H2  751   3.652   3.090   0.202
  189HOH      O  752   1.962   3.335   3.901
  189HOH     H1  753   1.934   3.259   3.951
  189HOH     H2  754   2.057   3.335   3.909
  190HOH      O  755   3.865   0.404   3.847
  190HOH     H1  756   3.867   0.471   3.779
  190HOH     H2  757   3.776   0.369   3.843
  191HOH      O  758   3.867   2.864   3.289
  191HOH     H1  759   3.845   2.771   3.287
  191HOH     H2  760   3.820   2.898   3.365
  192HOH      O  761   3.001   3.933   3.564
  192HOH     H1  762   3.075   3.873   3.548
  192HOH     H2  763   3.040   4.020   3.555
  193HOH      O  764   1.223   2.410   1.646
  193HOH     H1  765   1.218   2.461   1.565
  193HOH     H2  766   1.311   2.373   1.646
  194HOH      O  767   3.265   2.056   0.035
  194HOH     H1  768   3.181   2.085   0.000
  194HOH     H2  769   3.271   2.096   0.122
  195HOH      O  770   1.408   0.994   0.505
  195HOH     H1  771   1.392   0.924   0.568
  195HOH     H2  772   1.494   0.972   0.468
  196HOH      O  773   3.941   1.052   0.692
  196HOH     H1  774   3.881   0.979   0.673
  196HOH     H2  775   4.019   1.032   0.640
  197HOH      O  776   2.802   2.026   1.073
  197HOH     H1  777   2.783   2.114   1.040
  197HOH     H2  778   2.716   1.988   1.092
  198HOH      O  779   2.416   3.621   2.310
  198HOH     H1  780   2.419   3.696   2.369
  198HOH     H2  781   2.496   3.628   2.258
  199HOH      O  782   1.305   0.149   1.046
  199HOH     H1  783   1.264   0.201   0.976
  199HOH     H2  784   1.247   0.161   1.121
  200HOH      O  785   2.086   3.287   3.256
  200HOH     H1  786   2.121   3.368   3.219
  200HOH     H2  787   2.070   3.308   3.349
  201HOH      O  788   4.034   2.069   2.692
  201HOH     H1  789   4.074   2.145   2.734
  201HOH     H2  790   3.946   2.098   2.668
  202HOH      O  791   2.710   1.830   1.987
  202HOH     H1  792   2.637   1.890   1.974
  202HOH     H2  793   2.787   1.887   1.993
  203HOH      O  794   0.946   2.811   0.396
  203HOH     H1  795   0.903   2.728   0.416
  203HOH     H2  796   1.022   2.787   0.344
  204HOH      O  797   1.259   0.162   2.076
  204HOH     H1  798   1.345   0.142   2.114
  204HOH     H2  799   1.199   0.160   2.150
  205HOH      O  800   1.015   2.211   0.763
  205HOH     H1  801   1.067   2.292   0.765
  205HOH     H2  802   1.063   2.150   0.819
  206HOH      O  803   3.938   0.286   1.044
  206HOH     H1  804   4.028   0.263   1.021
  206HOH     H2  805   3.889   0.278   0.962
  207HOH      O  806   0.300   3.344   0.189
  207HOH     H1  807   0.327   3.332   0.097
  207HOH     H2  808   0.217   3.390   0.184
  208HOH      O  809   0.395   2.953   0.604
  208HOH     H1  810   0.444   2.994   0.533
  208HOH     H2  811   0.424   2.862   0.605
  209HOH      O  812   0.219   1.448   1.288
  209HOH     H1  813   0.289   1.436   1.353
  209HOH     H2  814   0.236   1.380   1.223
  210HOH      O  815   3.281   3.531   3.705
  210HOH     H1  816   3.358   3.586   3.687
  210HOH     H2  817   3.248   3.564   3.789
  211HOH      O  818   1.461   3.322   0.654
  211HOH     H1  819   1.389   3.376   0.621
  211HOH     H2  820   1.431   3.294   0.741
  212HOH      O  821   0.521   0.082   3.554
  212HOH     H1  822   0.495   0.165   3.595
  212HOH     H2  823   0.579   0.108   3.482
  213HOH      O  824   1.993   3.910   0.415
  213HOH     H1  825   2.004   4.004   0.427
  213HOH     H2  826   2.069   3.884   0.362
  214HOH      O  827   2.970   1.123   2.299
  214HOH     H1  828   3.049   1.070   2.308
  214HOH     H2  829   2.930   1.092   2.218
  215HOH      O  830   2.720   3.799   0.869
  215HOH     H1  831   2.669   3.877   0.849
  215HOH     H2  832   2.784   3.828   0.933
  216HOH      O  833   0.518   2.333   0.979
  216HOH     H1  834   0.503   2.283   1.060
  216HOH     H2  835   0.600   2.298   0.945
  217HOH      O  836   2.959   1.465   2.965
  217HOH     H1  837   2.952   1.541   3.023
  217HOH     H2  838   3.005   1.399   3.017
  218HOH      O  839   3.281   1.337   2.659
  218HOH     H1  840   3.319   1.393   2.728
  218HOH     H2  841   3.187   1.354   2.663
  219HOH      O  842   2.120   2.679   2.885
  219HOH     H1  843   2.077   2.677   2.970
  219HOH     H2  844   2.183   2.606   2.888
  220HOH      O  845   0.174   1.057   0.534
  220HOH     H1  846   0.164   0.989   0.467
  220HOH     H2  847   0.268   1.066   0.545
  221HOH      O  848   0.701   3.753   3.520
  221HOH     H1  849   0.791   3.727   3.502
  221HOH     H2  850   0.660   3.761   3.434
  222HOH      O  851   2.624   2.167   3.476
  222HOH     H1  852   2.576   2.217   3.542
  222HOH     H2  853   2.560   2.106   3.440
  223HOH      O  854   0.591   3.289   3.057
  223HOH     H1  855   0.548   3.320   2.978
  223HOH     H2  856   0.519   3.255   3.111
  224HOH      O  857   1.111   1.987   1.362
  224HOH     H1  858   1.198   2.001   1.326
  224HOH     H2  859   1.057   1.967   1.286
  225HOH      O  860   2.658   3.900   2.450
  225HOH     H1  861   2.637   3.984   2.410
  225HOH     H2  862   2.702   3.923   2.532
  226HOH      O  863   2.626   1.504   2.535
  226HOH     H1  864   2.716   1.518   2.504
  226HOH     H2  865   2.572   1.560   2.480
  227HOH      O  866   2.926   1.465   0.719
  227HOH     H1  867   2.984   1.491   0.791
  227HOH     H2  868   2.942   1.372   0.708
  228HOH      O  869   3.671   1.472   0.367
  228HOH     H1  870   3.623   1.528   0.307
  228HOH     H2  871   3.716   1.408   0.311
  229HOH      O  872   3.864   2.747   0.301
  229HOH     H1  873   3.848   2.839   0.320
  229HOH     H2  874   3.901   2.711   0.382
  230HOH      O  875   0.274   0.443   1.827
  230HOH     H1  876   0.302   0.526   1.789
  230HOH     H2  877   0.220   0.402   1.759
  231HOH      O  878   0.689   3.494   0.434
  231HOH     H1  879   0.727   3.508   0.347
  231HOH     H2  880   0.764   3.490   0.493
  232HOH      O  881   2.512   3.419   1.245
  232HOH     H1  882   2.534   3.340   1.294
  232HOH     H2  883   2.465   3.388   1.168
  233HOH      O  884   1.973   3.070   2.908
  233HOH     H1  885   2.049   3.056   2.964
  233HOH     H2  886   2.009   3.077   2.819
  234HOH      O  887   0.241   1.592   2.616
  234HOH     H1  888   0.175   1.580   2.547
  234HOH     H2  889   0.311   1.531   2.592
  235HOH      O  890   2.332   2.946   1.159
  235HOH     H1  891   2.241   2.973   1.148
  235HOH     H2  892   2.368   3.009   1.222
  236HOH      O  893   1.770   0.407   1.955
  236HOH     H1  894   1.840   0.451   2.002
  236HOH     H2  895   1.692   0.459   1.974
  237HOH      O  896   2.129   3.607   1.541
  237HOH     H1  897   2.223   3.596   1.555
  237HOH     H2  898   2.102   3.528   1.494
  238HOH      O  899   0.908   1.605   0.277
  238HOH     H1  900   0.842   1.538   0.255
  238HOH     H2  901   0.991   1.558   0.273
  239HOH      O  902   0.259   2.066   1.912
  239HOH     H1  903   0.180   2.012   1.900
  239HOH     H2  904   0.237   2.123   1.986
  240HOH      O  905   1.275   3.763   3.549
  240HOH     H1  906   1.347   3.777   3.612
  240HOH     H2  907   1.279   3.670   3.528
  241HOH      O  908   0.451   1.220   3.599
  241HOH     H1  909   0.370   1.183   3.564
  241HOH     H2  910   0.449   1.312   3.570
  242HOH      O  911   2.309   2.095   0.435
  242HOH     H1  912   2.229   2.146   0.452
  242HOH     H2  913   2.316   2.094   0.339
  243HOH      O  914   3.337   2.226   2.107
  243HOH     H1  915   3.356   2.305   2.158
  243HOH     H2  916   3.275   2.177   2.161
  244HOH      O  917   1.469   1.530   0.550
  244HOH     H1  918   1.450   1.437   0.557
  244HOH     H2  919   1.565   1.536   0.557
  245HOH      O  920   0.800   0.863   0.646
  245HOH     H1  921   0.764   0.844   0.560
  245HOH     H2  922   0.888   0.896   0.629
  246HOH      O  923   0.222   1.241   3.902
  246HOH     H1  924   0.293   1.179   3.886
  246HOH     H2  925   0.262   1.309   3.957
  247HOH      O  926   0.564   0.738   2.334
  247HOH     H1  927   0.485   0.713   2.382
  247HOH     H2  928   0.604   0.807   2.388
  248HOH      O  929   2.397   3.482   2.959
  248HOH     H1  930   2.392   3.577   2.968
  248HOH     H2  931   2.455   3.454   3.030
  249HOH      O  932   0.778   2.307   0.836
  249HOH     H1  933   0.859   2.255   0.838
  249HOH     H2  934   0.714   2.249   0.795
  250HOH      O  935   2.901   2.170   2.976
  250HOH     H1  936   2.856   2.138   3.054
  250HOH     H2  937   2.835   2.219   2.929
  251HOH      O  938   3.422   2.386   1.404
  251HOH     H1  939   3.494   2.353   1.349
  251HOH     H2  940   3.428   2.481   1.395
  252HOH      O  941   2.941   0.848   0.796
  252HOH     H1  942   2.865   0.801   0.764
  252HOH     H2  943   3.007   0.838   0.727
  253HOH      O  944   3.450   1.136   1.570
  253HOH     H1  945   3.417   1.103   1.486
  253HOH     H2  946   3.505   1.065   1.603
  254HOH      O  947   0.486   0.470   2.331
  254HOH     H1  948   0.570   0.430   2.355
  254HOH     H2  949   0.509   0.558   2.303
  255HOH      O  950   1.513   1.685   3.028
  255HOH     H1  951   1.601   1.672   3.065
  255HOH     H2  952   1.498   1.607   2.975
  256HOH      O  953   2.282   2.380   0.577
  256HOH     H1  954   2.315   2.421   0.657
  256HOH     H2  955   2.186   2.381   0.588
  257HOH      O  956   1.577   3.831   1.823
  257HOH     H1  957   1.624   3.747   1.826
  257HOH     H2  958   1.534   3.830   1.737
  258HOH      O  959   0.656   2.328   0.504
  258HOH     H1  960   0.708   2.386   0.560
  258HOH     H2  961   0.588   2.293   0.563
  259HOH      O  962   1.524   0.761   2.960
  259HOH     H1  963   1.463   0.829   2.931
  259HOH     H2  964   1.560   0.794   3.042
  260HOH      O  965   3.919   3.673   1.441
  260HOH     H1  966   3.973   3.747   1.469
  260HOH     H2  967   3.982   3.604   1.419
  261HOH      O  968   1.843   3.877   3.201
  261HOH     H1  969   1.772   3.814   3.214
  261HOH     H2  970   1.813   3.957   3.245
  262HOH      O  971   4.001   2.647   1.655
  262HOH     H1  972   3.929   2.584   1.655
  262HOH     H2  973   3.973   2.715   1.716
  263HOH      O  974   1.547   4.014   2.003
  263HOH     H1  975   1.560   3.943   1.940
  263HOH     H2  976   1.633   4.056   2.010
  264HOH      O  977   2.444   2.296   2.078
  264HOH     H1  978   2.401   2.248   2.007
  264HOH     H2  979   2.400   2.381   2.079
  265HOH      O  980   0.803   1.841   4.006
  265HOH     H1  981   0.894   1.819   4.024
  265HOH     H2  982   0.782   1.794   3.925
  266HOH      O  983   3.638   1.104   1.991
  266HOH     H1  984   3.556   1.133   2.031
  266HOH     H2  985   3.621   1.013   1.964
  267HOH      O  986   3.727   3.603   1.611
  267HOH     H1  987   3.792   3.605   1.541
  267HOH     H2  988   3.737   3.516   1.650
  268HOH      O  989   1.174   0.440   1.145
  268HOH     H1  990   1.155   0.481   1.060
  268HOH     H2  991   1.269   0.448   1.154
  269HOH      O  992   1.081   0.696   1.579
  269HOH     H1  993   1.175   0.710   1.564
  269HOH     H2  994   1.045   0.682   1.491
  270HOH      O  995   2.131   0.085   0.767
  270HOH     H1  996   2.057   0.040   0.809
  270HOH     H2  997   2.136   0.047   0.680
  271HOH      O  998   1.623   3.514   3.300
  271HOH     H1  999   1.668   3.434   3.327
  271HOH     H2 1000   1.561   3.485   3.233
  272HOH      O 1001   2.640   0.840   3.162
  272HOH     H1 1002   2.560   0.884   3.132
  272HOH     H2 1003   2.631   0.839   3.258
  273HOH      O 1004   1.390   3.243  -0.024
  273HOH     H1 1005   1.476   3.236   0.017
  273HOH     H2 1006   1.340   3.301   0.033
  274HOH      O 1007   2.242   3.777   3.919
  274HOH     H1 1008   2.166   3.739   3.875
  274HOH     H2 1009   2.236   3.871   3.901
  275HOH      O 1010   1.977   2.448   2.309
  275HOH     H1 1011   1.955   2.410   2.225
  275HOH     H2 1012   1.982   2.542   2.293
  276HOH      O 1013   1.864   1.994   1.897
  276HOH     H1 1014   1.946   2.019   1.941
  276HOH     H2 1015   1.817   2.077   1.886
  277HOH      O 1016   0.128   0.782   2.815
  277HOH     H1 1017   0.095   0.778   2.725
  277HOH     H2 1018   0.072   0.720   2.863
  278HOH      O 1019   1.245   3.613   2.384
  278HOH     H1 1020   1.159   3.571   2.378
  278HOH     H2 1021   1.307   3.543   2.363
  279HOH      O 1022   0.179   2.257   2.395
  279HOH     H1 1023   0.103   2.291   2.443
  279HOH     H2 1024   0.231   2.212   2.462
  280HOH      O 1025   3.174   0.538   0.425
  280HOH     H1 1026   3.144   0.504   0.510
  280HOH     H2 1027   3.114   0.610   0.406
  281HOH      O 1028   3.258   3.790   2.128
  281HOH     H1 1029   3.227   3.761   2.042
  281HOH     H2 1030   3.339   3.837   2.110
  282HOH      O 1031   2.635   3.965   2.105
  282HOH     H1 1032   2.564   3.921   2.152
  282HOH     H2 1033   2.631   4.056   2.135
  283HOH      O 1034   3.437   3.279   2.970
  283HOH     H1 1035   3.396   3.197   2.943
  283HOH     H2 1036   3.415   3.286   3.063
  284HOH      O 1037   0.241   0.162   2.256
  284HOH     H1 1038   0.167   0.111   2.224
  284HOH     H2 1039   0.204   0.250   2.270
  285HOH      O 1040   3.126   1.284   0.073
  285HOH     H1 1041   3.090   1.371   0.060
  285HOH     H2 1042   3.219   1.298   0.089
  286HOH      O 1043   0.370   2.702   0.156
  286HOH     H1 1044   0.276   2.720   0.165
  286HOH     H2 1045   0.402   2.771   0.098
  287HOH      O 1046   1.000   2.719   0.684
  287HOH     H1 1047   1.066   2.757   0.742
  287HOH     H2 1048   0.943   2.793   0.661
  288HOH      O 1049   0.326   3.706   2.208
  288HOH     H1 1050   0.421   3.707   2.203
  288HOH     H2 1051   0.306   3.640   2.275
  289HOH      O 1052   3.699   2.369   3.646
  289HOH     H1 1053   3.788   2.403   3.654
  289HOH     H2 1054   3.704   2.300   3.580
  290HOH      O 1055   3.305   1.951   2.617
  290HOH     H1 1056   3.321   1.894   2.692
  290HOH     H2 1057   3.210   1.950   2.606
  291HOH      O 1058   1.277   3.516   0.509
  291HOH     H1 1059   1.359   3.528   0.462
  291HOH     H2 1060   1.210   3.516   0.441
  292HOH      O 1061   1.641   2.859   2.079
  292HOH     H1 1062   1.727   2.889   2.050
  292HOH     H2 1063   1.659   2.813   2.161
  293HOH      O 1064   3.568   0.064   1.215
  293HOH     H1 1065   3.597  -0.027   1.222
  293HOH     H2 1066   3.629   0.113   1.272
  294HOH      O 1067   1.309   3.672   3.252
  294HOH     H1 1068   1.324   3.765   3.269
  294HOH     H2 1069   1.376   3.649   3.188
  295HOH      O 1070   0.765   1.697   0.992
  295HOH     H1 1071   0.793   1.704   1.083
  295HOH     H2 1072   0.670   1.686   0.996
  296HOH      O 1073   0.031   2.410   2.580
  296HOH     H1 1074  -0.045   2.384   2.632
  296HOH     H2 1075   0.086   2.461   2.639
  297HOH      O 1076   4.034   0.036   2.178
  297HOH     H1 1077   4.074  -0.050   2.173
  297HOH     H2 1078   3.942   0.021   2.154
  298HOH      O 1079   2.499   2.785   1.572
  298HOH     H1 1080   2.428   2.809   1.513
  298HOH     H2 1081   2.486   2.841   1.649
  299HOH      O 1082   0.392   1.944   3.876
  299HOH     H1 1083   0.442   2.016   3.915
  299HOH     H2 1084   0.374   1.885   3.949
  300HOH      O 1085   3.428   2.757   1.046
  300HOH     H1 1086   3.378   2.706   0.983
  300HOH     H2 1087   3.370   2.766   1.121
  301HOH      O 1088   2.391   2.496   0.306
  301HOH     H1 1089   2.481   2.486   0.337
  301HOH     H2 1090   2.341   2.516   0.384
  302HOH      O 1091   0.651   2.079   1.377
  302HOH     H1 1092   0.617   2.037   1.457
  302HOH     H2 1093   0.736   2.114   1.403
  303HOH      O 1094   1.326   2.986   2.548
  303HOH     H1 1095   1.254   2.979   2.611
  303HOH     H2 1096   1.318   2.909   2.493
  304HOH      O 1097   3.939   3.824   2.388
  304HOH     H1 1098   3.998   3.870   2.447
  304HOH     H2 1099   3.985   3.823   2.304
  305HOH      O 1100   1.811   2.599   0.720
  305HOH     H1 1101   1.820   2.689   0.750
  305HOH     H2 1102   1.720   2.591   0.693
  306HOH      O 1103   0.405   2.607   3.361
  306HOH     H1 1104   0.323   2.602   3.411
  306HOH     H2 1105   0.460   2.665   3.412
  307HOH      O 1106   2.375   1.769   2.905
  307HOH     H1 1107   2.435   1.726   2.966
  307HOH     H2 1108   2.351   1.851   2.949
  308HOH      O 1109   3.050   3.155   3.731
  308HOH     H1 1110   3.114   3.127   3.666
  308HOH     H2 1111   2.970   3.106   3.710
  309HOH      O 1112   3.538   1.052   0.713
  309HOH     H1 1113   3.547   0.985   0.781
  309HOH     H2 1114   3.607   1.030   0.649
  310HOH      O 1115   0.776   1.971   3.648
  310HOH     H1 1116   0.816   1.887   3.625
  310HOH     H2 1117   0.682   1.954   3.648
  311HOH      O 1118   3.374   2.671   0.527
  311HOH     H1 1119   3.444   2.644   0.469
  311HOH     H2 1120   3.410   2.744   0.577
  312HOH      O 1121   1.631   0.351   0.065
  312HOH     H1 1122   1.565   0.405   0.022
  312HOH     H2 1123   1.596   0.262   0.061
  313HOH      O 1124   2.282   3.352   2.518
  313HOH     H1 1125   2.298   3.435   2.473
  313HOH     H2 1126   2.347   3.349   2.588
  314HOH      O 1127   1.164   0.469   1.835
  314HOH     H1 1128   1.170   0.559   1.865
  314HOH     H2 1129   1.126   0.476   1.747
  315HOH      O 1130   0.058   3.424   3.258
  315HOH     H1 1131   0.151   3.444   3.248
  315HOH     H2 1132   0.056   3.338   3.300
  316HOH      O 1133   3.479   3.920   2.041
  316HOH     H1 1134   3.499   3.866   1.964
  316HOH     H2 1135   3.502   4.009   2.014
  317HOH      O 1136   1.126   2.198   2.570
  317HOH     H1 1137   1.080   2.261   2.625
  317HOH     H2 1138   1.218   2.226   2.572
  318HOH      O 1139   2.771   0.430   3.986
  318HOH     H1 1140   2.698   0.386   3.944
  318HOH     H2 1141   2.730   0.492   4.047
  319HOH      O 1142   1.600   3.780   3.321
  319HOH     H1 1143   1.572   3.809   3.234
  319HOH     H2 1144   1.597   3.684   3.316
  320HOH      O 1145   0.372   1.108   2.667
  320HOH     H1 1146   0.355   1.100   2.761
  320HOH     H2 1147   0.468   1.106   2.661
  321HOH      O 1148   2.769   0.427   1.692
  321HOH     H1 1149   2.763   0.467   1.606
  321HOH     H2 1150   2.830   0.482   1.741
  322HOH      O 1151   2.985   2.646   1.565
  322HOH     H1 1152   2.910   2.592   1.589
  322HOH     H2 1153   3.054   2.620   1.627
  323HOH      O 1154   3.916   1.444   2.011
  323HOH     H1 1155   3.906   1.527   2.056
  323HOH     H2 1156   3.903   1.465   1.918
  324HOH      O 1157   1.482   3.699   0.116
  324HOH     H1 1158   1.536   3.641   0.062
  324HOH     H2 1159   1.491   3.785   0.074
  325HOH      O 1160   0.644   0.123   3.823
  325HOH     H1 1161   0.589   0.067   3.877
  325HOH     H2 1162   0.664   0.070   3.746
  326HOH      O 1163   2.981   0.951   0.139
  326HOH     H1 1164   2.994   1.011   0.212
  326HOH     H2 1165   3.058   0.963   0.084
  327HOH      O 1166   1.148   2.653   1.904
  327HOH     H1 1167   1.239   2.666   1.933
  327HOH     H2 1168   1.148   2.566   1.863
  328HOH      O 1169   3.487   1.011   3.574
  328HOH     H1 1170   3.413   0.963   3.537
  328HOH     H2 1171   3.467   1.103   3.556
  329HOH      O 1172   0.389   3.197   2.157
  329HOH     H1 1173   0.322   3.153   2.104
  329HOH     H2 1174   0.354   3.193   2.246
  330HOH      O 1175   2.925   1.755   0.394
  330HOH     H1 1176   2.997   1.709   0.438
  330HOH     H2 1177   2.848   1.734   0.446
  331HOH      O 1178   2.760   3.435   3.352
  331HOH     H1 1179   2.854   3.429   3.365
  331HOH     H2 1180   2.725   3.358   3.397
  332HOH      O 1181   2.574   3.236   2.358
  332HOH     H1 1182   2.648   3.233   2.420
  332HOH     H2 1183   2.577   3.325   2.323
  333HOH      O 1184   1.007   2.258   0.348
  333HOH     H1 1185   1.070   2.222   0.411
  333HOH     H2 1186   0.926   2.210   0.366
  334HOH      O 1187   1.446   1.494   2.760
  334HOH     H1 1188   1.534   1.524   2.739
  334HOH     H2 1189   1.448   1.400   2.742
  335HOH      O 1190   3.776   3.461   2.266
  335HOH     H1 1191   3.691   3.496   2.292
  335HOH     H2 1192   3.755   3.403   2.193
  336HOH      O 1193   0.335   2.033   0.429
  336HOH     H1 1194   0.363   2.075   0.348
  336HOH     H2 1195   0.276   2.096   0.470
  337HOH      O 1196   3.866   1.448   3.352
  337HOH     H1 1197   3.849   1.366   3.306
  337HOH     H2 1198   3.878   1.513   3.283
  338HOH      O 1199   1.141   0.204   1.255
  338HOH     H1 1200   1.166   0.220   1.346
  338HOH     H2 1201   1.128   0.292   1.219
  339HOH      O 1202   3.320   1.869   1.982
  339HOH     H1 1203   3.374   1.798   1.947
  339HOH     H2 1204   3.251   1.825   2.031
  340HOH      O 1205   2.837   0.579   3.084
  340HOH     H1 1206   2.788   0.533   3.016
  340HOH     H2 1207   2.848   0.668   3.050
  341HOH      O 1208   3.863   2.288   2.034
  341HOH     H1 1209   3.769   2.276   2.016
  341HOH     H2 1210   3.872   2.268   2.127
  342HOH      O 1211   0.053   0.793   1.266
  342HOH     H1 1212   0.059   0.707   1.308
  342HOH     H2 1213   0.138   0.805   1.224
  343HOH      O 1214   3.979   0.060   4.057
  343HOH     H1 1215   4.009  -0.008   3.997
  343HOH     H2 1216   4.011   0.142   4.020
  344HOH      O 1217   1.717   3.538   0.930
  344HOH     H1 1218   1.690   3.446   0.923
  344HOH     H2 1219   1.684   3.578   0.850
  345HOH      O 1220   2.102   0.888   0.773
  345HOH     H1 1221   2.138   0.807   0.737
  345HOH     H2 1222   2.079   0.865   0.863
  346HOH      O 1223   3.992   2.821   2.600
  346HOH     H1 1224   3.999   2.764   2.676
  346HOH     H2 1225   3.977   2.908   2.636
  347HOH      O 1226   1.070   3.771   1.365
  347HOH     H1 1227   1.041   3.833   1.432
  347HOH     H2 1228   1.141   3.817   1.320
  348HOH      O 1229   0.440   1.405   2.603
  348HOH     H1 1230   0.495   1.427   2.527
  348HOH     H2 1231   0.418   1.313   2.591
  349HOH      O 1232   2.600   0.226   2.143
  349HOH     H1 1233   2.519   0.255   2.102
  349HOH     H2 1234   2.665   0.290   2.115
  350HOH      O 1235   3.823   0.791   0.340
  350HOH     H1 1236   3.802   0.796   0.246
  350HOH     H2 1237   3.737   0.786   0.382
  351HOH      O 1238   2.864   2.386   1.184
  351HOH     H1 1239   2.813   2.462   1.157
  351HOH     H2 1240   2.821   2.354   1.263
  352HOH      O 1241   3.623   0.297   3.861
  352HOH     H1 1242   3.541   0.342   3.880
  352HOH     H2 1243   3.600   0.230   3.796
  353HOH      O 1244   2.973   0.157   2.317
  353HOH     H1 1245   2.898   0.156   2.377
  353HOH     H2 1246   2.999   0.065   2.309
  354HOH      O 1247   2.208   1.120   0.109
  354HOH     H1 1248   2.176   1.152   0.193
  354HOH     H2 1249   2.265   1.191   0.076
  355HOH      O 1250   0.021   1.499   0.653
  355HOH     H1 1251   0.112   1.499   0.624
  355HOH     H2 1252   0.003   1.407   0.675
  356HOH      O 1253   0.582   2.945   1.340
  356HOH     H1 1254   0.564   3.028   1.295
  356HOH     H2 1255   0.559   2.963   1.431
  357HOH      O 1256   0.338   2.836   0.858
  357HOH     H1 1257   0.248   2.832   0.827
  357HOH     H2 1258   0.391   2.836   0.778
  358HOH      O 1259   2.530   1.060   3.012
  358HOH     H1 1260   2.451   1.101   2.976
  358HOH     H2 1261   2.571   1.018   2.936
  359HOH      O 1262   0.171   3.836   0.621
  359HOH     H1 1263   0.135   3.750   0.641
  359HOH     H2 1264   0.154   3.848   0.528
  360HOH      O 1265   3.525   2.939   3.855
  360HOH     H1 1266   3.504   2.854   3.894
  360HOH     H2 1267   3.509   2.927   3.762
  361HOH      O 1268   1.548   2.345   3.225
  361HOH     H1 1269   1.506   2.260   3.213
  361HOH     H2 1270   1.492   2.406   3.176
  362HOH      O 1271   0.856   2.551   1.709
  362HOH     H1 1272   0.814   2.500   1.778
  362HOH     H2 1273   0.824   2.512   1.628
  363HOH      O 1274   2.005   0.559   2.777
  363HOH     H1 1275   1.968   0.484   2.822
  363HOH     H2 1276   1.937   0.585   2.715
  364HOH      O 1277   1.017   0.369   3.902
  364HOH     H1 1278   1.010   0.393   3.994
  364HOH     H2 1279   0.926   0.363   3.872
  365HOH      O 1280   3.970   3.494   2.708
  365HOH     H1 1281   4.027   3.474   2.634
  365HOH     H2 1282   4.029   3.509   2.782
  366HOH      O 1283   1.536   2.540   0.673
  366HOH     H1 1284   1.474   2.562   0.603
  366HOH     H2 1285   1.525   2.446   0.686
  367HOH      O 1286   1.832   1.867   3.256
  367HOH     H1 1287   1.926   1.878   3.268
  367HOH     H2 1288   1.800   1.841   3.342
  368HOH      O 1289   1.770   0.391   2.936
  368HOH     H1 1290   1.707   0.391   3.008
  368HOH     H2 1291   1.760   0.477   2.895
  369HOH      O 1292   3.921   0.598   0.032
  369HOH     H1 1293   3.890   0.557  -0.048
  369HOH     H2 1294   3.915   0.530   0.099
  370HOH      O 1295   0.410   0.037   2.421
  370HOH     H1 1296   0.350   0.075   2.357
  370HOH     H2 1297   0.467  -0.021   2.369
  371HOH      O 1298   1.024   2.340   3.434
  371HOH     H1 1299   1.119   2.341   3.441
  371HOH     H2 1300   0.995   2.294   3.513
  372HOH      O 1301   1.598   2.353   3.904
  372HOH     H1 1302   1.593   2.350   3.808
  372HOH     H2 1303   1.606   2.262   3.931
  373HOH      O 1304   1.343   2.633   1.105
  373HOH     H1 1305   1.343   2.602   1.196
  373HOH     H2 1306   1.277   2.702   1.103
  374HOH      O 1307   3.339   1.436   2.939
  374HOH     H1 1308   3.245   1.423   2.946
  374HOH     H2 1309   3.373   1.413   3.026
  375HOH      O 1310   1.462   1.905   2.672
  375HOH     H1 1311   1.487   1.820   2.708
  375HOH     H2 1312   1.542   1.938   2.631
  376HOH      O 1313   3.371   2.132   3.411
  376HOH     H1 1314   3.394   2.040   3.402
  376HOH     H2 1315   3.307   2.134   3.482
  377HOH      O 1316   1.805   2.922   0.810
  377HOH     H1 1317   1.715   2.953   0.817
  377HOH     H2 1318   1.845   2.980   0.745
  378HOH      O 1319   3.697   1.899   4.051
  378HOH     H1 1320   3.620   1.853   4.018
  378HOH     H2 1321   3.709   1.973   3.991
  379HOH      O 1322   1.660   1.381   3.655
  379HOH     H1 1323   1.658   1.319   3.582
  379HOH     H2 1324   1.694   1.331   3.728
  380HOH      O 1325   3.475   3.806   2.870
  380HOH     H1 1326   3.403   3.855   2.908
  380HOH     H2 1327   3.447   3.715   2.873
  381HOH      O 1328   0.809   2.505   1.015
  381HOH     H1 1329   0.794   2.445   0.942
  381HOH     H2 1330   0.769   2.587   0.988
  382HOH      O 1331   0.034   2.904   0.851
  382HOH     H1 1332   0.010   2.841   0.919
  382HOH     H2 1333   0.101   2.959   0.892
  383HOH      O 1334   0.248   0.468   2.184
  383HOH     H1 1335   0.281   0.443   2.098
  383HOH     H2 1336   0.322   0.456   2.243
  384HOH      O 1337   2.565   2.515   3.299
  384HOH     H1 1338   2.512   2.436   3.296
  384HOH     H2 1339   2.653   2.486   3.275
  385HOH      O 1340   3.155   3.892   0.878
  385HOH     H1 1341   3.206   3.819   0.913
  385HOH     H2 1342   3.075   3.894   0.931
  386HOH      O 1343   3.337   0.281   3.136
  386HOH     H1 1344   3.273   0.285   3.065
  386HOH     H2 1345   3.368   0.372   3.145
  387HOH      O 1346   3.062   1.545   0.010
  387HOH     H1 1347   3.154   1.546  -0.018
  387HOH     H2 1348   3.048   1.631   0.049
  388HOH      O 1349   0.132   1.123   1.714
  388HOH     H1 1350   0.075   1.168   1.651
  388HOH     H2 1351   0.187   1.193   1.751
  389HOH      O 1352   3.538   3.261   2.435
  389HOH     H1 1353   3.577   3.270   2.521
  389HOH     H2 1354   3.466   3.324   2.434
  390HOH      O 1355   2.901   2.009   3.556
  390HOH     H1 1356   2.837   1.988   3.624
  390HOH     H2 1357   2.848   2.026   3.478
  391HOH      O 1358   1.326   1.410   3.429
  391HOH     H1 1359   1.414   1.373   3.431
  391HOH     H2 1360   1.273   1.343   3.387
  392HOH      O 1361   0.445   1.878   2.186
  392HOH     H1 1362   0.536   1.906   2.191
  392HOH     H2 1363   0.411   1.919   2.107
  393HOH      O 1364   1.722   2.083   3.159
  393HOH     H1 1365   1.752   1.993   3.172
  393HOH     H2 1366   1.773   2.135   3.221
  394HOH      O 1367   2.611   1.282   1.771
  394HOH     H1 1368   2.595   1.323   1.686
  394HOH     H2 1369   2.658   1.349   1.821
  395HOH      O 1370   3.347   1.068   2.097
  395HOH     H1 1371   3.282   1.135   2.116
  395HOH     H2 1372   3.406   1.070   2.173
  396HOH      O 1373   3.796   1.881   1.092
  396HOH     H1 1374   3.816   1.925   1.009
  396HOH     H2 1375   3.852   1.926   1.156
  397HOH      O 1376   1.199   1.271   2.785
  397HOH     H1 1377   1.279   1.234   2.821
  397HOH     H2 1378   1.169   1.334   2.851
  398HOH      O 1379   0.952   3.675   3.510
  398HOH     H1 1380   1.026   3.666   3.571
  398HOH     H2 1381   0.988   3.722   3.435
  399HOH      O 1382   2.309   1.058   0.729
  399HOH     H1 1383   2.291   1.079   0.637
  399HOH     H2 1384   2.237   1.000   0.754
  400HOH      O 1385   3.020   2.013   2.533
  400HOH     H1 1386   3.006   2.053   2.619
  400HOH     H2 1387   2.936   2.022   2.488
  401HOH      O 1388   2.853   0.639   3.798
  401HOH     H1 1389   2.824   0.575   3.863
  401HOH     H2 1390   2.795   0.625   3.723
  402HOH      O 1391   1.150   2.981   0.024
  402HOH     H1 1392   1.166   3.011   0.114
  402HOH     H2 1393   1.088   2.909   0.035
  403HOH      O 1394   1.405   2.706   2.016
  403HOH     H1 1395   1.461   2.765   2.067
  403HOH     H2 1396   1.456   2.684   1.939
  404HOH      O 1397   3.376   3.535   2.908
  404HOH     H1 1398   3.395   3.442   2.918
  404HOH     H2 1399   3.359   3.567   2.997
  405HOH      O 1400   2.491   1.807   2.633
  405HOH     H1 1401   2.451   1.740   2.578
  405HOH     H2 1402   2.439   1.805   2.714
  406HOH      O 1403   3.625   2.803   3.428
  406HOH     H1 1404   3.610   2.779   3.337
  406HOH     H2 1405   3.656   2.722   3.469
  407HOH      O 1406   0.439   2.851   1.943
  407HOH     H1 1407   0.476   2.789   2.006
  407HOH     H2 1408   0.498   2.847   1.867
  408HOH      O 1409   1.090   1.905   2.836
  408HOH     H1 1410   1.106   1.906   2.741
  408HOH     H2 1411   1.020   1.969   2.849
  409HOH      O 1412   1.732   0.817   2.654
  409HOH     H1 1413   1.811   0.860   2.622
  409HOH     H2 1414   1.680   0.801   2.576
  410HOH      O 1415   2.362   3.207   2.164
  410HOH     H1 1416   2.404   3.124   2.185
  410HOH     H2 1417   2.429   3.273   2.181
  411HOH      O 1418   2.453   1.151   1.945
  411HOH     H1 1419   2.510   1.203   1.888
  411HOH     H2 1420   2.434   1.072   1.893
  412HOH      O 1421   0.559   3.184   3.534
  412HOH     H1 1422   0.514   3.264   3.559
  412HOH     H2 1423   0.488   3.122   3.515
  413HOH      O 1424   3.779   1.077   0.941
  413HOH     H1 1425   3.798   1.037   0.856
  413HOH     H2 1426   3.757   1.003   0.997
  414HOH      O 1427   2.285   1.505   0.586
  414HOH     H1 1428   2.243   1.492   0.501
  414HOH     H2 1429   2.314   1.417   0.612
  415HOH      O 1430   2.896   1.086   3.548
  415HOH     H1 1431   2.984   1.054   3.572
  415HOH     H2 1432   2.893   1.076   3.452
  416HOH      O 1433   0.972   3.469   1.711
  416HOH     H1 1434   0.999   3.378   1.718
  416HOH     H2 1435   1.026   3.506   1.642
  417HOH      O 1436   3.256   0.101   3.638
  417HOH     H1 1437   3.256   0.142   3.552
  417HOH     H2 1438   3.348   0.097   3.663
  418HOH      O 1439   0.892   1.313   1.763
  418HOH     H1 1440   0.930   1.400   1.770
  418HOH     H2 1441   0.954   1.257   1.811
  419HOH      O 1442   2.211   0.293   1.221
  419HOH     H1 1443   2.289   0.348   1.232
  419HOH     H2 1444   2.233   0.212   1.266
  420HOH      O 1445   3.083   3.157   0.194
  420HOH     H1 1446   3.026   3.219   0.148
  420HOH     H2 1447   3.150   3.134   0.130
  421HOH      O 1448   3.384   2.764   2.124
  421HOH     H1 1449   3.397   2.759   2.219
  421HOH     H2 1450   3.312   2.826   2.113
  422HOH      O 1451   3.767   1.163   3.582
  422HOH     H1 1452   3.718   1.130   3.658
  422HOH     H2 1453   3.701   1.205   3.527
  423HOH      O 1454   1.855   0.923   2.874
  423HOH     H1 1455   1.794   0.872   2.821
  423HOH     H2 1456   1.889   0.860   2.938
  424HOH      O 1457   3.483   1.618   3.286
  424HOH     H1 1458   3.438   1.556   3.228
  424HOH     H2 1459   3.482   1.575   3.372
  425HOH      O 1460   3.024   2.162   1.890
  425HOH     H1 1461   3.110   2.199   1.874
  425HOH     H2 1462   3.016   2.089   1.828
  426HOH      O 1463   2.237   0.575   2.928
  426HOH     H1 1464   2.182   0.602   2.855
  426HOH     H2 1465   2.215   0.484   2.943
  427HOH      O 1466   3.888   3.283   1.434
  427HOH     H1 1467   3.938   3.308   1.356
  427HOH     H2 1468   3.797   3.279   1.403
  428HOH      O 1469   0.048   1.048   2.903
  428HOH     H1 1470   0.006   1.080   2.823
  428HOH     H2 1471   0.100   0.973   2.874
  429HOH      O 1472   1.393   3.862   2.403
  429HOH     H1 1473   1.321   3.925   2.409
  429HOH     H2 1474   1.354   3.785   2.360
  430HOH      O 1475   1.708   0.894   0.733
  430HOH     H1 1476   1.691   0.808   0.695
  430HOH     H2 1477   1.675   0.887   0.823
  431HOH      O 1478   1.343   0.718   1.493
  431HOH     H1 1479   1.385   0.637   1.465
  431HOH     H2 1480   1.414   0.768   1.534
  432HOH      O 1481   0.608   1.428   0.579
  432HOH     H1 1482   0.667   1.399   0.509
  432HOH     H2 1483   0.642   1.513   0.606
  433HOH      O 1484   1.285   0.807   3.821
  433HOH     H1 1485   1.372   0.784   3.790
  433HOH     H2 1486   1.231   0.729   3.803
  434HOH      O 1487   2.194   2.726   0.210
  434HOH     H1 1488   2.129   2.776   0.261
  434HOH     H2 1489   2.175   2.634   0.232
  435HOH      O 1490   3.013   1.827   3.922
  435HOH     H1 1491   3.022   1.740   3.882
  435HOH     H2 1492   3.026   1.812   4.016
  436HOH      O 1493   1.508   3.071   1.196
  436HOH     H1 1494   1.480   2.991   1.240
  436HOH     H2 1495   1.427   3.108   1.161
  437HOH      O 1496   0.963   2.763   1.601
  437HOH     H1 1497   0.934   2.705   1.672
  437HOH     H2 1498   0.951   2.851   1.636
  438HOH      O 1499   2.598   2.030   3.033
  438HOH     H1 1500   2.626   1.939   3.019
  438HOH     H2 1501   2.668   2.069   3.085
  439HOH      O 1502   3.010   1.127   1.252
  439HOH     H1 1503   3.005   1.044   1.204
  439HOH     H2 1504   2.942   1.120   1.320
  440HOH      O 1505   3.267   4.027   1.561
  440HOH     H1 1506   3.218   4.009   1.642
  440HOH     H2 1507   3.255   3.949   1.508
  441HOH      O 1508   0.674   0.339   3.523
  441HOH     H1 1509   0.751   0.288   3.499
  441HOH     H2 1510   0.639   0.370   3.439
  442HOH      O 1511   2.932   0.222   3.281
  442HOH     H1 1512   2.909   0.261   3.366
  442HOH     H2 1513   2.854   0.172   3.256
  443HOH      O 1514   1.647   3.817   2.318
  443HOH     H1 1515   1.558   3.813   2.352
  443HOH     H2 1516   1.694   3.748   2.366
  444HOH      O 1517   1.661   0.253   2.231
  444HOH     H1 1518   1.624   0.192   2.296
  444HOH     H2 1519   1.690   0.196   2.159
  445HOH      O 1520   2.880   0.942   2.580
  445HOH     H1 1521   2.906   1.017   2.526
  445HOH     H2 1522   2.813   0.977   2.639
  446HOH      O 1523   2.488   3.665   3.956
  446HOH     H1 1524   2.546   3.653   3.881
  446HOH     H2 1525   2.414   3.714   3.921
  447HOH      O 1526   2.526   2.960   2.149
  447HOH     H1 1527   2.561   2.922   2.230
  447HOH     H2 1528   2.570   2.911   2.080
  448HOH      O 1529   1.702   1.223   2.750
  448HOH     H1 1530   1.714   1.240   2.657
  448HOH     H2 1531   1.790   1.200   2.781
  449HOH      O 1532   4.005   2.616   2.809
  449HOH     H1 1533   3.966   2.654   2.888
  449HOH     H2 1534   3.950   2.540   2.790
  450HOH      O 1535   3.879   1.558   3.080
  450HOH     H1 1536   3.845   1.611   3.009
  450HOH     H2 1537   3.964   1.527   3.049
  451HOH      O 1538   2.735   3.036   1.812
  451HOH     H1 1539   2.666   3.038   1.746
  451HOH     H2 1540   2.750   2.942   1.827
  452HOH      O 1541   0.571   3.198   1.216
  452HOH     H1 1542   0.555   3.288   1.243
  452HOH     H2 1543   0.516   3.187   1.138
  453HOH      O 1544   4.003   0.200   0.455
  453HOH     H1 1545   4.008   0.152   0.538
  453HOH     H2 1546   3.912   0.193   0.429
  454HOH      O 1547   1.642   2.921   0.558
  454HOH     H1 1548   1.608   2.984   0.495
  454HOH     H2 1549   1.598   2.942   0.640
  455HOH      O 1550   0.098   1.781   3.191
  455HOH     H1 1551   0.174   1.836   3.208
  455HOH     H2 1552   0.067   1.807   3.104
  456HOH      O 1553   3.164   3.152   0.444
  456HOH     H1 1554   3.132   3.181   0.358
  456HOH     H2 1555   3.177   3.058   0.435
  457HOH      O 1556   3.346   0.977   2.908
  457HOH     H1 1557   3.362   0.902   2.850
  457HOH     H2 1558   3.410   0.966   2.978
  458HOH      O 1559   3.665   3.599   0.571
  458HOH     H1 1560   3.633   3.680   0.531
  458HOH     H2 1561   3.586   3.546   0.584
  459HOH      O 1562   3.087   3.203   3.257
  459HOH     H1 1563   3.155   3.254   3.212
  459HOH     H2 1564   3.048   3.265   3.319
  460HOH      O 1565   2.016   0.763   3.509
  460HOH     H1 1566   2.093   0.785   3.456
  460HOH     H2 1567   2.003   0.670   3.496
  461HOH      O 1568   4.038   3.752   3.047
  461HOH     H1 1569   3.955   3.795   3.024
  461HOH     H2 1570   4.083   3.742   2.963
  462HOH      O 1571   0.431   2.231   1.705
  462HOH     H1 1572   0.483   2.155   1.678
  462HOH     H2 1573   0.371   2.197   1.771
  463HOH      O 1574   1.856   0.999   3.586
  463HOH     H1 1575   1.948   0.973   3.587
  463HOH     H2 1576   1.847   1.055   3.509
  464HOH      O 1577   0.616   1.726   2.999
  464HOH     H1 1578   0.684   1.667   3.032
  464HOH     H2 1579   0.658   1.771   2.925
  465HOH      O 1580   1.636   0.805   3.198
  465HOH     H1 1581   1.670   0.766   3.278
  465HOH     H2 1582   1.706   0.861   3.167
  466HOH      O 1583   0.768   2.367   2.770
  466HOH     H1 1584   0.825   2.420   2.827
  466HOH     H2 1585   0.815   2.285   2.760
  467HOH      O 1586   3.782   0.553   2.611
  467HOH     H1 1587   3.804   0.622   2.548
  467HOH     H2 1588   3.802   0.471   2.565
  468HOH      O 1589   0.635   1.283   3.360
  468HOH     H1 1590   0.562   1.270   3.422
  468HOH     H2 1591   0.679   1.198   3.357
  469HOH      O 1592   2.358   0.059   0.907
  469HOH     H1 1593   2.314   0.053   0.992
  469HOH     H2 1594   2.289   0.087   0.847
  470HOH      O 1595   2.500   0.017   3.814
  470HOH     H1 1596   2.488  -0.038   3.736
  470HOH     H2 1597   2.411   0.035   3.844
  471HOH      O 1598   1.931   3.479   3.003
  471HOH     H1 1599   2.011   3.447   2.963
  471HOH     H2 1600   1.925   3.571   2.975
  472HOH      O 1601   3.099   0.178   1.355
  472HOH     H1 1602   3.182   0.196   1.311
  472HOH     H2 1603   3.120   0.114   1.422
  473HOH      O 1604   0.655   2.759   1.750
  473HOH     H1 1605   0.727   2.707   1.713
  473HOH     H2 1606   0.577   2.726   1.705
  474HOH      O 1607   0.238   2.838   2.608
  474HOH     H1 1608   0.154   2.828   2.564
  474HOH     H2 1609   0.222   2.905   2.675
  475HOH      O 1610   1.498   3.952   2.655
  475HOH     H1 1611   1.496   3.922   2.564
  475HOH     H2 1612   1.591   3.955   2.677
  476HOH      O 1613   2.326   2.949   3.830
  476HOH     H1 1614   2.367   3.022   3.876
  476HOH     H2 1615   2.266   2.910   3.893
  477HOH      O 1616   1.991   2.013   0.052
  477HOH     H1 1617   1.995   2.094   0.103
  477HOH     H2 1618   1.943   2.037  -0.028
  478HOH      O 1619   0.764   1.387   3.132
  478HOH     H1 1620   0.685   1.364   3.181
  478HOH     H2 1621   0.803   1.458   3.183
  479HOH      O 1622   1.012   1.573   2.035
  479HOH     H1 1623   1.098   1.583   2.075
  479HOH     H2 1624   0.999   1.653   1.984
  480HOH      O 1625   3.448   3.898   3.286
  480HOH     H1 1626   3.516   3.856   3.234
  480HOH     H2 1627   3.472   3.990   3.289
  481HOH      O 1628   0.793   2.436   1.967
  481HOH     H1 1629   0.865   2.373   1.958
  481HOH     H2 1630   0.828   2.505   2.023
  482HOH      O 1631   3.006   0.569   0.646
  482HOH     H1 1632   2.962   0.485   0.651
  482HOH     H2 1633   2.935   0.634   0.645
  483HOH      O 1634   2.428   0.818   2.832
  483HOH     H1 1635   2.503   0.764   2.806
  483HOH     H2 1636   2.352   0.771   2.798
  484HOH      O 1637   0.691   3.695   2.574
  484HOH     H1 1638   0.605   3.721   2.608
  484HOH     H2 1639   0.706   3.754   2.500
  485HOH      O 1640   0.714   1.862   2.801
  485HOH     H1 1641   0.738   1.934   2.742
  485HOH     H2 1642   0.774   1.791   2.777
  486HOH      O 1643   2.591   3.269   1.856
  486HOH     H1 1644   2.671   3.218   1.844
  486HOH     H2 1645   2.555   3.278   1.767
  487HOH      O 1646   3.317   0.129   2.699
  487HOH     H1 1647   3.396   0.102   2.746
  487HOH     H2 1648   3.273   0.048   2.677
  488HOH      O 1649   1.881   1.389   2.917
  488HOH     H1 1650   1.925   1.334   2.853
  488HOH     H2 1651   1.947   1.453   2.943
  489HOH      O 1652   0.356   1.840   1.313
  489HOH     H1 1653   0.304   1.764   1.287
  489HOH     H2 1654   0.444   1.822   1.279
  490HOH      O 1655   1.296   2.005   1.157
  490HOH     H1 1656   1.386   2.004   1.123
  490HOH     H2 1657   1.246   1.956   1.092
  491HOH      O 1658   2.290   2.220   3.809
  491HOH     H1 1659   2.335   2.261   3.735
  491HOH     H2 1660   2.360   2.174   3.856
  492HOH      O 1661   3.867   3.752   0.664
  492HOH     H1 1662   3.806   3.701   0.611
  492HOH     H2 1663   3.944   3.695   0.673
  493HOH      O 1664   3.709   0.300   1.802
  493HOH     H1 1665   3.646   0.352   1.752
  493HOH     H2 1666   3.788   0.353   1.802
  494HOH      O 1667   1.665   2.759   1.221
  494HOH     H1 1668   1.745   2.783   1.174
  494HOH     H2 1669   1.680   2.787   1.311
  495HOH      O 1670   0.829   0.324   1.308
  495HOH     H1 1671   0.856   0.369   1.227
  495HOH     H2 1672   0.754   0.271   1.282
  496HOH      O 1673   0.613   1.238   2.937
  496HOH     H1 1674   0.604   1.170   3.004
  496HOH     H2 1675   0.673   1.302   2.975
  497HOH      O 1676   3.216   1.275   1.156
  497HOH     H1 1677   3.137   1.230   1.186
  497HOH     H2 1678   3.246   1.223   1.081
  498HOH      O 1679   2.074   0.144   0.438
  498HOH     H1 1680   2.124   0.221   0.467
  498HOH     H2 1681   1.984   0.175   0.434
  499HOH      O 1682   1.806   2.425   0.945
  499HOH     H1 1683   1.813   2.475   0.863
  499HOH     H2 1684   1.727   2.372   0.934
  500HOH      O 1685   2.835   3.541   2.092
  500HOH     H1 1686   2.879   3.466   2.132
  500HOH     H2 1687   2.795   3.588   2.166
  501HOH      O 1688   1.064   0.091   0.776
  501HOH     H1 1689   1.127   0.020   0.763
  501HOH     H2 1690   1.056   0.132   0.690
  502HOH      O 1691   1.952   2.297   1.642
  502HOH     H1 1692   1.859   2.301   1.661
  502HOH     H2 1693   1.995   2.317   1.725
  503HOH      O 1694   3.875   1.694   2.406
  503HOH     H1 1695   3.907   1.606   2.428
  503HOH     H2 1696   3.861   1.736   2.490
  504HOH      O 1697   3.453   1.113   2.676
  504HOH     H1 1698   3.414   1.049   2.735
  504HOH     H2 1699   3.381   1.172   2.653
  505HOH      O 1700   1.456   1.188   2.445
  505HOH     H1 1701   1.410   1.167   2.364
  505HOH     H2 1702   1.488   1.103   2.476
  506HOH      O 1703   2.705   1.023   1.806
  506HOH     H1 1704   2.738   0.992   1.722
  506HOH     H2 1705   2.678   1.113   1.790
  507HOH      O 1706   0.411   1.191   1.751
  507HOH     H1 1707   0.463   1.223   1.824
  507HOH     H2 1708   0.462   1.119   1.715
  508HOH      O 1709   2.537   3.306   1.568
  508HOH     H1 1710   2.626   3.315   1.533
  508HOH     H2 1711   2.505   3.224   1.530
  509HOH      O 1712   0.298   3.775   0.068
  509HOH     H1 1713   0.315   3.793   0.161
  509HOH     H2 1714   0.346   3.695   0.051
  510HOH      O 1715   3.643   0.615   3.375
  510HOH     H1 1716   3.581   0.616   3.448
  510HOH     H2 1717   3.715   0.559   3.405
  511HOH      O 1718   1.588   3.013   0.142
  511HOH     H1 1719   1.532   2.935   0.135
  511HOH     H2 1720   1.655   3.000   0.075
  512HOH      O 1721   1.633   2.195   0.844
  512HOH     H1 1722   1.549   2.172   0.883
  512HOH     H2 1723   1.692   2.124   0.869
  513HOH      O 1724   1.858   1.159   3.365
  513HOH     H1 1725   1.930   1.214   3.397
  513HOH     H2 1726   1.787   1.220   3.348
  514HOH      O 1727   2.050   3.427   1.908
  514HOH     H1 1728   2.070   3.502   1.851
  514HOH     H2 1729   2.107   3.440   1.985
  515HOH      O 1730   2.657   3.141   3.741
  515HOH     H1 1731   2.668   3.192   3.821
  515HOH     H2 1732   2.653   3.050   3.772
  516HOH      O 1733   3.185   2.233   3.019
  516HOH     H1 1734   3.099   2.194   3.034
  516HOH     H2 1735   3.237   2.163   2.979
  517HOH      O 1736   3.932   1.140   0.311
  517HOH     H1 1737   3.879   1.201   0.260
  517HOH     H2 1738   3.871   1.100   0.372
  518HOH      O 1739   1.101   2.470   0.711
  518HOH     H1 1740   1.079   2.560   0.689
  518HOH     H2 1741   1.160   2.442   0.641
  519HOH      O 1742   2.455   0.360   0.480
  519HOH     H1 1743   2.492   0.311   0.407
  519HOH     H2 1744   2.473   0.452   0.459
  520HOH      O 1745   2.596   0.235   3.594
  520HOH     H1 1746   2.534   0.212   3.526
  520HOH     H2 1747   2.560   0.196   3.674
  521HOH      O 1748   2.262   0.393   0.752
  521HOH     H1 1749   2.295   0.308   0.724
  521HOH     H2 1750   2.232   0.379   0.842
  522HOH      O 1751   1.891   3.777   3.466
  522HOH     H1 1752   1.918   3.869   3.465
  522HOH     H2 1753   1.913   3.744   3.379
  523HOH      O 1754   2.216   0.944   2.980
  523HOH     H1 1755   2.164   0.877   2.935
  523HOH     H2 1756   2.305   0.930   2.947
  524HOH      O 1757   3.621   0.662   1.723
  524HOH     H1 1758   3.618   0.724   1.649
  524HOH     H2 1759   3.583   0.581   1.688
  525HOH      O 1760   3.645   1.853   3.197
  525HOH     H1 1761   3.593   1.872   3.275
  525HOH     H2 1762   3.612   1.769   3.166
  526HOH      O 1763   2.452   2.449   2.710
  526HOH     H1 1764   2.390   2.522   2.703
  526HOH     H2 1765   2.538   2.489   2.696
  527HOH      O 1766   2.977   1.760   1.048
  527HOH     H1 1767   2.966   1.666   1.035
  527HOH     H2 1768   2.896   1.788   1.090
  528HOH      O 1769   2.513   1.599   2.103
  528HOH     H1 1770   2.506   1.677   2.158
  528HOH     H2 1771   2.606   1.577   2.104
  529HOH      O 1772   0.898   3.942   0.982
  529HOH     H1 1773   0.940   3.965   1.065
  529HOH     H2 1774   0.949   3.990   0.916
  530HOH      O 1775   3.045   2.612   3.846
  530HOH     H1 1776   3.124   2.561   3.866
  530HOH     H2 1777   3.057   2.694   3.893
  531HOH      O 1778   0.931   3.825   1.729
  531HOH     H1 1779   0.922   3.904   1.783
  531HOH     H2 1780   0.915   3.855   1.639
  532HOH      O 1781   2.098   2.166   2.872
  532HOH     H1 1782   2.008   2.197   2.876
  532HOH     H2 1783   2.097   2.096   2.806
  533HOH      O 1784   0.234   2.518   2.923
  533HOH     H1 1785   0.163   2.574   2.892
  533HOH     H2 1786   0.230   2.525   3.019
  534HOH      O 1787   3.907   0.554   1.780
  534HOH     H1 1788   3.953   0.598   1.851
  534HOH     H2 1789   3.826   0.603   1.769
  535HOH      O 1790   0.017   1.888   3.854
  535HOH     H1 1791  -0.021   1.815   3.902
  535HOH     H2 1792   0.101   1.904   3.896
  536HOH      O 1793   4.021   3.137   3.349
  536HOH     H1 1794   3.945   3.101   3.395
  536HOH     H2 1795   4.013   3.105   3.260
  537HOH      O 1796   1.721   2.586   0.125
  537HOH     H1 1797   1.796   2.554   0.075
  537HOH     H2 1798   1.706   2.518   0.192
  538HOH      O 1799   2.690   2.837   3.593
  538HOH     H1 1800   2.752   2.764   3.597
  538HOH     H2 1801   2.606   2.798   3.617
  539HOH      O 1802   1.991   0.494   3.447
  539HOH     H1 1803   1.994   0.409   3.402
  539HOH     H2 1804   1.899   0.502   3.474
  540HOH      O 1805   1.837   3.574   0.256
  540HOH     H1 1806   1.791   3.532   0.183
  540HOH     H2 1807   1.927   3.583   0.225
  541HOH      O 1808   0.306   3.712   1.405
  541HOH     H1 1809   0.373   3.681   1.467
  541HOH     H2 1810   0.228   3.725   1.460
  542HOH      O 1811   2.518   3.226   0.858
  542HOH     H1 1812   2.585   3.178   0.907
  542HOH     H2 1813   2.470   3.159   0.809
  543HOH      O 1814   2.752   0.693   0.704
  543HOH     H1 1815   2.685   0.646   0.753
  543HOH     H2 1816   2.705   0.733   0.631
  544HOH      O 1817   0.321   3.937   2.919
  544HOH     H1 1818   0.240   3.905   2.879
  544HOH     H2 1819   0.344   4.014   2.867
  545HOH      O 1820   3.959   1.149   2.650
  545HOH     H1 1821   3.882   1.154   2.706
  545HOH     H2 1822   3.924   1.135   2.562
  546HOH      O 1823   1.269   3.078   1.978
  546HOH     H1 1824   1.195   3.019   1.963
  546HOH     H2 1825   1.330   3.027   2.033
  547HOH      O 1826   0.960   3.013   1.692
  547HOH     H1 1827   0.911   3.095   1.698
  547HOH     H2 1828   0.974   2.987   1.783
  548HOH      O 1829   1.411   1.118   3.772
  548HOH     H1 1830   1.343   1.185   3.785
  548HOH     H2 1831   1.412   1.069   3.854
  549HOH      O 1832   3.388   1.816   3.988
  549HOH     H1 1833   3.336   1.879   4.037
  549HOH     H2 1834   3.397   1.854   3.901
  550HOH      O 1835   3.561   1.140   3.819
  550HOH     H1 1836   3.484   1.134   3.874
  550HOH     H2 1837   3.535   1.100   3.736
  551HOH      O 1838   2.922   0.132   3.948
  551HOH     H1 1839   3.002   0.088   3.919
  551HOH     H2 1840   2.913   0.207   3.889
  552HOH      O 1841   2.574   2.181   0.501
  552HOH     H1 1842   2.494   2.154   0.456
  552HOH     H2 1843   2.575   2.276   0.495
  553HOH      O 1844   3.338   1.656   0.869
  553HOH     H1 1845   3.425   1.627   0.897
  553HOH     H2 1846   3.318   1.729   0.928
  554HOH      O 1847   0.047   0.621   3.249
  554HOH     H1 1848   0.081   0.669   3.324
  554HOH     H2 1849   0.010   0.688   3.192
  555HOH      O 1850   3.491   2.900   0.609
  555HOH     H1 1851   3.567   2.843   0.619
  555HOH     H2 1852   3.523   2.973   0.555
  556HOH      O 1853   2.626   2.031   0.764
  556HOH     H1 1854   2.590   2.079   0.689
  556HOH     H2 1855   2.708   1.995   0.732
  557HOH      O 1856   1.056   3.537   0.825
  557HOH     H1 1857   1.133   3.589   0.801
  557HOH     H2 1858   1.079   3.496   0.908
  558HOH      O 1859   1.962   0.205   3.030
  558HOH     H1 1860   1.907   0.281   3.009
  558HOH     H2 1861   1.916   0.131   2.991
  559HOH      O 1862   2.699   0.067   3.204
  559HOH     H1 1863   2.670  -0.025   3.200
  559HOH     H2 1864   2.622   0.114   3.237
  560HOH      O 1865   0.219   1.479   1.804
  560HOH     H1 1866   0.289   1.483   1.739
  560HOH     H2 1867   0.260   1.436   1.880
  561HOH      O 1868   2.700   0.319   1.188
  561HOH     H1 1869   2.667   0.291   1.102
  561HOH     H2 1870   2.744   0.402   1.171
  562HOH      O 1871   3.004   1.377   2.706
  562HOH     H1 1872   2.983   1.451   2.763
  562HOH     H2 1873   2.968   1.301   2.752
  563HOH      O 1874   1.864   3.566   2.591
  563HOH     H1 1875   1.870   3.584   2.498
  563HOH     H2 1876   1.839   3.474   2.596
  564HOH      O 1877   4.024   4.033   1.843
  564HOH     H1 1878   4.002   3.946   1.877
  564HOH     H2 1879   3.959   4.049   1.775
  565HOH      O 1880   1.187   0.161   1.544
  565HOH     H1 1881   1.110   0.189   1.592
  565HOH     H2 1882   1.252   0.142   1.611
  566HOH      O 1883   0.379   1.425   2.885
  566HOH     H1 1884   0.384   1.432   2.789
  566HOH     H2 1885   0.455   1.371   2.909
  567HOH      O 1886   3.186   2.409   2.702
  567HOH     H1 1887   3.276   2.385   2.677
  567HOH     H2 1888   3.198   2.469   2.776
  568HOH      O 1889   1.067   1.806   1.920
  568HOH     H1 1890   1.070   1.886   1.869
  568HOH     H2 1891   1.138   1.815   1.983
  569HOH      O 1892   3.458   0.101   0.922
  569HOH     H1 1893   3.519   0.173   0.907
  569HOH     H2 1894   3.513   0.028   0.948
  570HOH      O 1895   1.169   2.797   0.854
  570HOH     H1 1896   1.263   2.794   0.871
  570HOH     H2 1897   1.147   2.890   0.859
  571HOH      O 1898   3.083   1.686   2.055
  571HOH     H1 1899   3.079   1.689   2.150
  571HOH     H2 1900   3.076   1.593   2.033
  572HOH      O 1901   3.355   2.031   1.144
  572HOH     H1 1902   3.333   1.958   1.201
  572HOH     H2 1903   3.270   2.069   1.119
  573HOH      O 1904   0.104   1.149   2.109
  573HOH     H1 1905   0.073   1.073   2.060
  573HOH     H2 1906   0.028   1.206   2.117
  574HOH      O 1907   3.303   2.117   1.861
  574HOH     H1 1908   3.312   2.023   1.874
  574HOH     H2 1909   3.315   2.155   1.948
  575HOH      O 1910   0.796   3.676   1.979
  575HOH     H1 1911   0.704   3.659   1.958
  575HOH     H2 1912   0.805   3.771   1.971
  576HOH      O 1913   2.176   0.249   2.086
  576HOH     H1 1914   2.114   0.245   2.012
  576HOH     H2 1915   2.156   0.333   2.127
  577HOH      O 1916   3.836   3.858   0.129
  577HOH     H1 1917   3.892   3.932   0.107
  577HOH     H2 1918   3.861   3.789   0.067
  578HOH      O 1919   3.543   1.255   3.437
  578HOH     H1 1920   3.456   1.284   3.412
  578HOH     H2 1921   3.601   1.327   3.412
  579HOH      O 1922   3.198   2.113   1.401
  579HOH     H1 1923   3.133   2.057   1.358
  579HOH     H2 1924   3.251   2.052   1.453
  580HOH      O 1925   3.104   3.476   1.956
  580HOH     H1 1926   3.070   3.566   1.955
  580HOH     H2 1927   3.026   3.421   1.966
  581HOH      O 1928   0.065   3.105   0.157
  581HOH     H1 1929   0.051   3.133   0.248
  581HOH     H2 1930   0.047   3.011   0.158
  582HOH      O 1931   1.833   3.888   0.642
  582HOH     H1 1932   1.793   3.975   0.640
  582HOH     H2 1933   1.891   3.886   0.566
  583HOH      O 1934   2.293   2.004   3.017
  583HOH     H1 1935   2.300   2.088   2.971
  583HOH     H2 1936   2.199   1.995   3.035
  584HOH      O 1937   2.144   0.851   2.007
  584HOH     H1 1938   2.207   0.789   2.044
  584HOH     H2 1939   2.187   0.884   1.928
  585HOH      O 1940   2.261   2.887   2.144
  585HOH     H1 1941   2.349   2.921   2.125
  585HOH     H2 1942   2.234   2.934   2.223
  586HOH      O 1943   3.026   1.161   1.896
  586HOH     H1 1944   3.063   1.159   1.807
  586HOH     H2 1945   2.935   1.136   1.884
  587HOH      O 1946   3.589   2.154   1.241
  587HOH     H1 1947   3.618   2.082   1.297
  587HOH     H2 1948   3.502   2.127   1.211
  588HOH      O 1949   2.889   2.396   0.313
  588HOH     H1 1950   2.893   2.310   0.355
  588HOH     H2 1951   2.920   2.457   0.379
  589HOH      O 1952   2.151   0.113   2.671
  589HOH     H1 1953   2.068   0.157   2.688
  589HOH     H2 1954   2.207   0.181   2.633
  590HOH      O 1955   1.893   0.065   1.654
  590HOH     H1 1956   1.899  -0.024   1.687
  590HOH     H2 1957   1.871   0.055   1.561
  591HOH      O 1958   4.007   2.641   2.394
  591HOH     H1 1959   4.002   2.707   2.463
  591HOH     H2 1960   4.028   2.560   2.440
  592HOH      O 1961   0.851   3.303   3.782
  592HOH     H1 1962   0.884   3.282   3.695
  592HOH     H2 1963   0.925   3.285   3.841
  593HOH      O 1964   0.423   0.309   3.690
  593HOH     H1 1965   0.396   0.388   3.738
  593HOH     H2 1966   0.491   0.339   3.630
  594HOH      O 1967   0.506   1.655   2.031
  594HOH     H1 1968   0.529   1.701   2.112
  594HOH     H2 1969   0.413   1.637   2.039
  595HOH      O 1970   2.409   3.548   1.871
  595HOH     H1 1971   2.500   3.530   1.893
  595HOH     H2 1972   2.364   3.551   1.956
  596HOH      O 1973   3.876   0.558   0.484
  596HOH     H1 1974   3.862   0.640   0.436
  596HOH     H2 1975   3.906   0.586   0.570
  597HOH      O 1976   3.874   1.422   2.459
  597HOH     H1 1977   3.793   1.379   2.433
  597HOH     H2 1978   3.943   1.367   2.423
  598HOH      O 1979   0.131   2.364   1.981
  598HOH     H1 1980   0.112   2.296   2.046
  598HOH     H2 1981   0.127   2.446   2.030
  599HOH      O 1982   1.150   0.152   1.841
  599HOH     H1 1983   1.182   0.179   1.927
  599HOH     H2 1984   1.084   0.217   1.818
  600HOH      O 1985   3.864   1.471   0.908
  600HOH     H1 1986   3.958   1.458   0.920
  600HOH     H2 1987   3.832   1.500   0.994
  601HOH      O 1988   0.176   1.747   3.595
  601HOH     H1 1989   0.257   1.710   3.630
  601HOH     H2 1990   0.106   1.693   3.633
  602HOH      O 1991   3.560   2.214   3.851
  602HOH     H1 1992   3.648   2.243   3.874
  602HOH     H2 1993   3.555   2.223   3.756
  603HOH      O 1994   2.862   1.319   3.649
  603HOH     H1 1995   2.779   1.360   3.626
  603HOH     H2 1996   2.853   1.229   3.618
  604HOH      O 1997   1.824   0.073   3.364
  604HOH     H1 1998   1.911   0.052   3.399
  604HOH     H2 1999   1.766   0.067   3.440
  605HOH      O 2000   3.341   3.671   0.458
  605HOH     H1 2001   3.361   3.684   0.551
  605HOH     H2 2002   3.251   3.640   0.457
  606HOH      O 2003   0.483   1.167   0.537
  606HOH     H1 2004   0.520   1.253   0.557
  606HOH     H2 2005   0.452   1.176   0.447
  607HOH      O 2006   3.551   3.217   0.175
  607HOH     H1 2007   3.519   3.274   0.245
  607HOH     H2 2008   3.480   3.218   0.110
  608HOH      O 2009   0.909   3.968   1.490
  608HOH     H1 2010   0.911   4.045   1.547
  608HOH     H2 2011   0.816   3.945   1.485
  609HOH      O 2012   1.158   1.434   0.688
  609HOH     H1 2013   1.237   1.381   0.698
  609HOH     H2 2014   1.178   1.494   0.616
  610HOH      O 2015   1.417   0.714   0.179
  610HOH     H1 2016   1.396   0.642   0.238
  610HOH     H2 2017   1.332   0.753   0.158
  611HOH      O 2018   0.178   0.727   0.645
  611HOH     H1 2019   0.255   0.763   0.690
  611HOH     H2 2020   0.191   0.751   0.553
  612HOH      O 2021   1.930   2.965   3.860
  612HOH     H1 2022   1.851   2.930   3.902
  612HOH     H2 2023   1.924   2.933   3.770
  613HOH      O 2024   3.102   1.424   1.992
  613HOH     H1 2025   3.075   1.343   1.949
  613HOH     H2 2026   3.198   1.423   1.988
  614HOH      O 2027   3.503   1.606   1.889
  614HOH     H1 2028   3.530   1.529   1.838
  614HOH     H2 2029   3.467   1.570   1.970
  615HOH      O 2030   1.163   2.819   1.162
  615HOH     H1 2031   1.202   2.862   1.238
  615HOH     H2 2032   1.173   2.883   1.091
  616HOH      O 2033   3.819   2.442   2.725
  616HOH     H1 2034   3.769   2.414   2.648
  616HOH     H2 2035   3.753   2.471   2.788
  617HOH      O 2036   0.636   2.756   0.666
  617HOH     H1 2037   0.631   2.821   0.596
  617HOH     H2 2038   0.700   2.692   0.634
  618HOH      O 2039   1.685   2.179   2.248
  618HOH     H1 2040   1.747   2.119   2.287
  618HOH     H2 2041   1.615   2.123   2.214
  619HOH      O 2042   0.280   2.751   3.143
  619HOH     H1 2043   0.214   2.781   3.206
  619HOH     H2 2044   0.326   2.681   3.189
  620HOH      O 2045   2.226   1.865   0.105
  620HOH     H1 2046   2.134   1.883   0.088
  620HOH     H2 2047   2.269   1.951   0.101
  621HOH      O 2048   1.790   2.974   2.324
  621HOH     H1 2049   1.838   2.986   2.405
  621HOH     H2 2050   1.847   2.917   2.271
  622HOH      O 2051   3.603   1.245   2.477
  622HOH     H1 2052   3.613   1.194   2.557
  622HOH     H2 2053   3.510   1.264   2.471
  623HOH      O 2054   0.161   2.287   2.834
  623HOH     H1 2055   0.206   2.361   2.875
  623HOH     H2 2056   0.224   2.254   2.769
  624HOH      O 2057   3.959   0.671   0.760
  624HOH     H1 2058   3.965   0.609   0.833
  624HOH     H2 2059   4.049   0.679   0.728
  625HOH      O 2060   1.645   0.385   0.335
  625HOH     H1 2061   1.694   0.311   0.371
  625HOH     H2 2062   1.639   0.366   0.241
  626HOH      O 2063   2.222   0.095   0.134
  626HOH     H1 2064   2.220   0.188   0.156
  626HOH     H2 2065   2.131   0.067   0.141
  627HOH      O 2066   2.054   0.556   1.959
  627HOH     H1 2067   2.092   0.523   1.877
  627HOH     H2 2068   2.049   0.651   1.947
  628HOH      O 2069   2.855   3.611   0.099
  628HOH     H1 2070   2.807   3.646   0.174
  628HOH     H2 2071   2.896   3.687   0.059
  629HOH      O 2072   0.879   0.450   1.034
  629HOH     H1 2073   0.958   0.504   1.022
  629HOH     H2 2074   0.876   0.394   0.957
  630HOH      O 2075   2.663   0.647   0.075
  630HOH     H1 2076   2.633   0.706   0.005
  630HOH     H2 2077   2.704   0.706   0.139
  631HOH      O 2078   2.273   0.030   3.556
  631HOH     H1 2079   2.368   0.021   3.550
  631HOH     H2 2080   2.259   0.118   3.590
  632HOH      O 2081   2.126   0.480   1.719
  632HOH     H1 2082   2.050   0.510   1.669
  632HOH     H2 2083   2.187   0.449   1.652
  633HOH      O 2084   0.331   1.776   1.731
  633HOH     H1 2085   0.245   1.790   1.691
  633HOH     H2 2086   0.311   1.754   1.822
  634HOH      O 2087   2.110   3.102   2.241
  634HOH     H1 2088   2.062   3.156   2.303
  634HOH     H2 2089   2.182   3.158   2.211
  635HOH      O 2090   2.588   0.895   4.022
  635HOH     H1 2091   2.657   0.921   3.960
  635HOH     H2 2092   2.578   0.971   4.080
  636HOH      O 2093   1.349   3.187   0.874
  636HOH     H1 2094   1.280   3.129   0.841
  636HOH     H2 2095   1.302   3.255   0.922
  637HOH      O 2096   2.120   1.585   0.357
  637HOH     H1 2097   2.161   1.656   0.406
  637HOH     H2 2098   2.087   1.626   0.277
  638HOH      O 2099   3.282   0.770   3.509
  638HOH     H1 2100   3.238   0.821   3.577
  638HOH     H2 2101   3.217   0.763   3.439
  639HOH      O 2102   2.759   3.952   3.704
  639HOH     H1 2103   2.784   4.032   3.751
  639HOH     H2 2104   2.838   3.926   3.658
  640HOH      O 2105   3.304   3.643   3.164
  640HOH     H1 2106   3.209   3.645   3.176
  640HOH     H2 2107   3.333   3.733   3.181
  641HOH      O 2108   2.144   3.090   1.656
  641HOH     H1 2109   2.179   3.164   1.705
  641HOH     H2 2110   2.077   3.127   1.599
  642HOH      O 2111   3.106   2.809   2.728
  642HOH     H1 2112   3.132   2.850   2.810
  642HOH     H2 2113   3.085   2.719   2.751
  643HOH      O 2114   1.776   0.123   2.022
  643HOH     H1 2115   1.786   0.212   1.989
  643HOH     H2 2116   1.852   0.076   1.989
  644HOH      O 2117   2.407   1.536   3.491
  644HOH     H1 2118   2.356   1.569   3.565
  644HOH     H2 2119   2.419   1.443   3.510
  645HOH      O 2120   1.114   3.452   3.014
  645HOH     H1 2121   1.166   3.377   3.040
  645HOH     H2 2122   1.023   3.421   3.017
  646HOH      O 2123   1.081   1.782   1.543
  646HOH     H1 2124   1.005   1.740   1.504
  646HOH     H2 2125   1.113   1.841   1.475
  647HOH      O 2126   0.642   3.370   0.720
  647HOH     H1 2127   0.608   3.436   0.659
  647HOH     H2 2128   0.628   3.409   0.807
  648HOH      O 2129   2.951   3.425   1.305
  648HOH     H1 2130   2.976   3.448   1.216
  648HOH     H2 2131   2.954   3.508   1.353
  649HOH      O 2132   1.594   0.923   2.406
  649HOH     H1 2133   1.633   0.977   2.337
  649HOH     H2 2134   1.556   0.848   2.360
  650HOH      O 2135   0.835   3.438   3.346
  650HOH     H1 2136   0.875   3.506   3.401
  650HOH     H2 2137   0.751   3.475   3.319
  651HOH      O 2138   1.494   2.633   4.007
  651HOH     H1 2139   1.500   2.544   3.970
  651HOH     H2 2140   1.554   2.632   4.081
  652HOH      O 2141   3.707   3.933   3.512
  652HOH     H1 2142   3.711   3.965   3.422
  652HOH     H2 2143   3.798   3.913   3.534
  653HOH      O 2144   3.035   1.242   0.535
  653HOH     H1 2145   3.126   1.229   0.561
  653HOH     H2 2146   2.985   1.190   0.598
  654HOH      O 2147   3.912   3.472   3.776
  654HOH     H1 2148   3.929   3.407   3.845
  654HOH     H2 2149   3.941   3.429   3.696
  655HOH      O 2150   2.950   2.772   2.231
  655HOH     H1 2151   2.989   2.849   2.189
  655HOH     H2 2152   2.862   2.801   2.256
  656HOH      O 2153   3.615   0.007   2.550
  656HOH     H1 2154   3.693   0.063   2.554
  656HOH     H2 2155   3.587   0.012   2.459
  657HOH      O 2156   3.903   2.549   0.721
  657HOH     H1 2157   3.842   2.494   0.672
  657HOH     H2 2158   3.928   2.496   0.796
  658HOH      O 2159   2.759   1.916   2.679
  658HOH     H1 2160   2.678   1.872   2.656
  658HOH     H2 2161   2.736   1.973   2.753
  659HOH      O 2162   1.377   2.449   3.050
  659HOH     H1 2163   1.319   2.525   3.042
  659HOH     H2 2164   1.350   2.391   2.978
  660HOH      O 2165   4.017   1.720   1.187
  660HOH     H1 2166   3.948   1.726   1.121
  660HOH     H2 2167   3.973   1.742   1.270
  661HOH      O 2168   2.738   3.973   1.657
  661HOH     H1 2169   2.651   3.974   1.617
  661HOH     H2 2170   2.721   3.969   1.751
  662HOH      O 2171   1.837   2.944   3.339
  662HOH     H1 2172   1.815   3.028   3.299
  662HOH     H2 2173   1.779   2.881   3.296
  663HOH      O 2174   3.807   3.053   3.476
  663HOH     H1 2175   3.759   3.135   3.491
  663HOH     H2 2176   3.813   3.013   3.563
  664HOH      O 2177   1.801   1.057   0.319
  664HOH     H1 2178   1.736   0.991   0.297
  664HOH     H2 2179   1.833   1.032   0.405
  665HOH      O 2180   0.181   1.921   2.301
  665HOH     H1 2181   0.192   1.929   2.396
  665HOH     H2 2182   0.246   1.856   2.274
  666HOH      O 2183   0.915   1.188   3.708
  666HOH     H1 2184   0.936   1.097   3.730
  666HOH     H2 2185   0.888   1.184   3.616
  667HOH      O 2186   3.765   3.606   1.213
  667HOH     H1 2187   3.810   3.633   1.293
  667HOH     H2 2188   3.735   3.688   1.174
  668HOH      O 2189   2.195   3.183   0.183
  668HOH     H1 2190   2.235   3.259   0.141
  668HOH     H2 2191   2.135   3.148   0.118
  669HOH      O 2192   0.686   0.906   2.564
  669HOH     H1 2193   0.662   0.850   2.637
  669HOH     H2 2194   0.685   0.995   2.600
  670HOH      O 2195   0.820   2.498   0.642
  670HOH     H1 2196   0.812   2.422   0.699
  670HOH     H2 2197   0.905   2.536   0.666
  671HOH      O 2198   2.148   3.343   2.896
  671HOH     H1 2199   2.160   3.271   2.958
  671HOH     H2 2200   2.235   3.383   2.888
  672HOH      O 2201   0.866   0.609   3.583
  672HOH     H1 2202   0.802   0.646   3.522
  672HOH     H2 2203   0.835   0.635   3.669
  673HOH      O 2204   3.539   0.433   1.577
  673HOH     H1 2205   3.505   0.353   1.537
  673HOH     H2 2206   3.586   0.477   1.507
  674HOH      O 2207   1.804   1.836   2.827
  674HOH     H1 2208   1.894   1.820   2.856
  674HOH     H2 2209   1.770   1.750   2.805
  675HOH      O 2210   3.471   0.647   3.814
  675HOH     H1 2211   3.400   0.704   3.844
  675HOH     H2 2212   3.451   0.561   3.852
  676HOH      O 2213   1.807   1.541   1.582
  676HOH     H1 2214   1.826   1.539   1.676
  676HOH     H2 2215   1.802   1.634   1.561
  677HOH      O 2216   0.072   3.871   0.334
  677HOH     H1 2217   0.128   3.794   0.321
  677HOH     H2 2218   0.006   3.865   0.266
  678HOH      O 2219   3.098   3.599   1.686
  678HOH     H1 2220   3.127   3.607   1.777
  678HOH     H2 2221   3.025   3.660   1.678
  679HOH      O 2222   3.445   2.507   1.923
  679HOH     H1 2223   3.502   2.452   1.869
  679HOH     H2 2224   3.357   2.488   1.891
  680HOH      O 2225   2.463   3.035   0.605
  680HOH     H1 2226   2.464   3.071   0.516
  680HOH     H2 2227   2.380   2.987   0.611
  681HOH      O 2228   2.235   3.702   0.518
  681HOH     H1 2229   2.221   3.730   0.427
  681HOH     H2 2230   2.312   3.752   0.546
  682HOH      O 2231   2.763   0.062   0.535
  682HOH     H1 2232   2.849   0.019   0.525
  682HOH     H2 2233   2.727   0.024   0.615
  683HOH      O 2234   2.585   1.164   0.552
  683HOH     H1 2235   2.651   1.095   0.546
  683HOH     H2 2236   2.562   1.168   0.645
  684HOH      O 2237   2.406   1.082   3.421
  684HOH     H1 2238   2.346   1.076   3.347
  684HOH     H2 2239   2.381   1.010   3.479
  685HOH      O 2240   3.081   1.292   3.807
  685HOH     H1 2241   3.058   1.284   3.899
  685HOH     H2 2242   2.998   1.302   3.761
  686HOH      O 2243   2.005   2.217   1.396
  686HOH     H1 2244   1.916   2.196   1.368
  686HOH     H2 2245   1.995   2.245   1.487
  687HOH      O 2246   3.135   2.479   1.278
  687HOH     H1 2247   3.094   2.565   1.273
  687HOH     H2 2248   3.115   2.439   1.193
  688HOH      O 2249   2.376   3.527   1.613
  688HOH     H1 2250   2.414   3.440   1.602
  688HOH     H2 2251   2.395   3.550   1.704
  689HOH      O 2252   3.951   2.053   1.909
  689HOH     H1 2253   3.966   2.132   1.962
  689HOH     H2 2254   3.859   2.032   1.923
  690HOH      O 2255   1.273   0.357   0.764
  690HOH     H1 2256   1.220   0.436   0.774
  690HOH     H2 2257   1.209   0.289   0.740
  691HOH      O 2258   1.962   2.514   3.383
  691HOH     H1 2259   2.014   2.533   3.305
  691HOH     H2 2260   2.023   2.470   3.443
  692HOH      O 2261   0.384   3.208   0.744
  692HOH     H1 2262   0.476   3.188   0.764
  692HOH     H2 2263   0.356   3.137   0.686
  693HOH      O 2264   2.183   0.473   1.436
  693HOH     H1 2265   2.142   0.397   1.394
  693HOH     H2 2266   2.165   0.546   1.378
  694HOH      O 2267   0.315   1.252   0.783
  694HOH     H1 2268   0.325   1.342   0.753
  694HOH     H2 2269   0.355   1.199   0.714
  695HOH      O 2270   3.250   3.303   2.124
  695HOH     H1 2271   3.337   3.326   2.090
  695HOH     H2 2272   3.196   3.380   2.107
  696HOH      O 2273   3.329   1.318   2.357
  696HOH     H1 2274   3.325   1.232   2.398
  696HOH     H2 2275   3.250   1.363   2.389
  697HOH      O 2276   0.525   3.375   2.363
  697HOH     H1 2277   0.519   3.463   2.325
  697HOH     H2 2278   0.571   3.323   2.297
  698HOH      O 2279   0.067   0.688   0.243
  698HOH     H1 2280   0.031   0.639   0.317
  698HOH     H2 2281  -0.003   0.689   0.178
  699HOH      O 2282   0.214   1.428   3.673
  699HOH     H1 2283   0.216   1.353   3.733
  699HOH     H2 2284   0.130   1.419   3.627
  700HOH      O 2285   3.306   0.941   1.875
  700HOH     H1 2286   3.325   0.975   1.962
  700HOH     H2 2287   3.213   0.919   1.878
  701HOH      O 2288   1.742   2.175   0.137
  701HOH     H1 2289   1.729   2.155   0.045
  701HOH     H2 2290   1.681   2.118   0.183
  702HOH      O 2291   0.891   1.094   0.323
  702HOH     H1 2292   0.924   1.043   0.249
  702HOH     H2 2293   0.966   1.147   0.352
  703HOH      O 2294   0.623   3.492   0.972
  703HOH     H1 2295   0.621   3.479   1.067
  703HOH     H2 2296   0.677   3.569   0.958
  704HOH      O 2297   1.340   3.979   1.431
  704HOH     H1 2298   1.269   4.038   1.455
  704HOH     H2 2299   1.328   3.964   1.337
  705HOH      O 2300   2.672   2.114   1.713
  705HOH     H1 2301   2.584   2.152   1.707
  705HOH     H2 2302   2.672   2.043   1.649
  706HOH      O 2303   3.591   2.313   0.341
  706HOH     H1 2304   3.557   2.306   0.252
  706HOH     H2 2305   3.650   2.238   0.350
  707HOH      O 2306   0.799   1.848   1.766
  707HOH     H1 2307   0.876   1.903   1.752
  707HOH     H2 2308   0.779   1.858   1.859
  708HOH      O 2309   2.381   2.500   1.282
  708HOH     H1 2310   2.451   2.517   1.345
  708HOH     H2 2311   2.378   2.579   1.228
  709HOH      O 2312   1.551   2.362   3.601
  709HOH     H1 2313   1.599   2.406   3.531
  709HOH     H2 2314   1.460   2.364   3.572
  710HOH      O 2315   1.688   0.598   3.468
  710HOH     H1 2316   1.722   0.654   3.537
  710HOH     H2 2317   1.596   0.624   3.459
  711HOH      O 2318   2.280   1.081   2.319
  711HOH     H1 2319   2.236   1.048   2.241
  711HOH     H2 2320   2.335   1.153   2.288
  712HOH      O 2321   3.677   3.385   2.991
  712HOH     H1 2322   3.653   3.467   3.034
  712HOH     H2 2323   3.598   3.332   2.994
  713HOH      O 2324   3.311   3.020   0.798
  713HOH     H1 2325   3.381   2.971   0.755
  713HOH     H2 2326   3.238   3.017   0.736
  714HOH      O 2327   3.897   1.866   3.347
  714HOH     H1 2328   3.851   1.860   3.264
  714HOH     H2 2329   3.985   1.834   3.329
  715HOH      O 2330   2.242   3.890   2.029
  715HOH     H1 2331   2.272   3.813   1.980
  715HOH     H2 2332   2.240   3.960   1.965
  716HOH      O 2333   3.486   0.575   1.992
  716HOH     H1 2334   3.427   0.587   2.066
  716HOH     H2 2335   3.562   0.530   2.028
  717HOH      O 2336   1.298   1.496   3.701
  717HOH     H1 2337   1.341   1.485   3.617
  717HOH     H2 2338   1.248   1.415   3.714
  718HOH      O 2339   0.522   2.518   1.639
  718HOH     H1 2340   0.475   2.482   1.714
  718HOH     H2 2341   0.459   2.516   1.568
  719HOH      O 2342   2.672   1.791   0.569
  719HOH     H1 2343   2.578   1.773   0.567
  719HOH     H2 2344   2.694   1.791   0.662
  720HOH      O 2345   3.434   3.224   0.912
  720HOH     H1 2346   3.398   3.158   0.853
  720HOH     H2 2347   3.359   3.252   0.965
  721HOH      O 2348   1.763   3.938   2.596
  721HOH     H1 2349   1.779   3.974   2.508
  721HOH     H2 2350   1.850   3.919   2.630
  722HOH      O 2351   0.693   0.298   1.748
  722HOH     H1 2352   0.658   0.348   1.675
  722HOH     H2 2353   0.719   0.364   1.812
  723HOH      O 2354   2.557   2.524   1.492
  723HOH     H1 2355   2.556   2.617   1.517
  723HOH     H2 2356   2.501   2.481   1.557
  724HOH      O 2357   0.794   0.522   1.926
  724HOH     H1 2358   0.740   0.575   1.986
  724HOH     H2 2359   0.809   0.579   1.851
  725HOH      O 2360   2.742   0.523   2.261
  725HOH     H1 2361   2.690   0.514   2.181
  725HOH     H2 2362   2.747   0.618   2.275
  726HOH      O 2363   0.028   2.519   0.220
  726HOH     H1 2364  -0.008   2.432   0.200
  726HOH     H2 2365   0.080   2.541   0.142
  727HOH      O 2366   1.821   1.985   0.908
  727HOH     H1 2367   1.855   1.994   0.819
  727HOH     H2 2368   1.888   2.025   0.964
  728HOH      O 2369   3.432   2.847   0.168
  728HOH     H1 2370   3.446   2.767   0.118
  728HOH     H2 2371   3.516   2.892   0.168
  729HOH      O 2372   0.430   3.211   2.560
  729HOH     H1 2373   0.506   3.166   2.598
  729HOH     H2 2374   0.468   3.274   2.498
  730HOH      O 2375   2.613   0.226   0.299
  730HOH     H1 2376   2.582   0.205   0.211
  730HOH     H2 2377   2.649   0.145   0.332
  731HOH      O 2378   3.259   2.207   0.286
  731HOH     H1 2379   3.337   2.242   0.327
  731HOH     H2 2380   3.187   2.232   0.345
  732HOH      O 2381   0.977   0.971   0.096
  732HOH     H1 2382   1.059   0.923   0.093
  732HOH     H2 2383   0.927   0.938   0.021
  733HOH      O 2384   2.997   0.557   0.988
  733HOH     H1 2385   3.022   0.566   1.080
  733HOH     H2 2386   2.948   0.636   0.968
  734HOH      O 2387   2.149   3.690   2.667
  734HOH     H1 2388   2.089   3.626   2.629
  734HOH     H2 2389   2.225   3.688   2.609
  735HOH      O 2390   0.287   3.990   0.810
  735HOH     H1 2391   0.367   3.969   0.762
  735HOH     H2 2392   0.218   3.940   0.767
  736HOH      O 2393   1.832   3.176   3.150
  736HOH     H1 2394   1.910   3.218   3.186
  736HOH     H2 2395   1.857   3.149   3.062
  737HOH      O 2396   2.701   3.597   1.845
  737HOH     H1 2397   2.748   3.586   1.927
  737HOH     H2 2398   2.734   3.527   1.789
  738HOH      O 2399   3.454   2.428   2.685
  738HOH     H1 2400   3.443   2.479   2.605
  738HOH     H2 2401   3.485   2.491   2.749
  739HOH      O 2402   1.217   2.637   3.929
  739HOH     H1 2403   1.310   2.659   3.934
  739HOH     H2 2404   1.173   2.705   3.979
  740HOH      O 2405   3.563   2.705   3.098
  740HOH     H1 2406   3.496   2.674   3.158
  740HOH     H2 2407   3.525   2.785   3.060
  741HOH      O 2408   3.685   3.849   1.081
  741HOH     H1 2409   3.763   3.903   1.097
  741HOH     H2 2410   3.667   3.860   0.988
  742HOH      O 2411   1.165   1.996   0.898
  742HOH     H1 2412   1.168   1.908   0.860
  742HOH     H2 2413   1.093   1.992   0.961
  743HOH      O 2414   3.368   0.399   1.812
  743HOH     H1 2415   3.401   0.467   1.870
  743HOH     H2 2416   3.417   0.412   1.730
  744HOH      O 2417   0.992   2.276   1.838
  744HOH     H1 2418   1.015   2.313   1.753
  744HOH     H2 2419   1.050   2.200   1.847
  745HOH      O 2420   1.297   3.821   2.088
  745HOH     H1 2421   1.310   3.868   2.006
  745HOH     H2 2422   1.381   3.824   2.132
  746HOH      O 2423   4.012   0.250   0.772
  746HOH     H1 2424   4.012   0.263   0.677
  746HOH     H2 2425   3.998   0.156   0.783
  747HOH      O 2426   3.448   1.872   3.405
  747HOH     H1 2427   3.433   1.791   3.356
  747HOH     H2 2428   3.434   1.847   3.497
  748HOH      O 2429   1.843   0.605   3.962
  748HOH     H1 2430   1.909   0.578   4.025
  748HOH     H2 2431   1.789   0.669   4.009
  749HOH      O 2432   3.302   2.098   3.734
  749HOH     H1 2433   3.210   2.122   3.748
  749HOH     H2 2434   3.351   2.153   3.795
  750HOH      O 2435   2.710   1.025   3.822
  750HOH     H1 2436   2.760   1.099   3.856
  750HOH     H2 2437   2.720   1.031   3.727
  751HOH      O 2438   3.267   3.517   1.125
  751HOH     H1 2439   3.179   3.548   1.105
  751HOH     H2 2440   3.286   3.551   1.212
  752HOH      O 2441   1.337   3.362   1.997
  752HOH     H1 2442   1.427   3.393   2.010
  752HOH     H2 2443   1.341   3.268   2.015
  753HOH      O 2444   1.943   0.725   3.039
  753HOH     H1 2445   1.916   0.647   2.990
  753HOH     H2 2446   2.018   0.697   3.091
  754HOH      O 2447   2.424   1.722   0.679
  754HOH     H1 2448   2.389   1.641   0.642
  754HOH     H2 2449   2.348   1.778   0.691
  755HOH      O 2450   3.750   0.346   3.051
  755HOH     H1 2451   3.726   0.415   2.989
  755HOH     H2 2452   3.674   0.289   3.053
  756HOH      O 2453   2.276   3.270   1.816
  756HOH     H1 2454   2.191   3.291   1.853
  756HOH     H2 2455   2.339   3.315   1.872
  757HOH      O 2456   3.263   3.364   1.792
  757HOH     H1 2457   3.216   3.356   1.709
  757HOH     H2 2458   3.197   3.397   1.853
  758HOH      O 2459   1.371   2.778   2.354
  758HOH     H1 2460   1.338   2.688   2.344
  758HOH     H2 2461   1.439   2.770   2.422
  759HOH      O 2462   1.920   3.019   2.578
  759HOH     H1 2463   1.870   2.987   2.654
  759HOH     H2 2464   2.002   3.052   2.615
  760HOH      O 2465   2.458   2.940   0.914
  760HOH     H1 2466   2.521   2.873   0.938
  760HOH     H2 2467   2.411   2.959   0.995
  761HOH      O 2468   0.212   3.377   0.605
  761HOH     H1 2469   0.271   3.326   0.661
  761HOH     H2 2470   0.267   3.403   0.531
  762HOH      O 2471   3.296   0.695   1.483
  762HOH     H1 2472   3.257   0.780   1.502
  762HOH     H2 2473   3.380   0.716   1.443
  763HOH      O 2474   1.835   3.594   2.304
  763HOH     H1 2475   1.895   3.658   2.266
  763HOH     H2 2476   1.809   3.538   2.230
  764HOH      O 2477   0.688   3.885   0.180
  764HOH     H1 2478   0.666   3.803   0.137
  764HOH     H2 2479   0.766   3.916   0.134
  765HOH      O 2480   0.218   1.586   3.337
  765HOH     H1 2481   0.146   1.617   3.281
  765HOH     H2 2482   0.248   1.665   3.383
  766HOH      O 2483   2.494   2.078   3.913
  766HOH     H1 2484   2.517   2.038   3.997
  766HOH     H2 2485   2.571   2.130   3.889
  767HOH      O 2486   3.552   1.428   3.896
  767HOH     H1 2487   3.629   1.483   3.912
  767HOH     H2 2488   3.581   1.365   3.830
  768HOH      O 2489   2.798   1.185   3.065
  768HOH     H1 2490   2.705   1.164   3.069
  768HOH     H2 2491   2.807   1.264   3.118
  769HOH      O 2492   2.891   0.491   2.776
  769HOH     H1 2493   2.972   0.542   2.772
  769HOH     H2 2494   2.882   0.453   2.689
  770HOH      O 2495   0.612   3.117   2.023
  770HOH     H1 2496   0.669   3.154   2.091
  770HOH     H2 2497   0.527   3.159   2.038
  771HOH      O 2498   3.691   1.791   0.531
  771HOH     H1 2499   3.665   1.714   0.581
  771HOH     H2 2500   3.787   1.791   0.534
  772HOH      O 2501   3.848   1.388   3.828
  772HOH     H1 2502   3.822   1.459   3.770
  772HOH     H2 2503   3.921   1.345   3.782
  773HOH      O 2504   2.082   1.392   2.302
  773HOH     H1 2505   2.114   1.357   2.219
  773HOH     H2 2506   2.151   1.452   2.331
  774HOH      O 2507   3.107   2.737   1.140
  774HOH     H1 2508   3.084   2.690   1.060
  774HOH     H2 2509   3.131   2.824   1.111
  775HOH      O 2510   1.243   3.231   1.729
  775HOH     H1 2511   1.215   3.201   1.816
  775HOH     H2 2512   1.294   3.310   1.746
  776HOH      O 2513   3.205   3.918   2.629
  776HOH     H1 2514   3.174   3.853   2.693
  776HOH     H2 2515   3.291   3.885   2.601
  777HOH      O 2516   3.324   0.215   1.190
  777HOH     H1 2517   3.283   0.258   1.115
  777HOH     H2 2518   3.401   0.172   1.154
  778HOH      O 2519   3.015   0.831   2.093
  778HOH     H1 2520   3.089   0.834   2.153
  778HOH     H2 2521   3.004   0.739   2.072
  779HOH      O 2522   0.336   1.777   0.073
  779HOH     H1 2523   0.273   1.768   0.144
  779HOH     H2 2524   0.396   1.703   0.084
  780HOH      O 2525   2.982   2.475   2.552
  780HOH     H1 2526   3.034   2.520   2.485
  780HOH     H2 2527   3.047   2.429   2.605
  781HOH      O 2528   1.324   0.691   1.210
  781HOH     H1 2529   1.233   0.660   1.210
  781HOH     H2 2530   1.326   0.759   1.278
  782HOH      O 2531   2.249   0.853   0.047
  782HOH     H1 2532   2.262   0.805   0.129
  782HOH     H2 2533   2.259   0.945   0.072
  783HOH      O 2534   1.519   3.464   3.848
  783HOH     H1 2535   1.541   3.391   3.790
  783HOH     H2 2536   1.430   3.444   3.879
  784HOH      O 2537   2.840   2.163   0.433
  784HOH     H1 2538   2.751   2.162   0.468
  784HOH     H2 2539   2.889   2.103   0.489
  785HOH      O 2540   3.358   0.177   3.388
  785HOH     H1 2541   3.355   0.213   3.299
  785HOH     H2 2542   3.424   0.228   3.433
  786HOH      O 2543   3.512   1.541   3.537
  786HOH     H1 2544   3.570   1.587   3.598
  786HOH     H2 2545   3.433   1.523   3.588
  787HOH      O 2546   1.937   3.170   2.040
  787HOH     H1 2547   2.007   3.178   2.105
  787HOH     H2 2548   1.905   3.080   2.051
  788HOH      O 2549   2.557   0.956   2.115
  788HOH     H1 2550   2.516   1.018   2.055
  788HOH     H2 2551   2.651   0.966   2.100
  789HOH      O 2552   1.642   2.156   0.585
  789HOH     H1 2553   1.553   2.135   0.555
  789HOH     H2 2554   1.633   2.173   0.678
  790HOH      O 2555   0.326   3.756   0.366
  790HOH     H1 2556   0.403   3.804   0.398
  790HOH     H2 2557   0.331   3.671   0.408
  791HOH      O 2558   2.889   3.380   3.055
  791HOH     H1 2559   2.939   3.313   3.103
  791HOH     H2 2560   2.874   3.341   2.969
  792HOH      O 2561   1.487   3.545   3.539
  792HOH     H1 2562   1.503   3.551   3.445
  792HOH     H2 2563   1.554   3.485   3.571
  793HOH      O 2564   3.049   1.156   1.627
  793HOH     H1 2565   3.108   1.157   1.552
  793HOH     H2 2566   2.962   1.142   1.590
  794HOH      O 2567   2.811   0.295   1.930
  794HOH     H1 2568   2.794   0.343   1.849
  794HOH     H2 2569   2.829   0.205   1.903
  795HOH      O 2570   0.463   1.428   2.256
  795HOH     H1 2571   0.558   1.430   2.269
  795HOH     H2 2572   0.451   1.447   2.163
  796HOH      O 2573   3.653   3.191   1.873
  796HOH     H1 2574   3.564   3.164   1.852
  796HOH     H2 2575   3.651   3.213   1.966
  797HOH      O 2576   0.699   3.091   2.718
  797HOH     H1 2577   0.760   3.098   2.792
  797HOH     H2 2578   0.622   3.049   2.755
  798HOH      O 2579   1.138   1.492   0.276
  798HOH     H1 2580   1.226   1.524   0.256
  798HOH     H2 2581   1.145   1.397   0.273
  799HOH      O 2582   0.039   0.626   1.546
  799HOH     H1 2583   0.071   0.546   1.505
  799HOH     H2 2584   0.007   0.598   1.632
  800HOH      O 2585   1.449   1.228   0.323
  800HOH     H1 2586   1.446   1.153   0.383
  800HOH     H2 2587   1.511   1.288   0.364
  801HOH      O 2588   2.239   2.657   0.681
  801HOH     H1 2589   2.155   2.649   0.634
  801HOH     H2 2590   2.256   2.751   0.683
  802HOH      O 2591   3.331   0.779   0.674
  802HOH     H1 2592   3.389   0.801   0.747
  802HOH     H2 2593   3.324   0.683   0.677
  803HOH      O 2594   2.609   1.860   2.257
  803HOH     H1 2595   2.580   1.888   2.170
  803HOH     H2 2596   2.665   1.931   2.288
  804HOH      O 2597   0.600   1.025   0.741
  804HOH     H1 2598   0.590   1.082   0.665
  804HOH     H2 2599   0.669   0.963   0.716
  805HOH      O 2600   3.118   1.596   0.503
  805HOH     H1 2601   3.194   1.545   0.474
  805HOH     H2 2602   3.055   1.531   0.533
  806HOH      O 2603   1.160   0.997   0.433
  806HOH     H1 2604   1.144   0.912   0.391
  806HOH     H2 2605   1.253   0.996   0.455
  807HOH      O 2606   2.139   2.784   1.754
  807HOH     H1 2607   2.155   2.750   1.666
  807HOH     H2 2608   2.112   2.875   1.740
  808HOH      O 2609   1.975   0.283   3.286
  808HOH     H1 2610   2.008   0.255   3.200
  808HOH     H2 2611   1.934   0.205   3.322
  809HOH      O 2612   3.772   3.679   2.707
  809HOH     H1 2613   3.844   3.616   2.712
  809HOH     H2 2614   3.694   3.625   2.696
  810HOH      O 2615   0.787   2.142   1.127
  810HOH     H1 2616   0.756   2.076   1.065
  810HOH     H2 2617   0.721   2.142   1.196
  811HOH      O 2618   0.342   3.229   2.912
  811HOH     H1 2619   0.303   3.155   2.958
  811HOH     H2 2620   0.376   3.192   2.831
  812HOH      O 2621   2.668   0.703   1.502
  812HOH     H1 2622   2.693   0.795   1.503
  812HOH     H2 2623   2.580   0.702   1.539
  813HOH      O 2624   2.005   2.282   3.189
  813HOH     H1 2625   1.959   2.251   3.267
  813HOH     H2 2626   2.080   2.223   3.181
  814HOH      O 2627   0.034   3.359   1.205
  814HOH     H1 2628   0.092   3.393   1.137
  814HOH     H2 2629  -0.003   3.279   1.168
  815HOH      O 2630   3.663   2.610   1.068
  815HOH     H1 2631   3.578   2.653   1.067
  815HOH     H2 2632   3.668   2.563   0.985
  816HOH      O 2633   2.841   0.292   3.518
  816HOH     H1 2634   2.895   0.298   3.597
  816HOH     H2 2635   2.751   0.290   3.551
  817HOH      O 2636   1.395   3.027   2.219
  817HOH     H1 2637   1.413   2.934   2.235
  817HOH     H2 2638   1.481   3.068   2.217
  818HOH      O 2639   0.324   0.802   1.254
  818HOH     H1 2640   0.318   0.817   1.348
  818HOH     H2 2641   0.418   0.806   1.235
  819HOH      O 2642   0.969   3.841   2.578
  819HOH     H1 2643   0.900   3.907   2.578
  819HOH     H2 2644   0.942   3.778   2.644
  820HOH      O 2645   0.179   0.181   0.924
  820HOH     H1 2646   0.110   0.212   0.866
  820HOH     H2 2647   0.221   0.109   0.875
  821HOH      O 2648   2.030   2.776   3.494
  821HOH     H1 2649   1.985   2.704   3.450
  821HOH     H2 2650   1.975   2.853   3.476
  822HOH      O 2651   0.063   3.582   0.716
  822HOH     H1 2652   0.061   3.554   0.807
  822HOH     H2 2653   0.125   3.523   0.674
  823HOH      O 2654   3.897   3.641   3.987
  823HOH     H1 2655   3.939   3.649   3.901
  823HOH     H2 2656   3.853   3.557   3.984
  824HOH      O 2657   0.224   1.650   1.082
  824HOH     H1 2658   0.222   1.570   1.133
  824HOH     H2 2659   0.143   1.696   1.104
  825HOH      O 2660   1.654   3.835   3.592
  825HOH     H1 2661   1.607   3.824   3.510
  825HOH     H2 2662   1.745   3.815   3.571
  826HOH      O 2663   0.748   0.432   2.428
  826HOH     H1 2664   0.710   0.411   2.513
  826HOH     H2 2665   0.832   0.473   2.450
  827HOH      O 2666   0.631   1.795   1.250
  827HOH     H1 2667   0.723   1.776   1.268
  827HOH     H2 2668   0.624   1.890   1.255
  828HOH      O 2669   0.352   0.286   3.093
  828HOH     H1 2670   0.302   0.222   3.144
  828HOH     H2 2671   0.287   0.328   3.036
  829HOH      O 2672   0.722   0.196   0.488
  829HOH     H1 2673   0.725   0.174   0.395
  829HOH     H2 2674   0.639   0.161   0.519
  830HOH      O 2675   1.697   1.064   3.083
  830HOH     H1 2676   1.753   1.048   3.006
  830HOH     H2 2677   1.705   1.159   3.098
  831HOH      O 2678   3.365   1.121   0.290
  831HOH     H1 2679   3.352   1.151   0.380
  831HOH     H2 2680   3.364   1.201   0.238
  832HOH      O 2681   1.842   1.222   2.247
  832HOH     H1 2682   1.921   1.276   2.255
  832HOH     H2 2683   1.868   1.152   2.187
  833HOH      O 2684   1.723   1.274   2.481
  833HOH     H1 2685   1.760   1.239   2.400
  833HOH     H2 2686   1.629   1.254   2.474
  834HOH      O 2687   2.448   2.974   3.099
  834HOH     H1 2688   2.447   2.904   3.034
  834HOH     H2 2689   2.499   2.940   3.172
  835HOH      O 2690   1.933   4.042   1.362
  835HOH     H1 2691   1.918   3.951   1.387
  835HOH     H2 2692   2.014   4.041   1.312
  836HOH      O 2693   2.164   3.779   1.335
  836HOH     H1 2694   2.154   3.715   1.404
  836HOH     H2 2695   2.160   3.728   1.254
  837HOH      O 2696   1.551   1.629   2.497
  837HOH     H1 2697   1.610   1.571   2.545
  837HOH     H2 2698   1.609   1.695   2.459
  838HOH      O 2699   2.059   3.707   2.172
  838HOH     H1 2700   1.975   3.720   2.129
  838HOH     H2 2701   2.091   3.796   2.190
  839HOH      O 2702   2.533   0.254   0.988
  839HOH     H1 2703   2.608   0.222   0.938
  839HOH     H2 2704   2.459   0.203   0.956
  840HOH      O 2705   1.005   0.515   2.375
  840HOH     H1 2706   1.052   0.596   2.393
  840HOH     H2 2707   0.964   0.530   2.289
  841HOH      O 2708   3.611   3.686   0.067
  841HOH     H1 2709   3.616   3.731   0.152
  841HOH     H2 2710   3.689   3.715   0.020
  842HOH      O 2711   2.317   3.002   3.421
  842HOH     H1 2712   2.314   2.908   3.439
  842HOH     H2 2713   2.233   3.035   3.453
  843HOH      O 2714   1.762   3.461   1.200
  843HOH     H1 2715   1.727   3.534   1.252
  843HOH     H2 2716   1.751   3.490   1.109
  844HOH      O 2717   3.093   2.186   0.812
  844HOH     H1 2718   3.117   2.226   0.896
  844HOH     H2 2719   3.023   2.243   0.778
  845HOH      O 2720   0.723   0.645   3.858
  845HOH     H1 2721   0.636   0.668   3.893
  845HOH     H2 2722   0.723   0.549   3.857
  846HOH      O 2723   1.437   3.940   3.971
  846HOH     H1 2724   1.350   3.979   3.973
  846HOH     H2 2725   1.437   3.884   3.893
  847HOH      O 2726  -0.008   3.929   1.463
  847HOH     H1 2727  -0.054   4.002   1.506
  847HOH     H2 2728   0.084   3.953   1.468
  848HOH      O 2729   3.458   1.051   3.166
  848HOH     H1 2730   3.418   1.073   3.250
  848HOH     H2 2731   3.543   1.014   3.188
  849HOH      O 2732   2.343   0.803   2.397
  849HOH     H1 2733   2.339   0.769   2.308
  849HOH     H2 2734   2.329   0.897   2.388
  850HOH      O 2735   0.528   3.958   0.712
  850HOH     H1 2736   0.536   3.973   0.618
  850HOH     H2 2737   0.604   3.904   0.734
  851HOH      O 2738   2.652   1.094   0.212
  851HOH     H1 2739   2.618   1.174   0.253
  851HOH     H2 2740   2.747   1.102   0.219
  852HOH      O 2741   3.159   2.825   3.344
  852HOH     H1 2742   3.165   2.858   3.254
  852HOH     H2 2743   3.125   2.736   3.335
  853HOH      O 2744   1.786  -0.004   0.276
  853HOH     H1 2745   1.779   0.075   0.330
  853HOH     H2 2746   1.842  -0.063   0.326
  854HOH      O 2747   2.460   3.137   3.999
  854HOH     H1 2748   2.472   3.088   4.080
  854HOH     H2 2749   2.533   3.198   3.996
  855HOH      O 2750   1.146   1.977   3.810
  855HOH     H1 2751   1.128   1.916   3.882
  855HOH     H2 2752   1.144   1.924   3.731
  856HOH      O 2753   3.650   2.427   0.832
  856HOH     H1 2754   3.661   2.397   0.742
  856HOH     H2 2755   3.698   2.364   0.885
  857HOH      O 2756   0.627   2.462   3.286
  857HOH     H1 2757   0.590   2.394   3.230
  857HOH     H2 2758   0.551   2.510   3.320
  858HOH      O 2759   3.028   3.601   1.069
  858HOH     H1 2760   2.983   3.593   0.986
  858HOH     H2 2761   3.013   3.691   1.097
  859HOH      O 2762   0.636   3.887   1.113
  859HOH     H1 2763   0.704   3.900   1.047
  859HOH     H2 2764   0.667   3.814   1.165
  860HOH      O 2765   1.612   3.697   3.046
  860HOH     H1 2766   1.675   3.719   2.978
  860HOH     H2 2767   1.530   3.683   2.999
  861HOH      O 2768   3.368   3.842   3.871
  861HOH     H1 2769   3.409   3.799   3.796
  861HOH     H2 2770   3.368   3.776   3.940
  862HOH      O 2771   1.152   3.530   2.011
  862HOH     H1 2772   1.182   3.572   2.092
  862HOH     H2 2773   1.217   3.462   1.994
  863HOH      O 2774   3.211   1.943   3.090
  863HOH     H1 2775   3.305   1.960   3.093
  863HOH     H2 2776   3.192   1.899   3.173
  864HOH      O 2777   1.480   3.776   1.570
  864HOH     H1 2778   1.516   3.736   1.490
  864HOH     H2 2779   1.429   3.850   1.539
  865HOH      O 2780   2.328   1.606   0.088
  865HOH     H1 2781   2.288   1.693   0.088
  865HOH     H2 2782   2.336   1.584   0.181
  866HOH      O 2783   3.942   2.261   0.130
  866HOH     H1 2784   4.015   2.204   0.106
  866HOH     H2 2785   3.900   2.282   0.047
  867HOH      O 2786   3.154   1.421   0.897
  867HOH     H1 2787   3.129   1.422   0.990
  867HOH     H2 2788   3.211   1.497   0.887
  868HOH      O 2789   3.466   2.449   2.199
  868HOH     H1 2790   3.457   2.492   2.113
  868HOH     H2 2791   3.547   2.483   2.235
  869HOH      O 2792   0.828   3.257   1.870
  869HOH     H1 2793   0.789   3.179   1.909
  869HOH     H2 2794   0.832   3.320   1.942
  870HOH      O 2795   1.170   1.728   0.820
  870HOH     H1 2796   1.241   1.667   0.840
  870HOH     H2 2797   1.130   1.693   0.741
  871HOH      O 2798   3.118   2.352   0.494
  871HOH     H1 2799   3.180   2.307   0.550
  871HOH     H2 2800   3.035   2.307   0.510
  872HOH      O 2801   3.717   2.203   2.282
  872HOH     H1 2802   3.756   2.120   2.307
  872HOH     H2 2803   3.683   2.188   2.193
  873HOH      O 2804   0.912   2.967   0.624
  873HOH     H1 2805   0.827   3.004   0.599
  873HOH     H2 2806   0.946   2.929   0.543
  874HOH      O 2807   0.177   3.721   1.162
  874HOH     H1 2808   0.227   3.692   1.238
  874HOH     H2 2809   0.228   3.795   1.127
  875HOH      O 2810   2.503   3.866   0.184
  875HOH     H1 2811   2.579   3.908   0.144
  875HOH     H2 2812   2.480   3.795   0.124
  876HOH      O 2813   1.419   1.517   0.282
  876HOH     H1 2814   1.504   1.527   0.240
  876HOH     H2 2815   1.435   1.535   0.374
  877HOH      O 2816   3.253   3.910   0.262
  877HOH     H1 2817   3.204   3.878   0.338
  877HOH     H2 2818   3.193   3.971   0.220
  878HOH      O 2819   0.012   2.736   3.993
  878HOH     H1 2820   0.063   2.790   3.932
  878HOH     H2 2821   0.043   2.762   4.080
  879HOH      O 2822   2.747   0.516   3.331
  879HOH     H1 2823   2.803   0.544   3.259
  879HOH     H2 2824   2.780   0.429   3.356
  880HOH      O 2825   3.144   2.523   2.938
  880HOH     H1 2826   3.157   2.451   3.000
  880HOH     H2 2827   3.049   2.530   2.929
  881HOH      O 2828   1.553   0.909   1.028
  881HOH     H1 2829   1.579   0.993   1.067
  881HOH     H2 2830   1.574   0.844   1.095
  882HOH      O 2831   4.031   2.322   3.076
  882HOH     H1 2832   4.054   2.307   2.984
  882HOH     H2 2833   3.979   2.246   3.100
  883HOH      O 2834   1.298   2.424   3.495
  883HOH     H1 2835   1.267   2.412   3.585
  883HOH     H2 2836   1.315   2.518   3.487
  884HOH      O 2837   0.149   2.457   3.305
  884HOH     H1 2838   0.235   2.416   3.312
  884HOH     H2 2839   0.107   2.412   3.232
  885HOH      O 2840   1.825   1.295   1.458
  885HOH     H1 2841   1.805   1.384   1.484
  885HOH     H2 2842   1.890   1.304   1.388
  886HOH      O 2843   2.858   3.957   1.376
  886HOH     H1 2844   2.776   3.908   1.371
  886HOH     H2 2845   2.833   4.042   1.412
  887HOH      O 2846   2.642   1.032   2.713
  887HOH     H1 2847   2.619   1.003   2.625
  887HOH     H2 2848   2.602   1.118   2.721
  888HOH      O 2849   2.063   2.290   2.577
  888HOH     H1 2850   2.028   2.203   2.597
  888HOH     H2 2851   2.157   2.277   2.566
  889HOH      O 2852   0.369   3.110   0.295
  889HOH     H1 2853   0.286   3.071   0.321
  889HOH     H2 2854   0.345   3.196   0.259
  890HOH      O 2855   1.144   0.378   0.147
  890HOH     H1 2856   1.205   0.350   0.215
  890HOH     H2 2857   1.064   0.401   0.195
  891HOH      O 2858   0.433   2.691   3.777
  891HOH     H1 2859   0.494   2.619   3.762
  891HOH     H2 2860   0.489   2.765   3.800
  892HOH      O 2861   2.685   3.221   3.490
  892HOH     H1 2862   2.645   3.187   3.570
  892HOH     H2 2863   2.761   3.165   3.476
  893HOH      O 2864   0.699   2.689   1.220
  893HOH     H1 2865   0.651   2.703   1.138
  893HOH     H2 2866   0.680   2.767   1.272
  894HOH      O 2867   0.304   3.010   1.688
  894HOH     H1 2868   0.378   3.048   1.640
  894HOH     H2 2869   0.292   3.069   1.763
  895HOH      O 2870   2.850   0.212   1.443
  895HOH     H1 2871   2.791   0.224   1.369
  895HOH     H2 2872   2.938   0.228   1.408
  896HOH      O 2873   3.610   2.660   1.728
  896HOH     H1 2874   3.629   2.577   1.685
  896HOH     H2 2875   3.563   2.711   1.661
  897HOH      O 2876   2.237   2.370   2.322
  897HOH     H1 2877   2.144   2.385   2.342
  897HOH     H2 2878   2.275   2.338   2.404
  898HOH      O 2879   0.118   3.772   2.797
  898HOH     H1 2880   0.045   3.821   2.760
  898HOH     H2 2881   0.162   3.733   2.721
  899HOH      O 2882   2.186   3.808   0.238
  899HOH     H1 2883   2.135   3.744   0.189
  899HOH     H2 2884   2.235   3.856   0.172
  900HOH      O 2885   2.899   3.856   1.067
  900HOH     H1 2886   2.974   3.915   1.077
  900HOH     H2 2887   2.873   3.836   1.156
  901HOH      O 2888   2.538   3.719   3.384
  901HOH     H1 2889   2.627   3.695   3.410
  901HOH     H2 2890   2.484   3.646   3.412
  902HOH      O 2891   3.703   3.931   1.432
  902HOH     H1 2892   3.780   3.886   1.396
  902HOH     H2 2893   3.736   3.978   1.508
  903HOH      O 2894   2.298   3.040   0.378
  903HOH     H1 2895   2.245   3.096   0.321
  903HOH     H2 2896   2.235   2.979   0.417
  904HOH      O 2897   3.689   1.660   1.652
  904HOH     H1 2898   3.706   1.577   1.697
  904HOH     H2 2899   3.596   1.676   1.664
  905HOH      O 2900   2.252   1.952   0.973
  905HOH     H1 2901   2.233   1.911   0.889
  905HOH     H2 2902   2.265   1.878   1.033
  906HOH      O 2903   3.074   2.762   0.201
  906HOH     H1 2904   3.088   2.822   0.274
  906HOH     H2 2905   3.097   2.813   0.123
  907HOH      O 2906   0.769   2.093   3.993
  907HOH     H1 2907   0.818   2.102   3.911
  907HOH     H2 2908   0.771   1.999   4.011
  908HOH      O 2909   2.869   2.617   3.610
  908HOH     H1 2910   2.927   2.559   3.561
  908HOH     H2 2911   2.911   2.627   3.695
  909HOH      O 2912   3.037   0.696   0.226
  909HOH     H1 2913   2.993   0.769   0.185
  909HOH     H2 2914   2.988   0.619   0.197
  910HOH      O 2915   1.874   0.542   1.612
  910HOH     H1 2916   1.833   0.466   1.651
  910HOH     H2 2917   1.840   0.617   1.662
  911HOH      O 2918   0.839   1.587   2.507
  911HOH     H1 2919   0.848   1.571   2.601
  911HOH     H2 2920   0.893   1.664   2.490
  912HOH      O 2921   3.162   0.717   1.219
  912HOH     H1 2922   3.185   0.805   1.247
  912HOH     H2 2923   3.137   0.672   1.299
  913HOH      O 2924   2.714   0.279   2.836
  913HOH     H1 2925   2.697   0.228   2.757
  913HOH     H2 2926   2.781   0.342   2.809
  914HOH      O 2927   0.163   0.391   2.935
  914HOH     H1 2928   0.117   0.453   2.878
  914HOH     H2 2929   0.101   0.372   3.005
  915HOH      O 2930   1.457   3.080   2.837
  915HOH     H1 2931   1.429   3.064   2.747
  915HOH     H2 2932   1.440   3.173   2.852
  916HOH      O 2933   2.904   1.124   0.765
  916HOH     H1 2934   2.883   1.152   0.854
  916HOH     H2 2935   2.884   1.030   0.764
  917HOH      O 2936   2.668   0.741   1.861
  917HOH     H1 2937   2.746   0.724   1.809
  917HOH     H2 2938   2.677   0.832   1.888
  918HOH      O 2939   3.055   3.769   1.935
  918HOH     H1 2940   3.097   3.846   1.898
  918HOH     H2 2941   2.973   3.802   1.973
  919HOH      O 2942   3.766   2.267   1.029
  919HOH     H1 2943   3.743   2.191   0.975
  919HOH     H2 2944   3.728   2.248   1.115
  920HOH      O 2945   3.126   3.702   2.785
  920HOH     H1 2946   3.206   3.657   2.811
  920HOH     H2 2947   3.064   3.681   2.856
  921HOH      O 2948   2.971   0.926   1.052
  921HOH     H1 2949   2.952   0.845   1.098
  921HOH     H2 2950   2.958   0.905   0.960
  922HOH      O 2951   1.465   0.528   0.650
  922HOH     H1 2952   1.436   0.455   0.704
  922HOH     H2 2953   1.431   0.509   0.562
  923HOH      O 2954   0.099   3.808   3.677
  923HOH     H1 2955   0.094   3.717   3.647
  923HOH     H2 2956   0.193   3.823   3.687
  924HOH      O 2957   0.425   2.570   0.405
  924HOH     H1 2958   0.374   2.596   0.481
  924HOH     H2 2959   0.382   2.614   0.331
  925HOH      O 2960   0.108   1.297   0.423
  925HOH     H1 2961   0.112   1.225   0.486
  925HOH     H2 2962   0.036   1.273   0.365
  926HOH      O 2963   0.918   3.226   1.490
  926HOH     H1 2964   0.963   3.282   1.427
  926HOH     H2 2965   0.985   3.167   1.523
  927HOH      O 2966   3.023   3.828   4.016
  927HOH     H1 2967   3.055   3.917   4.031
  927HOH     H2 2968   3.004   3.824   3.922
  928HOH      O 2969   2.526   0.013   2.932
  928HOH     H1 2970   2.568   0.076   2.990
  928HOH     H2 2971   2.533  -0.071   2.979
  929HOH      O 2972   1.487   2.614   1.764
  929HOH     H1 2973   1.578   2.639   1.753
  929HOH     H2 2974   1.483   2.523   1.733
  930HOH      O 2975   0.795   0.917   3.929
  930HOH     H1 2976   0.750   0.980   3.872
  930HOH     H2 2977   0.786   0.833   3.885
  931HOH      O 2978   0.197   2.522   1.571
  931HOH     H1 2979   0.243   2.588   1.621
  931HOH     H2 2980   0.105   2.532   1.597
  932HOH      O 2981   3.455   3.770   2.567
  932HOH     H1 2982   3.472   3.840   2.504
  932HOH     H2 2983   3.511   3.791   2.641
  933HOH      O 2984   1.643   2.776   1.508
  933HOH     H1 2985   1.683   2.721   1.576
  933HOH     H2 2986   1.575   2.721   1.470
  934HOH      O 2987   1.976   1.017   2.118
  934HOH     H1 2988   2.028   1.098   2.116
  934HOH     H2 2989   2.031   0.952   2.075
  935HOH      O 2990   2.032   2.798   3.153
  935HOH     H1 2991   1.956   2.852   3.178
  935HOH     H2 2992   1.997   2.710   3.143
  936HOH      O 2993   1.256   1.208   3.260
  936HOH     H1 2994   1.328   1.150   3.284
  936HOH     H2 2995   1.178   1.161   3.287
  937HOH      O 2996   3.775   0.061   0.399
  937HOH     H1 2997   3.777   0.054   0.303
  937HOH     H2 2998   3.778  -0.030   0.429
  938HOH      O 2999   3.101   1.333   3.152
  938HOH     H1 3000   3.132   1.244   3.170
  938HOH     H2 3001   3.142   1.387   3.219
  939HOH      O 3002   0.021   3.323   2.983
  939HOH     H1 3003   0.090   3.375   2.944
  939HOH     H2 3004  -0.007   3.372   3.060
  940HOH      O 3005   1.283   1.984   2.998
  940HOH     H1 3006   1.315   2.067   2.965
  940HOH     H2 3007   1.230   1.949   2.926
  941HOH      O 3008   3.509   3.758   3.613
  941HOH     H1 3009   3.559   3.829   3.572
  941HOH     H2 3010   3.576   3.704   3.655
  942HOH      O 3011   0.462   2.632   2.782
  942HOH     H1 3012   0.418   2.713   2.756
  942HOH     H2 3013   0.393   2.578   2.820
  943HOH      O 3014   2.186   0.399   0.424
  943HOH     H1 3015   2.141   0.482   0.438
  943HOH     H2 3016   2.270   0.410   0.469
  944HOH      O 3017   3.550   0.808   0.837
  944HOH     H1 3018   3.571   0.766   0.921
  944HOH     H2 3019   3.624   0.787   0.781
  945HOH      O 3020   0.210   3.496   2.848
  945HOH     H1 3021   0.259   3.564   2.895
  945HOH     H2 3022   0.276   3.433   2.820
  946HOH      O 3023   3.707   0.916   1.218
  946HOH     H1 3024   3.760   0.971   1.276
  946HOH     H2 3025   3.635   0.972   1.191
  947HOH      O 3026   3.700   2.722   0.578
  947HOH     H1 3027   3.680   2.668   0.502
  947HOH     H2 3028   3.779   2.683   0.615
  948HOH      O 3029   1.800   2.975   3.611
  948HOH     H1 3030   1.819   3.065   3.637
  948HOH     H2 3031   1.798   2.978   3.516
  949HOH      O 3032   0.926   2.788   2.400
  949HOH     H1 3033   0.949   2.707   2.355
  949HOH     H2 3034   0.975   2.856   2.355
  950HOH      O 3035   1.467   2.742   0.869
  950HOH     H1 3036   1.485   2.701   0.954
  950HOH     H2 3037   1.485   2.673   0.805
  951HOH      O 3038   3.040   1.347   2.417
  951HOH     H1 3039   3.001   1.274   2.369
  951HOH     H2 3040   3.016   1.332   2.509
  952HOH      O 3041   1.997   3.907   2.740
  952HOH     H1 3042   2.049   3.987   2.738
  952HOH     H2 3043   2.054   3.840   2.702
  953HOH      O 3044   3.465   4.000   0.443
  953HOH     H1 3045   3.405   4.035   0.509
  953HOH     H2 3046   3.407   3.962   0.376
  954HOH      O 3047   0.338   3.000   3.486
  954HOH     H1 3048   0.288   3.017   3.565
  954HOH     H2 3049   0.289   2.931   3.441
  955HOH      O 3050   1.540   2.102   3.981
  955HOH     H1 3051   1.538   2.008   4.001
  955HOH     H2 3052   1.450   2.124   3.958
  956HOH      O 3053   1.013   0.182   0.522
  956HOH     H1 3054   0.925   0.219   0.514
  956HOH     H2 3055   1.009   0.099   0.474
  957HOH      O 3056   3.257   2.893   0.393
  957HOH     H1 3057   3.294   2.839   0.462
  957HOH     H2 3058   3.320   2.888   0.321
  958HOH      O 3059   1.046   0.035   3.319
  958HOH     H1 3060   1.055  -0.060   3.326
  958HOH     H2 3061   1.061   0.054   3.227
  959HOH      O 3062   0.183   1.818   0.305
  959HOH     H1 3063   0.189   1.731   0.343
  959HOH     H2 3064   0.252   1.869   0.348
  960HOH      O 3065   1.486   2.539   1.445
  960HOH     H1 3066   1.494   2.485   1.523
  960HOH     H2 3067   1.401   2.515   1.407
  961HOH      O 3068   3.277   1.032   1.012
  961HOH     H1 3069   3.242   1.080   0.936
  961HOH     H2 3070   3.297   0.945   0.978
  962HOH      O 3071   2.055   0.460   2.200
  962HOH     H1 3072   2.047   0.544   2.245
  962HOH     H2 3073   2.047   0.482   2.107
  963HOH      O 3074   2.573   0.549   2.051
  963HOH     H1 3075   2.612   0.591   1.974
  963HOH     H2 3076   2.512   0.484   2.015
  964HOH      O 3077   3.333   3.271   3.935
  964HOH     H1 3078   3.262   3.279   3.872
  964HOH     H2 3079   3.338   3.177   3.954
  965HOH      O 3080   3.403   0.748   2.737
  965HOH     H1 3081   3.417   0.714   2.648
  965HOH     H2 3082   3.373   0.672   2.787
  966HOH      O 3083   0.261   1.726   2.887
  966HOH     H1 3084   0.254   1.673   2.808
  966HOH     H2 3085   0.336   1.690   2.934
  967HOH      O 3086   2.201   0.078   2.339
  967HOH     H1 3087   2.212   0.118   2.253
  967HOH     H2 3088   2.123   0.120   2.375
  968HOH      O 3089   0.187   3.276   3.759
  968HOH     H1 3090   0.100   3.281   3.799
  968HOH     H2 3091   0.191   3.189   3.719
  969HOH      O 3092   2.204   2.283   0.922
  969HOH     H1 3093   2.177   2.368   0.955
  969HOH     H2 3094   2.154   2.220   0.974
  970HOH      O 3095   3.688   0.439   2.112
  970HOH     H1 3096   3.655   0.359   2.154
  970HOH     H2 3097   3.777   0.417   2.084
  971HOH      O 3098   3.969   2.097   3.732
  971HOH     H1 3099   3.891   2.075   3.682
  971HOH     H2 3100   3.996   2.015   3.772
  972HOH      O 3101   3.484   0.287   2.556
  972HOH     H1 3102   3.568   0.277   2.601
  972HOH     H2 3103   3.420   0.249   2.616
  973HOH      O 3104   1.093   2.595   3.327
  973HOH     H1 3105   1.122   2.635   3.409
  973HOH     H2 3106   1.085   2.502   3.347
  974HOH      O 3107   0.788   0.264   0.150
  974HOH     H1 3108   0.766   0.356   0.164
  974HOH     H2 3109   0.704   0.217   0.160
  975HOH      O 3110   0.127   0.207   2.696
  975HOH     H1 3111   0.092   0.291   2.668
  975HOH     H2 3112   0.079   0.187   2.777
  976HOH      O 3113   0.945   1.681   3.032
  976HOH     H1 3114   0.924   1.653   3.121
  976HOH     H2 3115   1.033   1.647   3.015
  977HOH      O 3116   3.164   0.014   3.900
  977HOH     H1 3117   3.168   0.043   3.809
  977HOH     H2 3118   3.236  -0.048   3.909
  978HOH      O 3119   1.824   1.277   0.134
  978HOH     H1 3120   1.788   1.206   0.188
  978HOH     H2 3121   1.906   1.301   0.177
  979HOH      O 3122   2.359   3.720   0.858
  979HOH     H1 3123   2.356   3.785   0.787
  979HOH     H2 3124   2.386   3.639   0.815
  980HOH      O 3125   3.122   2.988   2.094
  980HOH     H1 3126   3.138   3.081   2.074
  980HOH     H2 3127   3.129   2.944   2.009
  981HOH      O 3128   0.372   1.139   3.294
  981HOH     H1 3129   0.355   1.225   3.254
  981HOH     H2 3130   0.318   1.078   3.244
  982HOH      O 3131   2.540   1.693   1.345
  982HOH     H1 3132   2.450   1.670   1.368
  982HOH     H2 3133   2.579   1.611   1.315
  983HOH      O 3134   2.478   0.655   0.341
  983HOH     H1 3135   2.455   0.746   0.362
  983HOH     H2 3136   2.480   0.653   0.246
  984HOH      O 3137   2.717   2.234   3.829
  984HOH     H1 3138   2.694   2.300   3.765
  984HOH     H2 3139   2.755   2.162   3.778
  985HOH      O 3140   0.530   2.172   2.357
  985HOH     H1 3141   0.553   2.246   2.414
  985HOH     H2 3142   0.538   2.207   2.268
  986HOH      O 3143   0.337   2.533   1.033
  986HOH     H1 3144   0.372   2.603   1.088
  986HOH     H2 3145   0.409   2.470   1.025
  987HOH      O 3146   0.208   2.917   2.898
  987HOH     H1 3147   0.225   2.848   2.962
  987HOH     H2 3148   0.123   2.954   2.925
  988HOH      O 3149   2.470   3.354   2.732
  988HOH     H1 3150   2.449   3.413   2.805
  988HOH     H2 3151   2.519   3.283   2.773
  989HOH      O 3152   3.099  -0.005   1.128
  989HOH     H1 3153   3.166   0.016   1.063
  989HOH     H2 3154   3.078   0.079   1.169
  990HOH      O 3155   1.277   2.144   3.995
  990HOH     H1 3156   1.211   2.110   4.056
  990HOH     H2 3157   1.251   2.109   3.910
  991HOH      O 3158   2.041   3.859   2.417
  991HOH     H1 3159   2.115   3.916   2.439
  991HOH     H2 3160   2.066   3.773   2.452
  992HOH      O 3161   3.304   3.373   3.209
  992HOH     H1 3162   3.304   3.469   3.207
  992HOH     H2 3163   3.328   3.351   3.299
  993HOH      O 3164   2.947   3.655   3.011
  993HOH     H1 3165   2.989   3.664   3.096
  993HOH     H2 3166   2.903   3.570   3.015
  994HOH      O 3167   3.128   0.576   3.679
  994HOH     H1 3168   3.166   0.633   3.746
  994HOH     H2 3169   3.035   0.572   3.700
  995HOH      O 3170   3.580   3.484   2.669
  995HOH     H1 3171   3.492   3.498   2.703
  995HOH     H2 3172   3.594   3.389   2.674
  996HOH      O 3173   4.009   2.646   0.497
  996HOH     H1 3174   3.983   2.619   0.585
  996HOH     H2 3175   4.023   2.564   0.450
  997HOH      O 3176   1.313   2.247   2.871
  997HOH     H1 3177   1.228   2.283   2.846
  997HOH     H2 3178   1.357   2.229   2.788
  998HOH      O 3179   3.158   0.974   3.700
  998HOH     H1 3180   3.080   0.957   3.753
  998HOH     H2 3181   3.219   1.015   3.761
  999HOH      O 3182   0.555   2.187   0.711
  999HOH     H1 3183   0.521   2.098   0.706
  999HOH     H2 3184   0.478   2.242   0.725
 1000HOH      O 3185   0.944   3.678   2.336
 1000HOH     H1 3186   0.891   3.602   2.362
 1000HOH     H2 3187   0.965   3.721   2.419
 1001HOH      O 3188   0.613   0.476   0.221
 1001HOH     H1 3189   0.581   0.462   0.132
 1001HOH     H2 3190   0.548   0.433   0.277
 1002HOH      O 3191   3.433   3.377   0.367
 1002HOH     H1 3192   3.377   3.454   0.357
 1002HOH     H2 3193   3.450   3.372   0.461
 1003HOH      O 3194   0.943   3.146   2.391
 1003HOH     H1 3195   0.966   3.137   2.483
 1003HOH     H2 3196   0.994   3.079   2.347
 1004HOH      O 3197   0.364   1.404   3.185
 1004HOH     H1 3198   0.363   1.464   3.110
 1004HOH     H2 3199   0.323   1.454   3.256
 1005HOH      O 3200   0.245   0.867   0.351
 1005HOH     H1 3201   0.331   0.831   0.327
 1005HOH     H2 3202   0.182   0.806   0.312
 1006HOH      O 3203   1.048   1.017   0.681
 1006HOH     H1 3204   1.007   1.092   0.639
 1006HOH     H2 3205   1.129   1.003   0.632
 1007HOH      O 3206   3.766   3.399   0.044
 1007HOH     H1 3207   3.675   3.422   0.024
 1007HOH     H2 3208   3.770   3.304   0.035
 1008HOH      O 3209   0.652   0.128   1.208
 1008HOH     H1 3210   0.736   0.092   1.236
 1008HOH     H2 3211   0.639   0.090   1.121
 1009HOH      O 3212   0.369   3.407   3.591
 1009HOH     H1 3213   0.321   3.354   3.655
 1009HOH     H2 3214   0.361   3.497   3.625
 1010HOH      O 3215   1.957   3.254   2.396
 1010HOH     H1 3216   1.863   3.273   2.406
 1010HOH     H2 3217   1.982   3.217   2.481
 1011HOH      O 3218   1.078   2.590   3.612
 1011HOH     H1 3219   0.984   2.575   3.622
 1011HOH     H2 3220   1.094   2.674   3.654
 1012HOH      O 3221   1.166   1.929   2.574
 1012HOH     H1 3222   1.143   2.022   2.569
 1012HOH     H2 3223   1.259   1.926   2.552
 1013HOH      O 3224   1.878   0.811   0.179
 1013HOH     H1 3225   1.898   0.901   0.204
 1013HOH     H2 3226   1.810   0.820   0.112
 1014HOH      O 3227   2.148   0.777   2.719
 1014HOH     H1 3228   2.131   0.814   2.632
 1014HOH     H2 3229   2.099   0.695   2.721
 1015HOH      O 3230   2.685   1.452   3.012
 1015HOH     H1 3231   2.687   1.429   3.105
 1015HOH     H2 3232   2.775   1.474   2.990
 1016HOH      O 3233   2.293   3.479   3.679
 1016HOH     H1 3234   2.232   3.553   3.679
 1016HOH     H2 3235   2.336   3.483   3.594
 1017HOH      O 3236   2.785   1.565   2.141
 1017HOH     H1 3237   2.774   1.648   2.093
 1017HOH     H2 3238   2.822   1.591   2.225
 1018HOH      O 3239   2.240   2.926   0.741
 1018HOH     H1 3240   2.311   2.955   0.799
 1018HOH     H2 3241   2.176   2.998   0.745
 1019HOH      O 3242   0.725   3.627   1.614
 1019HOH     H1 3243   0.781   3.558   1.650
 1019HOH     H2 3244   0.732   3.699   1.677
 1020HOH      O 3245   2.834   3.942   0.296
 1020HOH     H1 3246   2.783   3.883   0.352
 1020HOH     H2 3247   2.785   3.946   0.214
 1021HOH      O 3248   3.936   0.433   0.242
 1021HOH     H1 3249   3.911   0.456   0.331
 1021HOH     H2 3250   3.871   0.368   0.215
 1022HOH      O 3251   3.584   1.913   0.286
 1022HOH     H1 3252   3.653   1.977   0.272
 1022HOH     H2 3253   3.604   1.874   0.371
 1023HOH      O 3254   2.695   3.676   2.307
 1023HOH     H1 3255   2.686   3.766   2.337
 1023HOH     H2 3256   2.714   3.626   2.387
 1024HOH      O 3257   2.022   2.845   1.381
 1024HOH     H1 3258   1.953   2.901   1.417
 1024HOH     H2 3259   2.004   2.758   1.417
 1025HOH      O 3260   2.003   4.013   3.524
 1025HOH     H1 3261   1.964   4.046   3.604
 1025HOH     H2 3262   2.091   3.985   3.549
 1026HOH      O 3263   0.030   1.861   1.747
 1026HOH     H1 3264   0.026   1.908   1.663
 1026HOH     H2 3265  -0.002   1.924   1.811
 1027HOH      O 3266   2.157   0.792   0.402
 1027HOH     H1 3267   2.216   0.745   0.461
 1027HOH     H2 3268   2.074   0.744   0.408
 1028HOH      O 3269   3.590   1.293   0.973
 1028HOH     H1 3270   3.543   1.292   0.890
 1028HOH     H2 3271   3.656   1.224   0.964
 1029HOH      O 3272   0.933   2.248   3.172
 1029HOH     H1 3273   0.962   2.261   3.262
 1029HOH     H2 3274   0.875   2.172   3.176
 1030HOH      O 3275   3.923   1.464   2.781
 1030HOH     H1 3276   3.885   1.545   2.749
 1030HOH     H2 3277   3.961   1.422   2.704
 1031HOH      O 3278   3.279   3.024   4.018
 1031HOH     H1 3279   3.304   2.972   4.094
 1031HOH     H2 3280   3.294   2.965   3.943
 1032HOH      O 3281   0.102   1.456   2.987
 1032HOH     H1 3282   0.050   1.457   2.907
 1032HOH     H2 3283   0.187   1.421   2.960
 1033HOH      O 3284   2.217   3.958   1.746
 1033HOH     H1 3285   2.305   3.934   1.716
 1033HOH     H2 3286   2.210   4.051   1.724
 1034HOH      O 3287   3.327   2.261   1.641
 1034HOH     H1 3288   3.352   2.183   1.592
 1034HOH     H2 3289   3.301   2.229   1.727
 1035HOH      O 3290   2.512   1.925   0.361
 1035HOH     H1 3291   2.593   1.927   0.412
 1035HOH     H2 3292   2.457   1.991   0.403
 1036HOH      O 3293   2.751   1.576   3.913
 1036HOH     H1 3294   2.770   1.525   3.992
 1036HOH     H2 3295   2.676   1.630   3.937
 1037HOH      O 3296   3.640   2.924   2.036
 1037HOH     H1 3297   3.735   2.925   2.047
 1037HOH     H2 3298   3.612   3.011   2.064
 1038HOH      O 3299   2.756   3.862   2.952
 1038HOH     H1 3300   2.691   3.863   3.023
 1038HOH     H2 3301   2.796   3.775   2.958
 1039HOH      O 3302   3.873   0.626   3.666
 1039HOH     H1 3303   3.961   0.643   3.700
 1039HOH     H2 3304   3.831   0.713   3.663
 1040HOH      O 3305   0.559   2.266   3.748
 1040HOH     H1 3306   0.610   2.345   3.760
 1040HOH     H2 3307   0.533   2.240   3.837
 1041HOH      O 3308   1.627   3.661   1.364
 1041HOH     H1 3309   1.693   3.707   1.416
 1041HOH     H2 3310   1.614   3.718   1.288
 1042HOH      O 3311   1.196   2.215   3.650
 1042HOH     H1 3312   1.243   2.263   3.718
 1042HOH     H2 3313   1.113   2.190   3.691
 1043HOH      O 3314   2.480   0.540   3.257
 1043HOH     H1 3315   2.502   0.567   3.168
 1043HOH     H2 3316   2.564   0.538   3.303
 1044HOH      O 3317   0.722   2.901   3.034
 1044HOH     H1 3318   0.715   2.959   3.110
 1044HOH     H2 3319   0.756   2.819   3.069
 1045HOH      O 3320   0.593   0.057   2.178
 1045HOH     H1 3321   0.650   0.131   2.196
 1045HOH     H2 3322   0.532   0.089   2.111
 1046HOH      O 3323   2.405   2.194   1.152
 1046HOH     H1 3324   2.351   2.256   1.201
 1046HOH     H2 3325   2.442   2.137   1.219
 1047HOH      O 3326   1.912   2.301   2.072
 1047HOH     H1 3327   1.820   2.294   2.047
 1047HOH     H2 3328   1.951   2.217   2.048
 1048HOH      O 3329   0.279   2.207   3.327
 1048HOH     H1 3330   0.222   2.139   3.362
 1048HOH     H2 3331   0.350   2.214   3.389
 1049HOH      O 3332   0.750   1.410   0.114
 1049HOH     H1 3333   0.819   1.455   0.065
 1049HOH     H2 3334   0.695   1.371   0.046
 1050HOH      O 3335   3.457   0.214   0.231
 1050HOH     H1 3336   3.552   0.223   0.226
 1050HOH     H2 3337   3.438   0.134   0.183
 1051HOH      O 3338   1.100   2.058   0.167
 1051HOH     H1 3339   1.058   2.140   0.192
 1051HOH     H2 3340   1.050   1.990   0.211
 1052HOH      O 3341   0.552   0.383   3.284
 1052HOH     H1 3342   0.602   0.448   3.236
 1052HOH     H2 3343   0.503   0.335   3.217
 1053HOH      O 3344   1.622   0.185   2.539
 1053HOH     H1 3345   1.633   0.158   2.630
 1053HOH     H2 3346   1.707   0.224   2.516
 1054HOH      O 3347   0.430   1.984   2.907
 1054HOH     H1 3348   0.393   1.976   2.819
 1054HOH     H2 3349   0.518   1.946   2.900
 1055HOH      O 3350   1.390   0.096   0.560
 1055HOH     H1 3351   1.405   0.169   0.619
 1055HOH     H2 3352   1.412   0.018   0.612
 1056HOH      O 3353   3.035   1.926   1.751
 1056HOH     H1 3354   3.110   1.867   1.750
 1056HOH     H2 3355   2.974   1.889   1.687
 1057HOH      O 3356   0.562   2.380   2.555
 1057HOH     H1 3357   0.538   2.472   2.561
 1057HOH     H2 3358   0.621   2.365   2.628
 1058HOH      O 3359   1.102   3.361   2.318
 1058HOH     H1 3360   1.044   3.286   2.330
 1058HOH     H2 3361   1.180   3.325   2.276
 1059HOH      O 3362   1.602   3.805   1.053
 1059HOH     H1 3363   1.693   3.776   1.060
 1059HOH     H2 3364   1.605   3.900   1.058
 1060HOH      O 3365   3.796   2.608   3.232
 1060HOH     H1 3366   3.734   2.653   3.175
 1060HOH     H2 3367   3.781   2.515   3.215
 1061HOH      O 3368   1.370   3.616   1.042
 1061HOH     H1 3369   1.356   3.623   0.947
 1061HOH     H2 3370   1.451   3.666   1.057
 1062HOH      O 3371   3.061   1.867   2.861
 1062HOH     H1 3372   2.995   1.927   2.827
 1062HOH     H2 3373   3.119   1.922   2.914
 1063HOH      O 3374   1.667   0.794   0.029
 1063HOH     H1 3375   1.637   0.876  -0.011
 1063HOH     H2 3376   1.586   0.752   0.058
 1064HOH      O 3377   3.252   0.176   1.920
 1064HOH     H1 3378   3.288   0.257   1.882
 1064HOH     H2 3379   3.176   0.204   1.970
 1065HOH      O 3380   2.853   3.275   2.803
 1065HOH     H1 3381   2.810   3.190   2.813
 1065HOH     H2 3382   2.826   3.305   2.716
 1066HOH      O 3383   0.316   0.325   0.692
 1066HOH     H1 3384   0.250   0.394   0.704
 1066HOH     H2 3385   0.368   0.327   0.771
 1067HOH      O 3386   3.064   2.160   2.744
 1067HOH     H1 3387   3.014   2.168   2.825
 1067HOH     H2 3388   3.103   2.247   2.731
 1068HOH      O 3389   2.162   1.205   3.555
 1068HOH     H1 3390   2.257   1.210   3.544
 1068HOH     H2 3391   2.147   1.120   3.596
 1069HOH      O 3392   2.433   0.866   3.612
 1069HOH     H1 3393   2.514   0.866   3.561
 1069HOH     H2 3394   2.448   0.802   3.681
 1070HOH      O 3395   0.826   0.671   1.698
 1070HOH     H1 3396   0.910   0.697   1.660
 1070HOH     H2 3397   0.790   0.608   1.635
 1071HOH      O 3398   2.385   1.337   0.086
 1071HOH     H1 3399   2.423   1.351   0.173
 1071HOH     H2 3400   2.346   1.421   0.063
 1072HOH      O 3401   2.213   1.037   3.235
 1072HOH     H1 3402   2.208   0.998   3.148
 1072HOH     H2 3403   2.167   0.975   3.292
 1073HOH      O 3404   3.850   0.137   1.238
 1073HOH     H1 3405   3.884   0.051   1.215
 1073HOH     H2 3406   3.875   0.193   1.164
 1074HOH      O 3407   3.206   0.339   2.838
 1074HOH     H1 3408   3.123   0.319   2.881
 1074HOH     H2 3409   3.230   0.256   2.795
 1075HOH      O 3410   0.853   3.141   1.076
 1075HOH     H1 3411   0.770   3.188   1.079
 1075HOH     H2 3412   0.854   3.088   1.156
 1076HOH      O 3413   1.804   0.681   3.700
 1076HOH     H1 3414   1.884   0.723   3.670
 1076HOH     H2 3415   1.828   0.638   3.782
 1077HOH      O 3416   1.865   3.232   0.803
 1077HOH     H1 3417   1.799   3.225   0.872
 1077HOH     H2 3418   1.832   3.301   0.745
 1078HOH      O 3419   0.422   3.574   3.944
 1078HOH     H1 3420   0.426   3.480   3.964
 1078HOH     H2 3421   0.402   3.577   3.850
 1079HOH      O 3422   1.031   0.462   2.066
 1079HOH     H1 3423   1.091   0.434   1.998
 1079HOH     H2 3424   0.946   0.469   2.022
 1080HOH      O 3425   3.826   2.030   3.037
 1080HOH     H1 3426   3.765   1.967   3.075
 1080HOH     H2 3427   3.892   1.976   2.992
 1081HOH      O 3428   1.351   3.948   3.208
 1081HOH     H1 3429   1.418   3.968   3.143
 1081HOH     H2 3430   1.285   4.017   3.197
 1082HOH      O 3431   1.087   0.527   0.879
 1082HOH     H1 3432   1.098   0.614   0.916
 1082HOH     H2 3433   1.060   0.543   0.788
 1083HOH      O 3434   2.157   2.070   3.529
 1083HOH     H1 3435   2.153   2.134   3.601
 1083HOH     H2 3436   2.121   1.990   3.566
 1084HOH      O 3437   2.558   1.699   1.739
 1084HOH     H1 3438   2.620   1.691   1.812
 1084HOH     H2 3439   2.474   1.673   1.778
 1085HOH      O 3440   1.197   2.652   2.784
 1085HOH     H1 3441   1.123   2.700   2.746
 1085HOH     H2 3442   1.190   2.667   2.878
 1086HOH      O 3443   1.103   1.875   3.170
 1086HOH     H1 3444   1.017   1.855   3.133
 1086HOH     H2 3445   1.141   1.939   3.110
 1087HOH      O 3446   0.692   2.638   2.463
 1087HOH     H1 3447   0.642   2.712   2.497
 1087HOH     H2 3448   0.755   2.619   2.532
 1088HOH      O 3449   0.144   2.849   3.343
 1088HOH     H1 3450   0.064   2.887   3.307
 1088HOH     H2 3451   0.115   2.770   3.389
 1089HOH      O 3452   1.608   3.277   0.206
 1089HOH     H1 3453   1.700   3.290   0.230
 1089HOH     H2 3454   1.600   3.182   0.195
 1090HOH      O 3455   3.825   1.707   1.397
 1090HOH     H1 3456   3.778   1.733   1.477
 1090HOH     H2 3457   3.884   1.636   1.426
 1091HOH      O 3458   2.683   0.559   3.614
 1091HOH     H1 3459   2.603   0.507   3.619
 1091HOH     H2 3460   2.717   0.541   3.527
 1092HOH      O 3461   2.652   2.809   2.363
 1092HOH     H1 3462   2.715   2.787   2.432
 1092HOH     H2 3463   2.571   2.828   2.409
 1093HOH      O 3464   2.164   2.654   1.532
 1093HOH     H1 3465   2.179   2.633   1.440
 1093HOH     H2 3466   2.229   2.604   1.580
 1094HOH      O 3467   0.151   0.964   3.204
 1094HOH     H1 3468   0.103   0.891   3.164
 1094HOH     H2 3469   0.089   1.038   3.201
 1095HOH      O 3470   3.151   2.486   1.913
 1095HOH     H1 3471   3.111   2.428   1.977
 1095HOH     H2 3472   3.099   2.566   1.918
 1096HOH      O 3473   0.544   0.085   1.824
 1096HOH     H1 3474   0.604   0.160   1.822
 1096HOH     H2 3475   0.458   0.123   1.840
 1097HOH      O 3476   3.947   0.188   2.865
 1097HOH     H1 3477   3.928   0.129   2.938
 1097HOH     H2 3478   3.942   0.275   2.904
 1098HOH      O 3479   0.017   0.585   2.295
 1098HOH     H1 3480  -0.041   0.610   2.223
 1098HOH     H2 3481   0.097   0.554   2.253
 1099HOH      O 3482   1.792   3.994   2.953
 1099HOH     H1 3483   1.820   3.930   3.017
 1099HOH     H2 3484   1.848   3.979   2.877
 1100HOH      O 3485   2.322   4.035   1.388
 1100HOH     H1 3486   2.242   3.997   1.424
 1100HOH     H2 3487   2.372   3.959   1.357
 1101HOH      O 3488   0.853   0.495   0.350
 1101HOH     H1 3489   0.792   0.510   0.278
 1101HOH     H2 3490   0.804   0.440   0.411
 1102HOH      O 3491   1.591   3.115   2.544
 1102HOH     H1 3492   1.513   3.059   2.551
 1102HOH     H2 3493   1.631   3.090   2.461
 1103HOH      O 3494   1.489   3.009   1.803
 1103HOH     H1 3495   1.399   3.020   1.835
 1103HOH     H2 3496   1.482   3.022   1.709
 1104HOH      O 3497   3.743   1.936   1.639
 1104HOH     H1 3498   3.684   1.926   1.714
 1104HOH     H2 3499   3.819   1.881   1.661
 1105HOH      O 3500   1.858   3.670   2.831
 1105HOH     H1 3501   1.895   3.749   2.791
 1105HOH     H2 3502   1.826   3.618   2.758
 1106HOH      O 3503   2.329   1.174   2.864
 1106HOH     H1 3504   2.257   1.128   2.908
 1106HOH     H2 3505   2.309   1.166   2.771
 1107HOH      O 3506   2.596   3.362   3.143
 1107HOH     H1 3507   2.545   3.305   3.200
 1107HOH     H2 3508   2.666   3.396   3.199
 1108HOH      O 3509   2.324   3.343   1.054
 1108HOH     H1 3510   2.386   3.281   1.017
 1108HOH     H2 3511   2.240   3.321   1.012
 1109HOH      O 3512   0.768   3.969   1.930
 1109HOH     H1 3513   0.689   4.019   1.910
 1109HOH     H2 3514   0.766   3.959   2.025
 1110HOH      O 3515   3.964   1.930   0.393
 1110HOH     H1 3516   3.968   1.887   0.479
 1110HOH     H2 3517   4.042   1.899   0.347
 1111HOH      O 3518   3.121   3.172   2.814
 1111HOH     H1 3519   3.035   3.213   2.815
 1111HOH     H2 3520   3.125   3.125   2.898
 1112HOH      O 3521   1.325   3.968   1.864
 1112HOH     H1 3522   1.411   4.008   1.879
 1112HOH     H2 3523   1.263   4.039   1.878
 1113HOH      O 3524   3.045   2.203   1.083
 1113HOH     H1 3525   3.002   2.279   1.122
 1113HOH     H2 3526   2.995   2.128   1.115
 1114HOH      O 3527   3.384   2.578   0.061
 1114HOH     H1 3528   3.315   2.547   0.120
 1114HOH     H2 3529   3.465   2.541   0.097
 1115HOH      O 3530   2.661   1.497   1.179
 1115HOH     H1 3531   2.646   1.529   1.090
 1115HOH     H2 3532   2.629   1.407   1.178
 1116HOH      O 3533   3.638   1.924   1.880
 1116HOH     H1 3534   3.644   1.920   1.975
 1116HOH     H2 3535   3.573   1.858   1.856
 1117HOH      O 3536   0.831   3.687   0.949
 1117HOH     H1 3537   0.876   3.771   0.959
 1117HOH     H2 3538   0.901   3.622   0.943
 1118HOH      O 3539   3.322   2.757   3.899
 1118HOH     H1 3540   3.337   2.711   3.981
 1118HOH     H2 3541   3.337   2.691   3.832
 1119HOH      O 3542   2.865   2.575   2.956
 1119HOH     H1 3543   2.826   2.648   3.004
 1119HOH     H2 3544   2.800   2.551   2.891
 1120HOH      O 3545   1.219   3.723   1.748
 1120HOH     H1 3546   1.281   3.789   1.781
 1120HOH     H2 3547   1.267   3.680   1.677
 1121HOH      O 3548   2.443   0.810   0.935
 1121HOH     H1 3549   2.478   0.722   0.926
 1121HOH     H2 3550   2.353   0.797   0.966
 1122HOH      O 3551   0.101   2.052   0.135
 1122HOH     H1 3552   0.029   1.998   0.101
 1122HOH     H2 3553   0.156   1.991   0.184
 1123HOH      O 3554   1.816   1.544   0.463
 1123HOH     H1 3555   1.773   1.630   0.463
 1123HOH     H2 3556   1.902   1.561   0.423
 1124HOH      O 3557   2.524   3.641   1.390
 1124HOH     H1 3558   2.533   3.560   1.339
 1124HOH     H2 3559   2.474   3.615   1.467
 1125HOH      O 3560   3.633   1.891   2.471
 1125HOH     H1 3561   3.630   1.807   2.425
 1125HOH     H2 3562   3.542   1.910   2.492
 1126HOH      O 3563   1.779   2.585   1.635
 1126HOH     H1 3564   1.787   2.491   1.646
 1126HOH     H2 3565   1.812   2.602   1.546
 1127HOH      O 3566   2.690   0.866   3.450
 1127HOH     H1 3567   2.762   0.920   3.419
 1127HOH     H2 3568   2.726   0.816   3.524
 1128HOH      O 3569   1.954   0.300   2.633
 1128HOH     H1 3570   1.948   0.396   2.638
 1128HOH     H2 3571   1.946   0.281   2.539
 1129HOH      O 3572   3.685   0.820   0.066
 1129HOH     H1 3573   3.721   0.835  -0.021
 1129HOH     H2 3574   3.651   0.905   0.094
 1130HOH      O 3575   3.655   1.604   2.673
 1130HOH     H1 3576   3.615   1.648   2.599
 1130HOH     H2 3577   3.645   1.510   2.655
 1131HOH      O 3578   3.593   0.546   0.104
 1131HOH     H1 3579   3.618   0.638   0.097
 1131HOH     H2 3580   3.667   0.505   0.149
 1132HOH      O 3581   1.495   0.536   3.979
 1132HOH     H1 3582   1.453   0.598   4.038
 1132HOH     H2 3583   1.509   0.585   3.898
 1133HOH      O 3584   2.576   3.168   2.914
 1133HOH     H1 3585   2.535   3.109   2.977
 1133HOH     H2 3586   2.624   3.231   2.968
 1134HOH      O 3587   0.183   3.140   0.928
 1134HOH     H1 3588   0.256   3.140   0.990
 1134HOH     H2 3589   0.222   3.170   0.846
 1135HOH      O 3590   0.488   0.440   4.010
 1135HOH     H1 3591   0.400   0.405   4.020
 1135HOH     H2 3592   0.534   0.375   3.956
 1136HOH      O 3593   2.592   3.900   1.356
 1136HOH     H1 3594   2.566   3.898   1.264
 1136HOH     H2 3595   2.564   3.815   1.391
 1137HOH      O 3596   0.674   0.094   0.915
 1137HOH     H1 3597   0.736   0.022   0.903
 1137HOH     H2 3598   0.593   0.063   0.874
 1138HOH      O 3599   2.826   1.167   1.014
 1138HOH     H1 3600   2.887   1.111   1.063
 1138HOH     H2 3601   2.743   1.121   1.017
 1139HOH      O 3602   1.433   3.657   2.845
 1139HOH     H1 3603   1.415   3.744   2.810
 1139HOH     H2 3604   1.429   3.599   2.769
 1140HOH      O 3605   3.993   1.329   3.599
 1140HOH     H1 3606   3.936   1.253   3.593
 1140HOH     H2 3607   3.966   1.385   3.526
 1141HOH      O 3608   0.361   3.900   1.044
 1141HOH     H1 3609   0.347   3.926   0.953
 1141HOH     H2 3610   0.456   3.892   1.052
 1142HOH      O 3611   0.455   3.536   1.584
 1142HOH     H1 3612   0.409   3.453   1.596
 1142HOH     H2 3613   0.547   3.515   1.601
 1143HOH      O 3614   0.420   2.888   2.390
 1143HOH     H1 3615   0.512   2.907   2.411
 1143HOH     H2 3616   0.380   2.866   2.474
 1144HOH      O 3617   3.128   0.566   3.187
 1144HOH     H1 3618   3.035   0.556   3.165
 1144HOH     H2 3619   3.140   0.514   3.266
 1145HOH      O 3620   2.157   3.654   1.811
 1145HOH     H1 3621   2.129   3.644   1.720
 1145HOH     H2 3622   2.245   3.615   1.813
 1146HOH      O 3623   3.768   2.832   3.941
 1146HOH     H1 3624   3.843   2.787   3.978
 1146HOH     H2 3625   3.750   2.904   4.001
 1147HOH      O 3626   3.179   1.176   0.825
 1147HOH     H1 3627   3.151   1.268   0.820
 1147HOH     H2 3628   3.101   1.128   0.851
 1148HOH      O 3629   1.397   0.276   2.423
 1148HOH     H1 3630   1.479   0.240   2.457
 1148HOH     H2 3631   1.418   0.303   2.334
 1149HOH      O 3632   2.395   4.017   0.391
 1149HOH     H1 3633   2.372   4.098   0.345
 1149HOH     H2 3634   2.408   3.953   0.321
 1150HOH      O 3635   2.289   0.206   1.697
 1150HOH     H1 3636   2.295   0.290   1.651
 1150HOH     H2 3637   2.380   0.185   1.720
 1151HOH      O 3638   3.116   3.843   1.404
 1151HOH     H1 3639   3.097   3.849   1.311
 1151HOH     H2 3640   3.030   3.845   1.447
 1152HOH      O 3641   2.032   1.315   0.290
 1152HOH     H1 3642   2.020   1.297   0.383
 1152HOH     H2 3643   2.049   1.409   0.286
 1153HOH      O 3644   0.358   3.682   3.015
 1153HOH     H1 3645   0.454   3.678   3.007
 1153HOH     H2 3646   0.336   3.769   2.983
 1154HOH      O 3647   1.385   0.455   2.969
 1154HOH     H1 3648   1.456   0.501   3.015
 1154HOH     H2 3649   1.392   0.486   2.879
 1155HOH      O 3650   0.372   0.047   2.685
 1155HOH     H1 3651   0.411   0.040   2.598
 1155HOH     H2 3652   0.310   0.120   2.678
 1156HOH      O 3653   1.217   2.863   3.426
 1156HOH     H1 3654   1.281   2.848   3.497
 1156HOH     H2 3655   1.170   2.942   3.454
 1157HOH      O 3656   3.502   1.640   2.410
 1157HOH     H1 3657   3.526   1.584   2.336
 1157HOH     H2 3658   3.420   1.603   2.442
 1158HOH      O 3659   0.521   1.092   0.998
 1158HOH     H1 3660   0.492   1.074   0.908
 1158HOH     H2 3661   0.605   1.135   0.988
 1159HOH      O 3662   1.576   0.076   0.126
 1159HOH     H1 3663   1.640   0.036   0.185
 1159HOH     H2 3664   1.543   0.003   0.074
 1160HOH      O 3665   3.185   3.298   1.350
 1160HOH     H1 3666   3.240   3.336   1.419
 1160HOH     H2 3667   3.109   3.355   1.345
 1161HOH      O 3668   1.109   0.037   3.037
 1161HOH     H1 3669   1.134  -0.015   2.961
 1161HOH     H2 3670   1.064   0.113   3.001
 1162HOH      O 3671   0.668   2.438   2.281
 1162HOH     H1 3672   0.666   2.517   2.334
 1162HOH     H2 3673   0.712   2.373   2.336
 1163HOH      O 3674   0.899   3.800   3.013
 1163HOH     H1 3675   0.890   3.890   2.982
 1163HOH     H2 3676   0.951   3.756   2.945
 1164HOH      O 3677   0.729   0.883   0.383
 1164HOH     H1 3678   0.770   0.964   0.353
 1164HOH     H2 3679   0.637   0.892   0.356
 1165HOH      O 3680   0.411   3.296   3.950
 1165HOH     H1 3681   0.338   3.291   3.889
 1165HOH     H2 3682   0.479   3.241   3.910
 1166HOH      O 3683   1.027   1.146   3.429
 1166HOH     H1 3684   1.048   1.133   3.521
 1166HOH     H2 3685   0.977   1.227   3.427
 1167HOH      O 3686   3.912   3.915   2.711
 1167HOH     H1 3687   3.871   3.830   2.695
 1167HOH     H2 3688   3.846   3.964   2.760
 1168HOH      O 3689   0.818   2.050   2.582
 1168HOH     H1 3690   0.738   2.047   2.529
 1168HOH     H2 3691   0.886   2.012   2.526
 1169HOH      O 3692   3.736   3.434   0.803
 1169HOH     H1 3693   3.804   3.474   0.857
 1169HOH     H2 3694   3.707   3.504   0.745
 1170HOH      O 3695   2.695   0.146   2.369
 1170HOH     H1 3696   2.651   0.177   2.289
 1170HOH     H2 3697   2.635   0.168   2.440
 1171HOH      O 3698   0.797   0.051   2.916
 1171HOH     H1 3699   0.775   0.085   2.829
 1171HOH     H2 3700   0.849   0.120   2.957
 1172HOH      O 3701   3.286   3.375   3.490
 1172HOH     H1 3702   3.294   3.409   3.579
 1172HOH     H2 3703   3.282   3.280   3.501
 1173HOH      O 3704   2.932   3.309   2.164
 1173HOH     H1 3705   2.939   3.298   2.259
 1173HOH     H2 3706   2.878   3.235   2.136
 1174HOH      O 3707   1.158   3.178   3.173
 1174HOH     H1 3708   1.067   3.156   3.192
 1174HOH     H2 3709   1.179   3.248   3.234
 1175HOH      O 3710   2.610   0.013   0.766
 1175HOH     H1 3711   2.661   0.093   0.775
 1175HOH     H2 3712   2.521   0.038   0.793
 1176HOH      O 3713   0.928   2.307   2.366
 1176HOH     H1 3714   1.007   2.262   2.399
 1176HOH     H2 3715   0.906   2.260   2.286
 1177HOH      O 3716   3.346   0.549   2.924
 1177HOH     H1 3717   3.328   0.575   3.015
 1177HOH     H2 3718   3.283   0.479   2.906
 1178HOH      O 3719   2.137   2.052   3.254
 1178HOH     H1 3720   2.141   2.068   3.348
 1178HOH     H2 3721   2.227   2.032   3.229
 1179HOH      O 3722   3.890   0.205   3.604
 1179HOH     H1 3723   3.975   0.244   3.627
 1179HOH     H2 3724   3.913   0.125   3.557
 1180HOH      O 3725   1.170   3.876   0.674
 1180HOH     H1 3726   1.199   3.894   0.584
 1180HOH     H2 3727   1.200   3.786   0.691
 1181HOH      O 3728   1.606   0.490   3.143
 1181HOH     H1 3729   1.585   0.570   3.191
 1181HOH     H2 3730   1.588   0.420   3.205
 1182HOH      O 3731   2.278   3.735   2.959
 1182HOH     H1 3732   2.211   3.727   2.890
 1182HOH     H2 3733   2.234   3.785   3.028
 1183HOH      O 3734   2.532   3.967   3.542
 1183HOH     H1 3735   2.542   3.897   3.478
 1183HOH     H2 3736   2.612   3.965   3.594
 1184HOH      O 3737   3.397   3.734   0.710
 1184HOH     H1 3738   3.433   3.810   0.755
 1184HOH     H2 3739   3.384   3.669   0.779
 1185HOH      O 3740   0.333   0.590   3.566
 1185HOH     H1 3741   0.302   0.502   3.544
 1185HOH     H2 3742   0.258   0.647   3.550
 1186HOH      O 3743   0.061   2.503   1.150
 1186HOH     H1 3744   0.026   2.479   1.064
 1186HOH     H2 3745   0.150   2.531   1.133
 1187HOH      O 3746   3.626   3.620   3.196
 1187HOH     H1 3747   3.709   3.592   3.233
 1187HOH     H2 3748   3.561   3.594   3.260
 1188HOH      O 3749   0.643   3.973   1.567
 1188HOH     H1 3750   0.595   3.941   1.490
 1188HOH     H2 3751   0.578   4.024   1.616
 1189HOH      O 3752   3.657   2.226   3.428
 1189HOH     H1 3753   3.698   2.263   3.350
 1189HOH     H2 3754   3.563   2.239   3.414
 1190HOH      O 3755   3.831   3.234   2.827
 1190HOH     H1 3756   3.880   3.311   2.798
 1190HOH     H2 3757   3.788   3.263   2.908
 1191HOH      O 3758   1.067   3.547   0.233
 1191HOH     H1 3759   0.978   3.527   0.204
 1191HOH     H2 3760   1.093   3.623   0.182
 1192HOH      O 3761   2.000   1.639   0.099
 1192HOH     H1 3762   1.932   1.705   0.089
 1192HOH     H2 3763   2.000   1.591   0.016
 1193HOH      O 3764   0.244   2.904   1.371
 1193HOH     H1 3765   0.181   2.832   1.379
 1193HOH     H2 3766   0.204   2.976   1.421
 1194HOH      O 3767   2.282   2.911   1.461
 1194HOH     H1 3768   2.243   2.979   1.516
 1194HOH     H2 3769   2.207   2.866   1.422
 1195HOH      O 3770   3.688   2.364   3.182
 1195HOH     H1 3771   3.713   2.338   3.094
 1195HOH     H2 3772   3.594   2.347   3.187
 1196HOH      O 3773   1.277   0.393   3.865
 1196HOH     H1 3774   1.304   0.445   3.941
 1196HOH     H2 3775   1.183   0.383   3.874
 1197HOH      O 3776   1.830   0.254   1.301
 1197HOH     H1 3777   1.887   0.204   1.359
 1197HOH     H2 3778   1.864   0.238   1.213
 1198HOH      O 3779   3.041   3.216   1.647
 1198HOH     H1 3780   3.073   3.175   1.727
 1198HOH     H2 3781   3.069   3.157   1.577
 1199HOH      O 3782   1.383   2.153   0.820
 1199HOH     H1 3783   1.346   2.241   0.822
 1199HOH     H2 3784   1.315   2.098   0.859
 1200HOH      O 3785   0.313   0.734   2.488
 1200HOH     H1 3786   0.306   0.664   2.553
 1200HOH     H2 3787   0.311   0.815   2.539
 1201HOH      O 3788   1.112   2.410   4.017
 1201HOH     H1 3789   1.194   2.362   4.004
 1201HOH     H2 3790   1.111   2.476   3.947
 1202HOH      O 3791   3.926   2.807   3.003
 1202HOH     H1 3792   3.892   2.838   3.087
 1202HOH     H2 3793   3.936   2.886   2.951
 1203HOH      O 3794   1.569   0.222   1.269
 1203HOH     H1 3795   1.529   0.308   1.262
 1203HOH     H2 3796   1.663   0.240   1.278
 1204HOH      O 3797   0.816   3.852   0.663
 1204HOH     H1 3798   0.824   3.759   0.641
 1204HOH     H2 3799   0.901   3.889   0.640
 1205HOH      O 3800   1.398   1.256   0.592
 1205HOH     H1 3801   1.359   1.175   0.558
 1205HOH     H2 3802   1.492   1.238   0.595
 1206HOH      O 3803   2.993   0.864   1.642
 1206HOH     H1 3804   2.911   0.913   1.631
 1206HOH     H2 3805   3.044   0.885   1.564
 1207HOH      O 3806   3.383   2.557   2.437
 1207HOH     H1 3807   3.288   2.569   2.433
 1207HOH     H2 3808   3.401   2.490   2.372
 1208HOH      O 3809   3.691   1.665   3.728
 1208HOH     H1 3810   3.645   1.747   3.748
 1208HOH     H2 3811   3.771   1.692   3.684
 1209HOH      O 3812   1.619   3.196   1.963
 1209HOH     H1 3813   1.578   3.122   1.917
 1209HOH     H2 3814   1.700   3.212   1.915
 1210HOH      O 3815   0.780   2.425   1.478
 1210HOH     H1 3816   0.687   2.433   1.502
 1210HOH     H2 3817   0.799   2.332   1.486
 1211HOH      O 3818   2.941   1.994   1.303
 1211HOH     H1 3819   2.893   1.985   1.220
 1211HOH     H2 3820   2.878   1.967   1.370
 1212HOH      O 3821   3.801   3.998   2.079
 1212HOH     H1 3822   3.768   3.930   2.138
 1212HOH     H2 3823   3.724   4.025   2.028
 1213HOH      O 3824   0.396   1.758   2.439
 1213HOH     H1 3825   0.401   1.793   2.350
 1213HOH     H2 3826   0.330   1.689   2.434
 1214HOH      O 3827   0.658   0.604   1.002
 1214HOH     H1 3828   0.707   0.685   0.990
 1214HOH     H2 3829   0.724   0.539   1.024
 1215HOH      O 3830   2.792   2.254   1.993
 1215HOH     H1 3831   2.867   2.195   1.982
 1215HOH     H2 3832   2.741   2.213   2.063
 1216HOH      O 3833   3.690   2.404   2.453
 1216HOH     H1 3834   3.626   2.382   2.520
 1216HOH     H2 3835   3.710   2.320   2.411
 1217HOH      O 3836   2.491   3.800   1.138
 1217HOH     H1 3837   2.507   3.806   1.044
 1217HOH     H2 3838   2.469   3.707   1.153
 1218HOH      O 3839   0.593   1.011   1.600
 1218HOH     H1 3840   0.566   1.033   1.511
 1218HOH     H2 3841   0.688   1.027   1.600
 1219HOH      O 3842   2.917   0.424   0.264
 1219HOH     H1 3843   2.863   0.393   0.192
 1219HOH     H2 3844   2.854   0.452   0.331
 1220HOH      O 3845   3.698   3.836   2.321
 1220HOH     H1 3846   3.659   3.750   2.334
 1220HOH     H2 3847   3.784   3.829   2.363
 1221HOH      O 3848   3.978   1.057   1.282
 1221HOH     H1 3849   4.009   1.066   1.192
 1221HOH     H2 3850   4.001   0.967   1.305
 1222HOH      O 3851   1.057   3.057   0.830
 1222HOH     H1 3852   0.988   3.097   0.883
 1222HOH     H2 3853   1.013   3.034   0.748
 1223HOH      O 3854   2.539   0.524   0.865
 1223HOH     H1 3855   2.447   0.508   0.843
 1223HOH     H2 3856   2.574   0.438   0.886
 1224HOH      O 3857   1.709   2.536   2.124
 1224HOH     H1 3858   1.619   2.525   2.095
 1224HOH     H2 3859   1.755   2.571   2.048
 1225HOH      O 3860   2.366   0.603   2.594
 1225HOH     H1 3861   2.338   0.672   2.534
 1225HOH     H2 3862   2.453   0.578   2.563
 1226HOH      O 3863   0.698   2.764   2.708
 1226HOH     H1 3864   0.688   2.854   2.738
 1226HOH     H2 3865   0.630   2.715   2.755
 1227HOH      O 3866   3.301   1.253   1.761
 1227HOH     H1 3867   3.306   1.187   1.830
 1227HOH     H2 3868   3.344   1.212   1.686
 1228HOH      O 3869   3.769   1.586   1.143
 1228HOH     H1 3870   3.789   1.654   1.207
 1228HOH     H2 3871   3.702   1.625   1.087
 1229HOH      O 3872   2.053   1.261   0.573
 1229HOH     H1 3873   2.044   1.324   0.644
 1229HOH     H2 3874   2.020   1.179   0.610
 1230HOH      O 3875   0.145   3.437   2.450
 1230HOH     H1 3876   0.209   3.373   2.421
 1230HOH     H2 3877   0.065   3.386   2.465
 1231HOH      O 3878   3.822   3.359   1.685
 1231HOH     H1 3879   3.778   3.291   1.737
 1231HOH     H2 3880   3.867   3.311   1.616
 1232HOH      O 3881   3.284   1.331   1.423
 1232HOH     H1 3882   3.263   1.310   1.333
 1232HOH     H2 3883   3.380   1.333   1.425
 1233HOH      O 3884   1.038   1.249   0.032
 1233HOH     H1 3885   1.086   1.228   0.112
 1233HOH     H2 3886   0.983   1.172   0.016
 1234HOH      O 3887   3.562   0.037   2.843
 1234HOH     H1 3888   3.552  -0.053   2.876
 1234HOH     H2 3889   3.604   0.026   2.757
 1235HOH      O 3890   0.107   0.307   1.643
 1235HOH     H1 3891   0.155   0.230   1.613
 1235HOH     H2 3892   0.025   0.305   1.594
 1236HOH      O 3893   2.134   1.627   2.504
 1236HOH     H1 3894   2.214   1.602   2.549
 1236HOH     H2 3895   2.163   1.685   2.433
 1237HOH      O 3896   0.855   2.662   2.115
 1237HOH     H1 3897   0.852   2.757   2.110
 1237HOH     H2 3898   0.940   2.643   2.155
 1238HOH      O 3899   3.659   0.818   3.663
 1238HOH     H1 3900   3.598   0.869   3.610
 1238HOH     H2 3901   3.604   0.774   3.728
 1239HOH      O 3902   0.861   2.440   3.911
 1239HOH     H1 3903   0.825   2.519   3.952
 1239HOH     H2 3904   0.909   2.396   3.981
 1240HOH      O 3905   3.464   0.598   3.558
 1240HOH     H1 3906   3.403   0.666   3.531
 1240HOH     H2 3907   3.475   0.612   3.652
 1241HOH      O 3908   0.451   2.456   0.042
 1241HOH     H1 3909   0.424   2.546   0.061
 1241HOH     H2 3910   0.370   2.405   0.046
 1242HOH      O 3911   1.197   3.429   3.589
 1242HOH     H1 3912   1.285   3.463   3.578
 1242HOH     H2 3913   1.170   3.400   3.502
 1243HOH      O 3914   1.024   0.564   0.598
 1243HOH     H1 3915   0.959   0.498   0.577
 1243HOH     H2 3916   1.030   0.619   0.520
 1244HOH      O 3917   3.560   0.741   1.378
 1244HOH     H1 3918   3.591   0.651   1.369
 1244HOH     H2 3919   3.627   0.793   1.332
 1245HOH      O 3920   3.471   2.509   3.529
 1245HOH     H1 3921   3.396   2.500   3.588
 1245HOH     H2 3922   3.545   2.478   3.580
 1246HOH      O 3923   3.825   3.075   1.652
 1246HOH     H1 3924   3.792   3.069   1.562
 1246HOH     H2 3925   3.751   3.111   1.702
 1247HOH      O 3926   3.906   2.537   3.875
 1247HOH     H1 3927   3.959   2.529   3.796
 1247HOH     H2 3928   3.945   2.610   3.922
 1248HOH      O 3929   2.399   0.749   3.871
 1248HOH     H1 3930   2.319   0.773   3.919
 1248HOH     H2 3931   2.470   0.787   3.922
 1249HOH      O 3932   2.017   3.049   0.431
 1249HOH     H1 3933   2.064   3.091   0.504
 1249HOH     H2 3934   1.956   3.116   0.401
 1250HOH      O 3935   1.134   1.515   2.349
 1250HOH     H1 3936   1.158   1.434   2.393
 1250HOH     H2 3937   1.038   1.516   2.352
 1251HOH      O 3938   3.951   0.704   1.984
 1251HOH     H1 3939   3.871   0.757   1.978
 1251HOH     H2 3940   4.022   0.768   1.978
 1252HOH      O 3941   0.811   1.709   3.777
 1252HOH     H1 3942   0.900   1.701   3.743
 1252HOH     H2 3943   0.764   1.633   3.740
 1253HOH      O 3944   0.621   2.880   3.747
 1253HOH     H1 3945   0.699   2.828   3.766
 1253HOH     H2 3946   0.614   2.879   3.651
 1254HOH      O 3947   1.385   2.335   0.107
 1254HOH     H1 3948   1.471   2.344   0.065
 1254HOH     H2 3949   1.343   2.263   0.060
 1255HOH      O 3950   0.326   0.322   1.197
 1255HOH     H1 3951   0.340   0.228   1.210
 1255HOH     H2 3952   0.337   0.335   1.103
 1256HOH      O 3953   0.667   3.633   0.049
 1256HOH     H1 3954   0.711   3.606  -0.031
 1256HOH     H2 3955   0.574   3.636   0.026
 1257HOH      O 3956   0.073   1.306   2.399
 1257HOH     H1 3957   0.122   1.233   2.437
 1257HOH     H2 3958   0.140   1.369   2.374
 1258HOH      O 3959   2.035   2.103   1.081
 1258HOH     H1 3960   2.044   2.137   1.170
 1258HOH     H2 3961   2.096   2.029   1.077
 1259HOH      O 3962   2.386   0.894   1.849
 1259HOH     H1 3963   2.416   0.837   1.920
 1259HOH     H2 3964   2.400   0.843   1.769
 1260HOH      O 3965   0.718   1.330   1.306
 1260HOH     H1 3966   0.656   1.259   1.290
 1260HOH     H2 3967   0.787   1.316   1.241
 1261HOH      O 3968   0.066   0.424   2.564
 1261HOH     H1 3969   0.067   0.459   2.475
 1261HOH     H2 3970  -0.022   0.442   2.597
 1262HOH      O 3971   0.143   0.284   0.259
 1262HOH     H1 3972   0.093   0.260   0.337
 1262HOH     H2 3973   0.084   0.342   0.210
 1263HOH      O 3974   0.515   2.163   3.995
 1263HOH     H1 3975   0.603   2.127   3.997
 1263HOH     H2 3976   0.510   2.220   4.071
 1264HOH      O 3977   2.786   1.488   1.860
 1264HOH     H1 3978   2.804   1.501   1.953
 1264HOH     H2 3979   2.866   1.519   1.816
 1265HOH      O 3980   0.873   2.168   1.493
 1265HOH     H1 3981   0.939   2.195   1.429
 1265HOH     H2 3982   0.923   2.131   1.565
 1266HOH      O 3983   0.174   1.048   0.168
 1266HOH     H1 3984   0.101   1.046   0.228
 1266HOH     H2 3985   0.141   1.006   0.088
 1267HOH      O 3986   0.571   0.111   0.211
 1267HOH     H1 3987   0.496   0.087   0.266
 1267HOH     H2 3988   0.603   0.028   0.176
 1268HOH      O 3989   0.384   1.631   3.698
 1268HOH     H1 3990   0.338   1.548   3.684
 1268HOH     H2 3991   0.432   1.619   3.779
 1269HOH      O 3992   2.833   3.668   1.371
 1269HOH     H1 3993   2.740   3.653   1.355
 1269HOH     H2 3994   2.841   3.676   1.466
 1270HOH      O 3995   1.122   1.761  -0.010
 1270HOH     H1 3996   1.117   1.763   0.086
 1270HOH     H2 3997   1.088   1.674  -0.033
 1271HOH      O 3998   2.740   2.649   0.558
 1271HOH     H1 3999   2.750   2.740   0.529
 1271HOH     H2 4000   2.787   2.644   0.641
 1272HOH      O 4001   3.557   3.105   0.468
 1272HOH     H1 4002   3.501   3.183   0.467
 1272HOH     H2 4003   3.641   3.137   0.502
 1273HOH      O 4004   1.878   0.569   2.525
 1273HOH     H1 4005   1.786   0.563   2.500
 1273HOH     H2 4006   1.919   0.619   2.455
 1274HOH      O 4007   2.337   1.192   2.586
 1274HOH     H1 4008   2.415   1.233   2.550
 1274HOH     H2 4009   2.294   1.152   2.511
 1275HOH      O 4010   1.719   0.767   1.258
 1275HOH     H1 4011   1.763   0.771   1.173
 1275HOH     H2 4012   1.760   0.692   1.302
 1276HOH      O 4013   1.206   3.416   3.312
 1276HOH     H1 4014   1.290   3.411   3.266
 1276HOH     H2 4015   1.161   3.490   3.273
 1277HOH      O 4016   3.908   1.656   3.528
 1277HOH     H1 4017   3.899   1.579   3.472
 1277HOH     H2 4018   3.926   1.727   3.467
 1278HOH      O 4019   0.204   2.219   0.936
 1278HOH     H1 4020   0.180   2.144   0.882
 1278HOH     H2 4021   0.241   2.181   1.015
 1279HOH      O 4022   0.070   3.854   3.981
 1279HOH     H1 4023   0.151   3.839   4.030
 1279HOH     H2 4024   0.076   3.795   3.906
 1280HOH      O 4025   3.783   2.353   0.581
 1280HOH     H1 4026   3.720   2.357   0.509
 1280HOH     H2 4027   3.812   2.261   0.582
 1281HOH      O 4028   1.913   2.497   2.753
 1281HOH     H1 4029   1.871   2.457   2.829
 1281HOH     H2 4030   1.991   2.540   2.789
 1282HOH      O 4031   2.604   2.391   1.821
 1282HOH     H1 4032   2.664   2.336   1.870
 1282HOH     H2 4033   2.528   2.335   1.804
 1283HOH      O 4034   0.245   1.538   0.338
 1283HOH     H1 4035   0.209   1.455   0.366
 1283HOH     H2 4036   0.273   1.523   0.248
 1284HOH      O 4037   0.530   2.275   0.256
 1284HOH     H1 4038   0.555   2.316   0.338
 1284HOH     H2 4039   0.496   2.348   0.203
 1285HOH      O 4040   0.518   0.562   0.571
 1285HOH     H1 4041   0.579   0.526   0.635
 1285HOH     H2 4042   0.492   0.486   0.518
 1286HOH      O 4043   1.872   3.499   1.656
 1286HOH     H1 4044   1.886   3.405   1.667
 1286HOH     H2 4045   1.863   3.511   1.561
 1287HOH      O 4046   3.336   1.551   3.931
 1287HOH     H1 4047   3.420   1.506   3.921
 1287HOH     H2 4048   3.360   1.642   3.949
 1288HOH      O 4049   0.998   0.672   3.982
 1288HOH     H1 4050   0.905   0.694   3.973
 1288HOH     H2 4051   1.026   0.649   3.894
 1289HOH      O 4052   0.168   1.069   2.511
 1289HOH     H1 4053   0.093   1.030   2.556
 1289HOH     H2 4054   0.228   1.094   2.582
 1290HOH      O 4055   2.484   2.412   0.876
 1290HOH     H1 4056   2.424   2.473   0.918
 1290HOH     H2 4057   2.530   2.464   0.811
 1291HOH      O 4058   0.461   0.137   0.530
 1291HOH     H1 4059   0.390   0.116   0.470
 1291HOH     H2 4060   0.421   0.197   0.594
 1292HOH      O 4061   1.516   0.085   3.533
 1292HOH     H1 4062   1.554  -0.003   3.526
 1292HOH     H2 4063   1.466   0.083   3.615
 1293HOH      O 4064   0.256   3.683   2.546
 1293HOH     H1 4065   0.202   3.761   2.539
 1293HOH     H2 4066   0.205   3.614   2.503
 1294HOH      O 4067   2.355   1.374   2.082
 1294HOH     H1 4068   2.405   1.456   2.074
 1294HOH     H2 4069   2.403   1.311   2.028
 1295HOH      O 4070   0.557   2.812   3.467
 1295HOH     H1 4071   0.485   2.873   3.452
 1295HOH     H2 4072   0.623   2.835   3.402
 1296HOH      O 4073   2.076   0.640   0.083
 1296HOH     H1 4074   2.021   0.692   0.142
 1296HOH     H2 4075   2.137   0.703   0.046
 1297HOH      O 4076   1.799   1.163   3.848
 1297HOH     H1 4077   1.854   1.116   3.909
 1297HOH     H2 4078   1.806   1.114   3.766
 1298HOH      O 4079   2.406   1.747   3.342
 1298HOH     H1 4080   2.437   1.703   3.263
 1298HOH     H2 4081   2.419   1.683   3.412
 1299HOH      O 4082   3.413   0.523   3.192
 1299HOH     H1 4083   3.339   0.568   3.233
 1299HOH     H2 4084   3.490   0.552   3.242
 1300HOH      O 4085   3.822   0.422   3.460
 1300HOH     H1 4086   3.859   0.482   3.525
 1300HOH     H2 4087   3.848   0.335   3.490
 1301HOH      O 4088   0.134   2.035   0.748
 1301HOH     H1 4089   0.155   2.044   0.655
 1301HOH     H2 4090   0.212   1.996   0.787
 1302HOH      O 4091   2.258   3.297   3.901
 1302HOH     H1 4092   2.267   3.358   3.827
 1302HOH     H2 4093   2.343   3.253   3.906
 1303HOH      O 4094   2.040   1.447   3.665
 1303HOH     H1 4095   2.084   1.362   3.659
 1303HOH     H2 4096   1.968   1.441   3.601
 1304HOH      O 4097   1.123   0.433   2.845
 1304HOH     H1 4098   1.134   0.440   2.751
 1304HOH     H2 4099   1.204   0.392   2.876
 1305HOH      O 4100   2.760   3.105   2.082
 1305HOH     H1 4101   2.726   3.110   1.993
 1305HOH     H2 4102   2.682   3.089   2.136
 1306HOH      O 4103   2.678   2.277   1.004
 1306HOH     H1 4104   2.746   2.327   1.048
 1306HOH     H2 4105   2.613   2.342   0.978
 1307HOH      O 4106   0.380   0.873   0.782
 1307HOH     H1 4107   0.465   0.909   0.760
 1307HOH     H2 4108   0.396   0.814   0.855
 1308HOH      O 4109   2.507   1.723   3.958
 1308HOH     H1 4110   2.443   1.673   4.009
 1308HOH     H2 4111   2.517   1.805   4.006
 1309HOH      O 4112   3.695   0.981   3.309
 1309HOH     H1 4113   3.712   0.890   3.287
 1309HOH     H2 4114   3.741   0.995   3.392
 1310HOH      O 4115   3.680   3.918   0.802
 1310HOH     H1 4116   3.734   3.860   0.748
 1310HOH     H2 4117   3.679   4.001   0.755
 1311HOH      O 4118   3.017   2.874   3.982
 1311HOH     H1 4119   2.928   2.857   4.011
 1311HOH     H2 4120   3.009   2.942   3.916
 1312HOH      O 4121   2.687   2.244   2.751
 1312HOH     H1 4122   2.709   2.336   2.733
 1312HOH     H2 4123   2.628   2.220   2.680
 1313HOH      O 4124   2.211   1.807   0.458
 1313HOH     H1 4125   2.189   1.812   0.551
 1313HOH     H2 4126   2.160   1.877   0.417
 1314HOH      O 4127   3.976   3.067   2.658
 1314HOH     H1 4128   3.931   3.125   2.720
 1314HOH     H2 4129   4.005   3.125   2.587
 1315HOH      O 4130   2.513   2.606   0.693
 1315HOH     H1 4131   2.442   2.669   0.688
 1315HOH     H2 4132   2.576   2.636   0.627
 1316HOH      O 4133   0.977   1.943   1.099
 1316HOH     H1 4134   0.946   1.860   1.135
 1316HOH     H2 4135   0.902   2.002   1.107
 1317HOH      O 4136   0.677   3.911   2.374
 1317HOH     H1 4137   0.618   3.953   2.311
 1317HOH     H2 4138   0.763   3.947   2.354
 1318HOH      O 4139   3.905   3.526   0.994
 1318HOH     H1 4140   3.850   3.537   1.071
 1318HOH     H2 4141   3.994   3.521   1.028
 1319HOH      O 4142   0.493   1.652   0.984
 1319HOH     H1 4143   0.412   1.639   0.935
 1319HOH     H2 4144   0.469   1.636   1.075
 1320HOH      O 4145   2.175   3.096   3.065
 1320HOH     H1 4146   2.265   3.070   3.085
 1320HOH     H2 4147   2.138   3.124   3.148
 1321HOH      O 4148   1.210   3.483   3.848
 1321HOH     H1 4149   1.121   3.517   3.842
 1321HOH     H2 4150   1.227   3.446   3.761
 1322HOH      O 4151   0.887   0.045   0.034
 1322HOH     H1 4152   0.850   0.065  -0.052
 1322HOH     H2 4153   0.865   0.120   0.088
 1323HOH      O 4154   2.831   2.783   2.545
 1323HOH     H1 4155   2.925   2.764   2.547
 1323HOH     H2 4156   2.818   2.849   2.613
 1324HOH      O 4157   1.347   2.022   3.503
 1324HOH     H1 4158   1.300   2.079   3.563
 1324HOH     H2 4159   1.365   1.942   3.552
 1325HOH      O 4160   0.990   1.516   3.983
 1325HOH     H1 4161   0.972   1.499   3.891
 1325HOH     H2 4162   1.015   1.430   4.019
 1326HOH      O 4163   0.183   0.317   3.394
 1326HOH     H1 4164   0.266   0.341   3.352
 1326HOH     H2 4165   0.122   0.304   3.322
 1327HOH      O 4166   1.781   2.942   1.808
 1327HOH     H1 4167   1.687   2.926   1.814
 1327HOH     H2 4168   1.821   2.858   1.833
 1328HOH      O 4169   2.397   4.004   2.707
 1328HOH     H1 4170   2.443   4.015   2.791
 1328HOH     H2 4171   2.309   4.037   2.724
 1329HOH      O 4172   3.394   0.432   3.976
 1329HOH     H1 4173   3.352   0.392   4.053
 1329HOH     H2 4174   3.477   0.466   4.010
 1330HOH      O 4175   0.861   1.054   1.626
 1330HOH     H1 4176   0.869   1.139   1.668
 1330HOH     H2 4177   0.951   1.032   1.599
 1331HOH      O 4178   1.045   3.782   3.287
 1331HOH     H1 4179   1.135   3.761   3.265
 1331HOH     H2 4180   0.995   3.760   3.209
 1332HOH      O 4181   3.143   0.902   3.182
 1332HOH     H1 4182   3.202   0.935   3.114
 1332HOH     H2 4183   3.121   0.814   3.154
 1333HOH      O 4184   0.772   2.881   1.960
 1333HOH     H1 4185   0.714   2.956   1.975
 1333HOH     H2 4186   0.726   2.830   1.892
 1334HOH      O 4187   0.175   3.795   1.696
 1334HOH     H1 4188   0.108   3.848   1.740
 1334HOH     H2 4189   0.154   3.705   1.721
 1335HOH      O 4190   0.427   3.950   1.376
 1335HOH     H1 4191   0.390   3.862   1.367
 1335HOH     H2 4192   0.474   3.964   1.293
 1336HOH      O 4193   1.961   2.269   0.260
 1336HOH     H1 4194   1.939   2.215   0.336
 1336HOH     H2 4195   1.883   2.267   0.205
 1337HOH      O 4196   2.592   1.305   2.747
 1337HOH     H1 4197   2.591   1.383   2.692
 1337HOH     H2 4198   2.638   1.333   2.827
 1338HOH      O 4199   2.887   1.585   2.453
 1338HOH     H1 4200   2.913   1.600   2.544
 1338HOH     H2 4201   2.951   1.522   2.421
 1339HOH      O 4202   0.311   0.892   3.838
 1339HOH     H1 4203   0.316   0.886   3.742
 1339HOH     H2 4204   0.227   0.935   3.855
 1340HOH      O 4205   1.808   1.729   3.826
 1340HOH     H1 4206   1.780   1.782   3.902
 1340HOH     H2 4207   1.831   1.644   3.863
 1341HOH      O 4208   0.923   2.229   3.666
 1341HOH     H1 4209   0.877   2.149   3.689
 1341HOH     H2 4210   0.877   2.298   3.714
 1342HOH      O 4211   0.718   1.439   1.561
 1342HOH     H1 4212   0.707   1.398   1.475
 1342HOH     H2 4213   0.764   1.374   1.613
 1343HOH      O 4214   3.923   3.780   1.830
 1343HOH     H1 4215   3.919   3.686   1.812
 1343HOH     H2 4216   3.860   3.793   1.902
 1344HOH      O 4217   0.712   1.344   2.489
 1344HOH     H1 4218   0.744   1.433   2.503
 1344HOH     H2 4219   0.757   1.314   2.410
 1345HOH      O 4220   3.570   1.417   1.710
 1345HOH     H1 4221   3.630   1.347   1.734
 1345HOH     H2 4222   3.486   1.373   1.693
 1346HOH      O 4223   2.483   3.092   1.428
 1346HOH     H1 4224   2.557   3.055   1.380
 1346HOH     H2 4225   2.430   3.016   1.452
 1347HOH      O 4226   2.169   0.356   0.155
 1347HOH     H1 4227   2.165   0.356   0.250
 1347HOH     H2 4228   2.146   0.446   0.130
 1348HOH      O 4229   3.763   0.238   0.104
 1348HOH     H1 4230   3.839   0.181   0.099
 1348HOH     H2 4231   3.730   0.244   0.014
 1349HOH      O 4232   1.821   3.817   2.108
 1349HOH     H1 4233   1.751   3.848   2.165
 1349HOH     H2 4234   1.777   3.785   2.029
 1350HOH      O 4235   0.800   1.225   1.029
 1350HOH     H1 4236   0.828   1.304   0.984
 1350HOH     H2 4237   0.851   1.155   0.989
 1351HOH      O 4238   1.201   1.289   2.521
 1351HOH     H1 4239   1.183   1.291   2.615
 1351HOH     H2 4240   1.289   1.251   2.515
 1352HOH      O 4241   3.542   0.793   0.471
 1352HOH     H1 4242   3.468   0.836   0.514
 1352HOH     H2 4243   3.502   0.737   0.405
 1353HOH      O 4244   0.541   1.544   1.332
 1353HOH     H1 4245   0.579   1.622   1.293
 1353HOH     H2 4246   0.601   1.474   1.310
 1354HOH      O 4247   2.315   2.120   0.120
 1354HOH     H1 4248   2.398   2.161   0.144
 1354HOH     H2 4249   2.261   2.193   0.088
 1355HOH      O 4250   2.235   0.321   2.971
 1355HOH     H1 4251   2.313   0.265   2.973
 1355HOH     H2 4252   2.166   0.265   3.006
 1356HOH      O 4253   2.334   3.440   0.500
 1356HOH     H1 4254   2.343   3.445   0.595
 1356HOH     H2 4255   2.275   3.512   0.478
 1357HOH      O 4256   0.289   1.301   0.148
 1357HOH     H1 4257   0.356   1.259   0.201
 1357HOH     H2 4258   0.224   1.233   0.132
 1358HOH      O 4259   1.655   2.535   3.054
 1358HOH     H1 4260   1.576   2.534   3.000
 1358HOH     H2 4261   1.645   2.460   3.113
 1359HOH      O 4262   3.001   0.292   0.896
 1359HOH     H1 4263   3.009   0.366   0.955
 1359HOH     H2 4264   3.090   0.257   0.888
 1360HOH      O 4265   0.021   1.889   2.913
 1360HOH     H1 4266   0.015   1.942   2.833
 1360HOH     H2 4267   0.092   1.827   2.895
 1361HOH      O 4268   1.729   1.351   3.130
 1361HOH     H1 4269   1.690   1.438   3.126
 1361HOH     H2 4270   1.786   1.346   3.053
 1362HOH      O 4271   2.568   1.757   3.679
 1362HOH     H1 4272   2.480   1.793   3.667
 1362HOH     H2 4273   2.569   1.726   3.770
 1363HOH      O 4274   0.405   2.674   1.260
 1363HOH     H1 4275   0.432   2.764   1.279
 1363HOH     H2 4276   0.327   2.661   1.314
 1364HOH      O 4277   0.981   2.296   1.252
 1364HOH     H1 4278   1.062   2.251   1.227
 1364HOH     H2 4279   0.918   2.272   1.183
 1365HOH      O 4280   1.299   3.056   0.252
 1365HOH     H1 4281   1.352   3.094   0.182
 1365HOH     H2 4282   1.361   3.044   0.325
 1366HOH      O 4283   0.429   0.378   0.395
 1366HOH     H1 4284   0.337   0.380   0.421
 1366HOH     H2 4285   0.462   0.296   0.433
 1367HOH      O 4286   2.733   2.751   1.847
 1367HOH     H1 4287   2.740   2.681   1.782
 1367HOH     H2 4288   2.665   2.722   1.907
 1368HOH      O 4289   2.870   3.000   0.280
 1368HOH     H1 4290   2.878   2.919   0.230
 1368HOH     H2 4291   2.953   3.046   0.265
 1369HOH      O 4292   3.381   1.347   0.122
 1369HOH     H1 4293   3.425   1.327   0.039
 1369HOH     H2 4294   3.406   1.437   0.142
 1370HOH      O 4295   3.546   3.558   2.365
 1370HOH     H1 4296   3.555   3.579   2.458
 1370HOH     H2 4297   3.454   3.534   2.355
 1371HOH      O 4298   1.282   0.099   2.602
 1371HOH     H1 4299   1.370   0.089   2.638
 1371HOH     H2 4300   1.293   0.155   2.526
 1372HOH      O 4301   3.151   2.374   3.974
 1372HOH     H1 4302   3.087   2.304   3.968
 1372HOH     H2 4303   3.126   2.424   4.051
 1373HOH      O 4304   2.810   3.389   2.538
 1373HOH     H1 4305   2.896   3.432   2.536
 1373HOH     H2 4306   2.751   3.455   2.574
 1374HOH      O 4307   2.949   1.604   3.435
 1374HOH     H1 4308   2.854   1.602   3.448
 1374HOH     H2 4309   2.977   1.687   3.475
 1375HOH      O 4310   2.723   1.801   2.999
 1375HOH     H1 4311   2.786   1.753   3.053
 1375HOH     H2 4312   2.720   1.751   2.917
 1376HOH      O 4313   1.599   0.873   0.346
 1376HOH     H1 4314   1.542   0.862   0.270
 1376HOH     H2 4315   1.635   0.786   0.362
 1377HOH      O 4316   2.484   0.779   0.640
 1377HOH     H1 4317   2.482   0.871   0.611
 1377HOH     H2 4318   2.483   0.783   0.735
 1378HOH      O 4319   1.853   3.726   1.077
 1378HOH     H1 4320   1.934   3.707   1.124
 1378HOH     H2 4321   1.844   3.654   1.014
 1379HOH      O 4322   3.822   0.275   2.519
 1379HOH     H1 4323   3.907   0.238   2.494
 1379HOH     H2 4324   3.774   0.283   2.436
 1380HOH      O 4325   0.116   3.935   2.561
 1380HOH     H1 4326   0.052   3.989   2.608
 1380HOH     H2 4327   0.194   3.991   2.555
 1381HOH      O 4328   3.402   3.147   1.747
 1381HOH     H1 4329   3.354   3.214   1.796
 1381HOH     H2 4330   3.412   3.184   1.660
 1382HOH      O 4331   3.501   1.653   0.190
 1382HOH     H1 4332   3.551   1.732   0.212
 1382HOH     H2 4333   3.443   1.681   0.119
 1383HOH      O 4334   3.036   0.540   1.414
 1383HOH     H1 4335   3.004   0.451   1.398
 1383HOH     H2 4336   3.069   0.537   1.504
 1384HOH      O 4337   0.444   3.537   2.700
 1384HOH     H1 4338   0.461   3.630   2.711
 1384HOH     H2 4339   0.390   3.531   2.622
 1385HOH      O 4340   0.818   3.416   0.194
 1385HOH     H1 4341   0.772   3.494   0.165
 1385HOH     H2 4342   0.749   3.351   0.208
 1386HOH      O 4343   1.277   2.906   0.547
 1386HOH     H1 4344   1.350   2.937   0.493
 1386HOH     H2 4345   1.225   2.852   0.487
 1387HOH      O 4346   1.550   3.980   0.785
 1387HOH     H1 4347   1.564   4.004   0.876
 1387HOH     H2 4348   1.605   4.041   0.735
 1388HOH      O 4349   2.614   1.000   1.035
 1388HOH     H1 4350   2.552   0.934   1.004
 1388HOH     H2 4351   2.579   1.029   1.119
 1389HOH      O 4352   1.974   3.844   1.715
 1389HOH     H1 4353   2.059   3.888   1.714
 1389HOH     H2 4354   1.989   3.766   1.768
 1390HOH      O 4355   3.518   1.064   1.127
 1390HOH     H1 4356   3.443   1.041   1.072
 1390HOH     H2 4357   3.551   1.146   1.091
 1391HOH      O 4358   2.748   1.365   3.276
 1391HOH     H1 4359   2.816   1.420   3.313
 1391HOH     H2 4360   2.690   1.345   3.350
 1392HOH      O 4361   1.764   1.632   3.087
 1392HOH     H1 4362   1.848   1.601   3.055
 1392HOH     H2 4363   1.786   1.703   3.147
 1393HOH      O 4364   3.460   0.014   2.341
 1393HOH     H1 4365   3.474  -0.033   2.259
 1393HOH     H2 4366   3.369   0.044   2.336
 1394HOH      O 4367   2.298   2.725   3.191
 1394HOH     H1 4368   2.330   2.720   3.282
 1394HOH     H2 4369   2.209   2.759   3.199
 1395HOH      O 4370   1.135   0.975   2.120
 1395HOH     H1 4371   1.061   0.922   2.150
 1395HOH     H2 4372   1.103   1.020   2.042
 1396HOH      O 4373   1.785   1.480   3.955
 1396HOH     H1 4374   1.803   1.389   3.978
 1396HOH     H2 4375   1.700   1.498   3.996
 1397HOH      O 4376   1.535   3.143   0.462
 1397HOH     H1 4377   1.506   3.207   0.527
 1397HOH     H2 4378   1.601   3.190   0.411
 1398HOH      O 4379   0.905   3.074   2.915
 1398HOH     H1 4380   0.866   3.010   2.974
 1398HOH     H2 4381   0.930   3.147   2.971
 1399HOH      O 4382   3.171   0.615   2.423
 1399HOH     H1 4383   3.127   0.658   2.497
 1399HOH     H2 4384   3.111   0.546   2.397
 1400HOH      O 4385   3.789   3.133   3.164
 1400HOH     H1 4386   3.743   3.099   3.240
 1400HOH     H2 4387   3.752   3.220   3.150
 1401HOH      O 4388   2.624   2.799   3.265
 1401HOH     H1 4389   2.673   2.816   3.345
 1401HOH     H2 4390   2.601   2.706   3.271
 1402HOH      O 4391   3.428   3.801   1.017
 1402HOH     H1 4392   3.449   3.708   1.030
 1402HOH     H2 4393   3.500   3.847   1.060
 1403HOH      O 4394   3.234   3.802   3.454
 1403HOH     H1 4395   3.281   3.746   3.516
 1403HOH     H2 4396   3.303   3.853   3.411
 1404HOH      O 4397   3.091   2.587   2.346
 1404HOH     H1 4398   3.107   2.536   2.267
 1404HOH     H2 4399   3.046   2.665   2.315
 1405HOH      O 4400   2.423   1.564   3.129
 1405HOH     H1 4401   2.510   1.534   3.103
 1405HOH     H2 4402   2.368   1.486   3.123
 1406HOH      O 4403   3.831   1.191   1.727
 1406HOH     H1 4404   3.859   1.209   1.817
 1406HOH     H2 4405   3.912   1.190   1.676
 1407HOH      O 4406   1.038   0.939   3.676
 1407HOH     H1 4407   1.127   0.952   3.710
 1407HOH     H2 4408   1.048   0.872   3.608
 1408HOH      O 4409   0.936   0.262   3.037
 1408HOH     H1 4410   0.945   0.273   3.132
 1408HOH     H2 4411   0.992   0.329   3.000
 1409HOH      O 4412   1.449   1.292   0.030
 1409HOH     H1 4413   1.485   1.377   0.003
 1409HOH     H2 4414   1.447   1.297   0.126
 1410HOH      O 4415   0.453   1.461   3.480
 1410HOH     H1 4416   0.519   1.493   3.418
 1410HOH     H2 4417   0.374   1.508   3.457
 1411HOH      O 4418   0.088   2.149   2.155
 1411HOH     H1 4419   0.105   2.059   2.184
 1411HOH     H2 4420   0.102   2.203   2.233
 1412HOH      O 4421   2.168   2.658   1.996
 1412HOH     H1 4422   2.215   2.722   2.050
 1412HOH     H2 4423   2.172   2.693   1.907
 1413HOH      O 4424   2.866   1.846   1.571
 1413HOH     H1 4425   2.898   1.796   1.496
 1413HOH     H2 4426   2.772   1.830   1.573
 1414HOH      O 4427   1.517   0.678   3.752
 1414HOH     H1 4428   1.505   0.597   3.703
 1414HOH     H2 4429   1.612   0.688   3.759
 1415HOH      O 4430   3.172   0.534   1.697
 1415HOH     H1 4431   3.216   0.463   1.744
 1415HOH     H2 4432   3.243   0.590   1.666
 1416HOH      O 4433   0.638   3.003   4.012
 1416HOH     H1 4434   0.721   2.961   3.992
 1416HOH     H2 4435   0.613   3.047   3.930
 1417HOH      O 4436   1.014   2.556   2.309
 1417HOH     H1 4437   1.107   2.551   2.285
 1417HOH     H2 4438   1.000   2.481   2.366
 1418HOH      O 4439   3.133   1.459   1.615
 1418HOH     H1 4440   3.175   1.451   1.529
 1418HOH     H2 4441   3.147   1.375   1.657
 1419HOH      O 4442   2.729   3.693   0.314
 1419HOH     H1 4443   2.658   3.651   0.267
 1419HOH     H2 4444   2.720   3.662   0.404
 1420HOH      O 4445   3.138   3.275   1.042
 1420HOH     H1 4446   3.157   3.304   1.131
 1420HOH     H2 4447   3.095   3.350   1.001
 1421HOH      O 4448   3.382   1.525   2.115
 1421HOH     H1 4449   3.307   1.573   2.150
 1421HOH     H2 4450   3.409   1.467   2.186
 1422HOH      O 4451   3.981   3.124   1.086
 1422HOH     H1 4452   3.900   3.121   1.035
 1422HOH     H2 4453   4.050   3.105   1.022
 1423HOH      O 4454   4.005   4.029   0.739
 1423HOH     H1 4455   4.035   3.978   0.664
 1423HOH     H2 4456   3.985   3.964   0.806
 1424HOH      O 4457   2.528   1.181   0.827
 1424HOH     H1 4458   2.566   1.173   0.915
 1424HOH     H2 4459   2.448   1.128   0.831
 1425HOH      O 4460   0.895   1.357   3.446
 1425HOH     H1 4461   0.803   1.339   3.425
 1425HOH     H2 4462   0.904   1.451   3.431
 1426HOH      O 4463   1.461   0.472   1.869
 1426HOH     H1 4464   1.367   0.467   1.852
 1426HOH     H2 4465   1.469   0.453   1.962
 1427HOH      O 4466   2.722   2.909   0.668
 1427HOH     H1 4467   2.765   2.986   0.631
 1427HOH     H2 4468   2.630   2.935   0.676
 1428HOH      O 4469   1.482   1.832   4.001
 1428HOH     H1 4470   1.400   1.857   4.046
 1428HOH     H2 4471   1.481   1.736   4.002
 1429HOH      O 4472   3.955   3.322   3.559
 1429HOH     H1 4473   3.887   3.326   3.492
 1429HOH     H2 4474   4.018   3.259   3.526
 1430HOH      O 4475   0.209   0.051   1.215
 1430HOH     H1 4476   0.166   0.065   1.131
 1430HOH     H2 4477   0.285  -0.003   1.194
 1431HOH      O 4478   1.319   1.712   2.396
 1431HOH     H1 4479   1.401   1.680   2.433
 1431HOH     H2 4480   1.269   1.633   2.375
 1432HOH      O 4481   4.010   2.611   3.437
 1432HOH     H1 4482   4.091   2.561   3.426
 1432HOH     H2 4483   3.961   2.596   3.356
 1433HOH      O 4484   2.834   3.413   1.684
 1433HOH     H1 4485   2.903   3.479   1.678
 1433HOH     H2 4486   2.873   3.334   1.647
 1434HOH      O 4487   0.510   0.562   1.400
 1434HOH     H1 4488   0.480   0.485   1.351
 1434HOH     H2 4489   0.431   0.595   1.444
 1435HOH      O 4490   1.432   0.682   3.428
 1435HOH     H1 4491   1.402   0.732   3.504
 1435HOH     H2 4492   1.393   0.726   3.353
 1436HOH      O 4493   2.459   3.841   0.618
 1436HOH     H1 4494   2.531   3.868   0.675
 1436HOH     H2 4495   2.457   3.908   0.549
 1437HOH      O 4496   3.097   0.786   2.642
 1437HOH     H1 4497   3.013   0.821   2.614
 1437HOH     H2 4498   3.129   0.850   2.707
 1438HOH      O 4499   3.789   2.153   2.622
 1438HOH     H1 4500   3.704   2.159   2.664
 1438HOH     H2 4501   3.770   2.144   2.528
 1439HOH      O 4502   2.421   0.189   3.241
 1439HOH     H1 4503   2.489   0.243   3.202
 1439HOH     H2 4504   2.368   0.250   3.292
 1440HOH      O 4505   2.957   1.943   2.064
 1440HOH     H1 4506   3.004   1.860   2.054
 1440HOH     H2 4507   3.011   2.006   2.017
 1441HOH      O 4508   0.062   0.941   1.931
 1441HOH     H1 4509   0.151   0.943   1.966
 1441HOH     H2 4510   0.069   0.982   1.845
 1442HOH      O 4511   2.503   1.338   0.327
 1442HOH     H1 4512   2.522   1.300   0.413
 1442HOH     H2 4513   2.473   1.427   0.346
 1443HOH      O 4514   1.655   2.485   1.244
 1443HOH     H1 4515   1.663   2.568   1.198
 1443HOH     H2 4516   1.601   2.505   1.321
 1444HOH      O 4517   1.688   2.425   2.385
 1444HOH     H1 4518   1.695   2.473   2.302
 1444HOH     H2 4519   1.679   2.333   2.359
 1445HOH      O 4520   1.419   3.105   3.448
 1445HOH     H1 4521   1.361   3.146   3.384
 1445HOH     H2 4522   1.360   3.061   3.509
 1446HOH      O 4523   0.289   1.021   2.263
 1446HOH     H1 4524   0.247   1.044   2.346
 1446HOH     H2 4525   0.235   1.064   2.197
 1447HOH      O 4526   2.997   0.170   1.698
 1447HOH     H1 4527   2.932   0.161   1.628
 1447HOH     H2 4528   3.048   0.247   1.674
 1448HOH      O 4529   2.159   2.768   3.986
 1448HOH     H1 4530   2.202   2.735   4.065
 1448HOH     H2 4531   2.072   2.794   4.016
 1449HOH      O 4532   1.806   1.835   0.098
 1449HOH     H1 4533   1.745   1.867   0.165
 1449HOH     H2 4534   1.874   1.903   0.094
 1450HOH      O 4535   1.892   3.056   1.503
 1450HOH     H1 4536   1.878   3.075   1.596
 1450HOH     H2 4537   1.813   3.090   1.460
 1451HOH      O 4538   3.446   3.399   0.632
 1451HOH     H1 4539   3.352   3.413   0.638
 1451HOH     H2 4540   3.472   3.366   0.718
 1452HOH      O 4541   2.687   4.012   4.041
 1452HOH     H1 4542   2.630   3.993   3.966
 1452HOH     H2 4543   2.754   4.071   4.006
 1453HOH      O 4544   1.699   2.558   3.397
 1453HOH     H1 4545   1.780   2.511   3.378
 1453HOH     H2 4546   1.639   2.532   3.327
 1454HOH      O 4547   2.049   2.196   0.653
 1454HOH     H1 4548   2.015   2.107   0.644
 1454HOH     H2 4549   2.094   2.195   0.738
 1455HOH      O 4550   2.979   2.299   1.543
 1455HOH     H1 4551   2.897   2.268   1.504
 1455HOH     H2 4552   2.985   2.254   1.627
 1456HOH      O 4553   3.156   1.557   2.284
 1456HOH     H1 4554   3.123   1.468   2.297
 1456HOH     H2 4555   3.150   1.598   2.371
 1457HOH      O 4556   0.424   1.110   0.274
 1457HOH     H1 4557   0.486   1.065   0.218
 1457HOH     H2 4558   0.338   1.083   0.242
 1458HOH      O 4559   1.939   1.058   1.232
 1458HOH     H1 4560   1.885   1.054   1.311
 1458HOH     H2 4561   1.900   0.993   1.173
 1459HOH      O 4562   3.603   0.643   1.046
 1459HOH     H1 4563   3.542   0.581   1.087
 1459HOH     H2 4564   3.679   0.643   1.104
 1460HOH      O 4565   0.558   1.767   3.257
 1460HOH     H1 4566   0.580   1.740   3.168
 1460HOH     H2 4567   0.487   1.831   3.245
 1461HOH      O 4568   0.910   0.190   1.596
 1461HOH     H1 4569   0.872   0.239   1.523
 1461HOH     H2 4570   0.841   0.187   1.661
 1462HOH      O 4571   3.562   3.781   0.327
 1462HOH     H1 4572   3.500   3.722   0.370
 1462HOH     H2 4573   3.545   3.866   0.367
 1463HOH      O 4574   1.307   3.647   0.740
 1463HOH     H1 4575   1.400   3.667   0.753
 1463HOH     H2 4576   1.302   3.613   0.651
 1464HOH      O 4577   1.536   0.972   3.568
 1464HOH     H1 4578   1.619   0.926   3.566
 1464HOH     H2 4579   1.531   1.008   3.657
 1465HOH      O 4580   3.043   0.281   2.068
 1465HOH     H1 4581   2.964   0.292   2.014
 1465HOH     H2 4582   3.014   0.230   2.143
 1466HOH      O 4583   1.844   2.642   1.899
 1466HOH     H1 4584   1.803   2.603   1.822
 1466HOH     H2 4585   1.936   2.616   1.894
 1467HOH      O 4586   3.265   0.776   0.948
 1467HOH     H1 4587   3.280   0.730   0.865
 1467HOH     H2 4588   3.217   0.713   1.002
 1468HOH      O 4589   3.482   0.387   0.448
 1468HOH     H1 4590   3.403   0.351   0.488
 1468HOH     H2 4591   3.486   0.344   0.362
 1469HOH      O 4592   1.540   0.528   1.588
 1469HOH     H1 4593   1.604   0.458   1.585
 1469HOH     H2 4594   1.532   0.550   1.681
 1470HOH      O 4595   1.570   1.224   3.431
 1470HOH     H1 4596   1.539   1.152   3.485
 1470HOH     H2 4597   1.560   1.192   3.341
 1471HOH      O 4598   2.590   0.304   3.061
 1471HOH     H1 4599   2.573   0.397   3.050
 1471HOH     H2 4600   2.636   0.279   2.980
 1472HOH      O 4601   2.921   1.299   0.285
 1472HOH     H1 4602   2.961   1.305   0.372
 1472HOH     H2 4603   2.995   1.296   0.225
 1473HOH      O 4604   2.336   2.079   0.717
 1473HOH     H1 4605   2.278   2.003   0.714
 1473HOH     H2 4606   2.318   2.126   0.636
 1474HOH      O 4607   1.062   2.945   2.244
 1474HOH     H1 4608   1.153   2.932   2.270
 1474HOH     H2 4609   1.063   2.937   2.148
 1475HOH      O 4610   0.158   0.217   3.662
 1475HOH     H1 4611   0.168   0.219   3.567
 1475HOH     H2 4612   0.247   0.208   3.696
 1476HOH      O 4613   3.840   2.068   1.309
 1476HOH     H1 4614   3.907   2.136   1.306
 1476HOH     H2 4615   3.793   2.085   1.390
 1477HOH      O 4616   1.473   0.205   3.083
 1477HOH     H1 4617   1.490   0.151   3.007
 1477HOH     H2 4618   1.455   0.292   3.048
 1478HOH      O 4619   0.775   0.272   2.206
 1478HOH     H1 4620   0.870   0.271   2.196
 1478HOH     H2 4621   0.759   0.337   2.275
 1479HOH      O 4622   1.711   2.427   0.367
 1479HOH     H1 4623   1.795   2.448   0.410
 1479HOH     H2 4624   1.702   2.332   0.377
 1480HOH      O 4625   0.729   2.570   0.069
 1480HOH     H1 4626   0.700   2.534   0.153
 1480HOH     H2 4627   0.648   2.586   0.020
 1481HOH      O 4628   2.588   0.981   2.434
 1481HOH     H1 4629   2.539   0.899   2.438
 1481HOH     H2 4630   2.569   1.016   2.346
 1482HOH      O 4631   1.478   2.612   2.799
 1482HOH     H1 4632   1.388   2.637   2.778
 1482HOH     H2 4633   1.510   2.683   2.855
 1483HOH      O 4634   3.242   2.124   0.604
 1483HOH     H1 4635   3.257   2.030   0.609
 1483HOH     H2 4636   3.206   2.147   0.689
 1484HOH      O 4637   2.717   2.300   1.407
 1484HOH     H1 4638   2.638   2.257   1.373
 1484HOH     H2 4639   2.684   2.373   1.460
 1485HOH      O 4640   2.078   2.067   2.043
 1485HOH     H1 4641   2.147   2.094   1.983
 1485HOH     H2 4642   2.123   2.010   2.106
 1486HOH      O 4643   0.163   2.950   0.407
 1486HOH     H1 4644   0.085   2.947   0.462
 1486HOH     H2 4645   0.236   2.947   0.469
 1487HOH      O 4646   2.469   0.688   1.692
 1487HOH     H1 4647   2.442   0.597   1.685
 1487HOH     H2 4648   2.536   0.688   1.761
 1488HOH      O 4649   0.555   0.205   2.826
 1488HOH     H1 4650   0.524   0.196   2.916
 1488HOH     H2 4651   0.501   0.143   2.777
 1489HOH      O 4652   0.146   2.229   0.494
 1489HOH     H1 4653   0.220   2.289   0.506
 1489HOH     H2 4654   0.078   2.264   0.552
 1490HOH      O 4655   2.989   1.698   3.100
 1490HOH     H1 4656   3.014   1.742   3.181
 1490HOH     H2 4657   3.052   1.731   3.035
 1491HOH      O 4658   1.566   3.052   1.534
 1491HOH     H1 4659   1.596   2.967   1.501
 1491HOH     H2 4660   1.588   3.114   1.465
 1492HOH      O 4661   1.024   3.982   0.346
 1492HOH     H1 4662   1.099   3.928   0.372
 1492HOH     H2 4663   1.024   3.978   0.250
 1493HOH      O 4664   0.300   1.971   3.181
 1493HOH     H1 4665   0.320   2.055   3.222
 1493HOH     H2 4666   0.313   1.986   3.088
 1494HOH      O 4667   2.907   2.615   0.783
 1494HOH     H1 4668   2.996   2.623   0.748
 1494HOH     H2 4669   2.900   2.686   0.846
 1495HOH      O 4670   3.048   0.498   0.018
 1495HOH     H1 4671   2.965   0.450   0.017
 1495HOH     H2 4672   3.110   0.437   0.058
 1496HOH      O 4673   2.598   3.550   2.585
 1496HOH     H1 4674   2.533   3.484   2.610
 1496HOH     H2 4675   2.547   3.631   2.578
 1497HOH      O 4676   2.028   2.280   3.732
 1497HOH     H1 4677   2.026   2.376   3.731
 1497HOH     H2 4678   2.106   2.258   3.783
 1498HOH      O 4679   0.513   3.788   3.333
 1498HOH     H1 4680   0.438   3.830   3.376
 1498HOH     H2 4681   0.529   3.841   3.256
 1499HOH      O 4682   1.961   3.359   1.378
 1499HOH     H1 4683   1.927   3.272   1.398
 1499HOH     H2 4684   1.917   3.384   1.297
 1500HOH      O 4685   1.112   0.884   1.827
 1500HOH     H1 4686   1.151   0.831   1.897
 1500HOH     H2 4687   1.137   0.838   1.747
 1501HOH      O 4688   1.480   0.422   3.651
 1501HOH     H1 4689   1.425   0.403   3.575
 1501HOH     H2 4690   1.422   0.408   3.726
 1502HOH      O 4691   0.658   3.740   1.365
 1502HOH     H1 4692   0.711   3.680   1.312
 1502HOH     H2 4693   0.679   3.717   1.455
 1503HOH      O 4694   1.731   0.304   1.694
 1503HOH     H1 4695   1.730   0.327   1.787
 1503HOH     H2 4696   1.791   0.229   1.689
 1504HOH      O 4697   3.467   2.020   3.070
 1504HOH     H1 4698   3.507   2.086   3.013
 1504HOH     H2 4699   3.541   1.970   3.105
 1505HOH      O 4700   1.536   3.349   1.642
 1505HOH     H1 4701   1.512   3.258   1.658
 1505HOH     H2 4702   1.631   3.352   1.659
 1506HOH      O 4703   3.941   1.849   0.120
 1506HOH     H1 4704   3.855   1.854   0.079
 1506HOH     H2 4705   3.926   1.871   0.211
 1507HOH      O 4706   2.117   3.579   2.412
 1507HOH     H1 4707   2.097   3.613   2.325
 1507HOH     H2 4708   2.080   3.491   2.413
 1508HOH      O 4709   3.438   1.792   1.732
 1508HOH     H1 4710   3.344   1.783   1.715
 1508HOH     H2 4711   3.462   1.710   1.777
 1509HOH      O 4712   1.190   1.223   0.265
 1509HOH     H1 4713   1.286   1.220   0.262
 1509HOH     H2 4714   1.166   1.157   0.330
 1510HOH      O 4715   2.741   3.024   2.723
 1510HOH     H1 4716   2.646   3.016   2.720
 1510HOH     H2 4717   2.765   3.057   2.636
 1511HOH      O 4718   1.387   2.846   1.316
 1511HOH     H1 4719   1.373   2.804   1.401
 1511HOH     H2 4720   1.440   2.783   1.266
 1512HOH      O 4721   3.802   1.234   2.155
 1512HOH     H1 4722   3.756   1.194   2.081
 1512HOH     H2 4723   3.864   1.295   2.115
 1513HOH      O 4724   1.694   2.097   2.903
 1513HOH     H1 4725   1.734   2.012   2.882
 1513HOH     H2 4726   1.677   2.093   2.997
 1514HOH      O 4727   0.940   1.664   2.753
 1514HOH     H1 4728   1.026   1.642   2.718
 1514HOH     H2 4729   0.957   1.702   2.839
 1515HOH      O 4730   1.229   2.950   3.026
 1515HOH     H1 4731   1.216   3.028   3.081
 1515HOH     H2 4732   1.214   2.980   2.937
 1516HOH      O 4733   1.732   2.089   3.623
 1516HOH     H1 4734   1.696   2.009   3.584
 1516HOH     H2 4735   1.667   2.156   3.607
 1517HOH      O 4736   0.999   3.301   1.239
 1517HOH     H1 4737   1.086   3.264   1.254
 1517HOH     H2 4738   0.962   3.249   1.168
 1518HOH      O 4739   3.597   3.205   2.695
 1518HOH     H1 4740   3.540   3.168   2.762
 1518HOH     H2 4741   3.685   3.202   2.734
 1519HOH      O 4742   1.002   2.629   1.338
 1519HOH     H1 4743   1.025   2.713   1.297
 1519HOH     H2 4744   0.978   2.652   1.428
 1520HOH      O 4745   1.648   1.843   3.484
 1520HOH     H1 4746   1.582   1.836   3.415
 1520HOH     H2 4747   1.626   1.773   3.545
 1521HOH      O 4748   3.010   2.179   3.744
 1521HOH     H1 4749   2.985   2.162   3.834
 1521HOH     H2 4750   2.955   2.121   3.692
 1522HOH      O 4751   0.762   0.712   1.289
 1522HOH     H1 4752   0.758   0.658   1.368
 1522HOH     H2 4753   0.670   0.726   1.266
 1523HOH      O 4754   1.322   2.449   0.883
 1523HOH     H1 4755   1.313   2.481   0.973
 1523HOH     H2 4756   1.245   2.483   0.838
 1524HOH      O 4757   0.290   3.390   1.849
 1524HOH     H1 4758   0.370   3.419   1.893
 1524HOH     H2 4759   0.223   3.453   1.876
 1525HOH      O 4760   2.094   3.203   2.656
 1525HOH     H1 4761   2.144   3.259   2.598
 1525HOH     H2 4762   2.102   3.244   2.742
 1526HOH      O 4763   0.496   2.985   2.861
 1526HOH     H1 4764   0.409   2.949   2.879
 1526HOH     H2 4765   0.552   2.949   2.930
 1527HOH      O 4766   2.750   0.239   0.827
 1527HOH     H1 4767   2.840   0.239   0.858
 1527HOH     H2 4768   2.751   0.295   0.749
 1528HOH      O 4769   0.599   0.389   2.642
 1528HOH     H1 4770   0.580   0.331   2.715
 1528HOH     H2 4771   0.513   0.416   2.610
 1529HOH      O 4772   2.027   3.609   0.732
 1529HOH     H1 4773   2.087   3.635   0.662
 1529HOH     H2 4774   1.966   3.683   0.739
 1530HOH      O 4775   0.238   2.277   0.065
 1530HOH     H1 4776   0.228   2.233  -0.020
 1530HOH     H2 4777   0.217   2.209   0.129
 1531HOH      O 4778   1.510   0.449   2.115
 1531HOH     H1 4779   1.564   0.388   2.165
 1531HOH     H2 4780   1.479   0.513   2.179
 1532HOH      O 4781   2.474   0.921   0.361
 1532HOH     H1 4782   2.530   0.999   0.367
 1532HOH     H2 4783   2.386   0.953   0.383
 1533HOH      O 4784   1.223   3.400   1.020
 1533HOH     H1 4785   1.285   3.470   1.036
 1533HOH     H2 4786   1.201   3.368   1.108
 1534HOH      O 4787   2.954   1.999   0.612
 1534HOH     H1 4788   3.049   1.993   0.604
 1534HOH     H2 4789   2.933   1.947   0.689
 1535HOH      O 4790   3.672   0.315   0.941
 1535HOH     H1 4791   3.713   0.383   0.995
 1535HOH     H2 4792   3.680   0.348   0.851
 1536HOH      O 4793   1.313   2.362   0.556
 1536HOH     H1 4794   1.352   2.407   0.481
 1536HOH     H2 4795   1.347   2.273   0.551
 1537HOH      O 4796   3.238   0.491   0.768
 1537HOH     H1 4797   3.150   0.527   0.760
 1537HOH     H2 4798   3.244   0.424   0.701
 1538HOH      O 4799   0.730   3.489   2.799
 1538HOH     H1 4800   0.640   3.489   2.768
 1538HOH     H2 4801   0.779   3.534   2.730
 1539HOH      O 4802   0.673   3.149   0.551
 1539HOH     H1 4803   0.681   3.237   0.588
 1539HOH     H2 4804   0.695   3.161   0.458
 1540HOH      O 4805   1.286   0.694   3.187
 1540HOH     H1 4806   1.351   0.739   3.132
 1540HOH     H2 4807   1.214   0.675   3.127
 1541HOH      O 4808   2.878   2.998   3.492
 1541HOH     H1 4809   2.814   2.929   3.512
 1541HOH     H2 4810   2.958   2.950   3.473
 1542HOH      O 4811   3.709   0.373   0.610
 1542HOH     H1 4812   3.767   0.438   0.570
 1542HOH     H2 4813   3.630   0.375   0.557
 1543HOH      O 4814   2.296   2.772   2.406
 1543HOH     H1 4815   2.321   2.743   2.318
 1543HOH     H2 4816   2.338   2.857   2.416
 1544HOH      O 4817   0.745   0.371   3.799
 1544HOH     H1 4818   0.746   0.370   3.703
 1544HOH     H2 4819   0.698   0.291   3.823
 1545HOH      O 4820   1.581   0.297   3.326
 1545HOH     H1 4821   1.548   0.241   3.256
 1545HOH     H2 4822   1.600   0.237   3.399
 1546HOH      O 4823   2.655   1.487   0.918
 1546HOH     H1 4824   2.573   1.441   0.905
 1546HOH     H2 4825   2.722   1.427   0.885
 1547HOH      O 4826   0.227   2.846   3.867
 1547HOH     H1 4827   0.280   2.878   3.940
 1547HOH     H2 4828   0.276   2.771   3.833
 1548HOH      O 4829   0.228   0.055   3.172
 1548HOH     H1 4830   0.225   0.015   3.258
 1548HOH     H2 4831   0.269  -0.012   3.116
 1549HOH      O 4832   2.193   0.015   3.284
 1549HOH     H1 4833   2.177   0.052   3.370
 1549HOH     H2 4834   2.272   0.059   3.253
 1550HOH      O 4835   3.383   2.492   3.796
 1550HOH     H1 4836   3.356   2.447   3.876
 1550HOH     H2 4837   3.473   2.520   3.814
 1551HOH      O 4838   1.602   2.819   2.492
 1551HOH     H1 4839   1.686   2.839   2.451
 1551HOH     H2 4840   1.625   2.781   2.577
 1552HOH      O 4841   1.345   1.768   3.629
 1552HOH     H1 4842   1.430   1.736   3.661
 1552HOH     H2 4843   1.282   1.738   3.695
 1553HOH      O 4844   0.028   2.260   1.302
 1553HOH     H1 4845   0.018   2.351   1.274
 1553HOH     H2 4846   0.116   2.257   1.339
 1554HOH      O 4847   3.117   0.012   3.198
 1554HOH     H1 4848   3.051   0.077   3.223
 1554HOH     H2 4849   3.193   0.035   3.252
 1555HOH      O 4850   1.853   0.298   3.925
 1555HOH     H1 4851   1.836   0.384   3.887
 1555HOH     H2 4852   1.793   0.292   4.000
 1556HOH      O 4853   0.981   1.209   2.391
 1556HOH     H1 4854   1.060   1.224   2.443
 1556HOH     H2 4855   1.007   1.235   2.302
 1557HOH      O 4856   1.378   1.677   3.352
 1557HOH     H1 4857   1.309   1.705   3.411
 1557HOH     H2 4858   1.383   1.582   3.362
 1558HOH      O 4859   3.758   3.798   2.990
 1558HOH     H1 4860   3.711   3.793   3.073
 1558HOH     H2 4861   3.720   3.728   2.937
 1559HOH      O 4862   2.742   2.511   2.680
 1559HOH     H1 4863   2.723   2.605   2.675
 1559HOH     H2 4864   2.834   2.504   2.654
 1560HOH      O 4865   2.163   3.645   1.073
 1560HOH     H1 4866   2.205   3.670   0.991
 1560HOH     H2 4867   2.185   3.552   1.085
 1561HOH      O 4868   3.068   2.351   3.376
 1561HOH     H1 4869   3.110   2.352   3.462
 1561HOH     H2 4870   3.005   2.280   3.381
 1562HOH      O 4871   1.852   1.554   2.478
 1562HOH     H1 4872   1.942   1.583   2.489
 1562HOH     H2 4873   1.858   1.465   2.446
 1563HOH      O 4874   1.848   3.252   3.624
 1563HOH     H1 4875   1.924   3.243   3.566
 1563HOH     H2 4876   1.881   3.298   3.701
 1564HOH      O 4877   1.466   2.828   3.243
 1564HOH     H1 4878   1.382   2.853   3.282
 1564HOH     H2 4879   1.528   2.830   3.315
 1565HOH      O 4880   0.938   2.483   3.019
 1565HOH     H1 4881   0.908   2.411   3.074
 1565HOH     H2 4882   0.896   2.560   3.057
 1566HOH      O 4883   2.573   2.628   1.998
 1566HOH     H1 4884   2.507   2.639   2.067
 1566HOH     H2 4885   2.558   2.539   1.965
 1567HOH      O 4886   3.097   1.810   3.584
 1567HOH     H1 4887   3.038   1.885   3.577
 1567HOH     H2 4888   3.054   1.751   3.645
 1568HOH      O 4889   0.994   0.406   3.326
 1568HOH     H1 4890   1.084   0.420   3.354
 1568HOH     H2 4891   0.949   0.373   3.404
 1569HOH      O 4892   0.841   3.017   1.322
 1569HOH     H1 4893   0.750   2.993   1.339
 1569HOH     H2 4894   0.872   3.052   1.405
 1570HOH      O 4895   0.687   2.103   3.304
 1570HOH     H1 4896   0.649   2.145   3.227
 1570HOH     H2 4897   0.624   2.119   3.374
 1571HOH      O 4898   1.024   3.799   2.074
 1571HOH     H1 4899   0.977   3.771   2.152
 1571HOH     H2 4900   1.112   3.820   2.105
 1572HOH      O 4901   3.257   0.289   0.954
 1572HOH     H1 4902   3.319   0.231   0.910
 1572HOH     H2 4903   3.266   0.373   0.908
 1573HOH      O 4904   3.205   0.453   3.414
 1573HOH     H1 4905   3.145   0.480   3.485
 1573HOH     H2 4906   3.292   0.474   3.447
 1574HOH      O 4907   1.660   0.612   0.465
 1574HOH     H1 4908   1.610   0.586   0.542
 1574HOH     H2 4909   1.657   0.536   0.407
 1575HOH      O 4910   2.669   3.579   0.542
 1575HOH     H1 4911   2.669   3.643   0.613
 1575HOH     H2 4912   2.655   3.495   0.584
 1576HOH      O 4913   3.392   2.997   2.998
 1576HOH     H1 4914   3.390   2.993   2.903
 1576HOH     H2 4915   3.336   2.924   3.026
 1577HOH      O 4916   2.923   1.655   1.344
 1577HOH     H1 4917   2.956   1.611   1.266
 1577HOH     H2 4918   2.881   1.586   1.395
 1578HOH      O 4919   0.517   3.104   1.563
 1578HOH     H1 4920   0.594   3.150   1.598
 1578HOH     H2 4921   0.468   3.170   1.515
 1579HOH      O 4922   1.156   0.266   3.566
 1579HOH     H1 4923   1.205   0.324   3.507
 1579HOH     H2 4924   1.115   0.202   3.507
 1580HOH      O 4925   3.335   2.928   1.358
 1580HOH     H1 4926   3.288   2.963   1.283
 1580HOH     H2 4927   3.415   2.981   1.363
 1581HOH      O 4928   1.850   0.133   3.709
 1581HOH     H1 4929   1.879   0.194   3.778
 1581HOH     H2 4930   1.785   0.183   3.660
 1582HOH      O 4931   2.985   2.714   1.940
 1582HOH     H1 4932   2.894   2.720   1.911
 1582HOH     H2 4933   2.979   2.686   2.032
 1583HOH      O 4934   2.300   1.903   3.748
 1583HOH     H1 4935   2.209   1.922   3.771
 1583HOH     H2 4936   2.351   1.971   3.793
 1584HOH      O 4937   3.695   1.130   2.807
 1584HOH     H1 4938   3.691   1.195   2.877
 1584HOH     H2 4939   3.605   1.123   2.776
 1585HOH      O 4940   3.053   3.707   3.255
 1585HOH     H1 4941   3.094   3.788   3.283
 1585HOH     H2 4942   2.979   3.696   3.315
 1586HOH      O 4943   0.782   1.848   3.368
 1586HOH     H1 4944   0.695   1.811   3.349
 1586HOH     H2 4945   0.775   1.940   3.343
 1587HOH      O 4946   2.500   0.285   1.379
 1587HOH     H1 4947   2.489   0.191   1.390
 1587HOH     H2 4948   2.558   0.294   1.303
 1588HOH      O 4949   2.419   3.793   2.556
 1588HOH     H1 4950   2.498   3.837   2.524
 1588HOH     H2 4951   2.379   3.857   2.615
 1589HOH      O 4952   1.942   0.901   2.513
 1589HOH     H1 4953   1.944   0.992   2.485
 1589HOH     H2 4954   1.948   0.850   2.432
 1590HOH      O 4955   3.694   2.474   1.298
 1590HOH     H1 4956   3.709   2.385   1.265
 1590HOH     H2 4957   3.713   2.531   1.224
 1591HOH      O 4958   0.851   1.987   0.651
 1591HOH     H1 4959   0.928   1.933   0.634
 1591HOH     H2 4960   0.885   2.077   0.652
 1592HOH      O 4961   2.414   1.593   0.336
 1592HOH     H1 4962   2.461   1.676   0.339
 1592HOH     H2 4963   2.341   1.604   0.397
 1593HOH      O 4964   2.928   3.616   0.804
 1593HOH     H1 4965   2.850   3.670   0.807
 1593HOH     H2 4966   2.968   3.635   0.719
 1594HOH      O 4967   0.471   0.350   0.924
 1594HOH     H1 4968   0.539   0.295   0.963
 1594HOH     H2 4969   0.506   0.439   0.928
 1595HOH      O 4970   1.146   3.180   3.846
 1595HOH     H1 4971   1.195   3.257   3.874
 1595HOH     H2 4972   1.157   3.117   3.918
 1596HOH      O 4973   0.129   2.574   2.146
 1596HOH     H1 4974   0.068   2.605   2.213
 1596HOH     H2 4975   0.134   2.645   2.083
 1597HOH      O 4976   1.928   2.416   0.556
 1597HOH     H1 4977   1.955   2.333   0.595
 1597HOH     H2 4978   1.870   2.456   0.621
 1598HOH      O 4979   0.901   0.663   3.219
 1598HOH     H1 4980   0.959   0.739   3.210
 1598HOH     H2 4981   0.939   0.612   3.290
 1599HOH      O 4982   3.591   2.195   2.005
 1599HOH     H1 4983   3.509   2.210   2.051
 1599HOH     H2 4984   3.565   2.166   1.917
 1600HOH      O 4985   1.249   0.308   0.473
 1600HOH     H1 4986   1.167   0.276   0.511
 1600HOH     H2 4987   1.300   0.229   0.455
 1601HOH      O 4988   3.054   1.773   0.152
 1601HOH     H1 4989   2.979   1.783   0.211
 1601HOH     H2 4990   3.129   1.801   0.203
 1602HOH      O 4991   3.286   1.467   3.683
 1602HOH     H1 4992   3.223   1.399   3.704
 1602HOH     H2 4993   3.305   1.509   3.767
 1603HOH      O 4994   1.959   1.159   2.754
 1603HOH     H1 4995   1.970   1.073   2.796
 1603HOH     H2 4996   1.987   1.145   2.664
 1604HOH      O 4997   0.330   1.349   2.016
 1604HOH     H1 4998   0.408   1.295   2.016
 1604HOH     H2 4999   0.259   1.289   2.039
 1605HOH      O 5000   1.930   0.641   0.380
 1605HOH     H1 5001   1.856   0.621   0.437
 1605HOH     H2 5002   1.891   0.691   0.308
 1606HOH      O 5003   2.448   2.010   3.318
 1606HOH     H1 5004   2.421   1.922   3.344
 1606HOH     H2 5005   2.503   1.996   3.241
 1607HOH      O 5006   0.944   2.181   2.131
 1607HOH     H1 5007   0.967   2.217   2.045
 1607HOH     H2 5008   1.027   2.146   2.165
 1608HOH      O 5009   0.035   1.208   3.150
 1608HOH     H1 5010   0.060   1.162   3.070
 1608HOH     H2 5011   0.086   1.289   3.148
 1609HOH      O 5012   3.685   1.170   0.433
 1609HOH     H1 5013   3.731   1.220   0.500
 1609HOH     H2 5014   3.592   1.186   0.452
 1610HOH      O 5015   1.916   1.026   0.615
 1610HOH     H1 5016   1.975   0.960   0.652
 1610HOH     H2 5017   1.831   1.007   0.655
 1611HOH      O 5018   0.058   0.995   3.928
 1611HOH     H1 5019   0.103   1.059   3.873
 1611HOH     H2 5020  -0.031   1.031   3.939
 1612HOH      O 5021   3.140   1.897   0.900
 1612HOH     H1 5022   3.088   1.963   0.855
 1612HOH     H2 5023   3.083   1.864   0.969
 1613HOH      O 5024   3.668   0.836   1.969
 1613HOH     H1 5025   3.689   0.844   1.876
 1613HOH     H2 5026   3.606   0.763   1.973
 1614HOH      O 5027   3.430   3.525   0.900
 1614HOH     H1 5028   3.377   3.511   0.979
 1614HOH     H2 5029   3.503   3.464   0.910
 1615HOH      O 5030   0.728   1.664   2.222
 1615HOH     H1 5031   0.811   1.680   2.266
 1615HOH     H2 5032   0.732   1.573   2.194
 1616HOH      O 5033   3.393   2.321   3.209
 1616HOH     H1 5034   3.316   2.288   3.162
 1616HOH     H2 5035   3.425   2.245   3.257
 1617HOH      O 5036   0.146   1.962   1.471
 1617HOH     H1 5037   0.167   2.055   1.481
 1617HOH     H2 5038   0.223   1.925   1.427
 1618HOH      O 5039   1.175   3.950   2.804
 1618HOH     H1 5040   1.204   3.984   2.719
 1618HOH     H2 5041   1.121   3.875   2.783
 1619HOH      O 5042   2.704   2.600   1.070
 1619HOH     H1 5043   2.718   2.628   0.980
 1619HOH     H2 5044   2.638   2.660   1.104
 1620HOH      O 5045   3.623   0.258   2.333
 1620HOH     H1 5046   3.600   0.168   2.310
 1620HOH     H2 5047   3.557   0.285   2.397
 1621HOH      O 5048   3.450   1.654   1.341
 1621HOH     H1 5049   3.515   1.586   1.359
 1621HOH     H2 5050   3.427   1.641   1.249
 1622HOH      O 5051   2.556   3.519   0.165
 1622HOH     H1 5052   2.606   3.439   0.150
 1622HOH     H2 5053   2.553   3.561   0.079
 1623HOH      O 5054   2.812   0.288   2.574
 1623HOH     H1 5055   2.770   0.249   2.498
 1623HOH     H2 5056   2.895   0.241   2.583
 1624HOH      O 5057   3.447   3.425   1.985
 1624HOH     H1 5058   3.391   3.409   1.909
 1624HOH     H2 5059   3.507   3.493   1.956
 1625HOH      O 5060   3.408   2.868   1.786
 1625HOH     H1 5061   3.313   2.859   1.793
 1625HOH     H2 5062   3.422   2.961   1.770
 1626HOH      O 5063   0.476   0.727   3.251
 1626HOH     H1 5064   0.518   0.726   3.166
 1626HOH     H2 5065   0.390   0.687   3.236
 1627HOH      O 5066   1.286   0.952   0.951
 1627HOH     H1 5067   1.316   0.997   0.872
 1627HOH     H2 5068   1.366   0.924   0.995
 1628HOH      O 5069   0.358   2.408   2.202
 1628HOH     H1 5070   0.324   2.331   2.248
 1628HOH     H2 5071   0.283   2.468   2.198
 1629HOH      O 5072   2.621   3.483   3.692
 1629HOH     H1 5073   2.679   3.439   3.630
 1629HOH     H2 5074   2.555   3.417   3.714
 1630HOH      O 5075   1.231   3.313   0.164
 1630HOH     H1 5076   1.188   3.390   0.201
 1630HOH     H2 5077   1.190   3.239   0.208
 1631HOH      O 5078   3.679   1.357   3.008
 1631HOH     H1 5079   3.721   1.334   3.091
 1631HOH     H2 5080   3.723   1.437   2.981
 1632HOH      O 5081   0.977   1.044   0.961
 1632HOH     H1 5082   1.063   1.046   1.003
 1632HOH     H2 5083   0.996   1.050   0.867
 1633HOH      O 5084   1.514   1.561   3.905
 1633HOH     H1 5085   1.434   1.528   3.863
 1633HOH     H2 5086   1.560   1.608   3.836
 1634HOH      O 5087   3.775   2.607   2.270
 1634HOH     H1 5088   3.749   2.542   2.335
 1634HOH     H2 5089   3.855   2.646   2.305
 1635HOH      O 5090   1.953   1.403   1.251
 1635HOH     H1 5091   1.981   1.329   1.197
 1635HOH     H2 5092   1.904   1.460   1.191
 1636HOH      O 5093   3.991   3.796   0.911
 1636HOH     H1 5094   3.929   3.766   0.845
 1636HOH     H2 5095   4.017   3.716   0.957
 1637HOH      O 5096   2.572   1.875   1.535
 1637HOH     H1 5097   2.531   1.837   1.613
 1637HOH     H2 5098   2.560   1.808   1.468
 1638HOH      O 5099   0.804   0.506   3.011
 1638HOH     H1 5100   0.851   0.426   3.034
 1638HOH     H2 5101   0.834   0.571   3.075
 1639HOH      O 5102   2.315   2.446   1.651
 1639HOH     H1 5103   2.236   2.464   1.702
 1639HOH     H2 5104   2.343   2.359   1.680
 1640HOH      O 5105   1.917   0.779   2.260
 1640HOH     H1 5106   1.948   0.851   2.206
 1640HOH     H2 5107   1.824   0.771   2.239
 1641HOH      O 5108   0.255   3.154   2.389
 1641HOH     H1 5109   0.316   3.182   2.457
 1641HOH     H2 5110   0.258   3.059   2.391
 1642HOH      O 5111   0.360   1.958   0.852
 1642HOH     H1 5112   0.434   1.948   0.791
 1642HOH     H2 5113   0.389   1.916   0.932
 1643HOH      O 5114   0.336   3.441   3.317
 1643HOH     H1 5115   0.328   3.461   3.410
 1643HOH     H2 5116   0.426   3.466   3.296
 1644HOH      O 5117   3.583   1.899   1.340
 1644HOH     H1 5118   3.665   1.867   1.302
 1644HOH     H2 5119   3.532   1.819   1.357
 1645HOH      O 5120   2.836   2.405   3.207
 1645HOH     H1 5121   2.835   2.409   3.112
 1645HOH     H2 5122   2.929   2.414   3.231
 1646HOH      O 5123   3.179   0.538   2.067
 1646HOH     H1 5124   3.173   0.559   2.160
 1646HOH     H2 5125   3.133   0.455   2.058
 1647HOH      O 5126   1.358   3.338   2.839
 1647HOH     H1 5127   1.292   3.399   2.870
 1647HOH     H2 5128   1.395   3.381   2.761
 1648HOH      O 5129   2.105   3.879   3.095
 1648HOH     H1 5130   2.143   3.948   3.149
 1648HOH     H2 5131   2.013   3.877   3.120
 1649HOH      O 5132   0.381   3.369   0.961
 1649HOH     H1 5133   0.474   3.389   0.960
 1649HOH     H2 5134   0.369   3.302   0.894
 1650HOH      O 5135   1.039   2.905   1.977
 1650HOH     H1 5136   1.060   2.817   1.947
 1650HOH     H2 5137   0.943   2.909   1.974
 1651HOH      O 5138   1.380   0.781   0.654
 1651HOH     H1 5139   1.290   0.753   0.671
 1651HOH     H2 5140   1.433   0.704   0.676
 1652HOH      O 5141   1.150   1.277   3.794
 1652HOH     H1 5142   1.064   1.265   3.753
 1652HOH     H2 5143   1.135   1.259   3.887
 1653HOH      O 5144   2.581   3.859   1.855
 1653HOH     H1 5145   2.596   3.765   1.856
 1653HOH     H2 5146   2.590   3.885   1.947
 1654HOH      O 5147   0.106   3.509   1.448
 1654HOH     H1 5148   0.143   3.458   1.520
 1654HOH     H2 5149   0.101   3.448   1.375
 1655HOH      O 5150   0.626   2.994   0.824
 1655HOH     H1 5151   0.710   2.974   0.864
 1655HOH     H2 5152   0.648   3.033   0.739
 1656HOH      O 5153   2.190   0.698   1.026
 1656HOH     H1 5154   2.168   0.614   0.986
 1656HOH     H2 5155   2.164   0.688   1.118
 1657HOH      O 5156   2.266   0.795   3.383
 1657HOH     H1 5157   2.271   0.734   3.309
 1657HOH     H2 5158   2.357   0.808   3.410
 1658HOH      O 5159   0.461   3.806   2.648
 1658HOH     H1 5160   0.430   3.889   2.683
 1658HOH     H2 5161   0.385   3.767   2.606
 1659HOH      O 5162   3.745   0.874   2.262
 1659HOH     H1 5163   3.729   0.787   2.299
 1659HOH     H2 5164   3.716   0.868   2.171
 1660HOH      O 5165   0.213   3.710   3.250
 1660HOH     H1 5166   0.281   3.675   3.192
 1660HOH     H2 5167   0.138   3.724   3.192
 1661HOH      O 5168   0.941   0.002   1.236
 1661HOH     H1 5169   1.006   0.073   1.233
 1661HOH     H2 5170   0.929  -0.015   1.329
 1662HOH      O 5171   2.872   0.028   1.986
 1662HOH     H1 5172   2.792  -0.011   2.022
 1662HOH     H2 5173   2.939   0.010   2.052
 1663HOH      O 5174   2.048   0.748   3.822
 1663HOH     H1 5175   2.048   0.844   3.822
 1663HOH     H2 5176   1.971   0.724   3.874
 1664HOH      O 5177   3.476   2.303   0.082
 1664HOH     H1 5178   3.490   2.261  -0.003
 1664HOH     H2 5179   3.389   2.273   0.109
 1665HOH      O 5180   1.385   0.624   2.286
 1665HOH     H1 5181   1.398   0.707   2.241
 1665HOH     H2 5182   1.316   0.642   2.349
 1666HOH      O 5183   1.624   0.603   2.401
 1666HOH     H1 5184   1.669   0.651   2.330
 1666HOH     H2 5185   1.535   0.592   2.369
 1667HOH      O 5186   3.686   0.968   1.633
 1667HOH     H1 5187   3.762   0.911   1.626
 1667HOH     H2 5188   3.721   1.051   1.665
 1668HOH      O 5189   2.510   2.404   3.975
 1668HOH     H1 5190   2.588   2.443   3.936
 1668HOH     H2 5191   2.497   2.323   3.926
 1669HOH      O 5192   1.468   2.393   1.993
 1669HOH     H1 5193   1.446   2.299   1.996
 1669HOH     H2 5194   1.476   2.412   1.899
 1670HOH      O 5195   0.720   0.476   1.535
 1670HOH     H1 5196   0.638   0.483   1.487
 1670HOH     H2 5197   0.777   0.424   1.479
 1671HOH      O 5198   3.074   3.963   0.465
 1671HOH     H1 5199   3.083   4.058   0.453
 1671HOH     H2 5200   3.022   3.935   0.390
 1672HOH      O 5201   0.581   3.839   0.444
 1672HOH     H1 5202   0.620   3.858   0.359
 1672HOH     H2 5203   0.638   3.772   0.482
 1673HOH      O 5204   2.499   3.244   0.398
 1673HOH     H1 5205   2.430   3.203   0.345
 1673HOH     H2 5206   2.452   3.309   0.451
 1674HOH      O 5207   3.051   3.038   3.044
 1674HOH     H1 5208   3.059   3.084   3.127
 1674HOH     H2 5209   2.980   2.976   3.057
 1675HOH      O 5210   2.588   0.492   2.519
 1675HOH     H1 5211   2.640   0.497   2.438
 1675HOH     H2 5212   2.621   0.415   2.564
 1676HOH      O 5213   1.199   2.146   2.133
 1676HOH     H1 5214   1.242   2.211   2.187
 1676HOH     H2 5215   1.249   2.144   2.052
 1677HOH      O 5216   0.522   1.885   3.659
 1677HOH     H1 5217   0.467   1.929   3.723
 1677HOH     H2 5218   0.481   1.800   3.646
 1678HOH      O 5219   0.849   3.361   3.007
 1678HOH     H1 5220   0.829   3.395   2.919
 1678HOH     H2 5221   0.763   3.340   3.044
 1679HOH      O 5222   1.209   1.642   0.501
 1679HOH     H1 5223   1.302   1.631   0.523
 1679HOH     H2 5224   1.199   1.599   0.416
 1680HOH      O 5225   2.095   3.160   0.691
 1680HOH     H1 5226   2.133   3.246   0.673
 1680HOH     H2 5227   2.005   3.179   0.718
 1681HOH      O 5228   2.877   1.423   1.509
 1681HOH     H1 5229   2.958   1.426   1.559
 1681HOH     H2 5230   2.857   1.330   1.502
 1682HOH      O 5231   2.255   1.073   0.428
 1682HOH     H1 5232   2.203   0.993   0.422
 1682HOH     H2 5233   2.190   1.143   0.438
 1683HOH      O 5234   0.841   2.779   3.874
 1683HOH     H1 5235   0.879   2.780   3.961
 1683HOH     H2 5236   0.910   2.814   3.817
 1684HOH      O 5237   0.333   1.476   0.612
 1684HOH     H1 5238   0.428   1.468   0.616
 1684HOH     H2 5239   0.317   1.520   0.528
 1685HOH      O 5240   2.850   1.028   0.470
 1685HOH     H1 5241   2.909   0.987   0.533
 1685HOH     H2 5242   2.887   1.115   0.456
 1686HOH      O 5243   0.642   3.648   3.015
 1686HOH     H1 5244   0.659   3.586   2.944
 1686HOH     H2 5245   0.723   3.699   3.022
 1687HOH      O 5246   3.480   1.980   0.915
 1687HOH     H1 5247   3.432   1.992   0.997
 1687HOH     H2 5248   3.544   1.911   0.934
 1688HOH      O 5249   3.243   2.536   1.654
 1688HOH     H1 5250   3.221   2.533   1.747
 1688HOH     H2 5251   3.332   2.501   1.649
 1689HOH      O 5252   3.021   0.222   0.472
 1689HOH     H1 5253   2.986   0.277   0.401
 1689HOH     H2 5254   2.964   0.240   0.546
 1690HOH      O 5255   1.973   3.102   0.057
 1690HOH     H1 5256   1.948   3.041   0.127
 1690HOH     H2 5257   1.952   3.056  -0.024
 1691HOH      O 5258   2.085   3.698   3.712
 1691HOH     H1 5259   2.048   3.736   3.633
 1691HOH     H2 5260   2.028   3.730   3.782
 1692HOH      O 5261   3.717   0.862   2.862
 1692HOH     H1 5262   3.735   0.954   2.842
 1692HOH     H2 5263   3.664   0.832   2.788
 1693HOH      O 5264   2.724   1.418   0.101
 1693HOH     H1 5265   2.642   1.428   0.149
 1693HOH     H2 5266   2.781   1.370   0.162
 1694HOH      O 5267   2.777   0.768   2.370
 1694HOH     H1 5268   2.862   0.756   2.412
 1694HOH     H2 5269   2.739   0.843   2.415
 1695HOH      O 5270   2.535   2.077   2.528
 1695HOH     H1 5271   2.514   1.988   2.557
 1695HOH     H2 5272   2.500   2.082   2.438
 1696HOH      O 5273   0.518   2.180   3.074
 1696HOH     H1 5274   0.468   2.257   3.048
 1696HOH     H2 5275   0.484   2.110   3.017
 1697HOH      O 5276   2.047   2.513   1.021
 1697HOH     H1 5277   1.957   2.492   0.997
 1697HOH     H2 5278   2.051   2.497   1.116
 1698HOH      O 5279   3.255   0.387   0.210
 1698HOH     H1 5280   3.320   0.330   0.251
 1698HOH     H2 5281   3.233   0.450   0.278
 1699HOH      O 5282   2.978   0.451   2.359
 1699HOH     H1 5283   2.894   0.475   2.320
 1699HOH     H2 5284   3.000   0.368   2.319
 1700HOH      O 5285   2.876   2.334   0.703
 1700HOH     H1 5286   2.797   2.288   0.730
 1700HOH     H2 5287   2.873   2.417   0.752
 1701HOH      O 5288   1.472   1.232   2.898
 1701HOH     H1 5289   1.565   1.220   2.880
 1701HOH     H2 5290   1.435   1.144   2.893
 1702HOH      O 5291   1.071   0.282   2.284
 1702HOH     H1 5292   1.121   0.323   2.213
 1702HOH     H2 5293   1.050   0.354   2.343
 1703HOH      O 5294   0.414   0.009   3.942
 1703HOH     H1 5295   0.405  -0.059   4.009
 1703HOH     H2 5296   0.393   0.090   3.988
 1704HOH      O 5297   2.586   1.877   1.128
 1704HOH     H1 5298   2.551   1.817   1.193
 1704HOH     H2 5299   2.592   1.825   1.048
 1705HOH      O 5300   1.717   1.550   2.745
 1705HOH     H1 5301   1.755   1.494   2.813
 1705HOH     H2 5302   1.775   1.538   2.670
 1706HOH      O 5303   3.362   3.812   1.796
 1706HOH     H1 5304   3.270   3.838   1.785
 1706HOH     H2 5305   3.402   3.829   1.711
 1707HOH      O 5306   3.281   1.082   3.932
 1707HOH     H1 5307   3.277   1.016   4.000
 1707HOH     H2 5308   3.218   1.149   3.960
 1708HOH      O 5309   1.226   2.688   0.346
 1708HOH     H1 5310   1.186   2.640   0.273
 1708HOH     H2 5311   1.315   2.653   0.352
 1709HOH      O 5312   3.444   2.661   1.404
 1709HOH     H1 5313   3.407   2.746   1.381
 1709HOH     H2 5314   3.538   2.673   1.401
 1710HOH      O 5315   1.869   2.719   2.575
 1710HOH     H1 5316   1.869   2.802   2.622
 1710HOH     H2 5317   1.890   2.654   2.642
 1711HOH      O 5318   0.298   0.227   0.046
 1711HOH     H1 5319   0.255   0.256   0.127
 1711HOH     H2 5320   0.234   0.247  -0.023
 1712HOH      O 5321   0.936   0.743   2.828
 1712HOH     H1 5322   0.954   0.814   2.766
 1712HOH     H2 5323   0.921   0.667   2.772
 1713HOH      O 5324   3.992   1.584   1.783
 1713HOH     H1 5325   4.022   1.671   1.758
 1713HOH     H2 5326   4.064   1.526   1.759
 1714HOH      O 5327   1.010   3.479   2.597
 1714HOH     H1 5328   0.925   3.461   2.557
 1714HOH     H2 5329   1.073   3.435   2.539
 1715HOH      O 5330   3.640   0.537   2.883
 1715HOH     H1 5331   3.545   0.525   2.884
 1715HOH     H2 5332   3.659   0.572   2.796
 1716HOH      O 5333   2.603   1.923   0.111
 1716HOH     H1 5334   2.558   1.928   0.195
 1716HOH     H2 5335   2.691   1.956   0.128
 1717HOH      O 5336   3.138   0.925   1.423
 1717HOH     H1 5337   3.099   0.992   1.367
 1717HOH     H2 5338   3.232   0.932   1.408
 1718HOH      O 5339   2.247   0.631   0.617
 1718HOH     H1 5340   2.249   0.549   0.665
 1718HOH     H2 5341   2.337   0.643   0.585
 1719HOH      O 5342   3.946   3.920   1.205
 1719HOH     H1 5343   4.009   3.912   1.277
 1719HOH     H2 5344   3.999   3.917   1.126
 1720HOH      O 5345   3.975   2.391   0.910
 1720HOH     H1 5346   4.027   2.311   0.919
 1720HOH     H2 5347   3.893   2.371   0.955
 1721HOH      O 5348   2.416   3.009   1.766
 1721HOH     H1 5349   2.333   3.051   1.742
 1721HOH     H2 5350   2.417   3.011   1.862
 1722HOH      O 5351   3.824   0.691   1.187
 1722HOH     H1 5352   3.919   0.693   1.198
 1722HOH     H2 5353   3.798   0.782   1.201
 1723HOH      O 5354   1.669   1.300   0.499
 1723HOH     H1 5355   1.710   1.223   0.460
 1723HOH     H2 5356   1.738   1.366   0.500
 1724HOH      O 5357   3.367   1.525   0.623
 1724HOH     H1 5358   3.461   1.545   0.621
 1724HOH     H2 5359   3.329   1.593   0.678
 1725HOH      O 5360   1.960   2.881   2.070
 1725HOH     H1 5361   1.994   2.843   2.151
 1725HOH     H2 5362   2.034   2.878   2.010
 1726HOH      O 5363   2.103   0.493   3.699
 1726HOH     H1 5364   2.052   0.504   3.619
 1726HOH     H2 5365   2.105   0.580   3.739
 1727HOH      O 5366   1.093   0.850   3.437
 1727HOH     H1 5367   1.180   0.869   3.402
 1727HOH     H2 5368   1.034   0.869   3.365
 1728HOH      O 5369   2.995   2.392   2.175
 1728HOH     H1 5370   2.929   2.353   2.118
 1728HOH     H2 5371   2.998   2.334   2.251
 1729HOH      O 5372   1.017   2.018   1.683
 1729HOH     H1 5373   1.025   1.948   1.619
 1729HOH     H2 5374   1.107   2.048   1.698
 1730HOH      O 5375   0.343   0.276   2.527
 1730HOH     H1 5376   0.340   0.231   2.443
 1730HOH     H2 5377   0.253   0.306   2.543
 1731HOH      O 5378   0.912   3.550   0.587
 1731HOH     H1 5379   0.991   3.534   0.536
 1731HOH     H2 5380   0.938   3.536   0.678
 1732HOH      O 5381   3.484   3.795   1.553
 1732HOH     H1 5382   3.532   3.713   1.562
 1732HOH     H2 5383   3.543   3.851   1.502
 1733HOH      O 5384   0.657   0.795   3.007
 1733HOH     H1 5385   0.738   0.745   2.991
 1733HOH     H2 5386   0.615   0.799   2.921
 1734HOH      O 5387   2.930   1.464   1.135
 1734HOH     H1 5388   2.957   1.373   1.151
 1734HOH     H2 5389   2.841   1.469   1.168
 1735HOH      O 5390   2.795   2.035   2.371
 1735HOH     H1 5391   2.793   2.112   2.314
 1735HOH     H2 5392   2.733   2.056   2.442
 1736HOH      O 5393   0.980   0.738   0.356
 1736HOH     H1 5394   0.916   0.795   0.399
 1736HOH     H2 5395   0.934   0.656   0.342
 1737HOH      O 5396   1.387   2.274   2.610
 1737HOH     H1 5397   1.421   2.354   2.570
 1737HOH     H2 5398   1.452   2.206   2.588
 1738HOH      O 5399   2.775   1.972   3.798
 1738HOH     H1 5400   2.829   1.936   3.869
 1738HOH     H2 5401   2.747   1.895   3.748
 1739HOH      O 5402   2.776   3.672   3.468
 1739HOH     H1 5403   2.845   3.652   3.531
 1739HOH     H2 5404   2.764   3.591   3.419
 1740HOH      O 5405   1.760   3.496   4.008
 1740HOH     H1 5406   1.684   3.490   3.952
 1740HOH     H2 5407   1.826   3.440   3.965
 1741HOH      O 5408   1.315   1.894   0.256
 1741HOH     H1 5409   1.312   1.908   0.351
 1741HOH     H2 5410   1.246   1.951   0.221
 1742HOH      O 5411   3.238   3.935   2.953
 1742HOH     H1 5412   3.175   3.944   2.881
 1742HOH     H2 5413   3.195   3.979   3.027
 1743HOH      O 5414   2.073   3.335   0.386
 1743HOH     H1 5415   2.108   3.280   0.316
 1743HOH     H2 5416   2.150   3.361   0.436
 1744HOH      O 5417   0.530   1.074   1.342
 1744HOH     H1 5418   0.574   1.013   1.283
 1744HOH     H2 5419   0.457   1.109   1.291
 1745HOH      O 5420   1.798   4.030   2.337
 1745HOH     H1 5421   1.727   3.966   2.328
 1745HOH     H2 5422   1.878   3.978   2.327
 1746HOH      O 5423   0.568   3.959   3.107
 1746HOH     H1 5424   0.538   3.901   3.036
 1746HOH     H2 5425   0.644   4.004   3.070
 1747HOH      O 5426   1.642   1.263   1.241
 1747HOH     H1 5427   1.698   1.263   1.318
 1747HOH     H2 5428   1.560   1.302   1.271
 1748HOH      O 5429   3.035   3.446   3.441
 1748HOH     H1 5430   2.996   3.421   3.525
 1748HOH     H2 5431   3.129   3.439   3.456
 1749HOH      O 5432   3.801   2.189   1.645
 1749HOH     H1 5433   3.798   2.094   1.632
 1749HOH     H2 5434   3.846   2.200   1.729
 1750HOH      O 5435   1.561   2.058   1.097
 1750HOH     H1 5436   1.612   1.977   1.092
 1750HOH     H2 5437   1.617   2.119   1.145
 1751HOH      O 5438   1.920   2.812   0.157
 1751HOH     H1 5439   1.895   2.832   0.248
 1751HOH     H2 5440   1.855   2.748   0.128
 1752HOH      O 5441   1.587   3.246   3.675
 1752HOH     H1 5442   1.562   3.210   3.589
 1752HOH     H2 5443   1.681   3.264   3.666
 1753HOH      O 5444   2.385   0.752   2.132
 1753HOH     H1 5445   2.444   0.825   2.115
 1753HOH     H2 5446   2.434   0.675   2.105
 1754HOH      O 5447   3.470   2.992   2.460
 1754HOH     H1 5448   3.551   2.944   2.440
 1754HOH     H2 5449   3.499   3.081   2.475
 1755HOH      O 5450   2.742   0.822   0.261
 1755HOH     H1 5451   2.652   0.854   0.258
 1755HOH     H2 5452   2.787   0.884   0.318
 1756HOH      O 5453   1.501   0.504   1.220
 1756HOH     H1 5454   1.454   0.587   1.207
 1756HOH     H2 5455   1.565   0.523   1.289
 1757HOH      O 5456   3.709   2.619   2.023
 1757HOH     H1 5457   3.771   2.562   1.977
 1757HOH     H2 5458   3.741   2.621   2.113
 1758HOH      O 5459   1.654  -0.007   1.477
 1758HOH     H1 5460   1.559  -0.010   1.466
 1758HOH     H2 5461   1.683   0.061   1.417
 1759HOH      O 5462   1.145   3.528   1.485
 1759HOH     H1 5463   1.231   3.510   1.447
 1759HOH     H2 5464   1.116   3.608   1.441
 1760HOH      O 5465   1.347   0.976   2.879
 1760HOH     H1 5466   1.263   1.017   2.899
 1760HOH     H2 5467   1.334   0.935   2.794
 1761HOH      O 5468   2.700   2.544   3.865
 1761HOH     H1 5469   2.769   2.562   3.800
 1761HOH     H2 5470   2.745   2.547   3.949
 1762HOH      O 5471   2.673   2.912   1.368
 1762HOH     H1 5472   2.654   2.836   1.422
 1762HOH     H2 5473   2.769   2.914   1.361
 1763HOH      O 5474   0.461   3.645   3.665
 1763HOH     H1 5475   0.529   3.636   3.598
 1763HOH     H2 5476   0.447   3.739   3.673
 1764HOH      O 5477   3.550   0.136   3.081
 1764HOH     H1 5478   3.462   0.172   3.088
 1764HOH     H2 5479   3.555   0.102   2.992
 1765HOH      O 5480   3.147   2.935   1.832
 1765HOH     H1 5481   3.071   2.880   1.852
 1765HOH     H2 5482   3.141   2.949   1.737
 1766HOH      O 5483   2.835   0.657   1.237
 1766HOH     H1 5484   2.761   0.681   1.294
 1766HOH     H2 5485   2.905   0.635   1.298
 1767HOH      O 5486   2.364   1.124   3.889
 1767HOH     H1 5487   2.375   1.171   3.972
 1767HOH     H2 5488   2.422   1.048   3.897
 1768HOH      O 5489   0.644   3.151   0.277
 1768HOH     H1 5490   0.676   3.122   0.192
 1768HOH     H2 5491   0.549   3.139   0.273
 1769HOH      O 5492   0.746   1.956   0.923
 1769HOH     H1 5493   0.773   1.865   0.935
 1769HOH     H2 5494   0.762   1.973   0.830
 1770HOH      O 5495   0.222   0.579   0.002
 1770HOH     H1 5496   0.176   0.496  -0.012
 1770HOH     H2 5497   0.160   0.634   0.049
 1771HOH      O 5498   2.955   3.088   1.369
 1771HOH     H1 5499   2.965   2.993   1.365
 1771HOH     H2 5500   3.043   3.122   1.358
 1772HOH      O 5501   1.930   2.558   3.084
 1772HOH     H1 5502   1.955   2.467   3.099
 1772HOH     H2 5503   1.838   2.553   3.058
 1773HOH      O 5504   3.225   1.496   3.415
 1773HOH     H1 5505   3.129   1.494   3.419
 1773HOH     H2 5506   3.252   1.515   3.505
 1774HOH      O 5507   1.496   3.693   0.398
 1774HOH     H1 5508   1.575   3.717   0.446
 1774HOH     H2 5509   1.518   3.707   0.306
 1775HOH      O 5510   0.854   1.134   3.070
 1775HOH     H1 5511   0.817   1.221   3.087
 1775HOH     H2 5512   0.779   1.075   3.071
 1776HOH      O 5513   2.763   2.154   3.219
 1776HOH     H1 5514   2.790   2.243   3.238
 1776HOH     H2 5515   2.737   2.118   3.304
 1777HOH      O 5516   2.906   3.418   0.436
 1777HOH     H1 5517   2.856   3.370   0.370
 1777HOH     H2 5518   2.840   3.464   0.488
 1778HOH      O 5519   1.656   3.203   2.230
 1778HOH     H1 5520   1.704   3.123   2.250
 1778HOH     H2 5521   1.656   3.208   2.134
 1779HOH      O 5522   2.568   3.395   2.109
 1779HOH     H1 5523   2.596   3.343   2.034
 1779HOH     H2 5524   2.635   3.463   2.117
 1780HOH      O 5525   0.580   1.984   1.633
 1780HOH     H1 5526   0.626   1.949   1.709
 1780HOH     H2 5527   0.532   1.909   1.598
 1781HOH      O 5528   2.076   1.989   2.682
 1781HOH     H1 5529   2.136   2.001   2.609
 1781HOH     H2 5530   2.079   1.895   2.701
 1782HOH      O 5531   1.695   2.218   1.903
 1782HOH     H1 5532   1.602   2.225   1.922
 1782HOH     H2 5533   1.710   2.277   1.829
 1783HOH      O 5534   0.258   0.073   1.903
 1783HOH     H1 5535   0.169   0.040   1.887
 1783HOH     H2 5536   0.246   0.161   1.936
 1784HOH      O 5537   2.426   0.334   1.967
 1784HOH     H1 5538   2.357   0.288   2.013
 1784HOH     H2 5539   2.454   0.274   1.898
 1785HOH      O 5540   3.790   1.275   0.705
 1785HOH     H1 5541   3.812   1.316   0.789
 1785HOH     H2 5542   3.848   1.199   0.699
 1786HOH      O 5543   0.723   2.627   0.377
 1786HOH     H1 5544   0.767   2.552   0.417
 1786HOH     H2 5545   0.631   2.615   0.399
 1787HOH      O 5546   3.271   1.847   0.300
 1787HOH     H1 5547   3.348   1.898   0.275
 1787HOH     H2 5548   3.296   1.803   0.381
 1788HOH      O 5549   0.404   3.186   3.254
 1788HOH     H1 5550   0.366   3.115   3.306
 1788HOH     H2 5551   0.359   3.265   3.284
 1789HOH      O 5552   2.052   2.645   0.494
 1789HOH     H1 5553   2.004   2.562   0.495
 1789HOH     H2 5554   1.983   2.712   0.488
 1790HOH      O 5555   1.493   3.101   3.119
 1790HOH     H1 5556   1.522   3.017   3.154
 1790HOH     H2 5557   1.502   3.091   3.024
 1791HOH      O 5558   2.459   1.949   2.017
 1791HOH     H1 5559   2.391   1.927   2.080
 1791HOH     H2 5560   2.428   2.030   1.976
 1792HOH      O 5561   2.857   3.733   1.645
 1792HOH     H1 5562   2.783   3.709   1.700
 1792HOH     H2 5563   2.841   3.825   1.622
 1793HOH      O 5564   2.355   3.423   0.745
 1793HOH     H1 5565   2.430   3.374   0.778
 1793HOH     H2 5566   2.281   3.391   0.796
 1794HOH      O 5567   1.729   2.796   3.139
 1794HOH     H1 5568   1.717   2.701   3.149
 1794HOH     H2 5569   1.659   2.822   3.080
 1795HOH      O 5570   3.907   2.834   1.843
 1795HOH     H1 5571   3.884   2.900   1.778
 1795HOH     H2 5572   3.832   2.775   1.847
 1796HOH      O 5573   1.539   3.504   2.148
 1796HOH     H1 5574   1.584   3.586   2.167
 1796HOH     H2 5575   1.609   3.442   2.126
 1797HOH      O 5576   2.236   2.915   2.869
 1797HOH     H1 5577   2.222   2.971   2.946
 1797HOH     H2 5578   2.207   2.829   2.897
 1798HOH      O 5579   0.773   0.040   2.582
 1798HOH     H1 5580   0.709   0.002   2.521
 1798HOH     H2 5581   0.749   0.132   2.587
 1799HOH      O 5582   1.539   3.013   0.817
 1799HOH     H1 5583   1.514   2.922   0.836
 1799HOH     H2 5584   1.465   3.065   0.848
 1800HOH      O 5585   2.120   0.440   0.987
 1800HOH     H1 5586   2.049   0.377   0.974
 1800HOH     H2 5587   2.159   0.415   1.071
 1801HOH      O 5588   0.131   0.749   3.495
 1801HOH     H1 5589   0.122   0.842   3.476
 1801HOH     H2 5590   0.093   0.739   3.583
 1802HOH      O 5591   3.463   0.185   1.467
 1802HOH     H1 5592   3.427   0.107   1.508
 1802HOH     H2 5593   3.453   0.170   1.373
 1803HOH      O 5594   0.407   0.681   0.972
 1803HOH     H1 5595   0.501   0.675   0.987
 1803HOH     H2 5596   0.372   0.715   1.055
 1804HOH      O 5597   3.731   3.128   3.973
 1804HOH     H1 5598   3.675   3.081   3.912
 1804HOH     H2 5599   3.707   3.094   4.059
 1805HOH      O 5600   3.396   2.436   0.954
 1805HOH     H1 5601   3.462   2.409   0.890
 1805HOH     H2 5602   3.415   2.384   1.032
 1806HOH      O 5603   1.836   2.038   0.428
 1806HOH     H1 5604   1.764   2.085   0.471
 1806HOH     H2 5605   1.869   1.977   0.494
 1807HOH      O 5606   1.366   1.090   2.216
 1807HOH     H1 5607   1.287   1.047   2.183
 1807HOH     H2 5608   1.429   1.019   2.225
 1808HOH      O 5609   3.064   3.638   0.325
 1808HOH     H1 5610   3.053   3.675   0.237
 1808HOH     H2 5611   3.002   3.565   0.328
 1809HOH      O 5612   2.375   0.150   0.631
 1809HOH     H1 5613   2.339   0.087   0.568
 1809HOH     H2 5614   2.408   0.221   0.576
 1810HOH      O 5615   2.911   3.387   3.657
 1810HOH     H1 5616   2.960   3.310   3.685
 1810HOH     H2 5617   2.858   3.411   3.733
 1811HOH      O 5618   3.278   0.918   0.130
 1811HOH     H1 5619   3.313   0.833   0.156
 1811HOH     H2 5620   3.310   0.978   0.197
 1812HOH      O 5621   0.261   2.449   0.782
 1812HOH     H1 5622   0.250   2.355   0.796
 1812HOH     H2 5623   0.289   2.483   0.867
 1813HOH      O 5624   0.257   3.318   1.589
 1813HOH     H1 5625   0.259   3.323   1.685
 1813HOH     H2 5626   0.196   3.247   1.570
 1814HOH      O 5627   0.728   1.967   2.220
 1814HOH     H1 5628   0.810   2.015   2.210
 1814HOH     H2 5629   0.754   1.883   2.258
 1815HOH      O 5630   1.074   3.878   3.744
 1815HOH     H1 5631   1.120   3.954   3.780
 1815HOH     H2 5632   1.108   3.870   3.655
 1816HOH      O 5633   3.155   2.498   0.211
 1816HOH     H1 5634   3.141   2.591   0.227
 1816HOH     H2 5635   3.148   2.457   0.297
 1817HOH      O 5636   2.830   2.508   1.722
 1817HOH     H1 5637   2.741   2.476   1.739
 1817HOH     H2 5638   2.887   2.444   1.765
 1818HOH      O 5639   2.493   0.531   2.978
 1818HOH     H1 5640   2.547   0.588   2.923
 1818HOH     H2 5641   2.404   0.561   2.964
 1819HOH      O 5642   2.285   0.364   2.619
 1819HOH     H1 5643   2.269   0.379   2.712
 1819HOH     H2 5644   2.309   0.450   2.584
 1820HOH      O 5645   2.382   0.507   3.755
 1820HOH     H1 5646   2.412   0.583   3.805
 1820HOH     H2 5647   2.299   0.535   3.717
 1821HOH      O 5648   2.965   1.673   2.708
 1821HOH     H1 5649   3.031   1.697   2.772
 1821HOH     H2 5650   2.916   1.754   2.693
 1822HOH      O 5651   3.171   2.589   0.924
 1822HOH     H1 5652   3.189   2.596   0.830
 1822HOH     H2 5653   3.222   2.512   0.952
 1823HOH      O 5654   3.867   2.973   0.667
 1823HOH     H1 5655   3.950   2.955   0.712
 1823HOH     H2 5656   3.801   2.926   0.718
 1824HOH      O 5657   3.098   0.932   0.561
 1824HOH     H1 5658   3.178   0.886   0.586
 1824HOH     H2 5659   3.119   0.972   0.477
 1825HOH      O 5660   3.355   1.839   3.657
 1825HOH     H1 5661   3.265   1.807   3.653
 1825HOH     H2 5662   3.346   1.932   3.679
 1826HOH      O 5663   3.281   3.626   1.382
 1826HOH     H1 5664   3.211   3.682   1.414
 1826HOH     H2 5665   3.361   3.665   1.418
 1827HOH      O 5666   1.727   0.334   3.574
 1827HOH     H1 5667   1.639   0.347   3.610
 1827HOH     H2 5668   1.728   0.387   3.494
 1828HOH      O 5669   0.197   2.139   3.830
 1828HOH     H1 5670   0.107   2.114   3.810
 1828HOH     H2 5671   0.245   2.057   3.831
 1829HOH      O 5672   3.736  -0.012   3.249
 1829HOH     H1 5673   3.824   0.020   3.226
 1829HOH     H2 5674   3.678   0.031   3.186
 1830HOH      O 5675   3.643   1.453   2.267
 1830HOH     H1 5676   3.627   1.380   2.326
 1830HOH     H2 5677   3.704   1.419   2.202
 1831HOH      O 5678   2.205   3.524   3.166
 1831HOH     H1 5679   2.240   3.533   3.077
 1831HOH     H2 5680   2.137   3.591   3.172
 1832HOH      O 5681   0.006   2.832   2.097
 1832HOH     H1 5682  -0.008   2.859   2.007
 1832HOH     H2 5683   0.093   2.865   2.119
 1833HOH      O 5684   0.737   3.238   2.246
 1833HOH     H1 5685   0.797   3.206   2.313
 1833HOH     H2 5686   0.772   3.324   2.222
 1834HOH      O 5687   3.949   0.311   2.090
 1834HOH     H1 5688   3.915   0.238   2.037
 1834HOH     H2 5689   4.014   0.270   2.148
 1835HOH      O 5690   3.444   1.324   3.140
 1835HOH     H1 5691   3.442   1.228   3.141
 1835HOH     H2 5692   3.529   1.346   3.102
 1836HOH      O 5693   0.565   0.862   1.134
 1836HOH     H1 5694   0.544   0.937   1.078
 1836HOH     H2 5695   0.649   0.830   1.101
 1837HOH      O 5696   3.787   2.620   3.612
 1837HOH     H1 5697   3.812   2.703   3.653
 1837HOH     H2 5698   3.853   2.605   3.545
 1838HOH      O 5699   0.653   3.057   3.271
 1838HOH     H1 5700   0.569   3.096   3.245
 1838HOH     H2 5701   0.674   3.099   3.354
 1839HOH      O 5702   2.715   3.241   3.998
 1839HOH     H1 5703   2.796   3.291   4.001
 1839HOH     H2 5704   2.712   3.195   4.082
 1840HOH      O 5705   2.971   0.012   2.871
 1840HOH     H1 5706   2.903  -0.043   2.910
 1840HOH     H2 5707   2.971   0.092   2.924
 1841HOH      O 5708   3.554   0.325   3.496
 1841HOH     H1 5709   3.521   0.410   3.526
 1841HOH     H2 5710   3.634   0.346   3.447
 1842HOH      O 5711   0.695   3.332   1.650
 1842HOH     H1 5712   0.713   3.307   1.740
 1842HOH     H2 5713   0.782   3.349   1.612
 1843HOH      O 5714   3.640   3.565   3.748
 1843HOH     H1 5715   3.601   3.527   3.827
 1843HOH     H2 5716   3.727   3.527   3.743
 1844HOH      O 5717   1.228   2.153   1.817
 1844HOH     H1 5718   1.259   2.236   1.781
 1844HOH     H2 5719   1.302   2.120   1.868
 1845HOH      O 5720   0.978   2.748   2.675
 1845HOH     H1 5721   0.887   2.743   2.705
 1845HOH     H2 5722   0.971   2.753   2.579
 1846HOH      O 5723   2.530   0.195   2.572
 1846HOH     H1 5724   2.493   0.117   2.614
 1846HOH     H2 5725   2.456   0.256   2.564
 1847HOH      O 5726   0.071   0.269   3.908
 1847HOH     H1 5727   0.091   0.234   3.821
 1847HOH     H2 5728  -0.011   0.317   3.896
 1848HOH      O 5729   1.000   3.669   3.897
 1848HOH     H1 5730   0.918   3.647   3.853
 1848HOH     H2 5731   1.029   3.750   3.854
 1849HOH      O 5732   0.781   2.098   0.240
 1849HOH     H1 5733   0.790   2.105   0.145
 1849HOH     H2 5734   0.713   2.161   0.263
 1850HOH      O 5735   2.411   0.418   1.601
 1850HOH     H1 5736   2.350   0.464   1.544
 1850HOH     H2 5737   2.466   0.367   1.542
 1851HOH      O 5738   2.436   1.364   2.375
 1851HOH     H1 5739   2.433   1.449   2.329
 1851HOH     H2 5740   2.516   1.368   2.427
 1852HOH      O 5741   1.048   3.674   2.809
 1852HOH     H1 5742   1.046   3.605   2.743
 1852HOH     H2 5743   1.098   3.636   2.881
 1853HOH      O 5744   2.591   1.476   1.569
 1853HOH     H1 5745   2.685   1.459   1.561
 1853HOH     H2 5746   2.586   1.562   1.609
 1854HOH      O 5747   0.472   1.111   2.041
 1854HOH     H1 5748   0.436   1.035   1.996
 1854HOH     H2 5749   0.462   1.091   2.134
 1855HOH      O 5750   3.999   1.470   1.382
 1855HOH     H1 5751   4.089   1.484   1.352
 1855HOH     H2 5752   3.945   1.499   1.309
 1856HOH      O 5753   0.347   2.734   1.677
 1856HOH     H1 5754   0.349   2.741   1.772
 1856HOH     H2 5755   0.327   2.822   1.646
 1857HOH      O 5756   3.842   2.918   3.708
 1857HOH     H1 5757   3.804   2.886   3.789
 1857HOH     H2 5758   3.922   2.868   3.696
 1858HOH      O 5759   2.656   2.242   2.236
 1858HOH     H1 5760   2.570   2.266   2.202
 1858HOH     H2 5761   2.694   2.325   2.265
 1859HOH      O 5762   3.159   3.381   0.580
 1859HOH     H1 5763   3.194   3.305   0.534
 1859HOH     H2 5764   3.072   3.395   0.542
 1860HOH      O 5765   3.135   3.985   1.818
 1860HOH     H1 5766   3.065   4.047   1.798
 1860HOH     H2 5767   3.207   4.039   1.850
 1861HOH      O 5768   0.642   1.512   3.716
 1861HOH     H1 5769   0.577   1.551   3.658
 1861HOH     H2 5770   0.619   1.419   3.718
 1862HOH      O 5771   1.446   3.049   3.801
 1862HOH     H1 5772   1.406   3.082   3.882
 1862HOH     H2 5773   1.479   3.128   3.757
 1863HOH      O 5774   1.130   1.756   3.403
 1863HOH     H1 5775   1.129   1.821   3.473
 1863HOH     H2 5776   1.127   1.807   3.322
 1864HOH      O 5777   0.353   2.218   2.665
 1864HOH     H1 5778   0.412   2.283   2.627
 1864HOH     H2 5779   0.386   2.134   2.634
 1865HOH      O 5780   1.717   3.395   0.626
 1865HOH     H1 5781   1.624   3.374   0.637
 1865HOH     H2 5782   1.717   3.486   0.595
 1866HOH      O 5783   1.374   2.030   0.581
 1866HOH     H1 5784   1.378   2.059   0.671
 1866HOH     H2 5785   1.287   1.990   0.572
 1867HOH      O 5786   3.875   3.020   0.377
 1867HOH     H1 5787   3.848   3.004   0.468
 1867HOH     H2 5788   3.918   3.105   0.380
 1868HOH      O 5789   3.744   2.069   0.626
 1868HOH     H1 5790   3.653   2.098   0.635
 1868HOH     H2 5791   3.739   1.994   0.567
 1869HOH      O 5792   1.890   2.577   1.373
 1869HOH     H1 5793   1.823   2.528   1.326
 1869HOH     H2 5794   1.973   2.541   1.341
 1870HOH      O 5795   2.369   3.055   2.423
 1870HOH     H1 5796   2.450   3.100   2.401
 1870HOH     H2 5797   2.305   3.126   2.432
 1871HOH      O 5798   2.056   3.037   1.181
 1871HOH     H1 5799   2.063   2.988   1.263
 1871HOH     H2 5800   1.985   2.994   1.134
 1872HOH      O 5801   3.018   0.119   2.620
 1872HOH     H1 5802   2.981   0.096   2.705
 1872HOH     H2 5803   3.100   0.068   2.615
 1873HOH      O 5804   1.149   4.004   2.409
 1873HOH     H1 5805   1.200   4.043   2.480
 1873HOH     H2 5806   1.074   3.964   2.452
 1874HOH      O 5807   3.150   2.613   0.624
 1874HOH     H1 5808   3.127   2.526   0.593
 1874HOH     H2 5809   3.236   2.631   0.585
 1875HOH      O 5810   2.453   2.139   1.428
 1875HOH     H1 5811   2.477   2.047   1.435
 1875HOH     H2 5812   2.452   2.171   1.518
 1876HOH      O 5813   3.954   0.541   2.833
 1876HOH     H1 5814   3.909   0.529   2.917
 1876HOH     H2 5815   3.884   0.551   2.769
 1877HOH      O 5816   3.808   2.134   0.329
 1877HOH     H1 5817   3.877   2.082   0.370
 1877HOH     H2 5818   3.853   2.189   0.265
 1878HOH      O 5819   0.588   2.731   0.962
 1878HOH     H1 5820   0.612   2.747   0.871
 1878HOH     H2 5821   0.494   2.751   0.966
 1879HOH      O 5822   2.831   3.114   0.869
 1879HOH     H1 5823   2.857   3.116   0.777
 1879HOH     H2 5824   2.891   3.175   0.912
 1880HOH      O 5825   2.288   2.642   2.651
 1880HOH     H1 5826   2.245   2.617   2.569
 1880HOH     H2 5827   2.238   2.716   2.683
 1881HOH      O 5828   1.452   1.021   3.294
 1881HOH     H1 5829   1.468   1.009   3.388
 1881HOH     H2 5830   1.525   0.976   3.251
 1882HOH      O 5831   0.752   0.459   0.673
 1882HOH     H1 5832   0.743   0.476   0.766
 1882HOH     H2 5833   0.776   0.367   0.667
 1883HOH      O 5834   0.206   1.673   2.038
 1883HOH     H1 5835   0.214   1.626   1.955
 1883HOH     H2 5836   0.118   1.709   2.037
 1884HOH      O 5837   0.595   3.580   2.186
 1884HOH     H1 5838   0.688   3.605   2.182
 1884HOH     H2 5839   0.559   3.611   2.103
 1885HOH      O 5840   0.043   2.753   3.677
 1885HOH     H1 5841   0.106   2.769   3.747
 1885HOH     H2 5842   0.085   2.688   3.621
 1886HOH      O 5843   3.852   1.850   2.624
 1886HOH     H1 5844   3.779   1.893   2.580
 1886HOH     H2 5845   3.926   1.909   2.610
 1887HOH      O 5846   3.282   2.754   3.072
 1887HOH     H1 5847   3.323   2.688   3.128
 1887HOH     H2 5848   3.226   2.703   3.013
 1888HOH      O 5849   1.437   3.380   2.379
 1888HOH     H1 5850   1.475   3.293   2.396
 1888HOH     H2 5851   1.498   3.421   2.317
 1889HOH      O 5852   1.388   3.537   2.615
 1889HOH     H1 5853   1.329   3.597   2.569
 1889HOH     H2 5854   1.402   3.466   2.553
 1890HOH      O 5855   3.303   3.418   2.408
 1890HOH     H1 5856   3.227   3.370   2.375
 1890HOH     H2 5857   3.285   3.432   2.501
 1891HOH      O 5858   0.283   1.266   1.073
 1891HOH     H1 5859   0.375   1.267   1.047
 1891HOH     H2 5860   0.236   1.239   0.993
 1892HOH      O 5861   3.179   3.006   1.080
 1892HOH     H1 5862   3.244   2.992   1.011
 1892HOH     H2 5863   3.165   3.101   1.081
 1893HOH      O 5864   2.529   3.860   3.139
 1893HOH     H1 5865   2.445   3.904   3.130
 1893HOH     H2 5866   2.525   3.817   3.224
 1894HOH      O 5867   2.041   1.582   3.042
 1894HOH     H1 5868   2.117   1.529   3.018
 1894HOH     H2 5869   2.078   1.655   3.091
 1895HOH      O 5870   1.258   0.093   3.760
 1895HOH     H1 5871   1.265   0.144   3.841
 1895HOH     H2 5872   1.224   0.155   3.695
 1896HOH      O 5873   3.495   1.018   2.347
 1896HOH     H1 5874   3.555   1.084   2.379
 1896HOH     H2 5875   3.547   0.965   2.286
 1897HOH      O 5876   4.008   2.391   3.647
 1897HOH     H1 5877   4.028   2.299   3.662
 1897HOH     H2 5878   4.035   2.407   3.556
 1898HOH      O 5879   3.152   3.625   2.309
 1898HOH     H1 5880   3.212   3.553   2.331
 1898HOH     H2 5881   3.200   3.679   2.247
 1899HOH      O 5882   0.417   2.414   1.896
 1899HOH     H1 5883   0.436   2.359   1.820
 1899HOH     H2 5884   0.326   2.393   1.919
 1900HOH      O 5885   1.215   0.711   2.011
 1900HOH     H1 5886   1.280   0.707   2.081
 1900HOH     H2 5887   1.131   0.719   2.056
 1901HOH      O 5888   3.887   2.045   0.853
 1901HOH     H1 5889   3.847   2.064   0.768
 1901HOH     H2 5890   3.981   2.055   0.838
 1902HOH      O 5891   4.027   1.226   1.480
 1902HOH     H1 5892   4.010   1.167   1.407
 1902HOH     H2 5893   4.004   1.313   1.447
 1903HOH      O 5894   3.640   1.511   0.634
 1903HOH     H1 5895   3.673   1.427   0.667
 1903HOH     H2 5896   3.654   1.506   0.540
 1904HOH      O 5897   0.434   1.434   1.650
 1904HOH     H1 5898   0.429   1.339   1.656
 1904HOH     H2 5899   0.528   1.453   1.645
 1905HOH      O 5900   2.205   2.382   0.085
 1905HOH     H1 5901   2.134   2.348   0.140
 1905HOH     H2 5902   2.279   2.390   0.145
 1906HOH      O 5903   0.100   2.793   0.209
 1906HOH     H1 5904   0.059   2.718   0.251
 1906HOH     H2 5905   0.111   2.857   0.279
 1907HOH      O 5906   0.071   3.489   0.181
 1907HOH     H1 5907   0.035   3.529   0.102
 1907HOH     H2 5908   0.010   3.512   0.250
 1908HOH      O 5909   3.677   2.222   2.931
 1908HOH     H1 5910   3.674   2.206   2.837
 1908HOH     H2 5911   3.739   2.156   2.964
 1909HOH      O 5912   1.278   2.512   2.250
 1909HOH     H1 5913   1.303   2.435   2.300
 1909HOH     H2 5914   1.298   2.490   2.160
 1910HOH      O 5915   1.961   2.517   4.014
 1910HOH     H1 5916   2.047   2.482   4.039
 1910HOH     H2 5917   1.957   2.503   3.919
 1911HOH      O 5918   0.542   0.953   0.091
 1911HOH     H1 5919   0.500   0.879   0.047
 1911HOH     H2 5920   0.635   0.942   0.071
 1912HOH      O 5921   2.840   1.028   2.065
 1912HOH     H1 5922   2.897   0.952   2.065
 1912HOH     H2 5923   2.802   1.030   1.977
 1913HOH      O 5924   0.906   0.921   2.418
 1913HOH     H1 5925   0.824   0.917   2.467
 1913HOH     H2 5926   0.925   1.014   2.409
 1914HOH      O 5927   3.187   2.091   2.312
 1914HOH     H1 5928   3.145   2.006   2.297
 1914HOH     H2 5929   3.151   2.120   2.395
 1915HOH      O 5930   3.135   2.574   3.258
 1915HOH     H1 5931   3.230   2.577   3.266
 1915HOH     H2 5932   3.110   2.496   3.308
 1916HOH      O 5933   0.411   3.445   0.430
 1916HOH     H1 5934   0.392   3.406   0.345
 1916HOH     H2 5935   0.505   3.462   0.428
 1917HOH      O 5936   3.449   3.235   1.497
 1917HOH     H1 5937   3.508   3.162   1.476
 1917HOH     H2 5938   3.469   3.301   1.431
 1918HOH      O 5939   2.948   0.655   1.775
 1918HOH     H1 5940   2.973   0.735   1.728
 1918HOH     H2 5941   3.025   0.598   1.769
 1919HOH      O 5942   0.906   0.007   2.287
 1919HOH     H1 5943   0.997   0.017   2.314
 1919HOH     H2 5944   0.880   0.094   2.255
 1920HOH      O 5945   2.294   3.412   0.111
 1920HOH     H1 5946   2.373   3.458   0.140
 1920HOH     H2 5947   2.304   3.406   0.016
 1921HOH      O 5948   2.139   1.212   2.093
 1921HOH     H1 5949   2.107   1.224   2.004
 1921HOH     H2 5950   2.216   1.269   2.098
 1922HOH      O 5951   3.136   2.909   1.563
 1922HOH     H1 5952   3.078   2.834   1.552
 1922HOH     H2 5953   3.194   2.906   1.487
 1923HOH      O 5954   1.828   3.415   2.082
 1923HOH     H1 5955   1.905   3.418   2.025
 1923HOH     H2 5956   1.825   3.324   2.113
 1924HOH      O 5957   3.510   3.460   3.946
 1924HOH     H1 5958   3.434   3.405   3.932
 1924HOH     H2 5959   3.489   3.513   4.023
 1925HOH      O 5960   0.740   1.305   0.367
 1925HOH     H1 5961   0.745   1.342   0.279
 1925HOH     H2 5962   0.772   1.215   0.356
 1926HOH      O 5963   3.945   0.853   1.619
 1926HOH     H1 5964   3.989   0.777   1.579
 1926HOH     H2 5965   3.998   0.927   1.590
 1927HOH      O 5966   2.830   2.871   2.972
 1927HOH     H1 5967   2.828   2.924   2.893
 1927HOH     H2 5968   2.747   2.824   2.972
 1928HOH      O 5969   1.823   2.869   2.804
 1928HOH     H1 5970   1.741   2.856   2.852
 1928HOH     H2 5971   1.869   2.936   2.855
 1929HOH      O 5972   3.184   2.965   2.489
 1929HOH     H1 5973   3.279   2.958   2.480
 1929HOH     H2 5974   3.164   2.915   2.568
 1930HOH      O 5975   0.694   0.769   3.393
 1930HOH     H1 5976   0.605   0.781   3.359
 1930HOH     H2 5977   0.746   0.746   3.317
 1931HOH      O 5978   3.216   3.108   3.526
 1931HOH     H1 5979   3.279   3.038   3.541
 1931HOH     H2 5980   3.195   3.101   3.433
 1932HOH      O 5981   1.270   0.441   3.367
 1932HOH     H1 5982   1.264   0.534   3.345
 1932HOH     H2 5983   1.342   0.408   3.314
 1933HOH      O 5984   0.512   2.126   3.512
 1933HOH     H1 5985   0.525   2.031   3.517
 1933HOH     H2 5986   0.546   2.159   3.596
 1934HOH      O 5987   3.360   1.505   1.117
 1934HOH     H1 5988   3.318   1.419   1.115
 1934HOH     H2 5989   3.446   1.491   1.079
 1935HOH      O 5990   0.942   0.775   2.203
 1935HOH     H1 5991   0.861   0.742   2.166
 1935HOH     H2 5992   0.917   0.815   2.286
 1936HOH      O 5993   2.303   0.368   3.422
 1936HOH     H1 5994   2.217   0.407   3.433
 1936HOH     H2 5995   2.357   0.439   3.388
 1937HOH      O 5996   0.282   0.933   1.558
 1937HOH     H1 5997   0.222   0.997   1.596
 1937HOH     H2 5998   0.367   0.978   1.557
 1938HOH      O 5999   1.941   3.730   3.937
 1938HOH     H1 6000   1.884   3.658   3.964
 1938HOH     H2 6001   1.883   3.805   3.930
 1939HOH      O 6002   0.566   2.160   2.088
 1939HOH     H1 6003   0.546   2.086   2.030
 1939HOH     H2 6004   0.616   2.122   2.160
 1940HOH      O 6005   3.181   3.583   3.974
 1940HOH     H1 6006   3.115   3.652   3.973
 1940HOH     H2 6007   3.245   3.612   4.039
 1941HOH      O 6008   1.064   1.986   3.542
 1941HOH     H1 6009   1.098   2.047   3.477
 1941HOH     H2 6010   0.979   2.023   3.567
 1942HOH      O 6011   2.973   3.739   0.570
 1942HOH     H1 6012   3.005   3.825   0.544
 1942HOH     H2 6013   3.017   3.677   0.512
 1943HOH      O 6014   0.666   2.509   3.693
 1943HOH     H1 6015   0.747   2.520   3.743
 1943HOH     H2 6016   0.694   2.508   3.602
 1944HOH      O 6017   1.432   1.985   3.248
 1944HOH     H1 6018   1.493   2.054   3.224
 1944HOH     H2 6019   1.399   2.010   3.334
 1945HOH      O 6020   0.224   0.124   1.480
 1945HOH     H1 6021   0.205   0.114   1.386
 1945HOH     H2 6022   0.300   0.068   1.495
 1946HOH      O 6023   1.471   2.510   2.537
 1946HOH     H1 6024   1.509   2.514   2.625
 1946HOH     H2 6025   1.547   2.503   2.479
 1947HOH      O 6026   2.872   1.176   2.825
 1947HOH     H1 6027   2.848   1.178   2.918
 1947HOH     H2 6028   2.788   1.172   2.779
 1948HOH      O 6029   1.742   3.613   1.894
 1948HOH     H1 6030   1.770   3.544   1.955
 1948HOH     H2 6031   1.749   3.572   1.808
 1949HOH      O 6032   3.874   1.690   2.126
 1949HOH     H1 6033   3.874   1.669   2.219
 1949HOH     H2 6034   3.795   1.743   2.113
 1950HOH      O 6035   0.050   1.247   0.849
 1950HOH     H1 6036   0.132   1.226   0.803
 1950HOH     H2 6037  -0.015   1.189   0.809
 1951HOH      O 6038   0.446   0.834   3.532
 1951HOH     H1 6039   0.541   0.826   3.542
 1951HOH     H2 6040   0.417   0.747   3.503
 1952HOH      O 6041   2.482   3.179   3.323
 1952HOH     H1 6042   2.549   3.142   3.381
 1952HOH     H2 6043   2.410   3.116   3.327
 1953HOH      O 6044   1.931   2.016   2.344
 1953HOH     H1 6045   2.023   1.994   2.362
 1953HOH     H2 6046   1.931   2.047   2.254
 1954HOH      O 6047   0.938   1.875   0.265
 1954HOH     H1 6048   0.862   1.931   0.249
 1954HOH     H2 6049   0.901   1.787   0.271
 1955HOH      O 6050   0.508   1.940   1.915
 1955HOH     H1 6051   0.521   1.845   1.912
 1955HOH     H2 6052   0.427   1.955   1.867
 1956HOH      O 6053   3.195   0.981   2.382
 1956HOH     H1 6054   3.180   0.930   2.461
 1956HOH     H2 6055   3.289   0.971   2.363
 1957HOH      O 6056   1.914   3.591   3.246
 1957HOH     H1 6057   1.911   3.546   3.161
 1957HOH     H2 6058   1.826   3.582   3.280
 1958HOH      O 6059   1.076   0.759   1.009
 1958HOH     H1 6060   1.153   0.815   1.001
 1958HOH     H2 6061   1.014   0.812   1.060
 1959HOH      O 6062   1.334   0.201   0.204
 1959HOH     H1 6063   1.307   0.133   0.142
 1959HOH     H2 6064   1.430   0.198   0.204
 1960HOH      O 6065   1.267   3.239   1.267
 1960HOH     H1 6066   1.330   3.307   1.294
 1960HOH     H2 6067   1.259   3.183   1.344
 1961HOH      O 6068   0.811   2.491   3.489
 1961HOH     H1 6069   0.756   2.445   3.425
 1961HOH     H2 6070   0.901   2.464   3.467
 1962HOH      O 6071   1.002   2.757   0.076
 1962HOH     H1 6072   0.962   2.790   0.156
 1962HOH     H2 6073   0.996   2.661   0.084
 1963HOH      O 6074   0.198   2.066   1.171
 1963HOH     H1 6075   0.114   2.099   1.205
 1963HOH     H2 6076   0.191   1.971   1.181
 1964HOH      O 6077   3.410   0.566   2.538
 1964HOH     H1 6078   3.322   0.566   2.500
 1964HOH     H2 6079   3.425   0.474   2.561
 1965HOH      O 6080   0.880   1.451   0.905
 1965HOH     H1 6081   0.970   1.474   0.884
 1965HOH     H2 6082   0.840   1.533   0.934
 1966HOH      O 6083   3.936   0.288   1.437
 1966HOH     H1 6084   4.009   0.330   1.391
 1966HOH     H2 6085   3.892   0.236   1.370
 1967HOH      O 6086   1.422   3.455   1.423
 1967HOH     H1 6087   1.487   3.524   1.407
 1967HOH     H2 6088   1.451   3.413   1.504
 1968HOH      O 6089   3.816   3.653   2.069
 1968HOH     H1 6090   3.808   3.599   2.147
 1968HOH     H2 6091   3.726   3.671   2.043
 1969HOH      O 6092   0.888   3.432   2.138
 1969HOH     H1 6093   0.974   3.443   2.178
 1969HOH     H2 6094   0.871   3.516   2.095
 1970HOH      O 6095   3.215   1.856   0.628
 1970HOH     H1 6096   3.224   1.842   0.722
 1970HOH     H2 6097   3.177   1.774   0.595
 1971HOH      O 6098   2.106   3.386   0.891
 1971HOH     H1 6099   2.023   3.340   0.897
 1971HOH     H2 6100   2.087   3.465   0.840
 1972HOH      O 6101   3.612   1.923   3.767
 1972HOH     H1 6102   3.580   2.009   3.793
 1972HOH     H2 6103   3.657   1.937   3.684
 1973HOH      O 6104   3.075   0.965   2.863
 1973HOH     H1 6105   3.154   1.015   2.882
 1973HOH     H2 6106   3.008   1.032   2.849
 1974HOH      O 6107   3.876   0.103   1.639
 1974HOH     H1 6108   3.840   0.164   1.575
 1974HOH     H2 6109   3.853   0.140   1.724
 1975HOH      O 6110   1.075   1.150   1.891
 1975HOH     H1 6111   1.101   1.063   1.860
 1975HOH     H2 6112   1.152   1.184   1.936
 1976HOH      O 6113   2.714   0.548   0.417
 1976HOH     H1 6114   2.791   0.602   0.400
 1976HOH     H2 6115   2.640   0.604   0.392
 1977HOH      O 6116   3.575   2.588   0.362
 1977HOH     H1 6117   3.596   2.612   0.272
 1977HOH     H2 6118   3.556   2.495   0.358
 1978HOH      O 6119   2.164   0.954   3.622
 1978HOH     H1 6120   2.251   0.918   3.643
 1978HOH     H2 6121   2.115   0.878   3.589
 1979HOH      O 6122   3.524   0.115   3.647
 1979HOH     H1 6123   3.588   0.047   3.627
 1979HOH     H2 6124   3.544   0.185   3.585
 1980HOH      O 6125   1.811   3.264   0.402
 1980HOH     H1 6126   1.894   3.309   0.390
 1980HOH     H2 6127   1.772   3.305   0.479
 1981HOH      O 6128   0.095   3.583   3.528
 1981HOH     H1 6129   0.001   3.568   3.521
 1981HOH     H2 6130   0.130   3.552   3.444
 1982HOH      O 6131   1.752   3.646   0.504
 1982HOH     H1 6132   1.810   3.721   0.518
 1982HOH     H2 6133   1.781   3.607   0.422
 1983HOH      O 6134   0.259   3.934   3.403
 1983HOH     H1 6135   0.230   3.922   3.494
 1983HOH     H2 6136   0.239   3.852   3.360
 1984HOH      O 6137   1.544   0.043   1.054
 1984HOH     H1 6138   1.452   0.059   1.036
 1984HOH     H2 6139   1.563   0.095   1.132
 1985HOH      O 6140   1.663   2.887   3.907
 1985HOH     H1 6141   1.604   2.815   3.930
 1985HOH     H2 6142   1.613   2.939   3.844
 1986HOH      O 6143   0.264   2.890   2.139
 1986HOH     H1 6144   0.330   2.906   2.207
 1986HOH     H2 6145   0.314   2.886   2.057
 1987HOH      O 6146   0.853   0.147   3.485
 1987HOH     H1 6147   0.819   0.072   3.534
 1987HOH     H2 6148   0.916   0.109   3.423
 1988HOH      O 6149   3.126   2.407   3.642
 1988HOH     H1 6150   3.091   2.332   3.690
 1988HOH     H2 6151   3.206   2.431   3.689
 1989HOH      O 6152   1.101   2.974   2.760
 1989HOH     H1 6153   1.028   3.023   2.797
 1989HOH     H2 6154   1.060   2.898   2.719
 1990HOH      O 6155   1.244   0.454   2.531
 1990HOH     H1 6156   1.160   0.458   2.485
 1990HOH     H2 6157   1.296   0.390   2.483
 1991HOH      O 6158   0.702   1.546   1.863
 1991HOH     H1 6159   0.657   1.596   1.930
 1991HOH     H2 6160   0.672   1.456   1.876
 1992HOH      O 6161   1.190   3.241   2.588
 1992HOH     H1 6162   1.245   3.179   2.539
 1992HOH     H2 6163   1.229   3.243   2.675
 1993HOH      O 6164   1.456   2.035   2.409
 1993HOH     H1 6165   1.450   1.946   2.444
 1993HOH     H2 6166   1.477   2.022   2.316
 1994HOH      O 6167   2.940   3.147   0.598
 1994HOH     H1 6168   2.960   3.221   0.654
 1994HOH     H2 6169   3.007   3.148   0.531
 1995HOH      O 6170   3.716   0.513   1.388
 1995HOH     H1 6171   3.757   0.428   1.402
 1995HOH     H2 6172   3.775   0.559   1.328
 1996HOH      O 6173   3.625   0.092   0.650
 1996HOH     H1 6174   3.618   0.057   0.562
 1996HOH     H2 6175   3.673   0.174   0.640
 1997HOH      O 6176   1.109   0.668   3.007
 1997HOH     H1 6177   1.136   0.590   2.959
 1997HOH     H2 6178   1.044   0.710   2.950
 1998HOH      O 6179   0.704   1.022   1.899
 1998HOH     H1 6180   0.776   0.997   1.840
 1998HOH     H2 6181   0.638   0.954   1.885
 1999HOH      O 6182   3.675   3.217   1.003
 1999HOH     H1 6183   3.586   3.211   0.968
 1999HOH     H2 6184   3.712   3.295   0.961
 2000HOH      O 6185   0.267   0.044   0.357
 2000HOH     H1 6186   0.204  -0.028   0.353
 2000HOH     H2 6187   0.225   0.115   0.308
 2001HOH      O 6188   0.244   2.578   3.596
 2001HOH     H1 6189   0.246   2.483   3.607
 2001HOH     H2 6190   0.306   2.611   3.660
 2002HOH      O 6191   0.986   1.269   0.548
 2002HOH     H1 6192   1.010   1.350   0.593
 2002HOH     H2 6193   0.893   1.281   0.525
 2003HOH      O 6194   0.574   1.912   0.679
 2003HOH     H1 6195   0.667   1.929   0.666
 2003HOH     H2 6196   0.551   1.850   0.611
 2004HOH      O 6197   1.052   2.848   3.713
 2004HOH     H1 6198   1.143   2.852   3.744
 2004HOH     H2 6199   1.044   2.923   3.654
 2005HOH      O 6200   3.662   3.310   1.251
 2005HOH     H1 6201   3.653   3.252   1.176
 2005HOH     H2 6202   3.711   3.386   1.219
 2006HOH      O 6203   0.613   0.728   2.747
 2006HOH     H1 6204   0.530   0.684   2.765
 2006HOH     H2 6205   0.669   0.659   2.710
 2007HOH      O 6206   3.383   0.687   0.281
 2007HOH     H1 6207   3.404   0.605   0.235
 2007HOH     H2 6208   3.308   0.665   0.336
 2008HOH      O 6209   1.070   1.641   3.660
 2008HOH     H1 6210   1.068   1.646   3.565
 2008HOH     H2 6211   1.134   1.573   3.680
 2009HOH      O 6212   2.048   1.141   2.465
 2009HOH     H1 6213   2.039   1.230   2.431
 2009HOH     H2 6214   2.140   1.119   2.452
 2010HOH      O 6215   3.915   2.952   2.319
 2010HOH     H1 6216   3.958   2.908   2.245
 2010HOH     H2 6217   3.943   2.901   2.396
 2011HOH      O 6218   0.348   2.952   0.037
 2011HOH     H1 6219   0.437   2.987   0.040
 2011HOH     H2 6220   0.292   3.029   0.047
 2012HOH      O 6221   0.779   3.968   3.658
 2012HOH     H1 6222   0.853   3.934   3.708
 2012HOH     H2 6223   0.742   3.891   3.614
 2013HOH      O 6224   1.205   3.746   0.062
 2013HOH     H1 6225   1.298   3.736   0.081
 2013HOH     H2 6226   1.181   3.667   0.015
 2014HOH      O 6227   3.854   1.116   3.994
 2014HOH     H1 6228   3.794   1.084   4.061
 2014HOH     H2 6229   3.803   1.117   3.913
 2015HOH      O 6230   2.986   2.089   4.004
 2015HOH     H1 6231   2.989   1.995   3.987
 2015HOH     H2 6232   2.924   2.097   4.077
 2016HOH      O 6233   1.204   3.090   1.505
 2016HOH     H1 6234   1.207   3.143   1.585
 2016HOH     H2 6235   1.191   3.000   1.537
 2017HOH      O 6236   0.245   2.681   0.608
 2017HOH     H1 6237   0.170   2.682   0.547
 2017HOH     H2 6238   0.224   2.612   0.671
 2018HOH      O 6239   1.171   4.018   4.032
 2018HOH     H1 6240   1.142   3.927   4.035
 2018HOH     H2 6241   1.092   4.067   4.011
 2019HOH      O 6242   0.728   3.562   3.815
 2019HOH     H1 6243   0.781   3.487   3.787
 2019HOH     H2 6244   0.639   3.541   3.786
 2020HOH      O 6245   3.512   4.021   0.082
 2020HOH     H1 6246   3.601   4.036   0.051
 2020HOH     H2 6247   3.467   3.983   0.007
 2021HOH      O 6248   3.262   0.282   0.585
 2021HOH     H1 6249   3.295   0.200   0.620
 2021HOH     H2 6250   3.177   0.260   0.546
 2022HOH      O 6251   0.871   2.692   3.213
 2022HOH     H1 6252   0.962   2.683   3.241
 2022HOH     H2 6253   0.820   2.656   3.286
 2023HOH      O 6254   3.905   3.614   3.284
 2023HOH     H1 6255   3.897   3.655   3.198
 2023HOH     H2 6256   3.970   3.545   3.273
 2024HOH      O 6257   0.255   2.205   1.503
 2024HOH     H1 6258   0.251   2.300   1.513
 2024HOH     H2 6259   0.328   2.178   1.559
 2025HOH      O 6260   3.724   0.712   3.131
 2025HOH     H1 6261   3.677   0.676   3.056
 2025HOH     H2 6262   3.702   0.655   3.204
 2026HOH      O 6263   0.565   3.466   1.238
 2026HOH     H1 6264   0.507   3.522   1.289
 2026HOH     H2 6265   0.651   3.480   1.277
 2027HOH      O 6266   2.092   1.743   2.791
 2027HOH     H1 6267   2.095   1.676   2.723
 2027HOH     H2 6268   2.182   1.776   2.797
 2028HOH      O 6269   1.847   2.106   3.859
 2028HOH     H1 6270   1.890   2.182   3.818
 2028HOH     H2 6271   1.776   2.083   3.798
 2029HOH      O 6272   2.936   2.818   1.346
 2029HOH     H1 6273   2.922   2.738   1.397
 2029HOH     H2 6274   2.982   2.788   1.267
 2030HOH      O 6275   1.658   1.603   0.175
 2030HOH     H1 6276   1.682   1.690   0.143
 2030HOH     H2 6277   1.740   1.563   0.201
 2031HOH      O 6278   1.371   2.828   3.635
 2031HOH     H1 6279   1.378   2.894   3.704
 2031HOH     H2 6280   1.462   2.810   3.611
 2032HOH      O 6281   2.097   0.725   1.288
 2032HOH     H1 6282   2.094   0.819   1.302
 2032HOH     H2 6283   2.006   0.699   1.276
 2033HOH      O 6284   3.188   1.856   1.263
 2033HOH     H1 6285   3.251   1.787   1.284
 2033HOH     H2 6286   3.102   1.817   1.283
 2034HOH      O 6287   1.329   2.772   1.578
 2034HOH     H1 6288   1.392   2.729   1.637
 2034HOH     H2 6289   1.250   2.783   1.630
 2035HOH      O 6290   3.486   3.064   3.262
 2035HOH     H1 6291   3.517   2.996   3.321
 2035HOH     H2 6292   3.491   3.025   3.175
 2036HOH      O 6293   1.022   1.583   1.726
 2036HOH     H1 6294   1.064   1.658   1.684
 2036HOH     H2 6295   1.058   1.582   1.814
 2037HOH      O 6296   2.969   0.896   3.867
 2037HOH     H1 6297   2.921   0.945   3.934
 2037HOH     H2 6298   2.929   0.809   3.867
 2038HOH      O 6299   0.749   1.045   3.453
 2038HOH     H1 6300   0.833   1.045   3.408
 2038HOH     H2 6301   0.708   0.963   3.426
 2039HOH      O 6302   1.892   2.223   3.440
 2039HOH     H1 6303   1.840   2.177   3.506
 2039HOH     H2 6304   1.971   2.249   3.486
 2040HOH      O 6305   2.463   2.683   0.081
 2040HOH     H1 6306   2.483   2.622   0.011
 2040HOH     H2 6307   2.405   2.635   0.139
 2041HOH      O 6308   1.102   2.392   2.792
 2041HOH     H1 6309   1.052   2.401   2.873
 2041HOH     H2 6310   1.139   2.479   2.778
 2042HOH      O 6311   2.791   2.812   0.912
 2042HOH     H1 6312   2.815   2.865   0.988
 2042HOH     H2 6313   2.789   2.873   0.839
 2043HOH      O 6314   3.971   0.098   3.172
 2043HOH     H1 6315   3.979   0.191   3.190
 2043HOH     H2 6316   4.060   0.063   3.182
 2044HOH      O 6317   1.617   2.774   3.564
 2044HOH     H1 6318   1.653   2.709   3.504
 2044HOH     H2 6319   1.693   2.823   3.595
 2045HOH      O 6320   3.579   3.658   1.887
 2045HOH     H1 6321   3.498   3.703   1.863
 2045HOH     H2 6322   3.634   3.666   1.809
 2046HOH      O 6323   0.833   0.491   2.719
 2046HOH     H1 6324   0.854   0.489   2.812
 2046HOH     H2 6325   0.744   0.457   2.713
 2047HOH      O 6326   3.930   2.437   1.831
 2047HOH     H1 6327   3.935   2.383   1.910
 2047HOH     H2 6328   4.021   2.455   1.808
 2048HOH      O 6329   2.015   2.741   2.354
 2048HOH     H1 6330   1.962   2.733   2.433
 2048HOH     H2 6331   2.085   2.802   2.378
 2049HOH      O 6332   3.344   2.851   3.541
 2049HOH     H1 6333   3.259   2.832   3.500
 2049HOH     H2 6334   3.400   2.778   3.514
 2050HOH      O 6335   0.084   3.118   1.539
 2050HOH     H1 6336   0.048   3.063   1.609
 2050HOH     H2 6337   0.007   3.155   1.496
 2051HOH      O 6338   0.579   3.530   3.265
 2051HOH     H1 6339   0.602   3.555   3.175
 2051HOH     H2 6340   0.557   3.613   3.308
 2052HOH      O 6341   0.109   0.472   1.314
 2052HOH     H1 6342   0.201   0.468   1.289
 2052HOH     H2 6343   0.063   0.432   1.241
 2053HOH      O 6344   1.927   2.532   3.746
 2053HOH     H1 6345   1.836   2.561   3.752
 2053HOH     H2 6346   1.955   2.561   3.659
 2054HOH      O 6347   4.029   0.373   3.163
 2054HOH     H1 6348   3.934   0.364   3.159
 2054HOH     H2 6349   4.044   0.463   3.192
 2055HOH      O 6350   2.478   1.663   2.388
 2055HOH     H1 6351   2.520   1.743   2.357
 2055HOH     H2 6352   2.385   1.679   2.376
 2056HOH      O 6353   3.032   3.902   2.258
 2056HOH     H1 6354   2.986   3.820   2.279
 2056HOH     H2 6355   3.125   3.877   2.256
 2057HOH      O 6356   3.402   2.000   1.554
 2057HOH     H1 6357   3.416   1.939   1.626
 2057HOH     H2 6358   3.464   1.973   1.486
 2058HOH      O 6359   0.461   1.522   0.142
 2058HOH     H1 6360   0.420   1.436   0.147
 2058HOH     H2 6361   0.553   1.504   0.127
 2059HOH      O 6362   1.712   3.202   1.319
 2059HOH     H1 6363   1.633   3.167   1.278
 2059HOH     H2 6364   1.745   3.266   1.255
 2060HOH      O 6365   1.931   0.252   2.363
 2060HOH     H1 6366   1.854   0.228   2.312
 2060HOH     H2 6367   1.980   0.311   2.306
 2061HOH      O 6368   1.285   3.859   1.195
 2061HOH     H1 6369   1.287   3.916   1.118
 2061HOH     H2 6370   1.322   3.776   1.165
 2062HOH      O 6371   3.001   1.623   3.737
 2062HOH     H1 6372   2.942   1.579   3.676
 2062HOH     H2 6373   3.003   1.565   3.814
 2063HOH      O 6374   0.628   1.065   3.720
 2063HOH     H1 6375   0.556   1.122   3.697
 2063HOH     H2 6376   0.678   1.054   3.639
 2064HOH      O 6377   2.304   1.617   3.707
 2064HOH     H1 6378   2.302   1.680   3.779
 2064HOH     H2 6379   2.213   1.587   3.700
 2065HOH      O 6380   1.741   1.921   2.533
 2065HOH     H1 6381   1.805   1.946   2.467
 2065HOH     H2 6382   1.794   1.893   2.608
 2066HOH      O 6383   2.843   1.962   0.252
 2066HOH     H1 6384   2.891   1.892   0.298
 2066HOH     H2 6385   2.864   2.041   0.301
 2067HOH      O 6386   0.412   3.833   1.914
 2067HOH     H1 6387   0.361   3.898   1.963
 2067HOH     H2 6388   0.408   3.864   1.824
 2068HOH      O 6389   2.631   2.454   0.404
 2068HOH     H1 6390   2.719   2.442   0.368
 2068HOH     H2 6391   2.643   2.513   0.478
 2069HOH      O 6392   2.436   2.366   3.628
 2069HOH     H1 6393   2.380   2.407   3.561
 2069HOH     H2 6394   2.457   2.437   3.688
 2070HOH      O 6395   3.797   2.469   1.546
 2070HOH     H1 6396   3.757   2.465   1.459
 2070HOH     H2 6397   3.799   2.378   1.576
 2071HOH      O 6398   3.763   1.998   3.541
 2071HOH     H1 6399   3.809   1.949   3.473
 2071HOH     H2 6400   3.715   2.066   3.493
 2072HOH      O 6401   0.252   1.015   3.492
 2072HOH     H1 6402   0.318   0.946   3.497
 2072HOH     H2 6403   0.270   1.059   3.409
 2073HOH      O 6404   0.763   3.467   2.475
 2073HOH     H1 6405   0.709   3.540   2.507
 2073HOH     H2 6406   0.710   3.389   2.489
 2074HOH      O 6407   3.663   0.621   2.332
 2074HOH     H1 6408   3.665   0.552   2.265
 2074HOH     H2 6409   3.577   0.613   2.373
 2075HOH      O 6410   1.665   3.205   0.991
 2075HOH     H1 6411   1.647   3.157   1.072
 2075HOH     H2 6412   1.631   3.148   0.921
 2076HOH      O 6413   0.567   2.660   2.089
 2076HOH     H1 6414   0.661   2.678   2.086
 2076HOH     H2 6415   0.539   2.694   2.174
 2077HOH      O 6416   3.397   2.568   3.267
 2077HOH     H1 6417   3.423   2.560   3.358
 2077HOH     H2 6418   3.399   2.479   3.233
 2078HOH      O 6419   3.390   0.953   1.329
 2078HOH     H1 6420   3.450   0.879   1.340
 2078HOH     H2 6421   3.423   1.000   1.253
 2079HOH      O 6422   1.991   3.963   0.110
 2079HOH     H1 6423   1.935   3.953   0.187
 2079HOH     H2 6424   1.930   3.969   0.037
 2080HOH      O 6425   0.592   1.024   3.154
 2080HOH     H1 6426   0.498   1.029   3.174
 2080HOH     H2 6427   0.608   0.932   3.134
 2081HOH      O 6428   3.234   1.660   2.533
 2081HOH     H1 6429   3.177   1.736   2.521
 2081HOH     H2 6430   3.273   1.671   2.619
 2082HOH      O 6431   2.238   2.475   3.419
 2082HOH     H1 6432   2.251   2.428   3.336
 2082HOH     H2 6433   2.274   2.562   3.403
 2083HOH      O 6434   3.735   3.235   0.604
 2083HOH     H1 6435   3.776   3.164   0.653
 2083HOH     H2 6436   3.720   3.303   0.669
 2084HOH      O 6437   1.709   3.346   2.591
 2084HOH     H1 6438   1.690   3.370   2.682
 2084HOH     H2 6439   1.659   3.266   2.577
 2085HOH      O 6440   2.879   0.810   2.964
 2085HOH     H1 6441   2.934   0.880   2.928
 2085HOH     H2 6442   2.812   0.856   3.014
 2086HOH      O 6443   0.593   3.183   3.804
 2086HOH     H1 6444   0.674   3.232   3.811
 2086HOH     H2 6445   0.581   3.170   3.710
 2087HOH      O 6446   2.004   0.248   1.852
 2087HOH     H1 6447   2.060   0.315   1.814
 2087HOH     H2 6448   1.971   0.199   1.776
 2088HOH      O 6449   0.553   1.221   3.978
 2088HOH     H1 6450   0.576   1.190   3.890
 2088HOH     H2 6451   0.555   1.142   4.033
 2089HOH      O 6452   3.395   0.498   1.138
 2089HOH     H1 6453   3.384   0.404   1.150
 2089HOH     H2 6454   3.347   0.537   1.212
 2090HOH      O 6455   1.777   3.964   3.898
 2090HOH     H1 6456   1.782   4.044   3.846
 2090HOH     H2 6457   1.683   3.952   3.914
 2091HOH      O 6458   2.079   1.018   3.879
 2091HOH     H1 6459   2.106   0.990   3.966
 2091HOH     H2 6460   2.141   1.087   3.856
 2092HOH      O 6461   0.514   3.592   1.880
 2092HOH     H1 6462   0.469   3.676   1.889
 2092HOH     H2 6463   0.505   3.571   1.787
 2093HOH      O 6464   0.839   3.539   1.282
 2093HOH     H1 6465   0.914   3.577   1.327
 2093HOH     H2 6466   0.871   3.455   1.248
 2094HOH      O 6467   2.124   3.065   3.684
 2094HOH     H1 6468   2.072   3.035   3.759
 2094HOH     H2 6469   2.215   3.058   3.714
 2095HOH      O 6470   3.508   3.516   3.424
 2095HOH     H1 6471   3.418   3.499   3.451
 2095HOH     H2 6472   3.551   3.546   3.504
 2096HOH      O 6473   0.331   3.932   3.693
 2096HOH     H1 6474   0.361   3.998   3.630
 2096HOH     H2 6475   0.339   3.975   3.778
 2097HOH      O 6476   2.431   2.986   2.679
 2097HOH     H1 6477   2.383   3.010   2.599
 2097HOH     H2 6478   2.372   3.012   2.750
 2098HOH      O 6479   3.569   0.123   1.955
 2098HOH     H1 6480   3.608   0.201   1.917
 2098HOH     H2 6481   3.476   0.143   1.962
 2099HOH      O 6482   3.925   2.734   1.051
 2099HOH     H1 6483   3.840   2.689   1.044
 2099HOH     H2 6484   3.976   2.680   1.111
 2100HOH      O 6485   0.290   0.771   2.172
 2100HOH     H1 6486   0.330   0.722   2.243
 2100HOH     H2 6487   0.262   0.853   2.212
 2101HOH      O 6488   3.643   1.074   0.145
 2101HOH     H1 6489   3.677   1.121   0.221
 2101HOH     H2 6490   3.548   1.078   0.154
 2102HOH      O 6491   1.005   1.031   2.858
 2102HOH     H1 6492   0.938   1.074   2.910
 2102HOH     H2 6493   1.045   1.102   2.808
 2103HOH      O 6494   0.463   0.703   0.339
 2103HOH     H1 6495   0.486   0.640   0.270
 2103HOH     H2 6496   0.498   0.664   0.419
 2104HOH      O 6497   2.121   2.454   1.279
 2104HOH     H1 6498   2.214   2.471   1.297
 2104HOH     H2 6499   2.105   2.367   1.317
 2105HOH      O 6500   1.329   1.403   3.052
 2105HOH     H1 6501   1.307   1.336   3.116
 2105HOH     H2 6502   1.390   1.360   2.992
 2106HOH      O 6503   1.841   0.538   1.351
 2106HOH     H1 6504   1.840   0.562   1.444
 2106HOH     H2 6505   1.844   0.442   1.351
 2107HOH      O 6506   3.767   0.844   0.658
 2107HOH     H1 6507   3.709   0.822   0.586
 2107HOH     H2 6508   3.817   0.764   0.674
 2108HOH      O 6509   1.514   2.842   2.961
 2108HOH     H1 6510   1.451   2.826   3.031
 2108HOH     H2 6511   1.481   2.920   2.916
 2109HOH      O 6512   3.782   1.233   3.209
 2109HOH     H1 6513   3.730   1.168   3.257
 2109HOH     H2 6514   3.851   1.182   3.167
 2110HOH      O 6515   1.163   0.752   2.420
 2110HOH     H1 6516   1.224   0.785   2.487
 2110HOH     H2 6517   1.108   0.827   2.400
 2111HOH      O 6518   0.317   2.317   3.624
 2111HOH     H1 6519   0.248   2.274   3.674
 2111HOH     H2 6520   0.398   2.288   3.665
   4.02731   4.02731   4.02731   0.00000   0.00000   0.00000   0.00000   0.00000   0.00000
