Generated with MDTraj, t= 23110.0
 6520
    1MOL     C1    1   0.780   3.777   3.555
    1MOL     C2    2   0.706   3.873   3.481
    1MOL     C3    3   0.715   3.880   3.336
    1MOL     C4    4   0.810   3.801   3.279
    1MOL     C5    5   0.885   3.706   3.353
    1MOL     C6    6   0.874   3.702   3.489
    1MOL     C7    7   0.637   3.972   3.262
    1MOL     N1    8   0.562   4.041   3.210
    1MOL     C8    9   0.964   3.612   3.567
    1MOL     O1   10   0.946   3.606   3.688
    1MOL     O2   11   1.047   3.540   3.508
    1MOL     H1   12   0.769   3.768   3.662
    1MOL     H2   13   0.644   3.938   3.543
    1MOL     H3   14   0.822   3.806   3.171
    1MOL     H4   15   0.958   3.639   3.307
    2OCB     C1   16  -0.024   0.275   2.082
    2OCB     C2   17  -0.043   0.439   2.318
    2OCB     C3   18  -0.004   0.414   2.081
    2OCB     C4   19  -0.044   0.220   2.210
    2OCB     C5   20  -0.046   0.298   2.328
    2OCB     C6   21  -0.026   0.495   2.193
    2OCB     O1   22  -0.046   0.520   2.428
    2OCB     C7   23  -0.012   0.648   2.183
    2OCB     C8   24   0.088   0.555   2.472
    2OCB     O2   25   0.104   0.696   2.437
    2OCB     C9   26   0.180   0.722   2.330
    2OCB    C10   27   0.131   0.695   2.200
    2OCB    C11   28   0.209   0.725   2.086
    2OCB    C12   29   0.315   0.758   2.346
    2OCB    C13   30   0.353   0.750   2.103
    2OCB    C14   31   0.397   0.779   2.236
    2OCB     O3   32   0.533   0.812   2.256
    2OCB    C15   33   0.446   0.773   1.986
    2OCB    C16   34   0.518   0.636   1.970
    2OCB    C17   35   0.643   0.607   2.024
    2OCB    C18   36   0.630   0.703   2.247
    2OCB     O4   37   0.694   0.693   2.116
    2OCB     O5   38  -0.045   0.080   2.221
    2OCB    C19   39  -0.007   0.194   1.952
    2OCB    C20   40   0.140   0.159   1.947
    2OCB     O6   41   0.126  -0.025   2.098
    2OCB    C21   42   0.199   0.059   2.019
    2OCB    C22   43   0.704   0.485   2.002
    2OCB    C23   44   0.652   0.390   1.919
    2OCB    C24   45   0.333   0.033   2.014
    2OCB    C25   46   0.414   0.118   1.939
    2OCB     O7   47   0.706   0.263   1.913
    2OCB     O8   48   0.546   0.089   1.926
    2OCB    C26   49   0.640   0.170   2.000
    2OCB    C27   50   0.223   0.242   1.870
    2OCB    C28   51   0.362   0.224   1.867
    2OCB    C29   52   0.461   0.539   1.883
    2OCB    C30   53   0.453   0.304   1.778
    2OCB    C31   54   0.523   0.413   1.864
    2OCB    C32   55   0.090   0.017   2.225
    2OCB    C33   56   0.388   0.834   1.857
    2OCB    C34   57   0.493   0.891   1.765
    2OCB    C35   58   0.426   0.987   1.661
    2OCB     O9   59   0.340   0.942   1.590
    2OCB    C36   60  -0.080   0.711   2.054
    2OCB    C37   61  -0.072   0.867   2.042
    2OCB    C38   62  -0.132   0.924   1.917
    2OCB    O10   63  -0.077   0.891   1.815
    2OCB    C39   64  -0.076   0.253   1.830
    2OCB    C40   65  -0.218   0.198   1.821
    2OCB    C41   66  -0.304   0.263   1.714
    2OCB    O11   67  -0.250   0.344   1.645
    2OCB    C42   68   0.390   0.356   1.642
    2OCB    C43   69   0.349   0.247   1.545
    2OCB    C44   70   0.296   0.323   1.416
    2OCB    O12   71   0.176   0.343   1.402
    2OCB    C45   72   0.110   0.532   2.624
    2OCB    C46   73   0.147   0.475   2.894
    2OCB    C47   74   0.183   0.620   2.705
    2OCB    C48   75   0.045   0.422   2.685
    2OCB    C49   76   0.058   0.395   2.819
    2OCB    C50   77   0.207   0.592   2.838
    2OCB    C51   78   0.101  -0.088   2.333
    2OCB    C52   79   0.160  -0.255   2.547
    2OCB    C53   80   0.209  -0.180   2.320
    2OCB    C54   81   0.020  -0.088   2.446
    2OCB    C55   82   0.056  -0.169   2.550
    2OCB    C56   83   0.237  -0.263   2.430
    2OCB    C57   84   0.743   0.089   2.081
    2OCB    C58   85   0.921  -0.051   2.251
    2OCB    C59   86   0.856   0.151   2.135
    2OCB    C60   87   0.714  -0.046   2.119
    2OCB    C61   88   0.804  -0.110   2.210
    2OCB    C62   89   0.946   0.079   2.217
    2OCB    C63   90   0.731   0.711   2.366
    2OCB    C64   91   0.893   0.683   2.599
    2OCB    C65   92   0.856   0.644   2.363
    2OCB    C66   93   0.692   0.766   2.492
    2OCB    C67   94   0.776   0.752   2.603
    2OCB    C68   95   0.934   0.632   2.482
    2OCB    O13   96  -0.019  -0.166   2.664
    2OCB    O14   97   0.774  -0.236   2.248
    2OCB    O15   98   1.072   0.129   2.264
    2OCB    O16   99   0.003   0.282   2.880
    2OCB    O17  100   0.291   0.679   2.913
    2OCB    O18  101   1.054   0.559   2.483
    2OCB    O19  102   0.737   0.804   2.724
    2OCB    C69  103   0.654  -0.310   2.242
    2OCB    C70  104   0.402  -0.413   2.208
    2OCB    C71  105   0.561  -0.305   2.343
    2OCB    C72  106   0.617  -0.366   2.120
    2OCB    C73  107   0.494  -0.422   2.105
    2OCB    C74  108   0.440  -0.364   2.332
    2OCB    O20  109   0.340  -0.352   2.422
    2OCB    C75  110  -0.065   0.179   2.809
    2OCB    C76  111  -0.212  -0.028   2.698
    2OCB    C77  112  -0.200   0.193   2.785
    2OCB    C78  113  -0.002   0.057   2.772
    2OCB    C79  114  -0.075  -0.054   2.724
    2OCB    C80  115  -0.277   0.091   2.732
    2OCB    C81  116   1.097   0.265   2.266
    2OCB    C82  117   1.150   0.537   2.265
    2OCB    C83  118   1.139   0.332   2.149
    2OCB    C84  119   1.072   0.340   2.380
    2OCB    C85  120   1.096   0.476   2.381
    2OCB    C86  121   1.175   0.466   2.146
    2OCB    C87  122   1.227   0.532   2.023
    2OCB    O21  123   1.220   0.658   2.025
    2OCB    C88  124   0.402   1.151   2.779
    2OCB    O22  125   0.325   1.196   2.858
    2OCB    C89  126  -0.418   0.111   2.691
    2OCB    O23  127  -0.479   0.013   2.647
    2OCB    O24  128   0.442   1.103   1.682
    2OCB    O25  129   0.381   0.382   1.345
    2OCB    O26  130  -0.407   0.212   1.682
    2OCB    C90  131   0.452  -0.485   1.977
    2OCB    O27  132   0.339  -0.528   1.959
    2OCB    O28  133   0.458   1.224   2.696
    2OCB    O29  134   1.283   0.466   1.935
    2OCB    O30  135   0.542  -0.528   1.906
    2OCB    O31  136  -0.474   0.224   2.712
    2OCB    O32  137  -0.225   0.998   1.924
    2OCB    C91  138   0.389   0.766   2.850
    2OCB    C92  139   0.566   0.958   2.743
    2OCB    C93  140   0.519   0.727   2.815
    2OCB    C94  141   0.349   0.900   2.838
    2OCB    C95  142   0.439   1.001   2.786
    2OCB    C96  143   0.607   0.827   2.761
    2OCB    C97  144   0.572   0.584   2.835
    2OCB    C98  145   0.151   0.054   2.789
    2OCB    C99  146   0.597  -0.236   2.474
    2OCB      C  147   0.995   0.272   2.496
    2OCB     H1  148   0.015   0.456   1.983
    2OCB     H2  149  -0.051   0.248   2.424
    2OCB     H3  150  -0.060   0.699   2.267
    2OCB     H4  151   0.168   0.507   2.414
    2OCB     H5  152   0.174   0.710   1.984
    2OCB     H6  153   0.353   0.776   2.446
    2OCB     H7  154   0.523   0.846   2.012
    2OCB     H8  155   0.575   0.609   2.259
    2OCB     H9  156  -0.060   0.099   1.967
    2OCB    H10  157   0.802   0.471   2.045
    2OCB    H11  158   0.381  -0.050   2.066
    2OCB    H12  159   0.584   0.230   2.073
    2OCB    H13  160   0.180   0.324   1.813
    2OCB    H14  161   0.361   0.554   1.842
    2OCB    H15  162   0.526   0.232   1.739
    2OCB    H16  163   0.167   0.088   2.257
    2OCB    H17  164   0.315   0.764   1.815
    2OCB    H18  165   0.330   0.919   1.893
    2OCB    H19  166   0.567   0.942   1.827
    2OCB    H20  167   0.543   0.806   1.719
    2OCB    H21  168  -0.187   0.687   2.049
    2OCB    H22  169  -0.040   0.667   1.963
    2OCB    H23  170  -0.128   0.905   2.128
    2OCB    H24  171   0.032   0.901   2.050
    2OCB    H25  172  -0.069   0.362   1.824
    2OCB    H26  173  -0.026   0.215   1.741
    2OCB    H27  174  -0.211   0.092   1.794
    2OCB    H28  175  -0.257   0.211   1.922
    2OCB    H29  176   0.314   0.431   1.664
    2OCB    H30  177   0.472   0.404   1.588
    2OCB    H31  178   0.428   0.183   1.506
    2OCB    H32  179   0.271   0.184   1.589
    2OCB    H33  180   0.163   0.461   3.001
    2OCB    H34  181   0.220   0.714   2.665
    2OCB    H35  182  -0.014   0.358   2.619
    2OCB    H36  183   0.186  -0.318   2.631
    2OCB    H37  184   0.256  -0.186   2.223
    2OCB    H38  185  -0.065  -0.021   2.460
    2OCB    H39  186   0.992  -0.100   2.316
    2OCB    H40  187   0.878   0.252   2.102
    2OCB    H41  188   0.627  -0.101   2.083
    2OCB    H42  189   0.944   0.660   2.692
    2OCB    H43  190   0.889   0.608   2.266
    2OCB    H44  191   0.597   0.817   2.498
    2OCB    H45  192   0.304  -0.456   2.191
    2OCB    H46  193   0.690  -0.373   2.040
    2OCB    H47  194  -0.265  -0.115   2.660
    2OCB    H48  195  -0.242   0.288   2.816
    2OCB    H49  196   1.179   0.642   2.271
    2OCB    H50  197   1.156   0.267   2.063
    2OCB    H51  198   0.639   1.028   2.703
    2OCB    H52  199   0.254   0.929   2.883
    2OCB    H53  200   0.514   0.515   2.773
    2OCB    H54  201   0.674   0.584   2.797
    2OCB    H55  202   0.561   0.562   2.942
    2OCB    H56  203   0.198   0.150   2.769
    2OCB    H57  204   0.169   0.031   2.894
    2OCB    H58  205   0.198  -0.022   2.726
    2OCB    H59  206   0.527  -0.156   2.499
    2OCB    H60  207   0.602  -0.314   2.550
    2OCB    H61  208   0.694  -0.190   2.459
    2OCB    H62  209   0.972   0.346   2.574
    2OCB    H63  210   0.894   0.250   2.463
    2OCB    H64  211   1.051   0.184   2.529
    3Na+    Na+  212   3.345   1.467   0.294
    4Na+    Na+  213   3.997   3.018   2.562
    5Na+    Na+  214   3.493   0.442   2.628
    6Na+    Na+  215   1.914   0.381   0.361
    7Na+    Na+  216   2.439   1.860   0.700
    8Na+    Na+  217   0.376   1.416   2.794
    9Na+    Na+  218   1.681   1.990   0.438
   10Na+    Na+  219   0.261   0.766   1.475
   11Na+    Na+  220   0.057   1.314   2.131
   12HOH      O  221   0.382   1.585   1.121
   12HOH     H1  222   0.409   1.639   1.047
   12HOH     H2  223   0.362   1.648   1.191
   13HOH      O  224   3.616   2.459   2.991
   13HOH     H1  225   3.606   2.510   3.072
   13HOH     H2  226   3.660   2.519   2.930
   14HOH      O  227   2.392   0.020   0.030
   14HOH     H1  228   2.472  -0.011  -0.013
   14HOH     H2  229   2.402  -0.007   0.121
   15HOH      O  230   1.671   2.594   0.979
   15HOH     H1  231   1.638   2.520   0.927
   15HOH     H2  232   1.594   2.625   1.027
   16HOH      O  233   1.271   3.189   0.242
   16HOH     H1  234   1.316   3.224   0.319
   16HOH     H2  235   1.211   3.123   0.277
   17HOH      O  236   1.648   0.764   0.959
   17HOH     H1  237   1.658   0.707   0.882
   17HOH     H2  238   1.618   0.705   1.028
   18HOH      O  239   0.168   3.741   3.685
   18HOH     H1  240   0.146   3.810   3.622
   18HOH     H2  241   0.227   3.683   3.637
   19HOH      O  242   4.020   1.270   2.602
   19HOH     H1  243   3.943   1.319   2.630
   19HOH     H2  244   3.984   1.194   2.556
   20HOH      O  245   3.841   2.844   0.925
   20HOH     H1  246   3.875   2.813   0.841
   20HOH     H2  247   3.878   2.782   0.989
   21HOH      O  248   3.986   1.706   2.984
   21HOH     H1  249   3.932   1.733   3.058
   21HOH     H2  250   3.946   1.624   2.955
   22HOH      O  251   0.658   3.776   0.816
   22HOH     H1  252   0.583   3.739   0.770
   22HOH     H2  253   0.725   3.707   0.811
   23HOH      O  254   1.765   3.038   0.868
   23HOH     H1  255   1.727   2.975   0.807
   23HOH     H2  256   1.690   3.071   0.918
   24HOH      O  257   1.186   3.842   1.811
   24HOH     H1  258   1.220   3.890   1.886
   24HOH     H2  259   1.099   3.878   1.796
   25HOH      O  260   4.022   0.206   0.374
   25HOH     H1  261   3.960   0.179   0.305
   25HOH     H2  262   3.968   0.213   0.452
   26HOH      O  263   1.508   0.253   2.693
   26HOH     H1  264   1.559   0.211   2.624
   26HOH     H2  265   1.424   0.274   2.653
   27HOH      O  266   3.741   0.970   0.827
   27HOH     H1  267   3.698   0.999   0.746
   27HOH     H2  268   3.825   0.936   0.798
   28HOH      O  269   1.577   3.133   3.815
   28HOH     H1  270   1.586   3.073   3.889
   28HOH     H2  271   1.507   3.192   3.840
   29HOH      O  272   0.409   3.671   0.761
   29HOH     H1  273   0.341   3.734   0.739
   29HOH     H2  274   0.370   3.616   0.828
   30HOH      O  275   0.831   1.855   1.308
   30HOH     H1  276   0.898   1.821   1.249
   30HOH     H2  277   0.777   1.779   1.329
   31HOH      O  278   0.504   1.842   1.618
   31HOH     H1  279   0.568   1.801   1.676
   31HOH     H2  280   0.556   1.901   1.564
   32HOH      O  281   2.682   0.491   3.358
   32HOH     H1  282   2.669   0.400   3.332
   32HOH     H2  283   2.636   0.542   3.292
   33HOH      O  284   1.681   0.803   2.846
   33HOH     H1  285   1.769   0.774   2.871
   33HOH     H2  286   1.625   0.771   2.916
   34HOH      O  287   1.868   0.297   0.827
   34HOH     H1  288   1.955   0.266   0.803
   34HOH     H2  289   1.878   0.329   0.917
   35HOH      O  290  -0.012   2.328   0.581
   35HOH     H1  291   0.065   2.355   0.532
   35HOH     H2  292  -0.043   2.249   0.535
   36HOH      O  293   1.552   4.029   3.335
   36HOH     H1  294   1.621   3.962   3.331
   36HOH     H2  295   1.542   4.046   3.429
   37HOH      O  296   1.831   1.334   0.307
   37HOH     H1  297   1.798   1.245   0.296
   37HOH     H2  298   1.800   1.382   0.230
   38HOH      O  299   3.616   0.075   0.520
   38HOH     H1  300   3.659  -0.002   0.558
   38HOH     H2  301   3.685   0.141   0.515
   39HOH      O  302   1.401   2.714   1.458
   39HOH     H1  303   1.390   2.662   1.378
   39HOH     H2  304   1.493   2.741   1.456
   40HOH      O  305   2.640   2.655   3.241
   40HOH     H1  306   2.714   2.635   3.184
   40HOH     H2  307   2.589   2.719   3.191
   41HOH      O  308   2.388   3.061   0.832
   41HOH     H1  309   2.340   3.142   0.847
   41HOH     H2  310   2.476   3.090   0.806
   42HOH      O  311   2.783   1.695   1.552
   42HOH     H1  312   2.715   1.706   1.619
   42HOH     H2  313   2.865   1.710   1.599
   43HOH      O  314   2.279   2.609   0.753
   43HOH     H1  315   2.220   2.666   0.802
   43HOH     H2  316   2.283   2.528   0.804
   44HOH      O  317   2.719   1.063   1.580
   44HOH     H1  318   2.706   0.969   1.591
   44HOH     H2  319   2.809   1.078   1.606
   45HOH      O  320   0.128   1.708   2.250
   45HOH     H1  321   0.100   1.621   2.221
   45HOH     H2  322   0.197   1.691   2.314
   46HOH      O  323   1.247   2.434   1.001
   46HOH     H1  324   1.208   2.513   1.037
   46HOH     H2  325   1.173   2.377   0.981
   47HOH      O  326   2.695   2.232   3.431
   47HOH     H1  327   2.689   2.222   3.336
   47HOH     H2  328   2.686   2.326   3.447
   48HOH      O  329   2.071   1.628   2.722
   48HOH     H1  330   2.004   1.697   2.720
   48HOH     H2  331   2.023   1.549   2.747
   49HOH      O  332   2.486   0.662   2.275
   49HOH     H1  333   2.573   0.630   2.300
   49HOH     H2  334   2.497   0.756   2.262
   50HOH      O  335   2.797   0.350   0.906
   50HOH     H1  336   2.880   0.341   0.954
   50HOH     H2  337   2.730   0.336   0.972
   51HOH      O  338   0.348   2.123   1.752
   51HOH     H1  339   0.433   2.113   1.795
   51HOH     H2  340   0.302   2.041   1.769
   52HOH      O  341   1.445   0.595   3.445
   52HOH     H1  342   1.404   0.599   3.531
   52HOH     H2  343   1.519   0.655   3.450
   53HOH      O  344   1.087   3.309   2.308
   53HOH     H1  345   1.004   3.346   2.280
   53HOH     H2  346   1.083   3.218   2.281
   54HOH      O  347   0.090   0.033   0.601
   54HOH     H1  348   0.157   0.067   0.541
   54HOH     H2  349   0.057   0.111   0.646
   55HOH      O  350   3.135   3.091   2.082
   55HOH     H1  351   3.187   3.058   2.009
   55HOH     H2  352   3.154   3.032   2.154
   56HOH      O  353   2.094   3.404   2.452
   56HOH     H1  354   2.161   3.353   2.497
   56HOH     H2  355   2.105   3.381   2.360
   57HOH      O  356   0.872   3.900   0.228
   57HOH     H1  357   0.822   3.944   0.297
   57HOH     H2  358   0.888   3.968   0.163
   58HOH      O  359   3.739   2.461   3.575
   58HOH     H1  360   3.666   2.519   3.596
   58HOH     H2  361   3.776   2.498   3.494
   59HOH      O  362   1.213   3.771   3.224
   59HOH     H1  363   1.165   3.838   3.272
   59HOH     H2  364   1.277   3.819   3.172
   60HOH      O  365   0.412   2.576   2.028
   60HOH     H1  366   0.444   2.503   2.081
   60HOH     H2  367   0.340   2.538   1.977
   61HOH      O  368   0.815   2.834   0.238
   61HOH     H1  369   0.823   2.840   0.143
   61HOH     H2  370   0.723   2.810   0.253
   62HOH      O  371   3.777   2.375   0.865
   62HOH     H1  372   3.828   2.456   0.856
   62HOH     H2  373   3.830   2.320   0.923
   63HOH      O  374   1.364   3.276   3.950
   63HOH     H1  375   1.318   3.329   3.885
   63HOH     H2  376   1.295   3.233   4.000
   64HOH      O  377   0.248   2.787   2.822
   64HOH     H1  378   0.261   2.703   2.865
   64HOH     H2  379   0.298   2.780   2.741
   65HOH      O  380   3.874   1.738   0.510
   65HOH     H1  381   3.929   1.790   0.568
   65HOH     H2  382   3.798   1.715   0.563
   66HOH      O  383   1.530   3.129   1.199
   66HOH     H1  384   1.577   3.054   1.163
   66HOH     H2  385   1.511   3.105   1.289
   67HOH      O  386   0.091   2.202   0.851
   67HOH     H1  387   0.177   2.243   0.863
   67HOH     H2  388   0.036   2.271   0.814
   68HOH      O  389   1.530   3.105   2.592
   68HOH     H1  390   1.601   3.077   2.651
   68HOH     H2  391   1.458   3.045   2.611
   69HOH      O  392   1.162   3.875   3.603
   69HOH     H1  393   1.128   3.893   3.691
   69HOH     H2  394   1.211   3.794   3.612
   70HOH      O  395   2.969   2.352   2.173
   70HOH     H1  396   2.952   2.299   2.252
   70HOH     H2  397   3.060   2.334   2.152
   71HOH      O  398   2.332   1.665   3.474
   71HOH     H1  399   2.402   1.683   3.411
   71HOH     H2  400   2.256   1.710   3.439
   72HOH      O  401   2.416   3.853   3.557
   72HOH     H1  402   2.510   3.843   3.546
   72HOH     H2  403   2.406   3.909   3.633
   73HOH      O  404   2.010   1.540   1.641
   73HOH     H1  405   1.949   1.600   1.683
   73HOH     H2  406   1.955   1.470   1.607
   74HOH      O  407   1.721   2.381   3.039
   74HOH     H1  408   1.781   2.400   2.967
   74HOH     H2  409   1.696   2.290   3.027
   75HOH      O  410   3.012   1.361   2.857
   75HOH     H1  411   3.103   1.337   2.843
   75HOH     H2  412   2.978   1.294   2.915
   76HOH      O  413   2.018   1.601   2.390
   76HOH     H1  414   2.081   1.631   2.455
   76HOH     H2  415   1.944   1.568   2.441
   77HOH      O  416   3.755   3.923   0.747
   77HOH     H1  417   3.778   3.849   0.804
   77HOH     H2  418   3.686   3.969   0.794
   78HOH      O  419   1.653   3.094   3.194
   78HOH     H1  420   1.563   3.091   3.226
   78HOH     H2  421   1.645   3.097   3.099
   79HOH      O  422   2.219   2.203   0.034
   79HOH     H1  423   2.138   2.172   0.075
   79HOH     H2  424   2.197   2.209  -0.059
   80HOH      O  425   3.899   0.873   0.501
   80HOH     H1  426   3.939   0.925   0.431
   80HOH     H2  427   3.940   0.904   0.581
   81HOH      O  428   1.833   0.206   2.187
   81HOH     H1  429   1.785   0.200   2.104
   81HOH     H2  430   1.808   0.127   2.235
   82HOH      O  431   0.368   3.634   3.454
   82HOH     H1  432   0.300   3.631   3.386
   82HOH     H2  433   0.446   3.600   3.412
   83HOH      O  434   2.049   1.009   3.341
   83HOH     H1  435   2.021   1.092   3.303
   83HOH     H2  436   2.074   1.031   3.431
   84HOH      O  437   3.438   0.855   1.583
   84HOH     H1  438   3.431   0.935   1.531
   84HOH     H2  439   3.524   0.862   1.625
   85HOH      O  440   2.705   2.089   2.405
   85HOH     H1  441   2.735   2.058   2.491
   85HOH     H2  442   2.720   2.183   2.407
   86HOH      O  443   0.044   0.471   1.136
   86HOH     H1  444   0.046   0.535   1.207
   86HOH     H2  445  -0.048   0.448   1.127
   87HOH      O  446   0.756   3.669   3.927
   87HOH     H1  447   0.829   3.684   3.868
   87HOH     H2  448   0.678   3.683   3.874
   88HOH      O  449   2.747   1.664   2.597
   88HOH     H1  450   2.740   1.635   2.688
   88HOH     H2  451   2.840   1.661   2.577
   89HOH      O  452   2.308   1.676   1.706
   89HOH     H1  453   2.228   1.727   1.694
   89HOH     H2  454   2.352   1.719   1.780
   90HOH      O  455   1.675   2.296   1.655
   90HOH     H1  456   1.646   2.299   1.747
   90HOH     H2  457   1.709   2.384   1.638
   91HOH      O  458   2.030   2.445   0.067
   91HOH     H1  459   2.044   2.532   0.032
   91HOH     H2  460   2.117   2.413   0.090
   92HOH      O  461   0.297   4.025   3.945
   92HOH     H1  462   0.214   3.979   3.957
   92HOH     H2  463   0.332   4.033   4.034
   93HOH      O  464   4.014   2.935   4.049
   93HOH     H1  465   4.004   3.022   4.010
   93HOH     H2  466   4.002   2.875   3.975
   94HOH      O  467   0.981   3.051   2.214
   94HOH     H1  468   0.953   3.061   2.305
   94HOH     H2  469   0.914   2.995   2.175
   95HOH      O  470   1.290   1.230   1.066
   95HOH     H1  471   1.200   1.202   1.053
   95HOH     H2  472   1.300   1.305   1.007
   96HOH      O  473   1.842   1.504   2.533
   96HOH     H1  474   1.773   1.537   2.590
   96HOH     H2  475   1.803   1.429   2.488
   97HOH      O  476   2.129   1.848   0.988
   97HOH     H1  477   2.223   1.859   1.002
   97HOH     H2  478   2.118   1.852   0.893
   98HOH      O  479   3.607   3.623   2.040
   98HOH     H1  480   3.581   3.651   1.952
   98HOH     H2  481   3.701   3.606   2.034
   99HOH      O  482   1.960   2.846   0.661
   99HOH     H1  483   1.877   2.836   0.616
   99HOH     H2  484   2.025   2.813   0.599
  100HOH      O  485   3.457   3.235   2.674
  100HOH     H1  486   3.421   3.319   2.647
  100HOH     H2  487   3.495   3.198   2.594
  101HOH      O  488   3.461   1.797   2.398
  101HOH     H1  489   3.400   1.747   2.343
  101HOH     H2  490   3.455   1.756   2.484
  102HOH      O  491   1.935   3.855   0.230
  102HOH     H1  492   2.014   3.808   0.204
  102HOH     H2  493   1.967   3.923   0.289
  103HOH      O  494   0.241   2.881   0.890
  103HOH     H1  495   0.193   2.826   0.827
  103HOH     H2  496   0.252   2.825   0.966
  104HOH      O  497   2.646   1.215   3.432
  104HOH     H1  498   2.575   1.152   3.416
  104HOH     H2  499   2.611   1.299   3.401
  105HOH      O  500   1.092   3.015   3.546
  105HOH     H1  501   1.062   3.104   3.527
  105HOH     H2  502   1.090   2.970   3.462
  106HOH      O  503   1.730   3.193   0.250
  106HOH     H1  504   1.729   3.199   0.346
  106HOH     H2  505   1.818   3.222   0.226
  107HOH      O  506   0.765   2.812   1.612
  107HOH     H1  507   0.826   2.819   1.539
  107HOH     H2  508   0.681   2.793   1.571
  108HOH      O  509   0.771   3.212   2.713
  108HOH     H1  510   0.806   3.279   2.654
  108HOH     H2  511   0.839   3.201   2.779
  109HOH      O  512   2.034   3.366   2.723
  109HOH     H1  513   2.000   3.373   2.634
  109HOH     H2  514   2.112   3.422   2.724
  110HOH      O  515   3.516   2.817   0.055
  110HOH     H1  516   3.469   2.741   0.022
  110HOH     H2  517   3.537   2.794   0.146
  111HOH      O  518   3.963   1.495   2.217
  111HOH     H1  519   3.884   1.527   2.175
  111HOH     H2  520   3.948   1.507   2.311
  112HOH      O  521   2.578   2.539   0.736
  112HOH     H1  522   2.589   2.471   0.669
  112HOH     H2  523   2.485   2.559   0.734
  113HOH      O  524   3.140   2.919   1.134
  113HOH     H1  525   3.044   2.918   1.141
  113HOH     H2  526   3.165   3.005   1.169
  114HOH      O  527   1.306   3.644   2.283
  114HOH     H1  528   1.226   3.627   2.233
  114HOH     H2  529   1.375   3.604   2.230
  115HOH      O  530   1.955   2.450   0.415
  115HOH     H1  531   1.899   2.430   0.340
  115HOH     H2  532   1.897   2.439   0.491
  116HOH      O  533   1.261   1.939   2.825
  116HOH     H1  534   1.235   2.027   2.800
  116HOH     H2  535   1.217   1.882   2.762
  117HOH      O  536   3.219   0.133   1.341
  117HOH     H1  537   3.241   0.221   1.312
  117HOH     H2  538   3.181   0.091   1.264
  118HOH      O  539   0.851   0.793   0.301
  118HOH     H1  540   0.923   0.820   0.244
  118HOH     H2  541   0.772   0.809   0.249
  119HOH      O  542   0.229   3.049   2.973
  119HOH     H1  543   0.299   3.039   3.037
  119HOH     H2  544   0.240   2.975   2.913
  120HOH      O  545   0.842   1.570   2.546
  120HOH     H1  546   0.777   1.499   2.549
  120HOH     H2  547   0.796   1.645   2.585
  121HOH      O  548   1.425   3.216   0.471
  121HOH     H1  549   1.378   3.272   0.533
  121HOH     H2  550   1.513   3.253   0.468
  122HOH      O  551   2.356   3.577   2.125
  122HOH     H1  552   2.382   3.516   2.193
  122HOH     H2  553   2.263   3.558   2.110
  123HOH      O  554   2.598   2.631   0.024
  123HOH     H1  555   2.648   2.584   0.091
  123HOH     H2  556   2.515   2.584   0.018
  124HOH      O  557   3.328   2.262   0.224
  124HOH     H1  558   3.323   2.168   0.203
  124HOH     H2  559   3.393   2.297   0.163
  125HOH      O  560   2.023   0.591   0.282
  125HOH     H1  561   2.010   0.670   0.333
  125HOH     H2  562   2.066   0.621   0.202
  126HOH      O  563   0.587   2.563   1.526
  126HOH     H1  564   0.507   2.561   1.473
  126HOH     H2  565   0.587   2.479   1.572
  127HOH      O  566   1.012   3.820   0.903
  127HOH     H1  567   0.971   3.867   0.830
  127HOH     H2  568   1.091   3.870   0.922
  128HOH      O  569   3.580   0.289   2.311
  128HOH     H1  570   3.588   0.316   2.402
  128HOH     H2  571   3.575   0.193   2.314
  129HOH      O  572   0.943   2.386   3.856
  129HOH     H1  573   0.953   2.293   3.875
  129HOH     H2  574   1.025   2.411   3.814
  130HOH      O  575   1.425   1.989   0.790
  130HOH     H1  576   1.485   1.960   0.859
  130HOH     H2  577   1.397   2.076   0.818
  131HOH      O  578   3.632   1.451   2.524
  131HOH     H1  579   3.564   1.504   2.565
  131HOH     H2  580   3.592   1.364   2.516
  132HOH      O  581   0.619   2.271   2.709
  132HOH     H1  582   0.597   2.325   2.786
  132HOH     H2  583   0.663   2.331   2.650
  133HOH      O  584   1.296   2.643   1.995
  133HOH     H1  585   1.335   2.662   1.910
  133HOH     H2  586   1.323   2.716   2.051
  134HOH      O  587   1.879   1.531   1.328
  134HOH     H1  588   1.881   1.621   1.362
  134HOH     H2  589   1.870   1.477   1.406
  135HOH      O  590   2.450   0.989   0.052
  135HOH     H1  591   2.507   0.954   0.121
  135HOH     H2  592   2.423   1.074   0.085
  136HOH      O  593   0.652   3.340   2.191
  136HOH     H1  594   0.728   3.397   2.180
  136HOH     H2  595   0.634   3.307   2.103
  137HOH      O  596   0.932   0.040   3.587
  137HOH     H1  597   0.975  -0.044   3.602
  137HOH     H2  598   0.958   0.066   3.499
  138HOH      O  599   0.860   1.270   3.548
  138HOH     H1  600   0.875   1.262   3.454
  138HOH     H2  601   0.874   1.363   3.567
  139HOH      O  602   1.032   0.308   0.125
  139HOH     H1  603   1.002   0.220   0.101
  139HOH     H2  604   1.095   0.331   0.057
  140HOH      O  605   3.751   2.079   3.967
  140HOH     H1  606   3.678   2.134   3.941
  140HOH     H2  607   3.714   2.019   4.033
  141HOH      O  608   1.322   2.416   3.707
  141HOH     H1  609   1.388   2.449   3.647
  141HOH     H2  610   1.370   2.394   3.787
  142HOH      O  611   0.023   2.971   2.007
  142HOH     H1  612   0.059   2.917   2.078
  142HOH     H2  613   0.086   2.961   1.935
  143HOH      O  614   2.019   0.948   0.003
  143HOH     H1  615   2.065   0.868   0.025
  143HOH     H2  616   2.048   1.012   0.068
  144HOH      O  617   3.498   2.749   1.807
  144HOH     H1  618   3.488   2.844   1.800
  144HOH     H2  619   3.471   2.716   1.721
  145HOH      O  620   1.296   1.115   2.780
  145HOH     H1  621   1.336   1.151   2.701
  145HOH     H2  622   1.253   1.034   2.751
  146HOH      O  623   0.831   0.380   2.853
  146HOH     H1  624   0.832   0.472   2.878
  146HOH     H2  625   0.765   0.341   2.911
  147HOH      O  626   0.206   2.255   0.181
  147HOH     H1  627   0.172   2.169   0.207
  147HOH     H2  628   0.138   2.291   0.125
  148HOH      O  629   3.976   2.656   3.030
  148HOH     H1  630   3.899   2.707   3.003
  148HOH     H2  631   4.026   2.717   3.084
  149HOH      O  632   2.144   1.154   1.114
  149HOH     H1  633   2.111   1.244   1.102
  149HOH     H2  634   2.238   1.165   1.127
  150HOH      O  635   0.172   2.397   3.724
  150HOH     H1  636   0.111   2.337   3.767
  150HOH     H2  637   0.166   2.477   3.774
  151HOH      O  638   3.674   1.213   2.991
  151HOH     H1  639   3.588   1.199   2.952
  151HOH     H2  640   3.716   1.126   2.989
  152HOH      O  641   1.159   3.443   1.957
  152HOH     H1  642   1.089   3.381   1.979
  152HOH     H2  643   1.127   3.527   1.992
  153HOH      O  644   3.028   3.355   1.323
  153HOH     H1  645   2.984   3.382   1.243
  153HOH     H2  646   3.006   3.422   1.387
  154HOH      O  647   2.868   1.145   1.314
  154HOH     H1  648   2.956   1.108   1.323
  154HOH     H2  649   2.823   1.120   1.394
  155HOH      O  650   3.885   3.885   0.508
  155HOH     H1  651   3.850   3.903   0.595
  155HOH     H2  652   3.959   3.944   0.498
  156HOH      O  653   2.983   1.133   1.595
  156HOH     H1  654   3.056   1.108   1.539
  156HOH     H2  655   3.022   1.192   1.660
  157HOH      O  656   2.093   3.221   2.195
  157HOH     H1  657   2.012   3.218   2.145
  157HOH     H2  658   2.159   3.186   2.135
  158HOH      O  659   2.758   1.947   4.013
  158HOH     H1  660   2.718   1.864   3.989
  158HOH     H2  661   2.784   1.985   3.929
  159HOH      O  662   3.888   1.020   2.951
  159HOH     H1  663   3.917   1.002   3.040
  159HOH     H2  664   3.962   1.066   2.910
  160HOH      O  665   3.192   0.175   1.057
  160HOH     H1  666   3.284   0.190   1.032
  160HOH     H2  667   3.147   0.256   1.032
  161HOH      O  668   2.527   3.054   1.148
  161HOH     H1  669   2.464   3.123   1.125
  161HOH     H2  670   2.609   3.101   1.161
  162HOH      O  671   2.967   0.770   1.289
  162HOH     H1  672   2.900   0.802   1.228
  162HOH     H2  673   2.969   0.675   1.274
  163HOH      O  674   2.049   3.551   1.657
  163HOH     H1  675   2.108   3.626   1.662
  163HOH     H2  676   2.105   3.478   1.631
  164HOH      O  677   3.635   0.743   3.835
  164HOH     H1  678   3.612   0.836   3.827
  164HOH     H2  679   3.568   0.708   3.894
  165HOH      O  680   1.310   0.567   0.061
  165HOH     H1  681   1.343   0.640   0.009
  165HOH     H2  682   1.215   0.570   0.050
  166HOH      O  683   1.812   1.981   0.841
  166HOH     H1  684   1.783   2.040   0.771
  166HOH     H2  685   1.831   1.898   0.797
  167HOH      O  686   3.366   0.046   0.759
  167HOH     H1  687   3.386   0.112   0.825
  167HOH     H2  688   3.341  -0.031   0.810
  168HOH      O  689   3.294   0.815   2.804
  168HOH     H1  690   3.243   0.781   2.877
  168HOH     H2  691   3.361   0.748   2.788
  169HOH      O  692   3.497   2.063   0.765
  169HOH     H1  693   3.428   2.108   0.814
  169HOH     H2  694   3.494   2.103   0.678
  170HOH      O  695   3.253   1.163   3.835
  170HOH     H1  696   3.200   1.154   3.756
  170HOH     H2  697   3.189   1.171   3.905
  171HOH      O  698   3.902   2.645   1.111
  171HOH     H1  699   3.938   2.559   1.132
  171HOH     H2  700   3.810   2.639   1.139
  172HOH      O  701   0.923   3.366   3.799
  172HOH     H1  702   0.935   3.455   3.766
  172HOH     H2  703   0.896   3.378   3.890
  173HOH      O  704   3.168   2.513   2.761
  173HOH     H1  705   3.097   2.473   2.810
  173HOH     H2  706   3.131   2.528   2.674
  174HOH      O  707   0.996   3.682   2.915
  174HOH     H1  708   0.977   3.773   2.938
  174HOH     H2  709   1.084   3.666   2.950
  175HOH      O  710   3.499   2.650   2.655
  175HOH     H1  711   3.550   2.608   2.724
  175HOH     H2  712   3.443   2.580   2.621
  176HOH      O  713   0.589   2.048   0.282
  176HOH     H1  714   0.537   2.095   0.217
  176HOH     H2  715   0.589   2.106   0.358
  177HOH      O  716   1.452   1.722   1.653
  177HOH     H1  717   1.370   1.770   1.667
  177HOH     H2  718   1.511   1.786   1.614
  178HOH      O  719   0.477   3.369   1.072
  178HOH     H1  720   0.418   3.444   1.082
  178HOH     H2  721   0.420   3.295   1.057
  179HOH      O  722   1.351   2.545   0.379
  179HOH     H1  723   1.315   2.623   0.421
  179HOH     H2  724   1.306   2.540   0.295
  180HOH      O  725   0.830   3.454   1.787
  180HOH     H1  726   0.848   3.409   1.870
  180HOH     H2  727   0.738   3.437   1.770
  181HOH      O  728   0.720   0.206   3.628
  181HOH     H1  729   0.807   0.166   3.626
  181HOH     H2  730   0.663   0.137   3.662
  182HOH      O  731   0.820   0.034   0.996
  182HOH     H1  732   0.819  -0.055   0.960
  182HOH     H2  733   0.789   0.023   1.086
  183HOH      O  734   3.141   2.882   0.809
  183HOH     H1  735   3.153   2.951   0.875
  183HOH     H2  736   3.186   2.915   0.731
  184HOH      O  737   2.104   1.054   2.778
  184HOH     H1  738   2.152   0.979   2.812
  184HOH     H2  739   2.062   1.021   2.698
  185HOH      O  740   1.771   3.884   3.358
  185HOH     H1  741   1.796   3.797   3.326
  185HOH     H2  742   1.777   3.878   3.453
  186HOH      O  743   3.594   2.603   3.240
  186HOH     H1  744   3.647   2.650   3.305
  186HOH     H2  745   3.513   2.581   3.287
  187HOH      O  746   2.203   2.507   2.965
  187HOH     H1  747   2.270   2.520   3.032
  187HOH     H2  748   2.137   2.451   3.007
  188HOH      O  749   1.767   0.137   1.907
  188HOH     H1  750   1.686   0.169   1.866
  188HOH     H2  751   1.789   0.058   1.858
  189HOH      O  752   1.112   3.690   2.096
  189HOH     H1  753   1.040   3.690   2.034
  189HOH     H2  754   1.142   3.781   2.097
  190HOH      O  755   2.005   2.404   3.144
  190HOH     H1  756   1.985   2.420   3.236
  190HOH     H2  757   1.924   2.368   3.108
  191HOH      O  758   1.158   2.027   0.731
  191HOH     H1  759   1.085   1.986   0.683
  191HOH     H2  760   1.220   1.956   0.746
  192HOH      O  761   1.942   0.570   1.020
  192HOH     H1  762   1.962   0.654   0.980
  192HOH     H2  763   2.010   0.510   0.988
  193HOH      O  764   1.576   0.968   3.689
  193HOH     H1  765   1.634   1.004   3.622
  193HOH     H2  766   1.531   1.044   3.726
  194HOH      O  767   1.622   2.194   3.962
  194HOH     H1  768   1.581   2.116   3.924
  194HOH     H2  769   1.701   2.207   3.910
  195HOH      O  770   3.323   2.263   3.488
  195HOH     H1  771   3.253   2.282   3.550
  195HOH     H2  772   3.294   2.184   3.442
  196HOH      O  773   1.759   1.206   2.434
  196HOH     H1  774   1.699   1.144   2.474
  196HOH     H2  775   1.725   1.221   2.346
  197HOH      O  776   0.909   1.696   3.120
  197HOH     H1  777   0.860   1.621   3.087
  197HOH     H2  778   0.980   1.709   3.057
  198HOH      O  779   2.975   0.392   0.421
  198HOH     H1  780   2.897   0.445   0.436
  198HOH     H2  781   3.037   0.453   0.380
  199HOH      O  782   3.508   2.134   3.868
  199HOH     H1  783   3.475   2.044   3.860
  199HOH     H2  784   3.532   2.158   3.779
  200HOH      O  785   1.991   0.029   1.109
  200HOH     H1  786   2.071   0.077   1.090
  200HOH     H2  787   1.943   0.085   1.169
  201HOH      O  788   0.184   1.178   0.918
  201HOH     H1  789   0.206   1.233   0.993
  201HOH     H2  790   0.126   1.110   0.953
  202HOH      O  791   1.469   2.436   3.956
  202HOH     H1  792   1.400   2.431   4.021
  202HOH     H2  793   1.534   2.371   3.985
  203HOH      O  794   1.557   0.443   0.055
  203HOH     H1  795   1.481   0.498   0.075
  203HOH     H2  796   1.525   0.353   0.062
  204HOH      O  797   3.279   1.881   1.683
  204HOH     H1  798   3.290   1.966   1.640
  204HOH     H2  799   3.344   1.825   1.643
  205HOH      O  800   2.922   2.374   0.517
  205HOH     H1  801   2.946   2.437   0.586
  205HOH     H2  802   3.005   2.338   0.488
  206HOH      O  803   3.890   1.258   3.520
  206HOH     H1  804   3.796   1.276   3.515
  206HOH     H2  805   3.926   1.299   3.442
  207HOH      O  806   2.674   2.704   3.810
  207HOH     H1  807   2.654   2.679   3.900
  207HOH     H2  808   2.769   2.718   3.809
  208HOH      O  809   1.869   1.674   2.098
  208HOH     H1  810   1.956   1.665   2.137
  208HOH     H2  811   1.809   1.639   2.164
  209HOH      O  812   2.676   2.600   0.333
  209HOH     H1  813   2.655   2.527   0.392
  209HOH     H2  814   2.593   2.647   0.324
  210HOH      O  815   3.566   2.763   0.812
  210HOH     H1  816   3.644   2.735   0.861
  210HOH     H2  817   3.513   2.684   0.804
  211HOH      O  818   2.931   3.666   0.092
  211HOH     H1  819   2.913   3.665   0.187
  211HOH     H2  820   2.885   3.590   0.058
  212HOH      O  821   2.661   3.371   0.196
  212HOH     H1  822   2.755   3.354   0.193
  212HOH     H2  823   2.621   3.284   0.198
  213HOH      O  824   2.825   1.402   0.854
  213HOH     H1  825   2.903   1.407   0.799
  213HOH     H2  826   2.854   1.435   0.939
  214HOH      O  827   3.101   0.594   2.920
  214HOH     H1  828   3.144   0.601   3.006
  214HOH     H2  829   3.009   0.610   2.939
  215HOH      O  830   1.779   2.459   2.323
  215HOH     H1  831   1.815   2.401   2.256
  215HOH     H2  832   1.851   2.474   2.383
  216HOH      O  833   0.074   3.361   3.250
  216HOH     H1  834   0.091   3.455   3.254
  216HOH     H2  835   0.159   3.323   3.231
  217HOH      O  836   0.518   0.409   0.361
  217HOH     H1  837   0.472   0.377   0.284
  217HOH     H2  838   0.512   0.505   0.355
  218HOH      O  839   3.813   0.799   2.481
  218HOH     H1  840   3.808   0.736   2.553
  218HOH     H2  841   3.750   0.767   2.417
  219HOH      O  842   0.930   0.724   3.286
  219HOH     H1  843   0.913   0.716   3.380
  219HOH     H2  844   1.005   0.667   3.270
  220HOH      O  845   0.004   1.073   0.312
  220HOH     H1  846   0.057   1.132   0.258
  220HOH     H2  847   0.020   1.102   0.402
  221HOH      O  848   1.380   1.676   0.615
  221HOH     H1  849   1.458   1.724   0.641
  221HOH     H2  850   1.387   1.667   0.520
  222HOH      O  851   0.758   2.327   1.952
  222HOH     H1  852   0.751   2.325   2.048
  222HOH     H2  853   0.780   2.418   1.932
  223HOH      O  854   1.381   2.340   1.468
  223HOH     H1  855   1.406   2.250   1.491
  223HOH     H2  856   1.342   2.375   1.547
  224HOH      O  857   3.390   3.132   2.924
  224HOH     H1  858   3.421   3.134   2.834
  224HOH     H2  859   3.408   3.219   2.958
  225HOH      O  860   3.785   2.886   1.526
  225HOH     H1  861   3.857   2.830   1.495
  225HOH     H2  862   3.824   2.941   1.594
  226HOH      O  863   2.633   0.765   1.295
  226HOH     H1  864   2.560   0.725   1.248
  226HOH     H2  865   2.655   0.843   1.245
  227HOH      O  866   3.369   2.750   1.091
  227HOH     H1  867   3.418   2.827   1.119
  227HOH     H2  868   3.277   2.774   1.104
  228HOH      O  869   0.839   1.099   1.244
  228HOH     H1  870   0.880   1.013   1.254
  228HOH     H2  871   0.822   1.107   1.151
  229HOH      O  872   3.032   1.610   2.057
  229HOH     H1  873   3.023   1.594   2.150
  229HOH     H2  874   2.946   1.592   2.020
  230HOH      O  875   1.695   2.951   2.758
  230HOH     H1  876   1.709   2.871   2.707
  230HOH     H2  877   1.781   2.970   2.796
  231HOH      O  878   1.499   1.342   3.414
  231HOH     H1  879   1.423   1.285   3.423
  231HOH     H2  880   1.468   1.416   3.363
  232HOH      O  881   0.786   1.544   1.941
  232HOH     H1  882   0.835   1.619   1.972
  232HOH     H2  883   0.821   1.470   1.991
  233HOH      O  884   2.673   1.093   3.706
  233HOH     H1  885   2.718   1.164   3.659
  233HOH     H2  886   2.607   1.138   3.758
  234HOH      O  887   0.486   1.230   1.440
  234HOH     H1  888   0.463   1.171   1.512
  234HOH     H2  889   0.440   1.193   1.364
  235HOH      O  890   1.610   2.167   2.292
  235HOH     H1  891   1.679   2.158   2.227
  235HOH     H2  892   1.581   2.258   2.284
  236HOH      O  893   1.799   1.937   2.682
  236HOH     H1  894   1.769   1.912   2.594
  236HOH     H2  895   1.837   2.024   2.670
  237HOH      O  896   0.638   1.584   0.558
  237HOH     H1  897   0.682   1.517   0.504
  237HOH     H2  898   0.611   1.650   0.495
  238HOH      O  899   1.675   1.498   3.210
  238HOH     H1  900   1.619   1.425   3.182
  238HOH     H2  901   1.736   1.510   3.137
  239HOH      O  902   3.798   2.377   0.176
  239HOH     H1  903   3.864   2.307   0.184
  239HOH     H2  904   3.785   2.408   0.265
  240HOH      O  905   1.698   1.209   3.077
  240HOH     H1  906   1.614   1.164   3.077
  240HOH     H2  907   1.736   1.189   2.991
  241HOH      O  908   0.957   2.838   1.428
  241HOH     H1  909   0.989   2.753   1.397
  241HOH     H2  910   1.017   2.902   1.390
  242HOH      O  911   1.895   2.051   3.186
  242HOH     H1  912   1.988   2.073   3.197
  242HOH     H2  913   1.868   2.101   3.109
  243HOH      O  914   0.052   3.972   0.291
  243HOH     H1  915   0.059   4.049   0.348
  243HOH     H2  916   0.008   4.005   0.213
  244HOH      O  917   1.603   3.704   3.922
  244HOH     H1  918   1.651   3.674   3.845
  244HOH     H2  919   1.601   3.628   3.980
  245HOH      O  920   0.390   1.929   2.710
  245HOH     H1  921   0.380   2.008   2.764
  245HOH     H2  922   0.365   1.957   2.622
  246HOH      O  923   0.957   1.258   3.262
  246HOH     H1  924   1.041   1.213   3.256
  246HOH     H2  925   0.913   1.238   3.179
  247HOH      O  926   0.525   0.409   3.720
  247HOH     H1  927   0.473   0.431   3.798
  247HOH     H2  928   0.579   0.335   3.748
  248HOH      O  929   0.891   0.506   0.361
  248HOH     H1  930   0.980   0.476   0.347
  248HOH     H2  931   0.895   0.601   0.352
  249HOH      O  932   1.659   3.022   0.023
  249HOH     H1  933   1.659   3.098   0.082
  249HOH     H2  934   1.572   2.983   0.035
  250HOH      O  935   3.769   3.184   1.468
  250HOH     H1  936   3.813   3.099   1.472
  250HOH     H2  937   3.837   3.245   1.442
  251HOH      O  938   0.705   0.615   1.615
  251HOH     H1  939   0.691   0.597   1.708
  251HOH     H2  940   0.772   0.684   1.614
  252HOH      O  941   2.006   3.074   3.504
  252HOH     H1  942   2.022   3.014   3.577
  252HOH     H2  943   1.912   3.094   3.509
  253HOH      O  944   3.760   3.567   0.092
  253HOH     H1  945   3.834   3.573   0.152
  253HOH     H2  946   3.698   3.509   0.137
  254HOH      O  947   1.363   3.746   1.267
  254HOH     H1  948   1.379   3.824   1.213
  254HOH     H2  949   1.310   3.778   1.340
  255HOH      O  950   3.349   2.329   0.582
  255HOH     H1  951   3.414   2.272   0.541
  255HOH     H2  952   3.269   2.313   0.532
  256HOH      O  953   2.374   0.921   0.938
  256HOH     H1  954   2.394   0.942   0.847
  256HOH     H2  955   2.408   0.994   0.989
  257HOH      O  956   0.255   2.998   3.512
  257HOH     H1  957   0.322   3.045   3.463
  257HOH     H2  958   0.272   2.906   3.494
  258HOH      O  959   2.916   1.221   2.337
  258HOH     H1  960   2.824   1.237   2.361
  258HOH     H2  961   2.912   1.190   2.247
  259HOH      O  962   3.118   1.026   3.364
  259HOH     H1  963   3.118   1.037   3.269
  259HOH     H2  964   3.169   0.947   3.380
  260HOH      O  965   1.902   1.186   1.842
  260HOH     H1  966   1.943   1.135   1.773
  260HOH     H2  967   1.904   1.129   1.919
  261HOH      O  968   2.588   1.876   2.274
  261HOH     H1  969   2.521   1.928   2.229
  261HOH     H2  970   2.634   1.939   2.329
  262HOH      O  971   2.115   2.239   2.370
  262HOH     H1  972   2.073   2.169   2.419
  262HOH     H2  973   2.173   2.194   2.308
  263HOH      O  974   2.305   2.027   1.693
  263HOH     H1  975   2.300   2.084   1.769
  263HOH     H2  976   2.228   1.970   1.701
  264HOH      O  977   1.125   3.400   0.170
  264HOH     H1  978   1.209   3.443   0.149
  264HOH     H2  979   1.150   3.320   0.215
  265HOH      O  980   1.864   0.067   3.230
  265HOH     H1  981   1.825  -0.011   3.269
  265HOH     H2  982   1.838   0.139   3.287
  266HOH      O  983   2.102   0.869   0.671
  266HOH     H1  984   2.047   0.943   0.697
  266HOH     H2  985   2.153   0.849   0.749
  267HOH      O  986   1.461   1.282   1.686
  267HOH     H1  987   1.551   1.314   1.699
  267HOH     H2  988   1.466   1.230   1.607
  268HOH      O  989   2.425   0.043   3.297
  268HOH     H1  990   2.431  -0.025   3.365
  268HOH     H2  991   2.332   0.046   3.275
  269HOH      O  992   1.577   3.505   2.875
  269HOH     H1  993   1.494   3.513   2.922
  269HOH     H2  994   1.575   3.575   2.809
  270HOH      O  995   0.774   2.678   3.293
  270HOH     H1  996   0.867   2.690   3.312
  270HOH     H2  997   0.753   2.591   3.327
  271HOH      O  998   1.522   0.046   0.698
  271HOH     H1  999   1.512   0.049   0.793
  271HOH     H2 1000   1.541   0.137   0.673
  272HOH      O 1001   3.818   2.689   1.745
  272HOH     H1 1002   3.858   2.685   1.832
  272HOH     H2 1003   3.727   2.713   1.763
  273HOH      O 1004   2.015   3.129   2.475
  273HOH     H1 1005   2.090   3.079   2.507
  273HOH     H2 1006   2.042   3.162   2.389
  274HOH      O 1007   0.557   3.125   0.412
  274HOH     H1 1008   0.632   3.148   0.357
  274HOH     H2 1009   0.487   3.183   0.382
  275HOH      O 1010   1.244   3.725   1.521
  275HOH     H1 1011   1.252   3.803   1.576
  275HOH     H2 1012   1.235   3.653   1.583
  276HOH      O 1013   0.656   0.434   1.115
  276HOH     H1 1014   0.621   0.514   1.075
  276HOH     H2 1015   0.700   0.389   1.042
  277HOH      O 1016   3.755   2.125   0.684
  277HOH     H1 1017   3.679   2.092   0.732
  277HOH     H2 1018   3.772   2.211   0.721
  278HOH      O 1019   2.652   2.443   1.400
  278HOH     H1 1020   2.601   2.363   1.391
  278HOH     H2 1021   2.673   2.448   1.494
  279HOH      O 1022   2.689   3.885   1.589
  279HOH     H1 1023   2.667   3.969   1.629
  279HOH     H2 1024   2.708   3.828   1.663
  280HOH      O 1025   1.604   0.309   0.715
  280HOH     H1 1026   1.598   0.365   0.638
  280HOH     H2 1027   1.687   0.334   0.757
  281HOH      O 1028   3.363   1.425   3.725
  281HOH     H1 1029   3.458   1.422   3.713
  281HOH     H2 1030   3.333   1.339   3.696
  282HOH      O 1031   2.319   3.520   3.326
  282HOH     H1 1032   2.234   3.476   3.326
  282HOH     H2 1033   2.297   3.613   3.337
  283HOH      O 1034   2.337   2.168   1.920
  283HOH     H1 1035   2.346   2.264   1.922
  283HOH     H2 1036   2.413   2.136   1.968
  284HOH      O 1037   3.037   0.400   1.028
  284HOH     H1 1038   3.088   0.430   1.103
  284HOH     H2 1039   3.060   0.460   0.958
  285HOH      O 1040   2.101   0.600   4.028
  285HOH     H1 1041   2.115   0.609   3.934
  285HOH     H2 1042   2.083   0.506   4.041
  286HOH      O 1043   1.925   2.065   0.494
  286HOH     H1 1044   1.984   2.141   0.492
  286HOH     H2 1045   1.983   1.990   0.485
  287HOH      O 1046   2.257   0.623   3.176
  287HOH     H1 1047   2.281   0.654   3.088
  287HOH     H2 1048   2.341   0.606   3.219
  288HOH      O 1049   1.207   1.987   3.763
  288HOH     H1 1050   1.269   2.002   3.692
  288HOH     H2 1051   1.262   1.974   3.840
  289HOH      O 1052   1.885   0.280   2.628
  289HOH     H1 1053   1.964   0.255   2.581
  289HOH     H2 1054   1.906   0.266   2.720
  290HOH      O 1055   2.675   3.570   0.600
  290HOH     H1 1056   2.660   3.552   0.693
  290HOH     H2 1057   2.621   3.647   0.582
  291HOH      O 1058   1.575   0.981   2.053
  291HOH     H1 1059   1.523   0.928   1.993
  291HOH     H2 1060   1.665   0.971   2.022
  292HOH      O 1061   2.241   4.008   1.796
  292HOH     H1 1062   2.154   4.037   1.822
  292HOH     H2 1063   2.298   4.032   1.869
  293HOH      O 1064   0.681   3.538   2.825
  293HOH     H1 1065   0.760   3.491   2.798
  293HOH     H2 1066   0.611   3.499   2.773
  294HOH      O 1067   2.326   0.169   0.534
  294HOH     H1 1068   2.373   0.209   0.460
  294HOH     H2 1069   2.393   0.119   0.581
  295HOH      O 1070   0.269   3.332   1.347
  295HOH     H1 1071   0.252   3.373   1.262
  295HOH     H2 1072   0.323   3.395   1.394
  296HOH      O 1073   0.638   2.538   2.887
  296HOH     H1 1074   0.576   2.488   2.941
  296HOH     H2 1075   0.623   2.629   2.911
  297HOH      O 1076   0.533   0.951   3.839
  297HOH     H1 1077   0.475   0.983   3.908
  297HOH     H2 1078   0.522   1.014   3.767
  298HOH      O 1079   1.372   3.055   3.015
  298HOH     H1 1080   1.365   3.066   3.110
  298HOH     H2 1081   1.423   3.130   2.986
  299HOH      O 1082   0.225   2.244   1.510
  299HOH     H1 1083   0.216   2.188   1.432
  299HOH     H2 1084   0.254   2.185   1.579
  300HOH      O 1085   3.807   0.744   0.213
  300HOH     H1 1086   3.900   0.750   0.191
  300HOH     H2 1087   3.806   0.709   0.303
  301HOH      O 1088   2.142   0.050   3.950
  301HOH     H1 1089   2.161   0.125   3.894
  301HOH     H2 1090   2.216   0.046   4.010
  302HOH      O 1091   2.117   0.608   3.666
  302HOH     H1 1092   2.082   0.520   3.654
  302HOH     H2 1093   2.157   0.630   3.582
  303HOH      O 1094   0.933   1.026   2.785
  303HOH     H1 1095   1.011   0.977   2.813
  303HOH     H2 1096   0.860   0.974   2.818
  304HOH      O 1097   0.629   2.334   1.243
  304HOH     H1 1098   0.720   2.340   1.271
  304HOH     H2 1099   0.582   2.304   1.320
  305HOH      O 1100   3.717   1.228   1.832
  305HOH     H1 1101   3.739   1.139   1.859
  305HOH     H2 1102   3.703   1.274   1.915
  306HOH      O 1103   3.928   3.225   2.630
  306HOH     H1 1104   3.868   3.221   2.705
  306HOH     H2 1105   3.987   3.298   2.650
  307HOH      O 1106   1.815   0.909   3.197
  307HOH     H1 1107   1.890   0.867   3.154
  307HOH     H2 1108   1.850   0.991   3.231
  308HOH      O 1109   2.087   1.840   1.720
  308HOH     H1 1110   2.044   1.776   1.777
  308HOH     H2 1111   2.021   1.862   1.655
  309HOH      O 1112   1.198   1.748   2.643
  309HOH     H1 1113   1.182   1.655   2.628
  309HOH     H2 1114   1.294   1.756   2.641
  310HOH      O 1115   0.616   3.200   0.754
  310HOH     H1 1116   0.658   3.234   0.675
  310HOH     H2 1117   0.525   3.231   0.748
  311HOH      O 1118   2.891   2.714   2.723
  311HOH     H1 1119   2.934   2.789   2.763
  311HOH     H2 1120   2.848   2.749   2.645
  312HOH      O 1121   1.896   0.159   1.368
  312HOH     H1 1122   1.947   0.207   1.433
  312HOH     H2 1123   1.806   0.191   1.379
  313HOH      O 1124   2.538   2.088   0.717
  313HOH     H1 1125   2.556   2.167   0.768
  313HOH     H2 1126   2.563   2.111   0.628
  314HOH      O 1127   1.125   3.526   1.684
  314HOH     H1 1128   1.157   3.555   1.769
  314HOH     H2 1129   1.035   3.498   1.700
  315HOH      O 1130   0.593   2.153   2.439
  315HOH     H1 1131   0.503   2.121   2.453
  315HOH     H2 1132   0.605   2.218   2.509
  316HOH      O 1133   2.588   3.317   2.938
  316HOH     H1 1134   2.531   3.394   2.933
  316HOH     H2 1135   2.658   3.342   2.998
  317HOH      O 1136   0.351   1.936   3.750
  317HOH     H1 1137   0.304   1.872   3.804
  317HOH     H2 1138   0.442   1.930   3.781
  318HOH      O 1139   0.230   2.154   2.188
  318HOH     H1 1140   0.144   2.115   2.199
  318HOH     H2 1141   0.223   2.208   2.109
  319HOH      O 1142   1.703   1.928   2.132
  319HOH     H1 1143   1.747   1.857   2.086
  319HOH     H2 1144   1.632   1.954   2.073
  320HOH      O 1145   2.406   2.081   2.505
  320HOH     H1 1146   2.402   2.173   2.532
  320HOH     H2 1147   2.466   2.040   2.568
  321HOH      O 1148   3.040   0.907   2.821
  321HOH     H1 1149   3.017   0.993   2.784
  321HOH     H2 1150   3.126   0.888   2.784
  322HOH      O 1151   2.854   1.361   3.169
  322HOH     H1 1152   2.876   1.269   3.184
  322HOH     H2 1153   2.763   1.369   3.196
  323HOH      O 1154   3.178   3.778   3.691
  323HOH     H1 1155   3.109   3.790   3.756
  323HOH     H2 1156   3.258   3.765   3.743
  324HOH      O 1157   0.130   1.941   3.568
  324HOH     H1 1158   0.071   1.955   3.642
  324HOH     H2 1159   0.216   1.928   3.607
  325HOH      O 1160   2.116   2.654   3.301
  325HOH     H1 1161   2.131   2.688   3.389
  325HOH     H2 1162   2.193   2.598   3.283
  326HOH      O 1163   3.718   3.057   0.518
  326HOH     H1 1164   3.686   3.088   0.433
  326HOH     H2 1165   3.679   2.971   0.528
  327HOH      O 1166   1.421   0.486   3.070
  327HOH     H1 1167   1.332   0.450   3.060
  327HOH     H2 1168   1.472   0.443   3.002
  328HOH      O 1169   3.929   1.409   0.026
  328HOH     H1 1170   3.931   1.327   0.076
  328HOH     H2 1171   4.008   1.455   0.053
  329HOH      O 1172   3.615   1.154   2.294
  329HOH     H1 1173   3.625   1.070   2.249
  329HOH     H2 1174   3.554   1.137   2.365
  330HOH      O 1175   1.260   1.526   2.349
  330HOH     H1 1176   1.172   1.497   2.326
  330HOH     H2 1177   1.259   1.620   2.334
  331HOH      O 1178   2.162   1.418   3.249
  331HOH     H1 1179   2.180   1.324   3.239
  331HOH     H2 1180   2.249   1.459   3.244
  332HOH      O 1181   0.094   2.190   3.384
  332HOH     H1 1182   0.099   2.127   3.456
  332HOH     H2 1183   0.013   2.168   3.338
  333HOH      O 1184   1.742   1.497   3.508
  333HOH     H1 1185   1.687   1.430   3.468
  333HOH     H2 1186   1.818   1.504   3.449
  334HOH      O 1187   0.171   1.441   0.478
  334HOH     H1 1188   0.154   1.517   0.535
  334HOH     H2 1189   0.189   1.370   0.539
  335HOH      O 1190   1.456   3.504   1.333
  335HOH     H1 1191   1.448   3.600   1.333
  335HOH     H2 1192   1.368   3.473   1.356
  336HOH      O 1193   3.654   2.756   3.820
  336HOH     H1 1194   3.633   2.806   3.899
  336HOH     H2 1195   3.697   2.819   3.762
  337HOH      O 1196   0.751   2.853   2.728
  337HOH     H1 1197   0.730   2.859   2.821
  337HOH     H2 1198   0.690   2.913   2.686
  338HOH      O 1199   2.139   0.147   2.091
  338HOH     H1 1200   2.191   0.079   2.132
  338HOH     H2 1201   2.059   0.152   2.144
  339HOH      O 1202   2.460   2.112   1.132
  339HOH     H1 1203   2.365   2.119   1.123
  339HOH     H2 1204   2.479   2.145   1.219
  340HOH      O 1205   2.975   2.014   0.952
  340HOH     H1 1206   2.884   2.041   0.966
  340HOH     H2 1207   3.008   2.076   0.886
  341HOH      O 1208   3.660   1.736   3.905
  341HOH     H1 1209   3.662   1.647   3.940
  341HOH     H2 1210   3.578   1.741   3.856
  342HOH      O 1211   1.809   1.121   2.833
  342HOH     H1 1212   1.769   1.035   2.831
  342HOH     H2 1213   1.900   1.106   2.806
  343HOH      O 1214   3.788   0.931   1.407
  343HOH     H1 1215   3.807   1.023   1.428
  343HOH     H2 1216   3.759   0.894   1.490
  344HOH      O 1217   3.793   0.524   3.753
  344HOH     H1 1218   3.729   0.590   3.778
  344HOH     H2 1219   3.769   0.447   3.803
  345HOH      O 1220   0.816   1.745   0.144
  345HOH     H1 1221   0.738   1.746   0.198
  345HOH     H2 1222   0.792   1.693   0.067
  346HOH      O 1223   2.546   1.062   1.353
  346HOH     H1 1224   2.514   0.979   1.389
  346HOH     H2 1225   2.575   1.111   1.429
  347HOH      O 1226   0.324   3.957   0.230
  347HOH     H1 1227   0.368   3.872   0.227
  347HOH     H2 1228   0.230   3.935   0.235
  348HOH      O 1229   3.374   3.432   1.423
  348HOH     H1 1230   3.416   3.350   1.397
  348HOH     H2 1231   3.446   3.486   1.457
  349HOH      O 1232   3.541   2.629   3.611
  349HOH     H1 1233   3.592   2.666   3.684
  349HOH     H2 1234   3.450   2.649   3.633
  350HOH      O 1235   0.697   1.945   3.818
  350HOH     H1 1236   0.671   1.875   3.758
  350HOH     H2 1237   0.792   1.951   3.807
  351HOH      O 1238   0.757   3.227   3.119
  351HOH     H1 1239   0.823   3.286   3.083
  351HOH     H2 1240   0.675   3.253   3.076
  352HOH      O 1241   1.981   1.484   0.787
  352HOH     H1 1242   1.943   1.414   0.734
  352HOH     H2 1243   2.062   1.446   0.821
  353HOH      O 1244   3.638   0.691   2.280
  353HOH     H1 1245   3.612   0.625   2.217
  353HOH     H2 1246   3.665   0.766   2.227
  354HOH      O 1247   3.320   1.860   2.904
  354HOH     H1 1248   3.305   1.952   2.880
  354HOH     H2 1249   3.273   1.810   2.837
  355HOH      O 1250   3.059   2.944   3.266
  355HOH     H1 1251   3.027   2.961   3.177
  355HOH     H2 1252   3.046   2.849   3.278
  356HOH      O 1253   2.030   0.847   0.388
  356HOH     H1 1254   2.039   0.837   0.483
  356HOH     H2 1255   2.086   0.921   0.366
  357HOH      O 1256   1.766   3.363   3.470
  357HOH     H1 1257   1.760   3.367   3.375
  357HOH     H2 1258   1.857   3.390   3.489
  358HOH      O 1259   0.265   2.203   3.148
  358HOH     H1 1260   0.218   2.196   3.231
  358HOH     H2 1261   0.317   2.122   3.143
  359HOH      O 1262   0.441   0.974   0.878
  359HOH     H1 1263   0.351   0.951   0.856
  359HOH     H2 1264   0.494   0.934   0.810
  360HOH      O 1265   3.654   1.346   1.144
  360HOH     H1 1266   3.672   1.386   1.229
  360HOH     H2 1267   3.598   1.409   1.099
  361HOH      O 1268   2.459   3.320   1.163
  361HOH     H1 1269   2.427   3.364   1.084
  361HOH     H2 1270   2.554   3.336   1.162
  362HOH      O 1271   3.787   3.862   1.796
  362HOH     H1 1272   3.759   3.895   1.881
  362HOH     H2 1273   3.830   3.778   1.815
  363HOH      O 1274   2.443   1.339   2.707
  363HOH     H1 1275   2.458   1.379   2.621
  363HOH     H2 1276   2.440   1.245   2.689
  364HOH      O 1277   0.860   3.023   1.721
  364HOH     H1 1278   0.852   3.098   1.663
  364HOH     H2 1279   0.807   2.955   1.679
  365HOH      O 1280   3.848   1.616   3.305
  365HOH     H1 1281   3.815   1.676   3.373
  365HOH     H2 1282   3.811   1.651   3.223
  366HOH      O 1283   1.149   1.254   2.448
  366HOH     H1 1284   1.104   1.174   2.475
  366HOH     H2 1285   1.212   1.226   2.382
  367HOH      O 1286   3.784   1.779   1.939
  367HOH     H1 1287   3.847   1.849   1.925
  367HOH     H2 1288   3.734   1.806   2.016
  368HOH      O 1289   2.937   2.049   0.288
  368HOH     H1 1290   2.854   2.087   0.257
  368HOH     H2 1291   2.912   1.967   0.329
  369HOH      O 1292   3.816   2.284   2.916
  369HOH     H1 1293   3.756   2.353   2.944
  369HOH     H2 1294   3.760   2.220   2.871
  370HOH      O 1295   3.503   3.727   2.657
  370HOH     H1 1296   3.464   3.705   2.742
  370HOH     H2 1297   3.532   3.817   2.666
  371HOH      O 1298   2.468   3.358   0.387
  371HOH     H1 1299   2.412   3.435   0.390
  371HOH     H2 1300   2.534   3.378   0.320
  372HOH      O 1301   3.768   2.112   2.083
  372HOH     H1 1302   3.854   2.135   2.048
  372HOH     H2 1303   3.708   2.126   2.009
  373HOH      O 1304   1.533   0.168   0.126
  373HOH     H1 1305   1.447   0.163   0.168
  373HOH     H2 1306   1.540   0.088   0.075
  374HOH      O 1307   2.465   2.071   3.576
  374HOH     H1 1308   2.454   2.077   3.481
  374HOH     H2 1309   2.493   2.159   3.601
  375HOH      O 1310   0.396   1.725   3.169
  375HOH     H1 1311   0.349   1.766   3.242
  375HOH     H2 1312   0.429   1.799   3.117
  376HOH      O 1313   3.865   0.074   0.156
  376HOH     H1 1314   3.813  -0.005   0.142
  376HOH     H2 1315   3.862   0.120   0.072
  377HOH      O 1316   3.537   0.357   1.474
  377HOH     H1 1317   3.579   0.443   1.467
  377HOH     H2 1318   3.586   0.313   1.544
  378HOH      O 1319   3.251   0.716   2.486
  378HOH     H1 1320   3.230   0.681   2.400
  378HOH     H2 1321   3.224   0.647   2.547
  379HOH      O 1322   3.303   0.468   3.806
  379HOH     H1 1323   3.359   0.445   3.732
  379HOH     H2 1324   3.250   0.390   3.822
  380HOH      O 1325   0.007   1.194   1.508
  380HOH     H1 1326   0.082   1.179   1.450
  380HOH     H2 1327   0.041   1.174   1.596
  381HOH      O 1328   0.440   0.617   1.456
  381HOH     H1 1329   0.522   0.601   1.504
  381HOH     H2 1330   0.433   0.543   1.395
  382HOH      O 1331   3.175   0.786   1.719
  382HOH     H1 1332   3.259   0.797   1.675
  382HOH     H2 1333   3.164   0.691   1.726
  383HOH      O 1334   3.361   4.018   3.800
  383HOH     H1 1335   3.349   3.938   3.851
  383HOH     H2 1336   3.432   4.064   3.845
  384HOH      O 1337   0.095   3.661   2.038
  384HOH     H1 1338   0.153   3.589   2.012
  384HOH     H2 1339   0.149   3.739   2.027
  385HOH      O 1340   3.427   0.353   1.780
  385HOH     H1 1341   3.463   0.438   1.802
  385HOH     H2 1342   3.503   0.300   1.754
  386HOH      O 1343   1.981   3.744   1.944
  386HOH     H1 1344   1.956   3.664   1.897
  386HOH     H2 1345   2.066   3.722   1.983
  387HOH      O 1346   2.251   0.219   3.103
  387HOH     H1 1347   2.156   0.223   3.092
  387HOH     H2 1348   2.270   0.276   3.177
  388HOH      O 1349   2.679   0.478   2.626
  388HOH     H1 1350   2.741   0.422   2.673
  388HOH     H2 1351   2.612   0.418   2.595
  389HOH      O 1352   2.810   3.320   1.766
  389HOH     H1 1353   2.801   3.362   1.852
  389HOH     H2 1354   2.822   3.227   1.786
  390HOH      O 1355   0.445   3.521   2.652
  390HOH     H1 1356   0.414   3.601   2.610
  390HOH     H2 1357   0.465   3.462   2.579
  391HOH      O 1358   1.540   3.450   2.529
  391HOH     H1 1359   1.590   3.383   2.482
  391HOH     H2 1360   1.489   3.400   2.594
  392HOH      O 1361   1.824   3.056   2.215
  392HOH     H1 1362   1.781   3.142   2.215
  392HOH     H2 1363   1.795   3.015   2.134
  393HOH      O 1364   1.874   2.972   3.271
  393HOH     H1 1365   1.951   3.029   3.277
  393HOH     H2 1366   1.801   3.029   3.293
  394HOH      O 1367   0.273   1.250   0.669
  394HOH     H1 1368   0.259   1.240   0.763
  394HOH     H2 1369   0.345   1.313   0.663
  395HOH      O 1370   3.968   1.062   3.910
  395HOH     H1 1371   3.971   0.989   3.972
  395HOH     H2 1372   3.999   1.026   3.827
  396HOH      O 1373   0.012   2.946   2.775
  396HOH     H1 1374   0.095   2.903   2.794
  396HOH     H2 1375  -0.024   2.969   2.861
  397HOH      O 1376   2.829   0.242   1.964
  397HOH     H1 1377   2.813   0.335   1.983
  397HOH     H2 1378   2.819   0.235   1.869
  398HOH      O 1379   3.410   0.499   0.765
  398HOH     H1 1380   3.426   0.589   0.737
  398HOH     H2 1381   3.425   0.447   0.686
  399HOH      O 1382   2.926   2.774   0.003
  399HOH     H1 1383   2.907   2.839   0.071
  399HOH     H2 1384   2.921   2.690   0.049
  400HOH      O 1385   2.912   0.341   3.724
  400HOH     H1 1386   2.952   0.344   3.637
  400HOH     H2 1387   2.867   0.425   3.733
  401HOH      O 1388   3.830   0.385   1.127
  401HOH     H1 1389   3.808   0.331   1.204
  401HOH     H2 1390   3.830   0.323   1.054
  402HOH      O 1391   1.859   0.718   2.548
  402HOH     H1 1392   1.834   0.628   2.567
  402HOH     H2 1393   1.822   0.736   2.462
  403HOH      O 1394   1.341   1.303   0.477
  403HOH     H1 1395   1.393   1.263   0.407
  403HOH     H2 1396   1.322   1.232   0.537
  404HOH      O 1397   0.856   2.328   3.159
  404HOH     H1 1398   0.816   2.363   3.238
  404HOH     H2 1399   0.832   2.236   3.158
  405HOH      O 1400   0.777   1.820   1.838
  405HOH     H1 1401   0.772   1.900   1.786
  405HOH     H2 1402   0.788   1.750   1.774
  406HOH      O 1403   0.164   2.777   0.145
  406HOH     H1 1404   0.132   2.764   0.234
  406HOH     H2 1405   0.108   2.846   0.109
  407HOH      O 1406   2.853   2.915   1.204
  407HOH     H1 1407   2.791   2.843   1.215
  407HOH     H2 1408   2.825   2.959   1.124
  408HOH      O 1409   3.558   2.227   3.600
  408HOH     H1 1410   3.474   2.246   3.558
  408HOH     H2 1411   3.603   2.311   3.603
  409HOH      O 1412   3.435   0.933   0.382
  409HOH     H1 1413   3.497   0.871   0.420
  409HOH     H2 1414   3.479   0.965   0.303
  410HOH      O 1415   1.710   2.703   1.729
  410HOH     H1 1416   1.771   2.769   1.763
  410HOH     H2 1417   1.762   2.652   1.667
  411HOH      O 1418   1.830   0.725   4.035
  411HOH     H1 1419   1.772   0.688   3.970
  411HOH     H2 1420   1.897   0.658   4.050
  412HOH      O 1421   0.178   0.098   3.164
  412HOH     H1 1422   0.215   0.108   3.251
  412HOH     H2 1423   0.230   0.028   3.123
  413HOH      O 1424   0.424   3.715   0.207
  413HOH     H1 1425   0.413   3.645   0.272
  413HOH     H2 1426   0.470   3.673   0.134
  414HOH      O 1427   2.292   1.995   2.282
  414HOH     H1 1428   2.336   2.034   2.357
  414HOH     H2 1429   2.223   1.941   2.320
  415HOH      O 1430   3.708   3.580   1.212
  415HOH     H1 1431   3.736   3.561   1.302
  415HOH     H2 1432   3.632   3.638   1.223
  416HOH      O 1433   3.019   3.562   1.501
  416HOH     H1 1434   3.062   3.628   1.447
  416HOH     H2 1435   3.006   3.605   1.585
  417HOH      O 1436   2.965   1.487   1.358
  417HOH     H1 1437   3.059   1.501   1.347
  417HOH     H2 1438   2.947   1.513   1.449
  418HOH      O 1439   1.345   2.168   0.240
  418HOH     H1 1440   1.386   2.082   0.250
  418HOH     H2 1441   1.252   2.154   0.259
  419HOH      O 1442   1.826   0.581   3.039
  419HOH     H1 1443   1.742   0.564   2.996
  419HOH     H2 1444   1.817   0.542   3.126
  420HOH      O 1445   0.480   1.441   0.717
  420HOH     H1 1446   0.543   1.394   0.771
  420HOH     H2 1447   0.533   1.496   0.660
  421HOH      O 1448   1.570   2.109   2.742
  421HOH     H1 1449   1.625   2.186   2.759
  421HOH     H2 1450   1.623   2.054   2.686
  422HOH      O 1451   1.765   3.894   3.017
  422HOH     H1 1452   1.811   3.929   3.094
  422HOH     H2 1453   1.786   3.801   3.018
  423HOH      O 1454   4.006   2.629   3.818
  423HOH     H1 1455   4.073   2.590   3.874
  423HOH     H2 1456   3.923   2.597   3.854
  424HOH      O 1457   0.266   0.120   0.432
  424HOH     H1 1458   0.283   0.054   0.365
  424HOH     H2 1459   0.253   0.201   0.384
  425HOH      O 1460   0.249   2.357   1.950
  425HOH     H1 1461   0.206   2.391   1.872
  425HOH     H2 1462   0.293   2.278   1.920
  426HOH      O 1463   2.706   0.806   3.145
  426HOH     H1 1464   2.710   0.894   3.182
  426HOH     H2 1465   2.732   0.817   3.053
  427HOH      O 1466   2.260   2.911   3.356
  427HOH     H1 1467   2.326   2.958   3.406
  427HOH     H2 1468   2.206   2.868   3.422
  428HOH      O 1469   1.919   3.170   1.070
  428HOH     H1 1470   1.918   3.246   1.011
  428HOH     H2 1471   1.882   3.099   1.017
  429HOH      O 1472   3.180   3.592   3.143
  429HOH     H1 1473   3.241   3.654   3.103
  429HOH     H2 1474   3.096   3.637   3.143
  430HOH      O 1475   2.507   0.604   2.005
  430HOH     H1 1476   2.417   0.595   1.974
  430HOH     H2 1477   2.498   0.647   2.090
  431HOH      O 1478   3.031   1.606   2.994
  431HOH     H1 1479   3.032   1.516   2.962
  431HOH     H2 1480   3.084   1.603   3.074
  432HOH      O 1481   3.638   1.681   0.307
  432HOH     H1 1482   3.670   1.637   0.386
  432HOH     H2 1483   3.709   1.670   0.244
  433HOH      O 1484   1.076   0.430   3.490
  433HOH     H1 1485   1.078   0.341   3.454
  433HOH     H2 1486   1.102   0.486   3.418
  434HOH      O 1487   1.761   1.016   3.969
  434HOH     H1 1488   1.738   0.961   3.894
  434HOH     H2 1489   1.843   0.979   4.002
  435HOH      O 1490   3.394   2.851   2.305
  435HOH     H1 1491   3.455   2.777   2.305
  435HOH     H2 1492   3.451   2.928   2.296
  436HOH      O 1493   2.676   1.830   1.815
  436HOH     H1 1494   2.584   1.847   1.835
  436HOH     H2 1495   2.697   1.752   1.865
  437HOH      O 1496   0.998   2.232   2.093
  437HOH     H1 1497   0.961   2.287   2.162
  437HOH     H2 1498   0.939   2.156   2.089
  438HOH      O 1499   3.761   3.058   3.803
  438HOH     H1 1500   3.835   3.101   3.846
  438HOH     H2 1501   3.759   3.094   3.715
  439HOH      O 1502   0.144   0.151   1.159
  439HOH     H1 1503   0.127   0.231   1.208
  439HOH     H2 1504   0.070   0.094   1.180
  440HOH      O 1505   2.291   3.447   2.786
  440HOH     H1 1506   2.289   3.428   2.880
  440HOH     H2 1507   2.359   3.512   2.775
  441HOH      O 1508   0.137   3.305   2.858
  441HOH     H1 1509   0.173   3.231   2.907
  441HOH     H2 1510   0.164   3.289   2.767
  442HOH      O 1511   1.031   2.542   2.131
  442HOH     H1 1512   1.110   2.561   2.081
  442HOH     H2 1513   0.991   2.468   2.086
  443HOH      O 1514   1.511   0.445   0.467
  443HOH     H1 1515   1.454   0.521   0.482
  443HOH     H2 1516   1.466   0.394   0.400
  444HOH      O 1517   1.275   3.692   2.913
  444HOH     H1 1518   1.301   3.722   2.827
  444HOH     H2 1519   1.309   3.758   2.973
  445HOH      O 1520   2.189   1.188   1.624
  445HOH     H1 1521   2.098   1.214   1.608
  445HOH     H2 1522   2.230   1.266   1.661
  446HOH      O 1523   0.271   0.849   1.235
  446HOH     H1 1524   0.343   0.807   1.187
  446HOH     H2 1525   0.204   0.863   1.168
  447HOH      O 1526   3.382   3.916   0.484
  447HOH     H1 1527   3.426   3.854   0.542
  447HOH     H2 1528   3.414   4.002   0.511
  448HOH      O 1529   0.232   3.714   3.948
  448HOH     H1 1530   0.215   3.713   3.854
  448HOH     H2 1531   0.156   3.757   3.986
  449HOH      O 1532   2.154   0.404   3.327
  449HOH     H1 1533   2.082   0.379   3.268
  449HOH     H2 1534   2.181   0.491   3.297
  450HOH      O 1535   1.361   3.028   0.871
  450HOH     H1 1536   1.441   2.975   0.865
  450HOH     H2 1537   1.329   3.033   0.781
  451HOH      O 1538   1.334   0.238   0.335
  451HOH     H1 1539   1.279   0.194   0.270
  451HOH     H2 1540   1.294   0.216   0.419
  452HOH      O 1541   1.406   0.465   3.813
  452HOH     H1 1542   1.328   0.506   3.776
  452HOH     H2 1543   1.469   0.536   3.822
  453HOH      O 1544   1.985   2.681   2.065
  453HOH     H1 1545   1.889   2.687   2.072
  453HOH     H2 1546   2.005   2.591   2.092
  454HOH      O 1547   2.957   3.746   1.698
  454HOH     H1 1548   2.888   3.746   1.765
  454HOH     H2 1549   3.021   3.809   1.730
  455HOH      O 1550   0.681   2.449   0.293
  455HOH     H1 1551   0.613   2.392   0.256
  455HOH     H2 1552   0.656   2.537   0.265
  456HOH      O 1553   2.649   1.107   2.725
  456HOH     H1 1554   2.560   1.072   2.725
  456HOH     H2 1555   2.659   1.147   2.812
  457HOH      O 1556   3.194   0.865   0.856
  457HOH     H1 1557   3.212   0.911   0.939
  457HOH     H2 1558   3.173   0.775   0.883
  458HOH      O 1559   2.612   2.499   3.464
  458HOH     H1 1560   2.629   2.545   3.382
  458HOH     H2 1561   2.581   2.566   3.524
  459HOH      O 1562   1.843   1.723   0.760
  459HOH     H1 1563   1.915   1.660   0.755
  459HOH     H2 1564   1.775   1.677   0.808
  460HOH      O 1565   3.503   1.016   3.905
  460HOH     H1 1566   3.441   1.059   3.846
  460HOH     H2 1567   3.448   0.964   3.964
  461HOH      O 1568   2.900   2.856   3.681
  461HOH     H1 1569   2.843   2.932   3.671
  461HOH     H2 1570   2.968   2.885   3.742
  462HOH      O 1571  -0.019   3.070   1.585
  462HOH     H1 1572  -0.012   3.115   1.501
  462HOH     H2 1573   0.047   3.112   1.641
  463HOH      O 1574   3.165   2.980   2.638
  463HOH     H1 1575   3.214   3.009   2.715
  463HOH     H2 1576   3.074   2.978   2.667
  464HOH      O 1577   3.134   2.832   3.831
  464HOH     H1 1578   3.069   2.819   3.900
  464HOH     H2 1579   3.216   2.846   3.878
  465HOH      O 1580   2.219   3.436   0.121
  465HOH     H1 1581   2.210   3.461   0.213
  465HOH     H2 1582   2.311   3.457   0.100
  466HOH      O 1583   1.060   2.351   2.338
  466HOH     H1 1584   1.137   2.357   2.395
  466HOH     H2 1585   1.066   2.427   2.281
  467HOH      O 1586   3.429   2.984   1.448
  467HOH     H1 1587   3.366   2.979   1.520
  467HOH     H2 1588   3.380   3.024   1.376
  468HOH      O 1589   1.259   3.892   0.382
  468HOH     H1 1590   1.233   3.818   0.327
  468HOH     H2 1591   1.352   3.878   0.398
  469HOH      O 1592   3.703   3.126   3.522
  469HOH     H1 1593   3.759   3.194   3.485
  469HOH     H2 1594   3.614   3.157   3.507
  470HOH      O 1595   3.480   1.547   1.025
  470HOH     H1 1596   3.495   1.641   1.036
  470HOH     H2 1597   3.491   1.531   0.932
  471HOH      O 1598   2.140   3.723   3.455
  471HOH     H1 1599   2.219   3.767   3.485
  471HOH     H2 1600   2.070   3.786   3.471
  472HOH      O 1601   0.409   0.524   3.935
  472HOH     H1 1602   0.485   0.582   3.945
  472HOH     H2 1603   0.343   0.578   3.892
  473HOH      O 1604   0.445   1.333   0.434
  473HOH     H1 1605   0.484   1.358   0.350
  473HOH     H2 1606   0.368   1.390   0.442
  474HOH      O 1607   0.488   2.302   0.166
  474HOH     H1 1608   0.496   2.321   0.073
  474HOH     H2 1609   0.394   2.293   0.181
  475HOH      O 1610   0.861   1.769   2.286
  475HOH     H1 1611   0.785   1.718   2.257
  475HOH     H2 1612   0.825   1.832   2.348
  476HOH      O 1613   1.483   1.191   0.718
  476HOH     H1 1614   1.391   1.216   0.731
  476HOH     H2 1615   1.531   1.273   0.728
  477HOH      O 1616   1.211   3.530   3.308
  477HOH     H1 1617   1.236   3.618   3.281
  477HOH     H2 1618   1.134   3.543   3.365
  478HOH      O 1619   2.440   0.272   0.331
  478HOH     H1 1620   2.532   0.255   0.309
  478HOH     H2 1621   2.416   0.346   0.275
  479HOH      O 1622   3.211   1.987   3.524
  479HOH     H1 1623   3.201   1.982   3.620
  479HOH     H2 1624   3.286   1.932   3.505
  480HOH      O 1625   3.186   3.719   2.084
  480HOH     H1 1626   3.209   3.629   2.062
  480HOH     H2 1627   3.261   3.753   2.132
  481HOH      O 1628   2.383   3.039   2.804
  481HOH     H1 1629   2.444   2.965   2.810
  481HOH     H2 1630   2.431   3.105   2.754
  482HOH      O 1631   0.282   3.095   1.469
  482HOH     H1 1632   0.271   3.171   1.411
  482HOH     H2 1633   0.261   3.020   1.414
  483HOH      O 1634   0.751   0.176   1.557
  483HOH     H1 1635   0.709   0.205   1.476
  483HOH     H2 1636   0.751   0.253   1.613
  484HOH      O 1637   0.569   3.516   3.079
  484HOH     H1 1638   0.487   3.489   3.037
  484HOH     H2 1639   0.632   3.521   3.007
  485HOH      O 1640   1.175   1.824   3.166
  485HOH     H1 1641   1.162   1.792   3.255
  485HOH     H2 1642   1.217   1.751   3.119
  486HOH      O 1643   1.679   3.347   1.444
  486HOH     H1 1644   1.596   3.387   1.414
  486HOH     H2 1645   1.728   3.331   1.364
  487HOH      O 1646   3.533   0.358   0.069
  487HOH     H1 1647   3.508   0.331   0.157
  487HOH     H2 1648   3.626   0.381   0.077
  488HOH      O 1649   2.316   0.976   1.513
  488HOH     H1 1650   2.280   1.052   1.559
  488HOH     H2 1651   2.306   0.903   1.575
  489HOH      O 1652   3.789   2.067   2.551
  489HOH     H1 1653   3.811   1.976   2.531
  489HOH     H2 1654   3.702   2.080   2.512
  490HOH      O 1655   2.299   1.240   2.084
  490HOH     H1 1656   2.357   1.235   2.160
  490HOH     H2 1657   2.269   1.331   2.083
  491HOH      O 1658   1.021   0.195   2.836
  491HOH     H1 1659   0.984   0.139   2.769
  491HOH     H2 1660   0.954   0.263   2.850
  492HOH      O 1661   1.145   1.352   2.838
  492HOH     H1 1662   1.109   1.388   2.757
  492HOH     H2 1663   1.185   1.270   2.811
  493HOH      O 1664   2.911   1.145   2.981
  493HOH     H1 1665   2.920   1.103   3.067
  493HOH     H2 1666   2.817   1.163   2.973
  494HOH      O 1667   3.181   2.554   1.572
  494HOH     H1 1668   3.139   2.485   1.520
  494HOH     H2 1669   3.186   2.629   1.513
  495HOH      O 1670   0.970   1.783   0.408
  495HOH     H1 1671   0.961   1.848   0.477
  495HOH     H2 1672   0.881   1.747   0.399
  496HOH      O 1673   1.689   1.523   1.124
  496HOH     H1 1674   1.714   1.435   1.098
  496HOH     H2 1675   1.739   1.540   1.205
  497HOH      O 1676   3.853   2.412   1.780
  497HOH     H1 1677   3.936   2.407   1.733
  497HOH     H2 1678   3.830   2.504   1.779
  498HOH      O 1679   3.127   1.631   0.918
  498HOH     H1 1680   3.199   1.674   0.963
  498HOH     H2 1681   3.068   1.603   0.988
  499HOH      O 1682   1.470   1.825   2.667
  499HOH     H1 1683   1.489   1.872   2.585
  499HOH     H2 1684   1.435   1.893   2.726
  500HOH      O 1685   3.541   3.498   2.928
  500HOH     H1 1686   3.615   3.441   2.908
  500HOH     H2 1687   3.579   3.568   2.981
  501HOH      O 1688   1.560   0.870   3.279
  501HOH     H1 1689   1.531   0.959   3.259
  501HOH     H2 1690   1.651   0.868   3.251
  502HOH      O 1691   1.233   0.023   1.584
  502HOH     H1 1692   1.196   0.063   1.506
  502HOH     H2 1693   1.164   0.028   1.649
  503HOH      O 1694   0.079   1.708   0.335
  503HOH     H1 1695   0.015   1.699   0.406
  503HOH     H2 1696   0.028   1.692   0.255
  504HOH      O 1697   0.815   3.600   0.609
  504HOH     H1 1698   0.818   3.513   0.568
  504HOH     H2 1699   0.734   3.639   0.578
  505HOH      O 1700   3.455   0.622   3.977
  505HOH     H1 1701   3.389   0.590   3.916
  505HOH     H2 1702   3.505   0.543   4.001
  506HOH      O 1703   2.886   2.109   1.330
  506HOH     H1 1704   2.953   2.175   1.315
  506HOH     H2 1705   2.906   2.040   1.266
  507HOH      O 1706   2.915   2.417   2.887
  507HOH     H1 1707   2.918   2.479   2.814
  507HOH     H2 1708   2.904   2.332   2.844
  508HOH      O 1709   1.383   1.556   0.338
  508HOH     H1 1710   1.386   1.475   0.390
  508HOH     H2 1711   1.461   1.551   0.282
  509HOH      O 1712   0.241   3.010   3.923
  509HOH     H1 1713   0.173   2.984   3.861
  509HOH     H2 1714   0.258   3.102   3.902
  510HOH      O 1715   1.218   1.295   0.746
  510HOH     H1 1716   1.152   1.287   0.815
  510HOH     H2 1717   1.218   1.388   0.723
  511HOH      O 1718   1.338   3.312   2.684
  511HOH     H1 1719   1.283   3.360   2.622
  511HOH     H2 1720   1.384   3.248   2.630
  512HOH      O 1721   3.167   0.247   3.852
  512HOH     H1 1722   3.072   0.250   3.863
  512HOH     H2 1723   3.186   0.155   3.834
  513HOH      O 1724   0.987   1.071   2.530
  513HOH     H1 1725   0.965   1.043   2.619
  513HOH     H2 1726   0.902   1.084   2.487
  514HOH      O 1727   1.487   2.436   2.327
  514HOH     H1 1728   1.410   2.487   2.354
  514HOH     H2 1729   1.553   2.457   2.393
  515HOH      O 1730   1.228   1.712   1.412
  515HOH     H1 1731   1.150   1.684   1.461
  515HOH     H2 1732   1.294   1.646   1.433
  516HOH      O 1733   3.552   0.596   1.842
  516HOH     H1 1734   3.583   0.574   1.930
  516HOH     H2 1735   3.632   0.610   1.791
  517HOH      O 1736   1.122   1.790   2.358
  517HOH     H1 1737   1.031   1.770   2.338
  517HOH     H2 1738   1.127   1.783   2.454
  518HOH      O 1739   2.491   0.963   0.659
  518HOH     H1 1740   2.569   0.976   0.712
  518HOH     H2 1741   2.496   1.032   0.592
  519HOH      O 1742   0.437   2.303   1.049
  519HOH     H1 1743   0.485   2.332   0.972
  519HOH     H2 1744   0.501   2.305   1.120
  520HOH      O 1745   1.458   0.894   2.291
  520HOH     H1 1746   1.500   0.948   2.225
  520HOH     H2 1747   1.377   0.940   2.312
  521HOH      O 1748   0.229   3.575   3.207
  521HOH     H1 1749   0.252   3.494   3.162
  521HOH     H2 1750   0.237   3.643   3.140
  522HOH      O 1751   3.501   1.185   1.511
  522HOH     H1 1752   3.596   1.181   1.505
  522HOH     H2 1753   3.471   1.169   1.421
  523HOH      O 1754   2.853   3.300   3.317
  523HOH     H1 1755   2.776   3.356   3.310
  523HOH     H2 1756   2.911   3.347   3.378
  524HOH      O 1757   3.445   2.612   0.506
  524HOH     H1 1758   3.382   2.664   0.456
  524HOH     H2 1759   3.397   2.533   0.531
  525HOH      O 1760   1.003   0.901   3.762
  525HOH     H1 1761   0.955   0.979   3.732
  525HOH     H2 1762   0.960   0.828   3.718
  526HOH      O 1763   3.675   2.416   2.113
  526HOH     H1 1764   3.750   2.408   2.055
  526HOH     H2 1765   3.602   2.380   2.062
  527HOH      O 1766   3.598   1.702   1.741
  527HOH     H1 1767   3.641   1.620   1.716
  527HOH     H2 1768   3.663   1.747   1.795
  528HOH      O 1769   1.074   3.067   1.121
  528HOH     H1 1770   1.113   3.032   1.201
  528HOH     H2 1771   1.085   3.162   1.128
  529HOH      O 1772   0.384   2.559   3.341
  529HOH     H1 1773   0.301   2.514   3.357
  529HOH     H2 1774   0.447   2.516   3.399
  530HOH      O 1775   1.235   2.421   0.154
  530HOH     H1 1776   1.281   2.342   0.184
  530HOH     H2 1777   1.152   2.389   0.120
  531HOH      O 1778   1.403   1.640   2.109
  531HOH     H1 1779   1.410   1.728   2.145
  531HOH     H2 1780   1.327   1.601   2.152
  532HOH      O 1781   0.673   2.756   3.041
  532HOH     H1 1782   0.683   2.719   3.129
  532HOH     H2 1783   0.749   2.813   3.030
  533HOH      O 1784   1.257   0.959   3.788
  533HOH     H1 1785   1.258   1.054   3.800
  533HOH     H2 1786   1.165   0.935   3.789
  534HOH      O 1787   1.551   3.232   2.977
  534HOH     H1 1788   1.607   3.216   2.901
  534HOH     H2 1789   1.519   3.322   2.965
  535HOH      O 1790   0.341   1.580   1.791
  535HOH     H1 1791   0.374   1.585   1.702
  535HOH     H2 1792   0.355   1.489   1.817
  536HOH      O 1793   3.105   2.751   3.025
  536HOH     H1 1794   3.146   2.723   3.107
  536HOH     H2 1795   3.145   2.696   2.958
  537HOH      O 1796   3.212   1.624   1.289
  537HOH     H1 1797   3.277   1.663   1.347
  537HOH     H2 1798   3.133   1.677   1.303
  538HOH      O 1799   2.633   1.193   2.984
  538HOH     H1 1800   2.580   1.113   2.981
  538HOH     H2 1801   2.577   1.257   3.028
  539HOH      O 1802   1.149   3.996   3.364
  539HOH     H1 1803   1.155   4.086   3.397
  539HOH     H2 1804   1.147   3.942   3.443
  540HOH      O 1805   0.671   1.797   3.583
  540HOH     H1 1806   0.607   1.865   3.561
  540HOH     H2 1807   0.747   1.817   3.528
  541HOH      O 1808   3.451   0.402   0.515
  541HOH     H1 1809   3.371   0.352   0.501
  541HOH     H2 1810   3.452   0.466   0.444
  542HOH      O 1811   0.882   3.492   2.206
  542HOH     H1 1812   0.934   3.546   2.147
  542HOH     H2 1813   0.829   3.554   2.255
  543HOH      O 1814   1.895   1.800   1.443
  543HOH     H1 1815   1.966   1.824   1.383
  543HOH     H2 1816   1.837   1.875   1.442
  544HOH      O 1817   3.160   0.466   3.361
  544HOH     H1 1818   3.162   0.562   3.352
  544HOH     H2 1819   3.191   0.434   3.277
  545HOH      O 1820   3.173   3.859   0.819
  545HOH     H1 1821   3.154   3.878   0.727
  545HOH     H2 1822   3.091   3.822   0.852
  546HOH      O 1823   1.736   3.266   0.517
  546HOH     H1 1824   1.726   3.329   0.588
  546HOH     H2 1825   1.802   3.204   0.550
  547HOH      O 1826   2.422   3.980   2.525
  547HOH     H1 1827   2.332   3.970   2.493
  547HOH     H2 1828   2.474   3.988   2.445
  548HOH      O 1829   1.664   0.750   1.871
  548HOH     H1 1830   1.755   0.772   1.892
  548HOH     H2 1831   1.626   0.725   1.954
  549HOH      O 1832   1.115   1.139   1.527
  549HOH     H1 1833   1.077   1.081   1.461
  549HOH     H2 1834   1.045   1.199   1.550
  550HOH      O 1835   3.036   0.817   0.631
  550HOH     H1 1836   3.098   0.854   0.694
  550HOH     H2 1837   2.962   0.788   0.686
  551HOH      O 1838  -0.036   0.936   0.740
  551HOH     H1 1839   0.010   1.018   0.725
  551HOH     H2 1840   0.032   0.875   0.767
  552HOH      O 1841   1.084   0.837   2.152
  552HOH     H1 1842   1.131   0.837   2.235
  552HOH     H2 1843   1.122   0.764   2.103
  553HOH      O 1844   3.392   3.941   1.452
  553HOH     H1 1845   3.455   3.974   1.516
  553HOH     H2 1846   3.345   4.020   1.422
  554HOH      O 1847   3.088   2.505   1.181
  554HOH     H1 1848   3.125   2.582   1.224
  554HOH     H2 1849   3.033   2.540   1.111
  555HOH      O 1850   3.985   1.928   0.704
  555HOH     H1 1851   4.024   1.956   0.786
  555HOH     H2 1852   3.927   2.000   0.679
  556HOH      O 1853   2.268   0.772   1.722
  556HOH     H1 1854   2.341   0.833   1.735
  556HOH     H2 1855   2.301   0.688   1.753
  557HOH      O 1856   3.629   1.472  -0.000
  557HOH     H1 1857   3.596   1.396  -0.047
  557HOH     H2 1858   3.700   1.438   0.054
  558HOH      O 1859   0.845   2.984   3.985
  558HOH     H1 1860   0.779   3.007   3.920
  558HOH     H2 1861   0.920   3.040   3.963
  559HOH      O 1862   2.742   3.219   1.243
  559HOH     H1 1863   2.766   3.132   1.274
  559HOH     H2 1864   2.730   3.271   1.323
  560HOH      O 1865   2.339   1.841   3.687
  560HOH     H1 1866   2.337   1.773   3.620
  560HOH     H2 1867   2.373   1.918   3.641
  561HOH      O 1868   1.303   3.174   1.365
  561HOH     H1 1869   1.295   3.185   1.460
  561HOH     H2 1870   1.282   3.081   1.351
  562HOH      O 1871   3.698   1.422   2.026
  562HOH     H1 1872   3.678   1.423   2.119
  562HOH     H2 1873   3.664   1.506   1.993
  563HOH      O 1874   0.571   2.366   0.815
  563HOH     H1 1875   0.586   2.460   0.818
  563HOH     H2 1876   0.524   2.352   0.732
  564HOH      O 1877   0.522   1.724   1.955
  564HOH     H1 1878   0.611   1.729   1.918
  564HOH     H2 1879   0.472   1.675   1.889
  565HOH      O 1880   1.861   0.208   0.529
  565HOH     H1 1881   1.922   0.261   0.580
  565HOH     H2 1882   1.824   0.146   0.593
  566HOH      O 1883   3.725   2.043   3.447
  566HOH     H1 1884   3.664   2.104   3.490
  566HOH     H2 1885   3.757   2.093   3.372
  567HOH      O 1886   1.258   0.046   2.473
  567HOH     H1 1887   1.312  -0.010   2.417
  567HOH     H2 1888   1.219   0.109   2.413
  568HOH      O 1889   3.724   1.480   0.629
  568HOH     H1 1890   3.724   1.408   0.566
  568HOH     H2 1891   3.816   1.494   0.649
  569HOH      O 1892   3.506   3.962   3.116
  569HOH     H1 1893   3.486   4.024   3.046
  569HOH     H2 1894   3.596   3.984   3.141
  570HOH      O 1895   3.726   1.598   3.609
  570HOH     H1 1896   3.766   1.678   3.574
  570HOH     H2 1897   3.781   1.576   3.685
  571HOH      O 1898   0.671   3.736   1.240
  571HOH     H1 1899   0.683   3.650   1.279
  571HOH     H2 1900   0.739   3.742   1.173
  572HOH      O 1901   0.343   1.724   0.321
  572HOH     H1 1902   0.252   1.728   0.353
  572HOH     H2 1903   0.337   1.682   0.236
  573HOH      O 1904   2.718   2.027   1.049
  573HOH     H1 1905   2.694   2.098   0.990
  573HOH     H2 1906   2.663   2.040   1.126
  574HOH      O 1907   1.418   2.678   1.084
  574HOH     H1 1908   1.392   2.614   1.150
  574HOH     H2 1909   1.336   2.714   1.052
  575HOH      O 1910   1.139   1.156   0.298
  575HOH     H1 1911   1.172   1.244   0.316
  575HOH     H2 1912   1.146   1.110   0.382
  576HOH      O 1913   2.075   1.470   1.933
  576HOH     H1 1914   2.069   1.520   1.851
  576HOH     H2 1915   2.027   1.390   1.916
  577HOH      O 1916   2.204   3.396   3.064
  577HOH     H1 1917   2.255   3.424   3.140
  577HOH     H2 1918   2.136   3.340   3.100
  578HOH      O 1919   1.613   2.088   0.626
  578HOH     H1 1920   1.622   2.178   0.658
  578HOH     H2 1921   1.546   2.049   0.684
  579HOH      O 1922   2.418   2.652   0.300
  579HOH     H1 1923   2.377   2.694   0.375
  579HOH     H2 1924   2.365   2.573   0.285
  580HOH      O 1925   2.175   2.760   3.565
  580HOH     H1 1926   2.225   2.707   3.627
  580HOH     H2 1927   2.118   2.814   3.620
  581HOH      O 1928   3.526   3.884   0.030
  581HOH     H1 1929   3.463   3.855   0.095
  581HOH     H2 1930   3.611   3.872   0.072
  582HOH      O 1931   3.915   1.471   1.049
  582HOH     H1 1932   3.938   1.476   1.141
  582HOH     H2 1933   3.856   1.396   1.042
  583HOH      O 1934   0.035   1.429   3.378
  583HOH     H1 1935   0.074   1.435   3.291
  583HOH     H2 1936  -0.050   1.474   3.370
  584HOH      O 1937   3.267   3.463   2.884
  584HOH     H1 1938   3.361   3.473   2.899
  584HOH     H2 1939   3.230   3.455   2.972
  585HOH      O 1940   0.133   2.902   1.776
  585HOH     H1 1941   0.076   2.910   1.699
  585HOH     H2 1942   0.220   2.886   1.740
  586HOH      O 1943   2.114   2.166   3.807
  586HOH     H1 1944   2.147   2.203   3.726
  586HOH     H2 1945   2.019   2.181   3.804
  587HOH      O 1946   0.248   1.099   3.108
  587HOH     H1 1947   0.289   1.126   3.027
  587HOH     H2 1948   0.320   1.065   3.162
  588HOH      O 1949   1.018   2.124   3.959
  588HOH     H1 1950   0.961   2.079   4.022
  588HOH     H2 1951   1.086   2.059   3.938
  589HOH      O 1952   1.116   2.915   3.038
  589HOH     H1 1953   1.183   2.983   3.035
  589HOH     H2 1954   1.164   2.833   3.028
  590HOH      O 1955   2.705   1.222   1.846
  590HOH     H1 1956   2.613   1.196   1.841
  590HOH     H2 1957   2.721   1.267   1.763
  591HOH      O 1958   3.262   0.799   1.297
  591HOH     H1 1959   3.171   0.770   1.306
  591HOH     H2 1960   3.309   0.753   1.366
  592HOH      O 1961   2.688   2.099   0.202
  592HOH     H1 1962   2.679   2.041   0.126
  592HOH     H2 1963   2.626   2.170   0.184
  593HOH      O 1964   2.759   3.555   3.581
  593HOH     H1 1965   2.832   3.566   3.520
  593HOH     H2 1966   2.724   3.468   3.561
  594HOH      O 1967   2.016   2.694   0.455
  594HOH     H1 1968   2.008   2.601   0.434
  594HOH     H2 1969   1.976   2.738   0.380
  595HOH      O 1970   3.601   0.802   1.017
  595HOH     H1 1971   3.619   0.891   1.049
  595HOH     H2 1972   3.542   0.815   0.943
  596HOH      O 1973   3.526   3.010   1.907
  596HOH     H1 1974   3.547   3.093   1.951
  596HOH     H2 1975   3.605   2.958   1.915
  597HOH      O 1976   2.798   2.878   2.207
  597HOH     H1 1977   2.838   2.795   2.233
  597HOH     H2 1978   2.753   2.860   2.125
  598HOH      O 1979   3.238   3.728   2.733
  598HOH     H1 1980   3.255   3.680   2.814
  598HOH     H2 1981   3.273   3.816   2.750
  599HOH      O 1982   2.543   0.749   2.686
  599HOH     H1 1983   2.590   0.675   2.646
  599HOH     H2 1984   2.550   0.735   2.780
  600HOH      O 1985   0.058   0.492   3.704
  600HOH     H1 1986   0.046   0.424   3.637
  600HOH     H2 1987  -0.031   0.519   3.726
  601HOH      O 1988   2.943   3.226   3.943
  601HOH     H1 1989   3.021   3.255   3.895
  601HOH     H2 1990   2.966   3.138   3.974
  602HOH      O 1991   0.586   3.490   0.300
  602HOH     H1 1992   0.534   3.460   0.225
  602HOH     H2 1993   0.633   3.567   0.267
  603HOH      O 1994   2.500   1.948   3.043
  603HOH     H1 1995   2.455   2.028   3.014
  603HOH     H2 1996   2.589   1.957   3.010
  604HOH      O 1997   1.201   3.115   0.662
  604HOH     H1 1998   1.132   3.090   0.724
  604HOH     H2 1999   1.174   3.201   0.629
  605HOH      O 2000   3.223   3.293   1.045
  605HOH     H1 2001   3.180   3.351   1.108
  605HOH     H2 2002   3.307   3.335   1.026
  606HOH      O 2003   1.069   2.232   3.467
  606HOH     H1 2004   1.031   2.230   3.379
  606HOH     H2 2005   1.149   2.180   3.460
  607HOH      O 2006   0.534   2.918   1.487
  607HOH     H1 2007   0.448   2.959   1.488
  607HOH     H2 2008   0.580   2.961   1.415
  608HOH      O 2009   3.427   0.125   0.284
  608HOH     H1 2010   3.514   0.096   0.311
  608HOH     H2 2011   3.371   0.110   0.361
  609HOH      O 2012   0.544   1.965   2.096
  609HOH     H1 2013   0.514   1.887   2.049
  609HOH     H2 2014   0.507   1.957   2.183
  610HOH      O 2015   2.095   1.860   0.426
  610HOH     H1 2016   2.086   1.770   0.457
  610HOH     H2 2017   2.049   1.861   0.342
  611HOH      O 2018   2.643   2.386   0.505
  611HOH     H1 2019   2.623   2.295   0.485
  611HOH     H2 2020   2.738   2.389   0.513
  612HOH      O 2021   3.984   1.377   0.759
  612HOH     H1 2022   3.961   1.318   0.831
  612HOH     H2 2023   4.042   1.442   0.800
  613HOH      O 2024   1.614   3.574   2.076
  613HOH     H1 2025   1.555   3.595   2.004
  613HOH     H2 2026   1.685   3.637   2.068
  614HOH      O 2027   3.801   2.891   2.952
  614HOH     H1 2028   3.808   2.979   2.917
  614HOH     H2 2029   3.758   2.902   3.037
  615HOH      O 2030   0.617   2.986   3.771
  615HOH     H1 2031   0.600   2.933   3.694
  615HOH     H2 2032   0.666   3.061   3.739
  616HOH      O 2033   1.131   2.280   1.856
  616HOH     H1 2034   1.089   2.247   1.935
  616HOH     H2 2035   1.221   2.246   1.860
  617HOH      O 2036   1.492   0.221   3.708
  617HOH     H1 2037   1.471   0.305   3.748
  617HOH     H2 2038   1.498   0.240   3.615
  618HOH      O 2039   2.935   3.743   0.898
  618HOH     H1 2040   2.927   3.752   0.993
  618HOH     H2 2041   2.883   3.666   0.876
  619HOH      O 2042   0.337   0.405   2.250
  619HOH     H1 2043   0.375   0.451   2.325
  619HOH     H2 2044   0.331   0.472   2.181
  620HOH      O 2045   3.055   0.391   1.940
  620HOH     H1 2046   2.989   0.331   1.906
  620HOH     H2 2047   3.087   0.438   1.863
  621HOH      O 2048   1.031   2.084   2.422
  621HOH     H1 2049   1.081   2.026   2.364
  621HOH     H2 2050   1.033   2.169   2.378
  622HOH      O 2051   0.815   2.004   2.077
  622HOH     H1 2052   0.728   2.028   2.108
  622HOH     H2 2053   0.799   1.934   2.013
  623HOH      O 2054   2.284   3.529   1.171
  623HOH     H1 2055   2.321   3.477   1.242
  623HOH     H2 2056   2.195   3.496   1.161
  624HOH      O 2057   0.151   1.333   0.220
  624HOH     H1 2058   0.178   1.367   0.306
  624HOH     H2 2059   0.185   1.397   0.158
  625HOH      O 2060   3.666   1.496   1.390
  625HOH     H1 2061   3.757   1.471   1.371
  625HOH     H2 2062   3.654   1.473   1.483
  626HOH      O 2063   2.044   3.377   1.259
  626HOH     H1 2064   2.020   3.317   1.188
  626HOH     H2 2065   1.967   3.433   1.269
  627HOH      O 2066   0.885   3.967   3.867
  627HOH     H1 2067   0.933   3.884   3.863
  627HOH     H2 2068   0.938   4.028   3.816
  628HOH      O 2069   2.307   3.574   0.678
  628HOH     H1 2070   2.277   3.543   0.593
  628HOH     H2 2071   2.370   3.643   0.657
  629HOH      O 2072   2.179   3.080   0.559
  629HOH     H1 2073   2.253   3.087   0.499
  629HOH     H2 2074   2.219   3.073   0.646
  630HOH      O 2075   1.408   2.399   2.089
  630HOH     H1 2076   1.356   2.476   2.065
  630HOH     H2 2077   1.448   2.422   2.172
  631HOH      O 2078   2.280   0.554   1.167
  631HOH     H1 2079   2.212   0.621   1.157
  631HOH     H2 2080   2.236   0.472   1.142
  632HOH      O 2081   0.061   2.663   0.383
  632HOH     H1 2082   0.085   2.570   0.383
  632HOH     H2 2083  -0.030   2.665   0.414
  633HOH      O 2084   0.375   3.775   1.292
  633HOH     H1 2085   0.466   3.755   1.269
  633HOH     H2 2086   0.366   3.868   1.272
  634HOH      O 2087   3.625   1.807   3.232
  634HOH     H1 2088   3.533   1.801   3.203
  634HOH     H2 2089   3.654   1.892   3.201
  635HOH      O 2090   3.293   0.953   1.085
  635HOH     H1 2091   3.365   1.013   1.104
  635HOH     H2 2092   3.277   0.908   1.168
  636HOH      O 2093   3.674   2.918   1.254
  636HOH     H1 2094   3.700   2.932   1.345
  636HOH     H2 2095   3.746   2.956   1.203
  637HOH      O 2096   0.089   1.602   0.911
  637HOH     H1 2097   0.041   1.534   0.959
  637HOH     H2 2098   0.085   1.679   0.968
  638HOH      O 2099   3.493   2.046   2.530
  638HOH     H1 2100   3.455   1.959   2.535
  638HOH     H2 2101   3.515   2.057   2.437
  639HOH      O 2102   0.628   2.681   3.986
  639HOH     H1 2103   0.579   2.617   4.038
  639HOH     H2 2104   0.575   2.761   3.991
  640HOH      O 2105   1.352   1.689   3.500
  640HOH     H1 2106   1.377   1.636   3.425
  640HOH     H2 2107   1.257   1.699   3.493
  641HOH      O 2108   0.175   0.718   0.442
  641HOH     H1 2109   0.219   0.633   0.445
  641HOH     H2 2110   0.229   0.775   0.497
  642HOH      O 2111   1.715   3.835   2.059
  642HOH     H1 2112   1.798   3.800   2.029
  642HOH     H2 2113   1.677   3.878   1.982
  643HOH      O 2114   0.944   0.830   0.545
  643HOH     H1 2115   0.867   0.803   0.496
  643HOH     H2 2116   1.014   0.833   0.479
  644HOH      O 2117   2.567   3.726   1.086
  644HOH     H1 2118   2.647   3.708   1.134
  644HOH     H2 2119   2.497   3.701   1.147
  645HOH      O 2120   3.207   3.634   3.444
  645HOH     H1 2121   3.163   3.690   3.381
  645HOH     H2 2122   3.245   3.695   3.508
  646HOH      O 2123   3.175   2.752   1.378
  646HOH     H1 2124   3.238   2.824   1.389
  646HOH     H2 2125   3.098   2.794   1.340
  647HOH      O 2126   1.617   0.396   2.909
  647HOH     H1 2127   1.692   0.339   2.922
  647HOH     H2 2128   1.566   0.353   2.840
  648HOH      O 2129   2.757   0.485   3.926
  648HOH     H1 2130   2.734   0.396   3.953
  648HOH     H2 2131   2.842   0.502   3.966
  649HOH      O 2132   2.834   0.328   2.820
  649HOH     H1 2133   2.816   0.236   2.801
  649HOH     H2 2134   2.929   0.336   2.813
  650HOH      O 2135   0.544   2.031   3.533
  650HOH     H1 2136   0.630   2.073   3.531
  650HOH     H2 2137   0.488   2.093   3.579
  651HOH      O 2138   2.870   2.133   3.834
  651HOH     H1 2139   2.916   2.162   3.913
  651HOH     H2 2140   2.916   2.178   3.763
  652HOH      O 2141   0.058   3.459   2.387
  652HOH     H1 2142  -0.010   3.392   2.388
  652HOH     H2 2143   0.140   3.410   2.385
  653HOH      O 2144   3.237   2.363   2.128
  653HOH     H1 2145   3.306   2.301   2.105
  653HOH     H2 2146   3.260   2.443   2.081
  654HOH      O 2147   2.721   1.589   1.974
  654HOH     H1 2148   2.711   1.612   2.066
  654HOH     H2 2149   2.694   1.497   1.970
  655HOH      O 2150   3.988   2.258   1.986
  655HOH     H1 2151   3.929   2.302   1.924
  655HOH     H2 2152   4.055   2.324   2.005
  656HOH      O 2153   3.740   4.028   2.070
  656HOH     H1 2154   3.827   4.047   2.106
  656HOH     H2 2155   3.699   3.972   2.137
  657HOH      O 2156   2.762   2.342   1.996
  657HOH     H1 2157   2.768   2.427   1.952
  657HOH     H2 2158   2.838   2.341   2.055
  658HOH      O 2159   0.659   0.719   3.702
  658HOH     H1 2160   0.622   0.639   3.739
  658HOH     H2 2161   0.607   0.789   3.742
  659HOH      O 2162   3.052   3.344   0.827
  659HOH     H1 2163   3.107   3.319   0.901
  659HOH     H2 2164   3.103   3.410   0.781
  660HOH      O 2165   0.277   3.393   1.718
  660HOH     H1 2166   0.300   3.428   1.804
  660HOH     H2 2167   0.199   3.341   1.733
  661HOH      O 2168   1.475   2.340   0.499
  661HOH     H1 2169   1.459   2.267   0.439
  661HOH     H2 2170   1.430   2.414   0.459
  662HOH      O 2171   1.245   3.264   1.630
  662HOH     H1 2172   1.326   3.265   1.681
  662HOH     H2 2173   1.206   3.349   1.647
  663HOH      O 2174   2.476   0.084   0.759
  663HOH     H1 2175   2.385   0.053   0.764
  663HOH     H2 2176   2.523   0.029   0.823
  664HOH      O 2177   0.398   1.494   1.539
  664HOH     H1 2178   0.305   1.498   1.515
  664HOH     H2 2179   0.429   1.413   1.498
  665HOH      O 2180   1.786   4.022   0.677
  665HOH     H1 2181   1.826   4.016   0.764
  665HOH     H2 2182   1.694   4.043   0.694
  666HOH      O 2183   1.409   1.739   2.967
  666HOH     H1 2184   1.356   1.809   2.929
  666HOH     H2 2185   1.471   1.715   2.897
  667HOH      O 2186   0.852   1.853   3.367
  667HOH     H1 2187   0.795   1.923   3.334
  667HOH     H2 2188   0.873   1.801   3.290
  668HOH      O 2189   1.881   3.058   2.999
  668HOH     H1 2190   1.854   3.041   3.089
  668HOH     H2 2191   1.960   3.007   2.987
  669HOH      O 2192   1.766   1.645   3.865
  669HOH     H1 2193   1.705   1.587   3.818
  669HOH     H2 2194   1.788   1.712   3.801
  670HOH      O 2195   2.465   2.632   2.170
  670HOH     H1 2196   2.375   2.649   2.196
  670HOH     H2 2197   2.513   2.627   2.252
  671HOH      O 2198   3.026   2.117   1.960
  671HOH     H1 2199   2.968   2.081   1.893
  671HOH     H2 2200   3.090   2.169   1.911
  672HOH      O 2201   3.898   2.014   3.751
  672HOH     H1 2202   3.898   2.109   3.735
  672HOH     H2 2203   3.835   2.002   3.822
  673HOH      O 2204   0.891   2.761   2.195
  673HOH     H1 2205   0.859   2.808   2.118
  673HOH     H2 2206   0.935   2.683   2.159
  674HOH      O 2207   2.121   4.002   3.590
  674HOH     H1 2208   2.042   4.003   3.644
  674HOH     H2 2209   2.184   4.055   3.639
  675HOH      O 2210   3.031   1.366   0.523
  675HOH     H1 2211   2.957   1.318   0.560
  675HOH     H2 2212   3.079   1.399   0.599
  676HOH      O 2213   0.750   1.322   2.272
  676HOH     H1 2214   0.772   1.230   2.256
  676HOH     H2 2215   0.667   1.335   2.226
  677HOH      O 2216   0.764   2.410   3.391
  677HOH     H1 2217   0.800   2.443   3.473
  677HOH     H2 2218   0.677   2.378   3.413
  678HOH      O 2219   3.627   1.526   2.276
  678HOH     H1 2220   3.621   1.621   2.276
  678HOH     H2 2221   3.637   1.502   2.368
  679HOH      O 2222   3.847   1.819   3.554
  679HOH     H1 2223   3.800   1.880   3.498
  679HOH     H2 2224   3.878   1.872   3.627
  680HOH      O 2225   2.024   0.781   3.078
  680HOH     H1 2226   2.093   0.736   3.127
  680HOH     H2 2227   1.955   0.715   3.069
  681HOH      O 2228   2.128   1.061   0.218
  681HOH     H1 2229   2.095   1.151   0.212
  681HOH     H2 2230   2.223   1.071   0.229
  682HOH      O 2231   0.947   1.494   2.311
  682HOH     H1 2232   0.873   1.437   2.289
  682HOH     H2 2233   0.912   1.555   2.376
  683HOH      O 2234  -0.002   1.487   1.618
  683HOH     H1 2235   0.042   1.524   1.541
  683HOH     H2 2236   0.003   1.556   1.684
  684HOH      O 2237   1.644   3.755   2.349
  684HOH     H1 2238   1.618   3.679   2.296
  684HOH     H2 2239   1.733   3.734   2.378
  685HOH      O 2240   2.638   3.942   3.940
  685HOH     H1 2241   2.680   4.026   3.922
  685HOH     H2 2242   2.686   3.879   3.887
  686HOH      O 2243   1.452   1.917   0.369
  686HOH     H1 2244   1.416   1.881   0.288
  686HOH     H2 2245   1.381   1.910   0.432
  687HOH      O 2246   2.468   0.922   1.780
  687HOH     H1 2247   2.533   0.914   1.711
  687HOH     H2 2248   2.473   1.013   1.808
  688HOH      O 2249   2.506   0.645   1.079
  688HOH     H1 2250   2.430   0.601   1.118
  688HOH     H2 2251   2.472   0.729   1.050
  689HOH      O 2252   3.148   3.005   2.991
  689HOH     H1 2253   3.237   3.038   2.979
  689HOH     H2 2254   3.159   2.914   3.017
  690HOH      O 2255   1.960   1.553   3.354
  690HOH     H1 2256   2.042   1.515   3.323
  690HOH     H2 2257   1.977   1.647   3.360
  691HOH      O 2258   1.587   1.440   0.060
  691HOH     H1 2259   1.630   1.372   0.009
  691HOH     H2 2260   1.528   1.482  -0.002
  692HOH      O 2261   3.257   0.343   3.104
  692HOH     H1 2262   3.334   0.378   3.059
  692HOH     H2 2263   3.280   0.252   3.122
  693HOH      O 2264   0.371   1.790   1.331
  693HOH     H1 2265   0.460   1.814   1.358
  693HOH     H2 2266   0.338   1.737   1.404
  694HOH      O 2267   2.991   0.408   2.214
  694HOH     H1 2268   2.995   0.434   2.122
  694HOH     H2 2269   3.040   0.477   2.260
  695HOH      O 2270   2.131   0.202   0.830
  695HOH     H1 2271   2.213   0.252   0.819
  695HOH     H2 2272   2.160   0.115   0.858
  696HOH      O 2273   3.692   3.346   2.747
  696HOH     H1 2274   3.680   3.413   2.679
  696HOH     H2 2275   3.624   3.281   2.729
  697HOH      O 2276   1.005   1.563   1.129
  697HOH     H1 2277   1.034   1.499   1.194
  697HOH     H2 2278   1.085   1.610   1.105
  698HOH      O 2279   2.703   1.390   1.260
  698HOH     H1 2280   2.776   1.448   1.281
  698HOH     H2 2281   2.744   1.305   1.242
  699HOH      O 2282   1.994   3.521   0.520
  699HOH     H1 2283   1.962   3.596   0.570
  699HOH     H2 2284   1.931   3.512   0.448
  700HOH      O 2285   2.029   0.482   1.687
  700HOH     H1 2286   1.964   0.448   1.626
  700HOH     H2 2287   2.034   0.416   1.756
  701HOH      O 2288   2.293   1.164   3.188
  701HOH     H1 2289   2.348   1.235   3.156
  701HOH     H2 2290   2.283   1.106   3.112
  702HOH      O 2291   2.406   0.351   2.798
  702HOH     H1 2292   2.399   0.315   2.709
  702HOH     H2 2293   2.367   0.283   2.854
  703HOH      O 2294   1.985   3.745   2.453
  703HOH     H1 2295   1.943   3.664   2.424
  703HOH     H2 2296   2.018   3.726   2.541
  704HOH      O 2297   1.544   0.369   0.996
  704HOH     H1 2298   1.536   0.365   1.092
  704HOH     H2 2299   1.557   0.278   0.970
  705HOH      O 2300   2.312   2.753   0.505
  705HOH     H1 2301   2.271   2.715   0.583
  705HOH     H2 2302   2.386   2.804   0.540
  706HOH      O 2303   0.045   3.910   0.915
  706HOH     H1 2304   0.061   3.932   1.007
  706HOH     H2 2305   0.014   3.992   0.876
  707HOH      O 2306   3.656   1.813   2.171
  707HOH     H1 2307   3.576   1.785   2.127
  707HOH     H2 2308   3.625   1.869   2.242
  708HOH      O 2309   0.153   2.719   2.090
  708HOH     H1 2310   0.232   2.696   2.041
  708HOH     H2 2311   0.157   2.667   2.169
  709HOH      O 2312   3.402   0.113   2.914
  709HOH     H1 2313   3.410   0.163   2.833
  709HOH     H2 2314   3.326   0.057   2.901
  710HOH      O 2315   0.543   3.662   1.693
  710HOH     H1 2316   0.516   3.615   1.772
  710HOH     H2 2317   0.632   3.691   1.712
  711HOH      O 2318   1.058   1.583   0.190
  711HOH     H1 2319   1.083   1.582   0.282
  711HOH     H2 2320   0.981   1.640   0.186
  712HOH      O 2321   3.414   2.374   2.823
  712HOH     H1 2322   3.347   2.442   2.830
  712HOH     H2 2323   3.475   2.394   2.893
  713HOH      O 2324   2.299   0.068   2.869
  713HOH     H1 2325   2.304   0.111   2.955
  713HOH     H2 2326   2.314  -0.025   2.888
  714HOH      O 2327   3.498   2.597   2.253
  714HOH     H1 2328   3.428   2.593   2.188
  714HOH     H2 2329   3.568   2.543   2.215
  715HOH      O 2330   1.273   0.789   0.402
  715HOH     H1 2331   1.356   0.816   0.364
  715HOH     H2 2332   1.259   0.700   0.368
  716HOH      O 2333   2.439   4.049   1.998
  716HOH     H1 2334   2.533   4.038   1.993
  716HOH     H2 2335   2.407   3.971   2.044
  717HOH      O 2336   2.277   0.609   2.451
  717HOH     H1 2337   2.338   0.632   2.380
  717HOH     H2 2338   2.270   0.514   2.446
  718HOH      O 2339   3.025   1.642   3.976
  718HOH     H1 2340   2.991   1.570   4.028
  718HOH     H2 2341   3.035   1.605   3.888
  719HOH      O 2342   0.935   2.359   1.687
  719HOH     H1 2343   0.896   2.443   1.712
  719HOH     H2 2344   1.005   2.345   1.751
  720HOH      O 2345   2.008   3.226   3.792
  720HOH     H1 2346   2.010   3.132   3.777
  720HOH     H2 2347   2.101   3.252   3.794
  721HOH      O 2348   2.913   0.197   0.109
  721HOH     H1 2349   2.927   0.181   0.016
  721HOH     H2 2350   2.962   0.128   0.153
  722HOH      O 2351   1.544   1.951   2.445
  722HOH     H1 2352   1.479   1.947   2.375
  722HOH     H2 2353   1.616   2.002   2.407
  723HOH      O 2354   3.498   0.012   1.857
  723HOH     H1 2355   3.562   0.020   1.928
  723HOH     H2 2356   3.528   0.073   1.790
  724HOH      O 2357   3.719   3.866   0.217
  724HOH     H1 2358   3.714   3.862   0.313
  724HOH     H2 2359   3.773   3.791   0.193
  725HOH      O 2360   2.684   3.899   3.528
  725HOH     H1 2361   2.711   3.862   3.612
  725HOH     H2 2362   2.742   3.974   3.514
  726HOH      O 2363   1.753   1.287   0.943
  726HOH     H1 2364   1.760   1.206   0.893
  726HOH     H2 2365   1.706   1.262   1.022
  727HOH      O 2366   1.128   1.372   1.298
  727HOH     H1 2367   1.088   1.285   1.299
  727HOH     H2 2368   1.184   1.373   1.376
  728HOH      O 2369   0.486   3.217   3.027
  728HOH     H1 2370   0.472   3.122   3.029
  728HOH     H2 2371   0.478   3.240   2.934
  729HOH      O 2372   2.061   3.535   2.128
  729HOH     H1 2373   2.065   3.441   2.149
  729HOH     H2 2374   1.971   3.560   2.148
  730HOH      O 2375   3.209   2.905   3.548
  730HOH     H1 2376   3.123   2.892   3.509
  730HOH     H2 2377   3.197   2.885   3.641
  731HOH      O 2378   0.134   1.340   3.111
  731HOH     H1 2379   0.155   1.247   3.110
  731HOH     H2 2380   0.186   1.378   3.040
  732HOH      O 2381   1.372   2.869   2.631
  732HOH     H1 2382   1.284   2.831   2.626
  732HOH     H2 2383   1.431   2.795   2.615
  733HOH      O 2384   0.312   2.150   1.256
  733HOH     H1 2385   0.372   2.201   1.201
  733HOH     H2 2386   0.283   2.078   1.200
  734HOH      O 2387   1.958   2.181   2.894
  734HOH     H1 2388   2.038   2.130   2.881
  734HOH     H2 2389   1.928   2.201   2.806
  735HOH      O 2390   0.201   0.362   0.259
  735HOH     H1 2391   0.113   0.335   0.285
  735HOH     H2 2392   0.218   0.440   0.311
  736HOH      O 2393   0.769   1.593   3.944
  736HOH     H1 2394   0.804   1.504   3.950
  736HOH     H2 2395   0.704   1.590   3.875
  737HOH      O 2396   3.126   3.247   1.637
  737HOH     H1 2397   3.101   3.319   1.579
  737HOH     H2 2398   3.117   3.283   1.725
  738HOH      O 2399   1.690   0.701   3.542
  738HOH     H1 2400   1.719   0.792   3.544
  738HOH     H2 2401   1.697   0.671   3.633
  739HOH      O 2402   3.078   3.848   3.961
  739HOH     H1 2403   3.029   3.785   4.014
  739HOH     H2 2404   3.126   3.900   4.026
  740HOH      O 2405   3.489   3.296   3.546
  740HOH     H1 2406   3.405   3.260   3.578
  740HOH     H2 2407   3.468   3.386   3.520
  741HOH      O 2408   1.675   3.946   2.714
  741HOH     H1 2409   1.681   4.010   2.643
  741HOH     H2 2410   1.585   3.955   2.747
  742HOH      O 2411   1.209   1.444   3.094
  742HOH     H1 2412   1.228   1.426   3.002
  742HOH     H2 2413   1.118   1.418   3.105
  743HOH      O 2414   3.135   1.964   3.806
  743HOH     H1 2415   3.073   2.036   3.794
  743HOH     H2 2416   3.084   1.886   3.785
  744HOH      O 2417   1.752   1.725   2.851
  744HOH     H1 2418   1.760   1.805   2.799
  744HOH     H2 2419   1.709   1.662   2.793
  745HOH      O 2420   1.630   1.207   2.208
  745HOH     H1 2421   1.630   1.124   2.158
  745HOH     H2 2422   1.593   1.271   2.147
  746HOH      O 2423   3.966   3.717   0.221
  746HOH     H1 2424   4.002   3.803   0.243
  746HOH     H2 2425   4.006   3.658   0.284
  747HOH      O 2426   2.111   2.422   1.476
  747HOH     H1 2427   2.151   2.499   1.435
  747HOH     H2 2428   2.067   2.377   1.404
  748HOH      O 2429   1.280   3.602   3.618
  748HOH     H1 2430   1.353   3.563   3.569
  748HOH     H2 2431   1.202   3.575   3.569
  749HOH      O 2432   2.803   3.457   2.017
  749HOH     H1 2433   2.897   3.446   2.032
  749HOH     H2 2434   2.774   3.517   2.086
  750HOH      O 2435   1.227   0.220   1.364
  750HOH     H1 2436   1.299   0.267   1.405
  750HOH     H2 2437   1.188   0.284   1.304
  751HOH      O 2438   1.184   0.334   3.900
  751HOH     H1 2439   1.268   0.380   3.900
  751HOH     H2 2440   1.119   0.403   3.889
  752HOH      O 2441   1.055   3.106   3.833
  752HOH     H1 2442   1.079   3.098   3.740
  752HOH     H2 2443   1.031   3.198   3.843
  753HOH      O 2444   3.809   0.607   1.726
  753HOH     H1 2445   3.900   0.615   1.755
  753HOH     H2 2446   3.801   0.518   1.692
  754HOH      O 2447   1.419   0.694   0.687
  754HOH     H1 2448   1.417   0.623   0.752
  754HOH     H2 2449   1.329   0.725   0.682
  755HOH      O 2450   1.890   1.579   3.045
  755HOH     H1 2451   1.839   1.623   2.977
  755HOH     H2 2452   1.945   1.516   2.998
  756HOH      O 2453   1.380   0.819   3.988
  756HOH     H1 2454   1.372   0.894   4.048
  756HOH     H2 2455   1.341   0.849   3.906
  757HOH      O 2456   2.895   1.548   1.089
  757HOH     H1 2457   2.943   1.546   1.172
  757HOH     H2 2458   2.854   1.635   1.087
  758HOH      O 2459   2.448   2.433   3.954
  758HOH     H1 2460   2.440   2.386   4.037
  758HOH     H2 2461   2.532   2.403   3.918
  759HOH      O 2462   0.991   1.629   1.541
  759HOH     H1 2463   0.917   1.611   1.483
  759HOH     H2 2464   0.995   1.554   1.600
  760HOH      O 2465   2.346   2.499   3.234
  760HOH     H1 2466   2.423   2.543   3.269
  760HOH     H2 2467   2.362   2.406   3.250
  761HOH      O 2468   1.859   1.064   1.538
  761HOH     H1 2469   1.804   0.986   1.544
  761HOH     H2 2470   1.944   1.031   1.506
  762HOH      O 2471   1.032   1.444   0.480
  762HOH     H1 2472   1.034   1.514   0.546
  762HOH     H2 2473   1.110   1.391   0.499
  763HOH      O 2474   0.793   2.222   0.958
  763HOH     H1 2475   0.833   2.213   0.871
  763HOH     H2 2476   0.720   2.283   0.945
  764HOH      O 2477   3.420   3.205   2.383
  764HOH     H1 2478   3.410   3.283   2.328
  764HOH     H2 2479   3.483   3.151   2.336
  765HOH      O 2480   1.224   1.708   1.089
  765HOH     H1 2481   1.247   1.737   1.177
  765HOH     H2 2482   1.175   1.782   1.051
  766HOH      O 2483   1.582   3.956   4.032
  766HOH     H1 2484   1.669   3.955   3.991
  766HOH     H2 2485   1.540   3.876   4.000
  767HOH      O 2486   2.701   3.571   1.295
  767HOH     H1 2487   2.730   3.531   1.377
  767HOH     H2 2488   2.632   3.632   1.321
  768HOH      O 2489   3.854   3.959   3.467
  768HOH     H1 2490   3.853   3.923   3.556
  768HOH     H2 2491   3.803   4.040   3.474
  769HOH      O 2492   3.714   2.765   3.406
  769HOH     H1 2493   3.634   2.767   3.459
  769HOH     H2 2494   3.784   2.773   3.471
  770HOH      O 2495   3.691   0.858   1.673
  770HOH     H1 2496   3.727   0.911   1.745
  770HOH     H2 2497   3.731   0.772   1.685
  771HOH      O 2498   1.279   2.514   2.706
  771HOH     H1 2499   1.294   2.426   2.671
  771HOH     H2 2500   1.361   2.536   2.751
  772HOH      O 2501   3.387   1.883   3.839
  772HOH     H1 2502   3.299   1.921   3.842
  772HOH     H2 2503   3.384   1.822   3.766
  773HOH      O 2504   0.225   3.231   3.716
  773HOH     H1 2505   0.252   3.226   3.624
  773HOH     H2 2506   0.300   3.270   3.761
  774HOH      O 2507   1.844   2.850   3.912
  774HOH     H1 2508   1.764   2.884   3.952
  774HOH     H2 2509   1.813   2.797   3.839
  775HOH      O 2510   2.745   1.974   3.395
  775HOH     H1 2511   2.690   1.926   3.332
  775HOH     H2 2512   2.722   2.066   3.381
  776HOH      O 2513   0.421   2.875   1.739
  776HOH     H1 2514   0.474   2.874   1.819
  776HOH     H2 2515   0.483   2.857   1.669
  777HOH      O 2516   0.822   0.468   0.051
  777HOH     H1 2517   0.872   0.437   0.127
  777HOH     H2 2518   0.886   0.516  -0.002
  778HOH      O 2519   2.740   0.499   2.047
  778HOH     H1 2520   2.646   0.519   2.042
  778HOH     H2 2521   2.781   0.559   1.985
  779HOH      O 2522   1.141   3.007   0.421
  779HOH     H1 2523   1.062   2.974   0.463
  779HOH     H2 2524   1.203   3.021   0.493
  780HOH      O 2525   1.339   2.121   2.064
  780HOH     H1 2526   1.358   2.212   2.086
  780HOH     H2 2527   1.422   2.087   2.029
  781HOH      O 2528   0.802   2.926   3.439
  781HOH     H1 2529   0.810   2.840   3.398
  781HOH     H2 2530   0.846   2.917   3.523
  782HOH      O 2531   2.229   3.788   0.262
  782HOH     H1 2532   2.212   3.859   0.200
  782HOH     H2 2533   2.300   3.738   0.223
  783HOH      O 2534   1.893   2.873   0.277
  783HOH     H1 2535   1.922   2.955   0.237
  783HOH     H2 2536   1.809   2.853   0.236
  784HOH      O 2537   0.492   4.018   0.826
  784HOH     H1 2538   0.546   4.085   0.868
  784HOH     H2 2539   0.525   3.935   0.861
  785HOH      O 2540   0.150   1.658   1.471
  785HOH     H1 2541   0.137   1.736   1.524
  785HOH     H2 2542   0.100   1.674   1.391
  786HOH      O 2543   3.518   2.295   1.072
  786HOH     H1 2544   3.458   2.232   1.033
  786HOH     H2 2545   3.604   2.253   1.067
  787HOH      O 2546   3.868   3.731   3.944
  787HOH     H1 2547   3.921   3.668   3.895
  787HOH     H2 2548   3.801   3.678   3.987
  788HOH      O 2549   0.027   1.163   0.613
  788HOH     H1 2550   0.119   1.176   0.634
  788HOH     H2 2551  -0.018   1.237   0.655
  789HOH      O 2552   0.252   1.185   3.659
  789HOH     H1 2553   0.239   1.227   3.574
  789HOH     H2 2554   0.211   1.099   3.650
  790HOH      O 2555   2.803   0.755   0.779
  790HOH     H1 2556   2.730   0.812   0.804
  790HOH     H2 2557   2.813   0.695   0.854
  791HOH      O 2558   2.090   2.782   2.444
  791HOH     H1 2559   2.073   2.839   2.369
  791HOH     H2 2560   2.014   2.795   2.501
  792HOH      O 2561   2.075   2.945   3.738
  792HOH     H1 2562   2.153   2.908   3.780
  792HOH     H2 2563   2.004   2.929   3.800
  793HOH      O 2564   0.633   0.647   4.027
  793HOH     H1 2565   0.703   0.701   3.991
  793HOH     H2 2566   0.676   0.563   4.047
  794HOH      O 2567   3.656   2.769   2.421
  794HOH     H1 2568   3.636   2.700   2.359
  794HOH     H2 2569   3.616   2.740   2.503
  795HOH      O 2570   2.114   1.862   3.434
  795HOH     H1 2571   2.072   1.854   3.348
  795HOH     H2 2572   2.143   1.953   3.438
  796HOH      O 2573   0.522   2.411   3.548
  796HOH     H1 2574   0.599   2.391   3.600
  796HOH     H2 2575   0.467   2.333   3.555
  797HOH      O 2576   0.446   2.781   3.634
  797HOH     H1 2577   0.374   2.729   3.600
  797HOH     H2 2578   0.405   2.861   3.667
  798HOH      O 2579   1.403   1.553   3.907
  798HOH     H1 2580   1.321   1.602   3.895
  798HOH     H2 2581   1.452   1.569   3.826
  799HOH      O 2582   1.439   0.645   1.239
  799HOH     H1 2583   1.490   0.569   1.214
  799HOH     H2 2584   1.499   0.719   1.230
  800HOH      O 2585   2.329   2.462   1.052
  800HOH     H1 2586   2.268   2.442   1.122
  800HOH     H2 2587   2.354   2.554   1.067
  801HOH      O 2588   3.915   2.610   2.004
  801HOH     H1 2589   4.004   2.642   2.015
  801HOH     H2 2590   3.883   2.595   2.093
  802HOH      O 2591   2.397   2.447   1.970
  802HOH     H1 2592   2.385   2.484   1.883
  802HOH     H2 2593   2.429   2.520   2.023
  803HOH      O 2594   3.543   3.265   1.301
  803HOH     H1 2595   3.518   3.191   1.245
  803HOH     H2 2596   3.611   3.229   1.357
  804HOH      O 2597   0.241   1.233   3.382
  804HOH     H1 2598   0.154   1.273   3.377
  804HOH     H2 2599   0.231   1.150   3.336
  805HOH      O 2600   1.694   2.511   2.709
  805HOH     H1 2601   1.765   2.554   2.756
  805HOH     H2 2602   1.617   2.521   2.765
  806HOH      O 2603   2.840   2.995   0.207
  806HOH     H1 2604   2.858   3.084   0.235
  806HOH     H2 2605   2.854   2.941   0.285
  807HOH      O 2606   2.061   1.867   1.249
  807HOH     H1 2607   2.088   1.854   1.157
  807HOH     H2 2608   2.128   1.925   1.285
  808HOH      O 2609   3.926   2.653   1.496
  808HOH     H1 2610   3.872   2.589   1.449
  808HOH     H2 2611   3.891   2.652   1.585
  809HOH      O 2612   0.173   1.565   3.576
  809HOH     H1 2613   0.114   1.512   3.523
  809HOH     H2 2614   0.260   1.541   3.545
  810HOH      O 2615   0.615   0.590   3.355
  810HOH     H1 2616   0.700   0.563   3.391
  810HOH     H2 2617   0.569   0.507   3.341
  811HOH      O 2618   3.502   0.649   2.514
  811HOH     H1 2619   3.421   0.698   2.500
  811HOH     H2 2620   3.550   0.657   2.431
  812HOH      O 2621   3.535   0.650   3.545
  812HOH     H1 2622   3.616   0.604   3.526
  812HOH     H2 2623   3.470   0.580   3.558
  813HOH      O 2624   0.966   0.338   1.301
  813HOH     H1 2625   0.995   0.400   1.367
  813HOH     H2 2626   1.022   0.355   1.225
  814HOH      O 2627   1.948   3.332   0.053
  814HOH     H1 2628   2.017   3.394   0.078
  814HOH     H2 2629   1.962   3.319  -0.041
  815HOH      O 2630   2.491   0.959   2.995
  815HOH     H1 2631   2.479   0.914   3.079
  815HOH     H2 2632   2.404   0.958   2.956
  816HOH      O 2633   3.131   2.089   2.489
  816HOH     H1 2634   3.102   2.180   2.497
  816HOH     H2 2635   3.135   2.073   2.395
  817HOH      O 2636   0.078   3.312   0.537
  817HOH     H1 2637  -0.008   3.297   0.576
  817HOH     H2 2638   0.101   3.401   0.563
  818HOH      O 2639   3.857   0.206   0.611
  818HOH     H1 2640   3.789   0.183   0.675
  818HOH     H2 2641   3.931   0.235   0.664
  819HOH      O 2642   2.037   3.480   3.512
  819HOH     H1 2643   2.062   3.567   3.482
  819HOH     H2 2644   2.032   3.488   3.608
  820HOH      O 2645   0.074   0.912   3.154
  820HOH     H1 2646   0.139   0.973   3.120
  820HOH     H2 2647   0.123   0.832   3.174
  821HOH      O 2648   3.573   0.735   3.156
  821HOH     H1 2649   3.620   0.758   3.076
  821HOH     H2 2650   3.624   0.663   3.194
  822HOH      O 2651   2.289   1.467   0.929
  822HOH     H1 2652   2.252   1.495   1.013
  822HOH     H2 2653   2.384   1.475   0.941
  823HOH      O 2654   3.451   3.486   3.983
  823HOH     H1 2655   3.533   3.450   3.950
  823HOH     H2 2656   3.391   3.412   3.985
  824HOH      O 2657   0.208   3.618   0.530
  824HOH     H1 2658   0.284   3.574   0.568
  824HOH     H2 2659   0.203   3.702   0.577
  825HOH      O 2660   3.108   1.374   0.785
  825HOH     H1 2661   3.176   1.312   0.810
  825HOH     H2 2662   3.129   1.453   0.836
  826HOH      O 2663   3.448   2.854   3.006
  826HOH     H1 2664   3.446   2.925   2.941
  826HOH     H2 2665   3.524   2.874   3.060
  827HOH      O 2666   0.328   2.017   2.442
  827HOH     H1 2667   0.298   2.074   2.371
  827HOH     H2 2668   0.384   1.952   2.399
  828HOH      O 2669   0.613   0.006   3.803
  828HOH     H1 2670   0.603   0.085   3.856
  828HOH     H2 2671   0.693  -0.035   3.837
  829HOH      O 2672   0.774   2.991   0.718
  829HOH     H1 2673   0.847   3.034   0.764
  829HOH     H2 2674   0.708   3.059   0.708
  830HOH      O 2675   1.916   3.775   0.617
  830HOH     H1 2676   1.993   3.821   0.584
  830HOH     H2 2677   1.848   3.842   0.620
  831HOH      O 2678   1.353   2.965   1.861
  831HOH     H1 2679   1.313   2.968   1.948
  831HOH     H2 2680   1.279   2.962   1.800
  832HOH      O 2681   2.730   3.868   2.533
  832HOH     H1 2682   2.819   3.885   2.502
  832HOH     H2 2683   2.675   3.925   2.481
  833HOH      O 2684   3.898   0.981   3.620
  833HOH     H1 2685   3.874   1.059   3.569
  833HOH     H2 2686   3.869   0.908   3.565
  834HOH      O 2687   2.838   1.467   0.054
  834HOH     H1 2688   2.799   1.431  -0.025
  834HOH     H2 2689   2.840   1.395   0.116
  835HOH      O 2690   3.228   0.800   2.026
  835HOH     H1 2691   3.207   0.794   1.933
  835HOH     H2 2692   3.275   0.882   2.035
  836HOH      O 2693   1.515   2.096   1.517
  836HOH     H1 2694   1.560   2.166   1.564
  836HOH     H2 2695   1.563   2.016   1.541
  837HOH      O 2696   3.198   1.272   2.084
  837HOH     H1 2697   3.182   1.254   2.176
  837HOH     H2 2698   3.111   1.273   2.044
  838HOH      O 2699   0.521   2.050   3.990
  838HOH     H1 2700   0.586   2.012   3.931
  838HOH     H2 2701   0.524   2.144   3.973
  839HOH      O 2702   0.746   2.050   2.827
  839HOH     H1 2703   0.835   2.050   2.791
  839HOH     H2 2704   0.703   2.122   2.781
  840HOH      O 2705   1.856   3.525   2.347
  840HOH     H1 2706   1.799   3.448   2.346
  840HOH     H2 2707   1.937   3.495   2.388
  841HOH      O 2708   3.813   3.401   2.166
  841HOH     H1 2709   3.833   3.491   2.141
  841HOH     H2 2710   3.797   3.404   2.260
  842HOH      O 2711   0.565   3.239   1.942
  842HOH     H1 2712   0.556   3.200   1.855
  842HOH     H2 2713   0.562   3.333   1.927
  843HOH      O 2714   3.937   3.661   2.247
  843HOH     H1 2715   3.972   3.601   2.312
  843HOH     H2 2716   4.005   3.667   2.180
  844HOH      O 2717   1.675   1.044   0.832
  844HOH     H1 2718   1.659   0.956   0.865
  844HOH     H2 2719   1.589   1.075   0.804
  845HOH      O 2720   0.671   1.840   0.734
  845HOH     H1 2721   0.660   1.759   0.684
  845HOH     H2 2722   0.605   1.899   0.697
  846HOH      O 2723   0.204   1.213   3.932
  846HOH     H1 2724   0.121   1.165   3.935
  846HOH     H2 2725   0.233   1.205   3.841
  847HOH      O 2726   3.941   3.626   0.542
  847HOH     H1 2727   3.919   3.717   0.523
  847HOH     H2 2728   4.035   3.621   0.526
  848HOH      O 2729   2.361   2.838   1.627
  848HOH     H1 2730   2.444   2.845   1.581
  848HOH     H2 2731   2.384   2.844   1.719
  849HOH      O 2732   1.952   0.837   3.688
  849HOH     H1 2733   2.006   0.819   3.765
  849HOH     H2 2734   1.956   0.756   3.636
  850HOH      O 2735   0.886   0.099   0.039
  850HOH     H1 2736   0.867   0.040  -0.034
  850HOH     H2 2737   0.802   0.141   0.059
  851HOH      O 2738   3.784   1.802   2.643
  851HOH     H1 2739   3.702   1.778   2.685
  851HOH     H2 2740   3.842   1.826   2.715
  852HOH      O 2741   2.715   3.707   1.784
  852HOH     H1 2742   2.663   3.720   1.863
  852HOH     H2 2743   2.701   3.615   1.761
  853HOH      O 2744   3.560   3.579   1.585
  853HOH     H1 2745   3.645   3.577   1.542
  853HOH     H2 2746   3.562   3.658   1.639
  854HOH      O 2747   1.079   0.012   3.008
  854HOH     H1 2748   1.147   0.029   3.073
  854HOH     H2 2749   1.087   0.084   2.946
  855HOH      O 2750   2.606   3.212   2.247
  855HOH     H1 2751   2.688   3.178   2.281
  855HOH     H2 2752   2.602   3.182   2.157
  856HOH      O 2753   1.310   0.862   2.632
  856HOH     H1 2754   1.288   0.774   2.602
  856HOH     H2 2755   1.404   0.870   2.617
  857HOH      O 2756   3.853   1.682   0.166
  857HOH     H1 2757   3.888   1.770   0.180
  857HOH     H2 2758   3.867   1.665   0.072
  858HOH      O 2759   1.542   2.826   2.948
  858HOH     H1 2760   1.478   2.895   2.971
  858HOH     H2 2761   1.598   2.868   2.882
  859HOH      O 2762   0.769   1.947   2.498
  859HOH     H1 2763   0.838   2.010   2.518
  859HOH     H2 2764   0.689   1.998   2.498
  860HOH      O 2765   1.735   1.058   3.507
  860HOH     H1 2766   1.763   1.028   3.421
  860HOH     H2 2767   1.794   1.131   3.528
  861HOH      O 2768   0.561   1.132   0.578
  861HOH     H1 2769   0.526   1.213   0.539
  861HOH     H2 2770   0.621   1.163   0.646
  862HOH      O 2771   0.955   1.726   0.793
  862HOH     H1 2772   0.867   1.758   0.774
  862HOH     H2 2773   0.996   1.798   0.841
  863HOH      O 2774   0.923   1.379   4.001
  863HOH     H1 2775   0.968   1.445   4.053
  863HOH     H2 2776   0.961   1.388   3.913
  864HOH      O 2777   0.060   1.899   0.057
  864HOH     H1 2778   0.154   1.910   0.042
  864HOH     H2 2779   0.026   1.866  -0.026
  865HOH      O 2780   0.470   2.806   3.315
  865HOH     H1 2781   0.552   2.820   3.361
  865HOH     H2 2782   0.444   2.717   3.337
  866HOH      O 2783   2.853   2.966   0.666
  866HOH     H1 2784   2.948   2.980   0.664
  866HOH     H2 2785   2.835   2.915   0.587
  867HOH      O 2786   0.012   2.786   3.272
  867HOH     H1 2787   0.008   2.879   3.250
  867HOH     H2 2788   0.086   2.779   3.333
  868HOH      O 2789   1.536   3.111   1.567
  868HOH     H1 2790   1.510   3.126   1.658
  868HOH     H2 2791   1.570   3.196   1.537
  869HOH      O 2792   2.647   0.268   0.671
  869HOH     H1 2793   2.587   0.209   0.716
  869HOH     H2 2794   2.717   0.284   0.735
  870HOH      O 2795   2.192   2.559   2.668
  870HOH     H1 2796   2.256   2.617   2.627
  870HOH     H2 2797   2.215   2.559   2.761
  871HOH      O 2798   0.056   1.706   2.608
  871HOH     H1 2799  -0.017   1.669   2.559
  871HOH     H2 2800   0.014   1.759   2.676
  872HOH      O 2801   0.290   1.282   1.797
  872HOH     H1 2802   0.206   1.242   1.779
  872HOH     H2 2803   0.354   1.225   1.755
  873HOH      O 2804   0.158   1.009   2.488
  873HOH     H1 2805   0.079   1.062   2.495
  873HOH     H2 2806   0.126   0.919   2.482
  874HOH      O 2807   0.278   1.402   2.544
  874HOH     H1 2808   0.331   1.325   2.566
  874HOH     H2 2809   0.188   1.377   2.567
  875HOH      O 2810   0.144   1.760   3.334
  875HOH     H1 2811   0.138   1.819   3.409
  875HOH     H2 2812   0.111   1.676   3.367
  876HOH      O 2813   2.410   1.576   2.038
  876HOH     H1 2814   2.484   1.515   2.043
  876HOH     H2 2815   2.347   1.542   2.102
  877HOH      O 2816   0.388   0.328   0.100
  877HOH     H1 2817   0.398   0.406   0.046
  877HOH     H2 2818   0.302   0.337   0.139
  878HOH      O 2819   1.606   1.561   2.644
  878HOH     H1 2820   1.565   1.509   2.574
  878HOH     H2 2821   1.580   1.651   2.626
  879HOH      O 2822   2.711   0.480   0.471
  879HOH     H1 2823   2.686   0.396   0.508
  879HOH     H2 2824   2.649   0.542   0.506
  880HOH      O 2825   0.913   3.054   2.472
  880HOH     H1 2826   0.963   3.059   2.554
  880HOH     H2 2827   0.823   3.074   2.499
  881HOH      O 2828   3.299   1.556   2.811
  881HOH     H1 2829   3.237   1.485   2.827
  881HOH     H2 2830   3.359   1.551   2.885
  882HOH      O 2831   2.876   3.661   0.405
  882HOH     H1 2832   2.941   3.603   0.442
  882HOH     H2 2833   2.798   3.649   0.460
  883HOH      O 2834   1.432   2.947   0.536
  883HOH     H1 2835   1.447   2.922   0.445
  883HOH     H2 2836   1.437   3.043   0.535
  884HOH      O 2837   3.008   1.598   0.409
  884HOH     H1 2838   3.003   1.506   0.438
  884HOH     H2 2839   3.062   1.640   0.475
  885HOH      O 2840   0.255   0.743   3.288
  885HOH     H1 2841   0.253   0.653   3.256
  885HOH     H2 2842   0.312   0.740   3.364
  886HOH      O 2843   3.554   3.786   3.592
  886HOH     H1 2844   3.526   3.832   3.513
  886HOH     H2 2845   3.476   3.786   3.648
  887HOH      O 2846   0.439   2.536   3.792
  887HOH     H1 2847   0.447   2.496   3.706
  887HOH     H2 2848   0.470   2.625   3.781
  888HOH      O 2849   0.713   2.892   1.056
  888HOH     H1 2850   0.775   2.855   0.994
  888HOH     H2 2851   0.712   2.986   1.035
  889HOH      O 2852   2.494   2.993   3.658
  889HOH     H1 2853   2.534   2.921   3.609
  889HOH     H2 2854   2.446   3.043   3.592
  890HOH      O 2855   3.074   2.201   3.328
  890HOH     H1 2856   3.085   2.282   3.277
  890HOH     H2 2857   3.125   2.136   3.280
  891HOH      O 2858   0.796   1.222   1.927
  891HOH     H1 2859   0.867   1.282   1.947
  891HOH     H2 2860   0.819   1.141   1.973
  892HOH      O 2861   3.739   0.012   3.196
  892HOH     H1 2862   3.816   0.063   3.170
  892HOH     H2 2863   3.766  -0.032   3.276
  893HOH      O 2864   0.174   2.012   0.303
  893HOH     H1 2865   0.224   1.977   0.376
  893HOH     H2 2866   0.152   1.935   0.250
  894HOH      O 2867   1.078   1.447   3.800
  894HOH     H1 2868   1.078   1.536   3.835
  894HOH     H2 2869   1.111   1.457   3.710
  895HOH      O 2870   3.193   3.837   1.831
  895HOH     H1 2871   3.151   3.812   1.912
  895HOH     H2 2872   3.216   3.930   1.843
  896HOH      O 2873   2.378  -0.014   3.775
  896HOH     H1 2874   2.448   0.050   3.790
  896HOH     H2 2875   2.322  -0.005   3.852
  897HOH      O 2876   0.156   3.626   0.924
  897HOH     H1 2877   0.115   3.711   0.940
  897HOH     H2 2878   0.087   3.574   0.881
  898HOH      O 2879   0.790   0.714   0.808
  898HOH     H1 2880   0.748   0.767   0.740
  898HOH     H2 2881   0.790   0.625   0.772
  899HOH      O 2882   1.110   1.671   3.947
  899HOH     H1 2883   1.033   1.727   3.934
  899HOH     H2 2884   1.132   1.681   4.039
  900HOH      O 2885   0.896   0.678   3.588
  900HOH     H1 2886   0.807   0.708   3.608
  900HOH     H2 2887   0.902   0.592   3.630
  901HOH      O 2888   0.633   3.458   1.270
  901HOH     H1 2889   0.559   3.449   1.330
  901HOH     H2 2890   0.598   3.435   1.184
  902HOH      O 2891   3.552   3.542   3.337
  902HOH     H1 2892   3.509   3.623   3.310
  902HOH     H2 2893   3.615   3.569   3.403
  903HOH      O 2894   3.505   2.953   2.680
  903HOH     H1 2895   3.507   2.866   2.720
  903HOH     H2 2896   3.423   2.956   2.632
  904HOH      O 2897   3.998   2.152   2.287
  904HOH     H1 2898   3.991   2.070   2.336
  904HOH     H2 2899   3.939   2.140   2.212
  905HOH      O 2900   0.754   3.227   1.571
  905HOH     H1 2901   0.735   3.260   1.483
  905HOH     H2 2902   0.668   3.216   1.611
  906HOH      O 2903   1.181   1.928   0.422
  906HOH     H1 2904   1.161   2.001   0.364
  906HOH     H2 2905   1.104   1.871   0.416
  907HOH      O 2906   2.958   3.033   1.478
  907HOH     H1 2907   3.039   3.081   1.459
  907HOH     H2 2908   2.910   3.091   1.537
  908HOH      O 2909   0.706   3.991   1.235
  908HOH     H1 2910   0.678   3.905   1.265
  908HOH     H2 2911   0.630   4.048   1.250
  909HOH      O 2912   3.105   2.065   2.225
  909HOH     H1 2913   3.064   2.091   2.142
  909HOH     H2 2914   3.183   2.017   2.199
  910HOH      O 2915   0.899   0.841   3.992
  910HOH     H1 2916   0.948   0.881   4.064
  910HOH     H2 2917   0.935   0.881   3.913
  911HOH      O 2918   2.599   0.490   1.338
  911HOH     H1 2919   2.655   0.566   1.348
  911HOH     H2 2920   2.563   0.475   1.426
  912HOH      O 2921   2.208   1.813   2.563
  912HOH     H1 2922   2.285   1.784   2.515
  912HOH     H2 2923   2.185   1.738   2.619
  913HOH      O 2924   3.058   0.059   2.575
  913HOH     H1 2925   3.052   0.115   2.497
  913HOH     H2 2926   3.149   0.030   2.576
  914HOH      O 2927   1.357   0.829   3.567
  914HOH     H1 2928   1.340   0.888   3.640
  914HOH     H2 2929   1.442   0.856   3.533
  915HOH      O 2930   1.439   2.891   4.050
  915HOH     H1 2931   1.347   2.897   4.025
  915HOH     H2 2932   1.477   2.829   3.988
  916HOH      O 2933   3.366   3.016   3.938
  916HOH     H1 2934   3.411   3.021   3.853
  916HOH     H2 2935   3.417   2.951   3.987
  917HOH      O 2936   0.165   1.502   4.018
  917HOH     H1 2937   0.162   1.414   3.981
  917HOH     H2 2938   0.213   1.554   3.954
  918HOH      O 2939   3.186   0.514   1.714
  918HOH     H1 2940   3.257   0.467   1.758
  918HOH     H2 2941   3.190   0.485   1.623
  919HOH      O 2942   1.197   3.427   3.797
  919HOH     H1 2943   1.110   3.424   3.757
  919HOH     H2 2944   1.250   3.478   3.735
  920HOH      O 2945   0.641   0.248   1.330
  920HOH     H1 2946   0.565   0.304   1.315
  920HOH     H2 2947   0.711   0.288   1.279
  921HOH      O 2948   3.626   2.580   1.103
  921HOH     H1 2949   3.593   2.492   1.085
  921HOH     H2 2950   3.550   2.629   1.133
  922HOH      O 2951   2.692   1.527   0.562
  922HOH     H1 2952   2.736   1.470   0.498
  922HOH     H2 2953   2.682   1.472   0.639
  923HOH      O 2954   3.407   0.629   0.335
  923HOH     H1 2955   3.360   0.693   0.282
  923HOH     H2 2956   3.473   0.680   0.381
  924HOH      O 2957   3.490   1.263   3.444
  924HOH     H1 2958   3.467   1.356   3.451
  924HOH     H2 2959   3.510   1.237   3.534
  925HOH      O 2960   3.470   1.719   1.980
  925HOH     H1 2961   3.437   1.632   2.002
  925HOH     H2 2962   3.521   1.706   1.900
  926HOH      O 2963   2.844   2.796   1.478
  926HOH     H1 2964   2.827   2.740   1.402
  926HOH     H2 2965   2.894   2.870   1.443
  927HOH      O 2966   2.329   1.570   2.835
  927HOH     H1 2967   2.238   1.557   2.810
  927HOH     H2 2968   2.372   1.487   2.813
  928HOH      O 2969   2.570   2.897   1.429
  928HOH     H1 2970   2.509   2.894   1.355
  928HOH     H2 2971   2.633   2.827   1.410
  929HOH      O 2972   3.200   3.139   1.303
  929HOH     H1 2973   3.122   3.193   1.313
  929HOH     H2 2974   3.246   3.177   1.228
  930HOH      O 2975   4.000   3.974   1.187
  930HOH     H1 2976   4.011   3.880   1.207
  930HOH     H2 2977   3.917   3.998   1.229
  931HOH      O 2978   2.535   2.326   2.195
  931HOH     H1 2979   2.455   2.362   2.157
  931HOH     H2 2980   2.605   2.355   2.136
  932HOH      O 2981   2.583   3.894   0.866
  932HOH     H1 2982   2.676   3.890   0.888
  932HOH     H2 2983   2.542   3.836   0.931
  933HOH      O 2984   0.660   2.675   2.355
  933HOH     H1 2985   0.729   2.693   2.292
  933HOH     H2 2986   0.591   2.739   2.335
  934HOH      O 2987   3.699   0.817   2.920
  934HOH     H1 2988   3.756   0.743   2.941
  934HOH     H2 2989   3.760   0.889   2.903
  935HOH      O 2990   1.240   0.726   1.445
  935HOH     H1 2991   1.293   0.699   1.369
  935HOH     H2 2992   1.284   0.687   1.520
  936HOH      O 2993   2.580   1.157   0.481
  936HOH     H1 2994   2.514   1.225   0.492
  936HOH     H2 2995   2.653   1.186   0.536
  937HOH      O 2996   0.909   3.650   2.654
  937HOH     H1 2997   0.937   3.663   2.744
  937HOH     H2 2998   0.949   3.723   2.605
  938HOH      O 2999   0.026   1.207   1.208
  938HOH     H1 3000   0.074   1.132   1.242
  938HOH     H2 3001   0.094   1.272   1.189
  939HOH      O 3002   0.301   0.910   0.635
  939HOH     H1 3003   0.289   0.984   0.575
  939HOH     H2 3004   0.397   0.901   0.641
  940HOH      O 3005   1.366   3.087   3.301
  940HOH     H1 3006   1.328   3.144   3.368
  940HOH     H2 3007   1.307   3.012   3.297
  941HOH      O 3008   1.037   3.790   1.329
  941HOH     H1 3009   1.109   3.765   1.387
  941HOH     H2 3010   1.024   3.884   1.345
  942HOH      O 3011   0.686   3.181   1.033
  942HOH     H1 3012   0.699   3.211   0.943
  942HOH     H2 3013   0.606   3.224   1.062
  943HOH      O 3014   0.858   1.180   3.042
  943HOH     H1 3015   0.895   1.195   2.954
  943HOH     H2 3016   0.837   1.086   3.043
  944HOH      O 3017   1.831   2.045   1.128
  944HOH     H1 3018   1.855   2.009   1.042
  944HOH     H2 3019   1.841   1.971   1.188
  945HOH      O 3020   3.930   2.203   1.442
  945HOH     H1 3021   4.003   2.257   1.471
  945HOH     H2 3022   3.859   2.266   1.426
  946HOH      O 3023   3.965   3.725   2.918
  946HOH     H1 3024   3.948   3.785   2.846
  946HOH     H2 3025   4.056   3.743   2.942
  947HOH      O 3026   0.359   0.442   0.778
  947HOH     H1 3027   0.329   0.355   0.804
  947HOH     H2 3028   0.355   0.494   0.858
  948HOH      O 3029   2.154   2.219   0.622
  948HOH     H1 3030   2.192   2.240   0.707
  948HOH     H2 3031   2.061   2.241   0.631
  949HOH      O 3032   2.460   3.582   0.174
  949HOH     H1 3033   2.545   3.538   0.184
  949HOH     H2 3034   2.481   3.661   0.125
  950HOH      O 3035   2.352   2.961   2.117
  950HOH     H1 3036   2.339   3.031   2.053
  950HOH     H2 3037   2.266   2.947   2.156
  951HOH      O 3038   0.046   0.523   3.284
  951HOH     H1 3039  -0.035   0.507   3.332
  951HOH     H2 3040   0.094   0.441   3.290
  952HOH      O 3041   2.091   3.282   3.332
  952HOH     H1 3042   2.063   3.361   3.379
  952HOH     H2 3043   2.081   3.212   3.397
  953HOH      O 3044   3.566   0.032   2.388
  953HOH     H1 3045   3.548   0.023   2.482
  953HOH     H2 3046   3.621  -0.043   2.367
  954HOH      O 3047   1.395   4.003   2.715
  954HOH     H1 3048   1.351   4.063   2.775
  954HOH     H2 3049   1.351   4.015   2.631
  955HOH      O 3050   3.788   1.315   0.428
  955HOH     H1 3051   3.814   1.293   0.339
  955HOH     H2 3052   3.870   1.335   0.473
  956HOH      O 3053   1.661   1.465   0.759
  956HOH     H1 3054   1.676   1.416   0.840
  956HOH     H2 3055   1.635   1.552   0.789
  957HOH      O 3056   3.516   2.484   0.760
  957HOH     H1 3057   3.593   2.434   0.786
  957HOH     H2 3058   3.484   2.441   0.681
  958HOH      O 3059   0.791   3.920   1.817
  958HOH     H1 3060   0.845   3.941   1.740
  958HOH     H2 3061   0.748   4.003   1.838
  959HOH      O 3062   0.365   2.706   0.435
  959HOH     H1 3063   0.389   2.778   0.493
  959HOH     H2 3064   0.270   2.701   0.441
  960HOH      O 3065   1.572   1.980   1.012
  960HOH     H1 3066   1.662   1.972   1.045
  960HOH     H2 3067   1.523   2.016   1.086
  961HOH      O 3068   1.492   1.240   0.251
  961HOH     H1 3069   1.539   1.312   0.210
  961HOH     H2 3070   1.558   1.172   0.263
  962HOH      O 3071   3.944   1.755   3.875
  962HOH     H1 3072   3.902   1.671   3.858
  962HOH     H2 3073   3.873   1.819   3.865
  963HOH      O 3074   2.058   0.032   2.771
  963HOH     H1 3075   2.143   0.062   2.803
  963HOH     H2 3076   2.068  -0.063   2.763
  964HOH      O 3077   0.085   2.430   1.698
  964HOH     H1 3078   0.138   2.358   1.663
  964HOH     H2 3079   0.134   2.509   1.676
  965HOH      O 3080   1.039   1.708   2.073
  965HOH     H1 3081   1.061   1.798   2.050
  965HOH     H2 3082   1.000   1.714   2.160
  966HOH      O 3083   2.591   2.844   2.726
  966HOH     H1 3084   2.591   2.810   2.815
  966HOH     H2 3085   2.664   2.907   2.725
  967HOH      O 3086   3.652   0.972   0.220
  967HOH     H1 3087   3.712   0.897   0.229
  967HOH     H2 3088   3.588   0.943   0.156
  968HOH      O 3089   4.008   3.517   3.809
  968HOH     H1 3090   3.977   3.446   3.752
  968HOH     H2 3091   4.078   3.558   3.759
  969HOH      O 3092   2.703   1.044   0.836
  969HOH     H1 3093   2.684   1.137   0.850
  969HOH     H2 3094   2.778   1.025   0.893
  970HOH      O 3095   0.553   0.819   3.174
  970HOH     H1 3096   0.464   0.801   3.146
  970HOH     H2 3097   0.579   0.740   3.223
  971HOH      O 3098   2.963   3.766   3.139
  971HOH     H1 3099   2.895   3.788   3.202
  971HOH     H2 3100   2.918   3.760   3.055
  972HOH      O 3101   2.460   3.345   1.992
  972HOH     H1 3102   2.538   3.393   1.967
  972HOH     H2 3103   2.409   3.406   2.045
  973HOH      O 3104   0.849   1.068   1.536
  973HOH     H1 3105   0.836   1.107   1.450
  973HOH     H2 3106   0.792   1.118   1.594
  974HOH      O 3107   2.541   0.630   3.849
  974HOH     H1 3108   2.541   0.582   3.767
  974HOH     H2 3109   2.602   0.582   3.905
  975HOH      O 3110   1.477   2.680   3.336
  975HOH     H1 3111   1.495   2.767   3.372
  975HOH     H2 3112   1.549   2.664   3.275
  976HOH      O 3113   1.526   1.422   2.438
  976HOH     H1 3114   1.517   1.333   2.472
  976HOH     H2 3115   1.437   1.448   2.416
  977HOH      O 3116   0.503   1.404   2.194
  977HOH     H1 3117   0.420   1.402   2.241
  977HOH     H2 3118   0.486   1.356   2.113
  978HOH      O 3119   1.609   2.656   0.153
  978HOH     H1 3120   1.623   2.685   0.063
  978HOH     H2 3121   1.525   2.695   0.178
  979HOH      O 3122   1.501   2.678   3.659
  979HOH     H1 3123   1.492   2.655   3.567
  979HOH     H2 3124   1.416   2.716   3.682
  980HOH      O 3125   3.776   2.502   3.979
  980HOH     H1 3126   3.691   2.547   3.975
  980HOH     H2 3127   3.770   2.445   4.055
  981HOH      O 3128   0.854   2.751   0.867
  981HOH     H1 3129   0.900   2.681   0.821
  981HOH     H2 3130   0.848   2.822   0.802
  982HOH      O 3131   2.579   2.119   0.461
  982HOH     H1 3132   2.519   2.152   0.394
  982HOH     H2 3133   2.650   2.079   0.411
  983HOH      O 3134   3.131   2.429   3.605
  983HOH     H1 3135   3.097   2.503   3.556
  983HOH     H2 3136   3.056   2.369   3.613
  984HOH      O 3137   2.871   2.003   1.746
  984HOH     H1 3138   2.828   2.071   1.694
  984HOH     H2 3139   2.802   1.942   1.768
  985HOH      O 3140   3.281   0.186   0.519
  985HOH     H1 3141   3.306   0.155   0.606
  985HOH     H2 3142   3.186   0.186   0.520
  986HOH      O 3143   3.934   3.405   1.716
  986HOH     H1 3144   3.902   3.323   1.753
  986HOH     H2 3145   4.021   3.384   1.683
  987HOH      O 3146   0.507   1.193   1.989
  987HOH     H1 3147   0.477   1.167   1.903
  987HOH     H2 3148   0.602   1.190   1.984
  988HOH      O 3149   1.307   3.728   0.663
  988HOH     H1 3150   1.314   3.758   0.573
  988HOH     H2 3151   1.235   3.665   0.662
  989HOH      O 3152   3.294   1.392   1.149
  989HOH     H1 3153   3.247   1.446   1.212
  989HOH     H2 3154   3.361   1.450   1.112
  990HOH      O 3155   0.614   1.779   0.343
  990HOH     H1 3156   0.519   1.770   0.334
  990HOH     H2 3157   0.630   1.873   0.330
  991HOH      O 3158   2.998   0.531   1.445
  991HOH     H1 3159   3.063   0.474   1.404
  991HOH     H2 3160   2.922   0.474   1.460
  992HOH      O 3161   2.523   0.507   3.594
  992HOH     H1 3162   2.575   0.527   3.516
  992HOH     H2 3163   2.510   0.412   3.591
  993HOH      O 3164   0.286   0.626   3.723
  993HOH     H1 3165   0.233   0.548   3.707
  993HOH     H2 3166   0.223   0.695   3.744
  994HOH      O 3167   2.414   1.808   1.917
  994HOH     H1 3168   2.381   1.873   1.978
  994HOH     H2 3169   2.414   1.726   1.968
  995HOH      O 3170   1.280   1.144   3.408
  995HOH     H1 3171   1.238   1.131   3.323
  995HOH     H2 3172   1.293   1.055   3.441
  996HOH      O 3173   1.008   1.374   2.019
  996HOH     H1 3174   0.993   1.420   2.102
  996HOH     H2 3175   1.087   1.414   1.983
  997HOH      O 3176   0.503   3.007   2.554
  997HOH     H1 3177   0.480   2.916   2.572
  997HOH     H2 3178   0.540   3.005   2.466
  998HOH      O 3179   2.535   1.811   3.268
  998HOH     H1 3180   2.543   1.853   3.183
  998HOH     H2 3181   2.502   1.723   3.248
  999HOH      O 3182   2.800   3.480   3.982
  999HOH     H1 3183   2.860   3.406   3.971
  999HOH     H2 3184   2.713   3.439   3.982
 1000HOH      O 3185   0.822   2.899   1.973
 1000HOH     H1 3186   0.847   2.942   1.891
 1000HOH     H2 3187   0.727   2.898   1.972
 1001HOH      O 3188   1.617   2.127   3.023
 1001HOH     H1 3189   1.569   2.064   3.077
 1001HOH     H2 3190   1.602   2.097   2.933
 1002HOH      O 3191   0.350   3.847   1.763
 1002HOH     H1 3192   0.408   3.775   1.740
 1002HOH     H2 3193   0.394   3.925   1.729
 1003HOH      O 3194   0.152   0.951   3.635
 1003HOH     H1 3195   0.057   0.943   3.636
 1003HOH     H2 3196   0.183   0.880   3.691
 1004HOH      O 3197   2.071   2.703   0.003
 1004HOH     H1 3198   2.004   2.756  -0.040
 1004HOH     H2 3199   2.086   2.745   0.087
 1005HOH      O 3200   3.767   2.963   2.562
 1005HOH     H1 3201   3.685   2.981   2.608
 1005HOH     H2 3202   3.742   2.902   2.492
 1006HOH      O 3203   3.869   1.597   2.483
 1006HOH     H1 3204   3.829   1.676   2.518
 1006HOH     H2 3205   3.803   1.529   2.496
 1007HOH      O 3206   1.072   3.600   0.712
 1007HOH     H1 3207   0.978   3.602   0.694
 1007HOH     H2 3208   1.083   3.658   0.787
 1008HOH      O 3209   1.076   3.048   2.725
 1008HOH     H1 3210   1.074   2.954   2.743
 1008HOH     H2 3211   1.102   3.088   2.807
 1009HOH      O 3212   0.916   2.598   2.921
 1009HOH     H1 3213   0.823   2.577   2.915
 1009HOH     H2 3214   0.919   2.692   2.939
 1010HOH      O 3215   3.920   1.446   2.977
 1010HOH     H1 3216   3.960   1.405   3.054
 1010HOH     H2 3217   3.829   1.416   2.978
 1011HOH      O 3218   2.550   3.739   1.993
 1011HOH     H1 3219   2.621   3.731   2.056
 1011HOH     H2 3220   2.482   3.681   2.027
 1012HOH      O 3221   0.414   2.815   0.037
 1012HOH     H1 3222   0.381   2.887  -0.018
 1012HOH     H2 3223   0.339   2.789   0.089
 1013HOH      O 3224   1.730   2.706   2.156
 1013HOH     H1 3225   1.644   2.744   2.140
 1013HOH     H2 3226   1.714   2.635   2.219
 1014HOH      O 3227   0.562   3.393   2.441
 1014HOH     H1 3228   0.591   3.385   2.350
 1014HOH     H2 3229   0.642   3.410   2.490
 1015HOH      O 3230   1.156   2.315   0.732
 1015HOH     H1 3231   1.220   2.337   0.664
 1015HOH     H2 3232   1.158   2.219   0.737
 1016HOH      O 3233   3.860   0.624   2.721
 1016HOH     H1 3234   3.943   0.661   2.689
 1016HOH     H2 3235   3.873   0.615   2.815
 1017HOH      O 3236   2.365   3.670   3.833
 1017HOH     H1 3237   2.365   3.756   3.791
 1017HOH     H2 3238   2.363   3.608   3.761
 1018HOH      O 3239   3.783   3.910   3.720
 1018HOH     H1 3240   3.800   3.859   3.799
 1018HOH     H2 3241   3.693   3.887   3.696
 1019HOH      O 3242   2.495   2.736   2.968
 1019HOH     H1 3243   2.426   2.672   2.954
 1019HOH     H2 3244   2.451   2.812   3.005
 1020HOH      O 3245   4.040   0.846   1.549
 1020HOH     H1 3246   3.992   0.876   1.626
 1020HOH     H2 3247   3.972   0.834   1.482
 1021HOH      O 3248   2.935   3.540   1.134
 1021HOH     H1 3249   2.872   3.484   1.089
 1021HOH     H2 3250   2.884   3.617   1.159
 1022HOH      O 3251   2.024   0.272   1.878
 1022HOH     H1 3252   2.070   0.230   1.951
 1022HOH     H2 3253   1.931   0.250   1.892
 1023HOH      O 3254   2.189   1.300   2.847
 1023HOH     H1 3255   2.161   1.211   2.823
 1023HOH     H2 3256   2.254   1.324   2.781
 1024HOH      O 3257   2.608   1.807   1.343
 1024HOH     H1 3258   2.603   1.889   1.392
 1024HOH     H2 3259   2.647   1.745   1.404
 1025HOH      O 3260   1.640   1.738   3.346
 1025HOH     H1 3261   1.619   1.689   3.425
 1025HOH     H2 3262   1.675   1.672   3.286
 1026HOH      O 3263   1.001   2.661   1.069
 1026HOH     H1 3264   0.923   2.676   1.016
 1026HOH     H2 3265   1.067   2.719   1.031
 1027HOH      O 3266   2.393   1.890   0.937
 1027HOH     H1 3267   2.422   1.970   0.981
 1027HOH     H2 3268   2.407   1.821   1.001
 1028HOH      O 3269   1.501   3.961   1.580
 1028HOH     H1 3270   1.534   4.003   1.501
 1028HOH     H2 3271   1.412   3.995   1.591
 1029HOH      O 3272   1.602   1.677   0.904
 1029HOH     H1 3273   1.601   1.772   0.918
 1029HOH     H2 3274   1.616   1.640   0.991
 1030HOH      O 3275   0.926   0.899   1.771
 1030HOH     H1 3276   0.928   0.943   1.687
 1030HOH     H2 3277   0.958   0.810   1.752
 1031HOH      O 3278   0.381   0.019   1.203
 1031HOH     H1 3279   0.293   0.057   1.208
 1031HOH     H2 3280   0.436   0.089   1.169
 1032HOH      O 3281   2.583   1.339   1.014
 1032HOH     H1 3282   2.640   1.360   0.941
 1032HOH     H2 3283   2.623   1.381   1.090
 1033HOH      O 3284   1.049   2.607   3.315
 1033HOH     H1 3285   1.058   2.574   3.226
 1033HOH     H2 3286   1.078   2.536   3.371
 1034HOH      O 3287   3.234   0.528   0.128
 1034HOH     H1 3288   3.305   0.501   0.070
 1034HOH     H2 3289   3.274   0.536   0.214
 1035HOH      O 3290   1.212   3.602   1.020
 1035HOH     H1 3291   1.228   3.509   1.007
 1035HOH     H2 3292   1.255   3.622   1.103
 1036HOH      O 3293   2.305   2.632   3.761
 1036HOH     H1 3294   2.283   2.686   3.837
 1036HOH     H2 3295   2.356   2.560   3.797
 1037HOH      O 3296   3.219   0.474   1.267
 1037HOH     H1 3297   3.269   0.535   1.321
 1037HOH     H2 3298   3.285   0.417   1.227
 1038HOH      O 3299   2.062   0.735   3.412
 1038HOH     H1 3300   2.154   0.716   3.396
 1038HOH     H2 3301   2.051   0.826   3.382
 1039HOH      O 3302   0.462   1.121   1.142
 1039HOH     H1 3303   0.547   1.080   1.159
 1039HOH     H2 3304   0.430   1.076   1.064
 1040HOH      O 3305   2.190   2.113   1.310
 1040HOH     H1 3306   2.128   2.156   1.251
 1040HOH     H2 3307   2.202   2.175   1.381
 1041HOH      O 3308   3.483   3.009   3.684
 1041HOH     H1 3309   3.477   2.982   3.592
 1041HOH     H2 3310   3.577   3.004   3.704
 1042HOH      O 3311   3.028   2.660   0.931
 1042HOH     H1 3312   3.114   2.619   0.921
 1042HOH     H2 3313   3.045   2.754   0.925
 1043HOH      O 3314   3.753   3.095   1.045
 1043HOH     H1 3315   3.775   3.023   0.986
 1043HOH     H2 3316   3.678   3.138   1.003
 1044HOH      O 3317   4.024   3.144   2.337
 1044HOH     H1 3318   3.939   3.177   2.309
 1044HOH     H2 3319   4.083   3.165   2.264
 1045HOH      O 3320   1.416   1.594   1.215
 1045HOH     H1 3321   1.486   1.543   1.176
 1045HOH     H2 3322   1.344   1.590   1.152
 1046HOH      O 3323   2.719   0.577   2.395
 1046HOH     H1 3324   2.704   0.529   2.477
 1046HOH     H2 3325   2.753   0.511   2.334
 1047HOH      O 3326   1.313   2.210   3.020
 1047HOH     H1 3327   1.267   2.174   3.096
 1047HOH     H2 3328   1.371   2.139   2.991
 1048HOH      O 3329   3.887   3.343   3.658
 1048HOH     H1 3330   3.874   3.310   3.569
 1048HOH     H2 3331   3.800   3.368   3.687
 1049HOH      O 3332   3.033   1.377   3.401
 1049HOH     H1 3333   2.966   1.376   3.333
 1049HOH     H2 3334   3.100   1.437   3.368
 1050HOH      O 3335   3.021   1.525   3.655
 1050HOH     H1 3336   3.046   1.617   3.659
 1050HOH     H2 3337   3.019   1.505   3.561
 1051HOH      O 3338   1.182   1.208   3.894
 1051HOH     H1 3339   1.153   1.294   3.865
 1051HOH     H2 3340   1.176   1.211   3.990
 1052HOH      O 3341   0.172   0.806   3.900
 1052HOH     H1 3342   0.103   0.760   3.948
 1052HOH     H2 3343   0.224   0.849   3.968
 1053HOH      O 3344   0.489   2.480   0.505
 1053HOH     H1 3345   0.452   2.566   0.485
 1053HOH     H2 3346   0.568   2.476   0.452
 1054HOH      O 3347   3.097   0.641   0.364
 1054HOH     H1 3348   3.067   0.701   0.432
 1054HOH     H2 3349   3.117   0.698   0.289
 1055HOH      O 3350   1.615   0.577   1.661
 1055HOH     H1 3351   1.675   0.626   1.718
 1055HOH     H2 3352   1.531   0.580   1.706
 1056HOH      O 3353   0.234   1.096   2.112
 1056HOH     H1 3354   0.270   1.033   2.175
 1056HOH     H2 3355   0.303   1.107   2.047
 1057HOH      O 3356   2.254   0.862   2.891
 1057HOH     H1 3357   2.226   0.792   2.950
 1057HOH     H2 3358   2.253   0.821   2.804
 1058HOH      O 3359   0.989   2.470   1.265
 1058HOH     H1 3360   0.994   2.527   1.188
 1058HOH     H2 3361   1.011   2.528   1.339
 1059HOH      O 3362   0.963   2.192   1.283
 1059HOH     H1 3363   0.898   2.159   1.345
 1059HOH     H2 3364   0.954   2.287   1.288
 1060HOH      O 3365   2.114   2.130   3.339
 1060HOH     H1 3366   2.091   2.182   3.416
 1060HOH     H2 3367   2.210   2.134   3.335
 1061HOH      O 3368   0.051   1.125   1.777
 1061HOH     H1 3369  -0.006   1.190   1.818
 1061HOH     H2 3370   0.008   1.041   1.792
 1062HOH      O 3371   1.632   0.720   3.826
 1062HOH     H1 3372   1.620   0.739   3.919
 1062HOH     H2 3373   1.625   0.805   3.782
 1063HOH      O 3374   2.506   1.357   3.126
 1063HOH     H1 3375   2.507   1.401   3.211
 1063HOH     H2 3376   2.516   1.428   3.062
 1064HOH      O 3377   0.530   2.296   1.608
 1064HOH     H1 3378   0.528   2.248   1.691
 1064HOH     H2 3379   0.442   2.286   1.572
 1065HOH      O 3380   2.137   1.325   3.653
 1065HOH     H1 3381   2.159   1.241   3.691
 1065HOH     H2 3382   2.143   1.311   3.558
 1066HOH      O 3383   0.602   0.896   0.128
 1066HOH     H1 3384   0.579   0.824   0.070
 1066HOH     H2 3385   0.657   0.954   0.075
 1067HOH      O 3386   3.666   2.900   3.179
 1067HOH     H1 3387   3.707   2.849   3.249
 1067HOH     H2 3388   3.625   2.974   3.224
 1068HOH      O 3389   3.136   0.846   0.155
 1068HOH     H1 3390   3.047   0.854   0.120
 1068HOH     H2 3391   3.138   0.908   0.228
 1069HOH      O 3392   3.895   2.620   2.590
 1069HOH     H1 3393   3.974   2.593   2.636
 1069HOH     H2 3394   3.849   2.538   2.571
 1070HOH      O 3395   0.893   1.519   2.915
 1070HOH     H1 3396   0.916   1.586   2.850
 1070HOH     H2 3397   0.900   1.436   2.868
 1071HOH      O 3398   0.009   0.155   1.434
 1071HOH     H1 3399   0.078   0.219   1.419
 1071HOH     H2 3400   0.056   0.072   1.445
 1072HOH      O 3401   3.843   2.119   1.090
 1072HOH     H1 3402   3.792   2.044   1.120
 1072HOH     H2 3403   3.901   2.084   1.023
 1073HOH      O 3404   1.938   3.133   0.674
 1073HOH     H1 3405   1.882   3.071   0.721
 1073HOH     H2 3406   2.010   3.081   0.641
 1074HOH      O 3407   3.809   2.989   0.247
 1074HOH     H1 3408   3.864   2.963   0.173
 1074HOH     H2 3409   3.843   3.075   0.272
 1075HOH      O 3410   2.908   0.073   3.031
 1075HOH     H1 3411   2.815   0.070   3.054
 1075HOH     H2 3412   2.931   0.166   3.032
 1076HOH      O 3413   0.479   0.661   0.293
 1076HOH     H1 3414   0.533   0.675   0.215
 1076HOH     H2 3415   0.489   0.741   0.344
 1077HOH      O 3416   3.984   1.965   1.876
 1077HOH     H1 3417   3.958   2.055   1.856
 1077HOH     H2 3418   4.056   1.974   1.938
 1078HOH      O 3419   2.135   0.035   1.371
 1078HOH     H1 3420   2.182   0.077   1.299
 1078HOH     H2 3421   2.045   0.067   1.362
 1079HOH      O 3422   2.367   1.374   1.708
 1079HOH     H1 3423   2.406   1.369   1.621
 1079HOH     H2 3424   2.392   1.460   1.741
 1080HOH      O 3425   0.283   2.571   1.038
 1080HOH     H1 3426   0.370   2.612   1.037
 1080HOH     H2 3427   0.299   2.480   1.061
 1081HOH      O 3428   2.846   2.607   1.956
 1081HOH     H1 3429   2.935   2.605   1.920
 1081HOH     H2 3430   2.796   2.660   1.894
 1082HOH      O 3431   1.796   2.661   3.685
 1082HOH     H1 3432   1.812   2.709   3.604
 1082HOH     H2 3433   1.705   2.632   3.678
 1083HOH      O 3434   0.988   2.057   2.686
 1083HOH     H1 3435   1.003   2.132   2.742
 1083HOH     H2 3436   0.994   2.091   2.597
 1084HOH      O 3437   0.390   0.762   3.515
 1084HOH     H1 3438   0.343   0.706   3.576
 1084HOH     H2 3439   0.472   0.715   3.498
 1085HOH      O 3440   1.168   1.432   3.541
 1085HOH     H1 3441   1.098   1.429   3.477
 1085HOH     H2 3442   1.209   1.345   3.536
 1086HOH      O 3443   1.745   0.227   3.843
 1086HOH     H1 3444   1.661   0.237   3.797
 1086HOH     H2 3445   1.721   0.227   3.936
 1087HOH      O 3446   0.159   2.468   3.452
 1087HOH     H1 3447   0.139   2.381   3.417
 1087HOH     H2 3448   0.160   2.457   3.547
 1088HOH      O 3449   3.183   3.329   0.218
 1088HOH     H1 3450   3.255   3.389   0.237
 1088HOH     H2 3451   3.209   3.285   0.137
 1089HOH      O 3452   0.879   3.394   0.063
 1089HOH     H1 3453   0.959   3.391   0.115
 1089HOH     H2 3454   0.841   3.480   0.081
 1090HOH      O 3455   2.365   1.617   0.282
 1090HOH     H1 3456   2.270   1.612   0.265
 1090HOH     H2 3457   2.397   1.679   0.216
 1091HOH      O 3458   3.293   2.145   0.983
 1091HOH     H1 3459   3.243   2.091   1.045
 1091HOH     H2 3460   3.234   2.218   0.963
 1092HOH      O 3461   1.432   2.957   2.359
 1092HOH     H1 3462   1.484   2.908   2.295
 1092HOH     H2 3463   1.425   2.898   2.434
 1093HOH      O 3464   3.427   0.113   3.568
 1093HOH     H1 3465   3.380   0.084   3.646
 1093HOH     H2 3466   3.512   0.070   3.574
 1094HOH      O 3467   0.543   2.328   3.928
 1094HOH     H1 3468   0.508   2.415   3.910
 1094HOH     H2 3469   0.591   2.304   3.849
 1095HOH      O 3470   1.123   2.767   2.334
 1095HOH     H1 3471   1.035   2.779   2.298
 1095HOH     H2 3472   1.134   2.839   2.395
 1096HOH      O 3473   1.552   0.974   0.574
 1096HOH     H1 3474   1.467   0.932   0.561
 1096HOH     H2 3475   1.531   1.059   0.614
 1097HOH      O 3476   2.360   3.162   3.484
 1097HOH     H1 3477   2.389   3.162   3.393
 1097HOH     H2 3478   2.292   3.230   3.487
 1098HOH      O 3479   1.756   0.522   1.999
 1098HOH     H1 3480   1.671   0.479   2.003
 1098HOH     H2 3481   1.763   0.570   2.082
 1099HOH      O 3482   2.979   0.349   3.107
 1099HOH     H1 3483   3.069   0.372   3.086
 1099HOH     H2 3484   2.927   0.425   3.080
 1100HOH      O 3485   3.567   1.011   0.607
 1100HOH     H1 3486   3.515   1.091   0.599
 1100HOH     H2 3487   3.598   0.994   0.518
 1101HOH      O 3488   1.304   0.844   3.118
 1101HOH     H1 3489   1.297   0.766   3.173
 1101HOH     H2 3490   1.392   0.838   3.079
 1102HOH      O 3491   1.387   0.107   1.970
 1102HOH     H1 3492   1.465   0.086   1.918
 1102HOH     H2 3493   1.334   0.161   1.911
 1103HOH      O 3494   2.744   1.679   0.153
 1103HOH     H1 3495   2.797   1.618   0.102
 1103HOH     H2 3496   2.800   1.703   0.227
 1104HOH      O 3497   1.962   3.973   1.815
 1104HOH     H1 3498   1.955   3.955   1.721
 1104HOH     H2 3499   1.961   3.887   1.857
 1105HOH      O 3500   1.853   3.493   0.264
 1105HOH     H1 3501   1.869   3.436   0.189
 1105HOH     H2 3502   1.758   3.507   0.264
 1106HOH      O 3503   2.396   2.805   1.887
 1106HOH     H1 3504   2.402   2.863   1.963
 1106HOH     H2 3505   2.469   2.744   1.897
 1107HOH      O 3506   3.794   0.472   0.111
 1107HOH     H1 3507   3.851   0.470   0.188
 1107HOH     H2 3508   3.770   0.564   0.101
 1108HOH      O 3509   1.611   3.375   1.135
 1108HOH     H1 3510   1.592   3.283   1.155
 1108HOH     H2 3511   1.533   3.422   1.164
 1109HOH      O 3512   3.702   1.197   3.922
 1109HOH     H1 3513   3.788   1.154   3.919
 1109HOH     H2 3514   3.641   1.130   3.890
 1110HOH      O 3515   0.576   2.141   1.870
 1110HOH     H1 3516   0.583   2.074   1.937
 1110HOH     H2 3517   0.630   2.213   1.903
 1111HOH      O 3518   4.010   1.790   1.659
 1111HOH     H1 3519   3.923   1.825   1.638
 1111HOH     H2 3520   4.053   1.862   1.706
 1112HOH      O 3521   2.733   0.836   3.807
 1112HOH     H1 3522   2.711   0.915   3.757
 1112HOH     H2 3523   2.650   0.791   3.820
 1113HOH      O 3524   1.979   2.299   1.243
 1113HOH     H1 3525   1.962   2.390   1.220
 1113HOH     H2 3526   1.916   2.249   1.191
 1114HOH      O 3527   3.761   3.402   3.172
 1114HOH     H1 3528   3.811   3.427   3.094
 1114HOH     H2 3529   3.744   3.485   3.217
 1115HOH      O 3530   2.723   3.786   3.286
 1115HOH     H1 3531   2.697   3.817   3.373
 1115HOH     H2 3532   2.715   3.690   3.291
 1116HOH      O 3533   2.103   1.527   0.179
 1116HOH     H1 3534   2.076   1.445   0.137
 1116HOH     H2 3535   2.068   1.595   0.123
 1117HOH      O 3536   1.229   2.965   2.135
 1117HOH     H1 3537   1.138   2.996   2.138
 1117HOH     H2 3538   1.246   2.935   2.224
 1118HOH      O 3539   2.590   0.350   1.827
 1118HOH     H1 3540   2.516   0.367   1.885
 1118HOH     H2 3541   2.646   0.428   1.836
 1119HOH      O 3542   1.730   3.267   2.430
 1119HOH     H1 3543   1.803   3.206   2.418
 1119HOH     H2 3544   1.658   3.211   2.458
 1120HOH      O 3545   0.040   2.379   2.428
 1120HOH     H1 3546   0.018   2.308   2.368
 1120HOH     H2 3547   0.022   2.343   2.515
 1121HOH      O 3548   1.629   2.857   0.718
 1121HOH     H1 3549   1.628   2.763   0.701
 1121HOH     H2 3550   1.586   2.895   0.641
 1122HOH      O 3551   0.672   1.595   1.705
 1122HOH     H1 3552   0.727   1.547   1.767
 1122HOH     H2 3553   0.657   1.534   1.634
 1123HOH      O 3554   0.072   0.620   1.722
 1123HOH     H1 3555   0.046   0.712   1.716
 1123HOH     H2 3556   0.031   0.579   1.646
 1124HOH      O 3557   1.466   0.624   2.500
 1124HOH     H1 3558   1.406   0.565   2.456
 1124HOH     H2 3559   1.552   0.582   2.491
 1125HOH      O 3560   1.882   2.787   2.604
 1125HOH     H1 3561   1.889   2.709   2.658
 1125HOH     H2 3562   1.916   2.857   2.659
 1126HOH      O 3563   2.799   3.335   0.935
 1126HOH     H1 3564   2.793   3.247   0.973
 1126HOH     H2 3565   2.884   3.337   0.891
 1127HOH      O 3566   3.333   1.440   0.076
 1127HOH     H1 3567   3.287   1.524   0.072
 1127HOH     H2 3568   3.379   1.435  -0.008
 1128HOH      O 3569   0.837   1.965   1.559
 1128HOH     H1 3570   0.798   2.047   1.529
 1128HOH     H2 3571   0.833   1.908   1.483
 1129HOH      O 3572   1.495   0.675   2.065
 1129HOH     H1 3573   1.411   0.689   2.021
 1129HOH     H2 3574   1.474   0.682   2.159
 1130HOH      O 3575   1.665   2.302   1.325
 1130HOH     H1 3576   1.570   2.295   1.338
 1130HOH     H2 3577   1.676   2.311   1.230
 1131HOH      O 3578   2.715   3.060   2.929
 1131HOH     H1 3579   2.725   3.042   3.022
 1131HOH     H2 3580   2.646   3.127   2.925
 1132HOH      O 3581   3.434   0.274   0.919
 1132HOH     H1 3582   3.468   0.294   1.006
 1132HOH     H2 3583   3.427   0.358   0.875
 1133HOH      O 3584   3.054   0.117   3.279
 1133HOH     H1 3585   3.026   0.195   3.327
 1133HOH     H2 3586   3.003   0.119   3.198
 1134HOH      O 3587   3.425   3.736   3.830
 1134HOH     H1 3588   3.463   3.784   3.905
 1134HOH     H2 3589   3.414   3.647   3.862
 1135HOH      O 3590   2.644   4.023   3.119
 1135HOH     H1 3591   2.662   3.939   3.161
 1135HOH     H2 3592   2.550   4.035   3.129
 1136HOH      O 3593   1.078   2.468   3.093
 1136HOH     H1 3594   1.032   2.514   3.022
 1136HOH     H2 3595   1.018   2.398   3.119
 1137HOH      O 3596   1.276   2.080   3.344
 1137HOH     H1 3597   1.238   2.014   3.286
 1137HOH     H2 3598   1.366   2.089   3.313
 1138HOH      O 3599   0.213   3.844   0.674
 1138HOH     H1 3600   0.172   3.837   0.760
 1138HOH     H2 3601   0.175   3.922   0.635
 1139HOH      O 3602   1.428   2.696   1.764
 1139HOH     H1 3603   1.384   2.719   1.682
 1139HOH     H2 3604   1.521   2.692   1.740
 1140HOH      O 3605   2.398   2.354   2.562
 1140HOH     H1 3606   2.472   2.406   2.528
 1140HOH     H2 3607   2.329   2.419   2.578
 1141HOH      O 3608   1.664   1.193   1.166
 1141HOH     H1 3609   1.670   1.100   1.189
 1141HOH     H2 3610   1.585   1.224   1.212
 1142HOH      O 3611   3.348   0.146   3.287
 1142HOH     H1 3612   3.356   0.117   3.378
 1142HOH     H2 3613   3.255   0.134   3.266
 1143HOH      O 3614   0.536   1.447   3.870
 1143HOH     H1 3615   0.549   1.481   3.782
 1143HOH     H2 3616   0.531   1.352   3.860
 1144HOH      O 3617   3.711   0.501   3.217
 1144HOH     H1 3618   3.757   0.503   3.301
 1144HOH     H2 3619   3.686   0.409   3.206
 1145HOH      O 3620   1.667   2.440   1.957
 1145HOH     H1 3621   1.676   2.521   1.907
 1145HOH     H2 3622   1.573   2.431   1.971
 1146HOH      O 3623   3.306   1.212   3.101
 1146HOH     H1 3624   3.384   1.158   3.114
 1146HOH     H2 3625   3.233   1.153   3.117
 1147HOH      O 3626   1.150   3.369   0.525
 1147HOH     H1 3627   1.191   3.402   0.446
 1147HOH     H2 3628   1.104   3.444   0.563
 1148HOH      O 3629   2.935   0.009   3.539
 1148HOH     H1 3630   3.001  -0.057   3.557
 1148HOH     H2 3631   2.972   0.061   3.467
 1149HOH      O 3632   0.392   2.372   2.987
 1149HOH     H1 3633   0.363   2.455   3.023
 1149HOH     H2 3634   0.361   2.307   3.050
 1150HOH      O 3635   2.617   1.446   2.498
 1150HOH     H1 3636   2.674   1.382   2.540
 1150HOH     H2 3637   2.657   1.531   2.519
 1151HOH      O 3638   3.003   1.781   1.342
 1151HOH     H1 3639   2.913   1.748   1.339
 1151HOH     H2 3640   3.010   1.824   1.427
 1152HOH      O 3641   3.452   0.783   0.724
 1152HOH     H1 3642   3.363   0.805   0.751
 1152HOH     H2 3643   3.496   0.867   0.714
 1153HOH      O 3644   1.129   4.039   0.705
 1153HOH     H1 3645   1.062   3.993   0.655
 1153HOH     H2 3646   1.208   3.986   0.693
 1154HOH      O 3647   0.195   1.907   0.554
 1154HOH     H1 3648   0.235   1.826   0.585
 1154HOH     H2 3649   0.106   1.903   0.587
 1155HOH      O 3650   0.913   3.676   1.913
 1155HOH     H1 3651   0.859   3.754   1.897
 1155HOH     H2 3652   0.870   3.606   1.863
 1156HOH      O 3653   3.185   3.883   0.299
 1156HOH     H1 3654   3.219   3.808   0.250
 1156HOH     H2 3655   3.239   3.887   0.378
 1157HOH      O 3656   0.847   2.109   3.599
 1157HOH     H1 3657   0.915   2.141   3.539
 1157HOH     H2 3658   0.884   2.031   3.639
 1158HOH      O 3659   2.515   3.163   3.882
 1158HOH     H1 3660   2.552   3.079   3.856
 1158HOH     H2 3661   2.534   3.170   3.975
 1159HOH      O 3662   0.286   0.211   0.896
 1159HOH     H1 3663   0.326   0.199   0.983
 1159HOH     H2 3664   0.345   0.166   0.836
 1160HOH      O 3665   2.170   2.301   3.577
 1160HOH     H1 3666   2.092   2.357   3.585
 1160HOH     H2 3667   2.244   2.362   3.587
 1161HOH      O 3668   0.514   0.210   1.060
 1161HOH     H1 3669   0.503   0.304   1.070
 1161HOH     H2 3670   0.609   0.196   1.070
 1162HOH      O 3671   2.803   0.330   1.429
 1162HOH     H1 3672   2.800   0.242   1.392
 1162HOH     H2 3673   2.739   0.380   1.379
 1163HOH      O 3674   0.850   1.464   0.902
 1163HOH     H1 3675   0.869   1.514   0.981
 1163HOH     H2 3676   0.895   1.512   0.832
 1164HOH      O 3677   2.699   3.321   0.502
 1164HOH     H1 3678   2.611   3.309   0.466
 1164HOH     H2 3679   2.698   3.408   0.541
 1165HOH      O 3680   2.561   2.736   1.054
 1165HOH     H1 3681   2.565   2.819   1.101
 1165HOH     H2 3682   2.573   2.760   0.962
 1166HOH      O 3683   1.393   1.746   0.117
 1166HOH     H1 3684   1.417   1.677   0.056
 1166HOH     H2 3685   1.353   1.700   0.191
 1167HOH      O 3686   2.619   0.779   1.572
 1167HOH     H1 3687   2.582   0.738   1.494
 1167HOH     H2 3688   2.712   0.791   1.551
 1168HOH      O 3689   2.225   3.968   0.815
 1168HOH     H1 3690   2.209   3.945   0.724
 1168HOH     H2 3691   2.219   3.885   0.862
 1169HOH      O 3692   2.729   1.363   1.623
 1169HOH     H1 3693   2.663   1.330   1.562
 1169HOH     H2 3694   2.812   1.345   1.579
 1170HOH      O 3695   0.110   2.807   0.662
 1170HOH     H1 3696   0.128   2.898   0.640
 1170HOH     H2 3697   0.066   2.772   0.584
 1171HOH      O 3698   2.869   1.115   3.279
 1171HOH     H1 3699   2.946   1.081   3.325
 1171HOH     H2 3700   2.802   1.122   3.347
 1172HOH      O 3701   3.266   2.943   1.909
 1172HOH     H1 3702   3.360   2.954   1.925
 1172HOH     H2 3703   3.238   2.882   1.978
 1173HOH      O 3704   1.417   3.890   2.319
 1173HOH     H1 3705   1.507   3.857   2.319
 1173HOH     H2 3706   1.364   3.814   2.345
 1174HOH      O 3707   3.281   3.346   0.555
 1174HOH     H1 3708   3.345   3.290   0.599
 1174HOH     H2 3709   3.267   3.419   0.615
 1175HOH      O 3710   0.026   1.959   0.972
 1175HOH     H1 3711   0.057   2.042   0.937
 1175HOH     H2 3712   0.097   1.930   1.030
 1176HOH      O 3713   1.804   2.253   2.637
 1176HOH     H1 3714   1.881   2.309   2.623
 1176HOH     H2 3715   1.742   2.280   2.569
 1177HOH      O 3716   2.584   3.988   2.325
 1177HOH     H1 3717   2.640   3.932   2.271
 1177HOH     H2 3718   2.595   4.076   2.288
 1178HOH      O 3719   3.458   3.802   3.332
 1178HOH     H1 3720   3.365   3.793   3.352
 1178HOH     H2 3721   3.461   3.855   3.253
 1179HOH      O 3722   2.011   0.209   1.625
 1179HOH     H1 3723   2.028   0.116   1.610
 1179HOH     H2 3724   2.016   0.218   1.721
 1180HOH      O 3725   0.202   2.407   0.419
 1180HOH     H1 3726   0.289   2.415   0.459
 1180HOH     H2 3727   0.212   2.338   0.354
 1181HOH      O 3728   0.773   1.035   2.306
 1181HOH     H1 3729   0.692   0.984   2.307
 1181HOH     H2 3730   0.830   0.987   2.246
 1182HOH      O 3731   2.275   1.555   1.477
 1182HOH     H1 3732   2.302   1.624   1.538
 1182HOH     H2 3733   2.191   1.523   1.513
 1183HOH      O 3734   3.274   3.272   3.956
 1183HOH     H1 3735   3.299   3.185   3.927
 1183HOH     H2 3736   3.230   3.311   3.881
 1184HOH      O 3737   1.457   2.289   0.783
 1184HOH     H1 3738   1.452   2.332   0.697
 1184HOH     H2 3739   1.420   2.353   0.844
 1185HOH      O 3740   3.912   3.266   0.256
 1185HOH     H1 3741   3.989   3.286   0.309
 1185HOH     H2 3742   3.933   3.300   0.169
 1186HOH      O 3743   3.354   2.579   3.022
 1186HOH     H1 3744   3.395   2.537   3.098
 1186HOH     H2 3745   3.385   2.669   3.025
 1187HOH      O 3746   2.608   3.139   0.687
 1187HOH     H1 3747   2.688   3.104   0.728
 1187HOH     H2 3748   2.640   3.203   0.623
 1188HOH      O 3749   2.602   0.326   1.127
 1188HOH     H1 3750   2.577   0.382   1.201
 1188HOH     H2 3751   2.607   0.238   1.164
 1189HOH      O 3752   1.665   2.666   3.136
 1189HOH     H1 3753   1.678   2.577   3.105
 1189HOH     H2 3754   1.619   2.710   3.065
 1190HOH      O 3755   1.518   3.468   0.883
 1190HOH     H1 3756   1.438   3.415   0.885
 1190HOH     H2 3757   1.578   3.422   0.941
 1191HOH      O 3758   2.959   2.215   3.575
 1191HOH     H1 3759   2.865   2.203   3.560
 1191HOH     H2 3760   2.998   2.213   3.487
 1192HOH      O 3761   0.151   3.507   0.233
 1192HOH     H1 3762   0.219   3.525   0.168
 1192HOH     H2 3763   0.198   3.498   0.315
 1193HOH      O 3764   1.841   3.637   3.262
 1193HOH     H1 3765   1.811   3.554   3.299
 1193HOH     H2 3766   1.844   3.622   3.168
 1194HOH      O 3767   0.388   3.956   3.000
 1194HOH     H1 3768   0.453   3.932   2.935
 1194HOH     H2 3769   0.439   3.998   3.070
 1195HOH      O 3770   2.458   0.365   2.259
 1195HOH     H1 3771   2.468   0.455   2.229
 1195HOH     H2 3772   2.367   0.358   2.288
 1196HOH      O 3773   3.593   0.915   2.119
 1196HOH     H1 3774   3.512   0.956   2.090
 1196HOH     H2 3775   3.653   0.928   2.045
 1197HOH      O 3776   3.040   2.235   0.772
 1197HOH     H1 3777   3.105   2.212   0.706
 1197HOH     H2 3778   2.981   2.296   0.727
 1198HOH      O 3779   2.748   3.072   3.198
 1198HOH     H1 3780   2.704   3.026   3.270
 1198HOH     H2 3781   2.806   3.134   3.243
 1199HOH      O 3782   3.011   1.815   1.618
 1199HOH     H1 3783   2.970   1.894   1.655
 1199HOH     H2 3784   3.105   1.829   1.631
 1200HOH      O 3785   3.189   1.005   0.382
 1200HOH     H1 3786   3.148   0.953   0.452
 1200HOH     H2 3787   3.280   0.977   0.382
 1201HOH      O 3788   0.728   0.002   0.411
 1201HOH     H1 3789   0.747   0.096   0.415
 1201HOH     H2 3790   0.652  -0.010   0.468
 1202HOH      O 3791   3.703   4.007   1.562
 1202HOH     H1 3792   3.759   3.945   1.609
 1202HOH     H2 3793   3.670   4.066   1.629
 1203HOH      O 3794   2.538   0.605   3.186
 1203HOH     H1 3795   2.568   0.560   3.107
 1203HOH     H2 3796   2.559   0.698   3.170
 1204HOH      O 3797   2.680   0.491   0.211
 1204HOH     H1 3798   2.673   0.491   0.306
 1204HOH     H2 3799   2.767   0.526   0.193
 1205HOH      O 3800   3.774   3.341   2.416
 1205HOH     H1 3801   3.773   3.262   2.471
 1205HOH     H2 3802   3.698   3.392   2.446
 1206HOH      O 3803   1.009   2.623   0.250
 1206HOH     H1 3804   1.049   2.619   0.163
 1206HOH     H2 3805   0.958   2.704   0.249
 1207HOH      O 3806   1.086   3.858   2.583
 1207HOH     H1 3807   1.144   3.919   2.538
 1207HOH     H2 3808   1.145   3.797   2.628
 1208HOH      O 3809   1.151   1.586   1.863
 1208HOH     H1 3810   1.174   1.656   1.803
 1208HOH     H2 3811   1.118   1.631   1.941
 1209HOH      O 3812   1.968   3.012   2.742
 1209HOH     H1 3813   2.006   3.066   2.811
 1209HOH     H2 3814   1.981   3.063   2.662
 1210HOH      O 3815   0.395   1.070  -0.008
 1210HOH     H1 3816   0.357   1.153  -0.037
 1210HOH     H2 3817   0.393   1.074   0.087
 1211HOH      O 3818   2.456   0.373   1.577
 1211HOH     H1 3819   2.409   0.291   1.561
 1211HOH     H2 3820   2.479   0.370   1.670
 1212HOH      O 3821   3.344   1.476   3.091
 1212HOH     H1 3822   3.439   1.477   3.105
 1212HOH     H2 3823   3.319   1.384   3.103
 1213HOH      O 3824   0.571   0.750   1.168
 1213HOH     H1 3825   0.581   0.733   1.261
 1213HOH     H2 3826   0.661   0.762   1.135
 1214HOH      O 3827   2.181   0.153   2.511
 1214HOH     H1 3828   2.158   0.104   2.589
 1214HOH     H2 3829   2.200   0.086   2.445
 1215HOH      O 3830   3.992   1.878   2.792
 1215HOH     H1 3831   3.994   1.827   2.873
 1215HOH     H2 3832   4.001   1.969   2.821
 1216HOH      O 3833   2.216   1.162   0.518
 1216HOH     H1 3834   2.260   1.205   0.592
 1216HOH     H2 3835   2.125   1.194   0.524
 1217HOH      O 3836   1.063   3.763   3.871
 1217HOH     H1 3837   1.158   3.752   3.877
 1217HOH     H2 3838   1.034   3.692   3.813
 1218HOH      O 3839   0.941   0.634   2.957
 1218HOH     H1 3840   1.016   0.688   2.934
 1218HOH     H2 3841   0.881   0.694   3.002
 1219HOH      O 3842   2.701   0.684   1.825
 1219HOH     H1 3843   2.620   0.695   1.874
 1219HOH     H2 3844   2.676   0.704   1.734
 1220HOH      O 3845   2.467   1.733   0.064
 1220HOH     H1 3846   2.457   1.804   0.001
 1220HOH     H2 3847   2.553   1.748   0.103
 1221HOH      O 3848   0.074   1.117   2.807
 1221HOH     H1 3849   0.032   1.188   2.759
 1221HOH     H2 3850   0.154   1.157   2.843
 1222HOH      O 3851   2.687   1.016   2.473
 1222HOH     H1 3852   2.756   0.950   2.468
 1222HOH     H2 3853   2.671   1.027   2.567
 1223HOH      O 3854   3.266   1.254   2.792
 1223HOH     H1 3855   3.354   1.277   2.761
 1223HOH     H2 3856   3.265   1.158   2.791
 1224HOH      O 3857   1.801   1.955   3.432
 1224HOH     H1 3858   1.726   1.906   3.400
 1224HOH     H2 3859   1.841   1.992   3.353
 1225HOH      O 3860   0.064   2.990   3.690
 1225HOH     H1 3861   0.135   2.991   3.625
 1225HOH     H2 3862   0.068   3.077   3.730
 1226HOH      O 3863   1.427   3.880   3.071
 1226HOH     H1 3864   1.455   3.924   2.991
 1226HOH     H2 3865   1.499   3.894   3.133
 1227HOH      O 3866   1.188   0.614   3.697
 1227HOH     H1 3867   1.207   0.694   3.648
 1227HOH     H2 3868   1.150   0.555   3.631
 1228HOH      O 3869   0.014   3.041   3.157
 1228HOH     H1 3870   0.079   3.060   3.089
 1228HOH     H2 3871   0.000   3.126   3.200
 1229HOH      O 3872   2.834   1.649   3.256
 1229HOH     H1 3873   2.867   1.592   3.186
 1229HOH     H2 3874   2.901   1.716   3.266
 1230HOH      O 3875   3.620   3.248   2.043
 1230HOH     H1 3876   3.591   3.312   1.978
 1230HOH     H2 3877   3.682   3.297   2.098
 1231HOH      O 3878   3.033   3.419   3.491
 1231HOH     H1 3879   3.099   3.481   3.463
 1231HOH     H2 3880   3.065   3.334   3.461
 1232HOH      O 3881   1.985   2.744   3.045
 1232HOH     H1 3882   1.908   2.757   3.100
 1232HOH     H2 3883   2.051   2.708   3.105
 1233HOH      O 3884   1.598   4.034   3.584
 1233HOH     H1 3885   1.644   3.959   3.621
 1233HOH     H2 3886   1.569   4.085   3.659
 1234HOH      O 3887   2.719   2.203   2.756
 1234HOH     H1 3888   2.796   2.216   2.701
 1234HOH     H2 3889   2.682   2.120   2.726
 1235HOH      O 3890   1.872   2.768   1.087
 1235HOH     H1 3891   1.815   2.693   1.071
 1235HOH     H2 3892   1.815   2.845   1.078
 1236HOH      O 3893   0.642   1.645   2.204
 1236HOH     H1 3894   0.617   1.556   2.232
 1236HOH     H2 3895   0.593   1.659   2.123
 1237HOH      O 3896   2.558   3.863   2.740
 1237HOH     H1 3897   2.635   3.869   2.685
 1237HOH     H2 3898   2.487   3.902   2.688
 1238HOH      O 3899   0.137   1.470   2.792
 1238HOH     H1 3900   0.110   1.539   2.730
 1238HOH     H2 3901   0.055   1.436   2.828
 1239HOH      O 3902   2.509   3.594   2.693
 1239HOH     H1 3903   2.568   3.567   2.623
 1239HOH     H2 3904   2.537   3.683   2.715
 1240HOH      O 3905   1.310   3.698   2.642
 1240HOH     H1 3906   1.403   3.708   2.661
 1240HOH     H2 3907   1.298   3.604   2.627
 1241HOH      O 3908   1.589   0.944   1.286
 1241HOH     H1 3909   1.542   0.996   1.352
 1241HOH     H2 3910   1.629   0.873   1.336
 1242HOH      O 3911   0.900   2.207   0.551
 1242HOH     H1 3912   0.952   2.281   0.582
 1242HOH     H2 3913   0.941   2.180   0.469
 1243HOH      O 3914   2.352   0.276   1.969
 1243HOH     H1 3915   2.269   0.254   2.012
 1243HOH     H2 3916   2.399   0.192   1.962
 1244HOH      O 3917   0.498   2.807   1.223
 1244HOH     H1 3918   0.550   2.805   1.303
 1244HOH     H2 3919   0.559   2.836   1.155
 1245HOH      O 3920   0.438   3.314   3.857
 1245HOH     H1 3921   0.436   3.388   3.796
 1245HOH     H2 3922   0.518   3.267   3.834
 1246HOH      O 3923   1.926   2.845   1.849
 1246HOH     H1 3924   1.961   2.811   1.932
 1246HOH     H2 3925   1.979   2.803   1.781
 1247HOH      O 3926   3.529   1.852   0.137
 1247HOH     H1 3927   3.560   1.780   0.193
 1247HOH     H2 3928   3.521   1.813   0.050
 1248HOH      O 3929   2.354   0.433   0.676
 1248HOH     H1 3930   2.387   0.506   0.624
 1248HOH     H2 3931   2.378   0.355   0.626
 1249HOH      O 3932   2.282   1.971   0.584
 1249HOH     H1 3933   2.223   1.932   0.519
 1249HOH     H2 3934   2.255   2.062   0.589
 1250HOH      O 3935   0.244   3.295   2.117
 1250HOH     H1 3936   0.160   3.277   2.076
 1250HOH     H2 3937   0.279   3.369   2.068
 1251HOH      O 3938   3.604   2.103   2.286
 1251HOH     H1 3939   3.678   2.115   2.227
 1251HOH     H2 3940   3.537   2.163   2.253
 1252HOH      O 3941   2.325   0.517   1.810
 1252HOH     H1 3942   2.318   0.432   1.854
 1252HOH     H2 3943   2.268   0.509   1.734
 1253HOH      O 3944   0.424   3.518   1.483
 1253HOH     H1 3945   0.389   3.483   1.565
 1253HOH     H2 3946   0.508   3.557   1.508
 1254HOH      O 3947   0.899   1.513   3.374
 1254HOH     H1 3948   0.912   1.432   3.324
 1254HOH     H2 3949   0.805   1.513   3.396
 1255HOH      O 3950   3.119   0.957   3.089
 1255HOH     H1 3951   3.090   0.959   2.998
 1255HOH     H2 3952   3.163   0.872   3.098
 1256HOH      O 3953   1.683   0.375   1.490
 1256HOH     H1 3954   1.758   0.408   1.440
 1256HOH     H2 3955   1.665   0.443   1.555
 1257HOH      O 3956   1.957   1.309   0.542
 1257HOH     H1 3957   1.928   1.218   0.546
 1257HOH     H2 3958   1.924   1.341   0.458
 1258HOH      O 3959   1.636   2.853   1.408
 1258HOH     H1 3960   1.731   2.858   1.405
 1258HOH     H2 3961   1.612   2.913   1.478
 1259HOH      O 3962   2.338   1.623   3.192
 1259HOH     H1 3963   2.391   1.645   3.116
 1259HOH     H2 3964   2.251   1.657   3.172
 1260HOH      O 3965   0.692   3.052   1.331
 1260HOH     H1 3966   0.731   3.044   1.244
 1260HOH     H2 3967   0.764   3.078   1.388
 1261HOH      O 3968   3.813   1.311   3.263
 1261HOH     H1 3969   3.730   1.277   3.229
 1261HOH     H2 3970   3.868   1.234   3.275
 1262HOH      O 3971   2.023   3.247   0.400
 1262HOH     H1 3972   2.042   3.202   0.482
 1262HOH     H2 3973   2.025   3.340   0.423
 1263HOH      O 3974   1.865   2.155   2.130
 1263HOH     H1 3975   1.957   2.129   2.135
 1263HOH     H2 3976   1.817   2.072   2.128
 1264HOH      O 3977   1.501   2.564   2.900
 1264HOH     H1 3978   1.508   2.659   2.905
 1264HOH     H2 3979   1.463   2.538   2.984
 1265HOH      O 3980   2.987   2.319   1.580
 1265HOH     H1 3981   2.917   2.276   1.629
 1265HOH     H2 3982   2.952   2.329   1.492
 1266HOH      O 3983   1.824   3.804   3.608
 1266HOH     H1 3984   1.846   3.882   3.659
 1266HOH     H2 3985   1.878   3.735   3.646
 1267HOH      O 3986   3.794   1.891   1.490
 1267HOH     H1 3987   3.815   1.973   1.445
 1267HOH     H2 3988   3.726   1.851   1.437
 1268HOH      O 3989   3.136   3.879   3.322
 1268HOH     H1 3990   3.075   3.828   3.269
 1268HOH     H2 3991   3.106   3.970   3.313
 1269HOH      O 3992   3.911   1.050   2.450
 1269HOH     H1 3993   3.885   0.959   2.438
 1269HOH     H2 3994   3.857   1.099   2.388
 1270HOH      O 3995   3.845   0.603   3.015
 1270HOH     H1 3996   3.937   0.591   3.039
 1270HOH     H2 3997   3.797   0.561   3.085
 1271HOH      O 3998   2.461   1.708   1.134
 1271HOH     H1 3999   2.387   1.650   1.153
 1271HOH     H2 4000   2.492   1.736   1.220
 1272HOH      O 4001   0.341   0.464   3.196
 1272HOH     H1 4002   0.389   0.464   3.113
 1272HOH     H2 4003   0.307   0.374   3.203
 1273HOH      O 4004   0.703   2.308   2.225
 1273HOH     H1 4005   0.625   2.363   2.224
 1273HOH     H2 4006   0.681   2.236   2.283
 1274HOH      O 4007   2.522   0.206   3.823
 1274HOH     H1 4008   2.555   0.217   3.913
 1274HOH     H2 4009   2.601   0.203   3.769
 1275HOH      O 4010   0.836   1.293   2.779
 1275HOH     H1 4011   0.775   1.310   2.708
 1275HOH     H2 4012   0.896   1.226   2.744
 1276HOH      O 4013   2.963   3.802   2.763
 1276HOH     H1 4014   2.940   3.871   2.701
 1276HOH     H2 4015   3.057   3.788   2.750
 1277HOH      O 4016   1.831   3.474   1.856
 1277HOH     H1 4017   1.902   3.494   1.794
 1277HOH     H2 4018   1.753   3.467   1.801
 1278HOH      O 4019   2.405   1.695   2.392
 1278HOH     H1 4020   2.459   1.765   2.358
 1278HOH     H2 4021   2.466   1.638   2.439
 1279HOH      O 4022   1.840   2.749   3.427
 1279HOH     H1 4023   1.856   2.833   3.384
 1279HOH     H2 4024   1.830   2.687   3.354
 1280HOH      O 4025   3.991   2.208   0.035
 1280HOH     H1 4026   3.906   2.177   0.005
 1280HOH     H2 4027   4.053   2.140   0.009
 1281HOH      O 4028   3.270   3.455   2.057
 1281HOH     H1 4029   3.193   3.401   2.042
 1281HOH     H2 4030   3.320   3.448   1.976
 1282HOH      O 4031   3.077   2.269   1.282
 1282HOH     H1 4032   3.167   2.251   1.309
 1282HOH     H2 4033   3.083   2.351   1.232
 1283HOH      O 4034   0.304   3.293   0.409
 1283HOH     H1 4035   0.219   3.290   0.452
 1283HOH     H2 4036   0.361   3.336   0.472
 1284HOH      O 4037   1.589   0.923   2.573
 1284HOH     H1 4038   1.630   0.857   2.629
 1284HOH     H2 4039   1.568   0.876   2.493
 1285HOH      O 4040   1.111   1.935   1.022
 1285HOH     H1 4041   1.146   1.982   1.098
 1285HOH     H2 4042   1.160   1.970   0.948
 1286HOH      O 4043   3.916   2.073   3.202
 1286HOH     H1 4044   3.836   2.060   3.151
 1286HOH     H2 4045   3.984   2.026   3.153
 1287HOH      O 4046   2.423   1.000   2.621
 1287HOH     H1 4047   2.379   1.020   2.538
 1287HOH     H2 4048   2.431   0.905   2.622
 1288HOH      O 4049   1.087   0.933   1.316
 1288HOH     H1 4050   1.094   0.914   1.222
 1288HOH     H2 4051   1.146   0.870   1.358
 1289HOH      O 4052   3.084   3.820   0.558
 1289HOH     H1 4053   2.995   3.793   0.537
 1289HOH     H2 4054   3.121   3.847   0.475
 1290HOH      O 4055   1.548   1.555   3.678
 1290HOH     H1 4056   1.626   1.567   3.623
 1290HOH     H2 4057   1.475   1.561   3.617
 1291HOH      O 4058   3.275   2.627   3.718
 1291HOH     H1 4059   3.226   2.545   3.707
 1291HOH     H2 4060   3.215   2.684   3.766
 1292HOH      O 4061   3.123   3.339   3.755
 1292HOH     H1 4062   3.073   3.407   3.709
 1292HOH     H2 4063   3.154   3.282   3.685
 1293HOH      O 4064   3.499   3.744   1.270
 1293HOH     H1 4065   3.498   3.795   1.351
 1293HOH     H2 4066   3.420   3.771   1.223
 1294HOH      O 4067   1.627   1.994   1.871
 1294HOH     H1 4068   1.695   2.035   1.818
 1294HOH     H2 4069   1.617   1.907   1.834
 1295HOH      O 4070   2.840   0.890   0.425
 1295HOH     H1 4071   2.900   0.875   0.498
 1295HOH     H2 4072   2.753   0.888   0.465
 1296HOH      O 4073   1.395   1.081   1.440
 1296HOH     H1 4074   1.313   1.096   1.487
 1296HOH     H2 4075   1.404   1.156   1.382
 1297HOH      O 4076   2.524   3.089   1.911
 1297HOH     H1 4077   2.498   3.178   1.936
 1297HOH     H2 4078   2.520   3.088   1.816
 1298HOH      O 4079   2.860   3.111   2.363
 1298HOH     H1 4080   2.949   3.090   2.393
 1298HOH     H2 4081   2.847   3.053   2.288
 1299HOH      O 4082   2.958   0.332   3.428
 1299HOH     H1 4083   3.033   0.385   3.400
 1299HOH     H2 4084   2.881   0.384   3.403
 1300HOH      O 4085   1.996   3.598   3.752
 1300HOH     H1 4086   1.930   3.535   3.781
 1300HOH     H2 4087   2.043   3.623   3.832
 1301HOH      O 4088   1.713   0.592   1.173
 1301HOH     H1 4089   1.775   0.584   1.101
 1301HOH     H2 4090   1.767   0.584   1.252
 1302HOH      O 4091   1.387   1.970   3.579
 1302HOH     H1 4092   1.360   2.013   3.498
 1302HOH     H2 4093   1.376   1.877   3.563
 1303HOH      O 4094   1.949   2.331   1.934
 1303HOH     H1 4095   1.868   2.379   1.950
 1303HOH     H2 4096   1.941   2.252   1.988
 1304HOH      O 4097   2.517   3.736   1.370
 1304HOH     H1 4098   2.567   3.787   1.434
 1304HOH     H2 4099   2.426   3.744   1.399
 1305HOH      O 4100   0.116   2.738   1.145
 1305HOH     H1 4101   0.024   2.713   1.149
 1305HOH     H2 4102   0.159   2.664   1.102
 1306HOH      O 4103   1.210   0.645   3.332
 1306HOH     H1 4104   1.200   0.725   3.384
 1306HOH     H2 4105   1.299   0.615   3.350
 1307HOH      O 4106   3.590   2.837   0.555
 1307HOH     H1 4107   3.593   2.838   0.651
 1307HOH     H2 4108   3.524   2.771   0.534
 1308HOH      O 4109   2.805   1.232   0.636
 1308HOH     H1 4110   2.774   1.295   0.701
 1308HOH     H2 4111   2.797   1.147   0.679
 1309HOH      O 4112   3.443   1.739   1.500
 1309HOH     H1 4113   3.517   1.759   1.441
 1309HOH     H2 4114   3.483   1.727   1.586
 1310HOH      O 4115   0.757   0.287   0.430
 1310HOH     H1 4116   0.820   0.339   0.379
 1310HOH     H2 4117   0.673   0.330   0.414
 1311HOH      O 4118   3.314   1.667   2.230
 1311HOH     H1 4119   3.339   1.585   2.188
 1311HOH     H2 4120   3.341   1.736   2.168
 1312HOH      O 4121   2.003   0.711   1.287
 1312HOH     H1 4122   2.033   0.802   1.292
 1312HOH     H2 4123   1.998   0.692   1.193
 1313HOH      O 4124   0.707   0.325   3.292
 1313HOH     H1 4125   0.778   0.274   3.333
 1313HOH     H2 4126   0.631   0.308   3.348
 1314HOH      O 4127   2.611   2.473   1.658
 1314HOH     H1 4128   2.623   2.564   1.686
 1314HOH     H2 4129   2.517   2.460   1.656
 1315HOH      O 4130   3.597   2.209   0.497
 1315HOH     H1 4131   3.674   2.164   0.533
 1315HOH     H2 4132   3.634   2.281   0.446
 1316HOH      O 4133   1.732   3.996   2.275
 1316HOH     H1 4134   1.757   3.977   2.184
 1316HOH     H2 4135   1.701   3.912   2.309
 1317HOH      O 4136   2.368   3.110   0.382
 1317HOH     H1 4137   2.404   3.199   0.387
 1317HOH     H2 4138   2.329   3.105   0.295
 1318HOH      O 4139   3.211   1.651   0.239
 1318HOH     H1 4140   3.127   1.639   0.284
 1318HOH     H2 4141   3.198   1.729   0.186
 1319HOH      O 4142   1.027   1.243   0.942
 1319HOH     H1 4143   0.972   1.167   0.958
 1319HOH     H2 4144   0.965   1.315   0.932
 1320HOH      O 4145   3.962   2.360   1.130
 1320HOH     H1 4146   3.929   2.270   1.128
 1320HOH     H2 4147   4.033   2.358   1.195
 1321HOH      O 4148   3.390   3.487   0.344
 1321HOH     H1 4149   3.356   3.435   0.418
 1321HOH     H2 4150   3.484   3.488   0.357
 1322HOH      O 4151   1.922   3.662   1.450
 1322HOH     H1 4152   1.911   3.592   1.385
 1322HOH     H2 4153   1.954   3.618   1.528
 1323HOH      O 4154   3.975   1.370   1.942
 1323HOH     H1 4155   3.883   1.346   1.956
 1323HOH     H2 4156   3.970   1.455   1.898
 1324HOH      O 4157   1.305   3.317   3.461
 1324HOH     H1 4158   1.214   3.298   3.484
 1324HOH     H2 4159   1.299   3.378   3.387
 1325HOH      O 4160   2.050   2.447   2.171
 1325HOH     H1 4161   2.067   2.380   2.237
 1325HOH     H2 4162   2.088   2.412   2.091
 1326HOH      O 4163   2.717   0.980   0.176
 1326HOH     H1 4164   2.763   0.916   0.121
 1326HOH     H2 4165   2.750   0.964   0.265
 1327HOH      O 4166   2.010   1.310   0.028
 1327HOH     H1 4167   1.915   1.300   0.019
 1327HOH     H2 4168   2.035   1.366  -0.046
 1328HOH      O 4169   0.377   0.684   0.991
 1328HOH     H1 4170   0.352   0.606   1.040
 1328HOH     H2 4171   0.444   0.726   1.045
 1329HOH      O 4172   3.658   0.962   2.646
 1329HOH     H1 4173   3.617   0.934   2.728
 1329HOH     H2 4174   3.704   0.885   2.614
 1330HOH      O 4175   0.525   1.261   3.322
 1330HOH     H1 4176   0.561   1.172   3.327
 1330HOH     H2 4177   0.430   1.249   3.331
 1331HOH      O 4178   3.834   0.801   1.163
 1331HOH     H1 4179   3.798   0.820   1.250
 1331HOH     H2 4180   3.762   0.759   1.116
 1332HOH      O 4181   2.412   0.882   3.250
 1332HOH     H1 4182   2.374   0.964   3.282
 1332HOH     H2 4183   2.383   0.816   3.313
 1333HOH      O 4184   1.437   2.062   1.236
 1333HOH     H1 4185   1.464   2.101   1.320
 1333HOH     H2 4186   1.346   2.035   1.250
 1334HOH      O 4187   0.433   1.616   0.065
 1334HOH     H1 4188   0.379   1.549   0.022
 1334HOH     H2 4189   0.509   1.626   0.007
 1335HOH      O 4190   0.072   3.848   1.742
 1335HOH     H1 4191   0.023   3.930   1.742
 1335HOH     H2 4192   0.157   3.871   1.778
 1336HOH      O 4193   2.936   2.985   2.802
 1336HOH     H1 4194   2.870   3.045   2.837
 1336HOH     H2 4195   3.011   2.993   2.861
 1337HOH      O 4196   0.942   3.368   0.922
 1337HOH     H1 4197   0.925   3.348   1.014
 1337HOH     H2 4198   1.016   3.429   0.925
 1338HOH      O 4199   0.531  -0.024   1.617
 1338HOH     H1 4200   0.502   0.065   1.597
 1338HOH     H2 4201   0.626  -0.020   1.612
 1339HOH      O 4202   3.346   2.129   2.839
 1339HOH     H1 4203   3.359   2.223   2.827
 1339HOH     H2 4204   3.253   2.115   2.823
 1340HOH      O 4205   2.007   0.367   3.105
 1340HOH     H1 4206   1.985   0.444   3.053
 1340HOH     H2 4207   1.947   0.299   3.073
 1341HOH      O 4208   0.903   1.949   0.626
 1341HOH     H1 4209   0.824   1.912   0.667
 1341HOH     H2 4210   0.881   2.040   0.609
 1342HOH      O 4211   0.379   1.140   2.449
 1342HOH     H1 4212   0.437   1.108   2.518
 1342HOH     H2 4213   0.295   1.096   2.466
 1343HOH      O 4214   0.671   0.073   2.443
 1343HOH     H1 4215   0.703   0.033   2.362
 1343HOH     H2 4216   0.580   0.094   2.425
 1344HOH      O 4217   1.749   0.322   0.233
 1344HOH     H1 4218   1.686   0.250   0.224
 1344HOH     H2 4219   1.709   0.394   0.185
 1345HOH      O 4220   1.823   0.501   3.802
 1345HOH     H1 4221   1.822   0.409   3.831
 1345HOH     H2 4222   1.737   0.535   3.827
 1346HOH      O 4223   3.154   2.320   1.821
 1346HOH     H1 4224   3.101   2.329   1.741
 1346HOH     H2 4225   3.133   2.398   1.872
 1347HOH      O 4226   2.350   2.492   1.695
 1347HOH     H1 4227   2.317   2.531   1.614
 1347HOH     H2 4228   2.284   2.427   1.718
 1348HOH      O 4229   3.238   1.563   1.876
 1348HOH     H1 4230   3.175   1.602   1.936
 1348HOH     H2 4231   3.266   1.636   1.820
 1349HOH      O 4232   2.935   1.170   2.003
 1349HOH     H1 4233   2.944   1.085   1.959
 1349HOH     H2 4234   2.871   1.218   1.950
 1350HOH      O 4235   0.787   2.238   1.500
 1350HOH     H1 4236   0.847   2.287   1.557
 1350HOH     H2 4237   0.701   2.253   1.537
 1351HOH      O 4238   3.198   2.766   2.116
 1351HOH     H1 4239   3.269   2.814   2.160
 1351HOH     H2 4240   3.144   2.732   2.188
 1352HOH      O 4241   3.643   1.482   3.108
 1352HOH     H1 4242   3.638   1.397   3.065
 1352HOH     H2 4243   3.694   1.465   3.187
 1353HOH      O 4244   1.093   2.131   0.254
 1353HOH     H1 4245   1.052   2.214   0.279
 1353HOH     H2 4246   1.022   2.080   0.214
 1354HOH      O 4247   1.790   3.439   3.781
 1354HOH     H1 4248   1.830   3.355   3.755
 1354HOH     H2 4249   1.713   3.414   3.831
 1355HOH      O 4250   1.431   2.300   2.598
 1355HOH     H1 4251   1.456   2.281   2.508
 1355HOH     H2 4252   1.457   2.222   2.648
 1356HOH      O 4253   2.110   1.026   3.614
 1356HOH     H1 4254   2.144   1.053   3.700
 1356HOH     H2 4255   2.051   0.953   3.633
 1357HOH      O 4256   3.376   1.238   0.603
 1357HOH     H1 4257   3.298   1.226   0.658
 1357HOH     H2 4258   3.344   1.226   0.514
 1358HOH      O 4259   3.902   2.540   3.350
 1358HOH     H1 4260   3.903   2.626   3.307
 1358HOH     H2 4261   3.990   2.530   3.386
 1359HOH      O 4262   2.287   3.208   1.392
 1359HOH     H1 4263   2.372   3.212   1.348
 1359HOH     H2 4264   2.238   3.141   1.345
 1360HOH      O 4265   2.329   2.876   3.857
 1360HOH     H1 4266   2.382   2.941   3.813
 1360HOH     H2 4267   2.350   2.886   3.950
 1361HOH      O 4268   3.767   1.157   1.557
 1361HOH     H1 4269   3.769   1.160   1.653
 1361HOH     H2 4270   3.854   1.186   1.530
 1362HOH      O 4271   0.477   0.076   2.703
 1362HOH     H1 4272   0.515   0.157   2.669
 1362HOH     H2 4273   0.493   0.011   2.635
 1363HOH      O 4274   0.416   2.543   1.302
 1363HOH     H1 4275   0.488   2.496   1.261
 1363HOH     H2 4276   0.413   2.627   1.255
 1364HOH      O 4277   2.582   1.446   0.276
 1364HOH     H1 4278   2.500   1.493   0.262
 1364HOH     H2 4279   2.650   1.508   0.248
 1365HOH      O 4280   0.203   3.081   2.551
 1365HOH     H1 4281   0.209   3.163   2.503
 1365HOH     H2 4282   0.291   3.043   2.545
 1366HOH      O 4283   1.952   0.724   1.551
 1366HOH     H1 4284   1.982   0.729   1.461
 1366HOH     H2 4285   1.992   0.645   1.586
 1367HOH      O 4286   3.500   3.749   1.790
 1367HOH     H1 4287   3.510   3.843   1.801
 1367HOH     H2 4288   3.407   3.737   1.772
 1368HOH      O 4289   0.285   0.477   0.517
 1368HOH     H1 4290   0.363   0.440   0.475
 1368HOH     H2 4291   0.306   0.473   0.611
 1369HOH      O 4292   3.759   2.393   1.352
 1369HOH     H1 4293   3.766   2.383   1.257
 1369HOH     H2 4294   3.678   2.442   1.365
 1370HOH      O 4295   2.573   2.366   2.938
 1370HOH     H1 4296   2.631   2.322   2.876
 1370HOH     H2 4297   2.573   2.458   2.910
 1371HOH      O 4298   1.155   0.291   3.257
 1371HOH     H1 4299   1.230   0.241   3.225
 1371HOH     H2 4300   1.107   0.316   3.177
 1372HOH      O 4301   0.686   1.221   1.682
 1372HOH     H1 4302   0.706   1.231   1.775
 1372HOH     H2 4303   0.592   1.203   1.680
 1373HOH      O 4304   3.501   1.628   3.436
 1373HOH     H1 4305   3.548   1.678   3.369
 1373HOH     H2 4306   3.569   1.586   3.487
 1374HOH      O 4307   1.526   1.205   2.613
 1374HOH     H1 4308   1.565   1.266   2.676
 1374HOH     H2 4309   1.571   1.122   2.629
 1375HOH      O 4310   1.924   3.328   2.979
 1375HOH     H1 4311   1.910   3.233   2.977
 1375HOH     H2 4312   1.962   3.348   2.893
 1376HOH      O 4313   1.682   1.571   2.257
 1376HOH     H1 4314   1.649   1.530   2.176
 1376HOH     H2 4315   1.660   1.508   2.326
 1377HOH      O 4316   2.647   0.213   3.299
 1377HOH     H1 4317   2.560   0.176   3.284
 1377HOH     H2 4318   2.702   0.171   3.232
 1378HOH      O 4319   3.399   0.618   1.486
 1378HOH     H1 4320   3.428   0.552   1.548
 1378HOH     H2 4321   3.420   0.701   1.527
 1379HOH      O 4322   3.739   4.001   1.271
 1379HOH     H1 4323   3.695   3.969   1.349
 1379HOH     H2 4324   3.771   4.088   1.295
 1380HOH      O 4325   1.573   3.692   2.683
 1380HOH     H1 4326   1.636   3.764   2.679
 1380HOH     H2 4327   1.584   3.647   2.599
 1381HOH      O 4328   0.110   3.651   1.538
 1381HOH     H1 4329   0.205   3.639   1.546
 1381HOH     H2 4330   0.085   3.693   1.620
 1382HOH      O 4331   2.717   1.742   1.072
 1382HOH     H1 4332   2.715   1.838   1.075
 1382HOH     H2 4333   2.626   1.715   1.086
 1383HOH      O 4334   3.454   2.317   2.557
 1383HOH     H1 4335   3.454   2.326   2.653
 1383HOH     H2 4336   3.477   2.226   2.541
 1384HOH      O 4337   0.177   3.070   0.264
 1384HOH     H1 4338   0.175   3.021   0.182
 1384HOH     H2 4339   0.235   3.144   0.247
 1385HOH      O 4340   0.558   2.021   1.336
 1385HOH     H1 4341   0.470   2.051   1.314
 1385HOH     H2 4342   0.602   2.009   1.252
 1386HOH      O 4343   2.337   0.711   3.477
 1386HOH     H1 4344   2.385   0.640   3.519
 1386HOH     H2 4345   2.363   0.789   3.526
 1387HOH      O 4346   3.111   3.286   2.742
 1387HOH     H1 4347   3.157   3.356   2.789
 1387HOH     H2 4348   3.049   3.251   2.806
 1388HOH      O 4349   3.665   3.306   3.916
 1388HOH     H1 4350   3.661   3.211   3.929
 1388HOH     H2 4351   3.756   3.329   3.936
 1389HOH      O 4352   0.936   3.361   2.940
 1389HOH     H1 4353   1.025   3.327   2.927
 1389HOH     H2 4354   0.946   3.456   2.931
 1390HOH      O 4355   0.199   3.763   2.955
 1390HOH     H1 4356   0.245   3.689   2.915
 1390HOH     H2 4357   0.267   3.829   2.966
 1391HOH      O 4358   0.861   2.939   2.995
 1391HOH     H1 4359   0.952   2.930   3.024
 1391HOH     H2 4360   0.837   3.028   3.019
 1392HOH      O 4361   3.556   1.380   0.312
 1392HOH     H1 4362   3.602   1.349   0.234
 1392HOH     H2 4363   3.623   1.384   0.380
 1393HOH      O 4364   3.950   0.165   3.130
 1393HOH     H1 4365   4.040   0.138   3.148
 1393HOH     H2 4366   3.957   0.218   3.051
 1394HOH      O 4367   1.805   1.789   2.433
 1394HOH     H1 4368   1.742   1.808   2.364
 1394HOH     H2 4369   1.847   1.707   2.405
 1395HOH      O 4370   3.308   1.986   0.183
 1395HOH     H1 4371   3.379   1.933   0.147
 1395HOH     H2 4372   3.229   1.934   0.167
 1396HOH      O 4373   2.607   2.170   1.375
 1396HOH     H1 4374   2.577   2.127   1.455
 1396HOH     H2 4375   2.700   2.149   1.370
 1397HOH      O 4376   2.896   0.677   3.335
 1397HOH     H1 4377   2.815   0.724   3.315
 1397HOH     H2 4378   2.870   0.612   3.400
 1398HOH      O 4379   2.593   3.328   3.542
 1398HOH     H1 4380   2.515   3.301   3.592
 1398HOH     H2 4381   2.577   3.295   3.454
 1399HOH      O 4382   2.131   3.105   0.199
 1399HOH     H1 4383   2.109   3.158   0.122
 1399HOH     H2 4384   2.107   3.159   0.274
 1400HOH      O 4385   1.331   2.564   0.767
 1400HOH     H1 4386   1.284   2.534   0.845
 1400HOH     H2 4387   1.318   2.659   0.767
 1401HOH      O 4388   2.281   2.631   1.477
 1401HOH     H1 4389   2.324   2.651   1.394
 1401HOH     H2 4390   2.305   2.704   1.535
 1402HOH      O 4391   0.136   2.415   1.299
 1402HOH     H1 4392   0.219   2.459   1.281
 1402HOH     H2 4393   0.159   2.345   1.361
 1403HOH      O 4394   2.150   0.710   2.668
 1403HOH     H1 4395   2.191   0.677   2.588
 1403HOH     H2 4396   2.058   0.721   2.645
 1404HOH      O 4397   3.284   2.076   3.158
 1404HOH     H1 4398   3.349   2.143   3.178
 1404HOH     H2 4399   3.284   2.071   3.062
 1405HOH      O 4400   0.522   1.906   2.996
 1405HOH     H1 4401   0.454   1.959   2.953
 1405HOH     H2 4402   0.567   1.862   2.924
 1406HOH      O 4403   3.007   0.651   2.607
 1406HOH     H1 4404   2.990   0.727   2.552
 1406HOH     H2 4405   2.957   0.667   2.687
 1407HOH      O 4406   3.258   1.862   2.603
 1407HOH     H1 4407   3.240   1.951   2.574
 1407HOH     H2 4408   3.209   1.806   2.543
 1408HOH      O 4409   1.747   2.420   0.635
 1408HOH     H1 4410   1.662   2.443   0.597
 1408HOH     H2 4411   1.726   2.389   0.723
 1409HOH      O 4412   2.948   2.629   3.521
 1409HOH     H1 4413   2.864   2.593   3.494
 1409HOH     H2 4414   2.926   2.704   3.576
 1410HOH      O 4415   1.879   0.891   1.056
 1410HOH     H1 4416   1.888   0.920   1.147
 1410HOH     H2 4417   1.799   0.839   1.055
 1411HOH      O 4418   2.121   0.947   1.308
 1411HOH     H1 4419   2.107   1.017   1.244
 1411HOH     H2 4420   2.191   0.980   1.365
 1412HOH      O 4421   1.375   1.486   0.947
 1412HOH     H1 4422   1.435   1.535   0.890
 1412HOH     H2 4423   1.293   1.535   0.943
 1413HOH      O 4424   3.445   2.196   2.050
 1413HOH     H1 4425   3.470   2.209   1.959
 1413HOH     H2 4426   3.386   2.121   2.048
 1414HOH      O 4427   3.152   1.061   1.382
 1414HOH     H1 4428   3.168   0.967   1.378
 1414HOH     H2 4429   3.233   1.101   1.350
 1415HOH      O 4430   1.881   1.911   0.252
 1415HOH     H1 4431   1.911   1.987   0.202
 1415HOH     H2 4432   1.903   1.836   0.197
 1416HOH      O 4433   3.811   3.740   0.956
 1416HOH     H1 4434   3.761   3.723   1.036
 1416HOH     H2 4435   3.860   3.820   0.975
 1417HOH      O 4436   3.569   3.173   0.259
 1417HOH     H1 4437   3.629   3.150   0.188
 1417HOH     H2 4438   3.557   3.267   0.251
 1418HOH      O 4439   1.059   2.257   2.868
 1418HOH     H1 4440   1.090   2.215   2.948
 1418HOH     H2 4441   1.092   2.347   2.873
 1419HOH      O 4442   3.099   2.415   3.173
 1419HOH     H1 4443   3.127   2.505   3.189
 1419HOH     H2 4444   3.058   2.418   3.086
 1420HOH      O 4445   2.196   3.784   2.774
 1420HOH     H1 4446   2.105   3.760   2.795
 1420HOH     H2 4447   2.214   3.738   2.692
 1421HOH      O 4448   1.816   2.503   1.516
 1421HOH     H1 4449   1.780   2.476   1.431
 1421HOH     H2 4450   1.911   2.495   1.505
 1422HOH      O 4451   0.864   3.926   2.927
 1422HOH     H1 4452   0.935   3.986   2.948
 1422HOH     H2 4453   0.835   3.952   2.839
 1423HOH      O 4454   0.926   0.800   1.511
 1423HOH     H1 4455   1.017   0.823   1.493
 1423HOH     H2 4456   0.877   0.881   1.499
 1424HOH      O 4457   2.239   0.826   3.843
 1424HOH     H1 4458   2.261   0.801   3.932
 1424HOH     H2 4459   2.231   0.743   3.796
 1425HOH      O 4460   0.526   0.099   0.089
 1425HOH     H1 4461   0.465   0.171   0.072
 1425HOH     H2 4462   0.490   0.056   0.167
 1426HOH      O 4463   1.611   3.278   2.141
 1426HOH     H1 4464   1.543   3.234   2.193
 1426HOH     H2 4465   1.590   3.371   2.148
 1427HOH      O 4466   1.385   1.935   3.956
 1427HOH     H1 4467   1.411   1.883   4.032
 1427HOH     H2 4468   1.468   1.954   3.911
 1428HOH      O 4469   2.326   0.462   0.180
 1428HOH     H1 4470   2.296   0.515   0.107
 1428HOH     H2 4471   2.326   0.521   0.255
 1429HOH      O 4472   4.013   3.425   0.809
 1429HOH     H1 4473   3.952   3.382   0.749
 1429HOH     H2 4474   4.005   3.377   0.891
 1430HOH      O 4475   3.057   1.872   0.107
 1430HOH     H1 4476   3.026   1.806   0.044
 1430HOH     H2 4477   2.991   1.941   0.104
 1431HOH      O 4478   3.566   0.577   1.160
 1431HOH     H1 4479   3.566   0.643   1.090
 1431HOH     H2 4480   3.652   0.535   1.153
 1432HOH      O 4481   3.000   1.868   3.331
 1432HOH     H1 4482   2.944   1.942   3.353
 1432HOH     H2 4483   3.067   1.867   3.399
 1433HOH      O 4484   3.148   1.308   1.764
 1433HOH     H1 4485   3.160   1.396   1.800
 1433HOH     H2 4486   3.216   1.256   1.806
 1434HOH      O 4487   3.733   2.344   3.255
 1434HOH     H1 4488   3.777   2.420   3.293
 1434HOH     H2 4489   3.778   2.330   3.171
 1435HOH      O 4490   3.106   1.176   3.609
 1435HOH     H1 4491   3.082   1.268   3.597
 1435HOH     H2 4492   3.100   1.139   3.520
 1436HOH      O 4493   3.420   0.380   3.536
 1436HOH     H1 4494   3.341   0.381   3.482
 1436HOH     H2 4495   3.442   0.287   3.544
 1437HOH      O 4496   1.503   2.460   3.485
 1437HOH     H1 4497   1.500   2.539   3.430
 1437HOH     H2 4498   1.513   2.388   3.423
 1438HOH      O 4499   3.995   0.454   1.532
 1438HOH     H1 4500   4.058   0.389   1.501
 1438HOH     H2 4501   3.930   0.403   1.580
 1439HOH      O 4502   3.648   2.098   2.805
 1439HOH     H1 4503   3.688   2.052   2.732
 1439HOH     H2 4504   3.557   2.067   2.806
 1440HOH      O 4505   2.717   1.934   3.656
 1440HOH     H1 4506   2.726   1.948   3.562
 1440HOH     H2 4507   2.634   1.976   3.679
 1441HOH      O 4508   2.890   0.809   1.568
 1441HOH     H1 4509   2.911   0.790   1.477
 1441HOH     H2 4510   2.953   0.757   1.618
 1442HOH      O 4511   2.167   3.915   0.535
 1442HOH     H1 4512   2.180   3.860   0.458
 1442HOH     H2 4513   2.148   4.002   0.500
 1443HOH      O 4514   2.876   2.612   2.219
 1443HOH     H1 4515   2.896   2.522   2.246
 1443HOH     H2 4516   2.876   2.609   2.124
 1444HOH      O 4517   2.291   2.856   3.085
 1444HOH     H1 4518   2.269   2.845   3.178
 1444HOH     H2 4519   2.238   2.931   3.057
 1445HOH      O 4520   3.482   2.495   1.442
 1445HOH     H1 4521   3.525   2.581   1.437
 1445HOH     H2 4522   3.458   2.486   1.534
 1446HOH      O 4523   3.421   3.431   1.826
 1446HOH     H1 4524   3.447   3.345   1.794
 1446HOH     H2 4525   3.456   3.492   1.762
 1447HOH      O 4526   1.341   3.755   3.832
 1447HOH     H1 4527   1.333   3.697   3.757
 1447HOH     H2 4528   1.435   3.763   3.847
 1448HOH      O 4529   1.553   2.916   3.453
 1448HOH     H1 4530   1.508   2.975   3.393
 1448HOH     H2 4531   1.617   2.972   3.497
 1449HOH      O 4532   1.115   3.819   0.115
 1449HOH     H1 4533   1.031   3.819   0.161
 1449HOH     H2 4534   1.092   3.831   0.023
 1450HOH      O 4535   3.290   0.383   2.518
 1450HOH     H1 4536   3.282   0.313   2.454
 1450HOH     H2 4537   3.212   0.375   2.572
 1451HOH      O 4538   3.126   2.582   1.892
 1451HOH     H1 4539   3.171   2.664   1.911
 1451HOH     H2 4540   3.102   2.589   1.800
 1452HOH      O 4541   3.966   1.723   1.315
 1452HOH     H1 4542   3.884   1.750   1.274
 1452HOH     H2 4543   3.951   1.734   1.409
 1453HOH      O 4544   2.511   3.611   3.052
 1453HOH     H1 4545   2.451   3.685   3.056
 1453HOH     H2 4546   2.590   3.645   3.011
 1454HOH      O 4547   2.193   0.371   2.349
 1454HOH     H1 4548   2.188   0.302   2.416
 1454HOH     H2 4549   2.102   0.382   2.320
 1455HOH      O 4550   1.555   0.718   3.057
 1455HOH     H1 4551   1.529   0.627   3.042
 1455HOH     H2 4552   1.542   0.731   3.151
 1456HOH      O 4553   1.050   0.670   1.805
 1456HOH     H1 4554   1.120   0.640   1.746
 1456HOH     H2 4555   1.090   0.668   1.892
 1457HOH      O 4556   0.007   0.743   3.463
 1457HOH     H1 4557   0.051   0.676   3.410
 1457HOH     H2 4558   0.041   0.826   3.430
 1458HOH      O 4559   3.149   0.752   3.416
 1458HOH     H1 4560   3.054   0.738   3.409
 1458HOH     H2 4561   3.163   0.774   3.508
 1459HOH      O 4562   2.273   0.583   2.896
 1459HOH     H1 4563   2.245   0.635   2.821
 1459HOH     H2 4564   2.304   0.501   2.859
 1460HOH      O 4565   1.708   2.259   0.863
 1460HOH     H1 4566   1.628   2.267   0.915
 1460HOH     H2 4567   1.747   2.177   0.893
 1461HOH      O 4568   0.100   3.194   1.802
 1461HOH     H1 4569   0.063   3.203   1.889
 1461HOH     H2 4570   0.172   3.131   1.813
 1462HOH      O 4571   2.432   0.915   3.642
 1462HOH     H1 4572   2.397   0.901   3.730
 1462HOH     H2 4573   2.504   0.976   3.655
 1463HOH      O 4574   2.817   1.800   0.409
 1463HOH     H1 4575   2.867   1.719   0.420
 1463HOH     H2 4576   2.744   1.792   0.469
 1464HOH      O 4577   2.349   1.151   3.463
 1464HOH     H1 4578   2.322   1.141   3.372
 1464HOH     H2 4579   2.309   1.078   3.509
 1465HOH      O 4580   0.531   0.913   0.389
 1465HOH     H1 4581   0.538   0.935   0.296
 1465HOH     H2 4582   0.529   0.998   0.434
 1466HOH      O 4583   1.124   2.753   2.704
 1466HOH     H1 4584   1.040   2.750   2.657
 1466HOH     H2 4585   1.146   2.661   2.721
 1467HOH      O 4586   3.542   3.744   0.643
 1467HOH     H1 4587   3.616   3.686   0.625
 1467HOH     H2 4588   3.521   3.727   0.735
 1468HOH      O 4589   2.232   3.069   1.691
 1468HOH     H1 4590   2.261   2.980   1.671
 1468HOH     H2 4591   2.137   3.067   1.675
 1469HOH      O 4592   2.211   3.682   0.941
 1469HOH     H1 4593   2.233   3.635   0.861
 1469HOH     H2 4594   2.258   3.634   1.010
 1470HOH      O 4595   1.549   2.619   0.564
 1470HOH     H1 4596   1.471   2.587   0.611
 1470HOH     H2 4597   1.521   2.626   0.473
 1471HOH      O 4598   1.755   2.220   3.573
 1471HOH     H1 4599   1.783   2.136   3.537
 1471HOH     H2 4600   1.685   2.249   3.515
 1472HOH      O 4601   0.038   3.911   4.007
 1472HOH     H1 4602  -0.038   3.855   3.992
 1472HOH     H2 4603   0.010   3.998   3.980
 1473HOH      O 4604   2.489   2.919   2.397
 1473HOH     H1 4605   2.449   2.992   2.445
 1473HOH     H2 4606   2.475   2.940   2.305
 1474HOH      O 4607   1.047   2.259   1.011
 1474HOH     H1 4608   0.958   2.273   0.977
 1474HOH     H2 4609   1.034   2.219   1.097
 1475HOH      O 4610   3.327   0.991   2.482
 1475HOH     H1 4611   3.239   1.011   2.515
 1475HOH     H2 4612   3.329   0.896   2.476
 1476HOH      O 4613   0.514   3.780   3.831
 1476HOH     H1 4614   0.530   3.874   3.833
 1476HOH     H2 4615   0.452   3.765   3.902
 1477HOH      O 4616   0.490   0.300   3.481
 1477HOH     H1 4617   0.492   0.372   3.544
 1477HOH     H2 4618   0.559   0.240   3.512
 1478HOH      O 4619   2.182   2.792   0.248
 1478HOH     H1 4620   2.122   2.865   0.263
 1478HOH     H2 4621   2.212   2.768   0.336
 1479HOH      O 4622   0.356   3.474   0.055
 1479HOH     H1 4623   0.399   3.411  -0.002
 1479HOH     H2 4624   0.301   3.526  -0.003
 1480HOH      O 4625   2.233   3.537   0.396
 1480HOH     H1 4626   2.214   3.628   0.373
 1480HOH     H2 4627   2.146   3.499   0.412
 1481HOH      O 4628   0.155   2.591   2.321
 1481HOH     H1 4629   0.100   2.532   2.372
 1481HOH     H2 4630   0.244   2.563   2.340
 1482HOH      O 4631   3.541   0.486   2.114
 1482HOH     H1 4632   3.557   0.406   2.163
 1482HOH     H2 4633   3.450   0.478   2.084
 1483HOH      O 4634   1.205   3.940   2.099
 1483HOH     H1 4635   1.251   3.944   2.183
 1483HOH     H2 4636   1.211   4.028   2.064
 1484HOH      O 4637   2.667   0.106   2.847
 1484HOH     H1 4638   2.653   0.065   2.932
 1484HOH     H2 4639   2.597   0.071   2.791
 1485HOH      O 4640   2.020   1.775   3.185
 1485HOH     H1 4641   1.991   1.706   3.125
 1485HOH     H2 4642   1.958   1.846   3.171
 1486HOH      O 4643   2.775   1.521   2.829
 1486HOH     H1 4644   2.857   1.497   2.872
 1486HOH     H2 4645   2.756   1.447   2.771
 1487HOH      O 4646   3.043   2.177   0.008
 1487HOH     H1 4647   3.025   2.137   0.093
 1487HOH     H2 4648   3.136   2.202   0.012
 1488HOH      O 4649   1.913   0.478   1.393
 1488HOH     H1 4650   1.949   0.566   1.386
 1488HOH     H2 4651   1.989   0.421   1.404
 1489HOH      O 4652   0.205   2.590   3.967
 1489HOH     H1 4653   0.298   2.566   3.962
 1489HOH     H2 4654   0.201   2.657   4.034
 1490HOH      O 4655   2.701   3.335   1.508
 1490HOH     H1 4656   2.626   3.287   1.543
 1490HOH     H2 4657   2.755   3.355   1.584
 1491HOH      O 4658   0.316   0.094   3.696
 1491HOH     H1 4659   0.309   0.080   3.790
 1491HOH     H2 4660   0.405   0.126   3.683
 1492HOH      O 4661   3.493   2.245   3.161
 1492HOH     H1 4662   3.513   2.284   3.075
 1492HOH     H2 4663   3.551   2.292   3.221
 1493HOH      O 4664   2.989   1.697   0.681
 1493HOH     H1 4665   2.902   1.722   0.712
 1493HOH     H2 4666   3.040   1.684   0.761
 1494HOH      O 4667   0.184   1.288   2.316
 1494HOH     H1 4668   0.252   1.222   2.302
 1494HOH     H2 4669   0.214   1.336   2.394
 1495HOH      O 4670   3.049   2.674   0.407
 1495HOH     H1 4671   3.067   2.585   0.439
 1495HOH     H2 4672   3.134   2.719   0.412
 1496HOH      O 4673   1.946   3.763   1.051
 1496HOH     H1 4674   2.024   3.738   1.002
 1496HOH     H2 4675   1.957   3.857   1.068
 1497HOH      O 4676   1.962   2.172   0.093
 1497HOH     H1 4677   1.970   2.267   0.088
 1497HOH     H2 4678   1.868   2.156   0.083
 1498HOH      O 4679   1.486   3.197   1.822
 1498HOH     H1 4680   1.433   3.125   1.857
 1498HOH     H2 4681   1.569   3.191   1.869
 1499HOH      O 4682   2.585   1.213   2.308
 1499HOH     H1 4683   2.573   1.284   2.372
 1499HOH     H2 4684   2.610   1.137   2.361
 1500HOH      O 4685   2.355   3.837   2.215
 1500HOH     H1 4686   2.442   3.855   2.251
 1500HOH     H2 4687   2.357   3.743   2.194
 1501HOH      O 4688   1.992   0.883   1.782
 1501HOH     H1 4689   1.976   0.851   1.694
 1501HOH     H2 4690   2.057   0.822   1.818
 1502HOH      O 4691   2.407   2.090   3.308
 1502HOH     H1 4692   2.430   2.000   3.282
 1502HOH     H2 4693   2.431   2.143   3.232
 1503HOH      O 4694   1.110   2.589   3.672
 1503HOH     H1 4695   1.185   2.530   3.663
 1503HOH     H2 4696   1.146   2.667   3.713
 1504HOH      O 4697   2.248   1.540   1.199
 1504HOH     H1 4698   2.268   1.541   1.292
 1504HOH     H2 4699   2.164   1.494   1.193
 1505HOH      O 4700   3.673   3.802   2.247
 1505HOH     H1 4701   3.757   3.766   2.278
 1505HOH     H2 4702   3.644   3.740   2.180
 1506HOH      O 4703   2.351   2.713   1.233
 1506HOH     H1 4704   2.432   2.695   1.185
 1506HOH     H2 4705   2.309   2.783   1.183
 1507HOH      O 4706   4.007   3.244   2.040
 1507HOH     H1 4707   3.965   3.158   2.037
 1507HOH     H2 4708   3.942   3.302   2.079
 1508HOH      O 4709   2.970   0.060   3.858
 1508HOH     H1 4710   2.953   0.056   3.764
 1508HOH     H2 4711   3.004  -0.027   3.880
 1509HOH      O 4712   2.895   0.893   1.879
 1509HOH     H1 4713   2.936   0.884   1.793
 1509HOH     H2 4714   2.821   0.832   1.877
 1510HOH      O 4715   3.328   3.007   0.213
 1510HOH     H1 4716   3.405   3.056   0.240
 1510HOH     H2 4717   3.337   2.998   0.118
 1511HOH      O 4718   0.037   3.061   0.831
 1511HOH     H1 4719   0.049   3.020   0.745
 1511HOH     H2 4720   0.082   3.003   0.892
 1512HOH      O 4721   2.458   1.156   3.859
 1512HOH     H1 4722   2.470   1.108   3.941
 1512HOH     H2 4723   2.363   1.160   3.847
 1513HOH      O 4724   3.085   1.222   1.077
 1513HOH     H1 4725   3.132   1.297   1.114
 1513HOH     H2 4726   3.003   1.220   1.126
 1514HOH      O 4727   0.760   0.490   0.629
 1514HOH     H1 4728   0.721   0.403   0.637
 1514HOH     H2 4729   0.800   0.491   0.543
 1515HOH      O 4730   3.933   3.439   2.953
 1515HOH     H1 4731   3.943   3.534   2.947
 1515HOH     H2 4732   4.023   3.405   2.951
 1516HOH      O 4733   2.786   3.443   3.047
 1516HOH     H1 4734   2.804   3.517   2.989
 1516HOH     H2 4735   2.857   3.381   3.029
 1517HOH      O 4736   3.110   0.160   1.618
 1517HOH     H1 4737   3.047   0.228   1.595
 1517HOH     H2 4738   3.147   0.132   1.534
 1518HOH      O 4739   1.308   3.620   0.126
 1518HOH     H1 4740   1.252   3.697   0.131
 1518HOH     H2 4741   1.325   3.609   0.032
 1519HOH      O 4742   2.629   2.665   2.398
 1519HOH     H1 4743   2.600   2.755   2.390
 1519HOH     H2 4744   2.716   2.664   2.358
 1520HOH      O 4745   1.994   2.492   3.727
 1520HOH     H1 4746   1.917   2.548   3.720
 1520HOH     H2 4747   2.064   2.550   3.758
 1521HOH      O 4748   3.173   0.602   0.882
 1521HOH     H1 4749   3.254   0.555   0.863
 1521HOH     H2 4750   3.113   0.576   0.813
 1522HOH      O 4751   0.500   1.832   0.967
 1522HOH     H1 4752   0.554   1.822   0.889
 1522HOH     H2 4753   0.553   1.886   1.026
 1523HOH      O 4754   2.205   3.808   1.420
 1523HOH     H1 4755   2.140   3.768   1.362
 1523HOH     H2 4756   2.198   3.902   1.403
 1524HOH      O 4757   3.225   0.605   2.224
 1524HOH     H1 4758   3.214   0.666   2.151
 1524HOH     H2 4759   3.243   0.520   2.183
 1525HOH      O 4760   1.654   1.870   1.611
 1525HOH     H1 4761   1.731   1.927   1.605
 1525HOH     H2 4762   1.686   1.785   1.583
 1526HOH      O 4763   2.749   2.250   1.710
 1526HOH     H1 4764   2.729   2.236   1.803
 1526HOH     H2 4765   2.718   2.339   1.692
 1527HOH      O 4766   0.449   2.859   2.309
 1527HOH     H1 4767   0.366   2.820   2.337
 1527HOH     H2 4768   0.423   2.927   2.247
 1528HOH      O 4769   0.510   0.509   2.492
 1528HOH     H1 4770   0.580   0.565   2.527
 1528HOH     H2 4771   0.539   0.420   2.510
 1529HOH      O 4772   1.719   1.790   0.532
 1529HOH     H1 4773   1.775   1.780   0.609
 1529HOH     H2 4774   1.708   1.702   0.498
 1530HOH      O 4775   3.904   2.318   3.760
 1530HOH     H1 4776   3.886   2.358   3.675
 1530HOH     H2 4777   3.862   2.376   3.823
 1531HOH      O 4778   0.578   2.783   0.691
 1531HOH     H1 4779   0.651   2.842   0.709
 1531HOH     H2 4780   0.518   2.834   0.638
 1532HOH      O 4781   0.171   1.724   3.802
 1532HOH     H1 4782   0.077   1.730   3.815
 1532HOH     H2 4783   0.181   1.707   3.708
 1533HOH      O 4784   2.658  -0.013   0.502
 1533HOH     H1 4785   2.674   0.028   0.587
 1533HOH     H2 4786   2.685   0.054   0.438
 1534HOH      O 4787   0.132   3.039   0.538
 1534HOH     H1 4788   0.130   3.045   0.443
 1534HOH     H2 4789   0.095   3.123   0.568
 1535HOH      O 4790   2.953   3.212   2.962
 1535HOH     H1 4791   2.869   3.166   2.963
 1535HOH     H2 4792   3.014   3.149   3.001
 1536HOH      O 4793   3.094   0.410   2.719
 1536HOH     H1 4794   3.126   0.463   2.792
 1536HOH     H2 4795   3.047   0.473   2.663
 1537HOH      O 4796   1.982   2.588   1.276
 1537HOH     H1 4797   1.987   2.656   1.343
 1537HOH     H2 4798   1.954   2.635   1.197
 1538HOH      O 4799   0.049   0.834   0.192
 1538HOH     H1 4800   0.127   0.817   0.246
 1538HOH     H2 4801   0.021   0.921   0.218
 1539HOH      O 4802   2.854   0.292   1.692
 1539HOH     H1 4803   2.787   0.223   1.693
 1539HOH     H2 4804   2.835   0.342   1.612
 1540HOH      O 4805   1.180   3.327   1.167
 1540HOH     H1 4806   1.116   3.389   1.201
 1540HOH     H2 4807   1.223   3.292   1.245
 1541HOH      O 4808   3.742   3.538   0.720
 1541HOH     H1 4809   3.792   3.579   0.650
 1541HOH     H2 4810   3.778   3.574   0.801
 1542HOH      O 4811   2.829   2.578   3.079
 1542HOH     H1 4812   2.872   2.626   3.007
 1542HOH     H2 4813   2.837   2.486   3.054
 1543HOH      O 4814   1.441   0.929   1.018
 1543HOH     H1 4815   1.499   0.922   1.094
 1543HOH     H2 4816   1.410   1.020   1.020
 1544HOH      O 4817   1.786   0.823   0.266
 1544HOH     H1 4818   1.874   0.835   0.301
 1544HOH     H2 4819   1.798   0.766   0.190
 1545HOH      O 4820   4.040   3.486   2.660
 1545HOH     H1 4821   3.962   3.541   2.668
 1545HOH     H2 4822   4.067   3.496   2.569
 1546HOH      O 4823   0.743   1.070   0.973
 1546HOH     H1 4824   0.788   1.035   0.896
 1546HOH     H2 4825   0.655   1.033   0.968
 1547HOH      O 4826   1.100   0.131   0.964
 1547HOH     H1 4827   1.005   0.135   0.964
 1547HOH     H2 4828   1.122   0.078   0.887
 1548HOH      O 4829   3.235   3.540   1.226
 1548HOH     H1 4830   3.149   3.537   1.267
 1548HOH     H2 4831   3.295   3.508   1.293
 1549HOH      O 4832   1.938   1.731   4.061
 1549HOH     H1 4833   1.979   1.790   3.997
 1549HOH     H2 4834   1.873   1.682   4.011
 1550HOH      O 4835   3.267   0.182   2.326
 1550HOH     H1 4836   3.347   0.129   2.330
 1550HOH     H2 4837   3.213   0.139   2.260
 1551HOH      O 4838   2.393   0.726   0.034
 1551HOH     H1 4839   2.414   0.819   0.042
 1551HOH     H2 4840   2.456   0.694  -0.031
 1552HOH      O 4841   2.625   0.278   0.042
 1552HOH     H1 4842   2.635   0.357   0.094
 1552HOH     H2 4843   2.660   0.208   0.098
 1553HOH      O 4844   1.571   3.577   0.498
 1553HOH     H1 4845   1.547   3.666   0.471
 1553HOH     H2 4846   1.622   3.589   0.577
 1554HOH      O 4847   1.201   2.813   0.999
 1554HOH     H1 4848   1.233   2.814   0.909
 1554HOH     H2 4849   1.193   2.905   1.023
 1555HOH      O 4850   0.255   0.157   3.432
 1555HOH     H1 4851   0.250   0.112   3.516
 1555HOH     H2 4852   0.324   0.222   3.443
 1556HOH      O 4853   1.927   2.594   2.808
 1556HOH     H1 4854   1.997   2.530   2.794
 1556HOH     H2 4855   1.965   2.658   2.869
 1557HOH      O 4856   1.680   2.165   0.296
 1557HOH     H1 4857   1.713   2.244   0.339
 1557HOH     H2 4858   1.624   2.198   0.226
 1558HOH      O 4859   0.897   0.992   2.030
 1558HOH     H1 4860   0.968   0.967   2.088
 1558HOH     H2 4861   0.897   0.925   1.962
 1559HOH      O 4862   1.934   0.650   0.715
 1559HOH     H1 4863   1.974   0.722   0.666
 1559HOH     H2 4864   1.840   0.662   0.703
 1560HOH      O 4865   3.544   3.423   1.084
 1560HOH     H1 4866   3.607   3.493   1.102
 1560HOH     H2 4867   3.519   3.390   1.170
 1561HOH      O 4868   0.210   2.687   1.507
 1561HOH     H1 4869   0.122   2.676   1.470
 1561HOH     H2 4870   0.269   2.655   1.439
 1562HOH      O 4871   1.908   3.785   2.774
 1562HOH     H1 4872   1.882   3.714   2.834
 1562HOH     H2 4873   1.832   3.843   2.772
 1563HOH      O 4874   1.956   3.343   0.842
 1563HOH     H1 4875   1.910   3.418   0.804
 1563HOH     H2 4876   1.957   3.277   0.773
 1564HOH      O 4877   3.828   2.596   2.260
 1564HOH     H1 4878   3.884   2.579   2.336
 1564HOH     H2 4879   3.762   2.527   2.264
 1565HOH      O 4880   2.692   2.913   3.406
 1565HOH     H1 4881   2.775   2.910   3.453
 1565HOH     H2 4882   2.649   2.830   3.426
 1566HOH      O 4883   3.392   0.855   0.072
 1566HOH     H1 4884   3.302   0.838   0.099
 1566HOH     H2 4885   3.423   0.771   0.038
 1567HOH      O 4886   0.749   3.172   0.211
 1567HOH     H1 4887   0.770   3.199   0.122
 1567HOH     H2 4888   0.812   3.102   0.230
 1568HOH      O 4889   3.201   3.556   0.757
 1568HOH     H1 4890   3.151   3.627   0.716
 1568HOH     H2 4891   3.286   3.595   0.777
 1569HOH      O 4892   0.025   2.125   2.903
 1569HOH     H1 4893  -0.046   2.190   2.911
 1569HOH     H2 4894   0.049   2.107   2.994
 1570HOH      O 4895   3.830   3.166   2.892
 1570HOH     H1 4896   3.769   3.233   2.860
 1570HOH     H2 4897   3.898   3.215   2.938
 1571HOH      O 4898   3.030   2.546   2.515
 1571HOH     H1 4899   3.043   2.630   2.470
 1571HOH     H2 4900   3.092   2.487   2.473
 1572HOH      O 4901   3.301   3.804   3.002
 1572HOH     H1 4902   3.229   3.862   2.977
 1572HOH     H2 4903   3.367   3.862   3.038
 1573HOH      O 4904   2.836   2.828   0.441
 1573HOH     H1 4905   2.920   2.789   0.415
 1573HOH     H2 4906   2.771   2.785   0.386
 1574HOH      O 4907   3.753   1.228   0.156
 1574HOH     H1 4908   3.742   1.232   0.061
 1574HOH     H2 4909   3.740   1.136   0.178
 1575HOH      O 4910   1.349   1.215   1.932
 1575HOH     H1 4911   1.392   1.228   1.847
 1575HOH     H2 4912   1.278   1.154   1.915
 1576HOH      O 4913   1.916   3.089   1.628
 1576HOH     H1 4914   1.972   3.167   1.624
 1576HOH     H2 4915   1.873   3.095   1.714
 1577HOH      O 4916   2.709   3.770   2.202
 1577HOH     H1 4917   2.712   3.682   2.238
 1577HOH     H2 4918   2.790   3.811   2.231
 1578HOH      O 4919   2.907   2.318   2.615
 1578HOH     H1 4920   2.844   2.353   2.552
 1578HOH     H2 4921   2.981   2.379   2.611
 1579HOH      O 4922   1.040   2.581   1.502
 1579HOH     H1 4923   0.967   2.553   1.556
 1579HOH     H2 4924   1.110   2.602   1.564
 1580HOH      O 4925   3.393   1.194   1.753
 1580HOH     H1 4926   3.455   1.260   1.783
 1580HOH     H2 4927   3.402   1.195   1.657
 1581HOH      O 4928   1.835   3.531   1.209
 1581HOH     H1 4929   1.844   3.601   1.143
 1581HOH     H2 4930   1.769   3.472   1.172
 1582HOH      O 4931   2.666   2.821   0.791
 1582HOH     H1 4932   2.622   2.756   0.735
 1582HOH     H2 4933   2.731   2.861   0.734
 1583HOH      O 4934   1.367   3.855   0.921
 1583HOH     H1 4935   1.352   3.818   0.834
 1583HOH     H2 4936   1.365   3.779   0.980
 1584HOH      O 4937   0.346   2.622   3.055
 1584HOH     H1 4938   0.372   2.599   3.144
 1584HOH     H2 4939   0.348   2.718   3.053
 1585HOH      O 4940   2.495   3.170   1.605
 1585HOH     H1 4941   2.536   3.097   1.559
 1585HOH     H2 4942   2.401   3.155   1.594
 1586HOH      O 4943   3.961   3.262   1.013
 1586HOH     H1 4944   3.889   3.202   1.031
 1586HOH     H2 4945   4.031   3.206   0.979
 1587HOH      O 4946   1.137   0.047   3.818
 1587HOH     H1 4947   1.143   0.140   3.841
 1587HOH     H2 4948   1.225   0.023   3.790
 1588HOH      O 4949   0.602   3.542   3.353
 1588HOH     H1 4950   0.635   3.631   3.340
 1588HOH     H2 4951   0.569   3.517   3.266
 1589HOH      O 4952   1.854   3.909   1.570
 1589HOH     H1 4953   1.779   3.941   1.520
 1589HOH     H2 4954   1.895   3.845   1.512
 1590HOH      O 4955   0.320   3.265   3.231
 1590HOH     H1 4956   0.367   3.235   3.308
 1590HOH     H2 4957   0.378   3.245   3.158
 1591HOH      O 4958   2.763   3.071   0.970
 1591HOH     H1 4959   2.812   3.028   0.900
 1591HOH     H2 4960   2.673   3.038   0.959
 1592HOH      O 4961   2.974   3.628   2.246
 1592HOH     H1 4962   3.002   3.568   2.315
 1592HOH     H2 4963   3.054   3.651   2.199
 1593HOH      O 4964   0.953   0.422   1.709
 1593HOH     H1 4965   0.934   0.456   1.622
 1593HOH     H2 4966   0.955   0.500   1.765
 1594HOH      O 4967   3.266   0.724   3.149
 1594HOH     H1 4968   3.356   0.755   3.159
 1594HOH     H2 4969   3.233   0.717   3.239
 1595HOH      O 4970   1.123   1.487   2.591
 1595HOH     H1 4971   1.032   1.511   2.573
 1595HOH     H2 4972   1.142   1.416   2.529
 1596HOH      O 4973   3.452   0.992   3.413
 1596HOH     H1 4974   3.471   1.085   3.418
 1596HOH     H2 4975   3.434   0.966   3.504
 1597HOH      O 4976   3.002   2.819   1.703
 1597HOH     H1 4977   2.975   2.761   1.632
 1597HOH     H2 4978   3.076   2.868   1.666
 1598HOH      O 4979   0.679   0.222   3.054
 1598HOH     H1 4980   0.654   0.134   3.081
 1598HOH     H2 4981   0.702   0.267   3.135
 1599HOH      O 4982   0.575   0.863   0.665
 1599HOH     H1 4983   0.572   0.812   0.584
 1599HOH     H2 4984   0.617   0.945   0.639
 1600HOH      O 4985   0.727   3.673   0.163
 1600HOH     H1 4986   0.781   3.748   0.188
 1600HOH     H2 4987   0.751   3.656   0.072
 1601HOH      O 4988   3.228   0.094   1.880
 1601HOH     H1 4989   3.284   0.172   1.882
 1601HOH     H2 4990   3.202   0.087   1.788
 1602HOH      O 4991   2.221   2.999   2.591
 1602HOH     H1 4992   2.258   2.987   2.678
 1602HOH     H2 4993   2.210   2.911   2.557
 1603HOH      O 4994   2.133   0.290   0.307
 1603HOH     H1 4995   2.178   0.351   0.248
 1603HOH     H2 4996   2.204   0.252   0.359
 1604HOH      O 4997   1.872   1.320   3.700
 1604HOH     H1 4998   1.836   1.403   3.668
 1604HOH     H2 4999   1.966   1.329   3.688
 1605HOH      O 5000  -0.015   3.298   1.401
 1605HOH     H1 5001   0.077   3.323   1.401
 1605HOH     H2 5002  -0.057   3.358   1.339
 1606HOH      O 5003   2.669   1.807   0.765
 1606HOH     H1 5004   2.698   1.756   0.841
 1606HOH     H2 5005   2.714   1.891   0.775
 1607HOH      O 5006   1.153   0.375   1.106
 1607HOH     H1 5007   1.145   0.289   1.064
 1607HOH     H2 5008   1.120   0.437   1.041
 1608HOH      O 5009   3.138   3.799   1.412
 1608HOH     H1 5010   3.181   3.783   1.328
 1608HOH     H2 5011   3.200   3.853   1.461
 1609HOH      O 5012   2.051   2.915   2.194
 1609HOH     H1 5013   1.975   2.972   2.185
 1609HOH     H2 5014   2.026   2.834   2.150
 1610HOH      O 5015   0.960   1.884   3.716
 1610HOH     H1 5016   0.999   1.814   3.663
 1610HOH     H2 5017   1.036   1.931   3.752
 1611HOH      O 5018   0.831   1.029   0.708
 1611HOH     H1 5019   0.872   1.109   0.675
 1611HOH     H2 5020   0.858   0.962   0.646
 1612HOH      O 5021   3.299   0.388   2.084
 1612HOH     H1 5022   3.221   0.372   2.031
 1612HOH     H2 5023   3.300   0.316   2.147
 1613HOH      O 5024   2.869   0.818   0.042
 1613HOH     H1 5025   2.893   0.725   0.038
 1613HOH     H2 5026   2.854   0.843  -0.049
 1614HOH      O 5027   2.456   1.827   2.802
 1614HOH     H1 5028   2.383   1.765   2.799
 1614HOH     H2 5029   2.451   1.866   2.889
 1615HOH      O 5030   2.989   1.043   0.902
 1615HOH     H1 5031   3.016   1.108   0.967
 1615HOH     H2 5032   3.069   0.994   0.883
 1616HOH      O 5033   3.888   2.815   3.621
 1616HOH     H1 5034   3.930   2.748   3.675
 1616HOH     H2 5035   3.924   2.897   3.654
 1617HOH      O 5036   1.009   0.539   1.474
 1617HOH     H1 5037   1.091   0.587   1.471
 1617HOH     H2 5038   0.942   0.605   1.461
 1618HOH      O 5039   2.987   0.168   0.559
 1618HOH     H1 5040   2.936   0.122   0.492
 1618HOH     H2 5041   2.989   0.259   0.530
 1619HOH      O 5042   0.821   3.418   2.543
 1619HOH     H1 5043   0.887   3.393   2.478
 1619HOH     H2 5044   0.843   3.509   2.565
 1620HOH      O 5045   1.094   2.674   0.504
 1620HOH     H1 5046   1.022   2.735   0.493
 1620HOH     H2 5047   1.095   2.623   0.424
 1621HOH      O 5048   3.618   0.021   1.036
 1621HOH     H1 5049   3.530   0.026   1.073
 1621HOH     H2 5050   3.666  -0.038   1.094
 1622HOH      O 5051   2.009   1.067   0.889
 1622HOH     H1 5052   1.925   1.024   0.906
 1622HOH     H2 5053   2.040   1.092   0.976
 1623HOH      O 5054   3.693   0.197   0.845
 1623HOH     H1 5055   3.611   0.243   0.825
 1623HOH     H2 5056   3.671   0.135   0.914
 1624HOH      O 5057   1.709   0.485   2.603
 1624HOH     H1 5058   1.759   0.407   2.582
 1624HOH     H2 5059   1.644   0.455   2.666
 1625HOH      O 5060   3.353   3.959   2.141
 1625HOH     H1 5061   3.391   3.955   2.053
 1625HOH     H2 5062   3.267   4.000   2.128
 1626HOH      O 5063   1.343   3.451   3.031
 1626HOH     H1 5064   1.306   3.449   3.120
 1626HOH     H2 5065   1.308   3.531   2.993
 1627HOH      O 5066   0.893   3.901   0.628
 1627HOH     H1 5067   0.831   3.936   0.565
 1627HOH     H2 5068   0.875   3.807   0.631
 1628HOH      O 5069   0.202   2.717   3.564
 1628HOH     H1 5070   0.139   2.708   3.635
 1628HOH     H2 5071   0.183   2.644   3.505
 1629HOH      O 5072   3.355   1.831   3.180
 1629HOH     H1 5073   3.335   1.830   3.087
 1629HOH     H2 5074   3.318   1.913   3.212
 1630HOH      O 5075   1.134   3.015   1.720
 1630HOH     H1 5076   1.039   3.003   1.723
 1630HOH     H2 5077   1.147   3.085   1.657
 1631HOH      O 5078   3.507   1.207   2.576
 1631HOH     H1 5079   3.428   1.159   2.552
 1631HOH     H2 5080   3.564   1.140   2.615
 1632HOH      O 5081   1.500   1.924   3.179
 1632HOH     H1 5082   1.466   1.855   3.122
 1632HOH     H2 5083   1.567   1.881   3.232
 1633HOH      O 5084   1.548   0.077   2.957
 1633HOH     H1 5085   1.564   0.112   2.870
 1633HOH     H2 5086   1.626   0.026   2.977
 1634HOH      O 5087   2.886   3.835   1.142
 1634HOH     H1 5088   2.905   3.925   1.117
 1634HOH     H2 5089   2.860   3.841   1.234
 1635HOH      O 5090   2.994   1.691   2.718
 1635HOH     H1 5091   3.066   1.642   2.677
 1635HOH     H2 5092   3.009   1.681   2.812
 1636HOH      O 5093   2.776   0.193   0.359
 1636HOH     H1 5094   2.824   0.163   0.282
 1636HOH     H2 5095   2.833   0.259   0.399
 1637HOH      O 5096   0.097   1.917   3.109
 1637HOH     H1 5097   0.102   1.858   3.034
 1637HOH     H2 5098   0.128   1.865   3.183
 1638HOH      O 5099   2.567   1.974   1.583
 1638HOH     H1 5100   2.597   1.973   1.674
 1638HOH     H2 5101   2.472   1.980   1.589
 1639HOH      O 5102   2.723   2.371   2.412
 1639HOH     H1 5103   2.701   2.457   2.450
 1639HOH     H2 5104   2.672   2.366   2.332
 1640HOH      O 5105   2.995   1.876   3.062
 1640HOH     H1 5106   3.028   1.865   3.151
 1640HOH     H2 5107   3.005   1.790   3.022
 1641HOH      O 5108   2.529   2.711   3.585
 1641HOH     H1 5109   2.442   2.702   3.624
 1641HOH     H2 5110   2.588   2.718   3.660
 1642HOH      O 5111   1.101   2.046   1.544
 1642HOH     H1 5112   1.084   2.140   1.547
 1642HOH     H2 5113   1.014   2.005   1.543
 1643HOH      O 5114   1.856   0.940   2.002
 1643HOH     H1 5115   1.925   0.928   2.067
 1643HOH     H2 5116   1.900   0.928   1.918
 1644HOH      O 5117   0.981   0.008   1.646
 1644HOH     H1 5118   0.933   0.088   1.665
 1644HOH     H2 5119   0.973  -0.003   1.551
 1645HOH      O 5120   3.147   2.654   3.307
 1645HOH     H1 5121   3.083   2.622   3.370
 1645HOH     H2 5122   3.230   2.650   3.354
 1646HOH      O 5123   0.363   2.464   2.452
 1646HOH     H1 5124   0.305   2.444   2.525
 1646HOH     H2 5125   0.447   2.485   2.493
 1647HOH      O 5126   0.323   0.434   1.099
 1647HOH     H1 5127   0.229   0.431   1.114
 1647HOH     H2 5128   0.362   0.405   1.182
 1648HOH      O 5129   1.494   2.287   1.083
 1648HOH     H1 5130   1.414   2.338   1.071
 1648HOH     H2 5131   1.464   2.204   1.120
 1649HOH      O 5132   3.513   2.333   0.041
 1649HOH     H1 5133   3.598   2.319   0.083
 1649HOH     H2 5134   3.507   2.263  -0.024
 1650HOH      O 5135   3.476   3.479   2.250
 1650HOH     H1 5136   3.520   3.517   2.174
 1650HOH     H2 5137   3.384   3.471   2.223
 1651HOH      O 5138   0.597   1.544   3.626
 1651HOH     H1 5139   0.578   1.515   3.537
 1651HOH     H2 5140   0.633   1.632   3.615
 1652HOH      O 5141   2.705   1.619   2.245
 1652HOH     H1 5142   2.663   1.705   2.241
 1652HOH     H2 5143   2.632   1.557   2.245
 1653HOH      O 5144   3.354   2.276   1.309
 1653HOH     H1 5145   3.396   2.350   1.353
 1653HOH     H2 5146   3.398   2.270   1.225
 1654HOH      O 5147   2.608   0.464   2.960
 1654HOH     H1 5148   2.663   0.396   2.919
 1654HOH     H2 5149   2.524   0.456   2.915
 1655HOH      O 5150   3.029   3.349   2.104
 1655HOH     H1 5151   3.071   3.264   2.086
 1655HOH     H2 5152   3.040   3.361   2.198
 1656HOH      O 5153   1.262   2.813   0.698
 1656HOH     H1 5154   1.230   2.753   0.630
 1656HOH     H2 5155   1.320   2.873   0.651
 1657HOH      O 5156   2.887   3.909   1.408
 1657HOH     H1 5157   2.957   3.861   1.453
 1657HOH     H2 5158   2.816   3.912   1.472
 1658HOH      O 5159   1.773   1.287   3.951
 1658HOH     H1 5160   1.787   1.311   3.859
 1658HOH     H2 5161   1.754   1.193   3.949
 1659HOH      O 5162   3.753   1.490   1.651
 1659HOH     H1 5163   3.845   1.491   1.624
 1659HOH     H2 5164   3.730   1.397   1.656
 1660HOH      O 5165   3.308   1.957   2.026
 1660HOH     H1 5166   3.362   1.887   1.988
 1660HOH     H2 5167   3.220   1.939   1.994
 1661HOH      O 5168   1.319   0.012   1.190
 1661HOH     H1 5169   1.244   0.001   1.131
 1661HOH     H2 5170   1.292   0.082   1.250
 1662HOH      O 5171   1.410   3.210   2.324
 1662HOH     H1 5172   1.444   3.121   2.336
 1662HOH     H2 5173   1.317   3.203   2.342
 1663HOH      O 5174   2.100   1.915   3.945
 1663HOH     H1 5175   2.082   2.009   3.936
 1663HOH     H2 5176   2.194   1.910   3.958
 1664HOH      O 5177   1.521   0.309   3.441
 1664HOH     H1 5178   1.494   0.391   3.398
 1664HOH     H2 5179   1.476   0.240   3.391
 1665HOH      O 5180   0.491   3.207   2.766
 1665HOH     H1 5181   0.582   3.235   2.766
 1665HOH     H2 5182   0.482   3.155   2.686
 1666HOH      O 5183   1.479   1.075   3.006
 1666HOH     H1 5184   1.411   1.089   2.940
 1666HOH     H2 5185   1.530   1.001   2.972
 1667HOH      O 5186   3.393   1.161   1.260
 1667HOH     H1 5187   3.451   1.160   1.184
 1667HOH     H2 5188   3.375   1.254   1.275
 1668HOH      O 5189   3.990   3.191   3.918
 1668HOH     H1 5190   3.999   3.266   3.977
 1668HOH     H2 5191   4.040   3.216   3.840
 1669HOH      O 5192   3.237   2.160   1.544
 1669HOH     H1 5193   3.164   2.219   1.567
 1669HOH     H2 5194   3.281   2.205   1.472
 1670HOH      O 5195   2.619   2.224   3.181
 1670HOH     H1 5196   2.612   2.298   3.122
 1670HOH     H2 5197   2.661   2.156   3.129
 1671HOH      O 5198   0.477   2.946   3.073
 1671HOH     H1 5199   0.450   2.912   3.159
 1671HOH     H2 5200   0.542   2.883   3.042
 1672HOH      O 5201   1.158   1.108   3.167
 1672HOH     H1 5202   1.236   1.147   3.128
 1672HOH     H2 5203   1.139   1.032   3.113
 1673HOH      O 5204   0.675   1.283   0.799
 1673HOH     H1 5205   0.744   1.345   0.823
 1673HOH     H2 5206   0.677   1.217   0.868
 1674HOH      O 5207   2.381   0.978   0.363
 1674HOH     H1 5208   2.336   1.031   0.429
 1674HOH     H2 5209   2.474   0.998   0.374
 1675HOH      O 5210   2.415   1.140   1.116
 1675HOH     H1 5211   2.474   1.213   1.097
 1675HOH     H2 5212   2.454   1.098   1.193
 1676HOH      O 5213   2.352   3.259   2.512
 1676HOH     H1 5214   2.421   3.299   2.564
 1676HOH     H2 5215   2.325   3.182   2.562
 1677HOH      O 5216   0.707   1.750   2.687
 1677HOH     H1 5217   0.782   1.768   2.743
 1677HOH     H2 5218   0.707   1.821   2.623
 1678HOH      O 5219   1.005   3.072   0.859
 1678HOH     H1 5220   0.975   3.163   0.860
 1678HOH     H2 5221   1.037   3.057   0.948
 1679HOH      O 5222   0.833   2.622   1.833
 1679HOH     H1 5223   0.912   2.658   1.793
 1679HOH     H2 5224   0.764   2.684   1.810
 1680HOH      O 5225   1.895   0.014   3.758
 1680HOH     H1 5226   1.960   0.022   3.828
 1680HOH     H2 5227   1.840   0.092   3.767
 1681HOH      O 5228   1.332   0.866   1.894
 1681HOH     H1 5229   1.275   0.827   1.960
 1681HOH     H2 5230   1.298   0.955   1.882
 1682HOH      O 5231   0.234   1.073   1.399
 1682HOH     H1 5232   0.253   1.006   1.333
 1682HOH     H2 5233   0.262   1.034   1.482
 1683HOH      O 5234   3.969   1.899   2.370
 1683HOH     H1 5235   3.956   1.811   2.335
 1683HOH     H2 5236   4.041   1.888   2.433
 1684HOH      O 5237   1.688   0.758   0.660
 1684HOH     H1 5238   1.607   0.708   0.665
 1684HOH     H2 5239   1.661   0.846   0.631
 1685HOH      O 5240   1.680   3.873   0.284
 1685HOH     H1 5241   1.774   3.876   0.269
 1685HOH     H2 5242   1.642   3.867   0.196
 1686HOH      O 5243   0.918   0.122   3.317
 1686HOH     H1 5244   0.983   0.189   3.299
 1686HOH     H2 5245   0.948   0.045   3.269
 1687HOH      O 5246   1.547   2.678   2.514
 1687HOH     H1 5247   1.612   2.729   2.466
 1687HOH     H2 5248   1.597   2.635   2.583
 1688HOH      O 5249   1.925   2.446   3.419
 1688HOH     H1 5250   1.895   2.524   3.465
 1688HOH     H2 5251   1.869   2.376   3.453
 1689HOH      O 5252   0.415   3.069   2.113
 1689HOH     H1 5253   0.498   3.117   2.106
 1689HOH     H2 5254   0.348   3.133   2.089
 1690HOH      O 5255   1.420   1.075   0.061
 1690HOH     H1 5256   1.461   1.119  -0.013
 1690HOH     H2 5257   1.404   1.146   0.125
 1691HOH      O 5258   1.601   2.881   1.113
 1691HOH     H1 5259   1.543   2.808   1.094
 1691HOH     H2 5260   1.602   2.888   1.208
 1692HOH      O 5261   0.443   3.539   3.708
 1692HOH     H1 5262   0.424   3.564   3.618
 1692HOH     H2 5263   0.463   3.622   3.752
 1693HOH      O 5264   2.376   2.729   2.580
 1693HOH     H1 5265   2.409   2.714   2.491
 1693HOH     H2 5266   2.449   2.768   2.627
 1694HOH      O 5267   3.503   1.641   2.663
 1694HOH     H1 5268   3.552   1.699   2.722
 1694HOH     H2 5269   3.422   1.621   2.711
 1695HOH      O 5270   1.828   0.543   3.341
 1695HOH     H1 5271   1.792   0.566   3.427
 1695HOH     H2 5272   1.906   0.597   3.332
 1696HOH      O 5273   0.381   1.493   3.010
 1696HOH     H1 5274   0.472   1.470   3.029
 1696HOH     H2 5275   0.364   1.569   3.066
 1697HOH      O 5276   0.777   0.286   0.921
 1697HOH     H1 5277   0.737   0.291   0.834
 1697HOH     H2 5278   0.801   0.194   0.931
 1698HOH      O 5279   1.580   0.038   1.356
 1698HOH     H1 5280   1.506   0.018   1.298
 1698HOH     H2 5281   1.644  -0.030   1.338
 1699HOH      O 5282   2.920   0.047   1.046
 1699HOH     H1 5283   2.987   0.116   1.056
 1699HOH     H2 5284   2.914   0.035   0.951
 1700HOH      O 5285   2.617   1.440   3.793
 1700HOH     H1 5286   2.560   1.405   3.725
 1700HOH     H2 5287   2.561   1.447   3.870
 1701HOH      O 5288   2.245   3.143   1.962
 1701HOH     H1 5289   2.240   3.098   1.878
 1701HOH     H2 5290   2.314   3.208   1.950
 1702HOH      O 5291   2.027   1.404   1.105
 1702HOH     H1 5292   1.955   1.448   1.151
 1702HOH     H2 5293   1.997   1.397   1.015
 1703HOH      O 5294   0.908   2.905   0.475
 1703HOH     H1 5295   0.865   2.886   0.391
 1703HOH     H2 5296   0.837   2.930   0.533
 1704HOH      O 5297   3.441   3.040   1.151
 1704HOH     H1 5298   3.515   2.989   1.183
 1704HOH     H2 5299   3.449   3.038   1.056
 1705HOH      O 5300   0.298   2.475   2.731
 1705HOH     H1 5301   0.203   2.470   2.739
 1705HOH     H2 5302   0.331   2.414   2.797
 1706HOH      O 5303   1.666   0.112   2.496
 1706HOH     H1 5304   1.668   0.051   2.422
 1706HOH     H2 5305   1.733   0.177   2.475
 1707HOH      O 5306   0.142   1.914   2.068
 1707HOH     H1 5307   0.088   1.867   2.131
 1707HOH     H2 5308   0.230   1.879   2.081
 1708HOH      O 5309   3.463   1.032   2.855
 1708HOH     H1 5310   3.404   0.967   2.816
 1708HOH     H2 5311   3.488   0.994   2.939
 1709HOH      O 5312   2.723   0.989   1.148
 1709HOH     H1 5313   2.816   0.998   1.168
 1709HOH     H2 5314   2.679   1.041   1.216
 1710HOH      O 5315   1.114   3.444   1.396
 1710HOH     H1 5316   1.073   3.444   1.482
 1710HOH     H2 5317   1.150   3.533   1.386
 1711HOH      O 5318   2.303   2.282   0.837
 1711HOH     H1 5319   2.318   2.323   0.922
 1711HOH     H2 5320   2.379   2.225   0.824
 1712HOH      O 5321   1.524   0.825   0.278
 1712HOH     H1 5322   1.496   0.870   0.199
 1712HOH     H2 5323   1.618   0.842   0.284
 1713HOH      O 5324   0.816   0.779   1.065
 1713HOH     H1 5325   0.910   0.800   1.062
 1713HOH     H2 5326   0.789   0.775   0.973
 1714HOH      O 5327   2.161   3.963   2.349
 1714HOH     H1 5328   2.225   3.940   2.280
 1714HOH     H2 5329   2.112   3.883   2.363
 1715HOH      O 5330   2.146   0.786   0.995
 1715HOH     H1 5331   2.101   0.870   1.001
 1715HOH     H2 5332   2.238   0.808   0.986
 1716HOH      O 5333   3.090   2.033   2.838
 1716HOH     H1 5334   3.049   2.017   2.923
 1716HOH     H2 5335   3.031   1.992   2.775
 1717HOH      O 5336   2.147   1.487   3.864
 1717HOH     H1 5337   2.066   1.536   3.848
 1717HOH     H2 5338   2.167   1.446   3.780
 1718HOH      O 5339   0.809   0.930   3.127
 1718HOH     H1 5340   0.848   0.904   3.211
 1718HOH     H2 5341   0.717   0.904   3.135
 1719HOH      O 5342   2.959   0.179   2.370
 1719HOH     H1 5343   2.870   0.192   2.401
 1719HOH     H2 5344   2.979   0.257   2.318
 1720HOH      O 5345   0.718   2.298   3.708
 1720HOH     H1 5346   0.768   2.226   3.670
 1720HOH     H2 5347   0.784   2.361   3.737
 1721HOH      O 5348   1.035   2.545   0.758
 1721HOH     H1 5349   1.079   2.580   0.681
 1721HOH     H2 5350   1.070   2.456   0.767
 1722HOH      O 5351   1.579   3.927   1.845
 1722HOH     H1 5352   1.533   3.845   1.862
 1722HOH     H2 5353   1.565   3.943   1.751
 1723HOH      O 5354   0.271   1.333   1.112
 1723HOH     H1 5355   0.330   1.273   1.159
 1723HOH     H2 5356   0.316   1.417   1.116
 1724HOH      O 5357   3.920   0.528   0.338
 1724HOH     H1 5358   3.982   0.597   0.362
 1724HOH     H2 5359   3.860   0.522   0.412
 1725HOH      O 5360   3.706   3.704   3.047
 1725HOH     H1 5361   3.795   3.708   3.012
 1725HOH     H2 5362   3.700   3.779   3.106
 1726HOH      O 5363   3.652   2.199   1.842
 1726HOH     H1 5364   3.612   2.152   1.770
 1726HOH     H2 5365   3.711   2.262   1.800
 1727HOH      O 5366   3.574   1.792   2.890
 1727HOH     H1 5367   3.483   1.820   2.900
 1727HOH     H2 5368   3.604   1.776   2.979
 1728HOH      O 5369   0.833   2.038   0.128
 1728HOH     H1 5370   0.741   2.064   0.131
 1728HOH     H2 5371   0.831   1.943   0.141
 1729HOH      O 5372   1.208   0.534   0.385
 1729HOH     H1 5373   1.236   0.454   0.340
 1729HOH     H2 5374   1.217   0.514   0.478
 1730HOH      O 5375   0.588   1.540   3.352
 1730HOH     H1 5376   0.532   1.600   3.303
 1730HOH     H2 5377   0.561   1.452   3.324
 1731HOH      O 5378   0.643   1.360   2.571
 1731HOH     H1 5379   0.644   1.329   2.480
 1731HOH     H2 5380   0.571   1.312   2.612
 1732HOH      O 5381   2.994   0.846   2.157
 1732HOH     H1 5382   2.964   0.899   2.083
 1732HOH     H2 5383   3.080   0.814   2.130
 1733HOH      O 5384   3.443   1.994   0.467
 1733HOH     H1 5385   3.498   2.073   0.469
 1733HOH     H2 5386   3.395   2.000   0.385
 1734HOH      O 5387   0.755   2.038   3.100
 1734HOH     H1 5388   0.761   2.060   3.007
 1734HOH     H2 5389   0.712   1.953   3.102
 1735HOH      O 5390   3.357   3.662   0.143
 1735HOH     H1 5391   3.383   3.590   0.086
 1735HOH     H2 5392   3.354   3.624   0.231
 1736HOH      O 5393   2.094   1.576   0.471
 1736HOH     H1 5394   2.039   1.514   0.520
 1736HOH     H2 5395   2.085   1.548   0.380
 1737HOH      O 5396   1.126   0.415   3.027
 1737HOH     H1 5397   1.066   0.490   3.038
 1737HOH     H2 5398   1.089   0.366   2.954
 1738HOH      O 5399   3.112   0.095   2.116
 1738HOH     H1 5400   3.029   0.143   2.115
 1738HOH     H2 5401   3.144   0.099   2.026
 1739HOH      O 5402   2.442   1.174   1.866
 1739HOH     H1 5403   2.402   1.189   1.952
 1739HOH     H2 5404   2.391   1.229   1.806
 1740HOH      O 5405   0.949   2.374   0.331
 1740HOH     H1 5406   0.853   2.376   0.333
 1740HOH     H2 5407   0.973   2.449   0.278
 1741HOH      O 5408   1.957   0.443   2.269
 1741HOH     H1 5409   1.919   0.364   2.232
 1741HOH     H2 5410   1.884   0.505   2.273
 1742HOH      O 5411   1.825   3.556   0.769
 1742HOH     H1 5412   1.885   3.627   0.746
 1742HOH     H2 5413   1.739   3.596   0.768
 1743HOH      O 5414   1.319   3.500   0.374
 1743HOH     H1 5415   1.333   3.535   0.286
 1743HOH     H2 5416   1.406   3.503   0.415
 1744HOH      O 5417   3.151   0.001   2.852
 1744HOH     H1 5418   3.076  -0.006   2.911
 1744HOH     H2 5419   3.115   0.036   2.771
 1745HOH      O 5420   0.888   2.680   2.566
 1745HOH     H1 5421   0.886   2.726   2.482
 1745HOH     H2 5422   0.831   2.732   2.623
 1746HOH      O 5423   0.821   1.415   0.293
 1746HOH     H1 5424   0.863   1.451   0.215
 1746HOH     H2 5425   0.887   1.421   0.361
 1747HOH      O 5426   2.668   3.509   2.265
 1747HOH     H1 5427   2.587   3.459   2.263
 1747HOH     H2 5428   2.688   3.520   2.358
 1748HOH      O 5429   2.505   3.202   3.240
 1748HOH     H1 5430   2.564   3.134   3.208
 1748HOH     H2 5431   2.483   3.254   3.163
 1749HOH      O 5432   2.690   2.690   1.271
 1749HOH     H1 5433   2.656   2.686   1.182
 1749HOH     H2 5434   2.679   2.601   1.306
 1750HOH      O 5435   3.958   2.115   0.426
 1750HOH     H1 5436   4.036   2.060   0.414
 1750HOH     H2 5437   3.891   2.074   0.371
 1751HOH      O 5438   0.200   3.956   1.453
 1751HOH     H1 5439   0.210   3.891   1.383
 1751HOH     H2 5440   0.246   3.918   1.528
 1752HOH      O 5441   2.834   3.288   2.608
 1752HOH     H1 5442   2.911   3.259   2.657
 1752HOH     H2 5443   2.832   3.232   2.531
 1753HOH      O 5444   2.223   0.252   3.772
 1753HOH     H1 5445   2.192   0.303   3.698
 1753HOH     H2 5446   2.317   0.268   3.774
 1754HOH      O 5447   0.951   3.204   1.343
 1754HOH     H1 5448   0.908   3.243   1.267
 1754HOH     H2 5449   1.005   3.274   1.378
 1755HOH      O 5450   2.139   3.593   3.976
 1755HOH     H1 5451   2.163   3.520   4.033
 1755HOH     H2 5452   2.220   3.619   3.933
 1756HOH      O 5453   3.895   1.424   3.795
 1756HOH     H1 5454   3.948   1.354   3.757
 1756HOH     H2 5455   3.907   1.413   3.890
 1757HOH      O 5456   3.595   3.237   1.718
 1757HOH     H1 5457   3.581   3.146   1.692
 1757HOH     H2 5458   3.622   3.282   1.638
 1758HOH      O 5459   3.804   0.236   1.355
 1758HOH     H1 5460   3.893   0.219   1.383
 1758HOH     H2 5461   3.757   0.260   1.435
 1759HOH      O 5462   2.071   2.736   0.879
 1759HOH     H1 5463   1.996   2.721   0.937
 1759HOH     H2 5464   2.032   2.759   0.795
 1760HOH      O 5465   3.992   2.237   2.661
 1760HOH     H1 5466   4.044   2.194   2.729
 1760HOH     H2 5467   3.920   2.176   2.643
 1761HOH      O 5468   1.235   2.809   3.310
 1761HOH     H1 5469   1.306   2.745   3.304
 1761HOH     H2 5470   1.160   2.760   3.344
 1762HOH      O 5471   0.036   0.212   0.806
 1762HOH     H1 5472   0.120   0.197   0.848
 1762HOH     H2 5473   0.022   0.306   0.812
 1763HOH      O 5474   3.253   2.979   0.597
 1763HOH     H1 5475   3.188   3.007   0.533
 1763HOH     H2 5476   3.319   3.048   0.596
 1764HOH      O 5477   1.723   1.104   0.327
 1764HOH     H1 5478   1.732   1.010   0.308
 1764HOH     H2 5479   1.739   1.111   0.421
 1765HOH      O 5480   1.359   1.880   2.240
 1765HOH     H1 5481   1.275   1.848   2.272
 1765HOH     H2 5482   1.336   1.941   2.170
 1766HOH      O 5483   0.628   2.188   0.549
 1766HOH     H1 5484   0.722   2.188   0.565
 1766HOH     H2 5485   0.608   2.279   0.526
 1767HOH      O 5486   3.468   0.990   3.160
 1767HOH     H1 5487   3.456   0.992   3.255
 1767HOH     H2 5488   3.490   0.899   3.140
 1768HOH      O 5489   2.577   3.109   0.121
 1768HOH     H1 5490   2.515   3.037   0.132
 1768HOH     H2 5491   2.655   3.081   0.170
 1769HOH      O 5492   2.373   3.847   2.959
 1769HOH     H1 5493   2.449   3.859   2.902
 1769HOH     H2 5494   2.302   3.822   2.900
 1770HOH      O 5495   1.799   0.256   3.398
 1770HOH     H1 5496   1.799   0.346   3.363
 1770HOH     H2 5497   1.710   0.245   3.432
 1771HOH      O 5498   0.569   3.726   0.491
 1771HOH     H1 5499   0.624   3.746   0.416
 1771HOH     H2 5500   0.509   3.801   0.497
 1772HOH      O 5501   1.842   1.357   1.539
 1772HOH     H1 5502   1.778   1.373   1.609
 1772HOH     H2 5503   1.829   1.265   1.516
 1773HOH      O 5504   1.732   3.851   1.325
 1773HOH     H1 5505   1.766   3.842   1.236
 1773HOH     H2 5506   1.756   3.769   1.368
 1774HOH      O 5507   1.866   3.319   2.064
 1774HOH     H1 5508   1.868   3.381   1.991
 1774HOH     H2 5509   1.773   3.302   2.079
 1775HOH      O 5510   2.393   1.227   0.151
 1775HOH     H1 5511   2.377   1.309   0.105
 1775HOH     H2 5512   2.460   1.248   0.216
 1776HOH      O 5513   0.902   3.695   1.121
 1776HOH     H1 5514   0.966   3.717   1.053
 1776HOH     H2 5515   0.944   3.722   1.203
 1777HOH      O 5516   0.308   2.572   1.754
 1777HOH     H1 5517   0.293   2.655   1.707
 1777HOH     H2 5518   0.388   2.588   1.804
 1778HOH      O 5519   1.722   3.107   3.571
 1778HOH     H1 5520   1.680   3.105   3.657
 1778HOH     H2 5521   1.730   3.200   3.549
 1779HOH      O 5522   2.134   2.108   2.091
 1779HOH     H1 5523   2.196   2.077   2.157
 1779HOH     H2 5524   2.188   2.128   2.015
 1780HOH      O 5525   0.551   2.867   1.995
 1780HOH     H1 5526   0.508   2.938   2.042
 1780HOH     H2 5527   0.520   2.787   2.039
 1781HOH      O 5528   1.356   0.125   3.174
 1781HOH     H1 5529   1.411   0.127   3.096
 1781HOH     H2 5530   1.406   0.073   3.237
 1782HOH      O 5531   1.989   0.619   1.946
 1782HOH     H1 5532   1.988   0.599   1.852
 1782HOH     H2 5533   1.907   0.584   1.979
 1783HOH      O 5534   2.943   1.816   3.607
 1783HOH     H1 5535   2.871   1.849   3.661
 1783HOH     H2 5536   2.901   1.788   3.526
 1784HOH      O 5537   0.563   1.373   0.169
 1784HOH     H1 5538   0.655   1.363   0.191
 1784HOH     H2 5539   0.560   1.448   0.109
 1785HOH      O 5540   0.889   3.423   1.187
 1785HOH     H1 5541   0.797   3.417   1.211
 1785HOH     H2 5542   0.900   3.514   1.157
 1786HOH      O 5543   3.254   3.171   3.604
 1786HOH     H1 5544   3.288   3.086   3.630
 1786HOH     H2 5545   3.218   3.157   3.517
 1787HOH      O 5546   0.397   2.723   2.606
 1787HOH     H1 5547   0.477   2.683   2.573
 1787HOH     H2 5548   0.348   2.652   2.647
 1788HOH      O 5549   3.633   1.764   1.299
 1788HOH     H1 5550   3.618   1.670   1.301
 1788HOH     H2 5551   3.557   1.799   1.251
 1789HOH      O 5552   0.841   2.608   3.619
 1789HOH     H1 5553   0.809   2.670   3.685
 1789HOH     H2 5554   0.935   2.603   3.634
 1790HOH      O 5555   3.556   1.111   1.043
 1790HOH     H1 5556   3.599   1.192   1.069
 1790HOH     H2 5557   3.625   1.057   1.006
 1791HOH      O 5558   2.178   1.092   3.856
 1791HOH     H1 5559   2.140   1.130   3.935
 1791HOH     H2 5560   2.186   0.999   3.876
 1792HOH      O 5561   2.103   3.322   1.554
 1792HOH     H1 5562   2.184   3.297   1.510
 1792HOH     H2 5563   2.043   3.344   1.482
 1793HOH      O 5564   2.935   3.950   2.276
 1793HOH     H1 5565   2.978   3.972   2.194
 1793HOH     H2 5566   2.946   4.027   2.331
 1794HOH      O 5567   2.797   1.231   0.205
 1794HOH     H1 5568   2.781   1.140   0.178
 1794HOH     H2 5569   2.720   1.254   0.258
 1795HOH      O 5570   3.685   3.438   0.377
 1795HOH     H1 5571   3.753   3.375   0.355
 1795HOH     H2 5572   3.703   3.464   0.467
 1796HOH      O 5573   0.329   1.877   0.023
 1796HOH     H1 5574   0.368   1.790   0.030
 1796HOH     H2 5575   0.403   1.936   0.008
 1797HOH      O 5576   3.999   1.637   1.889
 1797HOH     H1 5577   4.034   1.703   1.829
 1797HOH     H2 5578   3.924   1.678   1.930
 1798HOH      O 5579   2.927   1.956   2.623
 1798HOH     H1 5580   2.930   1.862   2.638
 1798HOH     H2 5581   3.006   1.975   2.571
 1799HOH      O 5582   2.801   0.102   1.272
 1799HOH     H1 5583   2.852   0.095   1.192
 1799HOH     H2 5584   2.832   0.029   1.327
 1800HOH      O 5585   1.606   3.428   1.711
 1800HOH     H1 5586   1.552   3.355   1.740
 1800HOH     H2 5587   1.640   3.401   1.625
 1801HOH      O 5588   0.664   1.649   1.352
 1801HOH     H1 5589   0.677   1.579   1.416
 1801HOH     H2 5590   0.626   1.606   1.275
 1802HOH      O 5591   0.441   2.003   0.641
 1802HOH     H1 5592   0.349   1.998   0.614
 1802HOH     H2 5593   0.476   2.076   0.591
 1803HOH      O 5594   1.153   1.080   1.815
 1803HOH     H1 5595   1.088   1.010   1.807
 1803HOH     H2 5596   1.170   1.108   1.725
 1804HOH      O 5597   0.796   1.101   3.767
 1804HOH     H1 5598   0.706   1.093   3.736
 1804HOH     H2 5599   0.834   1.170   3.713
 1805HOH      O 5600   3.663   2.031   3.078
 1805HOH     H1 5601   3.654   2.060   2.988
 1805HOH     H2 5602   3.611   2.094   3.129
 1806HOH      O 5603   1.422   1.295   1.288
 1806HOH     H1 5604   1.388   1.276   1.200
 1806HOH     H2 5605   1.401   1.388   1.302
 1807HOH      O 5606   1.473   0.134   2.219
 1807HOH     H1 5607   1.433   0.131   2.132
 1807HOH     H2 5608   1.496   0.043   2.238
 1808HOH      O 5609   2.896   3.254   0.288
 1808HOH     H1 5610   2.980   3.294   0.267
 1808HOH     H2 5611   2.857   3.312   0.352
 1809HOH      O 5612   0.013   0.049   3.754
 1809HOH     H1 5613  -0.030  -0.027   3.715
 1809HOH     H2 5614   0.105   0.039   3.731
 1810HOH      O 5615   3.017   0.460   0.706
 1810HOH     H1 5616   3.000   0.487   0.615
 1810HOH     H2 5617   2.946   0.398   0.725
 1811HOH      O 5618   3.651   0.290   3.778
 1811HOH     H1 5619   3.560   0.303   3.803
 1811HOH     H2 5620   3.689   0.241   3.850
 1812HOH      O 5621   0.269   3.516   1.144
 1812HOH     H1 5622   0.268   3.588   1.206
 1812HOH     H2 5623   0.211   3.544   1.073
 1813HOH      O 5624   2.056   1.751   3.684
 1813HOH     H1 5625   2.068   1.772   3.591
 1813HOH     H2 5626   2.115   1.809   3.731
 1814HOH      O 5627   3.841   0.464   3.466
 1814HOH     H1 5628   3.852   0.497   3.555
 1814HOH     H2 5629   3.889   0.381   3.465
 1815HOH      O 5630   3.157   1.922   1.101
 1815HOH     H1 5631   3.100   1.946   1.028
 1815HOH     H2 5632   3.098   1.915   1.176
 1816HOH      O 5633   2.925   0.025   0.782
 1816HOH     H1 5634   2.949   0.073   0.704
 1816HOH     H2 5635   2.934  -0.067   0.758
 1817HOH      O 5636   1.064   0.922   0.172
 1817HOH     H1 5637   1.054   1.011   0.207
 1817HOH     H2 5638   1.153   0.897   0.197
 1818HOH      O 5639   0.017   3.733   1.277
 1818HOH     H1 5640   0.054   3.723   1.365
 1818HOH     H2 5641  -0.003   3.643   1.250
 1819HOH      O 5642   0.742   1.397   1.479
 1819HOH     H1 5643   0.732   1.334   1.550
 1819HOH     H2 5644   0.710   1.352   1.401
 1820HOH      O 5645   0.855   2.403   2.581
 1820HOH     H1 5646   0.905   2.484   2.593
 1820HOH     H2 5647   0.915   2.344   2.535
 1821HOH      O 5648   0.496   3.114   3.391
 1821HOH     H1 5649   0.570   3.160   3.430
 1821HOH     H2 5650   0.535   3.062   3.321
 1822HOH      O 5651   1.340   1.174   2.220
 1822HOH     H1 5652   1.305   1.205   2.137
 1822HOH     H2 5653   1.433   1.195   2.217
 1823HOH      O 5654   1.704   1.383   1.790
 1823HOH     H1 5655   1.690   1.412   1.880
 1823HOH     H2 5656   1.776   1.319   1.796
 1824HOH      O 5657   2.701   2.336   3.866
 1824HOH     H1 5658   2.743   2.252   3.882
 1824HOH     H2 5659   2.730   2.361   3.778
 1825HOH      O 5660   1.796   3.618   2.991
 1825HOH     H1 5661   1.858   3.547   2.979
 1825HOH     H2 5662   1.712   3.583   2.963
 1826HOH      O 5663   2.021   0.788   2.280
 1826HOH     H1 5664   2.068   0.729   2.339
 1826HOH     H2 5665   2.081   0.803   2.208
 1827HOH      O 5666   1.025   3.274   3.467
 1827HOH     H1 5667   0.934   3.262   3.494
 1827HOH     H2 5668   1.030   3.364   3.436
 1828HOH      O 5669   2.662   3.524   3.294
 1828HOH     H1 5670   2.713   3.512   3.214
 1828HOH     H2 5671   2.574   3.545   3.263
 1829HOH      O 5672   3.118   3.153   2.438
 1829HOH     H1 5673   3.122   3.111   2.524
 1829HOH     H2 5674   3.210   3.155   2.408
 1830HOH      O 5675   0.597   2.542   2.582
 1830HOH     H1 5676   0.654   2.544   2.504
 1830HOH     H2 5677   0.657   2.528   2.655
 1831HOH      O 5678   1.588   1.724   1.893
 1831HOH     H1 5679   1.536   1.732   1.814
 1831HOH     H2 5680   1.525   1.699   1.961
 1832HOH      O 5681   3.477   3.143   0.641
 1832HOH     H1 5682   3.517   3.196   0.711
 1832HOH     H2 5683   3.551   3.101   0.598
 1833HOH      O 5684   1.757   0.687   2.297
 1833HOH     H1 5685   1.833   0.743   2.281
 1833HOH     H2 5686   1.682   0.745   2.288
 1834HOH      O 5687   3.134   2.782   2.414
 1834HOH     H1 5688   3.127   2.840   2.491
 1834HOH     H2 5689   3.223   2.796   2.383
 1835HOH      O 5690   3.590   3.171   3.233
 1835HOH     H1 5691   3.514   3.221   3.203
 1835HOH     H2 5692   3.663   3.232   3.224
 1836HOH      O 5693   0.295   1.665   2.467
 1836HOH     H1 5694   0.222   1.700   2.519
 1836HOH     H2 5695   0.318   1.583   2.511
 1837HOH      O 5696   3.621   1.341   3.682
 1837HOH     H1 5697   3.669   1.302   3.755
 1837HOH     H2 5698   3.687   1.390   3.633
 1838HOH      O 5699   3.596   3.305   0.848
 1838HOH     H1 5700   3.573   3.345   0.932
 1838HOH     H2 5701   3.649   3.371   0.804
 1839HOH      O 5702   0.290   3.299   2.406
 1839HOH     H1 5703   0.298   3.288   2.311
 1839HOH     H2 5704   0.378   3.325   2.435
 1840HOH      O 5705   1.284   0.682   1.037
 1840HOH     H1 5706   1.316   0.768   1.010
 1840HOH     H2 5707   1.338   0.660   1.113
 1841HOH      O 5708   0.601   3.825   2.838
 1841HOH     H1 5709   0.605   3.730   2.832
 1841HOH     H2 5710   0.693   3.852   2.848
 1842HOH      O 5711   2.263   2.876   1.016
 1842HOH     H1 5712   2.197   2.818   0.977
 1842HOH     H2 5713   2.287   2.935   0.945
 1843HOH      O 5714   0.542   2.638   0.927
 1843HOH     H1 5715   0.625   2.659   0.971
 1843HOH     H2 5716   0.545   2.686   0.845
 1844HOH      O 5717   3.628   0.766   0.457
 1844HOH     H1 5718   3.718   0.798   0.460
 1844HOH     H2 5719   3.603   0.756   0.549
 1845HOH      O 5720   2.900   0.813   2.397
 1845HOH     H1 5721   2.922   0.835   2.307
 1845HOH     H2 5722   2.852   0.731   2.391
 1846HOH      O 5723   3.516   0.641   2.827
 1846HOH     H1 5724   3.508   0.570   2.890
 1846HOH     H2 5725   3.591   0.692   2.857
 1847HOH      O 5726   3.268   2.521   0.911
 1847HOH     H1 5727   3.324   2.548   0.984
 1847HOH     H2 5728   3.327   2.517   0.835
 1848HOH      O 5729   0.641   0.272   3.931
 1848HOH     H1 5730   0.713   0.317   3.975
 1848HOH     H2 5731   0.587   0.238   4.002
 1849HOH      O 5732   1.529   0.377   2.367
 1849HOH     H1 5733   1.514   0.292   2.326
 1849HOH     H2 5734   1.587   0.423   2.305
 1850HOH      O 5735   0.951   3.262   1.996
 1850HOH     H1 5736   0.995   3.178   1.983
 1850HOH     H2 5737   0.858   3.240   1.999
 1851HOH      O 5738   2.948   3.103   1.878
 1851HOH     H1 5739   3.003   3.034   1.840
 1851HOH     H2 5740   2.985   3.119   1.964
 1852HOH      O 5741   2.060   0.328   0.017
 1852HOH     H1 5742   2.076   0.290  -0.069
 1852HOH     H2 5743   2.081   0.258   0.078
 1853HOH      O 5744   1.988   0.057   0.363
 1853HOH     H1 5745   2.046   0.133   0.352
 1853HOH     H2 5746   1.919   0.087   0.422
 1854HOH      O 5747   1.794   3.346   3.217
 1854HOH     H1 5748   1.856   3.336   3.145
 1854HOH     H2 5749   1.731   3.275   3.204
 1855HOH      O 5750   1.129   0.831   2.852
 1855HOH     H1 5751   1.179   0.833   2.933
 1855HOH     H2 5752   1.195   0.825   2.783
 1856HOH      O 5753   2.943   1.520   2.359
 1856HOH     H1 5754   2.941   1.424   2.351
 1856HOH     H2 5755   2.858   1.549   2.327
 1857HOH      O 5756   1.920   1.208   3.239
 1857HOH     H1 5757   1.839   1.212   3.188
 1857HOH     H2 5758   1.934   1.298   3.269
 1858HOH      O 5759   0.335   3.126   1.018
 1858HOH     H1 5760   0.347   3.075   0.938
 1858HOH     H2 5761   0.298   3.064   1.081
 1859HOH      O 5762   0.786   1.117   4.030
 1859HOH     H1 5763   0.775   1.090   3.939
 1859HOH     H2 5764   0.854   1.184   4.027
 1860HOH      O 5765   0.268   2.946   1.236
 1860HOH     H1 5766   0.343   2.888   1.244
 1860HOH     H2 5767   0.195   2.888   1.213
 1861HOH      O 5768   1.080   0.868   1.037
 1861HOH     H1 5769   1.103   0.914   0.956
 1861HOH     H2 5770   1.119   0.781   1.027
 1862HOH      O 5771   3.073   2.534   0.668
 1862HOH     H1 5772   3.046   2.605   0.727
 1862HOH     H2 5773   3.138   2.485   0.719
 1863HOH      O 5774   0.426   0.158   2.337
 1863HOH     H1 5775   0.399   0.212   2.262
 1863HOH     H2 5776   0.344   0.134   2.380
 1864HOH      O 5777   3.854   2.869   2.224
 1864HOH     H1 5778   3.843   2.781   2.258
 1864HOH     H2 5779   3.947   2.889   2.237
 1865HOH      O 5780   3.412   1.448   2.104
 1865HOH     H1 5781   3.472   1.396   2.157
 1865HOH     H2 5782   3.340   1.388   2.082
 1866HOH      O 5783   1.701   0.835   1.514
 1866HOH     H1 5784   1.790   0.798   1.517
 1866HOH     H2 5785   1.647   0.769   1.556
 1867HOH      O 5786   2.799   3.743   3.801
 1867HOH     H1 5787   2.839   3.692   3.871
 1867HOH     H2 5788   2.760   3.677   3.743
 1868HOH      O 5789   3.529   0.391   2.925
 1868HOH     H1 5790   3.571   0.356   3.004
 1868HOH     H2 5791   3.550   0.327   2.857
 1869HOH      O 5792   1.765   0.544   0.451
 1869HOH     H1 5793   1.680   0.500   0.454
 1869HOH     H2 5794   1.746   0.635   0.473
 1870HOH      O 5795   3.472   3.010   0.887
 1870HOH     H1 5796   3.497   2.923   0.855
 1870HOH     H2 5797   3.454   3.061   0.808
 1871HOH      O 5798   1.525   0.396   2.071
 1871HOH     H1 5799   1.473   0.474   2.052
 1871HOH     H2 5800   1.460   0.325   2.075
 1872HOH      O 5801   0.201   0.177   2.488
 1872HOH     H1 5802   0.184   0.140   2.574
 1872HOH     H2 5803   0.199   0.271   2.500
 1873HOH      O 5804   2.490   1.365   1.465
 1873HOH     H1 5805   2.460   1.456   1.474
 1873HOH     H2 5806   2.522   1.359   1.375
 1874HOH      O 5807   3.529   2.751   1.506
 1874HOH     H1 5808   3.623   2.767   1.516
 1874HOH     H2 5809   3.497   2.827   1.459
 1875HOH      O 5810   4.008   3.414   0.033
 1875HOH     H1 5811   3.999   3.481  -0.035
 1875HOH     H2 5812   4.070   3.453   0.096
 1876HOH      O 5813   2.558   1.587   2.993
 1876HOH     H1 5814   2.502   1.657   2.958
 1876HOH     H2 5815   2.612   1.561   2.919
 1877HOH      O 5816   2.753   3.702   2.917
 1877HOH     H1 5817   2.841   3.689   2.882
 1877HOH     H2 5818   2.712   3.762   2.854
 1878HOH      O 5819   1.176   1.949   1.284
 1878HOH     H1 5820   1.202   1.884   1.348
 1878HOH     H2 5821   1.116   2.007   1.331
 1879HOH      O 5822   3.891   1.188   0.964
 1879HOH     H1 5823   3.908   1.175   1.058
 1879HOH     H2 5824   3.859   1.103   0.934
 1880HOH      O 5825   3.520   1.841   0.905
 1880HOH     H1 5826   3.584   1.780   0.867
 1880HOH     H2 5827   3.541   1.925   0.866
 1881HOH      O 5828   1.242   2.887   1.335
 1881HOH     H1 5829   1.238   2.813   1.274
 1881HOH     H2 5830   1.297   2.856   1.407
 1882HOH      O 5831   3.741   2.875   1.969
 1882HOH     H1 5832   3.739   2.820   2.048
 1882HOH     H2 5833   3.831   2.907   1.965
 1883HOH      O 5834   2.230   3.327   0.836
 1883HOH     H1 5835   2.136   3.325   0.856
 1883HOH     H2 5836   2.239   3.394   0.768
 1884HOH      O 5837   1.172   0.250   1.828
 1884HOH     H1 5838   1.108   0.292   1.771
 1884HOH     H2 5839   1.224   0.322   1.864
 1885HOH      O 5840   3.421   2.907   3.375
 1885HOH     H1 5841   3.415   2.982   3.315
 1885HOH     H2 5842   3.342   2.914   3.429
 1886HOH      O 5843   3.155   0.881   3.868
 1886HOH     H1 5844   3.194   0.898   3.954
 1886HOH     H2 5845   3.097   0.956   3.853
 1887HOH      O 5846   3.402   2.557   1.994
 1887HOH     H1 5847   3.349   2.531   1.919
 1887HOH     H2 5848   3.478   2.601   1.956
 1888HOH      O 5849   2.323   0.706   0.299
 1888HOH     H1 5850   2.326   0.704   0.204
 1888HOH     H2 5851   2.339   0.797   0.323
 1889HOH      O 5852   0.706   2.006   1.103
 1889HOH     H1 5853   0.758   2.073   1.059
 1889HOH     H2 5854   0.767   1.965   1.165
 1890HOH      O 5855   0.448   0.314   2.950
 1890HOH     H1 5856   0.538   0.284   2.962
 1890HOH     H2 5857   0.412   0.256   2.884
 1891HOH      O 5858   3.165   0.061   0.057
 1891HOH     H1 5859   3.199   0.143   0.020
 1891HOH     H2 5860   3.222   0.045   0.133
 1892HOH      O 5861   3.396   1.759   0.625
 1892HOH     H1 5862   3.403   1.845   0.583
 1892HOH     H2 5863   3.435   1.771   0.711
 1893HOH      O 5864   1.896   0.197   2.930
 1893HOH     H1 5865   1.932   0.140   2.861
 1893HOH     H2 5866   1.881   0.138   3.004
 1894HOH      O 5867   2.795   0.880   2.894
 1894HOH     H1 5868   2.890   0.878   2.887
 1894HOH     H2 5869   2.768   0.947   2.831
 1895HOH      O 5870   3.907   1.065   3.285
 1895HOH     H1 5871   3.965   1.007   3.235
 1895HOH     H2 5872   3.880   1.013   3.360
 1896HOH      O 5873   0.880   3.359   0.480
 1896HOH     H1 5874   0.833   3.324   0.404
 1896HOH     H2 5875   0.972   3.346   0.459
 1897HOH      O 5876   0.268   1.865   1.743
 1897HOH     H1 5877   0.264   1.789   1.800
 1897HOH     H2 5878   0.354   1.860   1.702
 1898HOH      O 5879   0.443   1.812   2.307
 1898HOH     H1 5880   0.402   1.745   2.361
 1898HOH     H2 5881   0.512   1.766   2.259
 1899HOH      O 5882   3.500   1.452   0.779
 1899HOH     H1 5883   3.587   1.464   0.741
 1899HOH     H2 5884   3.461   1.381   0.728
 1900HOH      O 5885   3.299   2.768   0.342
 1900HOH     H1 5886   3.332   2.853   0.314
 1900HOH     H2 5887   3.257   2.732   0.264
 1901HOH      O 5888   2.122   2.348   1.751
 1901HOH     H1 5889   2.052   2.359   1.815
 1901HOH     H2 5890   2.083   2.376   1.668
 1902HOH      O 5891   1.609   3.415   0.007
 1902HOH     H1 5892   1.645   3.354   0.072
 1902HOH     H2 5893   1.523   3.379  -0.015
 1903HOH      O 5894   3.947   2.537   0.753
 1903HOH     H1 5895   4.032   2.567   0.785
 1903HOH     H2 5896   3.965   2.454   0.710
 1904HOH      O 5897   0.641   0.262   0.684
 1904HOH     H1 5898   0.611   0.190   0.629
 1904HOH     H2 5899   0.562   0.314   0.701
 1905HOH      O 5900   0.498   4.023   0.542
 1905HOH     H1 5901   0.495   3.998   0.635
 1905HOH     H2 5902   0.411   4.058   0.524
 1906HOH      O 5903   1.510   3.467   3.579
 1906HOH     H1 5904   1.467   3.396   3.532
 1906HOH     H2 5905   1.601   3.463   3.550
 1907HOH      O 5906   1.311   0.624   1.704
 1907HOH     H1 5907   1.325   0.705   1.752
 1907HOH     H2 5908   1.307   0.556   1.772
 1908HOH      O 5909   2.149   3.962   3.302
 1908HOH     H1 5910   2.149   3.973   3.397
 1908HOH     H2 5911   2.058   3.939   3.281
 1909HOH      O 5912   0.965   1.794   2.815
 1909HOH     H1 5913   0.971   1.890   2.816
 1909HOH     H2 5914   1.047   1.766   2.774
 1910HOH      O 5915   1.260   2.824   3.732
 1910HOH     H1 5916   1.230   2.903   3.687
 1910HOH     H2 5917   1.237   2.838   3.823
 1911HOH      O 5918   0.499   0.993   3.390
 1911HOH     H1 5919   0.432   0.933   3.424
 1911HOH     H2 5920   0.545   0.942   3.324
 1912HOH      O 5921   1.162   0.739   0.760
 1912HOH     H1 5922   1.164   0.666   0.822
 1912HOH     H2 5923   1.079   0.729   0.714
 1913HOH      O 5924   1.063   2.052   3.099
 1913HOH     H1 5925   1.114   1.971   3.094
 1913HOH     H2 5926   0.973   2.023   3.114
 1914HOH      O 5927   0.189   0.772   0.835
 1914HOH     H1 5928   0.255   0.721   0.881
 1914HOH     H2 5929   0.236   0.812   0.761
 1915HOH      O 5930   3.559   0.105   3.954
 1915HOH     H1 5931   3.529   0.165   4.022
 1915HOH     H2 5932   3.581   0.025   4.001
 1916HOH      O 5933   3.871   3.202   0.660
 1916HOH     H1 5934   3.803   3.155   0.612
 1916HOH     H2 5935   3.902   3.138   0.725
 1917HOH      O 5936   2.561   2.079   2.076
 1917HOH     H1 5937   2.540   2.156   2.129
 1917HOH     H2 5938   2.647   2.051   2.108
 1918HOH      O 5939   3.310   1.197   0.878
 1918HOH     H1 5940   3.396   1.160   0.897
 1918HOH     H2 5941   3.258   1.177   0.955
 1919HOH      O 5942   1.243   0.062   0.152
 1919HOH     H1 5943   1.255  -0.007   0.218
 1919HOH     H2 5944   1.169   0.031   0.099
 1920HOH      O 5945   1.147   2.815   3.961
 1920HOH     H1 5946   1.072   2.755   3.965
 1920HOH     H2 5947   1.117   2.894   4.006
 1921HOH      O 5948   2.284   0.177   1.183
 1921HOH     H1 5949   2.352   0.112   1.201
 1921HOH     H2 5950   2.304   0.210   1.096
 1922HOH      O 5951   1.398   1.545   3.256
 1922HOH     H1 5952   1.321   1.507   3.215
 1922HOH     H2 5953   1.441   1.594   3.187
 1923HOH      O 5954   2.149   3.072   2.959
 1923HOH     H1 5955   2.134   3.167   2.967
 1923HOH     H2 5956   2.226   3.065   2.903
 1924HOH      O 5957   3.749   1.985   0.309
 1924HOH     H1 5958   3.657   1.997   0.286
 1924HOH     H2 5959   3.751   1.900   0.355
 1925HOH      O 5960   2.009   2.000   2.501
 1925HOH     H1 5961   2.084   1.959   2.543
 1925HOH     H2 5962   1.937   1.938   2.515
 1926HOH      O 5963   1.546   0.062   0.981
 1926HOH     H1 5964   1.457   0.038   1.008
 1926HOH     H2 5965   1.592  -0.021   0.975
 1927HOH      O 5966   3.698   0.185   3.550
 1927HOH     H1 5967   3.683   0.216   3.640
 1927HOH     H2 5968   3.694   0.265   3.497
 1928HOH      O 5969   3.967   3.477   1.159
 1928HOH     H1 5970   3.905   3.520   1.100
 1928HOH     H2 5971   3.975   3.387   1.126
 1929HOH      O 5972   1.150   1.560   0.685
 1929HOH     H1 5973   1.231   1.599   0.649
 1929HOH     H2 5974   1.108   1.632   0.731
 1930HOH      O 5975   2.864   1.364   3.808
 1930HOH     H1 5976   2.914   1.415   3.745
 1930HOH     H2 5977   2.774   1.396   3.798
 1931HOH      O 5978   1.859   2.262   3.817
 1931HOH     H1 5979   1.905   2.346   3.812
 1931HOH     H2 5980   1.826   2.248   3.728
 1932HOH      O 5981   3.869   3.295   3.405
 1932HOH     H1 5982   3.821   3.313   3.324
 1932HOH     H2 5983   3.957   3.331   3.390
 1933HOH      O 5984   3.754   2.385   2.529
 1933HOH     H1 5985   3.794   2.299   2.541
 1933HOH     H2 5986   3.663   2.367   2.504
 1934HOH      O 5987   2.629   0.134   1.658
 1934HOH     H1 5988   2.550   0.101   1.616
 1934HOH     H2 5989   2.597   0.191   1.728
 1935HOH      O 5990   2.375   1.934   3.940
 1935HOH     H1 5991   2.348   2.023   3.918
 1935HOH     H2 5992   2.357   1.883   3.860
 1936HOH      O 5993   3.077   3.435   2.397
 1936HOH     H1 5994   3.080   3.345   2.428
 1936HOH     H2 5995   3.166   3.468   2.410
 1937HOH      O 5996   1.302   2.512   1.264
 1937HOH     H1 5997   1.348   2.445   1.314
 1937HOH     H2 5998   1.212   2.479   1.256
 1938HOH      O 5999   0.009   0.261   3.497
 1938HOH     H1 6000   0.097   0.238   3.468
 1938HOH     H2 6001  -0.017   0.189   3.554
 1939HOH      O 6002   2.170   0.391   1.401
 1939HOH     H1 6003   2.219   0.334   1.341
 1939HOH     H2 6004   2.237   0.445   1.444
 1940HOH      O 6005   1.325   2.820   0.283
 1940HOH     H1 6006   1.277   2.880   0.340
 1940HOH     H2 6007   1.329   2.864   0.199
 1941HOH      O 6008   1.579   3.684   0.765
 1941HOH     H1 6009   1.516   3.731   0.711
 1941HOH     H2 6010   1.528   3.613   0.804
 1942HOH      O 6011   1.588   1.545   1.441
 1942HOH     H1 6012   1.548   1.602   1.376
 1942HOH     H2 6013   1.533   1.555   1.519
 1943HOH      O 6014   0.357   2.217   3.640
 1943HOH     H1 6015   0.289   2.275   3.674
 1943HOH     H2 6016   0.339   2.132   3.682
 1944HOH      O 6017   1.234   1.898   1.743
 1944HOH     H1 6018   1.205   1.952   1.669
 1944HOH     H2 6019   1.181   1.930   1.817
 1945HOH      O 6020   3.351   3.381   3.209
 1945HOH     H1 6021   3.421   3.417   3.263
 1945HOH     H2 6022   3.286   3.452   3.204
 1946HOH      O 6023   2.246   1.216   0.811
 1946HOH     H1 6024   2.168   1.167   0.837
 1946HOH     H2 6025   2.237   1.300   0.855
 1947HOH      O 6026   3.164   0.683   3.687
 1947HOH     H1 6027   3.186   0.598   3.725
 1947HOH     H2 6028   3.165   0.744   3.761
 1948HOH      O 6029   3.936   1.421   1.357
 1948HOH     H1 6030   3.968   1.392   1.443
 1948HOH     H2 6031   3.950   1.345   1.300
 1949HOH      O 6032   2.349   2.183   2.965
 1949HOH     H1 6033   2.292   2.158   2.893
 1949HOH     H2 6034   2.397   2.260   2.933
 1950HOH      O 6035   1.357   0.486   0.835
 1950HOH     H1 6036   1.304   0.512   0.911
 1950HOH     H2 6037   1.435   0.446   0.873
 1951HOH      O 6038   3.225   1.264   0.346
 1951HOH     H1 6039   3.207   1.170   0.339
 1951HOH     H2 6040   3.160   1.296   0.408
 1952HOH      O 6041   2.196   0.561   2.119
 1952HOH     H1 6042   2.135   0.585   2.049
 1952HOH     H2 6043   2.143   0.513   2.183
 1953HOH      O 6044   2.695   3.576   0.895
 1953HOH     H1 6045   2.738   3.491   0.895
 1953HOH     H2 6046   2.627   3.569   0.962
 1954HOH      O 6047   4.050   2.484   2.799
 1954HOH     H1 6048   4.024   2.541   2.872
 1954HOH     H2 6049   3.999   2.404   2.812
 1955HOH      O 6050   3.474   3.655   0.917
 1955HOH     H1 6051   3.415   3.715   0.963
 1955HOH     H2 6052   3.477   3.577   0.972
 1956HOH      O 6053   3.241   2.992   1.636
 1956HOH     H1 6054   3.263   2.963   1.725
 1956HOH     H2 6055   3.208   3.081   1.648
 1957HOH      O 6056   1.255   2.547   2.419
 1957HOH     H1 6057   1.203   2.619   2.385
 1957HOH     H2 6058   1.288   2.579   2.503
 1958HOH      O 6059   3.455   0.343   1.213
 1958HOH     H1 6060   3.484   0.310   1.298
 1958HOH     H2 6061   3.497   0.428   1.205
 1959HOH      O 6062   3.745   0.872   3.434
 1959HOH     H1 6063   3.667   0.821   3.458
 1959HOH     H2 6064   3.742   0.876   3.339
 1960HOH      O 6065   0.234   1.432   1.993
 1960HOH     H1 6066   0.233   1.380   1.913
 1960HOH     H2 6067   0.209   1.520   1.965
 1961HOH      O 6068   0.947   0.052   1.373
 1961HOH     H1 6069   0.853   0.045   1.357
 1961HOH     H2 6070   0.967   0.144   1.356
 1962HOH      O 6071   3.405   1.878   1.159
 1962HOH     H1 6072   3.413   1.877   1.064
 1962HOH     H2 6073   3.312   1.895   1.175
 1963HOH      O 6074   3.856   1.177   2.178
 1963HOH     H1 6075   3.840   1.119   2.103
 1963HOH     H2 6076   3.768   1.200   2.210
 1964HOH      O 6077   0.415   2.935   0.542
 1964HOH     H1 6078   0.458   3.013   0.507
 1964HOH     H2 6079   0.324   2.961   0.554
 1965HOH      O 6080   2.334   1.284   2.438
 1965HOH     H1 6081   2.276   1.353   2.404
 1965HOH     H2 6082   2.282   1.204   2.431
 1966HOH      O 6083   1.018   0.453   0.838
 1966HOH     H1 6084   1.021   0.421   0.747
 1966HOH     H2 6085   0.930   0.431   0.868
 1967HOH      O 6086   1.304   3.323   0.935
 1967HOH     H1 6087   1.285   3.306   1.027
 1967HOH     H2 6088   1.318   3.237   0.897
 1968HOH      O 6089   2.654   0.185   2.196
 1968HOH     H1 6090   2.704   0.198   2.115
 1968HOH     H2 6091   2.588   0.255   2.195
 1969HOH      O 6092   3.227   2.364   2.442
 1969HOH     H1 6093   3.302   2.350   2.500
 1969HOH     H2 6094   3.260   2.341   2.355
 1970HOH      O 6095   1.951   2.901   1.439
 1970HOH     H1 6096   1.938   2.959   1.514
 1970HOH     H2 6097   1.981   2.959   1.369
 1971HOH      O 6098   3.202   2.646   0.137
 1971HOH     H1 6099   3.142   2.572   0.143
 1971HOH     H2 6100   3.280   2.610   0.094
 1972HOH      O 6101   1.208   3.457   2.495
 1972HOH     H1 6102   1.184   3.393   2.428
 1972HOH     H2 6103   1.241   3.532   2.445
 1973HOH      O 6104   3.874   3.602   1.924
 1973HOH     H1 6105   3.962   3.628   1.952
 1973HOH     H2 6106   3.889   3.541   1.853
 1974HOH      O 6107   0.508   1.116   3.633
 1974HOH     H1 6108   0.419   1.151   3.637
 1974HOH     H2 6109   0.512   1.070   3.549
 1975HOH      O 6110   3.411   0.879   3.666
 1975HOH     H1 6111   3.327   0.833   3.664
 1975HOH     H2 6112   3.475   0.811   3.645
 1976HOH      O 6113   1.488   0.322   1.311
 1976HOH     H1 6114   1.541   0.362   1.380
 1976HOH     H2 6115   1.507   0.228   1.319
 1977HOH      O 6116   3.716   0.445   2.550
 1977HOH     H1 6117   3.762   0.466   2.469
 1977HOH     H2 6118   3.758   0.500   2.616
 1978HOH      O 6119   0.913   2.637   3.984
 1978HOH     H1 6120   0.932   2.544   3.970
 1978HOH     H2 6121   0.818   2.643   3.977
 1979HOH      O 6122   3.740   0.488   0.525
 1979HOH     H1 6123   3.772   0.418   0.583
 1979HOH     H2 6124   3.647   0.471   0.516
 1980HOH      O 6125   2.685   2.729   1.714
 1980HOH     H1 6126   2.700   2.795   1.783
 1980HOH     H2 6127   2.746   2.753   1.645
 1981HOH      O 6128   4.023   0.849   2.665
 1981HOH     H1 6129   4.076   0.927   2.680
 1981HOH     H2 6130   3.967   0.873   2.591
 1982HOH      O 6131   2.431  -0.008   0.308
 1982HOH     H1 6132   2.411   0.085   0.309
 1982HOH     H2 6133   2.494  -0.020   0.379
 1983HOH      O 6134   1.492   1.239   3.802
 1983HOH     H1 6135   1.571   1.291   3.821
 1983HOH     H2 6136   1.431   1.302   3.765
 1984HOH      O 6137   2.617   1.336   2.073
 1984HOH     H1 6138   2.615   1.289   1.990
 1984HOH     H2 6139   2.611   1.268   2.140
 1985HOH      O 6140   3.922   0.193   3.942
 1985HOH     H1 6141   3.966   0.277   3.954
 1985HOH     H2 6142   3.954   0.161   3.857
 1986HOH      O 6143   3.745   1.721   0.789
 1986HOH     H1 6144   3.838   1.717   0.812
 1986HOH     H2 6145   3.727   1.638   0.744
 1987HOH      O 6146   1.854   2.111   1.718
 1987HOH     H1 6147   1.924   2.161   1.760
 1987HOH     H2 6148   1.828   2.166   1.644
 1988HOH      O 6149   1.588   1.996   3.782
 1988HOH     H1 6150   1.541   1.978   3.700
 1988HOH     H2 6151   1.679   1.970   3.763
 1989HOH      O 6152   2.021   2.712   1.630
 1989HOH     H1 6153   2.000   2.766   1.554
 1989HOH     H2 6154   2.117   2.704   1.627
 1990HOH      O 6155   1.079   1.717   3.426
 1990HOH     H1 6156   1.029   1.639   3.405
 1990HOH     H2 6157   1.016   1.789   3.419
 1991HOH      O 6158   0.134   0.598   1.364
 1991HOH     H1 6159   0.174   0.511   1.363
 1991HOH     H2 6160   0.049   0.584   1.406
 1992HOH      O 6161   1.196   1.007   0.535
 1992HOH     H1 6162   1.239   0.931   0.497
 1992HOH     H2 6163   1.162   0.975   0.619
 1993HOH      O 6164   1.251   1.433   1.567
 1993HOH     H1 6165   1.326   1.389   1.608
 1993HOH     H2 6166   1.175   1.402   1.616
 1994HOH      O 6167   2.283   3.304   3.796
 1994HOH     H1 6168   2.356   3.248   3.825
 1994HOH     H2 6169   2.322   3.360   3.728
 1995HOH      O 6170   2.227   3.754   1.695
 1995HOH     H1 6171   2.238   3.843   1.729
 1995HOH     H2 6172   2.201   3.767   1.604
 1996HOH      O 6173   2.032   0.323   3.538
 1996HOH     H1 6174   2.082   0.349   3.461
 1996HOH     H2 6175   1.978   0.249   3.508
 1997HOH      O 6176   3.780   2.417   0.440
 1997HOH     H1 6177   3.774   2.512   0.437
 1997HOH     H2 6178   3.857   2.399   0.493
 1998HOH      O 6179   2.178   0.938   2.094
 1998HOH     H1 6180   2.228   0.873   2.045
 1998HOH     H2 6181   2.187   1.018   2.042
 1999HOH      O 6182   1.403   2.183   1.772
 1999HOH     H1 6183   1.367   2.125   1.705
 1999HOH     H2 6184   1.481   2.137   1.803
 2000HOH      O 6185   3.362   1.698   3.654
 2000HOH     H1 6186   3.333   1.611   3.680
 2000HOH     H2 6187   3.412   1.683   3.574
 2001HOH      O 6188   2.414   1.424   0.490
 2001HOH     H1 6189   2.348   1.488   0.463
 2001HOH     H2 6190   2.482   1.431   0.423
 2002HOH      O 6191   3.141   2.217   0.431
 2002HOH     H1 6192   3.076   2.150   0.410
 2002HOH     H2 6193   3.205   2.211   0.360
 2003HOH      O 6194   2.996   3.421   0.510
 2003HOH     H1 6195   3.073   3.369   0.485
 2003HOH     H2 6196   2.953   3.368   0.578
 2004HOH      O 6197   0.458   3.456   0.567
 2004HOH     H1 6198   0.478   3.536   0.616
 2004HOH     H2 6199   0.504   3.466   0.484
 2005HOH      O 6200   3.586   0.247   3.159
 2005HOH     H1 6201   3.632   0.163   3.165
 2005HOH     H2 6202   3.498   0.228   3.193
 2006HOH      O 6203   2.116   3.032   1.234
 2006HOH     H1 6204   2.183   2.989   1.181
 2006HOH     H2 6205   2.055   3.069   1.170
 2007HOH      O 6206   2.947   3.989   0.244
 2007HOH     H1 6207   3.042   3.976   0.235
 2007HOH     H2 6208   2.914   3.906   0.276
 2008HOH      O 6209   2.443   1.440   3.553
 2008HOH     H1 6210   2.395   1.360   3.532
 2008HOH     H2 6211   2.381   1.511   3.535
 2009HOH      O 6212   0.046   0.887   1.072
 2009HOH     H1 6213   0.059   0.810   1.017
 2009HOH     H2 6214  -0.046   0.883   1.097
 2010HOH      O 6215   2.810   2.478   0.891
 2010HOH     H1 6216   2.884   2.534   0.917
 2010HOH     H2 6217   2.749   2.537   0.847
 2011HOH      O 6218   3.084   3.021   0.368
 2011HOH     H1 6219   3.047   3.106   0.342
 2011HOH     H2 6220   3.154   3.005   0.304
 2012HOH      O 6221  -0.008   2.812   2.448
 2012HOH     H1 6222  -0.049   2.739   2.494
 2012HOH     H2 6223   0.076   2.777   2.419
 2013HOH      O 6224   2.528   0.917   2.233
 2013HOH     H1 6225   2.479   0.996   2.256
 2013HOH     H2 6226   2.620   0.940   2.251
 2014HOH      O 6227   0.451   1.627   2.714
 2014HOH     H1 6228   0.405   1.710   2.727
 2014HOH     H2 6229   0.543   1.650   2.719
 2015HOH      O 6230   2.517   2.926   0.549
 2015HOH     H1 6231   2.567   2.985   0.605
 2015HOH     H2 6232   2.473   2.983   0.486
 2016HOH      O 6233   2.289   3.667   2.540
 2016HOH     H1 6234   2.361   3.641   2.597
 2016HOH     H2 6235   2.294   3.607   2.465
 2017HOH      O 6236   0.494   3.237   1.632
 2017HOH     H1 6237   0.456   3.167   1.580
 2017HOH     H2 6238   0.419   3.278   1.676
 2018HOH      O 6239   1.819   1.069   0.593
 2018HOH     H1 6240   1.801   1.101   0.681
 2018HOH     H2 6241   1.776   0.984   0.589
 2019HOH      O 6242   2.394   3.368   2.282
 2019HOH     H1 6243   2.367   3.325   2.363
 2019HOH     H2 6244   2.466   3.314   2.249
 2020HOH      O 6245   1.527   3.868   0.497
 2020HOH     H1 6246   1.534   3.947   0.550
 2020HOH     H2 6247   1.601   3.873   0.437
 2021HOH      O 6248   3.735   2.632   2.830
 2021HOH     H1 6249   3.751   2.653   2.738
 2021HOH     H2 6250   3.756   2.713   2.876
 2022HOH      O 6251   0.312   3.512   2.918
 2022HOH     H1 6252   0.246   3.443   2.925
 2022HOH     H2 6253   0.342   3.507   2.827
 2023HOH      O 6254   2.525   0.255   2.520
 2023HOH     H1 6255   2.502   0.162   2.511
 2023HOH     H2 6256   2.503   0.293   2.435
 2024HOH      O 6257   1.557   2.852   1.994
 2024HOH     H1 6258   1.606   2.818   1.919
 2024HOH     H2 6259   1.486   2.903   1.955
 2025HOH      O 6260   2.409   2.872   0.106
 2025HOH     H1 6261   2.460   2.793   0.124
 2025HOH     H2 6262   2.335   2.866   0.167
 2026HOH      O 6263   2.781   3.130   3.702
 2026HOH     H1 6264   2.813   3.198   3.761
 2026HOH     H2 6265   2.711   3.172   3.653
 2027HOH      O 6266   1.233   0.346   0.618
 2027HOH     H1 6267   1.287   0.395   0.680
 2027HOH     H2 6268   1.217   0.262   0.661
 2028HOH      O 6269   1.729   1.525   0.499
 2028HOH     H1 6270   1.701   1.497   0.586
 2028HOH     H2 6271   1.760   1.444   0.457
 2029HOH      O 6272   2.760   3.543   2.527
 2029HOH     H1 6273   2.841   3.592   2.513
 2029HOH     H2 6274   2.789   3.457   2.559
 2030HOH      O 6275   3.575   3.482   2.547
 2030HOH     H1 6276   3.520   3.488   2.469
 2030HOH     H2 6277   3.559   3.564   2.594
 2031HOH      O 6278   3.300   3.791   1.088
 2031HOH     H1 6279   3.254   3.707   1.092
 2031HOH     H2 6280   3.249   3.843   1.025
 2032HOH      O 6281   1.865   1.677   1.835
 2032HOH     H1 6282   1.886   1.639   1.921
 2032HOH     H2 6283   1.773   1.703   1.843
 2033HOH      O 6284   1.806   1.875   3.705
 2033HOH     H1 6285   1.800   1.897   3.612
 2033HOH     H2 6286   1.890   1.829   3.714
 2034HOH      O 6287   2.851   0.582   3.046
 2034HOH     H1 6288   2.834   0.627   3.129
 2034HOH     H2 6289   2.765   0.565   3.009
 2035HOH      O 6290   3.367   1.060   1.994
 2035HOH     H1 6291   3.406   1.096   1.914
 2035HOH     H2 6292   3.316   1.131   2.030
 2036HOH      O 6293   0.905   0.399   3.765
 2036HOH     H1 6294   0.955   0.350   3.699
 2036HOH     H2 6295   0.814   0.375   3.749
 2037HOH      O 6296   3.270   3.580   2.491
 2037HOH     H1 6297   3.273   3.612   2.582
 2037HOH     H2 6298   3.322   3.644   2.442
 2038HOH      O 6299   2.884   0.639   3.669
 2038HOH     H1 6300   2.977   0.653   3.690
 2038HOH     H2 6301   2.837   0.688   3.736
 2039HOH      O 6302   1.530   1.399   2.029
 2039HOH     H1 6303   1.472   1.355   1.967
 2039HOH     H2 6304   1.487   1.483   2.046
 2040HOH      O 6305   1.564   2.687   3.920
 2040HOH     H1 6306   1.564   2.699   3.825
 2040HOH     H2 6307   1.522   2.602   3.934
 2041HOH      O 6308   1.381   2.456   3.117
 2041HOH     H1 6309   1.305   2.474   3.173
 2041HOH     H2 6310   1.359   2.373   3.074
 2042HOH      O 6311   0.634   1.442   2.994
 2042HOH     H1 6312   0.691   1.494   2.937
 2042HOH     H2 6313   0.693   1.379   3.035
 2043HOH      O 6314   2.404   1.465   3.993
 2043HOH     H1 6315   2.312   1.476   3.971
 2043HOH     H2 6316   2.431   1.550   4.028
 2044HOH      O 6317   0.741   3.287   3.404
 2044HOH     H1 6318   0.771   3.251   3.320
 2044HOH     H2 6319   0.717   3.377   3.383
 2045HOH      O 6320   1.171   0.932   2.404
 2045HOH     H1 6321   1.083   0.958   2.432
 2045HOH     H2 6322   1.225   0.941   2.483
 2046HOH      O 6323   2.502   3.796   0.608
 2046HOH     H1 6324   2.552   3.846   0.544
 2046HOH     H2 6325   2.501   3.851   0.686
 2047HOH      O 6326   2.328   0.116   1.579
 2047HOH     H1 6327   2.291   0.061   1.648
 2047HOH     H2 6328   2.264   0.110   1.508
 2048HOH      O 6329   2.530   1.750   0.507
 2048HOH     H1 6330   2.587   1.682   0.543
 2048HOH     H2 6331   2.483   1.706   0.436
 2049HOH      O 6332   1.820   2.063   1.411
 2049HOH     H1 6333   1.752   2.122   1.378
 2049HOH     H2 6334   1.900   2.117   1.409
 2050HOH      O 6335   1.423   3.644   1.869
 2050HOH     H1 6336   1.328   3.660   1.866
 2050HOH     H2 6337   1.437   3.576   1.804
 2051HOH      O 6338   2.255   2.381   0.347
 2051HOH     H1 6339   2.176   2.433   0.357
 2051HOH     H2 6340   2.228   2.291   0.366
 2052HOH      O 6341   2.377   3.513   3.602
 2052HOH     H1 6342   2.338   3.554   3.525
 2052HOH     H2 6343   2.460   3.476   3.571
 2053HOH      O 6344   0.028   0.433   0.622
 2053HOH     H1 6345   0.011   0.515   0.668
 2053HOH     H2 6346   0.110   0.447   0.576
 2054HOH      O 6347   3.032   1.045   2.538
 2054HOH     H1 6348   3.005   1.110   2.473
 2054HOH     H2 6349   3.005   0.961   2.500
 2055HOH      O 6350   0.689   3.242   3.690
 2055HOH     H1 6351   0.701   3.284   3.605
 2055HOH     H2 6352   0.752   3.285   3.748
 2056HOH      O 6353   0.276   1.938   1.102
 2056HOH     H1 6354   0.318   1.891   1.174
 2056HOH     H2 6355   0.327   1.913   1.025
 2057HOH      O 6356   0.330   2.137   2.842
 2057HOH     H1 6357   0.239   2.162   2.859
 2057HOH     H2 6358   0.380   2.217   2.861
 2058HOH      O 6359   3.296   1.519   0.544
 2058HOH     H1 6360   3.340   1.473   0.615
 2058HOH     H2 6361   3.324   1.610   0.554
 2059HOH      O 6362   0.119   3.901   3.483
 2059HOH     H1 6363   0.183   3.910   3.413
 2059HOH     H2 6364   0.035   3.924   3.443
 2060HOH      O 6365   1.756   3.141   1.853
 2060HOH     H1 6366   1.809   3.206   1.899
 2060HOH     H2 6367   1.803   3.059   1.867
 2061HOH      O 6368   0.553   2.694   0.243
 2061HOH     H1 6369   0.479   2.679   0.302
 2061HOH     H2 6370   0.524   2.765   0.185
 2062HOH      O 6371   2.633   1.961   2.661
 2062HOH     H1 6372   2.691   1.893   2.626
 2062HOH     H2 6373   2.571   1.913   2.716
 2063HOH      O 6374   2.187   2.073   2.741
 2063HOH     H1 6375   2.222   1.995   2.696
 2063HOH     H2 6376   2.190   2.142   2.675
 2064HOH      O 6377   3.417   2.586   3.976
 2064HOH     H1 6378   3.435   2.498   4.007
 2064HOH     H2 6379   3.416   2.579   3.880
 2065HOH      O 6380   2.644   2.269   0.893
 2065HOH     H1 6381   2.598   2.321   0.959
 2065HOH     H2 6382   2.713   2.327   0.860
 2066HOH      O 6383   2.720   2.896   1.915
 2066HOH     H1 6384   2.644   2.954   1.917
 2066HOH     H2 6385   2.794   2.954   1.897
 2067HOH      O 6386   2.629   1.484   3.336
 2067HOH     H1 6387   2.695   1.550   3.315
 2067HOH     H2 6388   2.632   1.477   3.432
 2068HOH      O 6389   1.019   1.371   1.717
 2068HOH     H1 6390   0.981   1.320   1.789
 2068HOH     H2 6391   1.070   1.439   1.760
 2069HOH      O 6392   3.935   0.771   3.881
 2069HOH     H1 6393   3.891   0.763   3.797
 2069HOH     H2 6394   3.868   0.747   3.945
 2070HOH      O 6395   2.951   0.494   0.083
 2070HOH     H1 6396   2.982   0.411   0.120
 2070HOH     H2 6397   3.028   0.552   0.087
 2071HOH      O 6398   0.648   0.307   2.592
 2071HOH     H1 6399   0.731   0.316   2.638
 2071HOH     H2 6400   0.659   0.229   2.538
 2072HOH      O 6401   3.804   2.733   0.400
 2072HOH     H1 6402   3.799   2.799   0.331
 2072HOH     H2 6403   3.738   2.760   0.464
 2073HOH      O 6404   3.388   2.530   3.385
 2073HOH     H1 6405   3.341   2.447   3.396
 2073HOH     H2 6406   3.442   2.537   3.464
 2074HOH      O 6407   2.231   2.608   2.322
 2074HOH     H1 6408   2.160   2.584   2.263
 2074HOH     H2 6409   2.188   2.656   2.393
 2075HOH      O 6410   2.011   2.433   2.519
 2075HOH     H1 6411   2.047   2.374   2.453
 2075HOH     H2 6412   2.087   2.457   2.572
 2076HOH      O 6413   2.029   0.411   0.588
 2076HOH     H1 6414   2.122   0.428   0.576
 2076HOH     H2 6415   2.000   0.479   0.649
 2077HOH      O 6416   3.405   2.450   1.709
 2077HOH     H1 6417   3.397   2.355   1.714
 2077HOH     H2 6418   3.318   2.480   1.684
 2078HOH      O 6419   3.172   3.190   3.347
 2078HOH     H1 6420   3.225   3.229   3.277
 2078HOH     H2 6421   3.117   3.126   3.303
 2079HOH      O 6422   0.428   2.361   2.211
 2079HOH     H1 6423   0.380   2.283   2.183
 2079HOH     H2 6424   0.403   2.372   2.303
 2080HOH      O 6425   2.290   1.670   0.686
 2080HOH     H1 6426   2.232   1.641   0.615
 2080HOH     H2 6427   2.290   1.599   0.749
 2081HOH      O 6428   3.303   3.979   2.596
 2081HOH     H1 6429   3.316   3.901   2.541
 2081HOH     H2 6430   3.392   4.009   2.615
 2082HOH      O 6431   2.754   0.130   3.688
 2082HOH     H1 6432   2.792   0.093   3.608
 2082HOH     H2 6433   2.806   0.208   3.705
 2083HOH      O 6434   2.231   1.010   2.419
 2083HOH     H1 6435   2.151   0.977   2.459
 2083HOH     H2 6436   2.216   1.001   2.325
 2084HOH      O 6437   1.766   2.436   0.210
 2084HOH     H1 6438   1.715   2.515   0.193
 2084HOH     H2 6439   1.818   2.423   0.130
 2085HOH      O 6440   2.756   0.607   1.019
 2085HOH     H1 6441   2.729   0.523   0.983
 2085HOH     H2 6442   2.679   0.639   1.066
 2086HOH      O 6443   2.543   0.027   1.180
 2086HOH     H1 6444   2.535  -0.067   1.192
 2086HOH     H2 6445   2.624   0.050   1.227
 2087HOH      O 6446   3.178   1.590   3.259
 2087HOH     H1 6447   3.252   1.548   3.216
 2087HOH     H2 6448   3.211   1.675   3.287
 2088HOH      O 6449   2.554   3.218   2.679
 2088HOH     H1 6450   2.580   3.265   2.758
 2088HOH     H2 6451   2.630   3.225   2.621
 2089HOH      O 6452   2.482   0.621   0.532
 2089HOH     H1 6453   2.500   0.710   0.563
 2089HOH     H2 6454   2.404   0.631   0.477
 2090HOH      O 6455   3.822   3.546   1.497
 2090HOH     H1 6456   3.882   3.618   1.478
 2090HOH     H2 6457   3.867   3.495   1.564
 2091HOH      O 6458   1.130   1.957   2.000
 2091HOH     H1 6459   1.044   1.998   2.014
 2091HOH     H2 6460   1.193   2.026   2.018
 2092HOH      O 6461   2.758   2.027   2.988
 2092HOH     H1 6462   2.835   1.978   3.017
 2092HOH     H2 6463   2.780   2.055   2.899
 2093HOH      O 6464   0.895   4.040   2.662
 2093HOH     H1 6465   0.957   3.970   2.640
 2093HOH     H2 6466   0.810   4.006   2.633
 2094HOH      O 6467   1.121   2.732   1.785
 2094HOH     H1 6468   1.160   2.705   1.867
 2094HOH     H2 6469   1.141   2.825   1.778
 2095HOH      O 6470   1.050   0.619   3.958
 2095HOH     H1 6471   1.093   0.637   3.874
 2095HOH     H2 6472   0.978   0.682   3.962
 2096HOH      O 6473   2.909   2.564   0.203
 2096HOH     H1 6474   2.824   2.535   0.236
 2096HOH     H2 6475   2.958   2.591   0.281
 2097HOH      O 6476   1.943   1.400   2.833
 2097HOH     H1 6477   2.033   1.378   2.858
 2097HOH     H2 6478   1.897   1.316   2.831
 2098HOH      O 6479   2.977   1.087   3.892
 2098HOH     H1 6480   2.977   1.143   3.814
 2098HOH     H2 6481   2.908   1.124   3.948
 2099HOH      O 6482   1.974   0.981   2.567
 2099HOH     H1 6483   1.936   1.051   2.514
 2099HOH     H2 6484   1.917   0.905   2.552
 2100HOH      O 6485   3.376   3.799   2.364
 2100HOH     H1 6486   3.464   3.819   2.397
 2100HOH     H2 6487   3.370   3.849   2.282
 2101HOH      O 6488   2.357   0.338   0.948
 2101HOH     H1 6489   2.438   0.339   0.998
 2101HOH     H2 6490   2.370   0.404   0.879
 2102HOH      O 6491   3.141   1.692   2.441
 2102HOH     H1 6492   3.201   1.682   2.367
 2102HOH     H2 6493   3.073   1.626   2.425
 2103HOH      O 6494   2.801   1.296   2.614
 2103HOH     H1 6495   2.746   1.229   2.655
 2103HOH     H2 6496   2.891   1.264   2.625
 2104HOH      O 6497   1.682   3.868   0.953
 2104HOH     H1 6498   1.660   3.812   0.878
 2104HOH     H2 6499   1.762   3.828   0.989
 2105HOH      O 6500   3.625   3.012   2.254
 2105HOH     H1 6501   3.702   2.961   2.280
 2105HOH     H2 6502   3.639   3.030   2.161
 2106HOH      O 6503   0.230   1.627   0.687
 2106HOH     H1 6504   0.186   1.635   0.772
 2106HOH     H2 6505   0.316   1.589   0.709
 2107HOH      O 6506   1.198   3.250   2.906
 2107HOH     H1 6507   1.258   3.309   2.951
 2107HOH     H2 6508   1.234   3.244   2.817
 2108HOH      O 6509   1.551   2.308   3.269
 2108HOH     H1 6510   1.520   2.380   3.215
 2108HOH     H2 6511   1.630   2.277   3.225
 2109HOH      O 6512   2.161   1.456   2.226
 2109HOH     H1 6513   2.109   1.445   2.146
 2109HOH     H2 6514   2.116   1.527   2.273
 2110HOH      O 6515   2.455   2.255   0.172
 2110HOH     H1 6516   2.407   2.324   0.218
 2110HOH     H2 6517   2.388   2.208   0.123
 2111HOH      O 6518   2.495   1.303   0.731
 2111HOH     H1 6519   2.456   1.357   0.661
 2111HOH     H2 6520   2.420   1.258   0.770
   4.02731   4.02731   4.02731   0.00000   0.00000   0.00000   0.00000   0.00000   0.00000
