Generated with MDTraj, t= 507.0
 6521
    1MOL     O1    1   1.645   0.669   2.091
    1MOL     O2    2   1.518   0.670   1.925
    1MOL     N1    3   1.603   0.613   1.989
    1MOL     C1    4   1.695   0.516   1.928
    1MOL     C2    5   1.700   0.503   1.788
    1MOL     C3    6   1.773   0.435   2.004
    1MOL     C4    7   1.772   0.403   1.725
    1MOL     C5    8   1.847   0.336   1.946
    1MOL     C6    9   1.843   0.314   1.803
    1MOL     C7   10   1.762   0.385   1.573
    1MOL     O3   11   1.716   0.472   1.506
    1MOL     O4   12   1.818   0.289   1.518
    1MOL     H1   13   1.646   0.571   1.723
    1MOL     H2   14   1.784   0.446   2.112
    1MOL     H3   15   1.905   0.271   2.011
    1MOL     H4   16   1.897   0.233   1.754
    2OCB     C1   17   1.419   0.894   2.930
    2OCB     C2   18   1.202   0.754   2.816
    2OCB     C3   19   1.354   0.797   3.005
    2OCB     C4   20   1.379   0.908   2.793
    2OCB     C5   21   1.262   0.854   2.744
    2OCB     C6   22   1.244   0.723   2.951
    2OCB     O1   23   1.114   0.667   2.755
    2OCB     C7   24   1.178   0.612   3.032
    2OCB     C8   25   1.148   0.535   2.706
    2OCB     O2   26   1.111   0.443   2.808
    2OCB     C9   27   1.201   0.395   2.901
    2OCB    C10   28   1.247   0.478   3.005
    2OCB    C11   29   1.355   0.436   3.081
    2OCB    C12   30   1.254   0.272   2.879
    2OCB    C13   31   1.414   0.310   3.059
    2OCB    C14   32   1.361   0.228   2.956
    2OCB     O3   33   1.434   0.124   2.909
    2OCB    C15   34   1.542   0.277   3.132
    2OCB    C16   35   1.663   0.334   3.071
    2OCB    C17   36   1.724   0.272   2.961
    2OCB    C18   37   1.548   0.164   2.830
    2OCB     O4   38   1.667   0.157   2.914
    2OCB     O5   39   1.451   0.982   2.708
    2OCB    C19   40   1.536   0.978   2.991
    2OCB    C20   41   1.666   0.904   2.974
    2OCB     O6   42   1.680   1.001   2.752
    2OCB    C21   43   1.733   0.928   2.852
    2OCB    C22   44   1.832   0.325   2.898
    2OCB    C23   45   1.896   0.434   2.951
    2OCB    C24   46   1.851   0.879   2.822
    2OCB    C25   47   1.912   0.783   2.902
    2OCB     O7   48   2.003   0.482   2.882
    2OCB     O8   49   2.010   0.704   2.842
    2OCB    C26   50   1.975   0.583   2.778
    2OCB    C27   51   1.732   0.813   3.064
    2OCB    C28   52   1.853   0.745   3.025
    2OCB    C29   53   1.717   0.455   3.114
    2OCB    C30   54   1.911   0.627   3.114
    2OCB    C31   55   1.839   0.501   3.064
    2OCB    C32   56   1.582   0.940   2.669
    2OCB    C33   57   1.536   0.304   3.291
    2OCB    C34   58   1.654   0.238   3.366
    2OCB    C35   59   1.647   0.083   3.375
    2OCB     O9   60   1.678   0.011   3.281
    2OCB    C36   61   1.147   0.652   3.178
    2OCB    C37   62   1.038   0.563   3.250
    2OCB    C38   63   1.016   0.606   3.389
    2OCB    O10   64   1.094   0.584   3.475
    2OCB    C39   65   1.519   1.019   3.136
    2OCB    C40   66   1.397   1.108   3.153
    2OCB    C41   67   1.388   1.194   3.269
    2OCB    O11   68   1.453   1.299   3.266
    2OCB    C42   69   1.890   0.639   3.266
    2OCB    C43   70   1.992   0.740   3.324
    2OCB    C44   71   1.959   0.781   3.466
    2OCB    O12   72   1.974   0.696   3.551
    2OCB    C45   73   1.083   0.504   2.571
    2OCB    C46   74   0.971   0.446   2.327
    2OCB    C47   75   1.039   0.377   2.545
    2OCB    C48   76   1.071   0.607   2.475
    2OCB    C49   77   1.019   0.576   2.349
    2OCB    C50   78   0.985   0.341   2.421
    2OCB    C51   79   1.599   0.977   2.520
    2OCB    C52   80   1.622   1.051   2.249
    2OCB    C53   81   1.718   1.026   2.478
    2OCB    C54   82   1.498   0.957   2.429
    2OCB    C55   83   1.507   1.000   2.296
    2OCB    C56   84   1.729   1.067   2.346
    2OCB    C57   85   2.054   0.553   2.652
    2OCB    C58   86   2.159   0.506   2.400
    2OCB    C59   87   2.078   0.421   2.607
    2OCB    C60   88   2.090   0.663   2.573
    2OCB    C61   89   2.147   0.638   2.444
    2OCB    C62   90   2.120   0.402   2.474
    2OCB    C63   91   1.563   0.075   2.705
    2OCB    C64   92   1.565  -0.061   2.457
    2OCB    C65   93   1.684   0.046   2.639
    2OCB    C66   94   1.445   0.027   2.647
    2OCB    C67   95   1.445  -0.032   2.523
    2OCB    C68   96   1.685  -0.021   2.516
    2OCB    O13   97   1.411   0.968   2.209
    2OCB    O14   98   2.150   0.739   2.350
    2OCB    O15   99   2.138   0.272   2.425
    2OCB    O16  100   1.023   0.667   2.245
    2OCB    O17  101   0.944   0.208   2.393
    2OCB    O18  102   1.804  -0.069   2.465
    2OCB    O19  103   1.336  -0.070   2.456
    2OCB    C69  104   2.114   0.866   2.378
    2OCB    C70  105   2.059   1.132   2.400
    2OCB    C71  106   1.996   0.914   2.325
    2OCB    C72  107   2.212   0.954   2.434
    2OCB    C73  108   2.184   1.090   2.441
    2OCB    C74  109   1.969   1.047   2.336
    2OCB    O20  110   1.849   1.106   2.292
    2OCB    C75  111   1.086   0.792   2.261
    2OCB    C76  112   1.197   1.052   2.287
    2OCB    C77  113   1.006   0.902   2.300
    2OCB    C78  114   1.225   0.813   2.231
    2OCB    C79  115   1.278   0.942   2.245
    2OCB    C80  116   1.060   1.029   2.310
    2OCB    C81  117   2.091   0.154   2.475
    2OCB    C82  118   2.017  -0.093   2.578
    2OCB    C83  119   2.182   0.083   2.554
    2OCB    C84  120   1.961   0.106   2.448
    2OCB    C85  121   1.927  -0.018   2.500
    2OCB    C86  122   2.146  -0.043   2.611
    2OCB    C87  123   2.243  -0.128   2.685
    2OCB    O21  124   2.342  -0.084   2.738
    2OCB    C88  125   0.910  -0.171   2.695
    2OCB    O22  126   0.807  -0.125   2.736
    2OCB    C89  127   0.967   1.144   2.343
    2OCB    O23  128   0.849   1.128   2.385
    2OCB    O24  129   1.620   0.027   3.479
    2OCB    O25  130   1.938   0.898   3.487
    2OCB    O26  131   1.356   1.142   3.375
    2OCB    C90  132   2.288   1.184   2.503
    2OCB    O27  133   2.266   1.304   2.496
    2OCB    O28  134   0.947  -0.281   2.725
    2OCB    O29  135   2.215  -0.244   2.708
    2OCB    O30  136   2.399   1.149   2.543
    2OCB    O31  137   1.010   1.255   2.346
    2OCB    O32  138   0.920   0.681   3.412
    2OCB    C91  139   1.012   0.099   2.445
    2OCB    C92  140   1.136  -0.107   2.583
    2OCB    C93  141   1.144   0.067   2.418
    2OCB    C94  142   0.940   0.026   2.539
    2OCB    C95  143   1.001  -0.076   2.609
    2OCB    C96  144   1.206  -0.039   2.486
    2OCB    C97  145   1.219   0.144   2.311
    2OCB    C98  146   1.316   0.690   2.216
    2OCB    C99  147   1.907   0.820   2.243
    2OCB      C  148   1.861   0.184   2.358
    2OCB     H1  149   1.380   0.783   3.109
    2OCB     H2  150   1.236   0.874   2.640
    2OCB     H3  151   1.076   0.598   2.994
    2OCB     H4  152   1.256   0.526   2.690
    2OCB     H5  153   1.399   0.499   3.158
    2OCB     H6  154   1.225   0.206   2.798
    2OCB     H7  155   1.549   0.168   3.131
    2OCB     H8  156   1.542   0.266   2.790
    2OCB     H9  157   1.544   1.074   2.940
    2OCB    H10  158   1.873   0.273   2.812
    2OCB    H11  159   1.891   0.884   2.721
    2OCB    H12  160   1.868   0.580   2.754
    2OCB    H13  161   1.687   0.779   3.156
    2OCB    H14  162   1.668   0.508   3.195
    2OCB    H15  163   2.018   0.610   3.105
    2OCB    H16  164   1.595   0.831   2.674
    2OCB    H17  165   1.532   0.411   3.310
    2OCB    H18  166   1.446   0.257   3.331
    2OCB    H19  167   1.745   0.258   3.309
    2OCB    H20  168   1.660   0.286   3.464
    2OCB    H21  169   1.118   0.757   3.167
    2OCB    H22  170   1.240   0.653   3.234
    2OCB    H23  171   0.946   0.556   3.191
    2OCB    H24  172   1.076   0.461   3.254
    2OCB    H25  173   1.514   0.927   3.196
    2OCB    H26  174   1.605   1.078   3.168
    2OCB    H27  175   1.398   1.175   3.067
    2OCB    H28  176   1.311   1.041   3.155
    2OCB    H29  177   1.791   0.676   3.294
    2OCB    H30  178   1.913   0.544   3.315
    2OCB    H31  179   2.093   0.700   3.323
    2OCB    H32  180   2.001   0.836   3.271
    2OCB    H33  181   0.935   0.416   2.228
    2OCB    H34  182   1.043   0.298   2.620
    2OCB    H35  183   1.094   0.710   2.501
    2OCB    H36  184   1.639   1.067   2.143
    2OCB    H37  185   1.806   1.019   2.542
    2OCB    H38  186   1.405   0.917   2.469
    2OCB    H39  187   2.198   0.488   2.300
    2OCB    H40  188   2.059   0.339   2.676
    2OCB    H41  189   2.060   0.765   2.596
    2OCB    H42  190   1.564  -0.120   2.366
    2OCB    H43  191   1.779   0.080   2.679
    2OCB    H44  192   1.350   0.052   2.694
    2OCB    H45  193   2.037   1.238   2.410
    2OCB    H46  194   2.304   0.912   2.474
    2OCB    H47  195   1.250   1.145   2.306
    2OCB    H48  196   0.901   0.879   2.317
    2OCB    H49  197   1.990  -0.191   2.615
    2OCB    H50  198   2.282   0.119   2.575
    2OCB    H51  199   1.192  -0.180   2.641
    2OCB    H52  200   0.833   0.042   2.549
    2OCB    H53  201   1.297   0.208   2.350
    2OCB    H54  202   1.266   0.070   2.246
    2OCB    H55  203   1.152   0.199   2.245
    2OCB    H56  204   1.277   0.632   2.132
    2OCB    H57  205   1.420   0.721   2.204
    2OCB    H58  206   1.303   0.620   2.298
    2OCB    H59  207   1.948   0.819   2.142
    2OCB    H60  208   1.902   0.716   2.279
    2OCB    H61  209   1.805   0.855   2.229
    2OCB    H62  210   1.917   0.229   2.275
    2OCB    H63  211   1.789   0.123   2.304
    2OCB    H64  212   1.813   0.261   2.419
    3Na+    Na+  213   2.431   3.211   1.773
    4Na+    Na+  214   0.268   0.022   0.274
    5Na+    Na+  215   2.867   2.328   1.099
    6Na+    Na+  216   0.883   1.308   2.543
    7Na+    Na+  217   1.481   0.361   3.644
    8Na+    Na+  218   0.161   1.533   3.865
    9Na+    Na+  219   2.492   1.408   1.210
   10Na+    Na+  220   3.171   3.910   2.638
   11Na+    Na+  221   1.505   2.247   1.497
   12HOH      O  222   0.769   2.257   3.922
   12HOH     H1  223   0.819   2.298   3.853
   12HOH     H2  224   0.733   2.177   3.882
   13HOH      O  225   3.147   3.259   3.753
   13HOH     H1  226   3.176   3.349   3.770
   13HOH     H2  227   3.081   3.242   3.820
   14HOH      O  228   3.165   3.743   0.288
   14HOH     H1  229   3.251   3.714   0.257
   14HOH     H2  230   3.144   3.683   0.360
   15HOH      O  231   0.325   0.346   4.041
   15HOH     H1  232   0.230   0.345   4.030
   15HOH     H2  233   0.358   0.392   3.965
   16HOH      O  234   1.151   0.752   0.878
   16HOH     H1  235   1.108   0.667   0.875
   16HOH     H2  236   1.180   0.761   0.969
   17HOH      O  237   1.016   0.507   0.920
   17HOH     H1  238   0.922   0.506   0.899
   17HOH     H2  239   1.032   0.424   0.965
   18HOH      O  240   3.339   0.104   2.223
   18HOH     H1  241   3.317   0.092   2.131
   18HOH     H2  242   3.256   0.125   2.265
   19HOH      O  243   3.157   0.868   1.286
   19HOH     H1  244   3.174   0.909   1.371
   19HOH     H2  245   3.213   0.790   1.284
   20HOH      O  246   2.343   1.343   3.087
   20HOH     H1  247   2.419   1.298   3.123
   20HOH     H2  248   2.294   1.275   3.041
   21HOH      O  249   0.289   2.812   2.253
   21HOH     H1  250   0.322   2.730   2.216
   21HOH     H2  251   0.355   2.837   2.317
   22HOH      O  252   3.142   1.312   3.483
   22HOH     H1  253   3.132   1.330   3.390
   22HOH     H2  254   3.055   1.326   3.520
   23HOH      O  255   1.312   2.255   2.755
   23HOH     H1  256   1.407   2.262   2.753
   23HOH     H2  257   1.286   2.245   2.664
   24HOH      O  258   3.246   3.205   0.988
   24HOH     H1  259   3.292   3.286   0.970
   24HOH     H2  260   3.297   3.137   0.943
   25HOH      O  261   3.119   0.665   3.462
   25HOH     H1  262   3.027   0.681   3.442
   25HOH     H2  263   3.137   0.578   3.428
   26HOH      O  264   0.767   3.275   3.487
   26HOH     H1  265   0.705   3.232   3.428
   26HOH     H2  266   0.721   3.352   3.518
   27HOH      O  267   1.804   1.408   0.572
   27HOH     H1  268   1.893   1.417   0.538
   27HOH     H2  269   1.779   1.318   0.551
   28HOH      O  270   1.374   2.463   2.998
   28HOH     H1  271   1.317   2.488   3.071
   28HOH     H2  272   1.342   2.377   2.971
   29HOH      O  273   1.443   2.689   2.101
   29HOH     H1  274   1.485   2.763   2.144
   29HOH     H2  275   1.471   2.613   2.151
   30HOH      O  276   3.270   2.140   3.331
   30HOH     H1  277   3.214   2.082   3.279
   30HOH     H2  278   3.260   2.226   3.291
   31HOH      O  279   1.085   1.726   2.449
   31HOH     H1  280   1.164   1.682   2.419
   31HOH     H2  281   1.117   1.799   2.503
   32HOH      O  282   1.792   2.926   2.708
   32HOH     H1  283   1.802   2.867   2.783
   32HOH     H2  284   1.704   2.963   2.718
   33HOH      O  285   0.372   3.885   3.868
   33HOH     H1  286   0.390   3.978   3.859
   33HOH     H2  287   0.383   3.849   3.779
   34HOH      O  288   3.491   0.625   3.760
   34HOH     H1  289   3.400   0.641   3.734
   34HOH     H2  290   3.528   0.712   3.774
   35HOH      O  291   0.980   3.981   2.061
   35HOH     H1  292   0.895   3.986   2.018
   35HOH     H2  293   0.968   3.916   2.130
   36HOH      O  294   1.945   2.164   1.371
   36HOH     H1  295   2.037   2.140   1.374
   36HOH     H2  296   1.919   2.148   1.280
   37HOH      O  297   2.367   1.866   1.977
   37HOH     H1  298   2.318   1.832   2.051
   37HOH     H2  299   2.459   1.863   2.005
   38HOH      O  300   1.357   2.113   3.099
   38HOH     H1  301   1.348   2.178   3.169
   38HOH     H2  302   1.304   2.039   3.128
   39HOH      O  303   0.653   0.421   1.379
   39HOH     H1  304   0.690   0.494   1.428
   39HOH     H2  305   0.691   0.429   1.292
   40HOH      O  306   2.194   2.114   3.455
   40HOH     H1  307   2.272   2.105   3.510
   40HOH     H2  308   2.145   2.033   3.470
   41HOH      O  309   3.382   0.662   1.694
   41HOH     H1  310   3.325   0.585   1.695
   41HOH     H2  311   3.412   0.668   1.603
   42HOH      O  312   2.446   3.594   1.141
   42HOH     H1  313   2.385   3.666   1.127
   42HOH     H2  314   2.475   3.603   1.232
   43HOH      O  315   2.123   0.729   0.086
   43HOH     H1  316   2.138   0.740  -0.008
   43HOH     H2  317   2.183   0.792   0.127
   44HOH      O  318   2.029   1.888   3.503
   44HOH     H1  319   2.022   1.854   3.414
   44HOH     H2  320   2.091   1.829   3.547
   45HOH      O  321   2.018   0.229   3.501
   45HOH     H1  322   2.107   0.251   3.527
   45HOH     H2  323   1.994   0.156   3.559
   46HOH      O  324   3.818   2.295   1.911
   46HOH     H1  325   3.846   2.375   1.955
   46HOH     H2  326   3.847   2.225   1.969
   47HOH      O  327   2.639   2.055   0.783
   47HOH     H1  328   2.586   2.042   0.861
   47HOH     H2  329   2.577   2.083   0.716
   48HOH      O  330   0.052   1.325   1.764
   48HOH     H1  331   0.056   1.281   1.849
   48HOH     H2  332  -0.003   1.402   1.779
   49HOH      O  333   3.636   1.271   1.841
   49HOH     H1  334   3.694   1.296   1.913
   49HOH     H2  335   3.549   1.266   1.881
   50HOH      O  336   0.962   1.021   1.773
   50HOH     H1  337   0.928   0.969   1.845
   50HOH     H2  338   1.057   1.004   1.774
   51HOH      O  339   2.063   1.689   0.340
   51HOH     H1  340   1.978   1.712   0.301
   51HOH     H2  341   2.098   1.621   0.282
   52HOH      O  342   3.217   3.851   0.646
   52HOH     H1  343   3.210   3.940   0.611
   52HOH     H2  344   3.311   3.839   0.662
   53HOH      O  345   1.194   3.427   2.007
   53HOH     H1  346   1.149   3.469   2.081
   53HOH     H2  347   1.128   3.427   1.937
   54HOH      O  348   0.459   1.370   2.753
   54HOH     H1  349   0.396   1.298   2.744
   54HOH     H2  350   0.496   1.380   2.665
   55HOH      O  351   1.719   0.437   0.267
   55HOH     H1  352   1.677   0.495   0.330
   55HOH     H2  353   1.647   0.388   0.228
   56HOH      O  354   2.103   0.987   1.035
   56HOH     H1  355   2.093   1.080   1.053
   56HOH     H2  356   2.095   0.980   0.940
   57HOH      O  357   0.021   1.335   3.115
   57HOH     H1  358   0.047   1.425   3.132
   57HOH     H2  359   0.091   1.299   3.061
   58HOH      O  360   1.007   0.366   0.113
   58HOH     H1  361   0.933   0.307   0.128
   58HOH     H2  362   1.068   0.315   0.061
   59HOH      O  363   0.479   1.262   0.361
   59HOH     H1  364   0.417   1.290   0.294
   59HOH     H2  365   0.470   1.167   0.363
   60HOH      O  366   2.157   3.161   0.034
   60HOH     H1  367   2.193   3.249   0.049
   60HOH     H2  368   2.066   3.177   0.011
   61HOH      O  369   3.361   2.321   2.251
   61HOH     H1  370   3.361   2.411   2.282
   61HOH     H2  371   3.407   2.272   2.319
   62HOH      O  372   3.254   0.729   2.751
   62HOH     H1  373   3.218   0.702   2.835
   62HOH     H2  374   3.178   0.739   2.694
   63HOH      O  375   3.599   2.856   3.677
   63HOH     H1  376   3.682   2.841   3.633
   63HOH     H2  377   3.623   2.901   3.758
   64HOH      O  378   1.384   3.466   3.814
   64HOH     H1  379   1.309   3.419   3.850
   64HOH     H2  380   1.385   3.444   3.721
   65HOH      O  381   3.998   3.411   3.594
   65HOH     H1  382   3.975   3.327   3.554
   65HOH     H2  383   4.085   3.431   3.561
   66HOH      O  384   0.045   2.897   0.079
   66HOH     H1  385   0.065   2.804   0.077
   66HOH     H2  386  -0.021   2.907   0.148
   67HOH      O  387   0.111   2.048   1.816
   67HOH     H1  388   0.089   1.965   1.858
   67HOH     H2  389   0.130   2.108   1.889
   68HOH      O  390   0.115   3.296   3.804
   68HOH     H1  391   0.078   3.319   3.719
   68HOH     H2  392   0.186   3.359   3.817
   69HOH      O  393   1.644   0.283   3.778
   69HOH     H1  394   1.687   0.327   3.851
   69HOH     H2  395   1.704   0.212   3.753
   70HOH      O  396   0.917   0.979   3.714
   70HOH     H1  397   0.989   0.924   3.684
   70HOH     H2  398   0.880   0.931   3.789
   71HOH      O  399   3.380   3.628   2.923
   71HOH     H1  400   3.355   3.720   2.933
   71HOH     H2  401   3.368   3.590   3.010
   72HOH      O  402   3.779   0.993   3.748
   72HOH     H1  403   3.808   0.928   3.812
   72HOH     H2  404   3.695   0.959   3.716
   73HOH      O  405   0.541   1.691   3.828
   73HOH     H1  406   0.597   1.757   3.787
   73HOH     H2  407   0.589   1.609   3.819
   74HOH      O  408   2.676   1.435   0.146
   74HOH     H1  409   2.615   1.408   0.214
   74HOH     H2  410   2.682   1.530   0.156
   75HOH      O  411   0.962   3.478   1.300
   75HOH     H1  412   0.961   3.383   1.282
   75HOH     H2  413   0.943   3.518   1.215
   76HOH      O  414   2.236   3.383   0.343
   76HOH     H1  415   2.216   3.293   0.366
   76HOH     H2  416   2.155   3.416   0.303
   77HOH      O  417   1.985   3.709   3.868
   77HOH     H1  418   1.950   3.731   3.781
   77HOH     H2  419   1.954   3.779   3.925
   78HOH      O  420   0.476   2.158   1.030
   78HOH     H1  421   0.420   2.231   1.056
   78HOH     H2  422   0.500   2.178   0.939
   79HOH      O  423   1.688   0.044   1.197
   79HOH     H1  424   1.594   0.057   1.183
   79HOH     H2  425   1.724   0.132   1.203
   80HOH      O  426   2.852   3.643   3.702
   80HOH     H1  427   2.930   3.643   3.646
   80HOH     H2  428   2.865   3.718   3.760
   81HOH      O  429   0.616   3.420   2.060
   81HOH     H1  430   0.639   3.477   2.133
   81HOH     H2  431   0.695   3.367   2.045
   82HOH      O  432   1.059   2.190   1.374
   82HOH     H1  433   0.994   2.214   1.441
   82HOH     H2  434   1.008   2.144   1.308
   83HOH      O  435   0.495   2.502   2.493
   83HOH     H1  436   0.545   2.456   2.426
   83HOH     H2  437   0.517   2.594   2.481
   84HOH      O  438   3.783   1.859   0.994
   84HOH     H1  439   3.878   1.850   0.988
   84HOH     H2  440   3.754   1.860   0.903
   85HOH      O  441   0.345   0.986   2.405
   85HOH     H1  442   0.345   0.900   2.364
   85HOH     H2  443   0.433   1.020   2.390
   86HOH      O  444   0.723   3.205   4.042
   86HOH     H1  445   0.632   3.213   4.013
   86HOH     H2  446   0.769   3.275   3.996
   87HOH      O  447   3.530   1.616   2.316
   87HOH     H1  448   3.452   1.583   2.359
   87HOH     H2  449   3.590   1.542   2.314
   88HOH      O  450   0.195   1.294   0.220
   88HOH     H1  451   0.193   1.315   0.126
   88HOH     H2  452   0.128   1.350   0.258
   89HOH      O  453   1.952   2.867   1.515
   89HOH     H1  454   2.039   2.904   1.531
   89HOH     H2  455   1.920   2.914   1.438
   90HOH      O  456   3.033   2.686   1.408
   90HOH     H1  457   3.061   2.668   1.318
   90HOH     H2  458   2.950   2.733   1.398
   91HOH      O  459   2.430   1.185   1.098
   91HOH     H1  460   2.468   1.104   1.065
   91HOH     H2  461   2.396   1.230   1.020
   92HOH      O  462   2.776   2.642   3.403
   92HOH     H1  463   2.813   2.568   3.451
   92HOH     H2  464   2.724   2.689   3.468
   93HOH      O  465   0.252   3.146   1.756
   93HOH     H1  466   0.294   3.150   1.842
   93HOH     H2  467   0.290   3.219   1.707
   94HOH      O  468   1.032   2.090   0.451
   94HOH     H1  469   1.032   2.151   0.377
   94HOH     H2  470   0.992   2.011   0.416
   95HOH      O  471   2.304   1.898   1.709
   95HOH     H1  472   2.211   1.875   1.702
   95HOH     H2  473   2.321   1.898   1.803
   96HOH      O  474   3.611   1.246   2.552
   96HOH     H1  475   3.616   1.150   2.559
   96HOH     H2  476   3.657   1.278   2.630
   97HOH      O  477   3.346   0.758   3.043
   97HOH     H1  478   3.425   0.704   3.045
   97HOH     H2  479   3.375   0.844   3.074
   98HOH      O  480   2.878   0.496   3.959
   98HOH     H1  481   2.850   0.583   3.988
   98HOH     H2  482   2.974   0.500   3.962
   99HOH      O  483   1.702   0.921   1.977
   99HOH     H1  484   1.646   0.880   2.044
   99HOH     H2  485   1.783   0.870   1.979
  100HOH      O  486   3.443   0.783   1.047
  100HOH     H1  487   3.531   0.747   1.060
  100HOH     H2  488   3.457   0.877   1.037
  101HOH      O  489   1.228   2.980   1.363
  101HOH     H1  490   1.276   3.056   1.396
  101HOH     H2  491   1.138   2.994   1.393
  102HOH      O  492   1.118   2.995   0.194
  102HOH     H1  493   1.028   3.002   0.161
  102HOH     H2  494   1.108   2.963   0.284
  103HOH      O  495   2.676   2.043   2.171
  103HOH     H1  496   2.591   2.088   2.168
  103HOH     H2  497   2.656   1.952   2.150
  104HOH      O  498   3.027   0.706   2.467
  104HOH     H1  499   2.957   0.681   2.528
  104HOH     H2  500   2.985   0.769   2.408
  105HOH      O  501   1.641   1.608   0.390
  105HOH     H1  502   1.687   1.549   0.449
  105HOH     H2  503   1.550   1.578   0.392
  106HOH      O  504   0.390   0.462   3.787
  106HOH     H1  505   0.315   0.515   3.761
  106HOH     H2  506   0.443   0.455   3.708
  107HOH      O  507   0.417   2.890   1.956
  107HOH     H1  508   0.473   2.963   1.982
  107HOH     H2  509   0.354   2.881   2.028
  108HOH      O  510   3.408   2.082   2.431
  108HOH     H1  511   3.500   2.076   2.459
  108HOH     H2  512   3.373   1.995   2.450
  109HOH      O  513   3.075   0.940   2.198
  109HOH     H1  514   2.990   0.920   2.237
  109HOH     H2  515   3.068   1.031   2.171
  110HOH      O  516   3.755   1.225   1.261
  110HOH     H1  517   3.667   1.252   1.286
  110HOH     H2  518   3.809   1.246   1.338
  111HOH      O  519   1.162   2.494   2.168
  111HOH     H1  520   1.174   2.577   2.122
  111HOH     H2  521   1.204   2.508   2.253
  112HOH      O  522   3.140   0.979   3.306
  112HOH     H1  523   3.065   0.933   3.343
  112HOH     H2  524   3.116   0.993   3.214
  113HOH      O  525   0.182   0.801   0.382
  113HOH     H1  526   0.124   0.876   0.370
  113HOH     H2  527   0.207   0.776   0.293
  114HOH      O  528   1.066   3.616   3.583
  114HOH     H1  529   1.038   3.694   3.630
  114HOH     H2  530   1.035   3.543   3.637
  115HOH      O  531   3.521   1.591   3.607
  115HOH     H1  532   3.608   1.572   3.644
  115HOH     H2  533   3.473   1.634   3.677
  116HOH      O  534   0.247   3.519   3.216
  116HOH     H1  535   0.229   3.608   3.245
  116HOH     H2  536   0.337   3.523   3.183
  117HOH      O  537   1.735   2.704   2.534
  117HOH     H1  538   1.735   2.776   2.471
  117HOH     H2  539   1.771   2.742   2.614
  118HOH      O  540   0.338   1.604   3.993
  118HOH     H1  541   0.410   1.633   3.936
  118HOH     H2  542   0.382   1.559   4.065
  119HOH      O  543   1.673   3.703   1.624
  119HOH     H1  544   1.686   3.609   1.608
  119HOH     H2  545   1.758   3.734   1.654
  120HOH      O  546   4.030   2.841   3.788
  120HOH     H1  547   3.999   2.926   3.818
  120HOH     H2  548   3.952   2.785   3.789
  121HOH      O  549   2.485   2.074   1.732
  121HOH     H1  550   2.412   2.016   1.710
  121HOH     H2  551   2.529   2.030   1.805
  122HOH      O  552   2.892   2.847   2.229
  122HOH     H1  553   2.875   2.938   2.204
  122HOH     H2  554   2.887   2.799   2.146
  123HOH      O  555   0.313   2.823   0.988
  123HOH     H1  556   0.227   2.789   1.011
  123HOH     H2  557   0.299   2.916   0.972
  124HOH      O  558   0.707   1.768   1.844
  124HOH     H1  559   0.656   1.720   1.779
  124HOH     H2  560   0.643   1.825   1.888
  125HOH      O  561   0.780   2.047   2.156
  125HOH     H1  562   0.782   1.959   2.193
  125HOH     H2  563   0.841   2.097   2.209
  126HOH      O  564   3.462   1.935   3.356
  126HOH     H1  565   3.409   2.012   3.338
  126HOH     H2  566   3.400   1.863   3.362
  127HOH      O  567   3.040   3.132   2.918
  127HOH     H1  568   3.049   3.155   2.826
  127HOH     H2  569   2.958   3.174   2.945
  128HOH      O  570   1.050   0.412   1.579
  128HOH     H1  571   1.114   0.436   1.646
  128HOH     H2  572   1.078   0.459   1.501
  129HOH      O  573   2.561   2.627   1.145
  129HOH     H1  574   2.476   2.584   1.148
  129HOH     H2  575   2.544   2.711   1.104
  130HOH      O  576   0.252   1.387   3.723
  130HOH     H1  577   0.225   1.381   3.632
  130HOH     H2  578   0.348   1.385   3.720
  131HOH      O  579   3.228   0.716   3.740
  131HOH     H1  580   3.168   0.648   3.708
  131HOH     H2  581   3.178   0.797   3.731
  132HOH      O  582   3.139   0.487   0.010
  132HOH     H1  583   3.177   0.415  -0.042
  132HOH     H2  584   3.190   0.487   0.091
  133HOH      O  585   1.192   1.890   1.056
  133HOH     H1  586   1.178   1.884   0.962
  133HOH     H2  587   1.208   1.800   1.084
  134HOH      O  588   1.768   3.274   3.475
  134HOH     H1  589   1.732   3.228   3.399
  134HOH     H2  590   1.728   3.361   3.471
  135HOH      O  591   0.125   2.344   2.289
  135HOH     H1  592   0.193   2.323   2.353
  135HOH     H2  593   0.160   2.312   2.206
  136HOH      O  594   1.244   0.916   1.668
  136HOH     H1  595   1.225   0.954   1.582
  136HOH     H2  596   1.266   0.825   1.650
  137HOH      O  597   0.320   3.136   0.247
  137HOH     H1  598   0.285   3.175   0.167
  137HOH     H2  599   0.370   3.060   0.217
  138HOH      O  600   1.168   3.044   2.137
  138HOH     H1  601   1.212   3.028   2.220
  138HOH     H2  602   1.232   3.091   2.084
  139HOH      O  603   3.305   3.400   0.505
  139HOH     H1  604   3.295   3.314   0.546
  139HOH     H2  605   3.355   3.451   0.569
  140HOH      O  606   1.420   2.677   3.869
  140HOH     H1  607   1.384   2.761   3.898
  140HOH     H2  608   1.490   2.700   3.808
  141HOH      O  609   0.904   3.782   2.191
  141HOH     H1  610   0.856   3.733   2.258
  141HOH     H2  611   0.917   3.719   2.120
  142HOH      O  612   2.821   2.337   0.508
  142HOH     H1  613   2.765   2.393   0.455
  142HOH     H2  614   2.843   2.390   0.585
  143HOH      O  615   3.825   1.424   2.404
  143HOH     H1  616   3.753   1.363   2.416
  143HOH     H2  617   3.796   1.504   2.447
  144HOH      O  618   1.634   0.543   3.633
  144HOH     H1  619   1.639   0.602   3.709
  144HOH     H2  620   1.720   0.500   3.631
  145HOH      O  621   2.354   3.919   1.836
  145HOH     H1  622   2.286   3.953   1.894
  145HOH     H2  623   2.316   3.924   1.748
  146HOH      O  624   0.863   0.993   0.728
  146HOH     H1  625   0.852   0.917   0.785
  146HOH     H2  626   0.957   0.997   0.711
  147HOH      O  627   3.802   1.524   3.701
  147HOH     H1  628   3.864   1.557   3.637
  147HOH     H2  629   3.792   1.431   3.680
  148HOH      O  630   2.080   2.853   1.858
  148HOH     H1  631   2.167   2.876   1.826
  148HOH     H2  632   2.075   2.758   1.845
  149HOH      O  633   2.945   1.126   3.518
  149HOH     H1  634   2.919   1.035   3.502
  149HOH     H2  635   3.033   1.132   3.481
  150HOH      O  636   3.025   2.542   3.776
  150HOH     H1  637   3.104   2.595   3.790
  150HOH     H2  638   2.980   2.543   3.861
  151HOH      O  639   3.143   0.632   0.383
  151HOH     H1  640   3.125   0.710   0.331
  151HOH     H2  641   3.057   0.594   0.399
  152HOH      O  642   0.042   1.521   0.929
  152HOH     H1  643  -0.045   1.484   0.943
  152HOH     H2  644   0.029   1.616   0.928
  153HOH      O  645   0.332   0.618   3.433
  153HOH     H1  646   0.371   0.700   3.463
  153HOH     H2  647   0.396   0.551   3.457
  154HOH      O  648   2.736   3.226   3.640
  154HOH     H1  649   2.745   3.289   3.711
  154HOH     H2  650   2.643   3.224   3.620
  155HOH      O  651   3.212   1.899   0.091
  155HOH     H1  652   3.291   1.856   0.056
  155HOH     H2  653   3.176   1.947   0.016
  156HOH      O  654   3.693   1.512   3.112
  156HOH     H1  655   3.767   1.528   3.170
  156HOH     H2  656   3.644   1.441   3.154
  157HOH      O  657   3.270   0.102   3.630
  157HOH     H1  658   3.210   0.117   3.556
  157HOH     H2  659   3.332   0.175   3.624
  158HOH      O  660   0.537   4.003   2.467
  158HOH     H1  661   0.520   3.961   2.551
  158HOH     H2  662   0.485   4.084   2.469
  159HOH      O  663   0.655   0.594   0.195
  159HOH     H1  664   0.696   0.567   0.278
  159HOH     H2  665   0.703   0.545   0.128
  160HOH      O  666   2.359   2.836   2.870
  160HOH     H1  667   2.350   2.754   2.920
  160HOH     H2  668   2.295   2.828   2.800
  161HOH      O  669   0.646   2.712   3.270
  161HOH     H1  670   0.554   2.713   3.295
  161HOH     H2  671   0.651   2.770   3.194
  162HOH      O  672   0.854   2.535   3.247
  162HOH     H1  673   0.768   2.577   3.244
  162HOH     H2  674   0.916   2.606   3.232
  163HOH      O  675   0.386   0.785   0.980
  163HOH     H1  676   0.437   0.752   0.906
  163HOH     H2  677   0.304   0.736   0.976
  164HOH      O  678   3.636   1.208   0.622
  164HOH     H1  679   3.557   1.253   0.592
  164HOH     H2  680   3.659   1.252   0.703
  165HOH      O  681   2.813   0.497   3.587
  165HOH     H1  682   2.727   0.488   3.546
  165HOH     H2  683   2.821   0.590   3.606
  166HOH      O  684   2.678   3.939   0.269
  166HOH     H1  685   2.602   3.886   0.292
  166HOH     H2  686   2.750   3.876   0.262
  167HOH      O  687   0.153   1.177   2.444
  167HOH     H1  688   0.206   1.097   2.448
  167HOH     H2  689   0.065   1.148   2.465
  168HOH      O  690   1.224   1.861   2.681
  168HOH     H1  691   1.172   1.911   2.744
  168HOH     H2  692   1.276   1.802   2.735
  169HOH      O  693   3.359   0.636   2.203
  169HOH     H1  694   3.435   0.652   2.147
  169HOH     H2  695   3.375   0.690   2.281
  170HOH      O  696   3.616   2.592   1.090
  170HOH     H1  697   3.621   2.684   1.065
  170HOH     H2  698   3.635   2.591   1.184
  171HOH      O  699   1.877   1.759   1.006
  171HOH     H1  700   1.781   1.760   1.010
  171HOH     H2  701   1.900   1.669   1.029
  172HOH      O  702   2.121   0.684   1.110
  172HOH     H1  703   2.103   0.776   1.094
  172HOH     H2  704   2.162   0.652   1.029
  173HOH      O  705   3.526   2.629   3.060
  173HOH     H1  706   3.472   2.698   3.020
  173HOH     H2  707   3.467   2.586   3.122
  174HOH      O  708   2.841   3.500   3.378
  174HOH     H1  709   2.899   3.430   3.408
  174HOH     H2  710   2.787   3.458   3.310
  175HOH      O  711   2.500   3.691   3.071
  175HOH     H1  712   2.474   3.600   3.054
  175HOH     H2  713   2.583   3.701   3.024
  176HOH      O  714   3.509   2.316   1.399
  176HOH     H1  715   3.456   2.240   1.422
  176HOH     H2  716   3.558   2.335   1.479
  177HOH      O  717   3.178   1.270   1.527
  177HOH     H1  718   3.192   1.208   1.456
  177HOH     H2  719   3.111   1.330   1.493
  178HOH      O  720   2.432   2.253   3.966
  178HOH     H1  721   2.469   2.166   3.950
  178HOH     H2  722   2.338   2.242   3.952
  179HOH      O  723   0.612   1.630   2.254
  179HOH     H1  724   0.654   1.555   2.212
  179HOH     H2  725   0.682   1.692   2.270
  180HOH      O  726   0.915   0.572   1.836
  180HOH     H1  727   0.886   0.570   1.927
  180HOH     H2  728   1.007   0.546   1.840
  181HOH      O  729   1.119   0.256   3.490
  181HOH     H1  730   1.171   0.273   3.569
  181HOH     H2  731   1.153   0.318   3.425
  182HOH      O  732   1.231   0.959   3.888
  182HOH     H1  733   1.320   0.946   3.858
  182HOH     H2  734   1.196   1.028   3.831
  183HOH      O  735   0.875   2.159   0.687
  183HOH     H1  736   0.892   2.187   0.777
  183HOH     H2  737   0.962   2.142   0.650
  184HOH      O  738   2.491   3.049   0.633
  184HOH     H1  739   2.578   3.011   0.616
  184HOH     H2  740   2.447   3.048   0.548
  185HOH      O  741   1.338   0.410   3.811
  185HOH     H1  742   1.275   0.348   3.846
  185HOH     H2  743   1.321   0.491   3.859
  186HOH      O  744   2.822   0.187   3.108
  186HOH     H1  745   2.783   0.100   3.121
  186HOH     H2  746   2.796   0.236   3.186
  187HOH      O  747   2.687   1.802   3.718
  187HOH     H1  748   2.750   1.787   3.788
  187HOH     H2  749   2.606   1.763   3.751
  188HOH      O  750   3.470   0.646   1.945
  188HOH     H1  751   3.423   0.670   1.866
  188HOH     H2  752   3.543   0.708   1.950
  189HOH      O  753   3.024   0.466   0.787
  189HOH     H1  754   2.994   0.378   0.763
  189HOH     H2  755   3.119   0.460   0.787
  190HOH      O  756   2.635   1.280   2.494
  190HOH     H1  757   2.557   1.225   2.497
  190HOH     H2  758   2.636   1.326   2.577
  191HOH      O  759   3.040   4.000   1.205
  191HOH     H1  760   3.050   3.951   1.123
  191HOH     H2  761   2.948   3.990   1.228
  192HOH      O  762   1.136   2.517   3.836
  192HOH     H1  763   1.094   2.597   3.867
  192HOH     H2  764   1.185   2.485   3.912
  193HOH      O  765   3.497   3.911   0.704
  193HOH     H1  766   3.527   3.988   0.751
  193HOH     H2  767   3.552   3.840   0.736
  194HOH      O  768   3.700   3.829   0.142
  194HOH     H1  769   3.670   3.873   0.222
  194HOH     H2  770   3.623   3.783   0.109
  195HOH      O  771   2.537   2.442   2.213
  195HOH     H1  772   2.605   2.393   2.259
  195HOH     H2  773   2.585   2.492   2.147
  196HOH      O  774   0.145   3.028   0.434
  196HOH     H1  775   0.167   3.058   0.522
  196HOH     H2  776   0.223   3.047   0.382
  197HOH      O  777   0.048   1.192   0.980
  197HOH     H1  778   0.130   1.163   0.939
  197HOH     H2  779   0.075   1.233   1.062
  198HOH      O  780   2.373   0.188   0.153
  198HOH     H1  781   2.321   0.177   0.073
  198HOH     H2  782   2.314   0.229   0.215
  199HOH      O  783   0.946   1.258   1.620
  199HOH     H1  784   0.954   1.171   1.659
  199HOH     H2  785   0.857   1.285   1.639
  200HOH      O  786   2.953   0.049   0.335
  200HOH     H1  787   2.951   0.113   0.264
  200HOH     H2  788   2.904   0.091   0.406
  201HOH      O  789   1.259   2.182   2.111
  201HOH     H1  790   1.193   2.115   2.092
  201HOH     H2  791   1.209   2.264   2.114
  202HOH      O  792   1.687   2.565   0.408
  202HOH     H1  793   1.735   2.539   0.486
  202HOH     H2  794   1.618   2.623   0.441
  203HOH      O  795   3.845   3.277   2.999
  203HOH     H1  796   3.912   3.307   2.937
  203HOH     H2  797   3.894   3.227   3.065
  204HOH      O  798   3.889   1.274   0.759
  204HOH     H1  799   3.861   1.361   0.730
  204HOH     H2  800   3.941   1.290   0.838
  205HOH      O  801   2.118   0.335   3.192
  205HOH     H1  802   2.045   0.279   3.163
  205HOH     H2  803   2.169   0.279   3.251
  206HOH      O  804   2.568   3.787   0.546
  206HOH     H1  805   2.515   3.777   0.626
  206HOH     H2  806   2.503   3.800   0.477
  207HOH      O  807   2.523   2.017   3.844
  207HOH     H1  808   2.437   2.050   3.820
  207HOH     H2  809   2.539   1.944   3.785
  208HOH      O  810   2.624   3.253   2.535
  208HOH     H1  811   2.541   3.297   2.555
  208HOH     H2  812   2.667   3.246   2.620
  209HOH      O  813   2.049   1.834   2.175
  209HOH     H1  814   1.997   1.861   2.099
  209HOH     H2  815   1.984   1.819   2.244
  210HOH      O  816   1.455   1.815   2.034
  210HOH     H1  817   1.371   1.780   2.003
  210HOH     H2  818   1.471   1.769   2.117
  211HOH      O  819   3.158   0.998   2.818
  211HOH     H1  820   3.190   0.915   2.855
  211HOH     H2  821   3.202   1.066   2.869
  212HOH      O  822   0.748   3.267   3.041
  212HOH     H1  823   0.763   3.361   3.036
  212HOH     H2  824   0.835   3.229   3.051
  213HOH      O  825   0.570   3.719   1.946
  213HOH     H1  826   0.578   3.628   1.919
  213HOH     H2  827   0.482   3.726   1.983
  214HOH      O  828   2.666   0.643   0.523
  214HOH     H1  829   2.682   0.679   0.435
  214HOH     H2  830   2.595   0.580   0.511
  215HOH      O  831   3.053   2.102   3.966
  215HOH     H1  832   2.981   2.117   3.905
  215HOH     H2  833   3.110   2.178   3.955
  216HOH      O  834   3.793   0.023   3.269
  216HOH     H1  835   3.705   0.057   3.256
  216HOH     H2  836   3.789  -0.067   3.237
  217HOH      O  837   0.268   1.418   1.029
  217HOH     H1  838   0.338   1.459   0.979
  217HOH     H2  839   0.188   1.461   0.999
  218HOH      O  840   3.359   0.468   3.562
  218HOH     H1  841   3.387   0.468   3.470
  218HOH     H2  842   3.439   0.449   3.611
  219HOH      O  843   1.770   3.618   0.445
  219HOH     H1  844   1.693   3.607   0.500
  219HOH     H2  845   1.843   3.622   0.506
  220HOH      O  846   2.367   2.059   0.690
  220HOH     H1  847   2.306   2.064   0.763
  220HOH     H2  848   2.385   2.150   0.666
  221HOH      O  849   1.776   2.491   2.228
  221HOH     H1  850   1.710   2.490   2.297
  221HOH     H2  851   1.858   2.506   2.273
  222HOH      O  852   0.956   2.631   0.752
  222HOH     H1  853   0.875   2.607   0.798
  222HOH     H2  854   0.927   2.691   0.683
  223HOH      O  855   1.532   0.190   1.630
  223HOH     H1  856   1.476   0.237   1.691
  223HOH     H2  857   1.514   0.231   1.545
  224HOH      O  858   2.983   2.126   0.613
  224HOH     H1  859   2.921   2.090   0.549
  224HOH     H2  860   2.954   2.217   0.624
  225HOH      O  861   3.094   3.025   1.383
  225HOH     H1  862   3.006   3.063   1.377
  225HOH     H2  863   3.152   3.095   1.355
  226HOH      O  864   3.820   0.898   1.291
  226HOH     H1  865   3.738   0.943   1.312
  226HOH     H2  866   3.884   0.938   1.350
  227HOH      O  867   3.692   1.101   0.353
  227HOH     H1  868   3.695   1.080   0.447
  227HOH     H2  869   3.664   1.019   0.312
  228HOH      O  870   0.501   0.653   0.770
  228HOH     H1  871   0.415   0.631   0.733
  228HOH     H2  872   0.546   0.700   0.700
  229HOH      O  873   1.148   2.840   2.700
  229HOH     H1  874   1.181   2.906   2.762
  229HOH     H2  875   1.095   2.890   2.638
  230HOH      O  876   2.653   0.867   3.878
  230HOH     H1  877   2.688   0.856   3.966
  230HOH     H2  878   2.605   0.785   3.861
  231HOH      O  879   2.973   1.309   3.141
  231HOH     H1  880   2.890   1.288   3.098
  231HOH     H2  881   2.995   1.396   3.109
  232HOH      O  882   3.920   2.995   0.307
  232HOH     H1  883   3.850   3.016   0.369
  232HOH     H2  884   3.995   2.975   0.362
  233HOH      O  885   2.425   1.257   3.666
  233HOH     H1  886   2.354   1.231   3.607
  233HOH     H2  887   2.381   1.288   3.745
  234HOH      O  888   3.270   0.233   3.006
  234HOH     H1  889   3.248   0.303   2.944
  234HOH     H2  890   3.227   0.155   2.970
  235HOH      O  891   2.152   3.570   2.547
  235HOH     H1  892   2.170   3.637   2.613
  235HOH     H2  893   2.057   3.557   2.552
  236HOH      O  894   3.478   0.219   1.356
  236HOH     H1  895   3.437   0.249   1.275
  236HOH     H2  896   3.406   0.212   1.418
  237HOH      O  897   2.783   1.887   1.079
  237HOH     H1  898   2.828   1.925   1.004
  237HOH     H2  899   2.705   1.942   1.090
  238HOH      O  900   2.485   0.700   0.740
  238HOH     H1  901   2.579   0.690   0.726
  238HOH     H2  902   2.461   0.624   0.794
  239HOH      O  903   1.409   1.998   0.827
  239HOH     H1  904   1.486   1.942   0.821
  239HOH     H2  905   1.385   2.017   0.737
  240HOH      O  906   3.710   3.372   3.382
  240HOH     H1  907   3.758   3.355   3.463
  240HOH     H2  908   3.622   3.338   3.400
  241HOH      O  909   3.017   2.908   0.272
  241HOH     H1  910   3.074   2.831   0.261
  241HOH     H2  911   3.041   2.942   0.359
  242HOH      O  912   0.183   3.377   2.968
  242HOH     H1  913   0.170   3.305   3.029
  242HOH     H2  914   0.197   3.453   3.025
  243HOH      O  915   2.461   1.668   3.794
  243HOH     H1  916   2.370   1.694   3.809
  243HOH     H2  917   2.466   1.578   3.826
  244HOH      O  918   0.634   0.666   3.121
  244HOH     H1  919   0.632   0.652   3.216
  244HOH     H2  920   0.720   0.704   3.104
  245HOH      O  921   0.438   2.017   2.882
  245HOH     H1  922   0.392   2.064   2.952
  245HOH     H2  923   0.529   2.013   2.911
  246HOH      O  924   3.227   2.100   2.874
  246HOH     H1  925   3.280   2.150   2.935
  246HOH     H2  926   3.243   2.141   2.789
  247HOH      O  927   3.161   3.439   3.069
  247HOH     H1  928   3.251   3.409   3.081
  247HOH     H2  929   3.107   3.361   3.083
  248HOH      O  930   2.167   3.653   0.025
  248HOH     H1  931   2.116   3.586   0.071
  248HOH     H2  932   2.120   3.668  -0.056
  249HOH      O  933   2.764   1.980   3.221
  249HOH     H1  934   2.773   2.075   3.215
  249HOH     H2  935   2.688   1.959   3.166
  250HOH      O  936   1.009   3.427   0.895
  250HOH     H1  937   1.069   3.491   0.855
  250HOH     H2  938   1.031   3.344   0.853
  251HOH      O  939   2.608   2.585   2.990
  251HOH     H1  940   2.653   2.503   2.969
  251HOH     H2  941   2.521   2.558   3.020
  252HOH      O  942   1.510   1.662   3.448
  252HOH     H1  943   1.471   1.632   3.366
  252HOH     H2  944   1.600   1.685   3.425
  253HOH      O  945   3.707   2.880   1.687
  253HOH     H1  946   3.630   2.904   1.636
  253HOH     H2  947   3.692   2.919   1.773
  254HOH      O  948   0.289   1.546   2.936
  254HOH     H1  949   0.212   1.552   2.879
  254HOH     H2  950   0.293   1.453   2.960
  255HOH      O  951  -0.000   0.558   0.420
  255HOH     H1  952  -0.063   0.608   0.473
  255HOH     H2  953   0.071   0.620   0.402
  256HOH      O  954   0.452   0.147   0.244
  256HOH     H1  955   0.426   0.211   0.178
  256HOH     H2  956   0.548   0.144   0.238
  257HOH      O  957   2.064   1.088   3.935
  257HOH     H1  958   2.055   1.002   3.975
  257HOH     H2  959   2.045   1.075   3.842
  258HOH      O  960   0.365   3.361   1.580
  258HOH     H1  961   0.421   3.354   1.503
  258HOH     H2  962   0.414   3.418   1.640
  259HOH      O  963   1.179   2.527   3.200
  259HOH     H1  964   1.144   2.455   3.253
  259HOH     H2  965   1.238   2.573   3.259
  260HOH      O  966   1.809   2.837   3.611
  260HOH     H1  967   1.776   2.783   3.539
  260HOH     H2  968   1.904   2.833   3.603
  261HOH      O  969   3.527   0.980   1.422
  261HOH     H1  970   3.493   0.989   1.511
  261HOH     H2  971   3.499   1.060   1.378
  262HOH      O  972   0.801   0.999   1.383
  262HOH     H1  973   0.709   0.972   1.377
  262HOH     H2  974   0.843   0.929   1.433
  263HOH      O  975   0.487   0.825   3.469
  263HOH     H1  976   0.537   0.863   3.396
  263HOH     H2  977   0.445   0.900   3.511
  264HOH      O  978   1.559   2.275   3.543
  264HOH     H1  979   1.608   2.201   3.578
  264HOH     H2  980   1.539   2.329   3.619
  265HOH      O  981   1.357   2.558   1.859
  265HOH     H1  982   1.388   2.469   1.876
  265HOH     H2  983   1.381   2.607   1.938
  266HOH      O  984   3.216   0.512   2.509
  266HOH     H1  985   3.312   0.515   2.501
  266HOH     H2  986   3.184   0.582   2.453
  267HOH      O  987   3.869   3.619   0.082
  267HOH     H1  988   3.832   3.697   0.124
  267HOH     H2  989   3.956   3.647   0.052
  268HOH      O  990   1.523   2.485   0.088
  268HOH     H1  991   1.599   2.502   0.033
  268HOH     H2  992   1.541   2.402   0.131
  269HOH      O  993   3.987   1.551   3.970
  269HOH     H1  994   3.987   1.516   4.059
  269HOH     H2  995   3.899   1.535   3.937
  270HOH      O  996   2.803   0.168   1.872
  270HOH     H1  997   2.726   0.111   1.863
  270HOH     H2  998   2.813   0.208   1.786
  271HOH      O  999   3.381   3.443   0.968
  271HOH     H1 1000   3.467   3.414   0.937
  271HOH     H2 1001   3.381   3.538   0.953
  272HOH      O 1002   3.060   0.076   2.601
  272HOH     H1 1003   2.987   0.135   2.622
  272HOH     H2 1004   3.114   0.126   2.540
  273HOH      O 1005   1.990   3.854   0.760
  273HOH     H1 1006   1.968   3.946   0.744
  273HOH     H2 1007   2.014   3.850   0.852
  274HOH      O 1008   0.748   3.802   1.530
  274HOH     H1 1009   0.827   3.849   1.554
  274HOH     H2 1010   0.678   3.866   1.540
  275HOH      O 1011   2.141   2.135   2.127
  275HOH     H1 1012   2.198   2.180   2.065
  275HOH     H2 1013   2.070   2.100   2.073
  276HOH      O 1014   2.813   2.250   0.878
  276HOH     H1 1015   2.852   2.323   0.831
  276HOH     H2 1016   2.774   2.196   0.809
  277HOH      O 1017   2.182   0.141   1.076
  277HOH     H1 1018   2.223   0.066   1.034
  277HOH     H2 1019   2.091   0.138   1.047
  278HOH      O 1020   1.725   2.714   3.351
  278HOH     H1 1021   1.797   2.712   3.288
  278HOH     H2 1022   1.684   2.628   3.344
  279HOH      O 1023   2.237   3.894   0.153
  279HOH     H1 1024   2.187   3.822   0.114
  279HOH     H2 1025   2.179   3.928   0.221
  280HOH      O 1026   3.641   0.775   2.928
  280HOH     H1 1027   3.578   0.827   2.879
  280HOH     H2 1028   3.721   0.778   2.876
  281HOH      O 1029   1.333   1.429   1.784
  281HOH     H1 1030   1.301   1.393   1.701
  281HOH     H2 1031   1.273   1.394   1.850
  282HOH      O 1032   2.786   2.983   3.495
  282HOH     H1 1033   2.792   3.070   3.533
  282HOH     H2 1034   2.832   2.926   3.557
  283HOH      O 1035   3.598   0.870   0.256
  283HOH     H1 1036   3.526   0.858   0.195
  283HOH     H2 1037   3.563   0.846   0.342
  284HOH      O 1038   0.934   2.927   1.356
  284HOH     H1 1039   0.879   2.851   1.379
  284HOH     H2 1040   0.929   2.932   1.261
  285HOH      O 1041   1.889   2.895   0.841
  285HOH     H1 1042   1.807   2.922   0.881
  285HOH     H2 1043   1.920   2.823   0.896
  286HOH      O 1044   3.315   2.341   0.746
  286HOH     H1 1045   3.312   2.253   0.710
  286HOH     H2 1046   3.408   2.355   0.766
  287HOH      O 1047   0.748   3.816   2.989
  287HOH     H1 1048   0.776   3.845   2.902
  287HOH     H2 1049   0.665   3.860   3.003
  288HOH      O 1050   0.370   0.174   2.435
  288HOH     H1 1051   0.390   0.255   2.483
  288HOH     H2 1052   0.298   0.134   2.485
  289HOH      O 1053   3.917   0.640   3.645
  289HOH     H1 1054   3.854   0.684   3.588
  289HOH     H2 1055   3.984   0.607   3.585
  290HOH      O 1056   0.190   2.496   3.576
  290HOH     H1 1057   0.200   2.404   3.600
  290HOH     H2 1058   0.152   2.537   3.653
  291HOH      O 1059   2.692   3.459   1.242
  291HOH     H1 1060   2.648   3.515   1.178
  291HOH     H2 1061   2.762   3.416   1.192
  292HOH      O 1062   1.603   2.465   3.311
  292HOH     H1 1063   1.572   2.423   3.231
  292HOH     H2 1064   1.586   2.400   3.379
  293HOH      O 1065   3.391   0.006   3.296
  293HOH     H1 1066   3.360   0.095   3.310
  293HOH     H2 1067   3.412  -0.026   3.384
  294HOH      O 1068   0.157   3.492   0.133
  294HOH     H1 1069   0.099   3.418   0.115
  294HOH     H2 1070   0.106   3.569   0.108
  295HOH      O 1071   0.857   3.288   0.359
  295HOH     H1 1072   0.852   3.193   0.364
  295HOH     H2 1073   0.766   3.317   0.353
  296HOH      O 1074   3.991   3.131   2.508
  296HOH     H1 1075   3.974   3.038   2.496
  296HOH     H2 1076   3.906   3.173   2.492
  297HOH      O 1077   2.297   1.953   2.300
  297HOH     H1 1078   2.345   2.024   2.257
  297HOH     H2 1079   2.213   1.950   2.254
  298HOH      O 1080   1.010   1.031   4.037
  298HOH     H1 1081   0.954   0.956   4.014
  298HOH     H2 1082   1.092   1.013   3.992
  299HOH      O 1083   3.300   2.164   1.476
  299HOH     H1 1084   3.262   2.080   1.453
  299HOH     H2 1085   3.312   2.161   1.570
  300HOH      O 1086   1.168   2.503   2.444
  300HOH     H1 1087   1.078   2.522   2.469
  300HOH     H2 1088   1.216   2.583   2.466
  301HOH      O 1089   0.112   1.032  -0.002
  301HOH     H1 1090   0.181   1.015   0.063
  301HOH     H2 1091   0.049   0.962   0.011
  302HOH      O 1092   1.940   2.733   1.133
  302HOH     H1 1093   1.848   2.710   1.116
  302HOH     H2 1094   1.987   2.703   1.055
  303HOH      O 1095   1.163   3.521   2.284
  303HOH     H1 1096   1.169   3.507   2.379
  303HOH     H2 1097   1.235   3.581   2.264
  304HOH      O 1098   1.818   3.301   1.881
  304HOH     H1 1099   1.805   3.212   1.849
  304HOH     H2 1100   1.886   3.294   1.947
  305HOH      O 1101   0.889   1.260   1.329
  305HOH     H1 1102   0.804   1.291   1.362
  305HOH     H2 1103   0.892   1.168   1.355
  306HOH      O 1104   2.453   3.649   2.709
  306HOH     H1 1105   2.387   3.719   2.709
  306HOH     H2 1106   2.478   3.641   2.801
  307HOH      O 1107   1.809   2.323   2.608
  307HOH     H1 1108   1.840   2.414   2.611
  307HOH     H2 1109   1.889   2.270   2.611
  308HOH      O 1110   0.488   3.297   0.944
  308HOH     H1 1111   0.468   3.376   0.893
  308HOH     H2 1112   0.584   3.291   0.942
  309HOH      O 1113   3.649   3.597   1.526
  309HOH     H1 1114   3.634   3.537   1.452
  309HOH     H2 1115   3.562   3.615   1.560
  310HOH      O 1116   3.583   0.209   3.205
  310HOH     H1 1117   3.501   0.248   3.237
  310HOH     H2 1118   3.581   0.226   3.111
  311HOH      O 1119   2.798   1.626   2.648
  311HOH     H1 1120   2.743   1.561   2.690
  311HOH     H2 1121   2.885   1.612   2.687
  312HOH      O 1122   0.184   2.360   1.896
  312HOH     H1 1123   0.235   2.382   1.818
  312HOH     H2 1124   0.107   2.417   1.890
  313HOH      O 1125   1.782   0.836   0.865
  313HOH     H1 1126   1.834   0.913   0.886
  313HOH     H2 1127   1.722   0.826   0.938
  314HOH      O 1128   3.696   1.673   2.888
  314HOH     H1 1129   3.709   1.604   2.954
  314HOH     H2 1130   3.745   1.747   2.922
  315HOH      O 1131   2.268   0.889   2.041
  315HOH     H1 1132   2.237   0.968   1.996
  315HOH     H2 1133   2.230   0.895   2.129
  316HOH      O 1134   2.450   2.583   1.926
  316HOH     H1 1135   2.503   2.513   1.889
  316HOH     H2 1136   2.365   2.575   1.883
  317HOH      O 1137   2.928   2.940   3.917
  317HOH     H1 1138   2.922   3.035   3.925
  317HOH     H2 1139   3.016   2.918   3.948
  318HOH      O 1140   1.924   0.154   1.016
  318HOH     H1 1141   1.875   0.074   0.995
  318HOH     H2 1142   1.868   0.201   1.078
  319HOH      O 1143   0.920   1.621   1.903
  319HOH     H1 1144   0.972   1.613   1.824
  319HOH     H2 1145   0.846   1.677   1.878
  320HOH      O 1146   2.374   1.484   2.663
  320HOH     H1 1147   2.364   1.412   2.601
  320HOH     H2 1148   2.291   1.486   2.710
  321HOH      O 1149   1.632   3.680   0.889
  321HOH     H1 1150   1.548   3.668   0.933
  321HOH     H2 1151   1.609   3.691   0.796
  322HOH      O 1152   2.646   1.543   2.060
  322HOH     H1 1153   2.599   1.497   2.130
  322HOH     H2 1154   2.738   1.525   2.078
  323HOH      O 1155   3.943   3.636   1.725
  323HOH     H1 1156   3.976   3.553   1.757
  323HOH     H2 1157   4.004   3.662   1.656
  324HOH      O 1158   3.454   3.550   3.184
  324HOH     H1 1159   3.451   3.454   3.176
  324HOH     H2 1160   3.452   3.566   3.278
  325HOH      O 1161   2.964   0.171   0.854
  325HOH     H1 1162   3.052   0.181   0.819
  325HOH     H2 1163   2.955   0.078   0.874
  326HOH      O 1164   1.616   3.375   3.874
  326HOH     H1 1165   1.658   3.402   3.793
  326HOH     H2 1166   1.527   3.411   3.868
  327HOH      O 1167   0.819   2.550   0.258
  327HOH     H1 1168   0.754   2.555   0.189
  327HOH     H2 1169   0.898   2.589   0.220
  328HOH      O 1170   0.317   0.376   2.658
  328HOH     H1 1171   0.378   0.419   2.718
  328HOH     H2 1172   0.236   0.366   2.709
  329HOH      O 1173   3.466   0.319   2.318
  329HOH     H1 1174   3.390   0.371   2.345
  329HOH     H2 1175   3.431   0.232   2.302
  330HOH      O 1176   2.146   1.047   1.825
  330HOH     H1 1177   2.152   1.140   1.804
  330HOH     H2 1178   2.175   1.002   1.746
  331HOH      O 1179   2.219   1.160   2.133
  331HOH     H1 1180   2.182   1.204   2.057
  331HOH     H2 1181   2.169   1.193   2.207
  332HOH      O 1182   0.581   1.157   2.370
  332HOH     H1 1183   0.676   1.153   2.383
  332HOH     H2 1184   0.569   1.229   2.308
  333HOH      O 1185   1.793   3.520   3.678
  333HOH     H1 1186   1.740   3.534   3.599
  333HOH     H2 1187   1.883   3.526   3.648
  334HOH      O 1188   1.324   3.712   1.635
  334HOH     H1 1189   1.407   3.670   1.610
  334HOH     H2 1190   1.305   3.771   1.562
  335HOH      O 1191   3.705   3.009   3.878
  335HOH     H1 1192   3.796   3.024   3.852
  335HOH     H2 1193   3.668   3.096   3.887
  336HOH      O 1194   1.958   3.154   2.066
  336HOH     H1 1195   1.979   3.171   2.158
  336HOH     H2 1196   1.996   3.068   2.048
  337HOH      O 1197   3.603   2.323   3.265
  337HOH     H1 1198   3.672   2.257   3.260
  337HOH     H2 1199   3.534   2.290   3.208
  338HOH      O 1200   0.596   2.116   2.434
  338HOH     H1 1201   0.546   2.063   2.497
  338HOH     H2 1202   0.672   2.146   2.484
  339HOH      O 1203   2.235   3.179   1.620
  339HOH     H1 1204   2.156   3.226   1.594
  339HOH     H2 1205   2.240   3.105   1.560
  340HOH      O 1206   0.352   2.130   0.096
  340HOH     H1 1207   0.329   2.039   0.117
  340HOH     H2 1208   0.351   2.175   0.180
  341HOH      O 1209   2.100   1.515   2.637
  341HOH     H1 1210   2.117   1.423   2.618
  341HOH     H2 1211   2.039   1.543   2.568
  342HOH      O 1212   1.481   3.488   1.961
  342HOH     H1 1213   1.386   3.483   1.974
  342HOH     H2 1214   1.499   3.581   1.951
  343HOH      O 1215   2.069   3.222   0.828
  343HOH     H1 1216   2.006   3.234   0.756
  343HOH     H2 1217   2.131   3.294   0.817
  344HOH      O 1218   3.434   3.576   0.665
  344HOH     H1 1219   3.483   3.614   0.593
  344HOH     H2 1220   3.500   3.533   0.719
  345HOH      O 1221   2.293   0.577   2.034
  345HOH     H1 1222   2.225   0.644   2.039
  345HOH     H2 1223   2.297   0.553   1.942
  346HOH      O 1224   2.254   2.107   0.963
  346HOH     H1 1225   2.167   2.066   0.972
  346HOH     H2 1226   2.258   2.169   1.036
  347HOH      O 1227   1.354   1.277   1.245
  347HOH     H1 1228   1.265   1.265   1.211
  347HOH     H2 1229   1.344   1.340   1.316
  348HOH      O 1230   1.313   3.006   3.109
  348HOH     H1 1231   1.380   2.974   3.170
  348HOH     H2 1232   1.230   2.978   3.148
  349HOH      O 1233   1.787   2.687   2.018
  349HOH     H1 1234   1.769   2.617   2.081
  349HOH     H2 1235   1.875   2.717   2.040
  350HOH      O 1236   3.698   3.983   3.736
  350HOH     H1 1237   3.675   4.025   3.819
  350HOH     H2 1238   3.769   3.923   3.758
  351HOH      O 1239   0.873   1.154   2.930
  351HOH     H1 1240   0.922   1.121   3.005
  351HOH     H2 1241   0.783   1.159   2.961
  352HOH      O 1242   3.079   2.844   3.015
  352HOH     H1 1243   3.035   2.814   3.095
  352HOH     H2 1244   3.048   2.934   3.004
  353HOH      O 1245   2.895   0.279   2.665
  353HOH     H1 1246   2.842   0.299   2.588
  353HOH     H2 1247   2.834   0.289   2.738
  354HOH      O 1248   0.893   1.504   2.434
  354HOH     H1 1249   0.968   1.562   2.442
  354HOH     H2 1250   0.838   1.545   2.367
  355HOH      O 1251   0.993   3.403   1.819
  355HOH     H1 1252   0.950   3.327   1.859
  355HOH     H2 1253   0.922   3.463   1.798
  356HOH      O 1254   0.509   1.887   3.348
  356HOH     H1 1255   0.593   1.888   3.302
  356HOH     H2 1256   0.512   1.963   3.406
  357HOH      O 1257   3.263   3.890   1.803
  357HOH     H1 1258   3.304   3.934   1.729
  357HOH     H2 1259   3.259   3.957   1.871
  358HOH      O 1260   3.569   2.812   0.319
  358HOH     H1 1261   3.489   2.837   0.365
  358HOH     H2 1262   3.559   2.849   0.231
  359HOH      O 1263   1.922   1.135   3.359
  359HOH     H1 1264   1.914   1.048   3.398
  359HOH     H2 1265   1.848   1.184   3.395
  360HOH      O 1266   3.966   3.906   1.498
  360HOH     H1 1267   4.037   3.962   1.467
  360HOH     H2 1268   3.943   3.941   1.584
  361HOH      O 1269   3.552   2.554   3.409
  361HOH     H1 1270   3.557   2.469   3.365
  361HOH     H2 1271   3.462   2.560   3.440
  362HOH      O 1272   3.803   0.330   0.836
  362HOH     H1 1273   3.896   0.345   0.819
  362HOH     H2 1274   3.789   0.365   0.924
  363HOH      O 1275   2.235   0.531   3.053
  363HOH     H1 1276   2.203   0.479   3.126
  363HOH     H2 1277   2.177   0.509   2.980
  364HOH      O 1278   1.097   1.618   1.281
  364HOH     H1 1279   1.042   1.591   1.354
  364HOH     H2 1280   1.034   1.646   1.214
  365HOH      O 1281   2.604   1.496   1.773
  365HOH     H1 1282   2.643   1.509   1.859
  365HOH     H2 1283   2.552   1.416   1.782
  366HOH      O 1284   2.914   1.558   0.911
  366HOH     H1 1285   2.947   1.546   0.822
  366HOH     H2 1286   2.987   1.532   0.968
  367HOH      O 1287   2.216   2.785   2.267
  367HOH     H1 1288   2.238   2.698   2.235
  367HOH     H2 1289   2.266   2.844   2.211
  368HOH      O 1290   3.729   0.721   1.608
  368HOH     H1 1291   3.670   0.708   1.533
  368HOH     H2 1292   3.684   0.680   1.681
  369HOH      O 1293   1.526   2.942   2.772
  369HOH     H1 1294   1.447   2.994   2.785
  369HOH     H2 1295   1.516   2.868   2.831
  370HOH      O 1296   0.492   2.616   3.896
  370HOH     H1 1297   0.535   2.665   3.826
  370HOH     H2 1298   0.407   2.658   3.905
  371HOH      O 1299   0.253   0.792   2.865
  371HOH     H1 1300   0.268   0.700   2.842
  371HOH     H2 1301   0.340   0.823   2.893
  372HOH      O 1302   1.741   2.053   1.120
  372HOH     H1 1303   1.670   2.054   1.185
  372HOH     H2 1304   1.740   1.964   1.085
  373HOH      O 1305   0.981   1.909   3.925
  373HOH     H1 1306   0.892   1.883   3.899
  373HOH     H2 1307   1.029   1.912   3.843
  374HOH      O 1308   0.139   0.182   1.152
  374HOH     H1 1309   0.128   0.087   1.144
  374HOH     H2 1310   0.059   0.212   1.195
  375HOH      O 1311   1.215   1.301   1.574
  375HOH     H1 1312   1.231   1.244   1.500
  375HOH     H2 1313   1.122   1.292   1.592
  376HOH      O 1314   3.677   2.496   0.320
  376HOH     H1 1315   3.634   2.430   0.266
  376HOH     H2 1316   3.735   2.446   0.377
  377HOH      O 1317   2.937   0.075   1.519
  377HOH     H1 1318   2.849   0.058   1.487
  377HOH     H2 1319   2.979  -0.011   1.522
  378HOH      O 1320   1.741   2.129   2.413
  378HOH     H1 1321   1.675   2.198   2.404
  378HOH     H2 1322   1.815   2.173   2.455
  379HOH      O 1323   3.819   0.405   1.690
  379HOH     H1 1324   3.902   0.374   1.653
  379HOH     H2 1325   3.761   0.413   1.615
  380HOH      O 1326   2.396   3.807   2.347
  380HOH     H1 1327   2.465   3.774   2.405
  380HOH     H2 1328   2.391   3.743   2.277
  381HOH      O 1329   1.408   1.115   0.107
  381HOH     H1 1330   1.323   1.155   0.090
  381HOH     H2 1331   1.389   1.022   0.120
  382HOH      O 1332   3.554   1.240   3.581
  382HOH     H1 1333   3.628   1.268   3.634
  382HOH     H2 1334   3.575   1.269   3.493
  383HOH      O 1335   3.002   0.524   2.696
  383HOH     H1 1336   2.945   0.460   2.655
  383HOH     H2 1337   3.081   0.524   2.641
  384HOH      O 1338   0.448   0.361   3.487
  384HOH     H1 1339   0.538   0.358   3.454
  384HOH     H2 1340   0.420   0.269   3.487
  385HOH      O 1341   2.742   3.515   0.928
  385HOH     H1 1342   2.795   3.454   0.978
  385HOH     H2 1343   2.799   3.544   0.857
  386HOH      O 1344   3.729   2.335   2.263
  386HOH     H1 1345   3.698   2.393   2.194
  386HOH     H2 1346   3.778   2.267   2.217
  387HOH      O 1347   3.015   0.143   2.046
  387HOH     H1 1348   2.986   0.095   2.124
  387HOH     H2 1349   2.941   0.138   1.986
  388HOH      O 1350   1.855   2.305   0.390
  388HOH     H1 1351   1.846   2.359   0.468
  388HOH     H2 1352   1.950   2.296   0.377
  389HOH      O 1353   0.863   2.550   1.536
  389HOH     H1 1354   0.837   2.590   1.453
  389HOH     H2 1355   0.840   2.616   1.602
  390HOH      O 1356   2.317   3.717   0.788
  390HOH     H1 1357   2.256   3.708   0.714
  390HOH     H2 1358   2.375   3.642   0.780
  391HOH      O 1359   2.516   3.548   0.765
  391HOH     H1 1360   2.571   3.539   0.843
  391HOH     H2 1361   2.545   3.477   0.708
  392HOH      O 1362   2.901   3.101   2.122
  392HOH     H1 1363   2.954   3.174   2.154
  392HOH     H2 1364   2.875   3.127   2.034
  393HOH      O 1365   3.753   0.581   3.387
  393HOH     H1 1366   3.657   0.572   3.386
  393HOH     H2 1367   3.784   0.497   3.418
  394HOH      O 1368   0.830   0.894   2.021
  394HOH     H1 1369   0.894   0.852   2.079
  394HOH     H2 1370   0.768   0.935   2.080
  395HOH      O 1371   1.311   3.029   0.692
  395HOH     H1 1372   1.232   2.975   0.701
  395HOH     H2 1373   1.343   3.009   0.604
  396HOH      O 1374   3.762   3.375   0.199
  396HOH     H1 1375   3.849   3.335   0.195
  396HOH     H2 1376   3.779   3.469   0.202
  397HOH      O 1377   0.484   0.268   0.757
  397HOH     H1 1378   0.452   0.317   0.681
  397HOH     H2 1379   0.422   0.288   0.827
  398HOH      O 1380   3.071   0.451   3.327
  398HOH     H1 1381   2.982   0.485   3.313
  398HOH     H2 1382   3.121   0.487   3.254
  399HOH      O 1383   0.265   2.280   0.343
  399HOH     H1 1384   0.240   2.265   0.434
  399HOH     H2 1385   0.332   2.348   0.348
  400HOH      O 1386   0.843   1.755   2.748
  400HOH     H1 1387   0.785   1.711   2.686
  400HOH     H2 1388   0.878   1.830   2.700
  401HOH      O 1389   3.771   3.260   2.457
  401HOH     H1 1390   3.741   3.337   2.506
  401HOH     H2 1391   3.691   3.226   2.416
  402HOH      O 1392   0.258   2.534   1.675
  402HOH     H1 1393   0.251   2.623   1.709
  402HOH     H2 1394   0.300   2.544   1.590
  403HOH      O 1395   2.843   0.738   1.777
  403HOH     H1 1396   2.788   0.749   1.854
  403HOH     H2 1397   2.854   0.643   1.768
  404HOH      O 1398   1.738   1.113   0.573
  404HOH     H1 1399   1.674   1.041   0.577
  404HOH     H2 1400   1.778   1.104   0.486
  405HOH      O 1401   0.284   3.501   3.807
  405HOH     H1 1402   0.219   3.560   3.844
  405HOH     H2 1403   0.289   3.525   3.715
  406HOH      O 1404   0.832   0.115   2.846
  406HOH     H1 1405   0.788   0.173   2.784
  406HOH     H2 1406   0.821   0.027   2.808
  407HOH      O 1407   2.636   0.928   0.295
  407HOH     H1 1408   2.679   0.968   0.219
  407HOH     H2 1409   2.671   0.975   0.370
  408HOH      O 1410   1.230   1.797   0.754
  408HOH     H1 1411   1.321   1.771   0.770
  408HOH     H2 1412   1.237   1.880   0.707
  409HOH      O 1413   0.081   1.482   2.374
  409HOH     H1 1414  -0.010   1.483   2.403
  409HOH     H2 1415   0.124   1.418   2.431
  410HOH      O 1416   0.061   1.809   0.250
  410HOH     H1 1417   0.112   1.858   0.313
  410HOH     H2 1418   0.008   1.749   0.303
  411HOH      O 1419   2.204   3.460   3.040
  411HOH     H1 1420   2.185   3.547   3.006
  411HOH     H2 1421   2.139   3.403   3.000
  412HOH      O 1422   3.061   2.584   2.390
  412HOH     H1 1423   3.111   2.528   2.449
  412HOH     H2 1424   2.971   2.576   2.420
  413HOH      O 1425   1.618   3.935   3.025
  413HOH     H1 1426   1.618   3.979   3.111
  413HOH     H2 1427   1.603   4.005   2.962
  414HOH      O 1428   0.257   2.213   1.281
  414HOH     H1 1429   0.197   2.162   1.227
  414HOH     H2 1430   0.201   2.253   1.348
  415HOH      O 1431   0.594   2.770   1.626
  415HOH     H1 1432   0.649   2.765   1.704
  415HOH     H2 1433   0.505   2.758   1.658
  416HOH      O 1434   3.481   2.934   1.141
  416HOH     H1 1435   3.390   2.917   1.117
  416HOH     H2 1436   3.511   2.852   1.181
  417HOH      O 1437   0.101   0.427   2.808
  417HOH     H1 1438   0.119   0.476   2.889
  417HOH     H2 1439   0.010   0.397   2.818
  418HOH      O 1440   1.984   0.734   1.431
  418HOH     H1 1441   2.034   0.653   1.445
  418HOH     H2 1442   1.962   0.763   1.519
  419HOH      O 1443   1.539   3.983   1.747
  419HOH     H1 1444   1.570   3.908   1.697
  419HOH     H2 1445   1.555   4.058   1.690
  420HOH      O 1446   2.070   2.698   3.814
  420HOH     H1 1447   1.995   2.723   3.868
  420HOH     H2 1448   2.032   2.677   3.729
  421HOH      O 1449   2.758   1.726   0.698
  421HOH     H1 1450   2.786   1.768   0.780
  421HOH     H2 1451   2.790   1.636   0.706
  422HOH      O 1452   2.747   3.410   2.752
  422HOH     H1 1453   2.822   3.452   2.710
  422HOH     H2 1454   2.695   3.482   2.787
  423HOH      O 1455   1.826   1.757   2.853
  423HOH     H1 1456   1.822   1.663   2.866
  423HOH     H2 1457   1.762   1.775   2.784
  424HOH      O 1458   3.767   1.252   2.787
  424HOH     H1 1459   3.849   1.298   2.771
  424HOH     H2 1460   3.768   1.234   2.881
  425HOH      O 1461   2.749   3.715   2.934
  425HOH     H1 1462   2.823   3.712   2.994
  425HOH     H2 1463   2.787   3.689   2.849
  426HOH      O 1464   3.041   1.524   0.620
  426HOH     H1 1465   3.117   1.483   0.578
  426HOH     H2 1466   3.020   1.598   0.563
  427HOH      O 1467   1.867   1.879   2.401
  427HOH     H1 1468   1.929   1.938   2.444
  427HOH     H2 1469   1.801   1.938   2.364
  428HOH      O 1470   3.625   3.284   2.828
  428HOH     H1 1471   3.701   3.266   2.883
  428HOH     H2 1472   3.619   3.380   2.826
  429HOH      O 1473   4.007   1.257   3.435
  429HOH     H1 1474   3.974   1.225   3.351
  429HOH     H2 1475   4.031   1.177   3.482
  430HOH      O 1476   1.240   2.780   1.542
  430HOH     H1 1477   1.230   2.839   1.467
  430HOH     H2 1478   1.191   2.822   1.613
  431HOH      O 1479   0.605   2.567   0.766
  431HOH     H1 1480   0.623   2.660   0.748
  431HOH     H2 1481   0.647   2.521   0.693
  432HOH      O 1482   3.284   3.063   3.302
  432HOH     H1 1483   3.189   3.060   3.292
  432HOH     H2 1484   3.313   3.122   3.231
  433HOH      O 1485   2.946   3.751   2.242
  433HOH     H1 1486   3.025   3.730   2.193
  433HOH     H2 1487   2.878   3.697   2.201
  434HOH      O 1488   2.889   1.771   1.472
  434HOH     H1 1489   2.870   1.694   1.526
  434HOH     H2 1490   2.938   1.737   1.397
  435HOH      O 1491   3.557   2.710   1.331
  435HOH     H1 1492   3.469   2.678   1.353
  435HOH     H2 1493   3.609   2.689   1.409
  436HOH      O 1494   0.743   3.548   2.724
  436HOH     H1 1495   0.781   3.470   2.685
  436HOH     H2 1496   0.812   3.613   2.720
  437HOH      O 1497   0.748   2.934   3.105
  437HOH     H1 1498   0.722   2.997   3.039
  437HOH     H2 1499   0.840   2.956   3.123
  438HOH      O 1500   3.481   3.653   0.066
  438HOH     H1 1501   3.403   3.655   0.010
  438HOH     H2 1502   3.449   3.618   0.149
  439HOH      O 1503   1.802   1.482   1.048
  439HOH     H1 1504   1.752   1.479   1.130
  439HOH     H2 1505   1.735   1.482   0.980
  440HOH      O 1506   3.763   1.683   2.495
  440HOH     H1 1507   3.676   1.680   2.536
  440HOH     H2 1508   3.808   1.755   2.539
  441HOH      O 1509   0.956   1.864   1.583
  441HOH     H1 1510   0.873   1.818   1.568
  441HOH     H2 1511   1.005   1.850   1.502
  442HOH      O 1512   0.494   2.629   1.072
  442HOH     H1 1513   0.433   2.698   1.047
  442HOH     H2 1514   0.454   2.548   1.041
  443HOH      O 1515   2.863   3.507   2.402
  443HOH     H1 1516   2.949   3.524   2.439
  443HOH     H2 1517   2.804   3.565   2.450
  444HOH      O 1518   3.877   0.071   0.588
  444HOH     H1 1519   3.910   0.125   0.660
  444HOH     H2 1520   3.900  -0.018   0.613
  445HOH      O 1521   3.094   0.602   2.180
  445HOH     H1 1522   3.189   0.611   2.187
  445HOH     H2 1523   3.061   0.691   2.191
  446HOH      O 1524   0.998   3.561   0.460
  446HOH     H1 1525   0.969   3.471   0.442
  446HOH     H2 1526   0.926   3.600   0.509
  447HOH      O 1527   3.728   3.841   1.413
  447HOH     H1 1528   3.713   3.753   1.446
  447HOH     H2 1529   3.823   3.853   1.418
  448HOH      O 1530   3.146   3.409   2.501
  448HOH     H1 1531   3.228   3.409   2.452
  448HOH     H2 1532   3.173   3.409   2.593
  449HOH      O 1533   3.215   3.401   1.569
  449HOH     H1 1534   3.128   3.366   1.586
  449HOH     H2 1535   3.199   3.483   1.523
  450HOH      O 1536   0.163   2.551   2.509
  450HOH     H1 1537   0.075   2.585   2.490
  450HOH     H2 1538   0.194   2.518   2.425
  451HOH      O 1539   2.546   2.416   0.892
  451HOH     H1 1540   2.556   2.498   0.844
  451HOH     H2 1541   2.549   2.441   0.984
  452HOH      O 1542   1.392   1.073   1.856
  452HOH     H1 1543   1.326   1.055   1.789
  452HOH     H2 1544   1.460   1.006   1.841
  453HOH      O 1545   2.776  -0.028   2.503
  453HOH     H1 1546   2.703  -0.017   2.564
  453HOH     H2 1547   2.790   0.059   2.466
  454HOH      O 1548   0.621   2.819   0.548
  454HOH     H1 1549   0.559   2.795   0.479
  454HOH     H2 1550   0.571   2.814   0.629
  455HOH      O 1551   3.561   0.150   0.070
  455HOH     H1 1552   3.586   0.232   0.113
  455HOH     H2 1553   3.471   0.135   0.099
  456HOH      O 1554   1.402   1.613   1.072
  456HOH     H1 1555   1.426   1.568   1.153
  456HOH     H2 1556   1.335   1.558   1.032
  457HOH      O 1557   1.279   2.747   2.476
  457HOH     H1 1558   1.293   2.834   2.439
  457HOH     H2 1559   1.245   2.764   2.564
  458HOH      O 1560   0.337   1.775   2.238
  458HOH     H1 1561   0.427   1.753   2.262
  458HOH     H2 1562   0.293   1.789   2.321
  459HOH      O 1563   3.894   1.118   2.161
  459HOH     H1 1564   3.873   1.203   2.124
  459HOH     H2 1565   3.812   1.089   2.202
  460HOH      O 1566   3.437   0.939   3.930
  460HOH     H1 1567   3.531   0.923   3.926
  460HOH     H2 1568   3.404   0.913   3.844
  461HOH      O 1569   1.656   1.503   1.276
  461HOH     H1 1570   1.674   1.423   1.325
  461HOH     H2 1571   1.651   1.571   1.343
  462HOH      O 1572   0.359   1.484   3.232
  462HOH     H1 1573   0.454   1.481   3.215
  462HOH     H2 1574   0.322   1.522   3.152
  463HOH      O 1575   1.866   2.493   0.169
  463HOH     H1 1576   1.845   2.565   0.228
  463HOH     H2 1577   1.872   2.416   0.226
  464HOH      O 1578   2.598   4.028   1.758
  464HOH     H1 1579   2.542   4.078   1.698
  464HOH     H2 1580   2.538   3.971   1.805
  465HOH      O 1581   1.197   1.448   0.993
  465HOH     H1 1582   1.147   1.386   1.046
  465HOH     H2 1583   1.135   1.479   0.928
  466HOH      O 1584   2.428   0.844   0.525
  466HOH     H1 1585   2.465   0.819   0.441
  466HOH     H2 1586   2.463   0.780   0.587
  467HOH      O 1587   1.488   2.846   3.251
  467HOH     H1 1588   1.574   2.808   3.269
  467HOH     H2 1589   1.446   2.853   3.337
  468HOH      O 1590   1.040   1.684   0.575
  468HOH     H1 1591   0.990   1.751   0.529
  468HOH     H2 1592   1.118   1.730   0.606
  469HOH      O 1593   2.159   0.982   0.769
  469HOH     H1 1594   2.120   0.913   0.715
  469HOH     H2 1595   2.150   1.062   0.717
  470HOH      O 1596   2.967   3.817   2.518
  470HOH     H1 1597   2.894   3.879   2.516
  470HOH     H2 1598   2.960   3.770   2.435
  471HOH      O 1599   0.640   2.041   0.722
  471HOH     H1 1600   0.727   2.079   0.708
  471HOH     H2 1601   0.579   2.111   0.697
  472HOH      O 1602   2.215   0.672   3.861
  472HOH     H1 1603   2.264   0.604   3.907
  472HOH     H2 1604   2.204   0.638   3.772
  473HOH      O 1605   0.074   0.372   3.738
  473HOH     H1 1606   0.073   0.358   3.832
  473HOH     H2 1607   0.115   0.457   3.726
  474HOH      O 1608   3.539   2.453   2.847
  474HOH     H1 1609   3.534   2.513   2.772
  474HOH     H2 1610   3.545   2.511   2.923
  475HOH      O 1611   0.033   1.534   1.485
  475HOH     H1 1612  -0.051   1.489   1.474
  475HOH     H2 1613   0.089   1.498   1.416
  476HOH      O 1614   2.130   2.445   2.851
  476HOH     H1 1615   2.052   2.479   2.895
  476HOH     H2 1616   2.115   2.350   2.849
  477HOH      O 1617   3.404   0.042   1.626
  477HOH     H1 1618   3.486   0.017   1.583
  477HOH     H2 1619   3.430   0.106   1.692
  478HOH      O 1620   2.429   3.470   1.764
  478HOH     H1 1621   2.523   3.486   1.749
  478HOH     H2 1622   2.409   3.516   1.845
  479HOH      O 1623   0.934   3.404   2.183
  479HOH     H1 1624   1.018   3.424   2.226
  479HOH     H2 1625   0.908   3.488   2.144
  480HOH      O 1626   3.307   1.443   2.087
  480HOH     H1 1627   3.359   1.522   2.074
  480HOH     H2 1628   3.228   1.457   2.035
  481HOH      O 1629   0.111   2.516   3.858
  481HOH     H1 1630   0.064   2.552   3.933
  481HOH     H2 1631   0.044   2.473   3.805
  482HOH      O 1632   1.064   2.759   3.421
  482HOH     H1 1633   1.144   2.707   3.416
  482HOH     H2 1634   1.091   2.840   3.465
  483HOH      O 1635   2.648   0.348   0.752
  483HOH     H1 1636   2.614   0.320   0.667
  483HOH     H2 1637   2.606   0.291   0.815
  484HOH      O 1638   1.118   3.671   0.252
  484HOH     H1 1639   1.073   3.630   0.325
  484HOH     H2 1640   1.178   3.604   0.220
  485HOH      O 1641   2.957   3.669   2.754
  485HOH     H1 1642   2.942   3.708   2.668
  485HOH     H2 1643   3.032   3.717   2.789
  486HOH      O 1644   1.472   3.226   3.424
  486HOH     H1 1645   1.457   3.165   3.496
  486HOH     H2 1646   1.439   3.310   3.457
  487HOH      O 1647   2.455   3.246   3.634
  487HOH     H1 1648   2.388   3.223   3.570
  487HOH     H2 1649   2.413   3.235   3.719
  488HOH      O 1650   0.978   3.152   2.995
  488HOH     H1 1651   1.035   3.094   3.045
  488HOH     H2 1652   1.031   3.230   2.978
  489HOH      O 1653   0.703   1.357   1.670
  489HOH     H1 1654   0.649   1.278   1.682
  489HOH     H2 1655   0.644   1.420   1.630
  490HOH      O 1656   1.164   3.915   0.494
  490HOH     H1 1657   1.093   3.968   0.529
  490HOH     H2 1658   1.128   3.877   0.413
  491HOH      O 1659   0.839   0.866   3.099
  491HOH     H1 1660   0.895   0.937   3.130
  491HOH     H2 1661   0.848   0.869   3.003
  492HOH      O 1662   1.655   2.168   2.156
  492HOH     H1 1663   1.696   2.253   2.139
  492HOH     H2 1664   1.715   2.124   2.215
  493HOH      O 1665   1.913   3.607   2.784
  493HOH     H1 1666   1.853   3.680   2.773
  493HOH     H2 1667   1.974   3.636   2.851
  494HOH      O 1668   0.075   3.766   0.051
  494HOH     H1 1669   0.083   3.765  -0.045
  494HOH     H2 1670   0.081   3.858   0.075
  495HOH      O 1671   1.782   1.487   2.882
  495HOH     H1 1672   1.721   1.432   2.833
  495HOH     H2 1673   1.791   1.444   2.967
  496HOH      O 1674   1.780   0.938   0.121
  496HOH     H1 1675   1.743   0.857   0.088
  496HOH     H2 1676   1.733   1.007   0.075
  497HOH      O 1677   1.739   2.558   1.345
  497HOH     H1 1678   1.718   2.624   1.411
  497HOH     H2 1679   1.698   2.591   1.265
  498HOH      O 1680   1.744   2.463   3.920
  498HOH     H1 1681   1.794   2.387   3.889
  498HOH     H2 1682   1.793   2.493   3.997
  499HOH      O 1683   3.210   3.271   1.238
  499HOH     H1 1684   3.198   3.238   1.149
  499HOH     H2 1685   3.222   3.365   1.228
  500HOH      O 1686   1.304   2.552   3.453
  500HOH     H1 1687   1.382   2.571   3.505
  500HOH     H2 1688   1.278   2.464   3.481
  501HOH      O 1689   3.102   1.927   2.686
  501HOH     H1 1690   3.047   1.914   2.763
  501HOH     H2 1691   3.054   1.990   2.632
  502HOH      O 1692   1.418   3.747   0.462
  502HOH     H1 1693   1.336   3.795   0.472
  502HOH     H2 1694   1.396   3.657   0.488
  503HOH      O 1695   1.425   0.899   3.452
  503HOH     H1 1696   1.446   0.920   3.543
  503HOH     H2 1697   1.401   0.982   3.413
  504HOH      O 1698   2.833   2.937   2.786
  504HOH     H1 1699   2.925   2.942   2.809
  504HOH     H2 1700   2.828   2.872   2.716
  505HOH      O 1701   0.963   1.507   1.483
  505HOH     H1 1702   0.942   1.511   1.576
  505HOH     H2 1703   0.959   1.414   1.461
  506HOH      O 1704   2.837   1.535   1.559
  506HOH     H1 1705   2.909   1.483   1.594
  506HOH     H2 1706   2.769   1.531   1.627
  507HOH      O 1707   1.921   1.099   1.517
  507HOH     H1 1708   1.944   1.067   1.430
  507HOH     H2 1709   1.830   1.072   1.529
  508HOH      O 1710   1.023   1.037   3.145
  508HOH     H1 1711   1.040   0.973   3.214
  508HOH     H2 1712   1.057   1.119   3.180
  509HOH      O 1713   3.165   1.649   1.394
  509HOH     H1 1714   3.219   1.583   1.350
  509HOH     H2 1715   3.153   1.616   1.482
  510HOH      O 1716   2.915   1.378   0.025
  510HOH     H1 1717   2.905   1.333  -0.059
  510HOH     H2 1718   2.826   1.397   0.053
  511HOH      O 1719   1.450   2.073   0.358
  511HOH     H1 1720   1.464   2.087   0.264
  511HOH     H2 1721   1.525   2.019   0.385
  512HOH      O 1722   3.857   0.342   3.166
  512HOH     H1 1723   3.818   0.324   3.252
  512HOH     H2 1724   3.950   0.322   3.178
  513HOH      O 1725   0.170   2.956   3.175
  513HOH     H1 1726   0.149   2.892   3.107
  513HOH     H2 1727   0.122   3.035   3.148
  514HOH      O 1728   3.221   2.316   3.850
  514HOH     H1 1729   3.259   2.294   3.764
  514HOH     H2 1730   3.147   2.374   3.829
  515HOH      O 1731   0.713   0.324   2.691
  515HOH     H1 1732   0.768   0.351   2.617
  515HOH     H2 1733   0.714   0.398   2.751
  516HOH      O 1734   3.719   2.943   2.004
  516HOH     H1 1735   3.807   2.981   1.995
  516HOH     H2 1736   3.719   2.905   2.092
  517HOH      O 1737   0.527   1.901   0.911
  517HOH     H1 1738   0.572   1.943   0.838
  517HOH     H2 1739   0.475   1.971   0.951
  518HOH      O 1740   2.342   3.452   1.496
  518HOH     H1 1741   2.367   3.530   1.448
  518HOH     H2 1742   2.380   3.464   1.583
  519HOH      O 1743   1.428   3.444   2.527
  519HOH     H1 1744   1.469   3.401   2.452
  519HOH     H2 1745   1.409   3.532   2.497
  520HOH      O 1746   0.430   0.768   2.629
  520HOH     H1 1747   0.485   0.690   2.635
  520HOH     H2 1748   0.395   0.765   2.540
  521HOH      O 1749   1.351   2.864   3.488
  521HOH     H1 1750   1.374   2.840   3.578
  521HOH     H2 1751   1.267   2.909   3.495
  522HOH      O 1752   1.892   3.850   3.603
  522HOH     H1 1753   1.828   3.785   3.572
  522HOH     H2 1754   1.925   3.891   3.523
  523HOH      O 1755   2.126   1.477   3.204
  523HOH     H1 1756   2.103   1.501   3.114
  523HOH     H2 1757   2.207   1.426   3.195
  524HOH      O 1758   3.232   2.792   2.360
  524HOH     H1 1759   3.192   2.878   2.342
  524HOH     H2 1760   3.167   2.729   2.328
  525HOH      O 1761   0.229   1.818   3.326
  525HOH     H1 1762   0.205   1.860   3.408
  525HOH     H2 1763   0.324   1.826   3.321
  526HOH      O 1764   3.460   1.691   0.413
  526HOH     H1 1765   3.456   1.785   0.400
  526HOH     H2 1766   3.520   1.659   0.345
  527HOH      O 1767   3.490   0.960   1.979
  527HOH     H1 1768   3.431   0.939   2.052
  527HOH     H2 1769   3.477   1.054   1.965
  528HOH      O 1770   2.059   3.977   1.317
  528HOH     H1 1771   2.001   4.014   1.383
  528HOH     H2 1772   2.115   4.051   1.291
  529HOH      O 1773   2.132   1.249   1.472
  529HOH     H1 1774   2.216   1.209   1.493
  529HOH     H2 1775   2.067   1.186   1.503
  530HOH      O 1776   2.843   3.668   0.244
  530HOH     H1 1777   2.926   3.697   0.282
  530HOH     H2 1778   2.799   3.622   0.316
  531HOH      O 1779   1.995   2.856   2.109
  531HOH     H1 1780   2.020   2.854   2.017
  531HOH     H2 1781   2.072   2.823   2.156
  532HOH      O 1782   2.827   2.841   2.501
  532HOH     H1 1783   2.846   2.851   2.407
  532HOH     H2 1784   2.851   2.750   2.520
  533HOH      O 1785   3.820   0.486   1.977
  533HOH     H1 1786   3.737   0.508   2.019
  533HOH     H2 1787   3.795   0.453   1.890
  534HOH      O 1788   2.820   3.808   1.202
  534HOH     H1 1789   2.755   3.808   1.131
  534HOH     H2 1790   2.903   3.789   1.157
  535HOH      O 1791   2.308   2.527   1.053
  535HOH     H1 1792   2.310   2.504   0.960
  535HOH     H2 1793   2.264   2.454   1.095
  536HOH      O 1794   2.323   1.695   3.303
  536HOH     H1 1795   2.342   1.670   3.393
  536HOH     H2 1796   2.246   1.644   3.279
  537HOH      O 1797   1.597   3.247   2.067
  537HOH     H1 1798   1.687   3.217   2.077
  537HOH     H2 1799   1.602   3.317   2.002
  538HOH      O 1800   0.712   1.212   3.362
  538HOH     H1 1801   0.670   1.291   3.326
  538HOH     H2 1802   0.750   1.241   3.445
  539HOH      O 1803   3.418   1.569   1.642
  539HOH     H1 1804   3.422   1.641   1.579
  539HOH     H2 1805   3.468   1.499   1.601
  540HOH      O 1806   0.046   0.774   0.700
  540HOH     H1 1807  -0.023   0.751   0.638
  540HOH     H2 1808   0.025   0.863   0.726
  541HOH      O 1809   0.252   3.685   0.957
  541HOH     H1 1810   0.238   3.750   1.026
  541HOH     H2 1811   0.294   3.611   1.001
  542HOH      O 1812   1.323   3.000   1.774
  542HOH     H1 1813   1.391   2.990   1.707
  542HOH     H2 1814   1.346   3.081   1.820
  543HOH      O 1815   1.361   2.126   1.061
  543HOH     H1 1816   1.337   2.207   1.018
  543HOH     H2 1817   1.359   2.060   0.991
  544HOH      O 1818   0.643   1.695   2.565
  544HOH     H1 1819   0.600   1.771   2.605
  544HOH     H2 1820   0.573   1.650   2.518
  545HOH      O 1821   3.133   1.495   3.858
  545HOH     H1 1822   3.128   1.585   3.826
  545HOH     H2 1823   3.155   1.504   3.951
  546HOH      O 1824   1.275   0.120   1.377
  546HOH     H1 1825   1.317   0.039   1.407
  546HOH     H2 1826   1.195   0.126   1.429
  547HOH      O 1827   0.924   2.550   2.611
  547HOH     H1 1828   0.946   2.500   2.689
  547HOH     H2 1829   0.903   2.638   2.643
  548HOH      O 1830   2.511   1.380   2.251
  548HOH     H1 1831   2.428   1.409   2.288
  548HOH     H2 1832   2.542   1.313   2.312
  549HOH      O 1833   3.602   2.034   3.013
  549HOH     H1 1834   3.631   1.967   3.074
  549HOH     H2 1835   3.678   2.049   2.956
  550HOH      O 1836   3.798   2.448   0.908
  550HOH     H1 1837   3.855   2.523   0.894
  550HOH     H2 1838   3.723   2.483   0.955
  551HOH      O 1839   1.153   1.959   0.106
  551HOH     H1 1840   1.102   1.933   0.029
  551HOH     H2 1841   1.118   2.044   0.130
  552HOH      O 1842   2.616   3.646   2.176
  552HOH     H1 1843   2.656   3.641   2.263
  552HOH     H2 1844   2.628   3.558   2.140
  553HOH      O 1845   3.456   2.654   0.066
  553HOH     H1 1846   3.480   2.745   0.052
  553HOH     H2 1847   3.517   2.623   0.133
  554HOH      O 1848   1.819   3.318   0.681
  554HOH     H1 1849   1.724   3.311   0.681
  554HOH     H2 1850   1.838   3.384   0.748
  555HOH      O 1851   2.545   1.448   0.422
  555HOH     H1 1852   2.499   1.479   0.499
  555HOH     H2 1853   2.624   1.405   0.457
  556HOH      O 1854   3.225   1.154   1.297
  556HOH     H1 1855   3.215   1.064   1.266
  556HOH     H2 1856   3.162   1.204   1.245
  557HOH      O 1857   0.028   2.498   3.091
  557HOH     H1 1858  -0.058   2.535   3.072
  557HOH     H2 1859   0.057   2.544   3.170
  558HOH      O 1860   0.963   1.597   3.734
  558HOH     H1 1861   1.018   1.635   3.802
  558HOH     H2 1862   1.024   1.557   3.673
  559HOH      O 1863   3.360   3.131   3.665
  559HOH     H1 1864   3.273   3.171   3.676
  559HOH     H2 1865   3.342   3.041   3.640
  560HOH      O 1866   3.535   0.242   1.764
  560HOH     H1 1867   3.547   0.296   1.842
  560HOH     H2 1868   3.531   0.305   1.692
  561HOH      O 1869   1.520   1.705   1.447
  561HOH     H1 1870   1.462   1.629   1.434
  561HOH     H2 1871   1.527   1.712   1.542
  562HOH      O 1872   0.732   3.553   1.403
  562HOH     H1 1873   0.815   3.529   1.360
  562HOH     H2 1874   0.754   3.630   1.456
  563HOH      O 1875   1.669   1.074   1.024
  563HOH     H1 1876   1.724   1.094   0.948
  563HOH     H2 1877   1.613   1.151   1.033
  564HOH      O 1878   2.391   3.236   2.761
  564HOH     H1 1879   2.302   3.209   2.784
  564HOH     H2 1880   2.446   3.163   2.790
  565HOH      O 1881   1.894   1.350   1.711
  565HOH     H1 1882   1.852   1.279   1.761
  565HOH     H2 1883   1.920   1.309   1.629
  566HOH      O 1884   0.814   1.941   0.952
  566HOH     H1 1885   0.736   1.917   1.001
  566HOH     H2 1886   0.781   1.978   0.870
  567HOH      O 1887   1.066   0.139   0.837
  567HOH     H1 1888   1.129   0.195   0.792
  567HOH     H2 1889   1.114   0.107   0.914
  568HOH      O 1890   2.923   1.246   3.775
  568HOH     H1 1891   2.910   1.218   3.685
  568HOH     H2 1892   2.960   1.334   3.768
  569HOH      O 1893   3.135   3.697   3.366
  569HOH     H1 1894   3.044   3.687   3.340
  569HOH     H2 1895   3.137   3.668   3.457
  570HOH      O 1896   0.488   3.890   1.136
  570HOH     H1 1897   0.550   3.894   1.063
  570HOH     H2 1898   0.527   3.945   1.204
  571HOH      O 1899   0.451   1.110   3.725
  571HOH     H1 1900   0.454   1.153   3.640
  571HOH     H2 1901   0.476   1.178   3.788
  572HOH      O 1902   1.032   2.242   3.308
  572HOH     H1 1903   1.039   2.158   3.354
  572HOH     H2 1904   0.978   2.296   3.366
  573HOH      O 1905   0.859   2.997   0.140
  573HOH     H1 1906   0.782   2.941   0.142
  573HOH     H2 1907   0.825   3.084   0.121
  574HOH      O 1908   0.554   2.832   1.253
  574HOH     H1 1909   0.562   2.914   1.205
  574HOH     H2 1910   0.532   2.767   1.185
  575HOH      O 1911   0.858   2.679   0.492
  575HOH     H1 1912   0.795   2.747   0.518
  575HOH     H2 1913   0.821   2.641   0.413
  576HOH      O 1914   0.809   0.811   3.943
  576HOH     H1 1915   0.812   0.718   3.965
  576HOH     H2 1916   0.733   0.820   3.886
  577HOH      O 1917   2.116   3.682   2.930
  577HOH     H1 1918   2.095   3.764   2.975
  577HOH     H2 1919   2.167   3.709   2.853
  578HOH      O 1920   0.766   2.233   2.613
  578HOH     H1 1921   0.687   2.270   2.653
  578HOH     H2 1922   0.818   2.310   2.587
  579HOH      O 1923   0.486   1.905   0.322
  579HOH     H1 1924   0.531   1.867   0.396
  579HOH     H2 1925   0.549   1.967   0.285
  580HOH      O 1926   3.488   0.496   3.317
  580HOH     H1 1927   3.452   0.411   3.292
  580HOH     H2 1928   3.522   0.533   3.235
  581HOH      O 1929   2.290   2.748   1.639
  581HOH     H1 1930   2.384   2.738   1.656
  581HOH     H2 1931   2.285   2.817   1.573
  582HOH      O 1932   3.990   0.103   1.936
  582HOH     H1 1933   3.976   0.141   2.023
  582HOH     H2 1934   3.913   0.048   1.921
  583HOH      O 1935   2.325   0.179   3.328
  583HOH     H1 1936   2.347   0.135   3.410
  583HOH     H2 1937   2.316   0.108   3.264
  584HOH      O 1938   3.317   0.540   1.108
  584HOH     H1 1939   3.335   0.630   1.083
  584HOH     H2 1940   3.237   0.545   1.160
  585HOH      O 1941   0.096   2.812   2.700
  585HOH     H1 1942   0.021   2.757   2.724
  585HOH     H2 1943   0.091   2.819   2.605
  586HOH      O 1944   3.412   3.062   0.826
  586HOH     H1 1945   3.428   2.968   0.815
  586HOH     H2 1946   3.494   3.103   0.799
  587HOH      O 1947   0.440   3.875   3.290
  587HOH     H1 1948   0.416   3.870   3.197
  587HOH     H2 1949   0.358   3.897   3.334
  588HOH      O 1950   2.135   0.147   2.883
  588HOH     H1 1951   2.112   0.225   2.935
  588HOH     H2 1952   2.222   0.166   2.849
  589HOH      O 1953   0.978   0.071   0.483
  589HOH     H1 1954   1.056   0.080   0.428
  589HOH     H2 1955   0.923   0.146   0.458
  590HOH      O 1956   1.618   1.473   0.849
  590HOH     H1 1957   1.663   1.445   0.769
  590HOH     H2 1958   1.543   1.523   0.817
  591HOH      O 1959   1.895   3.733   2.292
  591HOH     H1 1960   1.861   3.777   2.370
  591HOH     H2 1961   1.969   3.787   2.264
  592HOH      O 1962   0.589   0.163   1.087
  592HOH     H1 1963   0.594   0.164   1.183
  592HOH     H2 1964   0.680   0.166   1.058
  593HOH      O 1965   0.020   0.358   1.348
  593HOH     H1 1966  -0.035   0.424   1.390
  593HOH     H2 1967   0.052   0.304   1.420
  594HOH      O 1968   2.128   1.451   3.821
  594HOH     H1 1969   2.053   1.399   3.848
  594HOH     H2 1970   2.204   1.393   3.833
  595HOH      O 1971   1.344   0.488   3.492
  595HOH     H1 1972   1.265   0.542   3.489
  595HOH     H2 1973   1.415   0.549   3.472
  596HOH      O 1974   0.980   3.647   3.326
  596HOH     H1 1975   1.030   3.598   3.260
  596HOH     H2 1976   1.022   3.625   3.409
  597HOH      O 1977   0.992   2.072   1.126
  597HOH     H1 1978   1.063   2.012   1.107
  597HOH     H2 1979   0.933   2.065   1.051
  598HOH      O 1980   3.220   1.036   0.262
  598HOH     H1 1981   3.223   1.124   0.223
  598HOH     H2 1982   3.280   0.984   0.208
  599HOH      O 1983   3.487   0.378   0.387
  599HOH     H1 1984   3.541   0.312   0.432
  599HOH     H2 1985   3.458   0.437   0.457
  600HOH      O 1986   1.685   3.662   2.575
  600HOH     H1 1987   1.660   3.722   2.504
  600HOH     H2 1988   1.606   3.652   2.627
  601HOH      O 1989   0.539   3.861   2.704
  601HOH     H1 1990   0.521   3.780   2.752
  601HOH     H2 1991   0.635   3.867   2.704
  602HOH      O 1992   0.420   0.837   2.104
  602HOH     H1 1993   0.344   0.838   2.047
  602HOH     H2 1994   0.395   0.781   2.178
  603HOH      O 1995   1.326   3.326   2.933
  603HOH     H1 1996   1.393   3.373   2.882
  603HOH     H2 1997   1.374   3.292   3.009
  604HOH      O 1998   0.377   3.493   0.789
  604HOH     H1 1999   0.440   3.465   0.722
  604HOH     H2 2000   0.376   3.589   0.782
  605HOH      O 2001   0.842   3.021   0.793
  605HOH     H1 2002   0.921   3.060   0.831
  605HOH     H2 2003   0.811   3.087   0.730
  606HOH      O 2004   0.349   2.591   2.073
  606HOH     H1 2005   0.287   2.624   2.008
  606HOH     H2 2006   0.322   2.501   2.088
  607HOH      O 2007   1.855   1.144   0.295
  607HOH     H1 2008   1.845   1.085   0.221
  607HOH     H2 2009   1.796   1.217   0.275
  608HOH      O 2010   1.676   2.126   3.753
  608HOH     H1 2011   1.759   2.080   3.740
  608HOH     H2 2012   1.658   2.116   3.847
  609HOH      O 2013   2.107   2.127   0.416
  609HOH     H1 2014   2.073   2.050   0.462
  609HOH     H2 2015   2.190   2.098   0.379
  610HOH      O 2016   0.526   1.610   1.662
  610HOH     H1 2017   0.487   1.657   1.588
  610HOH     H2 2018   0.450   1.582   1.714
  611HOH      O 2019   3.126   1.506   0.102
  611HOH     H1 2020   3.097   1.578   0.158
  611HOH     H2 2021   3.045   1.463   0.075
  612HOH      O 2022   2.009   2.405   3.191
  612HOH     H1 2023   1.954   2.398   3.269
  612HOH     H2 2024   2.038   2.316   3.174
  613HOH      O 2025   1.430   1.012   0.859
  613HOH     H1 2026   1.374   0.978   0.928
  613HOH     H2 2027   1.504   1.051   0.905
  614HOH      O 2028   1.194  -0.011   3.456
  614HOH     H1 2029   1.112  -0.061   3.456
  614HOH     H2 2030   1.167   0.079   3.439
  615HOH      O 2031   0.012   3.462   1.992
  615HOH     H1 2032   0.007   3.409   2.072
  615HOH     H2 2033   0.036   3.399   1.923
  616HOH      O 2034   1.042   2.677   1.068
  616HOH     H1 2035   1.065   2.624   1.144
  616HOH     H2 2036   0.952   2.651   1.046
  617HOH      O 2037   1.797   2.208   3.293
  617HOH     H1 2038   1.740   2.249   3.228
  617HOH     H2 2039   1.741   2.198   3.370
  618HOH      O 2040   4.042   0.598   1.826
  618HOH     H1 2041   3.974   0.557   1.879
  618HOH     H2 2042   4.044   0.547   1.745
  619HOH      O 2043   2.910   3.584   0.718
  619HOH     H1 2044   2.903   3.664   0.666
  619HOH     H2 2045   3.000   3.585   0.751
  620HOH      O 2046   3.306   0.417   0.814
  620HOH     H1 2047   3.275   0.369   0.891
  620HOH     H2 2048   3.361   0.487   0.850
  621HOH      O 2049   0.687   2.893   3.472
  621HOH     H1 2050   0.684   2.818   3.413
  621HOH     H2 2051   0.655   2.966   3.419
  622HOH      O 2052   2.546   1.611   3.183
  622HOH     H1 2053   2.557   1.666   3.260
  622HOH     H2 2054   2.451   1.607   3.169
  623HOH      O 2055   3.643   2.304   0.095
  623HOH     H1 2056   3.590   2.224   0.100
  623HOH     H2 2057   3.635   2.332   0.004
  624HOH      O 2058   0.781   0.015   4.000
  624HOH     H1 2059   0.714   0.033   3.934
  624HOH     H2 2060   0.861   0.000   3.949
  625HOH      O 2061   2.665   1.883   2.533
  625HOH     H1 2062   2.600   1.946   2.562
  625HOH     H2 2063   2.671   1.820   2.605
  626HOH      O 2064   3.011   3.839   1.639
  626HOH     H1 2065   2.931   3.837   1.692
  626HOH     H2 2066   3.082   3.842   1.702
  627HOH      O 2067   2.731   2.192   0.237
  627HOH     H1 2068   2.824   2.197   0.259
  627HOH     H2 2069   2.722   2.111   0.187
  628HOH      O 2070   1.266   3.420   3.555
  628HOH     H1 2071   1.201   3.489   3.546
  628HOH     H2 2072   1.261   3.371   3.473
  629HOH      O 2073   1.987   0.436   0.917
  629HOH     H1 2074   1.981   0.355   0.968
  629HOH     H2 2075   2.072   0.474   0.942
  630HOH      O 2076   2.970   3.346   1.675
  630HOH     H1 2077   2.927   3.380   1.596
  630HOH     H2 2078   2.958   3.415   1.740
  631HOH      O 2079   3.405   0.996   3.190
  631HOH     H1 2080   3.478   0.973   3.248
  631HOH     H2 2081   3.327   0.990   3.245
  632HOH      O 2082   0.838   2.386   3.504
  632HOH     H1 2083   0.745   2.382   3.526
  632HOH     H2 2084   0.840   2.403   3.410
  633HOH      O 2085   2.681   2.668   3.669
  633HOH     H1 2086   2.636   2.701   3.746
  633HOH     H2 2087   2.764   2.717   3.667
  634HOH      O 2088   0.099   1.670   3.121
  634HOH     H1 2089   0.139   1.698   3.203
  634HOH     H2 2090   0.173   1.662   3.060
  635HOH      O 2091   0.612   1.192   3.030
  635HOH     H1 2092   0.626   1.221   3.121
  635HOH     H2 2093   0.555   1.259   2.993
  636HOH      O 2094   2.582   3.609   2.487
  636HOH     H1 2095   2.547   3.639   2.570
  636HOH     H2 2096   2.540   3.524   2.472
  637HOH      O 2097   3.911   1.797   2.985
  637HOH     H1 2098   3.905   1.873   2.927
  637HOH     H2 2099   4.005   1.785   3.000
  638HOH      O 2100   2.242   2.773   1.174
  638HOH     H1 2101   2.261   2.687   1.139
  638HOH     H2 2102   2.146   2.778   1.175
  639HOH      O 2103   1.001   1.466   0.768
  639HOH     H1 2104   1.002   1.550   0.721
  639HOH     H2 2105   0.915   1.463   0.809
  640HOH      O 2106   1.105   0.817   3.617
  640HOH     H1 2107   1.114   0.761   3.540
  640HOH     H2 2108   1.138   0.765   3.689
  641HOH      O 2109   1.932   3.063   3.349
  641HOH     H1 2110   1.935   2.976   3.388
  641HOH     H2 2111   1.896   3.119   3.417
  642HOH      O 2112   0.210   0.215   1.879
  642HOH     H1 2113   0.124   0.179   1.900
  642HOH     H2 2114   0.212   0.300   1.922
  643HOH      O 2115   2.474   0.377   3.029
  643HOH     H1 2116   2.444   0.316   2.961
  643HOH     H2 2117   2.394   0.404   3.074
  644HOH      O 2118   0.786   0.464   1.143
  644HOH     H1 2119   0.881   0.472   1.144
  644HOH     H2 2120   0.760   0.507   1.062
  645HOH      O 2121   2.165   2.146   0.110
  645HOH     H1 2122   2.232   2.112   0.170
  645HOH     H2 2123   2.108   2.071   0.094
  646HOH      O 2124   0.697   0.330   3.895
  646HOH     H1 2125   0.652   0.391   3.837
  646HOH     H2 2126   0.761   0.287   3.839
  647HOH      O 2127   1.145   0.564   1.339
  647HOH     H1 2128   1.129   0.657   1.323
  647HOH     H2 2129   1.177   0.531   1.255
  648HOH      O 2130   1.224   0.339   2.058
  648HOH     H1 2131   1.287   0.349   2.129
  648HOH     H2 2132   1.257   0.264   2.008
  649HOH      O 2133   1.453   2.342   1.996
  649HOH     H1 2134   1.519   2.304   1.938
  649HOH     H2 2135   1.400   2.268   2.024
  650HOH      O 2136   3.477   3.766   1.639
  650HOH     H1 2137   3.470   3.849   1.592
  650HOH     H2 2138   3.393   3.756   1.683
  651HOH      O 2139   0.990   0.277   1.941
  651HOH     H1 2140   0.928   0.268   2.014
  651HOH     H2 2141   1.071   0.307   1.982
  652HOH      O 2142   2.661   2.831   3.090
  652HOH     H1 2143   2.574   2.858   3.121
  652HOH     H2 2144   2.646   2.748   3.046
  653HOH      O 2145   2.262   3.230   1.956
  653HOH     H1 2146   2.219   3.314   1.972
  653HOH     H2 2147   2.238   3.177   2.031
  654HOH      O 2148   1.531   3.001   2.502
  654HOH     H1 2149   1.620   3.035   2.488
  654HOH     H2 2150   1.534   2.962   2.589
  655HOH      O 2151   2.659   0.404   1.561
  655HOH     H1 2152   2.671   0.421   1.654
  655HOH     H2 2153   2.612   0.481   1.529
  656HOH      O 2154   0.055   0.401   0.886
  656HOH     H1 2155   0.083   0.355   0.965
  656HOH     H2 2156   0.079   0.492   0.902
  657HOH      O 2157   3.439   2.250   3.022
  657HOH     H1 2158   3.492   2.171   3.021
  657HOH     H2 2159   3.482   2.308   2.959
  658HOH      O 2160   0.563  -0.002   3.039
  658HOH     H1 2161   0.490   0.053   3.009
  658HOH     H2 2162   0.641   0.048   3.016
  659HOH      O 2163   2.742   2.506   2.048
  659HOH     H1 2164   2.830   2.534   2.074
  659HOH     H2 2165   2.748   2.495   1.953
  660HOH      O 2166   2.034   0.454   0.085
  660HOH     H1 2167   2.068   0.544   0.080
  660HOH     H2 2168   2.026   0.427  -0.006
  661HOH      O 2169   0.221   1.486   1.273
  661HOH     H1 2170   0.301   1.536   1.291
  661HOH     H2 2171   0.222   1.474   1.178
  662HOH      O 2172   3.801   2.694   3.756
  662HOH     H1 2173   3.825   2.602   3.748
  662HOH     H2 2174   3.706   2.694   3.762
  663HOH      O 2175   1.359   2.152   3.839
  663HOH     H1 2176   1.378   2.079   3.779
  663HOH     H2 2177   1.386   2.230   3.790
  664HOH      O 2178   0.002   2.484   0.628
  664HOH     H1 2179  -0.001   2.548   0.558
  664HOH     H2 2180   0.000   2.536   0.709
  665HOH      O 2181   3.427   3.916   3.882
  665HOH     H1 2182   3.509   3.939   3.838
  665HOH     H2 2183   3.384   4.001   3.899
  666HOH      O 2184   3.254   1.990   3.741
  666HOH     H1 2185   3.194   2.060   3.767
  666HOH     H2 2186   3.340   2.033   3.737
  667HOH      O 2187   1.296   1.872   3.222
  667HOH     H1 2188   1.354   1.808   3.182
  667HOH     H2 2189   1.213   1.825   3.233
  668HOH      O 2190   3.829   0.399   3.995
  668HOH     H1 2191   3.792   0.432   3.913
  668HOH     H2 2192   3.756   0.401   4.057
  669HOH      O 2193   0.454   3.759   0.709
  669HOH     H1 2194   0.410   3.817   0.772
  669HOH     H2 2195   0.525   3.812   0.673
  670HOH      O 2196   2.736   0.240   2.417
  670HOH     H1 2197   2.644   0.258   2.433
  670HOH     H2 2198   2.751   0.271   2.327
  671HOH      O 2199   1.374   1.545   3.237
  671HOH     H1 2200   1.406   1.569   3.150
  671HOH     H2 2201   1.399   1.453   3.247
  672HOH      O 2202   0.877   3.706   0.661
  672HOH     H1 2203   0.806   3.676   0.719
  672HOH     H2 2204   0.957   3.681   0.707
  673HOH      O 2205   3.382   1.448   3.374
  673HOH     H1 2206   3.308   1.396   3.407
  673HOH     H2 2207   3.420   1.486   3.453
  674HOH      O 2208   0.859   0.145   3.490
  674HOH     H1 2209   0.944   0.178   3.460
  674HOH     H2 2210   0.808   0.136   3.409
  675HOH      O 2211   1.530   2.635   2.383
  675HOH     H1 2212   1.459   2.668   2.437
  675HOH     H2 2213   1.607   2.640   2.440
  676HOH      O 2214   3.461   2.628   2.327
  676HOH     H1 2215   3.397   2.699   2.338
  676HOH     H2 2216   3.464   2.585   2.412
  677HOH      O 2217   3.034   1.403   1.847
  677HOH     H1 2218   2.967   1.336   1.832
  677HOH     H2 2219   2.994   1.463   1.910
  678HOH      O 2220   0.276   0.665   1.926
  678HOH     H1 2221   0.183   0.647   1.943
  678HOH     H2 2222   0.280   0.679   1.832
  679HOH      O 2223   3.780   0.462   0.594
  679HOH     H1 2224   3.798   0.406   0.669
  679HOH     H2 2225   3.725   0.408   0.537
  680HOH      O 2226   2.437   1.199   2.811
  680HOH     H1 2227   2.403   1.176   2.724
  680HOH     H2 2228   2.366   1.179   2.871
  681HOH      O 2229   2.263   0.312   3.621
  681HOH     H1 2230   2.227   0.401   3.618
  681HOH     H2 2231   2.357   0.323   3.608
  682HOH      O 2232   3.513   3.580   3.456
  682HOH     H1 2233   3.491   3.550   3.544
  682HOH     H2 2234   3.601   3.547   3.441
  683HOH      O 2235   2.747   1.996   1.378
  683HOH     H1 2236   2.795   1.926   1.423
  683HOH     H2 2237   2.667   1.954   1.347
  684HOH      O 2238   1.785   1.988   1.784
  684HOH     H1 2239   1.816   2.070   1.744
  684HOH     H2 2240   1.689   1.995   1.780
  685HOH      O 2241   1.041   0.069   3.187
  685HOH     H1 2242   0.980   0.142   3.174
  685HOH     H2 2243   0.984  -0.006   3.206
  686HOH      O 2244   0.306   0.731   0.143
  686HOH     H1 2245   0.309   0.639   0.170
  686HOH     H2 2246   0.350   0.732   0.058
  687HOH      O 2247   0.662   0.611   3.408
  687HOH     H1 2248   0.619   0.685   3.451
  687HOH     H2 2249   0.754   0.635   3.405
  688HOH      O 2250   1.145   1.851   1.396
  688HOH     H1 2251   1.154   1.763   1.358
  688HOH     H2 2252   1.190   1.909   1.335
  689HOH      O 2253   2.922   2.073   3.731
  689HOH     H1 2254   2.841   2.124   3.735
  689HOH     H2 2255   2.917   2.025   3.649
  690HOH      O 2256   0.888   2.337   0.957
  690HOH     H1 2257   0.862   2.429   0.954
  690HOH     H2 2258   0.921   2.325   1.047
  691HOH      O 2259   2.219   0.457   0.656
  691HOH     H1 2260   2.132   0.456   0.696
  691HOH     H2 2261   2.256   0.372   0.679
  692HOH      O 2262   0.903   1.463   3.052
  692HOH     H1 2263   0.982   1.434   3.098
  692HOH     H2 2264   0.874   1.385   3.005
  693HOH      O 2265   2.523   2.436   3.654
  693HOH     H1 2266   2.582   2.509   3.635
  693HOH     H2 2267   2.435   2.471   3.640
  694HOH      O 2268   3.023   1.735   2.206
  694HOH     H1 2269   3.111   1.771   2.213
  694HOH     H2 2270   2.968   1.798   2.252
  695HOH      O 2271   3.648   3.242   3.164
  695HOH     H1 2272   3.706   3.260   3.090
  695HOH     H2 2273   3.689   3.289   3.237
  696HOH      O 2274   3.834   1.197   3.050
  696HOH     H1 2275   3.840   1.111   3.092
  696HOH     H2 2276   3.903   1.248   3.092
  697HOH      O 2277   3.148   2.564   3.313
  697HOH     H1 2278   3.200   2.535   3.239
  697HOH     H2 2279   3.058   2.538   3.292
  698HOH      O 2280   3.845   1.508   0.650
  698HOH     H1 2281   3.909   1.566   0.607
  698HOH     H2 2282   3.761   1.551   0.636
  699HOH      O 2283   0.858   2.262   1.563
  699HOH     H1 2284   0.862   2.357   1.554
  699HOH     H2 2285   0.776   2.238   1.521
  700HOH      O 2286   1.363   2.238   3.346
  700HOH     H1 2287   1.330   2.252   3.435
  700HOH     H2 2288   1.441   2.185   3.358
  701HOH      O 2289   0.167   3.145   4.053
  701HOH     H1 2290   0.135   3.055   4.048
  701HOH     H2 2291   0.150   3.181   3.965
  702HOH      O 2292   0.713   1.528   0.610
  702HOH     H1 2293   0.743   1.519   0.520
  702HOH     H2 2294   0.712   1.439   0.645
  703HOH      O 2295   1.088   3.073   3.828
  703HOH     H1 2296   1.169   3.023   3.839
  703HOH     H2 2297   1.019   3.011   3.849
  704HOH      O 2298   0.757   2.836   2.666
  704HOH     H1 2299   0.786   2.780   2.738
  704HOH     H2 2300   0.788   2.924   2.688
  705HOH      O 2301   1.129   2.782   2.053
  705HOH     H1 2302   1.222   2.790   2.032
  705HOH     H2 2303   1.100   2.871   2.069
  706HOH      O 2304   2.346   1.709   0.440
  706HOH     H1 2305   2.268   1.746   0.397
  706HOH     H2 2306   2.313   1.675   0.523
  707HOH      O 2307   2.701   0.028   1.416
  707HOH     H1 2308   2.634   0.070   1.470
  707HOH     H2 2309   2.656   0.004   1.335
  708HOH      O 2310   3.697   3.062   0.451
  708HOH     H1 2311   3.650   2.986   0.415
  708HOH     H2 2312   3.652   3.138   0.414
  709HOH      O 2313   1.340   3.185   1.989
  709HOH     H1 2314   1.434   3.204   1.986
  709HOH     H2 2315   1.300   3.268   2.015
  710HOH      O 2316   2.031   0.426   3.828
  710HOH     H1 2317   2.093   0.353   3.838
  710HOH     H2 2318   2.003   0.422   3.737
  711HOH      O 2319   0.410  -0.005   0.799
  711HOH     H1 2320   0.349  -0.004   0.872
  711HOH     H2 2321   0.443   0.084   0.793
  712HOH      O 2322   2.003   0.591   0.363
  712HOH     H1 2323   1.956   0.672   0.341
  712HOH     H2 2324   1.979   0.531   0.292
  713HOH      O 2325   0.088   0.935   1.387
  713HOH     H1 2326   0.051   0.931   1.475
  713HOH     H2 2327   0.125   0.848   1.372
  714HOH      O 2328   1.219   3.315   3.296
  714HOH     H1 2329   1.240   3.385   3.235
  714HOH     H2 2330   1.284   3.247   3.277
  715HOH      O 2331   0.226   3.897   1.134
  715HOH     H1 2332   0.319   3.874   1.131
  715HOH     H2 2333   0.206   3.909   1.227
  716HOH      O 2334   3.717   0.751   0.939
  716HOH     H1 2335   3.786   0.699   0.980
  716HOH     H2 2336   3.754   0.839   0.932
  717HOH      O 2337   2.474   0.802   1.850
  717HOH     H1 2338   2.397   0.839   1.892
  717HOH     H2 2339   2.537   0.874   1.849
  718HOH      O 2340   3.044   1.224   1.100
  718HOH     H1 2341   3.098   1.150   1.074
  718HOH     H2 2342   2.974   1.227   1.035
  719HOH      O 2343   2.272   2.028   3.800
  719HOH     H1 2344   2.214   2.104   3.808
  719HOH     H2 2345   2.212   1.953   3.794
  720HOH      O 2346   2.542   2.443   3.246
  720HOH     H1 2347   2.543   2.522   3.301
  720HOH     H2 2348   2.468   2.392   3.279
  721HOH      O 2349   2.559   0.931   3.209
  721HOH     H1 2350   2.597   0.952   3.124
  721HOH     H2 2351   2.474   0.975   3.208
  722HOH      O 2352   2.603   4.024   2.693
  722HOH     H1 2353   2.639   3.973   2.766
  722HOH     H2 2354   2.509   4.006   2.694
  723HOH      O 2355   3.109   0.371   3.663
  723HOH     H1 2356   3.034   0.429   3.648
  723HOH     H2 2357   3.178   0.408   3.607
  724HOH      O 2358   2.873   0.526   2.018
  724HOH     H1 2359   2.958   0.542   2.058
  724HOH     H2 2360   2.821   0.604   2.039
  725HOH      O 2361   2.753   1.066   1.102
  725HOH     H1 2362   2.659   1.049   1.108
  725HOH     H2 2363   2.794   0.981   1.122
  726HOH      O 2364   3.350   1.159   2.948
  726HOH     H1 2365   3.355   1.251   2.974
  726HOH     H2 2366   3.379   1.111   3.025
  727HOH      O 2367   3.486   3.496   3.723
  727HOH     H1 2368   3.509   3.411   3.762
  727HOH     H2 2369   3.570   3.536   3.702
  728HOH      O 2370   1.742   0.997   3.664
  728HOH     H1 2371   1.799   0.977   3.589
  728HOH     H2 2372   1.802   1.028   3.732
  729HOH      O 2373   3.611   1.310   3.300
  729HOH     H1 2374   3.522   1.344   3.310
  729HOH     H2 2375   3.600   1.215   3.298
  730HOH      O 2376   2.734   1.598   2.375
  730HOH     H1 2377   2.740   1.690   2.349
  730HOH     H2 2378   2.762   1.597   2.466
  731HOH      O 2379   1.320   3.565   0.933
  731HOH     H1 2380   1.370   3.623   0.990
  731HOH     H2 2381   1.318   3.481   0.981
  732HOH      O 2382   1.769   0.032   0.320
  732HOH     H1 2383   1.708   0.053   0.249
  732HOH     H2 2384   1.813   0.115   0.339
  733HOH      O 2385   3.595   3.394   0.816
  733HOH     H1 2386   3.609   3.301   0.799
  733HOH     H2 2387   3.682   3.429   0.834
  734HOH      O 2388   3.279   2.136   0.247
  734HOH     H1 2389   3.343   2.193   0.204
  734HOH     H2 2390   3.286   2.053   0.201
  735HOH      O 2391   1.297   2.763   0.989
  735HOH     H1 2392   1.336   2.687   1.034
  735HOH     H2 2393   1.204   2.759   1.013
  736HOH      O 2394   0.478   0.706   3.952
  736HOH     H1 2395   0.498   0.788   3.906
  736HOH     H2 2396   0.472   0.640   3.883
  737HOH      O 2397   0.776   1.484   0.951
  737HOH     H1 2398   0.748   1.402   0.990
  737HOH     H2 2399   0.695   1.532   0.935
  738HOH      O 2400   2.963   2.928   1.619
  738HOH     H1 2401   2.892   2.991   1.600
  738HOH     H2 2402   3.026   2.942   1.548
  739HOH      O 2403   3.177   3.649   1.465
  739HOH     H1 2404   3.129   3.729   1.488
  739HOH     H2 2405   3.242   3.678   1.401
  740HOH      O 2406   3.949   1.554   2.123
  740HOH     H1 2407   4.014   1.525   2.186
  740HOH     H2 2408   3.904   1.627   2.166
  741HOH      O 2409   3.357   2.822   2.965
  741HOH     H1 2410   3.366   2.915   2.984
  741HOH     H2 2411   3.264   2.809   2.948
  742HOH      O 2412   1.120   1.317   3.253
  742HOH     H1 2413   1.197   1.371   3.234
  742HOH     H2 2414   1.099   1.336   3.345
  743HOH      O 2415   3.220   2.679   2.044
  743HOH     H1 2416   3.307   2.710   2.070
  743HOH     H2 2417   3.168   2.759   2.033
  744HOH      O 2418   1.220   1.683   1.965
  744HOH     H1 2419   1.129   1.682   1.994
  744HOH     H2 2420   1.253   1.596   1.987
  745HOH      O 2421   3.561   2.929   0.081
  745HOH     H1 2422   3.591   2.942  -0.009
  745HOH     H2 2423   3.552   3.018   0.116
  746HOH      O 2424   0.551   3.120   3.383
  746HOH     H1 2425   0.466   3.113   3.427
  746HOH     H2 2426   0.532   3.097   3.292
  747HOH      O 2427   2.640   3.270   1.886
  747HOH     H1 2428   2.668   3.303   1.971
  747HOH     H2 2429   2.712   3.212   1.858
  748HOH      O 2430   0.154   1.886   2.408
  748HOH     H1 2431   0.155   1.831   2.486
  748HOH     H2 2432   0.133   1.973   2.441
  749HOH      O 2433   0.912   2.895   1.854
  749HOH     H1 2434   0.821   2.889   1.883
  749HOH     H2 2435   0.945   2.806   1.860
  750HOH      O 2436   2.034   2.125   3.192
  750HOH     H1 2437   2.068   2.102   3.278
  750HOH     H2 2438   1.939   2.128   3.204
  751HOH      O 2439   1.559   2.045   1.933
  751HOH     H1 2440   1.506   1.971   1.963
  751HOH     H2 2441   1.585   2.090   2.014
  752HOH      O 2442   3.232   3.754   3.982
  752HOH     H1 2443   3.170   3.816   4.019
  752HOH     H2 2444   3.307   3.807   3.955
  753HOH      O 2445   2.588   1.346   3.229
  753HOH     H1 2446   2.602   1.439   3.216
  753HOH     H2 2447   2.596   1.333   3.324
  754HOH      O 2448   0.612   0.071   0.471
  754HOH     H1 2449   0.689   0.122   0.497
  754HOH     H2 2450   0.641  -0.020   0.474
  755HOH      O 2451   3.318   0.286   3.275
  755HOH     H1 2452   3.292   0.271   3.184
  755HOH     H2 2453   3.242   0.261   3.326
  756HOH      O 2454   3.209   2.764   3.811
  756HOH     H1 2455   3.264   2.795   3.739
  756HOH     H2 2456   3.188   2.843   3.860
  757HOH      O 2457   3.841   2.041   2.853
  757HOH     H1 2458   3.909   2.105   2.874
  757HOH     H2 2459   3.878   1.991   2.780
  758HOH      O 2460   0.047   2.042   3.283
  758HOH     H1 2461   0.026   2.047   3.376
  758HOH     H2 2462   0.076   1.952   3.269
  759HOH      O 2463   3.624   3.745   0.925
  759HOH     H1 2464   3.703   3.694   0.907
  759HOH     H2 2465   3.620   3.749   1.021
  760HOH      O 2466   0.808   1.556   3.454
  760HOH     H1 2467   0.851   1.639   3.475
  760HOH     H2 2468   0.874   1.489   3.474
  761HOH      O 2469   2.730   2.948   0.447
  761HOH     H1 2470   2.698   3.006   0.378
  761HOH     H2 2471   2.678   2.868   0.438
  762HOH      O 2472   1.407   1.417   2.621
  762HOH     H1 2473   1.412   1.406   2.526
  762HOH     H2 2474   1.339   1.355   2.648
  763HOH      O 2475   2.866   3.234   2.392
  763HOH     H1 2476   2.787   3.181   2.382
  763HOH     H2 2477   2.834   3.321   2.417
  764HOH      O 2478   0.692   2.694   1.855
  764HOH     H1 2479   0.643   2.735   1.926
  764HOH     H2 2480   0.742   2.624   1.898
  765HOH      O 2481   2.848   0.876   2.323
  765HOH     H1 2482   2.857   0.930   2.402
  765HOH     H2 2483   2.764   0.904   2.285
  766HOH      O 2484   1.550   3.664   3.083
  766HOH     H1 2485   1.584   3.751   3.062
  766HOH     H2 2486   1.507   3.675   3.168
  767HOH      O 2487   2.448   2.978   0.355
  767HOH     H1 2488   2.467   2.884   0.353
  767HOH     H2 2489   2.487   3.011   0.274
  768HOH      O 2490   1.115   2.995   3.556
  768HOH     H1 2491   1.105   3.014   3.649
  768HOH     H2 2492   1.078   3.071   3.512
  769HOH      O 2493   0.904   0.936   3.405
  769HOH     H1 2494   0.920   0.954   3.498
  769HOH     H2 2495   0.919   0.842   3.396
  770HOH      O 2496   2.780   2.551   2.471
  770HOH     H1 2497   2.742   2.466   2.448
  770HOH     H2 2498   2.725   2.584   2.542
  771HOH      O 2499   3.486   1.301   1.313
  771HOH     H1 2500   3.395   1.274   1.302
  771HOH     H2 2501   3.498   1.304   1.408
  772HOH      O 2502   1.446   2.401   3.765
  772HOH     H1 2503   1.441   2.404   3.861
  772HOH     H2 2504   1.434   2.492   3.738
  773HOH      O 2505   1.344   0.822   0.186
  773HOH     H1 2506   1.255   0.789   0.193
  773HOH     H2 2507   1.366   0.853   0.274
  774HOH      O 2508   3.210   3.816   3.126
  774HOH     H1 2509   3.127   3.769   3.120
  774HOH     H2 2510   3.221   3.834   3.219
  775HOH      O 2511   2.352   0.452   3.985
  775HOH     H1 2512   2.305   0.369   3.993
  775HOH     H2 2513   2.432   0.429   3.937
  776HOH      O 2514   1.416   0.757   0.499
  776HOH     H1 2515   1.447   0.833   0.549
  776HOH     H2 2516   1.326   0.778   0.476
  777HOH      O 2517   1.809   1.589   3.990
  777HOH     H1 2518   1.843   1.502   4.012
  777HOH     H2 2519   1.723   1.592   4.033
  778HOH      O 2520   3.460   2.240   2.007
  778HOH     H1 2521   3.440   2.265   2.098
  778HOH     H2 2522   3.490   2.320   1.966
  779HOH      O 2523   0.618   1.322   0.101
  779HOH     H1 2524   0.712   1.330   0.118
  779HOH     H2 2525   0.578   1.393   0.151
  780HOH      O 2526   0.163   2.879   3.537
  780HOH     H1 2527   0.131   2.868   3.626
  780HOH     H2 2528   0.084   2.874   3.482
  781HOH      O 2529   3.100   3.285   2.098
  781HOH     H1 2530   3.184   3.318   2.129
  781HOH     H2 2531   3.122   3.228   2.025
  782HOH      O 2532   2.958   1.113   2.511
  782HOH     H1 2533   2.925   1.143   2.596
  782HOH     H2 2534   2.968   1.192   2.459
  783HOH      O 2535   1.864   0.617   1.186
  783HOH     H1 2536   1.879   0.629   1.280
  783HOH     H2 2537   1.951   0.624   1.147
  784HOH      O 2538   1.323   1.619   2.333
  784HOH     H1 2539   1.399   1.565   2.314
  784HOH     H2 2540   1.357   1.708   2.337
  785HOH      O 2541   1.650   1.051   1.501
  785HOH     H1 2542   1.643   0.973   1.557
  785HOH     H2 2543   1.605   1.120   1.550
  786HOH      O 2544   1.849   1.144   0.833
  786HOH     H1 2545   1.932   1.178   0.867
  786HOH     H2 2546   1.859   1.146   0.738
  787HOH      O 2547   2.453   2.869   1.023
  787HOH     H1 2548   2.371   2.863   1.072
  787HOH     H2 2549   2.432   2.926   0.949
  788HOH      O 2550   1.319   0.637   1.588
  788HOH     H1 2551   1.406   0.667   1.563
  788HOH     H2 2552   1.277   0.613   1.505
  789HOH      O 2553   0.610   3.087   2.038
  789HOH     H1 2554   0.691   3.108   1.990
  789HOH     H2 2555   0.640   3.055   2.123
  790HOH      O 2556   1.502   1.265   0.985
  790HOH     H1 2557   1.547   1.326   0.927
  790HOH     H2 2558   1.438   1.319   1.032
  791HOH      O 2559   3.830   2.701   3.048
  791HOH     H1 2560   3.837   2.796   3.051
  791HOH     H2 2561   3.740   2.682   3.073
  792HOH      O 2562   3.385   0.804   2.441
  792HOH     H1 2563   3.431   0.749   2.505
  792HOH     H2 2564   3.336   0.867   2.494
  793HOH      O 2565   3.868   2.110   0.607
  793HOH     H1 2566   3.817   2.036   0.641
  793HOH     H2 2567   3.922   2.072   0.537
  794HOH      O 2568   0.853   1.728   3.038
  794HOH     H1 2569   0.837   1.743   2.945
  794HOH     H2 2570   0.867   1.633   3.044
  795HOH      O 2571   0.960   3.375   2.680
  795HOH     H1 2572   1.010   3.446   2.641
  795HOH     H2 2573   0.994   3.369   2.770
  796HOH      O 2574   3.040   2.235   3.007
  796HOH     H1 2575   3.061   2.156   2.958
  796HOH     H2 2576   2.988   2.205   3.081
  797HOH      O 2577   0.452   2.683   0.384
  797HOH     H1 2578   0.445   2.587   0.380
  797HOH     H2 2579   0.380   2.714   0.329
  798HOH      O 2580   3.041   1.765   0.237
  798HOH     H1 2581   3.101   1.808   0.176
  798HOH     H2 2582   2.954   1.793   0.207
  799HOH      O 2583   3.126   3.048   2.359
  799HOH     H1 2584   3.133   3.120   2.296
  799HOH     H2 2585   3.076   3.085   2.432
  800HOH      O 2586   2.141   2.339   3.964
  800HOH     H1 2587   2.136   2.415   4.022
  800HOH     H2 2588   2.145   2.264   4.023
  801HOH      O 2589   3.012   0.940   1.882
  801HOH     H1 2590   2.980   0.861   1.838
  801HOH     H2 2591   3.025   0.914   1.973
  802HOH      O 2592   0.196   3.929   3.398
  802HOH     H1 2593   0.137   3.987   3.348
  802HOH     H2 2594   0.167   3.841   3.375
  803HOH      O 2595   0.654   3.037   1.475
  803HOH     H1 2596   0.644   2.965   1.538
  803HOH     H2 2597   0.642   2.996   1.390
  804HOH      O 2598   1.344   3.502   0.130
  804HOH     H1 2599   1.305   3.422   0.164
  804HOH     H2 2600   1.434   3.478   0.109
  805HOH      O 2601   0.821   1.647   0.190
  805HOH     H1 2602   0.872   1.579   0.235
  805HOH     H2 2603   0.787   1.603   0.112
  806HOH      O 2604   3.224   3.519   3.860
  806HOH     H1 2605   3.214   3.600   3.910
  806HOH     H2 2606   3.304   3.533   3.808
  807HOH      O 2607   3.301   2.947   1.751
  807HOH     H1 2608   3.219   2.968   1.706
  807HOH     H2 2609   3.321   2.857   1.722
  808HOH      O 2610   0.064   0.161   2.231
  808HOH     H1 2611   0.131   0.223   2.203
  808HOH     H2 2612  -0.018   0.197   2.198
  809HOH      O 2613   1.844   1.646   1.649
  809HOH     H1 2614   1.785   1.671   1.720
  809HOH     H2 2615   1.858   1.552   1.662
  810HOH      O 2616   2.279   1.862   1.376
  810HOH     H1 2617   2.325   1.825   1.451
  810HOH     H2 2618   2.202   1.806   1.364
  811HOH      O 2619   2.975   1.035   0.043
  811HOH     H1 2620   2.966   0.983   0.123
  811HOH     H2 2621   3.018   1.116   0.072
  812HOH      O 2622   2.994   2.692   2.801
  812HOH     H1 2623   2.970   2.600   2.806
  812HOH     H2 2624   3.010   2.718   2.892
  813HOH      O 2625   2.436   3.034   2.139
  813HOH     H1 2626   2.434   3.080   2.223
  813HOH     H2 2627   2.487   2.956   2.156
  814HOH      O 2628   3.655   2.134   1.020
  814HOH     H1 2629   3.628   2.065   0.958
  814HOH     H2 2630   3.715   2.090   1.080
  815HOH      O 2631   0.496   2.428   0.334
  815HOH     H1 2632   0.555   2.423   0.409
  815HOH     H2 2633   0.550   2.464   0.264
  816HOH      O 2634   2.565   2.350   2.557
  816HOH     H1 2635   2.556   2.276   2.496
  816HOH     H2 2636   2.478   2.390   2.559
  817HOH      O 2637   3.502   3.826   3.137
  817HOH     H1 2638   3.451   3.893   3.182
  817HOH     H2 2639   3.465   3.743   3.168
  818HOH      O 2640   1.379   2.128   1.321
  818HOH     H1 2641   1.368   2.131   1.226
  818HOH     H2 2642   1.291   2.109   1.355
  819HOH      O 2643   0.317   0.696   1.644
  819HOH     H1 2644   0.409   0.721   1.648
  819HOH     H2 2645   0.269   0.778   1.654
  820HOH      O 2646   3.847   0.709   0.592
  820HOH     H1 2647   3.772   0.769   0.591
  820HOH     H2 2648   3.807   0.622   0.593
  821HOH      O 2649   0.028   2.392   0.261
  821HOH     H1 2650   0.107   2.341   0.275
  821HOH     H2 2651   0.036   2.467   0.320
  822HOH      O 2652   0.904   1.663   1.108
  822HOH     H1 2653   0.873   1.593   1.050
  822HOH     H2 2654   0.890   1.743   1.059
  823HOH      O 2655   2.160   1.263   3.468
  823HOH     H1 2656   2.101   1.229   3.402
  823HOH     H2 2657   2.109   1.261   3.549
  824HOH      O 2658   1.056   1.575   2.754
  824HOH     H1 2659   0.991   1.511   2.781
  824HOH     H2 2660   1.007   1.657   2.743
  825HOH      O 2661   3.084   2.213   1.814
  825HOH     H1 2662   3.110   2.255   1.896
  825HOH     H2 2663   3.148   2.143   1.802
  826HOH      O 2664   0.206   2.252   3.627
  826HOH     H1 2665   0.205   2.164   3.590
  826HOH     H2 2666   0.237   2.240   3.717
  827HOH      O 2667   2.647   3.981   1.031
  827HOH     H1 2668   2.572   3.960   1.087
  827HOH     H2 2669   2.615   3.972   0.942
  828HOH      O 2670   1.470   2.720   1.369
  828HOH     H1 2671   1.558   2.740   1.402
  828HOH     H2 2672   1.411   2.744   1.441
  829HOH      O 2673   2.555   2.824   2.498
  829HOH     H1 2674   2.649   2.840   2.502
  829HOH     H2 2675   2.542   2.744   2.549
  830HOH      O 2676   0.859   0.824   2.832
  830HOH     H1 2677   0.935   0.773   2.805
  830HOH     H2 2678   0.826   0.864   2.752
  831HOH      O 2679   2.529   0.392   2.014
  831HOH     H1 2680   2.498   0.389   2.104
  831HOH     H2 2681   2.480   0.465   1.974
  832HOH      O 2682   2.418   0.299   2.253
  832HOH     H1 2683   2.440   0.315   2.345
  832HOH     H2 2684   2.388   0.209   2.252
  833HOH      O 2685   0.525   1.175   1.764
  833HOH     H1 2686   0.562   1.090   1.790
  833HOH     H2 2687   0.492   1.213   1.845
  834HOH      O 2688   0.841   1.808   2.322
  834HOH     H1 2689   0.915   1.764   2.363
  834HOH     H2 2690   0.772   1.806   2.389
  835HOH      O 2691   2.865   0.872   0.526
  835HOH     H1 2692   2.790   0.814   0.536
  835HOH     H2 2693   2.894   0.890   0.615
  836HOH      O 2694   0.987   1.132   2.697
  836HOH     H1 2695   0.965   1.133   2.790
  836HOH     H2 2696   0.963   1.044   2.668
  837HOH      O 2697   0.839   0.388   2.962
  837HOH     H1 2698   0.925   0.407   2.924
  837HOH     H2 2699   0.835   0.292   2.965
  838HOH      O 2700   2.459   2.185   2.133
  838HOH     H1 2701   2.469   2.276   2.163
  838HOH     H2 2702   2.419   2.193   2.047
  839HOH      O 2703   3.493   3.347   1.911
  839HOH     H1 2704   3.505   3.301   1.828
  839HOH     H2 2705   3.581   3.352   1.949
  840HOH      O 2706   1.520   1.426   2.296
  840HOH     H1 2707   1.482   1.370   2.229
  840HOH     H2 2708   1.604   1.386   2.317
  841HOH      O 2709   3.573   0.920   0.712
  841HOH     H1 2710   3.647   0.889   0.764
  841HOH     H2 2711   3.611   0.987   0.655
  842HOH      O 2712   0.684   3.079   3.695
  842HOH     H1 2713   0.723   3.158   3.659
  842HOH     H2 2714   0.704   3.011   3.631
  843HOH      O 2715   2.327   2.069   2.955
  843HOH     H1 2716   2.308   1.988   2.909
  843HOH     H2 2717   2.325   2.045   3.048
  844HOH      O 2718   0.981   1.292   0.550
  844HOH     H1 2719   1.059   1.239   0.567
  844HOH     H2 2720   0.977   1.353   0.623
  845HOH      O 2721   2.028   3.210   2.324
  845HOH     H1 2722   2.020   3.300   2.357
  845HOH     H2 2723   2.090   3.168   2.383
  846HOH      O 2724   3.379   3.276   3.083
  846HOH     H1 2725   3.356   3.208   3.019
  846HOH     H2 2726   3.474   3.272   3.089
  847HOH      O 2727   2.448   1.136   0.112
  847HOH     H1 2728   2.542   1.125   0.102
  847HOH     H2 2729   2.438   1.173   0.199
  848HOH      O 2730   0.048   3.333   1.135
  848HOH     H1 2731   0.103   3.269   1.181
  848HOH     H2 2732   0.051   3.411   1.190
  849HOH      O 2733   1.749   3.860   2.008
  849HOH     H1 2734   1.666   3.836   1.966
  849HOH     H2 2735   1.794   3.776   2.023
  850HOH      O 2736   1.098   1.457   2.207
  850HOH     H1 2737   1.166   1.512   2.247
  850HOH     H2 2738   1.077   1.394   2.275
  851HOH      O 2739   1.797   1.488   1.960
  851HOH     H1 2740   1.750   1.564   1.926
  851HOH     H2 2741   1.886   1.497   1.925
  852HOH      O 2742   1.374   0.145   3.680
  852HOH     H1 2743   1.370   0.069   3.622
  852HOH     H2 2744   1.341   0.112   3.764
  853HOH      O 2745   0.092   3.102   1.355
  853HOH     H1 2746   0.173   3.070   1.393
  853HOH     H2 2747   0.076   3.186   1.399
  854HOH      O 2748   3.305   1.715   3.280
  854HOH     H1 2749   3.229   1.685   3.230
  854HOH     H2 2750   3.337   1.637   3.325
  855HOH      O 2751   1.390   0.367   2.550
  855HOH     H1 2752   1.359   0.378   2.460
  855HOH     H2 2753   1.363   0.278   2.573
  856HOH      O 2754   0.228   1.946   0.401
  856HOH     H1 2755   0.318   1.931   0.373
  856HOH     H2 2756   0.226   2.038   0.427
  857HOH      O 2757   0.585   0.772   1.637
  857HOH     H1 2758   0.569   0.821   1.557
  857HOH     H2 2759   0.615   0.838   1.700
  858HOH      O 2760   0.887   3.883   3.236
  858HOH     H1 2761   0.919   3.797   3.262
  858HOH     H2 2762   0.825   3.865   3.165
  859HOH      O 2763   2.680   3.325   2.151
  859HOH     H1 2764   2.726   3.303   2.232
  859HOH     H2 2765   2.591   3.347   2.180
  860HOH      O 2766   0.424   0.427   0.524
  860HOH     H1 2767   0.401   0.402   0.434
  860HOH     H2 2768   0.362   0.496   0.546
  861HOH      O 2769   3.660   2.173   0.347
  861HOH     H1 2770   3.746   2.137   0.325
  861HOH     H2 2771   3.674   2.220   0.429
  862HOH      O 2772   0.075   0.094   0.752
  862HOH     H1 2773   0.115   0.175   0.784
  862HOH     H2 2774   0.142   0.055   0.696
  863HOH      O 2775   1.790   3.784   1.348
  863HOH     H1 2776   1.848   3.818   1.280
  863HOH     H2 2777   1.757   3.862   1.392
  864HOH      O 2778   0.641   2.494   2.974
  864HOH     H1 2779   0.710   2.545   2.931
  864HOH     H2 2780   0.577   2.559   3.003
  865HOH      O 2781   3.249   2.103   0.613
  865HOH     H1 2782   3.155   2.101   0.599
  865HOH     H2 2783   3.281   2.020   0.578
  866HOH      O 2784   2.525   0.647   3.767
  866HOH     H1 2785   2.481   0.574   3.810
  866HOH     H2 2786   2.495   0.642   3.676
  867HOH      O 2787   2.760   3.146   0.775
  867HOH     H1 2788   2.844   3.142   0.821
  867HOH     H2 2789   2.773   3.212   0.707
  868HOH      O 2790   2.340   0.886   0.178
  868HOH     H1 2791   2.352   0.976   0.147
  868HOH     H2 2792   2.429   0.854   0.195
  869HOH      O 2793   2.714   0.561   2.427
  869HOH     H1 2794   2.672   0.606   2.354
  869HOH     H2 2795   2.713   0.625   2.498
  870HOH      O 2796   0.505   1.917   1.965
  870HOH     H1 2797   0.420   1.914   2.008
  870HOH     H2 2798   0.553   1.986   2.010
  871HOH      O 2799   3.603   2.386   3.857
  871HOH     H1 2800   3.689   2.402   3.818
  871HOH     H2 2801   3.546   2.452   3.817
  872HOH      O 2802   3.449   1.763   0.006
  872HOH     H1 2803   3.517   1.759  -0.060
  872HOH     H2 2804   3.463   1.686   0.061
  873HOH      O 2805   3.532   3.455   1.327
  873HOH     H1 2806   3.598   3.454   1.258
  873HOH     H2 2807   3.495   3.367   1.326
  874HOH      O 2808   0.516   2.301   0.783
  874HOH     H1 2809   0.429   2.318   0.820
  874HOH     H2 2810   0.554   2.387   0.768
  875HOH      O 2811   2.209   0.580   3.590
  875HOH     H1 2812   2.266   0.626   3.528
  875HOH     H2 2813   2.124   0.622   3.579
  876HOH      O 2814   0.552   2.800   2.474
  876HOH     H1 2815   0.556   2.884   2.428
  876HOH     H2 2816   0.626   2.802   2.534
  877HOH      O 2817   2.207   3.553   0.556
  877HOH     H1 2818   2.115   3.543   0.578
  877HOH     H2 2819   2.222   3.493   0.483
  878HOH      O 2820   3.093   1.637   3.135
  878HOH     H1 2821   3.004   1.660   3.162
  878HOH     H2 2822   3.117   1.706   3.074
  879HOH      O 2823   1.588   0.869   1.746
  879HOH     H1 2824   1.639   0.897   1.823
  879HOH     H2 2825   1.529   0.802   1.780
  880HOH      O 2826   3.921   2.444   3.720
  880HOH     H1 2827   3.943   2.449   3.627
  880HOH     H2 2828   3.914   2.350   3.738
  881HOH      O 2829   0.061   0.577   3.420
  881HOH     H1 2830   0.064   0.502   3.360
  881HOH     H2 2831   0.153   0.601   3.433
  882HOH      O 2832   0.559   0.292   2.999
  882HOH     H1 2833   0.546   0.336   2.915
  882HOH     H2 2834   0.471   0.272   3.029
  883HOH      O 2835   0.342   3.475   1.134
  883HOH     H1 2836   0.376   3.535   1.200
  883HOH     H2 2837   0.377   3.389   1.158
  884HOH      O 2838   1.973   2.650   1.666
  884HOH     H1 2839   2.042   2.603   1.620
  884HOH     H2 2840   1.974   2.738   1.628
  885HOH      O 2841   0.162   1.795   1.128
  885HOH     H1 2842   0.091   1.820   1.186
  885HOH     H2 2843   0.240   1.837   1.166
  886HOH      O 2844   0.488   3.578   2.809
  886HOH     H1 2845   0.420   3.540   2.754
  886HOH     H2 2846   0.570   3.557   2.765
  887HOH      O 2847   2.962   3.036   0.572
  887HOH     H1 2848   2.885   3.010   0.522
  887HOH     H2 2849   2.935   3.116   0.617
  888HOH      O 2850   0.420   1.414   2.460
  888HOH     H1 2851   0.469   1.457   2.390
  888HOH     H2 2852   0.328   1.432   2.440
  889HOH      O 2853   3.324   1.126   3.655
  889HOH     H1 2854   3.255   1.157   3.597
  889HOH     H2 2855   3.403   1.171   3.625
  890HOH      O 2856   0.361   3.800   1.530
  890HOH     H1 2857   0.433   3.856   1.558
  890HOH     H2 2858   0.403   3.732   1.477
  891HOH      O 2859   3.910   2.040   0.299
  891HOH     H1 2860   3.972   2.058   0.229
  891HOH     H2 2861   3.914   1.945   0.311
  892HOH      O 2862   2.218   0.169   1.876
  892HOH     H1 2863   2.212   0.234   1.946
  892HOH     H2 2864   2.185   0.088   1.915
  893HOH      O 2865   1.622   3.667   2.247
  893HOH     H1 2866   1.607   3.668   2.153
  893HOH     H2 2867   1.715   3.689   2.256
  894HOH      O 2868   2.527   2.752   2.133
  894HOH     H1 2869   2.474   2.701   2.072
  894HOH     H2 2870   2.508   2.714   2.219
  895HOH      O 2871   1.352   2.533   1.155
  895HOH     H1 2872   1.404   2.594   1.208
  895HOH     H2 2873   1.282   2.503   1.213
  896HOH      O 2874   1.175   1.277   4.041
  896HOH     H1 2875   1.185   1.292   3.948
  896HOH     H2 2876   1.120   1.198   4.047
  897HOH      O 2877   2.596   2.962   1.459
  897HOH     H1 2878   2.504   2.945   1.437
  897HOH     H2 2879   2.595   3.050   1.498
  898HOH      O 2880   1.255   2.288   0.267
  898HOH     H1 2881   1.255   2.354   0.336
  898HOH     H2 2882   1.273   2.206   0.313
  899HOH      O 2883   1.290   3.066   2.852
  899HOH     H1 2884   1.291   3.160   2.871
  899HOH     H2 2885   1.307   3.024   2.936
  900HOH      O 2886  -0.016   0.197   3.540
  900HOH     H1 2887  -0.021   0.111   3.583
  900HOH     H2 2888   0.038   0.249   3.599
  901HOH      O 2889   2.702   3.090   3.189
  901HOH     H1 2890   2.715   2.999   3.163
  901HOH     H2 2891   2.711   3.139   3.108
  902HOH      O 2892   2.622   1.743   3.411
  902HOH     H1 2893   2.689   1.809   3.394
  902HOH     H2 2894   2.657   1.690   3.482
  903HOH      O 2895   1.654   1.116   4.013
  903HOH     H1 2896   1.654   1.173   3.936
  903HOH     H2 2897   1.562   1.108   4.037
  904HOH      O 2898   2.849   1.722   3.231
  904HOH     H1 2899   2.763   1.680   3.223
  904HOH     H2 2900   2.829   1.816   3.237
  905HOH      O 2901   1.858   2.441   0.625
  905HOH     H1 2902   1.808   2.477   0.699
  905HOH     H2 2903   1.908   2.369   0.663
  906HOH      O 2904   3.429   1.694   3.053
  906HOH     H1 2905   3.525   1.695   3.053
  906HOH     H2 2906   3.406   1.709   3.144
  907HOH      O 2907   1.837   0.758   1.652
  907HOH     H1 2908   1.748   0.793   1.656
  907HOH     H2 2909   1.831   0.684   1.592
  908HOH      O 2910   3.514   0.691   1.438
  908HOH     H1 2911   3.530   0.785   1.425
  908HOH     H2 2912   3.464   0.664   1.362
  909HOH      O 2913   3.519   3.640   2.038
  909HOH     H1 2914   3.565   3.651   1.955
  909HOH     H2 2915   3.427   3.649   2.016
  910HOH      O 2916   3.658   3.800   2.237
  910HOH     H1 2917   3.606   3.761   2.167
  910HOH     H2 2918   3.746   3.764   2.226
  911HOH      O 2919   0.300   3.233   2.205
  911HOH     H1 2920   0.330   3.323   2.192
  911HOH     H2 2921   0.364   3.195   2.264
  912HOH      O 2922   1.975   1.162   3.090
  912HOH     H1 2923   1.939   1.118   3.167
  912HOH     H2 2924   1.935   1.249   3.092
  913HOH      O 2925   3.855   2.144   2.144
  913HOH     H1 2926   3.936   2.094   2.159
  913HOH     H2 2927   3.790   2.077   2.123
  914HOH      O 2928   1.499   3.828   3.569
  914HOH     H1 2929   1.520   3.796   3.657
  914HOH     H2 2930   1.551   3.908   3.560
  915HOH      O 2931   0.754   3.333   0.971
  915HOH     H1 2932   0.787   3.342   0.882
  915HOH     H2 2933   0.831   3.347   1.027
  916HOH      O 2934   2.448   2.999   3.151
  916HOH     H1 2935   2.442   2.978   3.058
  916HOH     H2 2936   2.408   3.086   3.158
  917HOH      O 2937   3.871   3.773   2.560
  917HOH     H1 2938   3.895   3.855   2.517
  917HOH     H2 2939   3.910   3.705   2.506
  918HOH      O 2940   0.375   0.525   3.166
  918HOH     H1 2941   0.352   0.554   3.254
  918HOH     H2 2942   0.468   0.545   3.158
  919HOH      O 2943   0.723   3.784   0.013
  919HOH     H1 2944   0.808   3.752   0.043
  919HOH     H2 2945   0.738   3.875  -0.013
  920HOH      O 2946   3.875   0.264   2.145
  920HOH     H1 2947   3.800   0.216   2.179
  920HOH     H2 2948   3.845   0.299   2.061
  921HOH      O 2949   2.405   0.560   1.770
  921HOH     H1 2950   2.446   0.645   1.787
  921HOH     H2 2951   2.414   0.548   1.676
  922HOH      O 2952   1.825   3.457   2.457
  922HOH     H1 2953   1.845   3.499   2.373
  922HOH     H2 2954   1.753   3.508   2.494
  923HOH      O 2955   2.874   1.957   2.919
  923HOH     H1 2956   2.782   1.953   2.945
  923HOH     H2 2957   2.907   1.868   2.934
  924HOH      O 2958   1.819   1.028   1.252
  924HOH     H1 2959   1.771   1.063   1.177
  924HOH     H2 2960   1.795   0.936   1.255
  925HOH      O 2961   2.937   1.855   3.993
  925HOH     H1 2962   2.985   1.796   3.934
  925HOH     H2 2963   2.969   1.942   3.970
  926HOH      O 2964   1.509   2.339   0.485
  926HOH     H1 2965   1.511   2.266   0.422
  926HOH     H2 2966   1.573   2.401   0.451
  927HOH      O 2967   1.188   0.030   1.077
  927HOH     H1 2968   1.198   0.096   1.146
  927HOH     H2 2969   1.277   0.013   1.046
  928HOH      O 2970   0.157   3.021   2.130
  928HOH     H1 2971   0.206   3.098   2.159
  928HOH     H2 2972   0.201   2.947   2.172
  929HOH      O 2973   1.043   2.113   3.611
  929HOH     H1 2974   1.001   2.188   3.654
  929HOH     H2 2975   0.974   2.074   3.558
  930HOH      O 2976   2.643   3.888   2.034
  930HOH     H1 2977   2.583   3.963   2.034
  930HOH     H2 2978   2.645   3.859   2.125
  931HOH      O 2979   1.761   0.038   3.694
  931HOH     H1 2980   1.720   0.067   3.613
  931HOH     H2 2981   1.799  -0.048   3.673
  932HOH      O 2982   2.230   3.226   3.462
  932HOH     H1 2983   2.166   3.281   3.508
  932HOH     H2 2984   2.207   3.136   3.488
  933HOH      O 2985   1.594   3.699   3.807
  933HOH     H1 2986   1.526   3.643   3.845
  933HOH     H2 2987   1.674   3.647   3.813
  934HOH      O 2988   3.037   2.538   1.644
  934HOH     H1 2989   3.037   2.549   1.549
  934HOH     H2 2990   2.987   2.457   1.658
  935HOH      O 2991   3.786   2.963   3.046
  935HOH     H1 2992   3.733   3.038   3.073
  935HOH     H2 2993   3.766   2.952   2.953
  936HOH      O 2994   3.650   1.532   1.280
  936HOH     H1 2995   3.665   1.452   1.330
  936HOH     H2 2996   3.706   1.523   1.203
  937HOH      O 2997   1.560   3.623   1.300
  937HOH     H1 2998   1.533   3.536   1.329
  937HOH     H2 2999   1.622   3.653   1.367
  938HOH      O 3000   2.560   3.204   1.570
  938HOH     H1 3001   2.610   3.281   1.600
  938HOH     H2 3002   2.542   3.223   1.477
  939HOH      O 3003   0.473   3.339   3.937
  939HOH     H1 3004   0.482   3.369   4.027
  939HOH     H2 3005   0.401   3.391   3.901
  940HOH      O 3006   2.519   0.607   1.427
  940HOH     H1 3007   2.604   0.644   1.407
  940HOH     H2 3008   2.458   0.655   1.371
  941HOH      O 3009   1.877   1.830   3.819
  941HOH     H1 3010   1.920   1.771   3.757
  941HOH     H2 3011   1.812   1.774   3.862
  942HOH      O 3012   0.925   0.251   3.749
  942HOH     H1 3013   0.944   0.345   3.738
  942HOH     H2 3014   0.919   0.217   3.660
  943HOH      O 3015   2.553   2.352   1.846
  943HOH     H1 3016   2.590   2.313   1.926
  943HOH     H2 3017   2.548   2.279   1.785
  944HOH      O 3018   1.582   0.710   1.478
  944HOH     H1 3019   1.568   0.715   1.383
  944HOH     H2 3020   1.630   0.627   1.490
  945HOH      O 3021   3.401   2.142   1.751
  945HOH     H1 3022   3.372   2.143   1.843
  945HOH     H2 3023   3.476   2.200   1.749
  946HOH      O 3024   1.112   3.666   0.782
  946HOH     H1 3025   1.133   3.744   0.730
  946HOH     H2 3026   1.173   3.668   0.855
  947HOH      O 3027   2.168   1.731   3.909
  947HOH     H1 3028   2.162   1.638   3.929
  947HOH     H2 3029   2.127   1.774   3.984
  948HOH      O 3030   2.129   3.879   2.275
  948HOH     H1 3031   2.216   3.857   2.308
  948HOH     H2 3032   2.110   3.964   2.314
  949HOH      O 3033   3.937   2.364   2.452
  949HOH     H1 3034   3.857   2.382   2.402
  949HOH     H2 3035   4.007   2.372   2.388
  950HOH      O 3036   3.313   1.663   1.894
  950HOH     H1 3037   3.265   1.742   1.868
  950HOH     H2 3038   3.343   1.625   1.811
  951HOH      O 3039   2.230   3.949   3.199
  951HOH     H1 3040   2.177   3.976   3.124
  951HOH     H2 3041   2.237   3.854   3.190
  952HOH      O 3042   1.587   2.192   2.701
  952HOH     H1 3043   1.671   2.231   2.678
  952HOH     H2 3044   1.557   2.150   2.620
  953HOH      O 3045   1.194   1.279   2.564
  953HOH     H1 3046   1.174   1.254   2.473
  953HOH     H2 3047   1.144   1.218   2.617
  954HOH      O 3048   2.826   2.724   1.732
  954HOH     H1 3049   2.852   2.647   1.681
  954HOH     H2 3050   2.900   2.783   1.726
  955HOH      O 3051   1.554   2.372   2.310
  955HOH     H1 3052   1.520   2.460   2.327
  955HOH     H2 3053   1.495   2.336   2.243
  956HOH      O 3054   1.547   0.519   1.274
  956HOH     H1 3055   1.592   0.498   1.193
  956HOH     H2 3056   1.593   0.469   1.341
  957HOH      O 3057   2.272   0.796   3.034
  957HOH     H1 3058   2.246   0.707   3.055
  957HOH     H2 3059   2.277   0.840   3.119
  958HOH      O 3060   0.325  -0.013   1.815
  958HOH     H1 3061   0.287   0.071   1.839
  958HOH     H2 3062   0.347  -0.054   1.899
  959HOH      O 3063   2.197   3.945   3.734
  959HOH     H1 3064   2.256   3.959   3.809
  959HOH     H2 3065   2.114   3.984   3.762
  960HOH      O 3066   2.128   2.346   2.331
  960HOH     H1 3067   2.079   2.273   2.294
  960HOH     H2 3068   2.061   2.407   2.362
  961HOH      O 3069   3.227   0.058   3.981
  961HOH     H1 3070   3.243   0.147   3.949
  961HOH     H2 3071   3.132   0.048   3.978
  962HOH      O 3072   3.660   3.582   2.563
  962HOH     H1 3073   3.628   3.564   2.474
  962HOH     H2 3074   3.736   3.640   2.550
  963HOH      O 3075   3.109   2.820   0.507
  963HOH     H1 3076   3.148   2.768   0.578
  963HOH     H2 3077   3.072   2.896   0.551
  964HOH      O 3078   0.169   2.228   0.597
  964HOH     H1 3079   0.214   2.180   0.667
  964HOH     H2 3080   0.090   2.261   0.639
  965HOH      O 3081   0.939   3.412   0.131
  965HOH     H1 3082   0.874   3.380   0.194
  965HOH     H2 3083   1.022   3.379   0.164
  966HOH      O 3084   1.549   2.680   1.695
  966HOH     H1 3085   1.573   2.745   1.761
  966HOH     H2 3086   1.467   2.642   1.726
  967HOH      O 3087   2.685   1.070   0.781
  967HOH     H1 3088   2.762   1.013   0.770
  967HOH     H2 3089   2.665   1.065   0.875
  968HOH      O 3090   3.353   1.782   1.131
  968HOH     H1 3091   3.288   1.852   1.138
  968HOH     H2 3092   3.413   1.797   1.203
  969HOH      O 3093   1.577   0.892   0.677
  969HOH     H1 3094   1.508   0.941   0.721
  969HOH     H2 3095   1.638   0.869   0.748
  970HOH      O 3096   1.915   2.051   2.009
  970HOH     H1 3097   1.877   2.139   2.020
  970HOH     H2 3098   1.895   2.028   1.919
  971HOH      O 3099   1.483   0.915   3.741
  971HOH     H1 3100   1.560   0.967   3.716
  971HOH     H2 3101   1.519   0.829   3.765
  972HOH      O 3102   3.310   2.858   3.596
  972HOH     H1 3103   3.385   2.832   3.543
  972HOH     H2 3104   3.234   2.846   3.538
  973HOH      O 3105   2.067   3.461   3.586
  973HOH     H1 3106   2.057   3.483   3.493
  973HOH     H2 3107   2.134   3.521   3.618
  974HOH      O 3108   2.315   1.520   3.534
  974HOH     H1 3109   2.292   1.440   3.487
  974HOH     H2 3110   2.404   1.505   3.565
  975HOH      O 3111   1.985   2.180   2.918
  975HOH     H1 3112   2.007   2.153   3.007
  975HOH     H2 3113   1.988   2.099   2.867
  976HOH      O 3114   2.861   3.153   1.423
  976HOH     H1 3115   2.886   3.245   1.422
  976HOH     H2 3116   2.775   3.150   1.382
  977HOH      O 3117   0.703   3.847   0.525
  977HOH     H1 3118   0.777   3.804   0.568
  977HOH     H2 3119   0.690   3.798   0.444
  978HOH      O 3120   3.974   3.782   1.134
  978HOH     H1 3121   3.941   3.849   1.194
  978HOH     H2 3122   4.058   3.817   1.103
  979HOH      O 3123   3.826   0.193   2.913
  979HOH     H1 3124   3.837   0.195   3.008
  979HOH     H2 3125   3.735   0.217   2.898
  980HOH      O 3126   3.682   0.734   2.497
  980HOH     H1 3127   3.605   0.693   2.536
  980HOH     H2 3128   3.756   0.694   2.542
  981HOH      O 3129   0.516   1.023   2.728
  981HOH     H1 3130   0.478   1.025   2.816
  981HOH     H2 3131   0.476   0.946   2.687
  982HOH      O 3132   1.690   1.725   1.883
  982HOH     H1 3133   1.679   1.794   1.947
  982HOH     H2 3134   1.610   1.728   1.829
  983HOH      O 3135   2.630   1.042   2.927
  983HOH     H1 3136   2.581   1.092   2.861
  983HOH     H2 3137   2.696   0.995   2.877
  984HOH      O 3138   3.533   2.120   3.810
  984HOH     H1 3139   3.533   2.215   3.825
  984HOH     H2 3140   3.553   2.111   3.717
  985HOH      O 3141   3.008   1.711   3.490
  985HOH     H1 3142   3.097   1.735   3.464
  985HOH     H2 3143   2.952   1.762   3.432
  986HOH      O 3144   2.370   1.779   2.511
  986HOH     H1 3145   2.457   1.805   2.539
  986HOH     H2 3146   2.359   1.819   2.425
  987HOH      O 3147   0.184   3.494   0.474
  987HOH     H1 3148   0.210   3.569   0.528
  987HOH     H2 3149   0.157   3.533   0.390
  988HOH      O 3150   3.819   2.331   2.697
  988HOH     H1 3151   3.733   2.293   2.680
  988HOH     H2 3152   3.854   2.352   2.611
  989HOH      O 3153   0.773   0.188   2.099
  989HOH     H1 3154   0.802   0.178   2.189
  989HOH     H2 3155   0.709   0.118   2.086
  990HOH      O 3156   3.629   0.076   1.085
  990HOH     H1 3157   3.578   0.151   1.115
  990HOH     H2 3158   3.625   0.081   0.990
  991HOH      O 3159   3.355   3.335   2.158
  991HOH     H1 3160   3.404   3.352   2.077
  991HOH     H2 3161   3.378   3.245   2.182
  992HOH      O 3162   3.941   2.948   0.870
  992HOH     H1 3163   3.980   2.946   0.957
  992HOH     H2 3164   3.981   3.024   0.827
  993HOH      O 3165   2.623   3.030   3.947
  993HOH     H1 3166   2.620   2.944   3.990
  993HOH     H2 3167   2.714   3.041   3.922
  994HOH      O 3168   4.037   2.579   0.059
  994HOH     H1 3169   4.040   2.489   0.091
  994HOH     H2 3170   3.952   2.612   0.088
  995HOH      O 3171   0.331   2.252   2.459
  995HOH     H1 3172   0.374   2.328   2.496
  995HOH     H2 3173   0.401   2.203   2.416
  996HOH      O 3174   0.461   0.715   1.222
  996HOH     H1 3175   0.393   0.649   1.235
  996HOH     H2 3176   0.448   0.747   1.133
  997HOH      O 3177   2.484   1.149   2.134
  997HOH     H1 3178   2.499   1.238   2.165
  997HOH     H2 3179   2.390   1.134   2.145
  998HOH      O 3180   0.641   3.451   0.336
  998HOH     H1 3181   0.571   3.434   0.274
  998HOH     H2 3182   0.661   3.544   0.325
  999HOH      O 3183   0.332   0.442   1.284
  999HOH     H1 3184   0.296   0.356   1.263
  999HOH     H2 3185   0.402   0.424   1.347
 1000HOH      O 3186   0.624   0.205   1.559
 1000HOH     H1 3187   0.610   0.278   1.499
 1000HOH     H2 3188   0.716   0.213   1.585
 1001HOH      O 3189   1.829   2.880   2.353
 1001HOH     H1 3190   1.824   2.861   2.260
 1001HOH     H2 3191   1.910   2.931   2.363
 1002HOH      O 3192   1.476   1.199   3.603
 1002HOH     H1 3193   1.426   1.172   3.525
 1002HOH     H2 3194   1.417   1.259   3.649
 1003HOH      O 3195   1.795   0.570   0.783
 1003HOH     H1 3196   1.798   0.660   0.816
 1003HOH     H2 3197   1.883   0.536   0.799
 1004HOH      O 3198   1.021   0.521   3.724
 1004HOH     H1 3199   1.081   0.579   3.770
 1004HOH     H2 3200   1.039   0.536   3.631
 1005HOH      O 3201   3.273   1.487   0.470
 1005HOH     H1 3202   3.335   1.435   0.419
 1005HOH     H2 3203   3.281   1.576   0.437
 1006HOH      O 3204   1.082   3.173   0.829
 1006HOH     H1 3205   1.149   3.158   0.762
 1006HOH     H2 3206   1.130   3.209   0.903
 1007HOH      O 3207   2.350   3.040   0.865
 1007HOH     H1 3208   2.414   3.058   0.796
 1007HOH     H2 3209   2.271   3.086   0.836
 1008HOH      O 3210   2.915   3.375   1.108
 1008HOH     H1 3211   2.945   3.307   1.047
 1008HOH     H2 3212   2.994   3.426   1.127
 1009HOH      O 3213   2.470   0.568   0.171
 1009HOH     H1 3214   2.419   0.540   0.096
 1009HOH     H2 3215   2.405   0.586   0.239
 1010HOH      O 3216   0.091   1.802   1.955
 1010HOH     H1 3217   0.156   1.733   1.967
 1010HOH     H2 3218   0.096   1.854   2.036
 1011HOH      O 3219   3.504   3.880   3.493
 1011HOH     H1 3220   3.515   3.792   3.456
 1011HOH     H2 3221   3.466   3.864   3.580
 1012HOH      O 3222   2.200   3.477   2.019
 1012HOH     H1 3223   2.224   3.562   1.982
 1012HOH     H2 3224   2.150   3.498   2.097
 1013HOH      O 3225   1.542   3.243   0.144
 1013HOH     H1 3226   1.579   3.245   0.056
 1013HOH     H2 3227   1.501   3.157   0.150
 1014HOH      O 3228   2.671   2.757   3.979
 1014HOH     H1 3229   2.676   2.674   4.025
 1014HOH     H2 3230   2.762   2.786   3.971
 1015HOH      O 3231   1.573   1.219   1.688
 1015HOH     H1 3232   1.494   1.256   1.729
 1015HOH     H2 3233   1.629   1.197   1.762
 1016HOH      O 3234   3.753   2.772   3.406
 1016HOH     H1 3235   3.698   2.694   3.402
 1016HOH     H2 3236   3.693   2.844   3.423
 1017HOH      O 3237   3.466   0.634   2.639
 1017HOH     H1 3238   3.495   0.562   2.694
 1017HOH     H2 3239   3.384   0.663   2.678
 1018HOH      O 3240   3.661   0.704   2.208
 1018HOH     H1 3241   3.725   0.633   2.214
 1018HOH     H2 3242   3.670   0.751   2.291
 1019HOH      O 3243   3.506   0.323   3.726
 1019HOH     H1 3244   3.523   0.248   3.669
 1019HOH     H2 3245   3.592   0.346   3.761
 1020HOH      O 3246   3.718   1.904   3.245
 1020HOH     H1 3247   3.639   1.894   3.299
 1020HOH     H2 3248   3.744   1.995   3.258
 1021HOH      O 3249   2.724   0.531   0.243
 1021HOH     H1 3250   2.634   0.517   0.215
 1021HOH     H2 3251   2.751   0.446   0.280
 1022HOH      O 3252   0.131   2.031   3.919
 1022HOH     H1 3253   0.115   2.112   3.968
 1022HOH     H2 3254   0.173   1.973   3.982
 1023HOH      O 3255   0.826   0.267   0.388
 1023HOH     H1 3256   0.785   0.261   0.302
 1023HOH     H2 3257   0.772   0.331   0.435
 1024HOH      O 3258   1.422   4.003   0.972
 1024HOH     H1 3259   1.427   3.924   1.026
 1024HOH     H2 3260   1.512   4.017   0.942
 1025HOH      O 3261   3.578   1.378   0.884
 1025HOH     H1 3262   3.529   1.401   0.805
 1025HOH     H2 3263   3.510   1.354   0.948
 1026HOH      O 3264   2.048   2.760   0.600
 1026HOH     H1 3265   1.974   2.758   0.660
 1026HOH     H2 3266   2.010   2.738   0.514
 1027HOH      O 3267   1.726   3.424   1.628
 1027HOH     H1 3268   1.756   3.343   1.587
 1027HOH     H2 3269   1.769   3.425   1.713
 1028HOH      O 3270   0.703   1.205   2.670
 1028HOH     H1 3271   0.749   1.180   2.750
 1028HOH     H2 3272   0.634   1.140   2.660
 1029HOH      O 3273   0.372   1.522   0.551
 1029HOH     H1 3274   0.416   1.510   0.636
 1029HOH     H2 3275   0.410   1.455   0.495
 1030HOH      O 3276   0.658   3.977   2.214
 1030HOH     H1 3277   0.625   3.981   2.304
 1030HOH     H2 3278   0.719   3.903   2.215
 1031HOH      O 3279   0.416   1.073   0.012
 1031HOH     H1 3280   0.475   1.000   0.030
 1031HOH     H2 3281   0.474   1.150   0.007
 1032HOH      O 3282   3.099   1.472   1.064
 1032HOH     H1 3283   3.091   1.380   1.090
 1032HOH     H2 3284   3.183   1.500   1.100
 1033HOH      O 3285   2.966   0.092   2.890
 1033HOH     H1 3286   2.917   0.135   2.960
 1033HOH     H2 3287   2.948   0.144   2.812
 1034HOH      O 3288   2.477   1.141   1.360
 1034HOH     H1 3289   2.458   1.056   1.400
 1034HOH     H2 3290   2.456   1.129   1.268
 1035HOH      O 3291   3.645   1.802   3.859
 1035HOH     H1 3292   3.649   1.872   3.794
 1035HOH     H2 3293   3.736   1.789   3.887
 1036HOH      O 3294   3.469   0.912   2.770
 1036HOH     H1 3295   3.396   0.858   2.740
 1036HOH     H2 3296   3.426   0.990   2.807
 1037HOH      O 3297   2.498   0.083   0.367
 1037HOH     H1 3298   2.458   0.118   0.288
 1037HOH     H2 3299   2.574   0.034   0.336
 1038HOH      O 3300   1.121   2.616   0.435
 1038HOH     H1 3301   1.116   2.655   0.348
 1038HOH     H2 3302   1.031   2.621   0.468
 1039HOH      O 3303   0.191   1.988   2.145
 1039HOH     H1 3304   0.237   1.924   2.199
 1039HOH     H2 3305   0.226   2.072   2.174
 1040HOH      O 3306   2.674   2.467   0.305
 1040HOH     H1 3307   2.690   2.398   0.241
 1040HOH     H2 3308   2.736   2.536   0.283
 1041HOH      O 3309   1.968   3.233   3.694
 1041HOH     H1 3310   2.001   3.318   3.663
 1041HOH     H2 3311   1.876   3.233   3.668
 1042HOH      O 3312   0.053   0.097   2.876
 1042HOH     H1 3313  -0.031   0.135   2.901
 1042HOH     H2 3314   0.063   0.020   2.931
 1043HOH      O 3315   2.669   3.494   0.010
 1043HOH     H1 3316   2.675   3.428   0.079
 1043HOH     H2 3317   2.580   3.529   0.018
 1044HOH      O 3318   1.622   3.804   0.653
 1044HOH     H1 3319   1.571   3.810   0.573
 1044HOH     H2 3320   1.688   3.873   0.645
 1045HOH      O 3321   3.230   3.696   2.002
 1045HOH     H1 3322   3.231   3.617   1.946
 1045HOH     H2 3323   3.220   3.768   1.940
 1046HOH      O 3324   3.831   0.655   1.182
 1046HOH     H1 3325   3.862   0.615   1.264
 1046HOH     H2 3326   3.844   0.749   1.195
 1047HOH      O 3327   0.363   0.448   0.251
 1047HOH     H1 3328   0.372   0.416   0.161
 1047HOH     H2 3329   0.449   0.484   0.272
 1048HOH      O 3330   0.084   2.854   1.477
 1048HOH     H1 3331   0.160   2.801   1.456
 1048HOH     H2 3332   0.099   2.937   1.431
 1049HOH      O 3333   3.801   2.348   0.548
 1049HOH     H1 3334   3.869   2.403   0.587
 1049HOH     H2 3335   3.831   2.258   0.563
 1050HOH      O 3336   2.356   0.741   1.250
 1050HOH     H1 3337   2.292   0.796   1.296
 1050HOH     H2 3338   2.304   0.686   1.192
 1051HOH      O 3339   1.867   1.842   1.413
 1051HOH     H1 3340   1.857   1.780   1.485
 1051HOH     H2 3341   1.777   1.863   1.386
 1052HOH      O 3342   3.686   3.179   3.610
 1052HOH     H1 3343   3.611   3.119   3.601
 1052HOH     H2 3344   3.662   3.236   3.683
 1053HOH      O 3345   0.207   2.066   0.819
 1053HOH     H1 3346   0.133   2.104   0.866
 1053HOH     H2 3347   0.182   1.974   0.807
 1054HOH      O 3348   0.770   3.222   0.632
 1054HOH     H1 3349   0.709   3.294   0.646
 1054HOH     H2 3350   0.740   3.180   0.552
 1055HOH      O 3351   0.403   2.768   2.706
 1055HOH     H1 3352   0.311   2.781   2.682
 1055HOH     H2 3353   0.452   2.803   2.632
 1056HOH      O 3354   4.017   3.223   3.190
 1056HOH     H1 3355   4.019   3.318   3.204
 1056HOH     H2 3356   3.966   3.190   3.263
 1057HOH      O 3357   3.341   0.938   2.200
 1057HOH     H1 3358   3.246   0.951   2.201
 1057HOH     H2 3359   3.360   0.895   2.283
 1058HOH      O 3360   2.176   2.901   0.133
 1058HOH     H1 3361   2.222   2.849   0.066
 1058HOH     H2 3362   2.172   2.989   0.096
 1059HOH      O 3363   0.556   2.284   3.356
 1059HOH     H1 3364   0.541   2.373   3.387
 1059HOH     H2 3365   0.537   2.288   3.262
 1060HOH      O 3366   2.234   2.377   3.686
 1060HOH     H1 3367   2.250   2.470   3.668
 1060HOH     H2 3368   2.243   2.369   3.781
 1061HOH      O 3369   2.661   3.550   0.445
 1061HOH     H1 3370   2.603   3.493   0.395
 1061HOH     H2 3371   2.604   3.621   0.476
 1062HOH      O 3372   2.219   1.104   2.944
 1062HOH     H1 3373   2.240   1.019   2.984
 1062HOH     H2 3374   2.125   1.115   2.959
 1063HOH      O 3375   0.542   1.595   3.521
 1063HOH     H1 3376   0.619   1.647   3.496
 1063HOH     H2 3377   0.522   1.545   3.442
 1064HOH      O 3378   2.887   1.968   0.837
 1064HOH     H1 3379   2.939   2.006   0.766
 1064HOH     H2 3380   2.797   1.986   0.813
 1065HOH      O 3381   0.262   1.592   2.027
 1065HOH     H1 3382   0.235   1.512   2.073
 1065HOH     H2 3383   0.313   1.641   2.092
 1066HOH      O 3384   3.625   3.964   2.440
 1066HOH     H1 3385   3.665   3.892   2.392
 1066HOH     H2 3386   3.540   3.930   2.468
 1067HOH      O 3387   1.280   1.745   0.277
 1067HOH     H1 3388   1.288   1.691   0.198
 1067HOH     H2 3389   1.253   1.831   0.244
 1068HOH      O 3390   1.312   3.522   0.565
 1068HOH     H1 3391   1.267   3.565   0.638
 1068HOH     H2 3392   1.264   3.440   0.552
 1069HOH      O 3393   0.507   0.978   0.604
 1069HOH     H1 3394   0.509   1.068   0.636
 1069HOH     H2 3395   0.467   0.984   0.517
 1070HOH      O 3396   2.505   3.673   3.344
 1070HOH     H1 3397   2.504   3.691   3.250
 1070HOH     H2 3398   2.555   3.592   3.352
 1071HOH      O 3399   2.453   0.512   0.907
 1071HOH     H1 3400   2.535   0.462   0.906
 1071HOH     H2 3401   2.402   0.473   0.978
 1072HOH      O 3402   3.601   3.926   2.904
 1072HOH     H1 3403   3.557   3.890   2.982
 1072HOH     H2 3404   3.689   3.888   2.907
 1073HOH      O 3405   2.682   3.990   3.203
 1073HOH     H1 3406   2.722   3.909   3.235
 1073HOH     H2 3407   2.594   3.965   3.176
 1074HOH      O 3408   1.163   1.077   1.440
 1074HOH     H1 3409   1.099   1.101   1.373
 1074HOH     H2 3410   1.228   1.025   1.393
 1075HOH      O 3411   2.246   2.938   1.422
 1075HOH     H1 3412   2.245   2.881   1.345
 1075HOH     H2 3413   2.260   3.026   1.387
 1076HOH      O 3414   1.761   1.372   3.125
 1076HOH     H1 3415   1.771   1.457   3.167
 1076HOH     H2 3416   1.732   1.314   3.196
 1077HOH      O 3417   0.320   1.063   3.160
 1077HOH     H1 3418   0.259   1.006   3.207
 1077HOH     H2 3419   0.404   1.016   3.163
 1078HOH      O 3420   1.427   3.768   3.299
 1078HOH     H1 3421   1.393   3.827   3.232
 1078HOH     H2 3422   1.434   3.823   3.377
 1079HOH      O 3423   2.945   0.111   3.923
 1079HOH     H1 3424   2.986   0.137   3.840
 1079HOH     H2 3425   2.854   0.138   3.914
 1080HOH      O 3426   3.167   0.042   0.516
 1080HOH     H1 3427   3.104  -0.022   0.485
 1080HOH     H2 3428   3.211   0.073   0.436
 1081HOH      O 3429   2.989   0.857   0.270
 1081HOH     H1 3430   2.949   0.834   0.354
 1081HOH     H2 3431   3.038   0.938   0.288
 1082HOH      O 3432   3.922   1.869   2.637
 1082HOH     H1 3433   3.931   1.938   2.571
 1082HOH     H2 3434   4.011   1.840   2.655
 1083HOH      O 3435   2.697   0.311   2.849
 1083HOH     H1 3436   2.694   0.248   2.921
 1083HOH     H2 3437   2.626   0.372   2.869
 1084HOH      O 3438   0.850   0.920   2.577
 1084HOH     H1 3439   0.864   0.994   2.518
 1084HOH     H2 3440   0.785   0.866   2.533
 1085HOH      O 3441   2.942   3.509   2.100
 1085HOH     H1 3442   3.014   3.448   2.082
 1085HOH     H2 3443   2.911   3.485   2.187
 1086HOH      O 3444   2.854   3.770   3.972
 1086HOH     H1 3445   2.925   3.827   4.003
 1086HOH     H2 3446   2.818   3.732   4.052
 1087HOH      O 3447   2.171   0.925   1.363
 1087HOH     H1 3448   2.122   0.843   1.364
 1087HOH     H2 3449   2.113   0.986   1.317
 1088HOH      O 3450   2.635   3.251   0.121
 1088HOH     H1 3451   2.706   3.194   0.152
 1088HOH     H2 3452   2.593   3.200   0.052
 1089HOH      O 3453   1.465   1.672   1.701
 1089HOH     H1 3454   1.426   1.599   1.747
 1089HOH     H2 3455   1.404   1.745   1.715
 1090HOH      O 3456   3.286   3.416   2.742
 1090HOH     H1 3457   3.314   3.476   2.811
 1090HOH     H2 3458   3.341   3.338   2.754
 1091HOH      O 3459   0.091   0.898   1.115
 1091HOH     H1 3460   0.113   0.987   1.087
 1091HOH     H2 3461   0.080   0.904   1.209
 1092HOH      O 3462   3.449   1.997   0.824
 1092HOH     H1 3463   3.399   1.940   0.882
 1092HOH     H2 3464   3.382   2.044   0.773
 1093HOH      O 3465   2.858   3.089   1.861
 1093HOH     H1 3466   2.800   3.025   1.904
 1093HOH     H2 3467   2.883   3.046   1.779
 1094HOH      O 3468   2.063   3.706   1.867
 1094HOH     H1 3469   1.997   3.756   1.819
 1094HOH     H2 3470   2.091   3.638   1.805
 1095HOH      O 3471   0.516   1.564   0.203
 1095HOH     H1 3472   0.459   1.560   0.280
 1095HOH     H2 3473   0.585   1.626   0.227
 1096HOH      O 3474   2.552   0.188   3.537
 1096HOH     H1 3475   2.518   0.103   3.508
 1096HOH     H2 3476   2.580   0.173   3.628
 1097HOH      O 3477   2.902   0.393   1.463
 1097HOH     H1 3478   2.936   0.334   1.530
 1097HOH     H2 3479   2.823   0.430   1.503
 1098HOH      O 3480   2.983   3.144   0.923
 1098HOH     H1 3481   2.963   3.072   0.983
 1098HOH     H2 3482   3.078   3.154   0.929
 1099HOH      O 3483   2.588   1.645   1.333
 1099HOH     H1 3484   2.682   1.652   1.352
 1099HOH     H2 3485   2.546   1.680   1.411
 1100HOH      O 3486   3.999   3.279   2.224
 1100HOH     H1 3487   4.034   3.192   2.239
 1100HOH     H2 3488   3.914   3.279   2.268
 1101HOH      O 3489   2.582   1.935   2.988
 1101HOH     H1 3490   2.578   1.858   2.931
 1101HOH     H2 3491   2.490   1.954   3.007
 1102HOH      O 3492   2.865   1.161   1.829
 1102HOH     H1 3493   2.895   1.070   1.835
 1102HOH     H2 3494   2.853   1.175   1.735
 1103HOH      O 3495   2.432   3.768   0.295
 1103HOH     H1 3496   2.451   3.723   0.213
 1103HOH     H2 3497   2.348   3.810   0.281
 1104HOH      O 3498   2.608   0.335   1.168
 1104HOH     H1 3499   2.699   0.336   1.140
 1104HOH     H2 3500   2.605   0.391   1.245
 1105HOH      O 3501   1.965   3.415   0.205
 1105HOH     H1 3502   1.908   3.382   0.136
 1105HOH     H2 3503   1.937   3.368   0.284
 1106HOH      O 3504   1.868   3.683   0.206
 1106HOH     H1 3505   1.827   3.654   0.288
 1106HOH     H2 3506   1.936   3.617   0.189
 1107HOH      O 3507   1.325   0.556   1.118
 1107HOH     H1 3508   1.362   0.635   1.078
 1107HOH     H2 3509   1.389   0.530   1.184
 1108HOH      O 3510   0.168   2.235   2.745
 1108HOH     H1 3511   0.234   2.297   2.716
 1108HOH     H2 3512   0.134   2.273   2.826
 1109HOH      O 3513   2.965   2.005   3.412
 1109HOH     H1 3514   2.964   2.067   3.340
 1109HOH     H2 3515   2.881   2.017   3.456
 1110HOH      O 3516   2.072   2.875   3.519
 1110HOH     H1 3517   2.148   2.830   3.482
 1110HOH     H2 3518   2.109   2.940   3.579
 1111HOH      O 3519   0.277   0.653   0.594
 1111HOH     H1 3520   0.280   0.737   0.547
 1111HOH     H2 3521   0.199   0.658   0.648
 1112HOH      O 3522   2.068   1.680   1.296
 1112HOH     H1 3523   1.996   1.743   1.303
 1112HOH     H2 3524   2.036   1.603   1.342
 1113HOH      O 3525   1.096   2.372   1.805
 1113HOH     H1 3526   1.108   2.277   1.810
 1113HOH     H2 3527   1.174   2.403   1.759
 1114HOH      O 3528   2.337   2.322   3.363
 1114HOH     H1 3529   2.350   2.328   3.458
 1114HOH     H2 3530   2.262   2.263   3.354
 1115HOH      O 3531   3.715   2.815   0.796
 1115HOH     H1 3532   3.796   2.812   0.744
 1115HOH     H2 3533   3.734   2.878   0.865
 1116HOH      O 3534   3.763   3.787   3.206
 1116HOH     H1 3535   3.804   3.730   3.141
 1116HOH     H2 3536   3.672   3.796   3.177
 1117HOH      O 3537   2.711   0.766   2.014
 1117HOH     H1 3538   2.687   0.857   1.997
 1117HOH     H2 3539   2.627   0.721   2.027
 1118HOH      O 3540   2.019   1.349   0.382
 1118HOH     H1 3541   1.987   1.270   0.338
 1118HOH     H2 3542   2.030   1.413   0.312
 1119HOH      O 3543   3.213   1.107   1.750
 1119HOH     H1 3544   3.124   1.086   1.779
 1119HOH     H2 3545   3.203   1.186   1.697
 1120HOH      O 3546   2.361   3.124   3.865
 1120HOH     H1 3547   2.309   3.162   3.937
 1120HOH     H2 3548   2.444   3.099   3.906
 1121HOH      O 3549   3.747   0.471   2.666
 1121HOH     H1 3550   3.662   0.483   2.710
 1121HOH     H2 3551   3.754   0.377   2.652
 1122HOH      O 3552   1.562   3.752   0.154
 1122HOH     H1 3553   1.651   3.721   0.172
 1122HOH     H2 3554   1.518   3.749   0.240
 1123HOH      O 3555   3.272   0.316   3.885
 1123HOH     H1 3556   3.229   0.311   3.799
 1123HOH     H2 3557   3.365   0.324   3.865
 1124HOH      O 3558   1.594   1.665   2.244
 1124HOH     H1 3559   1.687   1.681   2.255
 1124HOH     H2 3560   1.582   1.572   2.261
 1125HOH      O 3561   2.781   2.140   1.913
 1125HOH     H1 3562   2.870   2.119   1.885
 1125HOH     H2 3563   2.768   2.086   1.992
 1126HOH      O 3564   3.762   2.773   2.541
 1126HOH     H1 3565   3.831   2.754   2.604
 1126HOH     H2 3566   3.683   2.783   2.595
 1127HOH      O 3567   3.430   2.904   2.004
 1127HOH     H1 3568   3.389   2.916   1.918
 1127HOH     H2 3569   3.524   2.916   1.989
 1128HOH      O 3570   3.595   1.339   1.568
 1128HOH     H1 3571   3.573   1.274   1.635
 1128HOH     H2 3572   3.661   1.394   1.610
 1129HOH      O 3573   2.168   3.050   3.683
 1129HOH     H1 3574   2.244   3.088   3.727
 1129HOH     H2 3575   2.098   3.114   3.696
 1130HOH      O 3576   2.223   3.071   2.449
 1130HOH     H1 3577   2.314   3.055   2.425
 1130HOH     H2 3578   2.185   2.983   2.458
 1131HOH      O 3579   3.454   3.158   1.360
 1131HOH     H1 3580   3.473   3.111   1.279
 1131HOH     H2 3581   3.364   3.189   1.349
 1132HOH      O 3582   3.184   3.563   0.785
 1132HOH     H1 3583   3.262   3.606   0.747
 1132HOH     H2 3584   3.220   3.495   0.841
 1133HOH      O 3585   3.734   2.584   1.701
 1133HOH     H1 3586   3.823   2.599   1.669
 1133HOH     H2 3587   3.697   2.672   1.709
 1134HOH      O 3588   3.301   2.560   3.549
 1134HOH     H1 3589   3.260   2.588   3.631
 1134HOH     H2 3590   3.234   2.575   3.483
 1135HOH      O 3591   1.756   1.891   3.081
 1135HOH     H1 3592   1.784   1.842   3.003
 1135HOH     H2 3593   1.701   1.961   3.046
 1136HOH      O 3594   0.403   0.524   2.875
 1136HOH     H1 3595   0.397   0.521   2.970
 1136HOH     H2 3596   0.493   0.553   2.858
 1137HOH      O 3597   3.229   1.015   2.566
 1137HOH     H1 3598   3.192   1.007   2.654
 1137HOH     H2 3599   3.156   1.045   2.512
 1138HOH      O 3600   1.033   1.755   3.421
 1138HOH     H1 3601   1.027   1.704   3.341
 1138HOH     H2 3602   1.101   1.711   3.472
 1139HOH      O 3603   2.016   3.334   1.463
 1139HOH     H1 3604   1.924   3.316   1.447
 1139HOH     H2 3605   2.045   3.384   1.386
 1140HOH      O 3606   0.470   3.508   3.062
 1140HOH     H1 3607   0.566   3.510   3.064
 1140HOH     H2 3608   0.448   3.532   2.972
 1141HOH      O 3609   2.998   1.037   3.097
 1141HOH     H1 3610   2.923   1.028   3.037
 1141HOH     H2 3611   3.003   1.131   3.114
 1142HOH      O 3612   3.553   0.206   2.564
 1142HOH     H1 3613   3.541   0.269   2.494
 1142HOH     H2 3614   3.581   0.126   2.520
 1143HOH      O 3615   1.796   0.300   0.677
 1143HOH     H1 3616   1.701   0.302   0.684
 1143HOH     H2 3617   1.825   0.376   0.728
 1144HOH      O 3618   2.860   2.582   0.992
 1144HOH     H1 3619   2.878   2.667   0.953
 1144HOH     H2 3620   2.765   2.576   0.995
 1145HOH      O 3621   0.306   3.465   2.672
 1145HOH     H1 3622   0.356   3.407   2.615
 1145HOH     H2 3623   0.223   3.479   2.626
 1146HOH      O 3624   1.782   2.737   2.893
 1146HOH     H1 3625   1.691   2.741   2.924
 1146HOH     H2 3626   1.800   2.644   2.883
 1147HOH      O 3627   3.649   1.061   2.289
 1147HOH     H1 3628   3.570   1.030   2.244
 1147HOH     H2 3629   3.669   0.992   2.352
 1148HOH      O 3630   0.639   2.502   0.068
 1148HOH     H1 3631   0.584   2.538  -0.002
 1148HOH     H2 3632   0.670   2.418   0.032
 1149HOH      O 3633   1.133   3.652   1.811
 1149HOH     H1 3634   1.211   3.684   1.766
 1149HOH     H2 3635   1.118   3.565   1.773
 1150HOH      O 3636   0.248   2.116   3.100
 1150HOH     H1 3637   0.204   2.073   3.174
 1150HOH     H2 3638   0.235   2.210   3.115
 1151HOH      O 3639   0.960   3.781   3.755
 1151HOH     H1 3640   0.976   3.735   3.838
 1151HOH     H2 3641   0.986   3.871   3.773
 1152HOH      O 3642   2.835   1.916   2.334
 1152HOH     H1 3643   2.785   1.903   2.415
 1152HOH     H2 3644   2.779   1.972   2.280
 1153HOH      O 3645   0.674   3.603   2.315
 1153HOH     H1 3646   0.606   3.658   2.355
 1153HOH     H2 3647   0.685   3.531   2.376
 1154HOH      O 3648   0.229   1.175   1.653
 1154HOH     H1 3649   0.172   1.242   1.691
 1154HOH     H2 3650   0.317   1.199   1.681
 1155HOH      O 3651   0.011   1.306   2.695
 1155HOH     H1 3652  -0.024   1.229   2.649
 1155HOH     H2 3653   0.048   1.271   2.776
 1156HOH      O 3654   1.428   2.918   0.453
 1156HOH     H1 3655   1.416   2.882   0.365
 1156HOH     H2 3656   1.494   2.986   0.442
 1157HOH      O 3657   3.776   1.523   1.015
 1157HOH     H1 3658   3.737   1.609   1.032
 1157HOH     H2 3659   3.710   1.477   0.964
 1158HOH      O 3660   2.798   0.599   1.096
 1158HOH     H1 3661   2.807   0.636   1.008
 1158HOH     H2 3662   2.819   0.506   1.085
 1159HOH      O 3663   3.198   0.468   2.883
 1159HOH     H1 3664   3.121   0.491   2.832
 1159HOH     H2 3665   3.176   0.491   2.973
 1160HOH      O 3666   3.697   0.208   0.448
 1160HOH     H1 3667   3.741   0.140   0.500
 1160HOH     H2 3668   3.743   0.206   0.364
 1161HOH      O 3669   2.121   1.274   0.987
 1161HOH     H1 3670   2.106   1.367   1.005
 1161HOH     H2 3671   2.207   1.272   0.944
 1162HOH      O 3672   3.506   1.771   1.420
 1162HOH     H1 3673   3.572   1.822   1.467
 1162HOH     H2 3674   3.552   1.691   1.395
 1163HOH      O 3675   2.498   0.089   2.019
 1163HOH     H1 3676   2.461   0.061   1.935
 1163HOH     H2 3677   2.498   0.185   2.014
 1164HOH      O 3678   2.349   0.036   2.226
 1164HOH     H1 3679   2.370  -0.046   2.271
 1164HOH     H2 3680   2.405   0.036   2.148
 1165HOH      O 3681   0.517   1.389   3.708
 1165HOH     H1 3682   0.605   1.411   3.739
 1165HOH     H2 3683   0.499   1.454   3.641
 1166HOH      O 3684   0.677   2.031   0.162
 1166HOH     H1 3685   0.646   2.076   0.084
 1166HOH     H2 3686   0.756   1.985   0.134
 1167HOH      O 3687   2.107   1.835   0.755
 1167HOH     H1 3688   2.135   1.779   0.828
 1167HOH     H2 3689   2.014   1.848   0.770
 1168HOH      O 3690   2.007   1.894   0.511
 1168HOH     H1 3691   2.075   1.880   0.577
 1168HOH     H2 3692   2.020   1.823   0.448
 1169HOH      O 3693   3.530   0.204   2.917
 1169HOH     H1 3694   3.443   0.194   2.955
 1169HOH     H2 3695   3.561   0.114   2.907
 1170HOH      O 3696   1.962   1.607   2.419
 1170HOH     H1 3697   1.935   1.699   2.420
 1170HOH     H2 3698   1.915   1.570   2.344
 1171HOH      O 3699   0.910   1.996   3.376
 1171HOH     H1 3700   0.869   1.975   3.292
 1171HOH     H2 3701   0.949   1.913   3.405
 1172HOH      O 3702   1.596   1.300   2.775
 1172HOH     H1 3703   1.543   1.359   2.721
 1172HOH     H2 3704   1.589   1.215   2.732
 1173HOH      O 3705   2.036   3.374   1.136
 1173HOH     H1 3706   2.008   3.284   1.117
 1173HOH     H2 3707   2.126   3.378   1.104
 1174HOH      O 3708   3.040   3.733   1.007
 1174HOH     H1 3709   2.978   3.790   0.962
 1174HOH     H2 3710   3.115   3.727   0.947
 1175HOH      O 3711   2.625   0.396   3.881
 1175HOH     H1 3712   2.640   0.349   3.799
 1175HOH     H2 3713   2.709   0.437   3.901
 1176HOH      O 3714   0.456   2.017   1.279
 1176HOH     H1 3715   0.493   2.046   1.196
 1176HOH     H2 3716   0.379   2.072   1.291
 1177HOH      O 3717   3.023   3.155   2.608
 1177HOH     H1 3718   2.940   3.107   2.604
 1177HOH     H2 3719   3.013   3.224   2.542
 1178HOH      O 3720   2.497   3.381   0.327
 1178HOH     H1 3721   2.405   3.396   0.303
 1178HOH     H2 3722   2.535   3.339   0.250
 1179HOH      O 3723   0.802   0.813   0.956
 1179HOH     H1 3724   0.732   0.870   0.989
 1179HOH     H2 3725   0.774   0.725   0.981
 1180HOH      O 3726   0.643   2.119   1.469
 1180HOH     H1 3727   0.635   2.068   1.550
 1180HOH     H2 3728   0.624   2.056   1.400
 1181HOH      O 3729   2.870   0.224   0.125
 1181HOH     H1 3730   2.865   0.319   0.134
 1181HOH     H2 3731   2.903   0.209   0.037
 1182HOH      O 3732   2.996   2.205   0.286
 1182HOH     H1 3733   2.992   2.215   0.381
 1182HOH     H2 3734   3.069   2.144   0.272
 1183HOH      O 3735   2.559   1.416   3.884
 1183HOH     H1 3736   2.546   1.418   3.979
 1183HOH     H2 3737   2.574   1.323   3.864
 1184HOH      O 3738   2.447   3.667   0.031
 1184HOH     H1 3739   2.471   3.704  -0.054
 1184HOH     H2 3740   2.352   3.675   0.035
 1185HOH      O 3741   1.784   1.433   2.232
 1185HOH     H1 3742   1.774   1.466   2.143
 1185HOH     H2 3743   1.865   1.382   2.230
 1186HOH      O 3744   3.296   1.263   3.917
 1186HOH     H1 3745   3.230   1.329   3.899
 1186HOH     H2 3746   3.320   1.229   3.831
 1187HOH      O 3747   2.649   0.310   3.286
 1187HOH     H1 3748   2.570   0.325   3.234
 1187HOH     H2 3749   2.617   0.260   3.362
 1188HOH      O 3750   0.657   2.081   3.481
 1188HOH     H1 3751   0.745   2.073   3.444
 1188HOH     H2 3752   0.616   2.152   3.433
 1189HOH      O 3753   1.235   0.211   0.474
 1189HOH     H1 3754   1.231   0.301   0.442
 1189HOH     H2 3755   1.240   0.219   0.569
 1190HOH      O 3756   2.817   0.755   3.664
 1190HOH     H1 3757   2.858   0.833   3.702
 1190HOH     H2 3758   2.741   0.737   3.719
 1191HOH      O 3759   2.737   1.287   3.000
 1191HOH     H1 3760   2.709   1.342   3.073
 1191HOH     H2 3761   2.701   1.201   3.020
 1192HOH      O 3762   1.875   3.005   0.466
 1192HOH     H1 3763   1.948   2.947   0.442
 1192HOH     H2 3764   1.848   2.975   0.552
 1193HOH      O 3765   0.103   0.870   2.618
 1193HOH     H1 3766   0.162   0.876   2.543
 1193HOH     H2 3767   0.161   0.859   2.693
 1194HOH      O 3768   0.647   0.487   3.691
 1194HOH     H1 3769   0.701   0.561   3.663
 1194HOH     H2 3770   0.625   0.442   3.610
 1195HOH      O 3771   3.322   2.378   0.047
 1195HOH     H1 3772   3.372   2.456   0.025
 1195HOH     H2 3773   3.286   2.348  -0.036
 1196HOH      O 3774   1.951   3.125   1.059
 1196HOH     H1 3775   1.991   3.122   0.973
 1196HOH     H2 3776   1.865   3.083   1.048
 1197HOH      O 3777   2.645   3.199   1.287
 1197HOH     H1 3778   2.638   3.161   1.199
 1197HOH     H2 3779   2.645   3.294   1.272
 1198HOH      O 3780   0.464   3.235   1.264
 1198HOH     H1 3781   0.439   3.149   1.296
 1198HOH     H2 3782   0.523   3.269   1.331
 1199HOH      O 3783   0.725   3.019   2.267
 1199HOH     H1 3784   0.769   3.093   2.308
 1199HOH     H2 3785   0.794   2.954   2.255
 1200HOH      O 3786   1.560   0.682   3.383
 1200HOH     H1 3787   1.507   0.756   3.412
 1200HOH     H2 3788   1.626   0.671   3.451
 1201HOH      O 3789   1.126   0.827   0.441
 1201HOH     H1 3790   1.043   0.854   0.401
 1201HOH     H2 3791   1.127   0.870   0.526
 1202HOH      O 3792   2.337   3.714   3.670
 1202HOH     H1 3793   2.288   3.791   3.698
 1202HOH     H2 3794   2.425   3.747   3.651
 1203HOH      O 3795   3.822   3.610   2.984
 1203HOH     H1 3796   3.896   3.584   2.928
 1203HOH     H2 3797   3.744   3.586   2.934
 1204HOH      O 3798   2.224   2.133   1.357
 1204HOH     H1 3799   2.242   2.039   1.356
 1204HOH     H2 3800   2.304   2.173   1.391
 1205HOH      O 3801   3.912   1.712   3.281
 1205HOH     H1 3802   3.949   1.689   3.195
 1205HOH     H2 3803   3.845   1.777   3.261
 1206HOH      O 3804   3.496   0.324   1.112
 1206HOH     H1 3805   3.589   0.344   1.127
 1206HOH     H2 3806   3.457   0.407   1.087
 1207HOH      O 3807   0.051   2.782   1.977
 1207HOH     H1 3808   0.051   2.867   2.022
 1207HOH     H2 3809   0.009   2.801   1.893
 1208HOH      O 3810   2.632   1.815   2.042
 1208HOH     H1 3811   2.707   1.797   1.986
 1208HOH     H2 3812   2.618   1.734   2.091
 1209HOH      O 3813   2.339   0.408   1.350
 1209HOH     H1 3814   2.261   0.452   1.385
 1209HOH     H2 3815   2.411   0.470   1.368
 1210HOH      O 3816   0.189   0.247   0.343
 1210HOH     H1 3817   0.180   0.267   0.436
 1210HOH     H2 3818   0.215   0.329   0.303
 1211HOH      O 3819   2.119   2.658   3.178
 1211HOH     H1 3820   2.093   2.566   3.183
 1211HOH     H2 3821   2.037   2.706   3.171
 1212HOH      O 3822   0.955   2.943   1.091
 1212HOH     H1 3823   0.862   2.942   1.067
 1212HOH     H2 3824   0.984   2.852   1.079
 1213HOH      O 3825   1.967   2.417   1.167
 1213HOH     H1 3826   1.946   2.510   1.167
 1213HOH     H2 3827   1.896   2.377   1.116
 1214HOH      O 3828   2.021   0.107   0.727
 1214HOH     H1 3829   2.095   0.165   0.743
 1214HOH     H2 3830   1.944   0.156   0.756
 1215HOH      O 3831   2.417   1.769   0.740
 1215HOH     H1 3832   2.451   1.858   0.735
 1215HOH     H2 3833   2.343   1.775   0.801
 1216HOH      O 3834   3.843   2.729   1.383
 1216HOH     H1 3835   3.824   2.789   1.310
 1216HOH     H2 3836   3.937   2.741   1.400
 1217HOH      O 3837   0.739   2.793   0.878
 1217HOH     H1 3838   0.643   2.797   0.873
 1217HOH     H2 3839   0.768   2.879   0.848
 1218HOH      O 3840   0.028   1.008   3.549
 1218HOH     H1 3841   0.084   0.967   3.616
 1218HOH     H2 3842  -0.050   0.953   3.546
 1219HOH      O 3843   0.911   0.795   1.525
 1219HOH     H1 3844   0.944   0.835   1.605
 1219HOH     H2 3845   0.892   0.705   1.549
 1220HOH      O 3846   0.693   2.416   0.550
 1220HOH     H1 3847   0.785   2.434   0.533
 1220HOH     H2 3848   0.683   2.322   0.534
 1221HOH      O 3849   2.334   2.027   0.292
 1221HOH     H1 3850   2.381   1.951   0.325
 1221HOH     H2 3851   2.386   2.102   0.319
 1222HOH      O 3852   3.772   0.386   1.129
 1222HOH     H1 3853   3.794   0.473   1.160
 1222HOH     H2 3854   3.827   0.327   1.181
 1223HOH      O 3855   0.625   2.814   0.110
 1223HOH     H1 3856   0.618   2.721   0.089
 1223HOH     H2 3857   0.548   2.853   0.069
 1224HOH      O 3858   2.870   3.907   0.893
 1224HOH     H1 3859   2.847   3.935   0.804
 1224HOH     H2 3860   2.786   3.905   0.940
 1225HOH      O 3861   4.003   2.645   0.844
 1225HOH     H1 3862   4.038   2.651   0.932
 1225HOH     H2 3863   3.990   2.736   0.817
 1226HOH      O 3864   1.881   2.804   3.145
 1226HOH     H1 3865   1.841   2.808   3.058
 1226HOH     H2 3866   1.892   2.895   3.171
 1227HOH      O 3867   0.588   0.882   0.126
 1227HOH     H1 3868   0.558   0.793   0.140
 1227HOH     H2 3869   0.662   0.873   0.066
 1228HOH      O 3870   0.258   3.109   0.986
 1228HOH     H1 3871   0.337   3.159   0.967
 1228HOH     H2 3872   0.187   3.172   0.979
 1229HOH      O 3873   3.742   1.305   0.184
 1229HOH     H1 3874   3.724   1.234   0.246
 1229HOH     H2 3875   3.682   1.289   0.112
 1230HOH      O 3876   0.132   0.383   0.583
 1230HOH     H1 3877   0.063   0.430   0.536
 1230HOH     H2 3878   0.135   0.425   0.669
 1231HOH      O 3879   2.697   1.089   0.078
 1231HOH     H1 3880   2.790   1.064   0.079
 1231HOH     H2 3881   2.682   1.119  -0.012
 1232HOH      O 3882   3.381   3.681   1.249
 1232HOH     H1 3883   3.457   3.733   1.222
 1232HOH     H2 3884   3.418   3.607   1.297
 1233HOH      O 3885   3.060   1.755   3.768
 1233HOH     H1 3886   3.125   1.820   3.743
 1233HOH     H2 3887   3.029   1.718   3.685
 1234HOH      O 3888   3.468   3.276   3.439
 1234HOH     H1 3889   3.414   3.254   3.515
 1234HOH     H2 3890   3.441   3.214   3.371
 1235HOH      O 3891   3.942   2.070   1.484
 1235HOH     H1 3892   3.957   2.111   1.569
 1235HOH     H2 3893   3.864   2.115   1.450
 1236HOH      O 3894   3.473   1.000   1.691
 1236HOH     H1 3895   3.400   1.042   1.736
 1236HOH     H2 3896   3.532   0.972   1.761
 1237HOH      O 3897   0.948   2.761   3.872
 1237HOH     H1 3898   0.857   2.783   3.889
 1237HOH     H2 3899   0.945   2.701   3.797
 1238HOH      O 3900   3.123   3.873   2.868
 1238HOH     H1 3901   3.055   3.941   2.875
 1238HOH     H2 3902   3.127   3.835   2.956
 1239HOH      O 3903   1.583   0.053   0.127
 1239HOH     H1 3904   1.506   0.047   0.184
 1239HOH     H2 3905   1.556   0.010   0.046
 1240HOH      O 3906   2.017   0.788   0.668
 1240HOH     H1 3907   1.997   0.754   0.581
 1240HOH     H2 3908   1.933   0.818   0.702
 1241HOH      O 3909   0.556   3.128   2.949
 1241HOH     H1 3910   0.616   3.198   2.975
 1241HOH     H2 3911   0.486   3.173   2.902
 1242HOH      O 3912   1.434   3.742   1.100
 1242HOH     H1 3913   1.352   3.720   1.145
 1242HOH     H2 3914   1.502   3.708   1.158
 1243HOH      O 3915   2.745   0.713   1.339
 1243HOH     H1 3916   2.768   0.674   1.255
 1243HOH     H2 3917   2.821   0.767   1.362
 1244HOH      O 3918   0.787   1.243   3.627
 1244HOH     H1 3919   0.748   1.242   3.714
 1244HOH     H2 3920   0.833   1.159   3.620
 1245HOH      O 3921   2.913   3.429   1.416
 1245HOH     H1 3922   2.969   3.496   1.377
 1245HOH     H2 3923   2.829   3.440   1.372
 1246HOH      O 3924   2.421   2.991   1.855
 1246HOH     H1 3925   2.458   3.008   1.942
 1246HOH     H2 3926   2.486   2.937   1.811
 1247HOH      O 3927   2.995   1.937   1.941
 1247HOH     H1 3928   3.012   1.890   1.860
 1247HOH     H2 3929   3.082   1.952   1.978
 1248HOH      O 3930   2.942   2.810   0.824
 1248HOH     H1 3931   2.934   2.899   0.858
 1248HOH     H2 3932   3.037   2.795   0.817
 1249HOH      O 3933   3.305   3.656   2.278
 1249HOH     H1 3934   3.264   3.659   2.191
 1249HOH     H2 3935   3.388   3.611   2.264
 1250HOH      O 3936   1.460   0.695   0.880
 1250HOH     H1 3937   1.371   0.706   0.846
 1250HOH     H2 3938   1.495   0.621   0.830
 1251HOH      O 3939   1.530   2.937   2.186
 1251HOH     H1 3940   1.570   2.949   2.272
 1251HOH     H2 3941   1.520   3.025   2.151
 1252HOH      O 3942   2.552   0.901   1.113
 1252HOH     H1 3943   2.510   0.894   1.027
 1252HOH     H2 3944   2.500   0.844   1.170
 1253HOH      O 3945   1.739   0.438   3.997
 1253HOH     H1 3946   1.699   0.526   3.996
 1253HOH     H2 3947   1.778   0.431   4.084
 1254HOH      O 3948   1.988   0.046   3.858
 1254HOH     H1 3949   1.918   0.066   3.796
 1254HOH     H2 3950   1.946  -0.006   3.926
 1255HOH      O 3951   1.805   2.462   2.916
 1255HOH     H1 3952   1.841   2.441   3.002
 1255HOH     H2 3953   1.811   2.381   2.866
 1256HOH      O 3954   3.538   1.737   2.622
 1256HOH     H1 3955   3.578   1.771   2.703
 1256HOH     H2 3956   3.498   1.654   2.649
 1257HOH      O 3957   0.054   2.644   0.388
 1257HOH     H1 3958   0.144   2.675   0.375
 1257HOH     H2 3959   0.002   2.694   0.325
 1258HOH      O 3960   0.174   0.674   1.426
 1258HOH     H1 3961   0.186   0.599   1.368
 1258HOH     H2 3962   0.228   0.654   1.502
 1259HOH      O 3963   1.101   1.678   3.154
 1259HOH     H1 3964   1.168   1.655   3.090
 1259HOH     H2 3965   1.023   1.697   3.100
 1260HOH      O 3966   0.195   1.811   2.672
 1260HOH     H1 3967   0.182   1.719   2.698
 1260HOH     H2 3968   0.195   1.859   2.754
 1261HOH      O 3969   0.343   1.825   3.633
 1261HOH     H1 3970   0.378   1.841   3.720
 1261HOH     H2 3971   0.415   1.786   3.584
 1262HOH      O 3972   2.164   2.454   0.263
 1262HOH     H1 3973   2.239   2.467   0.206
 1262HOH     H2 3974   2.166   2.361   0.286
 1263HOH      O 3975   0.486   1.619   1.295
 1263HOH     H1 3976   0.458   1.664   1.375
 1263HOH     H2 3977   0.582   1.615   1.302
 1264HOH      O 3978   0.315   1.489   1.763
 1264HOH     H1 3979   0.283   1.547   1.832
 1264HOH     H2 3980   0.236   1.460   1.717
 1265HOH      O 3981   0.620   3.486   3.753
 1265HOH     H1 3982   0.684   3.496   3.824
 1265HOH     H2 3983   0.537   3.471   3.798
 1266HOH      O 3984   2.416   3.662   1.940
 1266HOH     H1 3985   2.484   3.676   2.006
 1266HOH     H2 3986   2.388   3.750   1.915
 1267HOH      O 3987   1.879   0.455   3.568
 1267HOH     H1 3988   1.932   0.391   3.522
 1267HOH     H2 3989   1.920   0.539   3.547
 1268HOH      O 3990   2.460   2.296   0.663
 1268HOH     H1 3991   2.429   2.375   0.618
 1268HOH     H2 3992   2.478   2.325   0.753
 1269HOH      O 3993   1.647   2.255   0.204
 1269HOH     H1 3994   1.719   2.271   0.265
 1269HOH     H2 3995   1.690   2.231   0.122
 1270HOH      O 3996   3.983   1.546   1.858
 1270HOH     H1 3997   4.010   1.632   1.826
 1270HOH     H2 3998   3.986   1.554   1.954
 1271HOH      O 3999   1.525   3.052   1.546
 1271HOH     H1 4000   1.540   2.958   1.537
 1271HOH     H2 4001   1.611   3.088   1.569
 1272HOH      O 4002   3.078   2.833   3.456
 1272HOH     H1 4003   3.115   2.767   3.398
 1272HOH     H2 4004   3.034   2.895   3.398
 1273HOH      O 4005   2.970   3.654   3.056
 1273HOH     H1 4006   3.030   3.589   3.018
 1273HOH     H2 4007   2.920   3.604   3.121
 1274HOH      O 4008   1.671   0.463   2.339
 1274HOH     H1 4009   1.661   0.549   2.299
 1274HOH     H2 4010   1.642   0.474   2.429
 1275HOH      O 4011   1.730   1.310   1.438
 1275HOH     H1 4012   1.711   1.315   1.531
 1275HOH     H2 4013   1.728   1.216   1.418
 1276HOH      O 4014   0.293   2.801   1.711
 1276HOH     H1 4015   0.338   2.842   1.785
 1276HOH     H2 4016   0.205   2.837   1.713
 1277HOH      O 4017   4.011   3.246   1.781
 1277HOH     H1 4018   4.097   3.222   1.747
 1277HOH     H2 4019   3.956   3.256   1.704
 1278HOH      O 4020   2.050   2.732   0.328
 1278HOH     H1 4021   2.093   2.790   0.265
 1278HOH     H2 4022   2.099   2.650   0.324
 1279HOH      O 4023   2.497   0.196   1.592
 1279HOH     H1 4024   2.557   0.270   1.604
 1279HOH     H2 4025   2.411   0.230   1.620
 1280HOH      O 4026   2.838   3.856   0.594
 1280HOH     H1 4027   2.745   3.835   0.607
 1280HOH     H2 4028   2.838   3.924   0.527
 1281HOH      O 4029   3.780   3.555   3.632
 1281HOH     H1 4030   3.870   3.528   3.649
 1281HOH     H2 4031   3.785   3.604   3.550
 1282HOH      O 4032   2.141   1.218   0.600
 1282HOH     H1 4033   2.172   1.148   0.542
 1282HOH     H2 4034   2.097   1.279   0.542
 1283HOH      O 4035   1.154   0.441   0.323
 1283HOH     H1 4036   1.096   0.462   0.396
 1283HOH     H2 4037   1.096   0.399   0.259
 1284HOH      O 4038   2.825   3.957   3.608
 1284HOH     H1 4039   2.798   4.049   3.605
 1284HOH     H2 4040   2.919   3.961   3.628
 1285HOH      O 4041   0.235   1.392   3.446
 1285HOH     H1 4042   0.272   1.426   3.364
 1285HOH     H2 4043   0.146   1.365   3.423
 1286HOH      O 4044   0.310   3.155   3.559
 1286HOH     H1 4045   0.254   3.076   3.560
 1286HOH     H2 4046   0.353   3.154   3.645
 1287HOH      O 4047   1.920   3.279   0.429
 1287HOH     H1 4048   1.872   3.289   0.511
 1287HOH     H2 4049   1.945   3.186   0.427
 1288HOH      O 4050   2.135   0.264   0.256
 1288HOH     H1 4051   2.094   0.299   0.335
 1288HOH     H2 4052   2.093   0.311   0.184
 1289HOH      O 4053   0.109   0.530   3.064
 1289HOH     H1 4054   0.202   0.532   3.087
 1289HOH     H2 4055   0.070   0.471   3.128
 1290HOH      O 4056   3.079   3.495   0.398
 1290HOH     H1 4057   3.159   3.454   0.432
 1290HOH     H2 4058   3.013   3.475   0.464
 1291HOH      O 4059   2.702   2.280   1.470
 1291HOH     H1 4060   2.694   2.186   1.453
 1291HOH     H2 4061   2.755   2.285   1.549
 1292HOH      O 4062   3.456   3.274   1.645
 1292HOH     H1 4063   3.403   3.331   1.589
 1292HOH     H2 4064   3.515   3.229   1.584
 1293HOH      O 4065   3.344   0.561   0.559
 1293HOH     H1 4066   3.333   0.582   0.652
 1293HOH     H2 4067   3.268   0.602   0.517
 1294HOH      O 4068   2.660   2.372   2.824
 1294HOH     H1 4069   2.583   2.347   2.873
 1294HOH     H2 4070   2.637   2.353   2.733
 1295HOH      O 4071   3.094   2.602   1.139
 1295HOH     H1 4072   3.156   2.532   1.117
 1295HOH     H2 4073   3.028   2.598   1.070
 1296HOH      O 4074   0.106   3.372   2.519
 1296HOH     H1 4075   0.070   3.283   2.520
 1296HOH     H2 4076   0.133   3.385   2.428
 1297HOH      O 4077   2.303   2.770   3.391
 1297HOH     H1 4078   2.385   2.816   3.376
 1297HOH     H2 4079   2.260   2.769   3.305
 1298HOH      O 4080   2.850   1.111   1.560
 1298HOH     H1 4081   2.855   1.176   1.490
 1298HOH     H2 4082   2.878   1.029   1.519
 1299HOH      O 4083   1.069   0.825   1.277
 1299HOH     H1 4084   1.018   0.821   1.358
 1299HOH     H2 4085   1.010   0.865   1.213
 1300HOH      O 4086   1.088   2.652   1.784
 1300HOH     H1 4087   1.041   2.580   1.826
 1300HOH     H2 4088   1.180   2.623   1.785
 1301HOH      O 4089   1.525   3.156   0.823
 1301HOH     H1 4090   1.526   3.246   0.791
 1301HOH     H2 4091   1.445   3.118   0.787
 1302HOH      O 4092   3.502   2.919   3.380
 1302HOH     H1 4093   3.533   2.896   3.292
 1302HOH     H2 4094   3.434   2.985   3.365
 1303HOH      O 4095   3.980   3.189   0.741
 1303HOH     H1 4096   4.033   3.258   0.781
 1303HOH     H2 4097   3.927   3.234   0.676
 1304HOH      O 4098   0.086   2.669   1.097
 1304HOH     H1 4099   0.082   2.749   1.149
 1304HOH     H2 4100   0.118   2.602   1.159
 1305HOH      O 4101   3.941   0.006   2.441
 1305HOH     H1 4102   3.896   0.084   2.473
 1305HOH     H2 4103   3.986   0.035   2.361
 1306HOH      O 4104   3.933   3.155   3.473
 1306HOH     H1 4105   3.974   3.074   3.443
 1306HOH     H2 4106   3.855   3.126   3.520
 1307HOH      O 4107   0.470   3.704   2.460
 1307HOH     H1 4108   0.508   3.785   2.495
 1307HOH     H2 4109   0.379   3.725   2.443
 1308HOH      O 4110   0.513   2.089   3.911
 1308HOH     H1 4111   0.463   2.043   3.978
 1308HOH     H2 4112   0.458   2.165   3.888
 1309HOH      O 4113   3.599   0.106   3.537
 1309HOH     H1 4114   3.595   0.058   3.455
 1309HOH     H2 4115   3.634   0.043   3.600
 1310HOH      O 4116   0.256  -0.021   2.287
 1310HOH     H1 4117   0.312   0.036   2.339
 1310HOH     H2 4118   0.181   0.034   2.263
 1311HOH      O 4119   3.214   0.241   1.014
 1311HOH     H1 4120   3.282   0.174   1.006
 1311HOH     H2 4121   3.195   0.245   1.107
 1312HOH      O 4122   3.020   1.555   2.841
 1312HOH     H1 4123   3.060   1.580   2.924
 1312HOH     H2 4124   3.077   1.485   2.807
 1313HOH      O 4125   2.087   0.482   1.454
 1313HOH     H1 4126   2.099   0.408   1.513
 1313HOH     H2 4127   2.036   0.447   1.381
 1314HOH      O 4128   2.085   1.433   2.250
 1314HOH     H1 4129   2.141   1.463   2.322
 1314HOH     H2 4130   2.126   1.469   2.172
 1315HOH      O 4131   0.680   1.483   3.224
 1315HOH     H1 4132   0.715   1.520   3.305
 1315HOH     H2 4133   0.740   1.514   3.156
 1316HOH      O 4134   3.835   3.763   3.474
 1316HOH     H1 4135   3.903   3.760   3.407
 1316HOH     H2 4136   3.758   3.796   3.428
 1317HOH      O 4137   2.931   1.501   2.078
 1317HOH     H1 4138   2.961   1.585   2.113
 1317HOH     H2 4139   2.971   1.435   2.135
 1318HOH      O 4140   2.396   2.290   1.527
 1318HOH     H1 4141   2.400   2.239   1.608
 1318HOH     H2 4142   2.488   2.312   1.509
 1319HOH      O 4143   0.321   0.016   0.516
 1319HOH     H1 4144   0.407   0.053   0.499
 1319HOH     H2 4145   0.323  -0.008   0.608
 1320HOH      O 4146   1.657   1.794   0.773
 1320HOH     H1 4147   1.648   1.793   0.868
 1320HOH     H2 4148   1.700   1.878   0.754
 1321HOH      O 4149   1.245   3.623   1.258
 1321HOH     H1 4150   1.160   3.583   1.278
 1321HOH     H2 4151   1.301   3.599   1.332
 1322HOH      O 4152   3.886   3.492   3.228
 1322HOH     H1 4153   3.804   3.472   3.275
 1322HOH     H2 4154   3.858   3.510   3.138
 1323HOH      O 4155   2.283   0.630   0.355
 1323HOH     H1 4156   2.271   0.714   0.312
 1323HOH     H2 4157   2.195   0.607   0.387
 1324HOH      O 4158   3.159   0.358   1.991
 1324HOH     H1 4159   3.099   0.284   2.003
 1324HOH     H2 4160   3.159   0.404   2.075
 1325HOH      O 4161   1.694   3.006   0.973
 1325HOH     H1 4162   1.631   2.982   1.041
 1325HOH     H2 4163   1.641   3.053   0.908
 1326HOH      O 4164   0.793   3.605   1.780
 1326HOH     H1 4165   0.792   3.697   1.755
 1326HOH     H2 4166   0.705   3.573   1.759
 1327HOH      O 4167   2.074   1.031   3.664
 1327HOH     H1 4168   2.029   0.985   3.593
 1327HOH     H2 4169   2.159   0.988   3.670
 1328HOH      O 4170   3.921   0.935   1.605
 1328HOH     H1 4171   3.852   0.869   1.616
 1328HOH     H2 4172   3.949   0.955   1.694
 1329HOH      O 4173   1.324   1.938   3.582
 1329HOH     H1 4174   1.255   1.997   3.549
 1329HOH     H2 4175   1.393   1.943   3.516
 1330HOH      O 4176   3.833   2.137   3.185
 1330HOH     H1 4177   3.859   2.195   3.113
 1330HOH     H2 4178   3.914   2.091   3.208
 1331HOH      O 4179   2.321   2.558   3.004
 1331HOH     H1 4180   2.271   2.551   3.085
 1331HOH     H2 4181   2.259   2.530   2.936
 1332HOH      O 4182   2.635   1.134   3.435
 1332HOH     H1 4183   2.637   1.065   3.368
 1332HOH     H2 4184   2.719   1.179   3.425
 1333HOH      O 4185   2.076   1.708   2.974
 1333HOH     H1 4186   2.015   1.665   2.913
 1333HOH     H2 4187   2.150   1.734   2.919
 1334HOH      O 4188   1.207   3.563   3.185
 1334HOH     H1 4189   1.253   3.640   3.218
 1334HOH     H2 4190   1.211   3.572   3.090
 1335HOH      O 4191   3.322   2.252   3.604
 1335HOH     H1 4192   3.313   2.214   3.517
 1335HOH     H2 4193   3.362   2.337   3.589
 1336HOH      O 4194   2.172   0.970   0.434
 1336HOH     H1 4195   2.243   0.909   0.453
 1336HOH     H2 4196   2.200   1.015   0.354
 1337HOH      O 4197   0.055   3.844   1.968
 1337HOH     H1 4198   0.109   3.801   1.902
 1337HOH     H2 4199   0.054   3.936   1.941
 1338HOH      O 4200   0.467   1.900   2.624
 1338HOH     H1 4201   0.378   1.874   2.600
 1338HOH     H2 4202   0.458   1.937   2.712
 1339HOH      O 4203   3.455   0.844   0.479
 1339HOH     H1 4204   3.493   0.844   0.567
 1339HOH     H2 4205   3.381   0.784   0.485
 1340HOH      O 4206   3.887   0.012   1.199
 1340HOH     H1 4207   3.881   0.074   1.271
 1340HOH     H2 4208   3.803   0.019   1.154
 1341HOH      O 4209   1.756   0.027   0.583
 1341HOH     H1 4210   1.837   0.060   0.622
 1341HOH     H2 4211   1.773   0.027   0.489
 1342HOH      O 4212   1.709   1.276   3.749
 1342HOH     H1 4213   1.700   1.365   3.717
 1342HOH     H2 4214   1.653   1.223   3.692
 1343HOH      O 4215   1.822   3.012   1.819
 1343HOH     H1 4216   1.902   2.959   1.819
 1343HOH     H2 4217   1.755   2.955   1.856
 1344HOH      O 4218   2.137   3.010   0.654
 1344HOH     H1 4219   2.130   2.920   0.625
 1344HOH     H2 4220   2.086   3.013   0.735
 1345HOH      O 4221   0.487   1.624   0.995
 1345HOH     H1 4222   0.480   1.719   0.980
 1345HOH     H2 4223   0.480   1.615   1.090
 1346HOH      O 4224   0.406   1.161   3.452
 1346HOH     H1 4225   0.419   1.156   3.357
 1346HOH     H2 4226   0.340   1.229   3.464
 1347HOH      O 4227   0.644   0.940   2.215
 1347HOH     H1 4228   0.563   0.919   2.169
 1347HOH     H2 4229   0.627   1.024   2.256
 1348HOH      O 4230   3.454   2.758   0.717
 1348HOH     H1 4231   3.460   2.719   0.630
 1348HOH     H2 4232   3.545   2.766   0.746
 1349HOH      O 4233   0.483   2.850   0.778
 1349HOH     H1 4234   0.433   2.820   0.854
 1349HOH     H2 4235   0.425   2.911   0.733
 1350HOH      O 4236   0.690   0.533   0.469
 1350HOH     H1 4237   0.703   0.619   0.507
 1350HOH     H2 4238   0.600   0.510   0.491
 1351HOH      O 4239   2.656   0.590   3.034
 1351HOH     H1 4240   2.598   0.647   2.983
 1351HOH     H2 4241   2.604   0.510   3.049
 1352HOH      O 4242   3.681   1.472   3.970
 1352HOH     H1 4243   3.684   1.493   3.876
 1352HOH     H2 4244   3.635   1.388   3.973
 1353HOH      O 4245   1.366   2.360   0.930
 1353HOH     H1 4246   1.378   2.424   1.000
 1353HOH     H2 4247   1.299   2.397   0.874
 1354HOH      O 4248   0.523   0.534   2.458
 1354HOH     H1 4249   0.551   0.510   2.370
 1354HOH     H2 4250   0.492   0.452   2.496
 1355HOH      O 4251   2.269   3.829   1.057
 1355HOH     H1 4252   2.174   3.831   1.070
 1355HOH     H2 4253   2.280   3.790   0.970
 1356HOH      O 4254   1.632   0.101   2.029
 1356HOH     H1 4255   1.689   0.025   2.042
 1356HOH     H2 4256   1.653   0.133   1.942
 1357HOH      O 4257   0.177   0.449   2.433
 1357HOH     H1 4258   0.090   0.481   2.454
 1357HOH     H2 4259   0.212   0.418   2.517
 1358HOH      O 4260   0.637   1.951   3.716
 1358HOH     H1 4261   0.585   2.006   3.775
 1358HOH     H2 4262   0.620   1.987   3.629
 1359HOH      O 4263   2.704   2.256   3.174
 1359HOH     H1 4264   2.646   2.241   3.099
 1359HOH     H2 4265   2.664   2.330   3.220
 1360HOH      O 4266   1.409   3.237   1.325
 1360HOH     H1 4267   1.475   3.185   1.372
 1360HOH     H2 4268   1.411   3.322   1.367
 1361HOH      O 4269  -0.034   3.469   2.795
 1361HOH     H1 4270  -0.007   3.482   2.705
 1361HOH     H2 4271   0.048   3.466   2.845
 1362HOH      O 4272   1.808   2.727   3.892
 1362HOH     H1 4273   1.761   2.798   3.848
 1362HOH     H2 4274   1.751   2.651   3.882
 1363HOH      O 4275   0.958   2.110   2.367
 1363HOH     H1 4276   0.951   2.016   2.352
 1363HOH     H2 4277   0.963   2.120   2.462
 1364HOH      O 4278   0.149   1.007   1.966
 1364HOH     H1 4279   0.131   1.051   2.050
 1364HOH     H2 4280   0.070   0.957   1.947
 1365HOH      O 4281   0.524   2.055   1.710
 1365HOH     H1 4282   0.472   2.133   1.730
 1365HOH     H2 4283   0.528   2.007   1.792
 1366HOH      O 4284   3.158   2.438   2.605
 1366HOH     H1 4285   3.185   2.347   2.608
 1366HOH     H2 4286   3.134   2.459   2.696
 1367HOH      O 4287   1.579   1.919   1.325
 1367HOH     H1 4288   1.497   1.968   1.325
 1367HOH     H2 4289   1.563   1.845   1.385
 1368HOH      O 4290   1.962   2.523   2.455
 1368HOH     H1 4291   1.890   2.584   2.474
 1368HOH     H2 4292   2.039   2.564   2.494
 1369HOH      O 4293   3.146   0.478   1.702
 1369HOH     H1 4294   3.123   0.433   1.783
 1369HOH     H2 4295   3.166   0.408   1.640
 1370HOH      O 4296   2.351   3.375   2.506
 1370HOH     H1 4297   2.337   3.337   2.593
 1370HOH     H2 4298   2.285   3.444   2.500
 1371HOH      O 4299   0.342   1.068   1.436
 1371HOH     H1 4300   0.323   1.128   1.509
 1371HOH     H2 4301   0.256   1.045   1.401
 1372HOH      O 4302   2.879   2.424   3.529
 1372HOH     H1 4303   2.943   2.483   3.571
 1372HOH     H2 4304   2.824   2.394   3.602
 1373HOH      O 4305   3.944   1.249   0.478
 1373HOH     H1 4306   3.917   1.295   0.558
 1373HOH     H2 4307   3.913   1.304   0.407
 1374HOH      O 4308   0.995   3.680   0.003
 1374HOH     H1 4309   1.068   3.713   0.055
 1374HOH     H2 4310   0.966   3.602   0.050
 1375HOH      O 4311   0.251   1.862   0.072
 1375HOH     H1 4312   0.185   1.832   0.134
 1375HOH     H2 4313   0.279   1.782   0.027
 1376HOH      O 4314   3.228   2.415   3.106
 1376HOH     H1 4315   3.304   2.367   3.074
 1376HOH     H2 4316   3.153   2.366   3.075
 1377HOH      O 4317   1.842   2.322   2.016
 1377HOH     H1 4318   1.877   2.369   1.940
 1377HOH     H2 4319   1.829   2.391   2.082
 1378HOH      O 4320   2.523   0.204   0.946
 1378HOH     H1 4321   2.548   0.113   0.962
 1378HOH     H2 4322   2.540   0.249   1.029
 1379HOH      O 4323   0.493   3.078   2.376
 1379HOH     H1 4324   0.574   3.062   2.327
 1379HOH     H2 4325   0.523   3.100   2.464
 1380HOH      O 4326   1.765   2.503   3.612
 1380HOH     H1 4327   1.848   2.461   3.588
 1380HOH     H2 4328   1.726   2.443   3.676
 1381HOH      O 4329   0.765   3.884   1.867
 1381HOH     H1 4330   0.696   3.828   1.904
 1381HOH     H2 4331   0.718   3.943   1.808
 1382HOH      O 4332   2.754   3.205   2.945
 1382HOH     H1 4333   2.703   3.141   2.896
 1382HOH     H2 4334   2.758   3.281   2.888
 1383HOH      O 4335   1.112   3.587   2.602
 1383HOH     H1 4336   1.186   3.643   2.579
 1383HOH     H2 4337   1.055   3.642   2.656
 1384HOH      O 4338   0.980   3.908   1.657
 1384HOH     H1 4339   0.991   3.970   1.729
 1384HOH     H2 4340   1.054   3.848   1.666
 1385HOH      O 4341   2.864   2.339   1.702
 1385HOH     H1 4342   2.941   2.303   1.746
 1385HOH     H2 4343   2.792   2.321   1.762
 1386HOH      O 4344   1.664   1.961   0.169
 1386HOH     H1 4345   1.589   1.973   0.111
 1386HOH     H2 4346   1.717   2.040   0.157
 1387HOH      O 4347   1.673   1.246   3.408
 1387HOH     H1 4348   1.605   1.298   3.366
 1387HOH     H2 4349   1.625   1.180   3.458
 1388HOH      O 4350   1.536   3.727   2.801
 1388HOH     H1 4351   1.448   3.764   2.811
 1388HOH     H2 4352   1.534   3.648   2.855
 1389HOH      O 4353   3.816   3.368   1.567
 1389HOH     H1 4354   3.771   3.450   1.586
 1389HOH     H2 4355   3.881   3.392   1.500
 1390HOH      O 4356   0.714   0.561   0.896
 1390HOH     H1 4357   0.632   0.600   0.866
 1390HOH     H2 4358   0.715   0.474   0.856
 1391HOH      O 4359   1.329   2.690   0.575
 1391HOH     H1 4360   1.255   2.662   0.521
 1391HOH     H2 4361   1.371   2.759   0.523
 1392HOH      O 4362   0.562   2.808   3.715
 1392HOH     H1 4363   0.574   2.814   3.620
 1392HOH     H2 4364   0.559   2.898   3.745
 1393HOH      O 4365   3.371   0.816   0.124
 1393HOH     H1 4366   3.379   0.859   0.038
 1393HOH     H2 4367   3.377   0.723   0.104
 1394HOH      O 4368   0.459   3.604   3.542
 1394HOH     H1 4369   0.517   3.566   3.608
 1394HOH     H2 4370   0.518   3.638   3.475
 1395HOH      O 4371   0.180   3.726   2.845
 1395HOH     H1 4372   0.274   3.740   2.853
 1395HOH     H2 4373   0.162   3.734   2.751
 1396HOH      O 4374   3.411   2.553   2.600
 1396HOH     H1 4375   3.456   2.475   2.569
 1396HOH     H2 4376   3.318   2.528   2.600
 1397HOH      O 4377   2.225   1.554   1.591
 1397HOH     H1 4378   2.141   1.516   1.565
 1397HOH     H2 4379   2.218   1.565   1.686
 1398HOH      O 4380   0.299   2.518   2.757
 1398HOH     H1 4381   0.254   2.534   2.674
 1398HOH     H2 4382   0.359   2.592   2.766
 1399HOH      O 4383   0.244   2.742   3.923
 1399HOH     H1 4384   0.185   2.789   3.864
 1399HOH     H2 4385   0.238   2.651   3.896
 1400HOH      O 4386   2.126   3.484   1.702
 1400HOH     H1 4387   2.117   3.398   1.743
 1400HOH     H2 4388   2.142   3.465   1.610
 1401HOH      O 4389   3.698   1.933   2.006
 1401HOH     H1 4390   3.613   1.935   1.962
 1401HOH     H2 4391   3.759   1.902   1.939
 1402HOH      O 4392   3.892   3.783   3.737
 1402HOH     H1 4393   3.826   3.735   3.787
 1402HOH     H2 4394   3.865   3.772   3.646
 1403HOH      O 4395   3.935   0.852   0.110
 1403HOH     H1 4396   3.937   0.760   0.135
 1403HOH     H2 4397   3.857   0.887   0.153
 1404HOH      O 4398   1.434   2.099   2.323
 1404HOH     H1 4399   1.370   2.089   2.252
 1404HOH     H2 4400   1.507   2.147   2.284
 1405HOH      O 4401   2.810   0.607   0.821
 1405HOH     H1 4402   2.893   0.562   0.806
 1405HOH     H2 4403   2.743   0.542   0.799
 1406HOH      O 4404   1.201   3.881   1.972
 1406HOH     H1 4405   1.125   3.926   2.009
 1406HOH     H2 4406   1.169   3.794   1.949
 1407HOH      O 4407   2.998   1.789   0.517
 1407HOH     H1 4408   2.987   1.783   0.422
 1407HOH     H2 4409   2.914   1.822   0.548
 1408HOH      O 4410   2.325   2.628   3.615
 1408HOH     H1 4411   2.318   2.661   3.526
 1408HOH     H2 4412   2.358   2.702   3.666
 1409HOH      O 4413   2.294   1.028   1.595
 1409HOH     H1 4414   2.242   1.010   1.517
 1409HOH     H2 4415   2.376   0.980   1.580
 1410HOH      O 4416   0.503   1.187   1.222
 1410HOH     H1 4417   0.442   1.261   1.217
 1410HOH     H2 4418   0.476   1.139   1.300
 1411HOH      O 4419   3.783   2.226   1.312
 1411HOH     H1 4420   3.810   2.267   1.230
 1411HOH     H2 4421   3.695   2.259   1.328
 1412HOH      O 4422   0.138   3.989   3.670
 1412HOH     H1 4423   0.170   3.962   3.584
 1412HOH     H2 4424   0.214   4.028   3.713
 1413HOH      O 4425   1.259   3.811   3.707
 1413HOH     H1 4426   1.202   3.748   3.663
 1413HOH     H2 4427   1.335   3.819   3.648
 1414HOH      O 4428   3.006   2.536   2.146
 1414HOH     H1 4429   2.992   2.531   2.241
 1414HOH     H2 4430   3.080   2.596   2.136
 1415HOH      O 4431   1.048   2.578   2.980
 1415HOH     H1 4432   1.098   2.531   2.913
 1415HOH     H2 4433   1.099   2.568   3.060
 1416HOH      O 4434   2.690   1.383   0.821
 1416HOH     H1 4435   2.783   1.398   0.839
 1416HOH     H2 4436   2.682   1.289   0.809
 1417HOH      O 4437   0.932   1.995   2.653
 1417HOH     H1 4438   0.987   1.998   2.732
 1417HOH     H2 4439   0.869   2.065   2.665
 1418HOH      O 4440   2.004   3.964   3.365
 1418HOH     H1 4441   1.974   4.037   3.311
 1418HOH     H2 4442   2.098   3.958   3.345
 1419HOH      O 4443   0.543   3.151   2.632
 1419HOH     H1 4444   0.618   3.133   2.690
 1419HOH     H2 4445   0.470   3.164   2.693
 1420HOH      O 4446   1.397   3.456   1.472
 1420HOH     H1 4447   1.455   3.464   1.548
 1420HOH     H2 4448   1.311   3.436   1.510
 1421HOH      O 4449   2.829   3.863   1.834
 1421HOH     H1 4450   2.745   3.870   1.790
 1421HOH     H2 4451   2.816   3.904   1.919
 1422HOH      O 4452   3.149   2.492   0.593
 1422HOH     H1 4453   3.217   2.448   0.643
 1422HOH     H2 4454   3.197   2.540   0.525
 1423HOH      O 4455   3.782   3.369   1.201
 1423HOH     H1 4456   3.775   3.274   1.191
 1423HOH     H2 4457   3.876   3.387   1.193
 1424HOH      O 4458   1.278   0.892   1.113
 1424HOH     H1 4459   1.356   0.918   1.162
 1424HOH     H2 4460   1.221   0.851   1.179
 1425HOH      O 4461   1.073   3.026   1.672
 1425HOH     H1 4462   1.013   2.974   1.725
 1425HOH     H2 4463   1.155   3.025   1.721
 1426HOH      O 4464   2.987   3.090   3.272
 1426HOH     H1 4465   2.985   3.145   3.350
 1426HOH     H2 4466   2.896   3.083   3.244
 1427HOH      O 4467   0.241   3.430   3.527
 1427HOH     H1 4468   0.329   3.466   3.519
 1427HOH     H2 4469   0.247   3.341   3.492
 1428HOH      O 4470   1.388   0.031   0.307
 1428HOH     H1 4471   1.414  -0.045   0.358
 1428HOH     H2 4472   1.318   0.072   0.358
 1429HOH      O 4473   0.168   0.653   3.785
 1429HOH     H1 4474   0.192   0.746   3.779
 1429HOH     H2 4475   0.085   0.646   3.738
 1430HOH      O 4476   3.925   2.243   0.064
 1430HOH     H1 4477   3.832   2.262   0.079
 1430HOH     H2 4478   3.971   2.297   0.129
 1431HOH      O 4479   0.111   3.725   3.832
 1431HOH     H1 4480   0.027   3.742   3.789
 1431HOH     H2 4481   0.167   3.798   3.804
 1432HOH      O 4482   3.956   2.173   0.891
 1432HOH     H1 4483   3.938   2.155   0.799
 1432HOH     H2 4484   3.895   2.242   0.914
 1433HOH      O 4485   2.924   2.444   0.739
 1433HOH     H1 4486   3.013   2.462   0.710
 1433HOH     H2 4487   2.915   2.494   0.820
 1434HOH      O 4488   3.603   1.647   0.636
 1434HOH     H1 4489   3.565   1.582   0.694
 1434HOH     H2 4490   3.536   1.660   0.568
 1435HOH      O 4491   0.939   2.341   3.751
 1435HOH     H1 4492   0.913   2.397   3.677
 1435HOH     H2 4493   1.013   2.386   3.790
 1436HOH      O 4494   1.957   1.607   3.690
 1436HOH     H1 4495   1.910   1.546   3.633
 1436HOH     H2 4496   2.024   1.554   3.732
 1437HOH      O 4497   2.678   3.462   1.663
 1437HOH     H1 4498   2.737   3.452   1.739
 1437HOH     H2 4499   2.720   3.530   1.610
 1438HOH      O 4500   0.121   2.638   3.325
 1438HOH     H1 4501   0.143   2.582   3.400
 1438HOH     H2 4502   0.192   2.702   3.321
 1439HOH      O 4503   2.387   0.911   0.892
 1439HOH     H1 4504   2.384   0.842   0.826
 1439HOH     H2 4505   2.312   0.967   0.872
 1440HOH      O 4506   1.198   0.685   3.876
 1440HOH     H1 4507   1.227   0.633   3.950
 1440HOH     H2 4508   1.205   0.776   3.906
 1441HOH      O 4509   3.426   0.576   4.000
 1441HOH     H1 4510   3.460   0.588   3.912
 1441HOH     H2 4511   3.331   0.570   3.989
 1442HOH      O 4512   3.684   1.765   1.633
 1442HOH     H1 4513   3.741   1.793   1.705
 1442HOH     H2 4514   3.599   1.804   1.653
 1443HOH      O 4515   3.800   0.975   0.574
 1443HOH     H1 4516   3.861   0.984   0.501
 1443HOH     H2 4517   3.849   1.007   0.650
 1444HOH      O 4518   1.028   2.922   2.470
 1444HOH     H1 4519   1.105   2.962   2.428
 1444HOH     H2 4520   0.971   2.897   2.398
 1445HOH      O 4521   1.976   2.302   3.569
 1445HOH     H1 4522   2.054   2.357   3.581
 1445HOH     H2 4523   2.008   2.225   3.521
 1446HOH      O 4524   0.775   2.591   1.049
 1446HOH     H1 4525   0.764   2.661   0.985
 1446HOH     H2 4526   0.686   2.559   1.064
 1447HOH      O 4527   1.306   2.186   1.623
 1447HOH     H1 4528   1.213   2.187   1.599
 1447HOH     H2 4529   1.318   2.102   1.669
 1448HOH      O 4530   1.861   1.559   3.286
 1448HOH     H1 4531   1.949   1.522   3.274
 1448HOH     H2 4532   1.876   1.653   3.295
 1449HOH      O 4533   2.727   1.984   3.532
 1449HOH     H1 4534   2.638   2.016   3.519
 1449HOH     H2 4535   2.717   1.905   3.585
 1450HOH      O 4536   1.139   3.350   1.547
 1450HOH     H1 4537   1.048   3.373   1.528
 1450HOH     H2 4538   1.132   3.277   1.609
 1451HOH      O 4539   2.274   0.385   1.069
 1451HOH     H1 4540   2.326   0.385   1.149
 1451HOH     H2 4541   2.243   0.294   1.061
 1452HOH      O 4542   0.890   0.112   1.245
 1452HOH     H1 4543   0.927   0.128   1.332
 1452HOH     H2 4544   0.923   0.026   1.221
 1453HOH      O 4545   2.123   3.948   1.981
 1453HOH     H1 4546   2.119   3.932   2.075
 1453HOH     H2 4547   2.082   3.871   1.942
 1454HOH      O 4548   2.385   0.015   0.596
 1454HOH     H1 4549   2.306  -0.033   0.573
 1454HOH     H2 4550   2.437   0.018   0.516
 1455HOH      O 4551   3.921   2.627   2.764
 1455HOH     H1 4552   3.875   2.625   2.848
 1455HOH     H2 4553   3.891   2.549   2.718
 1456HOH      O 4554   2.984   3.381   0.182
 1456HOH     H1 4555   2.908   3.433   0.155
 1456HOH     H2 4556   3.029   3.437   0.246
 1457HOH      O 4557   0.347   3.221   2.822
 1457HOH     H1 4558   0.277   3.156   2.817
 1457HOH     H2 4559   0.303   3.303   2.847
 1458HOH      O 4560   2.261   3.808   0.519
 1458HOH     H1 4561   2.185   3.846   0.475
 1458HOH     H2 4562   2.251   3.714   0.506
 1459HOH      O 4563   2.458   3.976   2.961
 1459HOH     H1 4564   2.423   3.960   2.874
 1459HOH     H2 4565   2.407   3.919   3.018
 1460HOH      O 4566   3.166   2.285   2.078
 1460HOH     H1 4567   3.239   2.270   2.138
 1460HOH     H2 4568   3.135   2.373   2.100
 1461HOH      O 4569   2.061   2.462   1.433
 1461HOH     H1 4570   1.976   2.440   1.393
 1461HOH     H2 4571   2.124   2.405   1.388
 1462HOH      O 4572   2.242   3.700   3.404
 1462HOH     H1 4573   2.327   3.675   3.367
 1462HOH     H2 4574   2.262   3.723   3.495
 1463HOH      O 4575   0.316   3.269   0.507
 1463HOH     H1 4576   0.322   3.234   0.418
 1463HOH     H2 4577   0.245   3.332   0.503
 1464HOH      O 4578   1.236   1.601   2.952
 1464HOH     H1 4579   1.177   1.599   2.877
 1464HOH     H2 4580   1.311   1.549   2.925
 1465HOH      O 4581   2.285   1.023   3.226
 1465HOH     H1 4582   2.294   1.011   3.320
 1465HOH     H2 4583   2.220   1.092   3.216
 1466HOH      O 4584   3.902   0.789   2.787
 1466HOH     H1 4585   3.948   0.806   2.869
 1466HOH     H2 4586   3.960   0.823   2.719
 1467HOH      O 4587   1.777   3.787   3.332
 1467HOH     H1 4588   1.703   3.846   3.320
 1467HOH     H2 4589   1.850   3.830   3.286
 1468HOH      O 4590   2.298   0.126   1.373
 1468HOH     H1 4591   2.276   0.209   1.330
 1468HOH     H2 4592   2.354   0.151   1.446
 1469HOH      O 4593   0.974   3.211   1.188
 1469HOH     H1 4594   1.009   3.172   1.268
 1469HOH     H2 4595   0.944   3.136   1.136
 1470HOH      O 4596   2.306   2.284   1.934
 1470HOH     H1 4597   2.274   2.248   1.851
 1470HOH     H2 4598   2.386   2.331   1.911
 1471HOH      O 4599   2.450   1.249   1.819
 1471HOH     H1 4600   2.418   1.179   1.762
 1471HOH     H2 4601   2.432   1.218   1.907
 1472HOH      O 4602   3.714   3.723   1.821
 1472HOH     H1 4603   3.657   3.705   1.746
 1472HOH     H2 4604   3.803   3.714   1.786
 1473HOH      O 4605   3.846   2.694   0.229
 1473HOH     H1 4606   3.789   2.621   0.254
 1473HOH     H2 4607   3.794   2.772   0.244
 1474HOH      O 4608   1.853   3.271   4.010
 1474HOH     H1 4609   1.763   3.298   3.994
 1474HOH     H2 4610   1.898   3.289   3.927
 1475HOH      O 4611   2.632   1.141   3.843
 1475HOH     H1 4612   2.571   1.162   3.772
 1475HOH     H2 4613   2.637   1.045   3.843
 1476HOH      O 4614   3.381   3.531   0.292
 1476HOH     H1 4615   3.437   3.586   0.345
 1476HOH     H2 4616   3.332   3.478   0.355
 1477HOH      O 4617   2.357   1.214   0.375
 1477HOH     H1 4618   2.365   1.309   0.383
 1477HOH     H2 4619   2.408   1.179   0.448
 1478HOH      O 4620   3.645   2.256   3.575
 1478HOH     H1 4621   3.724   2.212   3.606
 1478HOH     H2 4622   3.677   2.321   3.513
 1479HOH      O 4623   3.875   0.162   0.212
 1479HOH     H1 4624   3.905   0.245   0.175
 1479HOH     H2 4625   3.863   0.104   0.137
 1480HOH      O 4626   1.252   2.448   0.060
 1480HOH     H1 4627   1.347   2.450   0.067
 1480HOH     H2 4628   1.225   2.375   0.115
 1481HOH      O 4629   1.821   3.873   2.838
 1481HOH     H1 4630   1.741   3.873   2.785
 1481HOH     H2 4631   1.790   3.880   2.928
 1482HOH      O 4632   0.358   0.420   1.609
 1482HOH     H1 4633   0.441   0.400   1.650
 1482HOH     H2 4634   0.351   0.516   1.614
 1483HOH      O 4635   2.884   0.874   0.835
 1483HOH     H1 4636   2.833   0.796   0.857
 1483HOH     H2 4637   2.946   0.882   0.907
 1484HOH      O 4638   0.197   2.510   1.283
 1484HOH     H1 4639   0.181   2.427   1.327
 1484HOH     H2 4640   0.269   2.550   1.332
 1485HOH      O 4641   2.839   0.527   3.233
 1485HOH     H1 4642   2.809   0.438   3.219
 1485HOH     H2 4643   2.798   0.578   3.163
 1486HOH      O 4644   3.798   3.607   0.393
 1486HOH     H1 4645   3.843   3.524   0.404
 1486HOH     H2 4646   3.859   3.673   0.427
 1487HOH      O 4647   0.068   2.109   1.138
 1487HOH     H1 4648   0.015   2.146   1.067
 1487HOH     H2 4649   0.011   2.043   1.177
 1488HOH      O 4650   2.205   1.736   3.632
 1488HOH     H1 4651   2.167   1.722   3.719
 1488HOH     H2 4652   2.215   1.648   3.596
 1489HOH      O 4653   3.651   1.966   3.590
 1489HOH     H1 4654   3.614   1.907   3.524
 1489HOH     H2 4655   3.613   2.051   3.570
 1490HOH      O 4656   3.475   2.559   0.509
 1490HOH     H1 4657   3.546   2.567   0.445
 1490HOH     H2 4658   3.499   2.483   0.562
 1491HOH      O 4659   3.560   3.455   2.315
 1491HOH     H1 4660   3.581   3.471   2.223
 1491HOH     H2 4661   3.524   3.366   2.316
 1492HOH      O 4662   3.342   1.286   2.572
 1492HOH     H1 4663   3.307   1.197   2.561
 1492HOH     H2 4664   3.435   1.278   2.548
 1493HOH      O 4665   3.323   1.813   2.238
 1493HOH     H1 4666   3.341   1.719   2.234
 1493HOH     H2 4667   3.346   1.838   2.327
 1494HOH      O 4668   2.213   0.210   3.944
 1494HOH     H1 4669   2.277   0.142   3.927
 1494HOH     H2 4670   2.128   0.167   3.932
 1495HOH      O 4671   0.204   0.924   3.739
 1495HOH     H1 4672   0.294   0.955   3.729
 1495HOH     H2 4673   0.175   0.962   3.823
 1496HOH      O 4674   0.128   2.349   1.500
 1496HOH     H1 4675   0.050   2.302   1.530
 1496HOH     H2 4676   0.157   2.398   1.576
 1497HOH      O 4677   0.316   3.819   0.250
 1497HOH     H1 4678   0.378   3.798   0.181
 1497HOH     H2 4679   0.233   3.782   0.219
 1498HOH      O 4680   2.375   2.578   0.141
 1498HOH     H1 4681   2.349   2.635   0.069
 1498HOH     H2 4682   2.435   2.631   0.193
 1499HOH      O 4683   0.445   2.993   3.165
 1499HOH     H1 4684   0.483   3.034   3.087
 1499HOH     H2 4685   0.351   2.992   3.148
 1500HOH      O 4686   2.649   1.406   2.739
 1500HOH     H1 4687   2.555   1.387   2.739
 1500HOH     H2 4688   2.681   1.369   2.822
 1501HOH      O 4689   0.933   2.651   3.631
 1501HOH     H1 4690   0.979   2.692   3.558
 1501HOH     H2 4691   0.873   2.589   3.590
 1502HOH      O 4692   2.175   2.682   2.514
 1502HOH     H1 4693   2.201   2.720   2.430
 1502HOH     H2 4694   2.172   2.757   2.574
 1503HOH      O 4695   3.955   1.812   0.607
 1503HOH     H1 4696   4.043   1.812   0.645
 1503HOH     H2 4697   3.900   1.853   0.674
 1504HOH      O 4698   1.907   1.319   3.925
 1504HOH     H1 4699   1.829   1.293   3.876
 1504HOH     H2 4700   1.928   1.243   3.979
 1505HOH      O 4701   2.931   2.308   3.295
 1505HOH     H1 4702   2.849   2.270   3.264
 1505HOH     H2 4703   2.910   2.344   3.380
 1506HOH      O 4704   2.989   1.411   1.355
 1506HOH     H1 4705   3.033   1.457   1.283
 1506HOH     H2 4706   2.926   1.474   1.389
 1507HOH      O 4707   0.255   1.156   2.704
 1507HOH     H1 4708   0.340   1.129   2.668
 1507HOH     H2 4709   0.201   1.174   2.627
 1508HOH      O 4710   3.960   3.094   3.802
 1508HOH     H1 4711   4.002   3.179   3.818
 1508HOH     H2 4712   3.965   3.083   3.707
 1509HOH      O 4713   1.397   1.028   1.336
 1509HOH     H1 4714   1.401   1.116   1.301
 1509HOH     H2 4715   1.477   1.018   1.388
 1510HOH      O 4716   0.013   3.565   1.293
 1510HOH     H1 4717   0.060   3.613   1.361
 1510HOH     H2 4718  -0.022   3.633   1.235
 1511HOH      O 4719   3.907   1.834   3.958
 1511HOH     H1 4720   3.951   1.914   3.988
 1511HOH     H2 4721   3.973   1.766   3.965
 1512HOH      O 4722   3.249   0.415   0.267
 1512HOH     H1 4723   3.223   0.492   0.318
 1512HOH     H2 4724   3.337   0.394   0.297
 1513HOH      O 4725   3.549   0.542   3.051
 1513HOH     H1 4726   3.514   0.484   2.984
 1513HOH     H2 4727   3.614   0.595   3.006
 1514HOH      O 4728   2.807   1.558   3.834
 1514HOH     H1 4729   2.718   1.525   3.843
 1514HOH     H2 4730   2.851   1.533   3.916
 1515HOH      O 4731   0.354   3.085   0.699
 1515HOH     H1 4732   0.352   3.147   0.626
 1515HOH     H2 4733   0.341   3.139   0.777
 1516HOH      O 4734   2.521   2.181   0.402
 1516HOH     H1 4735   2.530   2.227   0.486
 1516HOH     H2 4736   2.600   2.206   0.353
 1517HOH      O 4737   0.830   2.725   2.922
 1517HOH     H1 4738   0.911   2.679   2.944
 1517HOH     H2 4739   0.814   2.783   2.997
 1518HOH      O 4740   2.785   2.005   0.477
 1518HOH     H1 4741   2.752   2.078   0.424
 1518HOH     H2 4742   2.706   1.961   0.508
 1519HOH      O 4743   1.290   3.994   3.184
 1519HOH     H1 4744   1.218   4.051   3.158
 1519HOH     H2 4745   1.278   3.980   3.278
 1520HOH      O 4746   1.767   2.047   0.746
 1520HOH     H1 4747   1.697   2.112   0.739
 1520HOH     H2 4748   1.848   2.098   0.737
 1521HOH      O 4749   3.193   1.819   2.978
 1521HOH     H1 4750   3.287   1.801   2.980
 1521HOH     H2 4751   3.187   1.906   2.937
 1522HOH      O 4752   3.155   1.923   0.938
 1522HOH     H1 4753   3.177   2.005   0.983
 1522HOH     H2 4754   3.081   1.947   0.882
 1523HOH      O 4755   3.933   1.068   2.528
 1523HOH     H1 4756   3.851   1.058   2.576
 1523HOH     H2 4757   3.947   0.983   2.486
 1524HOH      O 4758   3.796   0.329   3.428
 1524HOH     H1 4759   3.737   0.255   3.440
 1524HOH     H2 4760   3.872   0.308   3.482
 1525HOH      O 4761   1.021   0.156   1.486
 1525HOH     H1 4762   0.990   0.112   1.565
 1525HOH     H2 4763   1.035   0.246   1.512
 1526HOH      O 4764   3.566   3.275   0.355
 1526HOH     H1 4765   3.634   3.319   0.304
 1526HOH     H2 4766   3.494   3.338   0.358
 1527HOH      O 4767   1.393   3.015   0.103
 1527HOH     H1 4768   1.305   3.028   0.137
 1527HOH     H2 4769   1.421   2.931   0.139
 1528HOH      O 4770   1.986   1.998   0.979
 1528HOH     H1 4771   1.977   1.907   1.005
 1528HOH     H2 4772   1.914   2.043   1.023
 1529HOH      O 4773   1.574   1.586   0.097
 1529HOH     H1 4774   1.494   1.533   0.099
 1529HOH     H2 4775   1.581   1.621   0.185
 1530HOH      O 4776   2.907   0.182   3.645
 1530HOH     H1 4777   2.878   0.270   3.667
 1530HOH     H2 4778   2.974   0.195   3.578
 1531HOH      O 4779   1.640   1.912   0.472
 1531HOH     H1 4780   1.658   1.821   0.448
 1531HOH     H2 4781   1.718   1.940   0.519
 1532HOH      O 4782   3.530   1.564   0.170
 1532HOH     H1 4783   3.492   1.478   0.189
 1532HOH     H2 4784   3.606   1.545   0.115
 1533HOH      O 4785   1.588   2.062   2.948
 1533HOH     H1 4786   1.555   2.060   2.859
 1533HOH     H2 4787   1.510   2.052   3.003
 1534HOH      O 4788   2.970   2.182   1.240
 1534HOH     H1 4789   3.026   2.188   1.317
 1534HOH     H2 4790   2.937   2.092   1.241
 1535HOH      O 4791   3.384   2.407   1.167
 1535HOH     H1 4792   3.435   2.378   1.242
 1535HOH     H2 4793   3.449   2.437   1.104
 1536HOH      O 4794   3.108   0.232   1.250
 1536HOH     H1 4795   3.041   0.253   1.316
 1536HOH     H2 4796   3.103   0.137   1.241
 1537HOH      O 4797   0.789   2.696   1.301
 1537HOH     H1 4798   0.785   2.640   1.223
 1537HOH     H2 4799   0.702   2.736   1.307
 1538HOH      O 4800   0.852   2.464   1.936
 1538HOH     H1 4801   0.873   2.441   2.027
 1538HOH     H2 4802   0.928   2.435   1.886
 1539HOH      O 4803   0.390   3.900   2.081
 1539HOH     H1 4804   0.334   3.929   2.153
 1539HOH     H2 4805   0.479   3.913   2.114
 1540HOH      O 4806   0.311   2.234   2.120
 1540HOH     H1 4807   0.269   2.275   2.044
 1540HOH     H2 4808   0.399   2.211   2.089
 1541HOH      O 4809   0.028   3.713   3.255
 1541HOH     H1 4810   0.006   3.756   3.172
 1541HOH     H2 4811  -0.005   3.624   3.244
 1542HOH      O 4812   1.169   2.514   1.541
 1542HOH     H1 4813   1.192   2.605   1.561
 1542HOH     H2 4814   1.080   2.504   1.576
 1543HOH      O 4815   0.762   0.572   1.614
 1543HOH     H1 4816   0.792   0.588   1.703
 1543HOH     H2 4817   0.691   0.636   1.601
 1544HOH      O 4818   3.340   0.844   3.481
 1544HOH     H1 4819   3.298   0.904   3.420
 1544HOH     H2 4820   3.269   0.790   3.515
 1545HOH      O 4821   2.352   2.519   0.517
 1545HOH     H1 4822   2.301   2.553   0.591
 1545HOH     H2 4823   2.286   2.482   0.458
 1546HOH      O 4824   2.546   1.548   1.042
 1546HOH     H1 4825   2.579   1.501   0.966
 1546HOH     H2 4826   2.591   1.632   1.039
 1547HOH      O 4827   3.024   3.912   0.107
 1547HOH     H1 4828   3.091   3.879   0.168
 1547HOH     H2 4829   2.966   3.965   0.161
 1548HOH      O 4830   3.893   1.864   1.824
 1548HOH     H1 4831   3.959   1.832   1.885
 1548HOH     H2 4832   3.937   1.867   1.740
 1549HOH      O 4833   1.679   2.659   1.080
 1549HOH     H1 4834   1.659   2.637   0.989
 1549HOH     H2 4835   1.609   2.720   1.106
 1550HOH      O 4836   3.387   3.070   2.894
 1550HOH     H1 4837   3.353   3.072   2.804
 1550HOH     H2 4838   3.478   3.044   2.885
 1551HOH      O 4839   2.415   1.903   3.506
 1551HOH     H1 4840   2.357   1.847   3.558
 1551HOH     H2 4841   2.472   1.842   3.459
 1552HOH      O 4842   1.521   2.639   3.604
 1552HOH     H1 4843   1.608   2.600   3.601
 1552HOH     H2 4844   1.525   2.712   3.542
 1553HOH      O 4845   1.351   1.463   3.700
 1553HOH     H1 4846   1.296   1.532   3.663
 1553HOH     H2 4847   1.438   1.501   3.707
 1554HOH      O 4848   3.257   1.830   0.616
 1554HOH     H1 4849   3.315   1.788   0.553
 1554HOH     H2 4850   3.171   1.830   0.574
 1555HOH      O 4851   0.562   2.155   2.056
 1555HOH     H1 4852   0.596   2.237   2.022
 1555HOH     H2 4853   0.629   2.124   2.117
 1556HOH      O 4854   1.528   3.429   2.791
 1556HOH     H1 4855   1.483   3.445   2.708
 1556HOH     H2 4856   1.587   3.356   2.773
 1557HOH      O 4857   1.000   0.975   1.028
 1557HOH     H1 4858   0.936   0.915   0.992
 1557HOH     H2 4859   1.083   0.927   1.025
 1558HOH      O 4860   2.881   1.669   1.218
 1558HOH     H1 4861   2.839   1.746   1.179
 1558HOH     H2 4862   2.954   1.649   1.159
 1559HOH      O 4863   0.263   2.398   3.039
 1559HOH     H1 4864   0.174   2.429   3.055
 1559HOH     H2 4865   0.289   2.440   2.956
 1560HOH      O 4866  -0.004   3.239   0.234
 1560HOH     H1 4867   0.068   3.206   0.180
 1560HOH     H2 4868  -0.058   3.162   0.251
 1561HOH      O 4869   2.230   2.499   1.712
 1561HOH     H1 4870   2.253   2.583   1.673
 1561HOH     H2 4871   2.222   2.440   1.637
 1562HOH      O 4872   3.303   2.783   1.412
 1562HOH     H1 4873   3.224   2.730   1.424
 1562HOH     H2 4874   3.283   2.837   1.335
 1563HOH      O 4875   0.209   3.722   2.349
 1563HOH     H1 4876   0.200   3.816   2.332
 1563HOH     H2 4877   0.120   3.694   2.370
 1564HOH      O 4878   3.458   2.941   2.280
 1564HOH     H1 4879   3.445   2.942   2.185
 1564HOH     H2 4880   3.374   2.913   2.316
 1565HOH      O 4881   1.744   3.005  -0.024
 1565HOH     H1 4882   1.741   2.945   0.051
 1565HOH     H2 4883   1.801   3.077   0.006
 1566HOH      O 4884   2.776   2.327   2.282
 1566HOH     H1 4885   2.801   2.394   2.219
 1566HOH     H2 4886   2.839   2.256   2.269
 1567HOH      O 4887   0.673   4.014   3.324
 1567HOH     H1 4888   0.606   3.949   3.302
 1567HOH     H2 4889   0.756   3.971   3.306
 1568HOH      O 4890   1.630   0.704   3.856
 1568HOH     H1 4891   1.721   0.720   3.830
 1568HOH     H2 4892   1.632   0.704   3.952
 1569HOH      O 4893   3.619   1.179   3.940
 1569HOH     H1 4894   3.671   1.115   3.891
 1569HOH     H2 4895   3.539   1.131   3.963
 1570HOH      O 4896   3.470   0.620   0.830
 1570HOH     H1 4897   3.440   0.692   0.886
 1570HOH     H2 4898   3.546   0.654   0.784
 1571HOH      O 4899   1.098   0.002   2.900
 1571HOH     H1 4900   1.075   0.004   2.993
 1571HOH     H2 4901   1.028   0.051   2.857
 1572HOH      O 4902   2.509   1.095   0.563
 1572HOH     H1 4903   2.563   1.086   0.642
 1572HOH     H2 4904   2.476   1.006   0.547
 1573HOH      O 4905   2.625   0.301   0.458
 1573HOH     H1 4906   2.570   0.239   0.411
 1573HOH     H2 4907   2.571   0.380   0.463
 1574HOH      O 4908   1.610   2.319   3.090
 1574HOH     H1 4909   1.615   2.237   3.040
 1574HOH     H2 4910   1.578   2.383   3.027
 1575HOH      O 4911   0.809   1.483   2.137
 1575HOH     H1 4912   0.898   1.474   2.170
 1575HOH     H2 4913   0.816   1.541   2.061
 1576HOH      O 4914   2.536   2.718   0.405
 1576HOH     H1 4915   2.602   2.659   0.369
 1576HOH     H2 4916   2.475   2.660   0.451
 1577HOH      O 4917   3.926   2.626   2.264
 1577HOH     H1 4918   3.924   2.532   2.251
 1577HOH     H2 4919   3.871   2.662   2.194
 1578HOH      O 4920   0.734   1.364   0.400
 1578HOH     H1 4921   0.792   1.299   0.441
 1578HOH     H2 4922   0.648   1.321   0.398
 1579HOH      O 4923   2.283   2.540   2.213
 1579HOH     H1 4924   2.239   2.465   2.252
 1579HOH     H2 4925   2.370   2.508   2.190
 1580HOH      O 4926   0.750   0.474   2.044
 1580HOH     H1 4927   0.660   0.495   2.066
 1580HOH     H2 4928   0.756   0.379   2.056
 1581HOH      O 4929   0.049   3.982   0.272
 1581HOH     H1 4930   0.000   4.064   0.266
 1581HOH     H2 4931   0.007   3.935   0.345
 1582HOH      O 4932   0.811   0.709   3.663
 1582HOH     H1 4933   0.849   0.727   3.576
 1582HOH     H2 4934   0.869   0.643   3.701
 1583HOH      O 4935   0.938   3.607   2.011
 1583HOH     H1 4936   0.860   3.623   1.957
 1583HOH     H2 4937   1.011   3.631   1.954
 1584HOH      O 4938   1.310   0.270   0.721
 1584HOH     H1 4939   1.389   0.216   0.725
 1584HOH     H2 4940   1.338   0.349   0.675
 1585HOH      O 4941   1.974   0.087   1.544
 1585HOH     H1 4942   2.049   0.128   1.588
 1585HOH     H2 4943   1.917   0.161   1.522
 1586HOH      O 4944   1.334   2.953   3.846
 1586HOH     H1 4945   1.413   2.955   3.793
 1586HOH     H2 4946   1.361   2.992   3.930
 1587HOH      O 4947   2.718   1.943   0.085
 1587HOH     H1 4948   2.789   1.921   0.025
 1587HOH     H2 4949   2.644   1.966   0.027
 1588HOH      O 4950   0.895   3.609   1.056
 1588HOH     H1 4951   0.930   3.544   0.996
 1588HOH     H2 4952   0.819   3.646   1.011
 1589HOH      O 4953   0.281   3.553   1.980
 1589HOH     H1 4954   0.186   3.559   1.971
 1589HOH     H2 4955   0.295   3.530   2.071
 1590HOH      O 4956   1.756   2.764   0.155
 1590HOH     H1 4957   1.840   2.779   0.199
 1590HOH     H2 4958   1.781   2.726   0.070
 1591HOH      O 4959   0.202   0.102   0.051
 1591HOH     H1 4960   0.126   0.092  -0.006
 1591HOH     H2 4961   0.250   0.176   0.014
 1592HOH      O 4962   2.897   2.778   3.195
 1592HOH     H1 4963   2.882   2.722   3.272
 1592HOH     H2 4964   2.809   2.807   3.170
 1593HOH      O 4965   1.982   3.118   3.045
 1593HOH     H1 4966   2.018   3.081   3.126
 1593HOH     H2 4967   1.951   3.205   3.071
 1594HOH      O 4968   1.984   3.887   1.077
 1594HOH     H1 4969   2.002   3.924   1.163
 1594HOH     H2 4970   1.964   3.795   1.094
 1595HOH      O 4971   2.689   2.227   3.729
 1595HOH     H1 4972   2.622   2.289   3.698
 1595HOH     H2 4973   2.640   2.160   3.776
 1596HOH      O 4974   1.425   0.351   1.834
 1596HOH     H1 4975   1.414   0.290   1.907
 1596HOH     H2 4976   1.340   0.395   1.826
 1597HOH      O 4977   2.308   3.469   3.741
 1597HOH     H1 4978   2.383   3.459   3.682
 1597HOH     H2 4979   2.301   3.563   3.755
 1598HOH      O 4980   0.395   2.934   4.060
 1598HOH     H1 4981   0.431   2.987   3.990
 1598HOH     H2 4982   0.335   2.873   4.016
 1599HOH      O 4983   0.464   2.370   1.402
 1599HOH     H1 4984   0.480   2.330   1.487
 1599HOH     H2 4985   0.432   2.298   1.347
 1600HOH      O 4986   0.868   3.194   1.540
 1600HOH     H1 4987   0.800   3.130   1.519
 1600HOH     H2 4988   0.940   3.142   1.574
 1601HOH      O 4989   3.783   2.955   1.228
 1601HOH     H1 4990   3.694   2.962   1.192
 1601HOH     H2 4991   3.780   3.008   1.308
 1602HOH      O 4992   0.251   2.720   0.200
 1602HOH     H1 4993   0.212   2.659   0.138
 1602HOH     H2 4994   0.262   2.802   0.150
 1603HOH      O 4995   3.300   2.145   1.052
 1603HOH     H1 4996   3.367   2.145   0.983
 1603HOH     H2 4997   3.345   2.185   1.127
 1604HOH      O 4998   1.387   1.006   0.404
 1604HOH     H1 4999   1.434   1.079   0.365
 1604HOH     H2 5000   1.378   1.030   0.496
 1605HOH      O 5001   1.666   1.851   2.642
 1605HOH     H1 5002   1.589   1.895   2.606
 1605HOH     H2 5003   1.717   1.825   2.565
 1606HOH      O 5004   2.045   1.828   1.731
 1606HOH     H1 5005   1.999   1.751   1.699
 1606HOH     H2 5006   1.977   1.884   1.767
 1607HOH      O 5007   0.199   1.225   2.179
 1607HOH     H1 5008   0.121   1.192   2.222
 1607HOH     H2 5009   0.254   1.258   2.250
 1608HOH      O 5010   2.433   0.959   3.481
 1608HOH     H1 5011   2.407   0.947   3.572
 1608HOH     H2 5012   2.494   1.033   3.483
 1609HOH      O 5013   2.795   2.831   1.348
 1609HOH     H1 5014   2.728   2.884   1.392
 1609HOH     H2 5015   2.750   2.750   1.324
 1610HOH      O 5016   2.723   2.657   0.749
 1610HOH     H1 5017   2.766   2.596   0.689
 1610HOH     H2 5018   2.786   2.728   0.760
 1611HOH      O 5019   3.004   2.128   2.261
 1611HOH     H1 5020   2.942   2.055   2.263
 1611HOH     H2 5021   3.044   2.122   2.174
 1612HOH      O 5022   0.917   0.972   0.263
 1612HOH     H1 5023   0.826   0.970   0.233
 1612HOH     H2 5024   0.963   1.020   0.194
 1613HOH      O 5025   2.178   0.289   2.126
 1613HOH     H1 5026   2.238   0.363   2.135
 1613HOH     H2 5027   2.201   0.230   2.198
 1614HOH      O 5028   2.983   0.955   3.799
 1614HOH     H1 5029   3.036   0.956   3.879
 1614HOH     H2 5030   2.952   1.045   3.789
 1615HOH      O 5031   2.396   0.509   2.712
 1615HOH     H1 5032   2.440   0.560   2.780
 1615HOH     H2 5033   2.318   0.560   2.690
 1616HOH      O 5034   2.086   2.900   2.662
 1616HOH     H1 5035   2.115   2.977   2.710
 1616HOH     H2 5036   1.992   2.896   2.678
 1617HOH      O 5037   0.775   2.994   0.413
 1617HOH     H1 5038   0.705   2.952   0.463
 1617HOH     H2 5039   0.782   2.943   0.333
 1618HOH      O 5040   3.112   3.914   3.696
 1618HOH     H1 5041   3.143   3.896   3.785
 1618HOH     H2 5042   3.163   3.991   3.669
 1619HOH      O 5043   2.314   1.957   3.199
 1619HOH     H1 5044   2.316   1.867   3.231
 1619HOH     H2 5045   2.332   2.011   3.277
 1620HOH      O 5046   0.917   2.281   3.065
 1620HOH     H1 5047   0.945   2.251   3.152
 1620HOH     H2 5048   0.919   2.376   3.070
 1621HOH      O 5049   0.099   0.928   3.244
 1621HOH     H1 5050   0.044   0.926   3.323
 1621HOH     H2 5051   0.038   0.913   3.172
 1622HOH      O 5052   2.205   1.752   2.743
 1622HOH     H1 5053   2.159   1.686   2.691
 1622HOH     H2 5054   2.288   1.765   2.697
 1623HOH      O 5055   1.593   0.539   2.605
 1623HOH     H1 5056   1.524   0.474   2.610
 1623HOH     H2 5057   1.605   0.569   2.695
 1624HOH      O 5058   2.886   3.565   1.820
 1624HOH     H1 5059   2.903   3.539   1.911
 1624HOH     H2 5060   2.851   3.654   1.826
 1625HOH      O 5061   0.747   1.238   3.906
 1625HOH     H1 5062   0.818   1.191   3.949
 1625HOH     H2 5063   0.690   1.267   3.978
 1626HOH      O 5064   2.908   2.825   3.677
 1626HOH     H1 5065   2.997   2.839   3.642
 1626HOH     H2 5066   2.914   2.854   3.768
 1627HOH      O 5067   1.262   3.266   1.042
 1627HOH     H1 5068   1.300   3.179   1.038
 1627HOH     H2 5069   1.269   3.291   1.134
 1628HOH      O 5070   2.774   0.301   2.154
 1628HOH     H1 5071   2.819   0.359   2.092
 1628HOH     H2 5072   2.693   0.277   2.109
 1629HOH      O 5073   2.641   1.706   0.223
 1629HOH     H1 5074   2.665   1.787   0.177
 1629HOH     H2 5075   2.627   1.733   0.314
 1630HOH      O 5076   3.838   1.021   0.972
 1630HOH     H1 5077   3.880   1.052   0.891
 1630HOH     H2 5078   3.900   1.044   1.041
 1631HOH      O 5079   1.276   0.321   1.000
 1631HOH     H1 5080   1.299   0.336   0.908
 1631HOH     H2 5081   1.293   0.405   1.043
 1632HOH      O 5082   0.122   1.690   3.691
 1632HOH     H1 5083   0.060   1.682   3.618
 1632HOH     H2 5084   0.203   1.720   3.650
 1633HOH      O 5085   1.924   0.286   0.428
 1633HOH     H1 5086   1.884   0.259   0.511
 1633HOH     H2 5087   1.885   0.371   0.409
 1634HOH      O 5088   3.375   0.009   2.715
 1634HOH     H1 5089   3.441  -0.030   2.773
 1634HOH     H2 5090   3.421   0.082   2.673
 1635HOH      O 5091   2.444   0.657   3.465
 1635HOH     H1 5092   2.456   0.752   3.457
 1635HOH     H2 5093   2.510   0.620   3.407
 1636HOH      O 5094   1.782   3.166   1.566
 1636HOH     H1 5095   1.801   3.127   1.651
 1636HOH     H2 5096   1.826   3.108   1.503
 1637HOH      O 5097   1.622   0.613   2.857
 1637HOH     H1 5098   1.629   0.538   2.916
 1637HOH     H2 5099   1.611   0.688   2.916
 1638HOH      O 5100   2.491   0.402   2.494
 1638HOH     H1 5101   2.564   0.462   2.479
 1638HOH     H2 5102   2.455   0.429   2.579
 1639HOH      O 5103   3.276   3.499   1.826
 1639HOH     H1 5104   3.292   3.481   1.733
 1639HOH     H2 5105   3.349   3.456   1.871
 1640HOH      O 5106   3.968   0.869   1.881
 1640HOH     H1 5107   3.874   0.852   1.895
 1640HOH     H2 5108   3.998   0.796   1.828
 1641HOH      O 5109   0.688   1.223   1.012
 1641HOH     H1 5110   0.728   1.138   1.031
 1641HOH     H2 5111   0.625   1.237   1.082
 1642HOH      O 5112   0.129   1.699   1.674
 1642HOH     H1 5113   0.163   1.774   1.625
 1642HOH     H2 5114   0.107   1.634   1.607
 1643HOH      O 5115   0.150   2.001   3.558
 1643HOH     H1 5116   0.077   1.987   3.619
 1643HOH     H2 5117   0.223   1.953   3.598
 1644HOH      O 5118   0.887   2.816   2.212
 1644HOH     H1 5119   0.955   2.801   2.146
 1644HOH     H2 5120   0.828   2.742   2.202
 1645HOH      O 5121   3.514   3.157   2.423
 1645HOH     H1 5122   3.482   3.082   2.372
 1645HOH     H2 5123   3.468   3.149   2.507
 1646HOH      O 5124   1.014   2.080   1.739
 1646HOH     H1 5125   0.946   2.145   1.717
 1646HOH     H2 5126   0.987   2.001   1.692
 1647HOH      O 5127   1.475   0.234   1.206
 1647HOH     H1 5128   1.415   0.234   1.131
 1647HOH     H2 5129   1.418   0.222   1.282
 1648HOH      O 5130   1.712   3.216   2.777
 1648HOH     H1 5131   1.738   3.144   2.834
 1648HOH     H2 5132   1.794   3.248   2.739
 1649HOH      O 5133   2.298   2.229   2.509
 1649HOH     H1 5134   2.297   2.310   2.559
 1649HOH     H2 5135   2.270   2.255   2.421
 1650HOH      O 5136   1.364   0.492   0.504
 1650HOH     H1 5137   1.332   0.472   0.416
 1650HOH     H2 5138   1.382   0.586   0.502
 1651HOH      O 5139   2.777   3.723   1.468
 1651HOH     H1 5140   2.776   3.738   1.373
 1651HOH     H2 5141   2.856   3.768   1.498
 1652HOH      O 5142   2.465   3.711   1.372
 1652HOH     H1 5143   2.556   3.718   1.402
 1652HOH     H2 5144   2.438   3.802   1.360
 1653HOH      O 5145   2.877   2.944   1.083
 1653HOH     H1 5146   2.798   2.997   1.069
 1653HOH     H2 5147   2.866   2.908   1.171
 1654HOH      O 5148   3.456   1.884   1.723
 1654HOH     H1 5149   3.425   1.974   1.728
 1654HOH     H2 5150   3.413   1.840   1.796
 1655HOH      O 5151   3.675   0.981   2.576
 1655HOH     H1 5152   3.624   0.985   2.657
 1655HOH     H2 5153   3.673   0.888   2.552
 1656HOH      O 5154   1.381   1.540   0.417
 1656HOH     H1 5155   1.323   1.490   0.475
 1656HOH     H2 5156   1.321   1.597   0.369
 1657HOH      O 5157   3.147   3.537   1.161
 1657HOH     H1 5158   3.117   3.606   1.102
 1657HOH     H2 5159   3.232   3.567   1.193
 1658HOH      O 5160   2.915   1.206   2.763
 1658HOH     H1 5161   3.006   1.231   2.779
 1658HOH     H2 5162   2.867   1.289   2.763
 1659HOH      O 5163   1.670   0.645   0.435
 1659HOH     H1 5164   1.735   0.716   0.433
 1659HOH     H2 5165   1.599   0.680   0.489
 1660HOH      O 5166   1.503   2.882   1.154
 1660HOH     H1 5167   1.418   2.907   1.118
 1660HOH     H2 5168   1.483   2.845   1.240
 1661HOH      O 5169   1.946   3.604   0.666
 1661HOH     H1 5170   1.970   3.696   0.678
 1661HOH     H2 5171   1.898   3.581   0.746
 1662HOH      O 5172   2.870   0.950   2.785
 1662HOH     H1 5173   2.951   0.927   2.739
 1662HOH     H2 5174   2.873   1.045   2.792
 1663HOH      O 5175   0.979   3.883   1.119
 1663HOH     H1 5176   0.996   3.793   1.090
 1663HOH     H2 5177   1.065   3.925   1.119
 1664HOH      O 5178   2.769   3.422   3.807
 1664HOH     H1 5179   2.722   3.443   3.888
 1664HOH     H2 5180   2.800   3.507   3.775
 1665HOH      O 5181   1.502   2.763   2.987
 1665HOH     H1 5182   1.479   2.798   3.073
 1665HOH     H2 5183   1.485   2.669   2.994
 1666HOH      O 5184   3.968   3.349   0.515
 1666HOH     H1 5185   4.038   3.414   0.515
 1666HOH     H2 5186   3.983   3.297   0.436
 1667HOH      O 5187   1.621   1.653   3.688
 1667HOH     H1 5188   1.577   1.670   3.605
 1667HOH     H2 5189   1.699   1.603   3.664
 1668HOH      O 5190   3.646   3.157   0.716
 1668HOH     H1 5191   3.734   3.149   0.754
 1668HOH     H2 5192   3.658   3.130   0.625
 1669HOH      O 5193   0.679   3.649   0.821
 1669HOH     H1 5194   0.594   3.681   0.788
 1669HOH     H2 5195   0.706   3.714   0.885
 1670HOH      O 5196   1.705   2.795   0.598
 1670HOH     H1 5197   1.660   2.784   0.682
 1670HOH     H2 5198   1.640   2.838   0.542
 1671HOH      O 5199   2.650   3.970  -0.006
 1671HOH     H1 5200   2.725   3.920  -0.039
 1671HOH     H2 5201   2.681   4.008   0.076
 1672HOH      O 5202   2.194   0.652   0.852
 1672HOH     H1 5203   2.282   0.646   0.815
 1672HOH     H2 5204   2.139   0.676   0.777
 1673HOH      O 5205   0.217   0.367   2.156
 1673HOH     H1 5206   0.286   0.422   2.120
 1673HOH     H2 5207   0.213   0.390   2.249
 1674HOH      O 5208   3.506   2.036   0.047
 1674HOH     H1 5209   3.502   1.941   0.059
 1674HOH     H2 5210   3.521   2.047  -0.047
 1675HOH      O 5211   0.824   1.432   2.758
 1675HOH     H1 5212   0.769   1.361   2.789
 1675HOH     H2 5213   0.778   1.512   2.785
 1676HOH      O 5214   1.896   2.233   1.681
 1676HOH     H1 5215   1.923   2.246   1.590
 1676HOH     H2 5216   1.844   2.311   1.702
 1677HOH      O 5217   1.414   1.264   2.080
 1677HOH     H1 5218   1.333   1.284   2.032
 1677HOH     H2 5219   1.451   1.188   2.035
 1678HOH      O 5220   0.064   0.331   3.299
 1678HOH     H1 5221   0.040   0.299   3.385
 1678HOH     H2 5222   0.103   0.256   3.255
 1679HOH      O 5223   1.554   2.252   0.740
 1679HOH     H1 5224   1.551   2.268   0.646
 1679HOH     H2 5225   1.462   2.256   0.768
 1680HOH      O 5226   0.515   2.274   3.104
 1680HOH     H1 5227   0.564   2.345   3.063
 1680HOH     H2 5228   0.424   2.302   3.098
 1681HOH      O 5229   2.793   1.205   0.531
 1681HOH     H1 5230   2.710   1.182   0.572
 1681HOH     H2 5231   2.854   1.211   0.604
 1682HOH      O 5232   3.646   0.090   2.184
 1682HOH     H1 5233   3.562   0.131   2.206
 1682HOH     H2 5234   3.641   0.002   2.221
 1683HOH      O 5235   3.988   2.896   3.374
 1683HOH     H1 5236   3.900   2.863   3.357
 1683HOH     H2 5237   4.045   2.846   3.315
 1684HOH      O 5238   0.711   1.230   0.685
 1684HOH     H1 5239   0.676   1.206   0.770
 1684HOH     H2 5240   0.787   1.172   0.672
 1685HOH      O 5241   2.830   0.742   0.053
 1685HOH     H1 5242   2.905   0.782   0.097
 1685HOH     H2 5243   2.801   0.674   0.113
 1686HOH      O 5244   0.403   2.800   3.374
 1686HOH     H1 5245   0.353   2.835   3.448
 1686HOH     H2 5246   0.398   2.867   3.307
 1687HOH      O 5247   0.781   3.145   2.746
 1687HOH     H1 5248   0.847   3.202   2.706
 1687HOH     H2 5249   0.795   3.152   2.840
 1688HOH      O 5250   3.969   3.098   2.011
 1688HOH     H1 5251   4.050   3.086   2.062
 1688HOH     H2 5252   3.999   3.135   1.928
 1689HOH      O 5253   0.656   0.594   2.854
 1689HOH     H1 5254   0.715   0.667   2.835
 1689HOH     H2 5255   0.692   0.554   2.933
 1690HOH      O 5256   1.089   1.247   1.118
 1690HOH     H1 5257   1.076   1.164   1.071
 1690HOH     H2 5258   1.012   1.254   1.175
 1691HOH      O 5259   0.149   2.000   2.875
 1691HOH     H1 5260   0.215   2.023   2.940
 1691HOH     H2 5261   0.115   2.084   2.844
 1692HOH      O 5262   1.156   1.076   3.530
 1692HOH     H1 5263   1.234   1.111   3.488
 1692HOH     H2 5264   1.173   0.982   3.536
 1693HOH      O 5265   3.400   0.200   0.674
 1693HOH     H1 5266   3.379   0.284   0.714
 1693HOH     H2 5267   3.323   0.177   0.622
 1694HOH      O 5268   1.144   0.960   0.700
 1694HOH     H1 5269   1.221   1.016   0.705
 1694HOH     H2 5270   1.168   0.882   0.750
 1695HOH      O 5271   0.059   0.393  -0.012
 1695HOH     H1 5272  -0.035   0.377  -0.009
 1695HOH     H2 5273   0.073   0.467   0.047
 1696HOH      O 5274   0.749   0.206   3.171
 1696HOH     H1 5275   0.686   0.258   3.121
 1696HOH     H2 5276   0.696   0.142   3.219
 1697HOH      O 5277   2.110   1.317   1.898
 1697HOH     H1 5278   2.034   1.312   1.839
 1697HOH     H2 5279   2.155   1.397   1.872
 1698HOH      O 5280   1.786   1.164   1.881
 1698HOH     H1 5281   1.787   1.218   1.960
 1698HOH     H2 5282   1.756   1.079   1.910
 1699HOH      O 5283   1.449   2.469   1.486
 1699HOH     H1 5284   1.370   2.486   1.538
 1699HOH     H2 5285   1.470   2.553   1.445
 1700HOH      O 5286   0.507   0.871   2.978
 1700HOH     H1 5287   0.530   0.783   3.005
 1700HOH     H2 5288   0.555   0.928   3.038
 1701HOH      O 5289   1.203   1.726   3.919
 1701HOH     H1 5290   1.196   1.792   3.989
 1701HOH     H2 5291   1.292   1.736   3.886
 1702HOH      O 5292   2.959   4.029   2.257
 1702HOH     H1 5293   2.993   3.939   2.256
 1702HOH     H2 5294   2.939   4.046   2.349
 1703HOH      O 5295   2.470   0.722   2.869
 1703HOH     H1 5296   2.457   0.784   2.798
 1703HOH     H2 5297   2.405   0.747   2.935
 1704HOH      O 5298   3.956   3.666   2.142
 1704HOH     H1 5299   3.983   3.599   2.080
 1704HOH     H2 5300   3.974   3.749   2.099
 1705HOH      O 5301   2.296   1.457   1.321
 1705HOH     H1 5302   2.283   1.546   1.353
 1705HOH     H2 5303   2.236   1.404   1.374
 1706HOH      O 5304   1.485   1.413   2.983
 1706HOH     H1 5305   1.470   1.353   3.055
 1706HOH     H2 5306   1.527   1.361   2.915
 1707HOH      O 5307   0.703   2.633   2.149
 1707HOH     H1 5308   0.687   2.540   2.163
 1707HOH     H2 5309   0.620   2.676   2.169
 1708HOH      O 5310   1.059   3.401   2.934
 1708HOH     H1 5311   1.148   3.380   2.907
 1708HOH     H2 5312   1.064   3.492   2.963
 1709HOH      O 5313   3.664   1.924   2.334
 1709HOH     H1 5314   3.649   1.830   2.325
 1709HOH     H2 5315   3.616   1.963   2.260
 1710HOH      O 5316   1.464   0.308   0.025
 1710HOH     H1 5317   1.535   0.254   0.060
 1710HOH     H2 5318   1.495   0.335  -0.062
 1711HOH      O 5319   2.654   3.079   1.020
 1711HOH     H1 5320   2.674   3.110   0.932
 1711HOH     H2 5321   2.586   3.013   1.008
 1712HOH      O 5322   2.885   2.640   0.271
 1712HOH     H1 5323   2.920   2.726   0.296
 1712HOH     H2 5324   2.963   2.588   0.252
 1713HOH      O 5325   2.207   2.298   1.167
 1713HOH     H1 5326   2.114   2.315   1.152
 1713HOH     H2 5327   2.209   2.244   1.246
 1714HOH      O 5328   2.849   3.762   3.324
 1714HOH     H1 5329   2.832   3.669   3.340
 1714HOH     H2 5330   2.827   3.805   3.407
 1715HOH      O 5331   0.878   3.207   2.379
 1715HOH     H1 5332   0.956   3.171   2.420
 1715HOH     H2 5333   0.911   3.264   2.310
 1716HOH      O 5334   1.220   2.316   3.579
 1716HOH     H1 5335   1.222   2.355   3.666
 1716HOH     H2 5336   1.190   2.226   3.593
 1717HOH      O 5337   3.729   0.486   3.779
 1717HOH     H1 5338   3.786   0.529   3.715
 1717HOH     H2 5339   3.641   0.515   3.757
 1718HOH      O 5340   1.275   3.997   3.888
 1718HOH     H1 5341   1.251   3.920   3.837
 1718HOH     H2 5342   1.367   3.984   3.911
 1719HOH      O 5343   1.298   1.919   1.731
 1719HOH     H1 5344   1.257   1.916   1.818
 1719HOH     H2 5345   1.225   1.924   1.670
 1720HOH      O 5346   3.852   0.826   3.391
 1720HOH     H1 5347   3.936   0.785   3.370
 1720HOH     H2 5348   3.787   0.759   3.373
 1721HOH      O 5349   1.684   1.344   0.239
 1721HOH     H1 5350   1.661   1.343   0.146
 1721HOH     H2 5351   1.697   1.437   0.259
 1722HOH      O 5352   0.829   0.545   3.989
 1722HOH     H1 5353   0.798   0.466   3.944
 1722HOH     H2 5354   0.909   0.517   4.033
 1723HOH      O 5355   0.246   1.259   2.969
 1723HOH     H1 5356   0.234   1.224   2.880
 1723HOH     H2 5357   0.284   1.186   3.018
 1724HOH      O 5358   3.210   1.901   3.473
 1724HOH     H1 5359   3.221   1.954   3.551
 1724HOH     H2 5360   3.130   1.935   3.432
 1725HOH      O 5361   0.722   3.874   0.989
 1725HOH     H1 5362   0.742   3.948   0.931
 1725HOH     H2 5363   0.803   3.859   1.037
 1726HOH      O 5364   0.732   0.286   0.844
 1726HOH     H1 5365   0.783   0.210   0.816
 1726HOH     H2 5366   0.642   0.265   0.822
 1727HOH      O 5367   4.006   2.525   1.895
 1727HOH     H1 5368   3.952   2.553   1.821
 1727HOH     H2 5369   4.053   2.604   1.922
 1728HOH      O 5370   3.565   2.401   0.721
 1728HOH     H1 5371   3.634   2.418   0.785
 1728HOH     H2 5372   3.610   2.366   0.644
 1729HOH      O 5373   3.923   2.273   2.955
 1729HOH     H1 5374   3.874   2.312   2.883
 1729HOH     H2 5375   3.973   2.346   2.992
 1730HOH      O 5376   3.264   1.069   1.013
 1730HOH     H1 5377   3.256   1.105   0.925
 1730HOH     H2 5378   3.355   1.085   1.038
 1731HOH      O 5379   0.020   3.665   0.790
 1731HOH     H1 5380   0.104   3.659   0.836
 1731HOH     H2 5381  -0.018   3.748   0.821
 1732HOH      O 5382   3.649   1.022   3.320
 1732HOH     H1 5383   3.701   0.969   3.381
 1732HOH     H2 5384   3.691   1.008   3.235
 1733HOH      O 5385   2.256   1.653   2.123
 1733HOH     H1 5386   2.279   1.609   2.205
 1733HOH     H2 5387   2.213   1.734   2.150
 1734HOH      O 5388   1.959   1.465   1.410
 1734HOH     H1 5389   1.871   1.427   1.420
 1734HOH     H2 5390   2.018   1.390   1.416
 1735HOH      O 5391   0.690   0.767   2.442
 1735HOH     H1 5392   0.682   0.806   2.355
 1735HOH     H2 5393   0.634   0.689   2.439
 1736HOH      O 5394   0.117   0.683   0.947
 1736HOH     H1 5395   0.094   0.728   0.865
 1736HOH     H2 5396   0.102   0.749   1.015
 1737HOH      O 5397   1.923   3.630   1.130
 1737HOH     H1 5398   1.946   3.538   1.146
 1737HOH     H2 5399   1.853   3.648   1.193
 1738HOH      O 5400   1.107   3.332   3.762
 1738HOH     H1 5401   1.165   3.351   3.688
 1738HOH     H2 5402   1.119   3.238   3.777
 1739HOH      O 5403   0.524   0.101   3.511
 1739HOH     H1 5404   0.566   0.038   3.452
 1739HOH     H2 5405   0.519   0.055   3.595
 1740HOH      O 5406   0.090   3.343   1.497
 1740HOH     H1 5407   0.175   3.358   1.539
 1740HOH     H2 5408   0.067   3.428   1.459
 1741HOH      O 5409   1.816   1.748   0.257
 1741HOH     H1 5410   1.753   1.805   0.213
 1741HOH     H2 5411   1.762   1.683   0.301
 1742HOH      O 5412   1.391   3.667   2.412
 1742HOH     H1 5413   1.376   3.761   2.413
 1742HOH     H2 5414   1.457   3.653   2.344
 1743HOH      O 5415   0.503   2.730   2.979
 1743HOH     H1 5416   0.456   2.804   3.016
 1743HOH     H2 5417   0.530   2.760   2.892
 1744HOH      O 5418   1.698   2.778   1.487
 1744HOH     H1 5419   1.651   2.741   1.562
 1744HOH     H2 5420   1.784   2.800   1.522
 1745HOH      O 5421   0.047   1.577   2.780
 1745HOH     H1 5422   0.024   1.497   2.733
 1745HOH     H2 5423  -0.036   1.607   2.817
 1746HOH      O 5424   0.310   2.283   3.904
 1746HOH     H1 5425   0.321   2.252   3.994
 1746HOH     H2 5426   0.271   2.370   3.914
 1747HOH      O 5427   0.561   1.342   2.167
 1747HOH     H1 5428   0.644   1.386   2.149
 1747HOH     H2 5429   0.530   1.315   2.080
 1748HOH      O 5430   0.396   1.252   1.981
 1748HOH     H1 5431   0.357   1.317   1.923
 1748HOH     H2 5432   0.335   1.246   2.055
 1749HOH      O 5433   3.718   3.246   2.062
 1749HOH     H1 5434   3.677   3.161   2.048
 1749HOH     H2 5435   3.811   3.227   2.066
 1750HOH      O 5436   2.111   2.547   1.967
 1750HOH     H1 5437   2.133   2.470   1.913
 1750HOH     H2 5438   2.167   2.540   2.044
 1751HOH      O 5439   1.668   2.520   0.803
 1751HOH     H1 5440   1.606   2.591   0.791
 1751HOH     H2 5441   1.614   2.442   0.815
 1752HOH      O 5442   1.289   0.524   0.056
 1752HOH     H1 5443   1.355   0.455   0.061
 1752HOH     H2 5444   1.238   0.513   0.136
 1753HOH      O 5445   3.551   3.674   0.449
 1753HOH     H1 5446   3.631   3.657   0.399
 1753HOH     H2 5447   3.550   3.769   0.460
 1754HOH      O 5448   1.009  -0.002   3.876
 1754HOH     H1 5449   0.996   0.084   3.835
 1754HOH     H2 5450   1.104  -0.016   3.872
 1755HOH      O 5451   1.339   1.508   1.428
 1755HOH     H1 5452   1.293   1.453   1.492
 1755HOH     H2 5453   1.271   1.566   1.393
 1756HOH      O 5454   1.236   2.297   0.615
 1756HOH     H1 5455   1.224   2.365   0.681
 1756HOH     H2 5456   1.318   2.320   0.571
 1757HOH      O 5457   1.501   2.732   0.796
 1757HOH     H1 5458   1.452   2.721   0.714
 1757HOH     H2 5459   1.435   2.757   0.860
 1758HOH      O 5460   2.423   3.963   3.500
 1758HOH     H1 5461   2.457   3.876   3.480
 1758HOH     H2 5462   2.354   3.947   3.564
 1759HOH      O 5463   0.335   3.010   1.457
 1759HOH     H1 5464   0.335   2.964   1.541
 1759HOH     H2 5465   0.418   3.058   1.457
 1760HOH      O 5466   0.445   0.973   0.322
 1760HOH     H1 5467   0.506   0.948   0.253
 1760HOH     H2 5468   0.366   0.922   0.303
 1761HOH      O 5469   3.935   1.213   1.476
 1761HOH     H1 5470   3.946   1.276   1.546
 1761HOH     H2 5471   3.923   1.129   1.520
 1762HOH      O 5472   1.940   3.384   3.138
 1762HOH     H1 5473   1.861   3.423   3.103
 1762HOH     H2 5474   1.977   3.452   3.196
 1763HOH      O 5475   2.903   0.340   1.076
 1763HOH     H1 5476   2.984   0.326   1.124
 1763HOH     H2 5477   2.917   0.299   0.991
 1764HOH      O 5478   3.753   4.020   3.984
 1764HOH     H1 5479   3.748   3.948   4.046
 1764HOH     H2 5480   3.689   4.084   4.016
 1765HOH      O 5481   0.665   3.076   1.087
 1765HOH     H1 5482   0.721   3.143   1.048
 1765HOH     H2 5483   0.581   3.120   1.102
 1766HOH      O 5484   3.694   3.003   2.798
 1766HOH     H1 5485   3.675   3.090   2.765
 1766HOH     H2 5486   3.662   2.944   2.730
 1767HOH      O 5487   0.273   0.726   2.316
 1767HOH     H1 5488   0.235   0.643   2.345
 1767HOH     H2 5489   0.198   0.784   2.302
 1768HOH      O 5490   0.548   0.900   1.399
 1768HOH     H1 5491   0.523   0.830   1.339
 1768HOH     H2 5492   0.470   0.956   1.404
 1769HOH      O 5493   3.524   3.266   3.855
 1769HOH     H1 5494   3.515   3.233   3.944
 1769HOH     H2 5495   3.451   3.226   3.807
 1770HOH      O 5496   2.953   0.843   1.543
 1770HOH     H1 5497   2.914   0.809   1.624
 1770HOH     H2 5498   3.047   0.844   1.561
 1771HOH      O 5499   3.789   0.924   3.099
 1771HOH     H1 5500   3.721   0.869   3.062
 1771HOH     H2 5501   3.871   0.881   3.075
 1772HOH      O 5502   2.911   1.471   3.590
 1772HOH     H1 5503   2.946   1.549   3.547
 1772HOH     H2 5504   2.894   1.498   3.680
 1773HOH      O 5505   1.428   1.705   2.755
 1773HOH     H1 5506   1.446   1.620   2.715
 1773HOH     H2 5507   1.493   1.764   2.717
 1774HOH      O 5508   1.287   3.043   2.391
 1774HOH     H1 5509   1.277   3.132   2.426
 1774HOH     H2 5510   1.371   3.013   2.427
 1775HOH      O 5511   3.566   0.386   1.546
 1775HOH     H1 5512   3.536   0.344   1.466
 1775HOH     H2 5513   3.554   0.480   1.530
 1776HOH      O 5514   2.905   0.738   2.988
 1776HOH     H1 5515   2.883   0.793   2.913
 1776HOH     H2 5516   2.835   0.673   2.991
 1777HOH      O 5517   0.681   2.369   2.303
 1777HOH     H1 5518   0.651   2.279   2.312
 1777HOH     H2 5519   0.775   2.362   2.283
 1778HOH      O 5520   1.546   0.476   0.713
 1778HOH     H1 5521   1.641   0.487   0.708
 1778HOH     H2 5522   1.520   0.460   0.622
 1779HOH      O 5523   3.224   0.579   1.450
 1779HOH     H1 5524   3.159   0.540   1.391
 1779HOH     H2 5525   3.189   0.561   1.538
 1780HOH      O 5526   3.340   1.515   1.210
 1780HOH     H1 5527   3.426   1.485   1.238
 1780HOH     H2 5528   3.358   1.595   1.160
 1781HOH      O 5529   3.901   2.263   3.456
 1781HOH     H1 5530   3.904   2.232   3.366
 1781HOH     H2 5531   3.894   2.358   3.448
 1782HOH      O 5532   3.827   3.506   0.852
 1782HOH     H1 5533   3.906   3.542   0.812
 1782HOH     H2 5534   3.856   3.478   0.940
 1783HOH      O 5535   2.055   0.790   1.828
 1783HOH     H1 5536   1.979   0.803   1.772
 1783HOH     H2 5537   2.078   0.878   1.858
 1784HOH      O 5538   3.539   2.336   2.542
 1784HOH     H1 5539   3.622   2.301   2.511
 1784HOH     H2 5540   3.491   2.260   2.575
 1785HOH      O 5541   3.120   2.930   2.058
 1785HOH     H1 5542   3.142   2.992   1.988
 1785HOH     H2 5543   3.058   2.978   2.114
 1786HOH      O 5544   0.086   0.339   1.630
 1786HOH     H1 5545   0.166   0.387   1.612
 1786HOH     H2 5546   0.110   0.277   1.699
 1787HOH      O 5547   2.191   3.141   0.435
 1787HOH     H1 5548   2.196   3.052   0.401
 1787HOH     H2 5549   2.168   3.130   0.527
 1788HOH      O 5550   3.105   2.426   0.187
 1788HOH     H1 5551   3.074   2.340   0.215
 1788HOH     H2 5552   3.188   2.409   0.144
 1789HOH      O 5553   0.707   3.716   0.292
 1789HOH     H1 5554   0.685   3.762   0.210
 1789HOH     H2 5555   0.802   3.718   0.296
 1790HOH      O 5556   3.724   0.067   1.663
 1790HOH     H1 5557   3.681   0.131   1.719
 1790HOH     H2 5558   3.744  -0.006   1.721
 1791HOH      O 5559   2.471   1.841   1.199
 1791HOH     H1 5560   2.511   1.757   1.220
 1791HOH     H2 5561   2.393   1.845   1.253
 1792HOH      O 5562   3.843   1.650   0.379
 1792HOH     H1 5563   3.785   1.704   0.326
 1792HOH     H2 5564   3.853   1.699   0.461
 1793HOH      O 5565   4.052   0.860   2.270
 1793HOH     H1 5566   4.000   0.781   2.256
 1793HOH     H2 5567   4.008   0.928   2.219
 1794HOH      O 5568   3.962   2.778   1.724
 1794HOH     H1 5569   4.014   2.804   1.648
 1794HOH     H2 5570   3.875   2.814   1.707
 1795HOH      O 5571   1.597   3.370   0.422
 1795HOH     H1 5572   1.586   3.352   0.328
 1795HOH     H2 5573   1.666   3.436   0.426
 1796HOH      O 5574   1.025   1.323   3.524
 1796HOH     H1 5575   0.944   1.325   3.575
 1796HOH     H2 5576   1.043   1.230   3.511
 1797HOH      O 5577   2.372   3.259   3.232
 1797HOH     H1 5578   2.338   3.241   3.320
 1797HOH     H2 5579   2.299   3.302   3.187
 1798HOH      O 5580   0.619   3.327   1.457
 1798HOH     H1 5581   0.650   3.408   1.417
 1798HOH     H2 5582   0.698   3.284   1.488
 1799HOH      O 5583   3.121   2.355   0.973
 1799HOH     H1 5584   3.177   2.295   1.022
 1799HOH     H2 5585   3.170   2.376   0.894
 1800HOH      O 5586   1.830   3.496   0.917
 1800HOH     H1 5587   1.871   3.506   1.003
 1800HOH     H2 5588   1.747   3.545   0.925
 1801HOH      O 5589   0.115   3.099   2.776
 1801HOH     H1 5590   0.055   3.123   2.705
 1801HOH     H2 5591   0.131   3.005   2.763
 1802HOH      O 5592   1.994   1.905   0.017
 1802HOH     H1 5593   1.962   1.867  -0.065
 1802HOH     H2 5594   1.941   1.863   0.085
 1803HOH      O 5595   0.735   0.229   0.116
 1803HOH     H1 5596   0.783   0.155   0.077
 1803HOH     H2 5597   0.691   0.270   0.042
 1804HOH      O 5598   0.146   1.163   1.238
 1804HOH     H1 5599   0.067   1.139   1.287
 1804HOH     H2 5600   0.165   1.252   1.266
 1805HOH      O 5601   2.412   2.861   3.692
 1805HOH     H1 5602   2.468   2.894   3.622
 1805HOH     H2 5603   2.358   2.936   3.716
 1806HOH      O 5604   0.021   2.965   1.112
 1806HOH     H1 5605   0.066   3.019   1.177
 1806HOH     H2 5606  -0.068   2.955   1.147
 1807HOH      O 5607   2.355   1.577   0.166
 1807HOH     H1 5608   2.407   1.656   0.149
 1807HOH     H2 5609   2.392   1.540   0.246
 1808HOH      O 5610   2.474   2.035   2.713
 1808HOH     H1 5611   2.418   2.086   2.655
 1808HOH     H2 5612   2.461   2.075   2.799
 1809HOH      O 5613   1.039   1.969   1.979
 1809HOH     H1 5614   1.020   2.016   1.898
 1809HOH     H2 5615   0.966   1.907   1.988
 1810HOH      O 5616   1.050   0.307   1.155
 1810HOH     H1 5617   1.109   0.262   1.095
 1810HOH     H2 5618   0.978   0.245   1.170
 1811HOH      O 5619   2.685   2.886   1.949
 1811HOH     H1 5620   2.633   2.841   2.016
 1811HOH     H2 5621   2.735   2.817   1.907
 1812HOH      O 5622   1.216   2.236   2.484
 1812HOH     H1 5623   1.289   2.219   2.425
 1812HOH     H2 5624   1.181   2.320   2.456
 1813HOH      O 5625   0.753   3.554   2.996
 1813HOH     H1 5626   0.739   3.536   2.903
 1813HOH     H2 5627   0.773   3.647   3.000
 1814HOH      O 5628   0.689   2.156   0.446
 1814HOH     H1 5629   0.693   2.162   0.351
 1814HOH     H2 5630   0.775   2.125   0.472
 1815HOH      O 5631   0.258   3.747   0.530
 1815HOH     H1 5632   0.250   3.841   0.521
 1815HOH     H2 5633   0.348   3.733   0.561
 1816HOH      O 5634   3.190   2.856   1.170
 1816HOH     H1 5635   3.173   2.762   1.169
 1816HOH     H2 5636   3.109   2.895   1.203
 1817HOH      O 5637   1.710   3.979   0.918
 1817HOH     H1 5638   1.727   4.002   1.010
 1817HOH     H2 5639   1.690   3.886   0.920
 1818HOH      O 5640   1.601   1.814   1.070
 1818HOH     H1 5641   1.524   1.759   1.059
 1818HOH     H2 5642   1.593   1.848   1.159
 1819HOH      O 5643   0.451   3.071   3.836
 1819HOH     H1 5644   0.540   3.071   3.800
 1819HOH     H2 5645   0.430   3.163   3.849
 1820HOH      O 5646   2.301   1.249   3.923
 1820HOH     H1 5647   2.218   1.205   3.939
 1820HOH     H2 5648   2.351   1.235   4.003
 1821HOH      O 5649   3.703   3.094   1.457
 1821HOH     H1 5650   3.614   3.118   1.429
 1821HOH     H2 5651   3.728   3.163   1.518
 1822HOH      O 5652   1.058   2.957   0.487
 1822HOH     H1 5653   0.964   2.972   0.471
 1822HOH     H2 5654   1.060   2.914   0.573
 1823HOH      O 5655   3.672   1.901   0.733
 1823HOH     H1 5656   3.649   1.811   0.711
 1823HOH     H2 5657   3.588   1.945   0.746
 1824HOH      O 5658   0.696   2.107   2.936
 1824HOH     H1 5659   0.641   2.172   2.980
 1824HOH     H2 5660   0.783   2.148   2.934
 1825HOH      O 5661   2.525   1.716   2.821
 1825HOH     H1 5662   2.555   1.630   2.851
 1825HOH     H2 5663   2.470   1.697   2.745
 1826HOH      O 5664   0.321   2.401   1.003
 1826HOH     H1 5665   0.263   2.371   1.073
 1826HOH     H2 5666   0.265   2.457   0.948
 1827HOH      O 5667   0.326   0.191   1.464
 1827HOH     H1 5668   0.318   0.274   1.510
 1827HOH     H2 5669   0.413   0.159   1.489
 1828HOH      O 5670   1.736   1.867   3.513
 1828HOH     H1 5671   1.702   1.876   3.602
 1828HOH     H2 5672   1.831   1.880   3.523
 1829HOH      O 5673   1.030   2.971   3.217
 1829HOH     H1 5674   1.036   3.043   3.280
 1829HOH     H2 5675   1.040   2.892   3.271
 1830HOH      O 5676   3.933   0.590   1.444
 1830HOH     H1 5677   3.882   0.635   1.511
 1830HOH     H2 5678   4.022   0.623   1.456
 1831HOH      O 5679   3.190   2.721   0.764
 1831HOH     H1 5680   3.286   2.730   0.764
 1831HOH     H2 5681   3.175   2.630   0.741
 1832HOH      O 5682   2.019   2.106   2.542
 1832HOH     H1 5683   2.111   2.108   2.514
 1832HOH     H2 5684   2.019   2.051   2.620
 1833HOH      O 5685   1.201   2.518   0.763
 1833HOH     H1 5686   1.112   2.537   0.792
 1833HOH     H2 5687   1.225   2.593   0.709
 1834HOH      O 5688   1.601   2.938   3.775
 1834HOH     H1 5689   1.640   2.996   3.840
 1834HOH     H2 5690   1.670   2.924   3.710
 1835HOH      O 5691   3.499   2.564   1.893
 1835HOH     H1 5692   3.413   2.570   1.851
 1835HOH     H2 5693   3.561   2.551   1.821
 1836HOH      O 5694   0.032   0.063   3.217
 1836HOH     H1 5695  -0.059   0.054   3.245
 1836HOH     H2 5696   0.039   0.006   3.141
 1837HOH      O 5697   1.823   2.128   0.027
 1837HOH     H1 5698   1.839   2.184  -0.050
 1837HOH     H2 5699   1.900   2.072   0.032
 1838HOH      O 5700   1.151   3.280   0.537
 1838HOH     H1 5701   1.063   3.247   0.525
 1838HOH     H2 5702   1.208   3.203   0.527
 1839HOH      O 5703   0.566   0.372   1.783
 1839HOH     H1 5704   0.613   0.303   1.736
 1839HOH     H2 5705   0.635   0.429   1.817
 1840HOH      O 5706   0.991   2.190   0.088
 1840HOH     H1 5707   0.923   2.192   0.020
 1840HOH     H2 5708   0.991   2.278   0.125
 1841HOH      O 5709   0.358   3.524   2.252
 1841HOH     H1 5710   0.316   3.602   2.287
 1841HOH     H2 5711   0.449   3.530   2.281
 1842HOH      O 5712   0.879   3.389   3.899
 1842HOH     H1 5713   0.961   3.379   3.851
 1842HOH     H2 5714   0.906   3.413   3.988
 1843HOH      O 5715   3.492   2.628   3.779
 1843HOH     H1 5716   3.497   2.711   3.732
 1843HOH     H2 5717   3.456   2.651   3.865
 1844HOH      O 5718   1.003   1.484   0.344
 1844HOH     H1 5719   1.056   1.543   0.399
 1844HOH     H2 5720   0.954   1.430   0.407
 1845HOH      O 5721   1.704   2.302   1.402
 1845HOH     H1 5722   1.701   2.395   1.380
 1845HOH     H2 5723   1.786   2.271   1.365
 1846HOH      O 5724   1.463   2.761   0.212
 1846HOH     H1 5725   1.559   2.762   0.210
 1846HOH     H2 5726   1.439   2.700   0.142
 1847HOH      O 5727   2.434   0.481   0.515
 1847HOH     H1 5728   2.389   0.490   0.599
 1847HOH     H2 5729   2.366   0.502   0.450
 1848HOH      O 5730   1.923   3.330   2.677
 1848HOH     H1 5731   1.921   3.422   2.703
 1848HOH     H2 5732   1.903   3.331   2.583
 1849HOH      O 5733   3.262   2.612   1.787
 1849HOH     H1 5734   3.237   2.627   1.878
 1849HOH     H2 5735   3.183   2.577   1.745
 1850HOH      O 5736   1.516   3.288   3.118
 1850HOH     H1 5737   1.548   3.241   3.195
 1850HOH     H2 5738   1.581   3.358   3.105
 1851HOH      O 5739   3.224   0.889   1.560
 1851HOH     H1 5740   3.261   0.962   1.610
 1851HOH     H2 5741   3.280   0.815   1.580
 1852HOH      O 5742   2.545   3.318   0.599
 1852HOH     H1 5743   2.525   3.224   0.606
 1852HOH     H2 5744   2.521   3.340   0.509
 1853HOH      O 5745   2.478   2.282   3.000
 1853HOH     H1 5746   2.408   2.216   2.990
 1853HOH     H2 5747   2.439   2.350   3.054
 1854HOH      O 5748   3.443   3.204   0.085
 1854HOH     H1 5749   3.485   3.229   0.167
 1854HOH     H2 5750   3.369   3.264   0.077
 1855HOH      O 5751   3.990   1.576   3.494
 1855HOH     H1 5752   3.969   1.656   3.445
 1855HOH     H2 5753   3.959   1.505   3.438
 1856HOH      O 5754   0.093   3.683   1.494
 1856HOH     H1 5755   0.177   3.717   1.525
 1856HOH     H2 5756   0.036   3.760   1.494
 1857HOH      O 5757   0.650   1.824   0.528
 1857HOH     H1 5758   0.656   1.894   0.592
 1857HOH     H2 5759   0.626   1.747   0.578
 1858HOH      O 5760   1.093   2.874   0.751
 1858HOH     H1 5761   1.141   2.796   0.780
 1858HOH     H2 5762   1.012   2.872   0.801
 1859HOH      O 5763   2.489   3.419   2.937
 1859HOH     H1 5764   2.395   3.422   2.955
 1859HOH     H2 5765   2.499   3.350   2.871
 1860HOH      O 5766   3.116   0.043   3.213
 1860HOH     H1 5767   3.199  -0.005   3.207
 1860HOH     H2 5768   3.050  -0.020   3.183
 1861HOH      O 5769   1.828   3.605   2.016
 1861HOH     H1 5770   1.823   3.527   1.960
 1861HOH     H2 5771   1.922   3.620   2.027
 1862HOH      O 5772   0.411   1.810   1.476
 1862HOH     H1 5773   0.338   1.862   1.511
 1862HOH     H2 5774   0.466   1.873   1.431
 1863HOH      O 5775  -0.022   3.717   0.528
 1863HOH     H1 5776   0.073   3.722   0.526
 1863HOH     H2 5777  -0.043   3.690   0.618
 1864HOH      O 5778   0.420   2.616   1.468
 1864HOH     H1 5779   0.507   2.657   1.466
 1864HOH     H2 5780   0.436   2.525   1.442
 1865HOH      O 5781   0.001   0.819   3.022
 1865HOH     H1 5782  -0.028   0.731   3.045
 1865HOH     H2 5783   0.092   0.807   2.994
 1866HOH      O 5784   3.561   0.364   2.049
 1866HOH     H1 5785   3.546   0.355   2.144
 1866HOH     H2 5786   3.522   0.449   2.027
 1867HOH      O 5787   1.902   0.743   3.799
 1867HOH     H1 5788   1.943   0.719   3.716
 1867HOH     H2 5789   1.966   0.718   3.865
 1868HOH      O 5790   1.067   2.044   2.894
 1868HOH     H1 5791   1.045   1.982   2.964
 1868HOH     H2 5792   1.146   2.088   2.926
 1869HOH      O 5793   2.466   1.506   0.669
 1869HOH     H1 5794   2.543   1.486   0.722
 1869HOH     H2 5795   2.439   1.593   0.697
 1870HOH      O 5796   2.137   3.176   2.819
 1870HOH     H1 5797   2.070   3.230   2.778
 1870HOH     H2 5798   2.093   3.139   2.896
 1871HOH      O 5799   3.635   0.460   0.120
 1871HOH     H1 5800   3.593   0.431   0.201
 1871HOH     H2 5801   3.564   0.498   0.069
 1872HOH      O 5802   0.265   1.062   0.900
 1872HOH     H1 5803   0.308   0.980   0.874
 1872HOH     H2 5804   0.337   1.119   0.928
 1873HOH      O 5805   3.869   0.588   0.171
 1873HOH     H1 5806   3.910   0.540   0.243
 1873HOH     H2 5807   3.786   0.542   0.157
 1874HOH      O 5808   3.920   1.934   3.677
 1874HOH     H1 5809   3.830   1.930   3.645
 1874HOH     H2 5810   3.921   1.880   3.755
 1875HOH      O 5811   1.547   3.390   0.697
 1875HOH     H1 5812   1.563   3.393   0.603
 1875HOH     H2 5813   1.485   3.462   0.713
 1876HOH      O 5814   3.237   3.162   0.602
 1876HOH     H1 5815   3.144   3.138   0.603
 1876HOH     H2 5816   3.273   3.121   0.681
 1877HOH      O 5817   2.971   3.278   3.474
 1877HOH     H1 5818   3.039   3.278   3.541
 1877HOH     H2 5819   2.890   3.265   3.523
 1878HOH      O 5820   3.829   0.220   2.638
 1878HOH     H1 5821   3.737   0.194   2.629
 1878HOH     H2 5822   3.855   0.184   2.723
 1879HOH      O 5823   3.970   1.438   0.240
 1879HOH     H1 5824   3.934   1.515   0.284
 1879HOH     H2 5825   3.892   1.390   0.210
 1880HOH      O 5826   0.014   1.816   0.888
 1880HOH     H1 5827   0.070   1.804   0.965
 1880HOH     H2 5828   0.071   1.794   0.814
 1881HOH      O 5829   4.038   4.029   3.939
 1881HOH     H1 5830   4.057   4.013   3.847
 1881HOH     H2 5831   3.943   4.039   3.943
 1882HOH      O 5832   3.625   3.958   0.417
 1882HOH     H1 5833   3.573   3.956   0.497
 1882HOH     H2 5834   3.661   4.047   0.414
 1883HOH      O 5835   1.940   3.857   1.629
 1883HOH     H1 5836   1.953   3.951   1.635
 1883HOH     H2 5837   1.940   3.838   1.536
 1884HOH      O 5838   2.535   0.927   1.556
 1884HOH     H1 5839   2.606   0.989   1.570
 1884HOH     H2 5840   2.578   0.846   1.528
 1885HOH      O 5841   3.704   0.810   1.937
 1885HOH     H1 5842   3.641   0.882   1.930
 1885HOH     H2 5843   3.728   0.808   2.029
 1886HOH      O 5844   2.588   0.116   3.799
 1886HOH     H1 5845   2.591   0.036   3.852
 1886HOH     H2 5846   2.561   0.184   3.861
 1887HOH      O 5847   2.310   0.221   0.760
 1887HOH     H1 5848   2.331   0.139   0.716
 1887HOH     H2 5849   2.349   0.212   0.847
 1888HOH      O 5850   3.214   3.359   0.033
 1888HOH     H1 5851   3.127   3.351   0.071
 1888HOH     H2 5852   3.202   3.414  -0.044
 1889HOH      O 5853   2.917   3.224   3.936
 1889HOH     H1 5854   2.871   3.287   3.880
 1889HOH     H2 5855   2.924   3.269   4.021
 1890HOH      O 5856   1.677   0.465   1.036
 1890HOH     H1 5857   1.684   0.483   0.943
 1890HOH     H2 5858   1.737   0.527   1.077
 1891HOH      O 5859   0.913   3.192   2.001
 1891HOH     H1 5860   0.961   3.117   1.965
 1891HOH     H2 5861   0.976   3.233   2.061
 1892HOH      O 5862   3.323   1.097   0.523
 1892HOH     H1 5863   3.364   1.011   0.521
 1892HOH     H2 5864   3.268   1.099   0.444
 1893HOH      O 5865   2.325   3.339   1.081
 1893HOH     H1 5866   2.384   3.414   1.094
 1893HOH     H2 5867   2.349   3.305   0.995
 1894HOH      O 5868   2.332   0.894   3.741
 1894HOH     H1 5869   2.297   0.821   3.793
 1894HOH     H2 5870   2.416   0.915   3.783
 1895HOH      O 5871   2.854   3.345   0.577
 1895HOH     H1 5872   2.770   3.366   0.536
 1895HOH     H2 5873   2.883   3.427   0.616
 1896HOH      O 5874   3.960   1.890   1.278
 1896HOH     H1 5875   3.878   1.840   1.278
 1896HOH     H2 5876   3.952   1.949   1.353
 1897HOH      O 5877   3.782   1.512   1.637
 1897HOH     H1 5878   3.749   1.600   1.618
 1897HOH     H2 5879   3.841   1.524   1.711
 1898HOH      O 5880   3.624   2.316   1.728
 1898HOH     H1 5881   3.690   2.300   1.795
 1898HOH     H2 5882   3.667   2.377   1.668
 1899HOH      O 5883   1.913   2.293   3.833
 1899HOH     H1 5884   1.941   2.282   3.743
 1899HOH     H2 5885   1.990   2.327   3.878
 1900HOH      O 5886   3.868   0.616   3.147
 1900HOH     H1 5887   3.827   0.533   3.123
 1900HOH     H2 5888   3.848   0.626   3.240
 1901HOH      O 5889   0.496   2.530   3.456
 1901HOH     H1 5890   0.524   2.620   3.441
 1901HOH     H2 5891   0.406   2.537   3.489
 1902HOH      O 5892   3.588   1.359   2.279
 1902HOH     H1 5893   3.632   1.283   2.317
 1902HOH     H2 5894   3.502   1.326   2.252
 1903HOH      O 5895   1.420   3.905   1.431
 1903HOH     H1 5896   1.427   3.896   1.336
 1903HOH     H2 5897   1.508   3.932   1.459
 1904HOH      O 5898   2.970   1.199   2.132
 1904HOH     H1 5899   2.916   1.239   2.200
 1904HOH     H2 5900   2.920   1.212   2.051
 1905HOH      O 5901   0.367   0.143   3.778
 1905HOH     H1 5902   0.341   0.214   3.720
 1905HOH     H2 5903   0.401   0.188   3.856
 1906HOH      O 5904   2.913   0.858   3.414
 1906HOH     H1 5905   2.863   0.828   3.489
 1906HOH     H2 5906   2.862   0.829   3.338
 1907HOH      O 5907   0.212   3.742   1.781
 1907HOH     H1 5908   0.270   3.809   1.745
 1907HOH     H2 5909   0.269   3.688   1.835
 1908HOH      O 5910   0.842   0.285   1.694
 1908HOH     H1 5911   0.891   0.356   1.653
 1908HOH     H2 5912   0.870   0.286   1.786
 1909HOH      O 5913   2.301   3.343   0.728
 1909HOH     H1 5914   2.375   3.333   0.668
 1909HOH     H2 5915   2.270   3.432   0.713
 1910HOH      O 5916   1.445   1.962   2.564
 1910HOH     H1 5917   1.359   1.945   2.602
 1910HOH     H2 5918   1.428   2.020   2.490
 1911HOH      O 5919   2.282   1.555   2.387
 1911HOH     H1 5920   2.296   1.481   2.446
 1911HOH     H2 5921   2.303   1.632   2.440
 1912HOH      O 5922   3.773   0.761   3.861
 1912HOH     H1 5923   3.809   0.737   3.947
 1912HOH     H2 5924   3.821   0.706   3.799
 1913HOH      O 5925   3.691   3.680   3.899
 1913HOH     H1 5926   3.608   3.653   3.939
 1913HOH     H2 5927   3.757   3.662   3.966
 1914HOH      O 5928   1.308   1.520   0.066
 1914HOH     H1 5929   1.256   1.440   0.072
 1914HOH     H2 5930   1.283   1.558  -0.019
 1915HOH      O 5931   1.353   0.111   1.989
 1915HOH     H1 5932   1.440   0.076   2.009
 1915HOH     H2 5933   1.298   0.034   1.976
 1916HOH      O 5934   3.151   0.217   1.585
 1916HOH     H1 5935   3.221   0.157   1.559
 1916HOH     H2 5936   3.071   0.172   1.559
 1917HOH      O 5937   1.458   1.718   3.885
 1917HOH     H1 5938   1.510   1.683   3.958
 1917HOH     H2 5939   1.519   1.722   3.812
 1918HOH      O 5940   0.440   3.471   0.156
 1918HOH     H1 5941   0.440   3.543   0.093
 1918HOH     H2 5942   0.359   3.484   0.206
 1919HOH      O 5943   2.772   0.739   2.617
 1919HOH     H1 5944   2.741   0.830   2.622
 1919HOH     H2 5945   2.744   0.699   2.699
 1920HOH      O 5946   0.743   1.511   3.850
 1920HOH     H1 5947   0.770   1.451   3.920
 1920HOH     H2 5948   0.825   1.534   3.805
 1921HOH      O 5949   1.284   3.867   0.759
 1921HOH     H1 5950   1.357   3.914   0.799
 1921HOH     H2 5951   1.276   3.905   0.671
 1922HOH      O 5952   1.195   1.233   3.764
 1922HOH     H1 5953   1.224   1.322   3.741
 1922HOH     H2 5954   1.149   1.202   3.686
 1923HOH      O 5955   2.932   2.513  -0.003
 1923HOH     H1 5956   2.840   2.488  -0.002
 1923HOH     H2 5957   2.971   2.466   0.071
 1924HOH      O 5958   1.972   1.807   3.241
 1924HOH     H1 5959   1.897   1.863   3.222
 1924HOH     H2 5960   2.014   1.795   3.156
 1925HOH      O 5961   1.550   3.406   2.280
 1925HOH     H1 5962   1.606   3.478   2.251
 1925HOH     H2 5963   1.580   3.331   2.229
 1926HOH      O 5964   3.289   0.093   1.937
 1926HOH     H1 5965   3.345   0.149   1.883
 1926HOH     H2 5966   3.208   0.143   1.948
 1927HOH      O 5967   3.912   2.191   3.798
 1927HOH     H1 5968   3.933   2.190   3.892
 1927HOH     H2 5969   3.939   2.105   3.767
 1928HOH      O 5970   3.762   2.896   2.285
 1928HOH     H1 5971   3.667   2.905   2.285
 1928HOH     H2 5972   3.783   2.868   2.374
 1929HOH      O 5973   1.199   0.227   4.016
 1929HOH     H1 5974   1.201   0.152   3.956
 1929HOH     H2 5975   1.285   0.226   4.058
 1930HOH      O 5976   3.658   2.549   2.119
 1930HOH     H1 5977   3.611   2.583   2.042
 1930HOH     H2 5978   3.608   2.582   2.194
 1931HOH      O 5979   3.293   1.442   3.016
 1931HOH     H1 5980   3.373   1.494   3.014
 1931HOH     H2 5981   3.232   1.494   3.068
 1932HOH      O 5982   3.256   3.673   2.608
 1932HOH     H1 5983   3.236   3.656   2.516
 1932HOH     H2 5984   3.271   3.586   2.646
 1933HOH      O 5985   1.882   0.849   0.390
 1933HOH     H1 5986   1.966   0.893   0.395
 1933HOH     H2 5987   1.842   0.881   0.309
 1934HOH      O 5988   2.620   2.655   2.693
 1934HOH     H1 5989   2.581   2.580   2.737
 1934HOH     H2 5990   2.653   2.711   2.764
 1935HOH      O 5991   3.106   3.642   3.629
 1935HOH     H1 5992   3.107   3.586   3.706
 1935HOH     H2 5993   3.129   3.729   3.662
 1936HOH      O 5994   1.099   2.679   0.157
 1936HOH     H1 5995   1.173   2.624   0.130
 1936HOH     H2 5996   1.112   2.761   0.110
 1937HOH      O 5997   3.621   0.114   0.824
 1937HOH     H1 5998   3.551   0.128   0.760
 1937HOH     H2 5999   3.671   0.196   0.823
 1938HOH      O 6000   2.054   0.526   1.817
 1938HOH     H1 6001   2.074   0.619   1.815
 1938HOH     H2 6002   1.960   0.522   1.838
 1939HOH      O 6003   1.453   1.749   3.045
 1939HOH     H1 6004   1.417   1.722   2.960
 1939HOH     H2 6005   1.547   1.740   3.036
 1940HOH      O 6006   2.561   0.930   2.591
 1940HOH     H1 6007   2.573   0.907   2.499
 1940HOH     H2 6008   2.500   1.005   2.589
 1941HOH      O 6009   2.250   1.571   1.865
 1941HOH     H1 6010   2.230   1.600   1.954
 1941HOH     H2 6011   2.344   1.553   1.867
 1942HOH      O 6012   0.726   1.922   3.201
 1942HOH     H1 6013   0.677   1.961   3.129
 1942HOH     H2 6014   0.774   1.850   3.160
 1943HOH      O 6015   0.450   3.732   0.036
 1943HOH     H1 6016   0.423   3.787  -0.037
 1943HOH     H2 6017   0.545   3.726   0.028
 1944HOH      O 6018   3.132   0.235   2.339
 1944HOH     H1 6019   3.059   0.189   2.297
 1944HOH     H2 6020   3.092   0.314   2.376
 1945HOH      O 6021   0.494   3.467   1.826
 1945HOH     H1 6022   0.407   3.505   1.840
 1945HOH     H2 6023   0.515   3.424   1.908
 1946HOH      O 6024   1.131   3.697   2.949
 1946HOH     H1 6025   1.085   3.691   2.865
 1946HOH     H2 6026   1.200   3.761   2.934
 1947HOH      O 6027   0.143   3.351   0.884
 1947HOH     H1 6028   0.132   3.371   0.977
 1947HOH     H2 6029   0.222   3.400   0.859
 1948HOH      O 6030   3.274   1.987   2.022
 1948HOH     H1 6031   3.327   2.067   2.024
 1948HOH     H2 6032   3.280   1.953   2.112
 1949HOH      O 6033   0.609   1.575   2.888
 1949HOH     H1 6034   0.557   1.507   2.844
 1949HOH     H2 6035   0.545   1.644   2.909
 1950HOH      O 6036   2.660   1.413   3.491
 1950HOH     H1 6037   2.619   1.360   3.559
 1950HOH     H2 6038   2.744   1.440   3.529
 1951HOH      O 6039   3.021   0.551   1.275
 1951HOH     H1 6040   2.954   0.561   1.207
 1951HOH     H2 6041   2.979   0.497   1.342
 1952HOH      O 6042   3.076   0.202   3.440
 1952HOH     H1 6043   3.051   0.144   3.368
 1952HOH     H2 6044   3.048   0.289   3.411
 1953HOH      O 6045   1.775   1.460   3.536
 1953HOH     H1 6046   1.781   1.502   3.451
 1953HOH     H2 6047   1.745   1.371   3.518
 1954HOH      O 6048   2.989   1.273   0.742
 1954HOH     H1 6049   3.062   1.212   0.732
 1954HOH     H2 6050   3.014   1.349   0.689
 1955HOH      O 6051   2.590   1.771   0.481
 1955HOH     H1 6052   2.502   1.734   0.474
 1955HOH     H2 6053   2.623   1.740   0.565
 1956HOH      O 6054   0.883   1.856   0.376
 1956HOH     H1 6055   0.797   1.832   0.410
 1956HOH     H2 6056   0.900   1.794   0.305
 1957HOH      O 6057   3.265   1.890   1.460
 1957HOH     H1 6058   3.359   1.882   1.472
 1957HOH     H2 6059   3.238   1.807   1.420
 1958HOH      O 6060   3.773   1.347   2.070
 1958HOH     H1 6061   3.713   1.350   2.145
 1958HOH     H2 6062   3.826   1.426   2.077
 1959HOH      O 6063   0.550   3.971   1.656
 1959HOH     H1 6064   0.477   3.963   1.717
 1959HOH     H2 6065   0.556   4.065   1.638
 1960HOH      O 6066   1.609   2.845   1.914
 1960HOH     H1 6067   1.658   2.775   1.958
 1960HOH     H2 6068   1.532   2.858   1.971
 1961HOH      O 6069   3.476   2.738   1.641
 1961HOH     H1 6070   3.401   2.691   1.676
 1961HOH     H2 6071   3.446   2.773   1.557
 1962HOH      O 6072   0.139   0.102   2.581
 1962HOH     H1 6073   0.064   0.096   2.521
 1962HOH     H2 6074   0.102   0.088   2.668
 1963HOH      O 6075   2.959   0.433   2.379
 1963HOH     H1 6076   2.865   0.449   2.390
 1963HOH     H2 6077   2.993   0.515   2.343
 1964HOH      O 6078   1.305   2.007   0.580
 1964HOH     H1 6079   1.353   2.018   0.498
 1964HOH     H2 6080   1.260   2.090   0.593
 1965HOH      O 6081   0.069   1.040   0.347
 1965HOH     H1 6082   0.009   1.108   0.376
 1965HOH     H2 6083   0.135   1.086   0.296
 1966HOH      O 6084   1.268   1.446   0.664
 1966HOH     H1 6085   1.310   1.528   0.691
 1966HOH     H2 6086   1.178   1.455   0.694
 1967HOH      O 6087   2.711   0.474   1.814
 1967HOH     H1 6088   2.799   0.485   1.850
 1967HOH     H2 6089   2.663   0.423   1.879
 1968HOH      O 6090   3.252   3.007   3.943
 1968HOH     H1 6091   3.275   3.077   3.882
 1968HOH     H2 6092   3.265   3.045   4.030
 1969HOH      O 6093   0.588   0.876   3.759
 1969HOH     H1 6094   0.652   0.849   3.694
 1969HOH     H2 6095   0.580   0.970   3.748
 1970HOH      O 6096   1.149   2.431   1.291
 1970HOH     H1 6097   1.151   2.440   1.387
 1970HOH     H2 6098   1.105   2.348   1.275
 1971HOH      O 6099   0.846  -0.001   0.786
 1971HOH     H1 6100   0.846   0.001   0.690
 1971HOH     H2 6101   0.933   0.029   0.810
 1972HOH      O 6102   1.198   3.286   2.513
 1972HOH     H1 6103   1.132   3.316   2.575
 1972HOH     H2 6104   1.278   3.331   2.539
 1973HOH      O 6105   1.206   0.520   1.806
 1973HOH     H1 6106   1.264   0.592   1.779
 1973HOH     H2 6107   1.205   0.525   1.901
 1974HOH      O 6108   1.418   2.026   0.058
 1974HOH     H1 6109   1.396   2.074  -0.022
 1974HOH     H2 6110   1.334   2.016   0.103
 1975HOH      O 6111   1.666  -0.010   1.473
 1975HOH     H1 6112   1.618   0.054   1.526
 1975HOH     H2 6113   1.680   0.033   1.389
 1976HOH      O 6114   0.684   0.782   0.620
 1976HOH     H1 6115   0.627   0.859   0.615
 1976HOH     H2 6116   0.769   0.814   0.590
 1977HOH      O 6117   3.299   1.844   2.505
 1977HOH     H1 6118   3.375   1.800   2.543
 1977HOH     H2 6119   3.239   1.857   2.579
 1978HOH      O 6120   2.848   1.338   2.324
 1978HOH     H1 6121   2.783   1.296   2.380
 1978HOH     H2 6122   2.831   1.432   2.335
 1979HOH      O 6123   2.323   3.409   4.002
 1979HOH     H1 6124   2.319   3.401   3.906
 1979HOH     H2 6125   2.385   3.480   4.017
 1980HOH      O 6126   3.955   3.907   0.854
 1980HOH     H1 6127   3.921   3.909   0.943
 1980HOH     H2 6128   3.973   3.999   0.833
 1981HOH      O 6129   2.704   1.318   1.162
 1981HOH     H1 6130   2.735   1.227   1.160
 1981HOH     H2 6131   2.783   1.370   1.178
 1982HOH      O 6132   0.890   1.347   0.113
 1982HOH     H1 6133   0.896   1.389   0.198
 1982HOH     H2 6134   0.980   1.322   0.092
 1983HOH      O 6135   2.291   3.178   1.344
 1983HOH     H1 6136   2.294   3.254   1.403
 1983HOH     H2 6137   2.306   3.215   1.257
 1984HOH      O 6138   2.039   2.228   0.657
 1984HOH     H1 6139   2.058   2.154   0.715
 1984HOH     H2 6140   2.081   2.206   0.575
 1985HOH      O 6141   3.680   2.095   2.545
 1985HOH     H1 6142   3.745   2.072   2.611
 1985HOH     H2 6143   3.697   2.035   2.473
 1986HOH      O 6144   0.577   2.356   2.729
 1986HOH     H1 6145   0.536   2.423   2.675
 1986HOH     H2 6146   0.597   2.399   2.811
 1987HOH      O 6147   2.015   1.947   2.763
 1987HOH     H1 6148   1.939   1.903   2.801
 1987HOH     H2 6149   2.088   1.887   2.779
 1988HOH      O 6150   2.065   3.956   0.352
 1988HOH     H1 6151   2.089   4.048   0.357
 1988HOH     H2 6152   1.972   3.956   0.329
 1989HOH      O 6153   3.527   1.135   1.034
 1989HOH     H1 6154   3.603   1.191   1.047
 1989HOH     H2 6155   3.546   1.088   0.952
 1990HOH      O 6156   3.872   3.893   2.804
 1990HOH     H1 6157   3.821   3.958   2.756
 1990HOH     H2 6158   3.870   3.815   2.748
 1991HOH      O 6159   3.595   3.839   1.163
 1991HOH     H1 6160   3.589   3.930   1.137
 1991HOH     H2 6161   3.629   3.841   1.253
 1992HOH      O 6162   2.493   2.025   1.012
 1992HOH     H1 6163   2.476   1.962   1.083
 1992HOH     H2 6164   2.412   2.076   1.005
 1993HOH      O 6165   1.607   3.103   0.424
 1993HOH     H1 6166   1.598   3.198   0.430
 1993HOH     H2 6167   1.701   3.086   0.432
 1994HOH      O 6168   3.376   1.718   0.855
 1994HOH     H1 6169   3.381   1.735   0.949
 1994HOH     H2 6170   3.293   1.757   0.828
 1995HOH      O 6171   2.079   1.552   1.062
 1995HOH     H1 6172   1.989   1.518   1.059
 1995HOH     H2 6173   2.081   1.607   1.141
 1996HOH      O 6174   1.162   3.275   0.224
 1996HOH     H1 6175   1.146   3.257   0.317
 1996HOH     H2 6176   1.131   3.196   0.179
 1997HOH      O 6177   1.813   3.039   1.307
 1997HOH     H1 6178   1.761   2.976   1.256
 1997HOH     H2 6179   1.880   3.069   1.246
 1998HOH      O 6180   2.116   0.298   1.662
 1998HOH     H1 6181   2.154   0.238   1.727
 1998HOH     H2 6182   2.095   0.377   1.711
 1999HOH      O 6183   3.626   3.553   2.833
 1999HOH     H1 6184   3.540   3.582   2.864
 1999HOH     H2 6185   3.628   3.578   2.741
 2000HOH      O 6186   3.374   2.944   0.453
 2000HOH     H1 6187   3.294   2.893   0.468
 2000HOH     H2 6188   3.343   3.033   0.438
 2001HOH      O 6189   3.714   1.827   0.214
 2001HOH     H1 6190   3.721   1.787   0.127
 2001HOH     H2 6191   3.651   1.899   0.202
 2002HOH      O 6192   3.777   0.181   1.416
 2002HOH     H1 6193   3.774   0.139   1.502
 2002HOH     H2 6194   3.687   0.205   1.397
 2003HOH      O 6195   1.910   0.095   3.158
 2003HOH     H1 6196   1.899   0.017   3.104
 2003HOH     H2 6197   1.833   0.096   3.215
 2004HOH      O 6198   3.468   1.315   0.384
 2004HOH     H1 6199   3.551   1.272   0.367
 2004HOH     H2 6200   3.403   1.257   0.344
 2005HOH      O 6201   2.550   3.029   2.863
 2005HOH     H1 6202   2.483   2.962   2.848
 2005HOH     H2 6203   2.633   2.981   2.857
 2006HOH      O 6204   1.855   3.911   0.042
 2006HOH     H1 6205   1.764   3.939   0.055
 2006HOH     H2 6206   1.865   3.836   0.101
 2007HOH      O 6207   0.163   2.780   2.989
 2007HOH     H1 6208   0.201   2.692   2.993
 2007HOH     H2 6209   0.138   2.791   2.897
 2008HOH      O 6210   3.974   2.230   1.700
 2008HOH     H1 6211   4.025   2.174   1.758
 2008HOH     H2 6212   3.906   2.268   1.757
 2009HOH      O 6213   3.862   2.532   3.449
 2009HOH     H1 6214   3.902   2.601   3.397
 2009HOH     H2 6215   3.818   2.578   3.520
 2010HOH      O 6216   0.135   1.288   3.981
 2010HOH     H1 6217   0.160   1.259   3.894
 2010HOH     H2 6218   0.101   1.209   4.024
 2011HOH      O 6219   0.286   0.244   2.975
 2011HOH     H1 6220   0.243   0.180   2.919
 2011HOH     H2 6221   0.263   0.329   2.937
 2012HOH      O 6222   3.258   1.194   0.765
 2012HOH     H1 6223   3.273   1.154   0.679
 2012HOH     H2 6224   3.305   1.277   0.761
 2013HOH      O 6225   2.632   3.397   3.198
 2013HOH     H1 6226   2.597   3.321   3.243
 2013HOH     H2 6227   2.602   3.387   3.107
 2014HOH      O 6228   1.837   0.293   1.270
 2014HOH     H1 6229   1.812   0.384   1.254
 2014HOH     H2 6230   1.827   0.282   1.364
 2015HOH      O 6231   0.999   3.186   3.401
 2015HOH     H1 6232   0.927   3.222   3.452
 2015HOH     H2 6233   1.030   3.258   3.347
 2016HOH      O 6234   1.515   2.002   3.380
 2016HOH     H1 6235   1.594   1.956   3.407
 2016HOH     H2 6236   1.463   1.937   3.333
 2017HOH      O 6237   2.171   2.159   1.738
 2017HOH     H1 6238   2.173   2.065   1.721
 2017HOH     H2 6239   2.102   2.192   1.681
 2018HOH      O 6240   1.592   2.237   1.716
 2018HOH     H1 6241   1.652   2.307   1.744
 2018HOH     H2 6242   1.596   2.173   1.788
 2019HOH      O 6243   3.800   1.256   3.672
 2019HOH     H1 6244   3.800   1.168   3.709
 2019HOH     H2 6245   3.879   1.260   3.618
 2020HOH      O 6246   3.316   3.905   2.428
 2020HOH     H1 6247   3.292   3.820   2.391
 2020HOH     H2 6248   3.332   3.961   2.351
 2021HOH      O 6249   3.981   3.576   2.389
 2021HOH     H1 6250   3.975   3.481   2.382
 2021HOH     H2 6251   3.976   3.607   2.298
 2022HOH      O 6252   0.180   1.961   1.564
 2022HOH     H1 6253   0.099   1.982   1.519
 2022HOH     H2 6254   0.168   1.994   1.653
 2023HOH      O 6255   1.821   2.281   0.969
 2023HOH     H1 6256   1.758   2.214   0.996
 2023HOH     H2 6257   1.782   2.321   0.892
 2024HOH      O 6258   3.052   0.901   1.038
 2024HOH     H1 6259   3.127   0.954   1.011
 2024HOH     H2 6260   3.079   0.863   1.122
 2025HOH      O 6261   2.986   2.124   2.552
 2025HOH     H1 6262   2.982   2.128   2.456
 2025HOH     H2 6263   2.930   2.195   2.581
 2026HOH      O 6264   0.611   0.933   1.868
 2026HOH     H1 6265   0.701   0.918   1.899
 2026HOH     H2 6266   0.558   0.935   1.948
 2027HOH      O 6267   3.130   1.548   1.649
 2027HOH     H1 6268   3.082   1.503   1.718
 2027HOH     H2 6269   3.218   1.510   1.651
 2028HOH      O 6270   2.562   0.925   2.295
 2028HOH     H1 6271   2.520   0.998   2.249
 2028HOH     H2 6272   2.515   0.847   2.267
 2029HOH      O 6273   2.325   2.752   3.942
 2029HOH     H1 6274   2.245   2.713   3.908
 2029HOH     H2 6275   2.370   2.786   3.865
 2030HOH      O 6276   2.255   2.644   0.741
 2030HOH     H1 6277   2.188   2.704   0.707
 2030HOH     H2 6278   2.328   2.701   0.764
 2031HOH      O 6279   0.928   2.348   2.183
 2031HOH     H1 6280   0.995   2.416   2.173
 2031HOH     H2 6281   0.970   2.281   2.237
 2032HOH      O 6282   1.684   3.564   3.440
 2032HOH     H1 6283   1.594   3.592   3.428
 2032HOH     H2 6284   1.737   3.631   3.397
 2033HOH      O 6285   2.352   3.981   3.946
 2033HOH     H1 6286   2.322   3.966   4.036
 2033HOH     H2 6287   2.447   3.969   3.949
 2034HOH      O 6288   0.695   3.382   2.475
 2034HOH     H1 6289   0.668   3.318   2.541
 2034HOH     H2 6290   0.769   3.342   2.431
 2035HOH      O 6291   0.032   2.819   2.443
 2035HOH     H1 6292  -0.054   2.808   2.402
 2035HOH     H2 6293   0.092   2.771   2.386
 2036HOH      O 6294   2.435   3.393   2.249
 2036HOH     H1 6295   2.417   3.369   2.340
 2036HOH     H2 6296   2.349   3.410   2.211
 2037HOH      O 6297   0.622   0.020   1.355
 2037HOH     H1 6298   0.709   0.038   1.320
 2037HOH     H2 6299   0.619   0.067   1.438
 2038HOH      O 6300   3.132   0.606   3.102
 2038HOH     H1 6301   3.049   0.654   3.105
 2038HOH     H2 6302   3.198   0.672   3.084
 2039HOH      O 6303   0.026   3.891   3.002
 2039HOH     H1 6304   0.089   3.833   2.958
 2039HOH     H2 6305  -0.046   3.899   2.939
 2040HOH      O 6306   2.315   2.453   2.650
 2040HOH     H1 6307   2.290   2.540   2.620
 2040HOH     H2 6308   2.269   2.443   2.733
 2041HOH      O 6309   1.361   1.180   0.630
 2041HOH     H1 6310   1.354   1.275   0.621
 2041HOH     H2 6311   1.408   1.168   0.712
 2042HOH      O 6312   0.553   3.389   0.564
 2042HOH     H1 6313   0.464   3.359   0.544
 2042HOH     H2 6314   0.579   3.439   0.487
 2043HOH      O 6315   1.551   0.110   0.725
 2043HOH     H1 6316   1.602   0.078   0.650
 2043HOH     H2 6317   1.605   0.091   0.801
 2044HOH      O 6318   2.977   1.202   0.294
 2044HOH     H1 6319   2.967   1.193   0.388
 2044HOH     H2 6320   2.926   1.280   0.272
 2045HOH      O 6321   2.147   3.550   2.274
 2045HOH     H1 6322   2.091   3.627   2.277
 2045HOH     H2 6323   2.178   3.539   2.364
 2046HOH      O 6324   3.267   2.177   2.628
 2046HOH     H1 6325   3.316   2.158   2.548
 2046HOH     H2 6326   3.179   2.142   2.611
 2047HOH      O 6327   1.486   1.632   0.655
 2047HOH     H1 6328   1.452   1.631   0.566
 2047HOH     H2 6329   1.540   1.710   0.660
 2048HOH      O 6330   1.585   0.720   0.114
 2048HOH     H1 6331   1.494   0.746   0.134
 2048HOH     H2 6332   1.625   0.709   0.200
 2049HOH      O 6333   3.528   0.911   3.655
 2049HOH     H1 6334   3.485   0.993   3.676
 2049HOH     H2 6335   3.466   0.864   3.599
 2050HOH      O 6336   3.558   2.766   2.721
 2050HOH     H1 6337   3.501   2.699   2.683
 2050HOH     H2 6338   3.507   2.801   2.794
 2051HOH      O 6339   2.439   1.717   1.560
 2051HOH     H1 6340   2.435   1.769   1.641
 2051HOH     H2 6341   2.377   1.645   1.575
 2052HOH      O 6342   3.318   0.156   0.197
 2052HOH     H1 6343   3.267   0.236   0.211
 2052HOH     H2 6344   3.258   0.099   0.149
 2053HOH      O 6345   2.024   3.590   3.306
 2053HOH     H1 6346   2.107   3.630   3.331
 2053HOH     H2 6347   1.959   3.660   3.314
 2054HOH      O 6348   1.474   0.320   2.184
 2054HOH     H1 6349   1.509   0.242   2.142
 2054HOH     H2 6350   1.551   0.367   2.216
 2055HOH      O 6351   2.821   3.126   0.244
 2055HOH     H1 6352   2.875   3.202   0.265
 2055HOH     H2 6353   2.877   3.051   0.263
 2056HOH      O 6354   3.156   1.330   2.792
 2056HOH     H1 6355   3.205   1.335   2.875
 2056HOH     H2 6356   3.223   1.309   2.727
 2057HOH      O 6357   2.427   3.963   1.230
 2057HOH     H1 6358   2.363   3.918   1.175
 2057HOH     H2 6359   2.379   4.036   1.268
 2058HOH      O 6360   1.699   3.470   3.017
 2058HOH     H1 6361   1.648   3.550   3.031
 2058HOH     H2 6362   1.696   3.456   2.923
 2059HOH      O 6363   0.597   2.394   1.919
 2059HOH     H1 6364   0.691   2.403   1.902
 2059HOH     H2 6365   0.565   2.484   1.927
 2060HOH      O 6366   0.600   0.948   1.055
 2060HOH     H1 6367   0.558   1.009   1.115
 2060HOH     H2 6368   0.535   0.879   1.040
 2061HOH      O 6369   2.244   3.919   1.551
 2061HOH     H1 6370   2.257   3.827   1.526
 2061HOH     H2 6371   2.208   3.960   1.473
 2062HOH      O 6372   3.476   0.436   2.808
 2062HOH     H1 6373   3.493   0.344   2.827
 2062HOH     H2 6374   3.381   0.443   2.810
 2063HOH      O 6375   3.383   1.445   0.716
 2063HOH     H1 6376   3.382   1.457   0.621
 2063HOH     H2 6377   3.358   1.531   0.751
 2064HOH      O 6378   3.963   0.554   2.539
 2064HOH     H1 6379   3.897   0.490   2.564
 2064HOH     H2 6380   3.976   0.608   2.617
 2065HOH      O 6381   0.172   3.964   1.392
 2065HOH     H1 6382   0.201   4.055   1.386
 2065HOH     H2 6383   0.228   3.926   1.460
 2066HOH      O 6384   2.247   1.717   0.951
 2066HOH     H1 6385   2.199   1.644   0.990
 2066HOH     H2 6386   2.257   1.780   1.022
 2067HOH      O 6387   1.167   1.310   1.988
 2067HOH     H1 6388   1.136   1.345   2.072
 2067HOH     H2 6389   1.110   1.235   1.971
 2068HOH      O 6390   0.758   1.611   1.348
 2068HOH     H1 6391   0.828   1.580   1.405
 2068HOH     H2 6392   0.801   1.630   1.264
 2069HOH      O 6393   2.113   1.484   0.141
 2069HOH     H1 6394   2.112   1.406   0.085
 2069HOH     H2 6395   2.200   1.521   0.128
 2070HOH      O 6396   0.187   0.916   1.703
 2070HOH     H1 6397   0.200   1.000   1.660
 2070HOH     H2 6398   0.186   0.937   1.797
 2071HOH      O 6399   2.601   4.007   0.763
 2071HOH     H1 6400   2.663   4.043   0.700
 2071HOH     H2 6401   2.517   4.006   0.716
 2072HOH      O 6402   0.447   0.473   2.041
 2072HOH     H1 6403   0.477   0.416   1.970
 2072HOH     H2 6404   0.403   0.545   1.997
 2073HOH      O 6405   3.363   1.536   2.662
 2073HOH     H1 6406   3.333   1.449   2.635
 2073HOH     H2 6407   3.329   1.546   2.751
 2074HOH      O 6408   2.674   2.406   3.969
 2074HOH     H1 6409   2.679   2.410   3.873
 2074HOH     H2 6410   2.595   2.354   3.986
 2075HOH      O 6411   3.168   2.747   0.088
 2075HOH     H1 6412   3.259   2.719   0.076
 2075HOH     H2 6413   3.117   2.679   0.044
 2076HOH      O 6414   2.599   3.787   3.688
 2076HOH     H1 6415   2.650   3.859   3.651
 2076HOH     H2 6416   2.657   3.711   3.683
 2077HOH      O 6417   0.341   0.254   0.967
 2077HOH     H1 6418   0.271   0.257   1.032
 2077HOH     H2 6419   0.419   0.230   1.017
 2078HOH      O 6420   1.327   3.873   2.888
 2078HOH     H1 6421   1.389   3.916   2.947
 2078HOH     H2 6422   1.245   3.922   2.899
 2079HOH      O 6423   2.545   2.930   3.384
 2079HOH     H1 6424   2.628   2.971   3.408
 2079HOH     H2 6425   2.523   2.968   3.299
 2080HOH      O 6426   0.695   4.006   3.717
 2080HOH     H1 6427   0.710   3.912   3.707
 2080HOH     H2 6428   0.759   4.047   3.659
 2081HOH      O 6429   2.805   0.115   0.575
 2081HOH     H1 6430   2.831   0.137   0.664
 2081HOH     H2 6431   2.764   0.194   0.541
 2082HOH      O 6432   2.022   2.626   0.910
 2082HOH     H1 6433   1.972   2.555   0.871
 2082HOH     H2 6434   2.110   2.615   0.876
 2083HOH      O 6435   2.506   3.065   2.385
 2083HOH     H1 6436   2.537   2.979   2.415
 2083HOH     H2 6437   2.535   3.126   2.452
 2084HOH      O 6438   1.780   2.468   1.769
 2084HOH     H1 6439   1.718   2.528   1.810
 2084HOH     H2 6440   1.855   2.524   1.747
 2085HOH      O 6441   2.648   1.014   1.917
 2085HOH     H1 6442   2.611   1.061   1.991
 2085HOH     H2 6443   2.680   1.082   1.857
 2086HOH      O 6444   2.702   2.417   1.234
 2086HOH     H1 6445   2.696   2.398   1.327
 2086HOH     H2 6446   2.655   2.499   1.222
 2087HOH      O 6447   3.164   3.195   1.850
 2087HOH     H1 6448   3.250   3.217   1.816
 2087HOH     H2 6449   3.102   3.235   1.789
 2088HOH      O 6450   3.202   2.806   2.642
 2088HOH     H1 6451   3.130   2.749   2.667
 2088HOH     H2 6452   3.234   2.769   2.559
 2089HOH      O 6453   2.485   0.658   2.214
 2089HOH     H1 6454   2.431   0.638   2.138
 2089HOH     H2 6455   2.448   0.604   2.284
 2090HOH      O 6456   1.267   1.677   3.564
 2090HOH     H1 6457   1.276   1.762   3.606
 2090HOH     H2 6458   1.344   1.669   3.509
 2091HOH      O 6459   3.272   3.095   2.640
 2091HOH     H1 6460   3.249   3.002   2.636
 2091HOH     H2 6461   3.189   3.140   2.622
 2092HOH      O 6462   0.193   1.772   0.671
 2092HOH     H1 6463   0.236   1.687   0.657
 2092HOH     H2 6464   0.235   1.830   0.607
 2093HOH      O 6465   3.468   1.949   0.350
 2093HOH     H1 6466   3.385   1.997   0.351
 2093HOH     H2 6467   3.534   2.014   0.324
 2094HOH      O 6468   0.633   0.935   3.294
 2094HOH     H1 6469   0.669   1.019   3.324
 2094HOH     H2 6470   0.708   0.889   3.256
 2095HOH      O 6471   2.958   2.427   2.831
 2095HOH     H1 6472   2.993   2.400   2.916
 2095HOH     H2 6473   2.874   2.383   2.825
 2096HOH      O 6474   1.035   2.352   2.784
 2096HOH     H1 6475   1.126   2.328   2.769
 2096HOH     H2 6476   1.004   2.291   2.851
 2097HOH      O 6477   3.743   3.978   1.919
 2097HOH     H1 6478   3.679   3.997   1.988
 2097HOH     H2 6479   3.751   3.882   1.919
 2098HOH      O 6480   1.523   3.906   3.966
 2098HOH     H1 6481   1.548   3.854   3.889
 2098HOH     H2 6482   1.506   3.841   4.034
 2099HOH      O 6483   3.163   1.836   1.707
 2099HOH     H1 6484   3.141   1.743   1.703
 2099HOH     H2 6485   3.178   1.860   1.615
 2100HOH      O 6486   0.471   3.656   1.319
 2100HOH     H1 6487   0.551   3.606   1.336
 2100HOH     H2 6488   0.496   3.718   1.251
 2101HOH      O 6489  -0.002   1.037   0.736
 2101HOH     H1 6490  -0.043   1.123   0.723
 2101HOH     H2 6491   0.083   1.057   0.773
 2102HOH      O 6492   1.470   3.775   1.919
 2102HOH     H1 6493   1.374   3.771   1.926
 2102HOH     H2 6494   1.487   3.864   1.888
 2103HOH      O 6495   3.392   1.220   1.963
 2103HOH     H1 6496   3.308   1.176   1.963
 2103HOH     H2 6497   3.379   1.298   2.018
 2104HOH      O 6498   2.408   0.186   2.851
 2104HOH     H1 6499   2.446   0.113   2.898
 2104HOH     H2 6500   2.443   0.179   2.762
 2105HOH      O 6501   0.673   3.660   3.380
 2105HOH     H1 6502   0.760   3.622   3.371
 2105HOH     H2 6503   0.648   3.684   3.290
 2106HOH      O 6504   2.332   1.321   0.825
 2106HOH     H1 6505   2.383   1.392   0.787
 2106HOH     H2 6506   2.284   1.284   0.751
 2107HOH      O 6507   3.935   0.587   2.273
 2107HOH     H1 6508   3.943   0.589   2.369
 2107HOH     H2 6509   3.961   0.498   2.249
 2108HOH      O 6510   2.563   2.796   1.669
 2108HOH     H1 6511   2.650   2.764   1.695
 2108HOH     H2 6512   2.579   2.843   1.587
 2109HOH      O 6513   2.046   3.954   2.973
 2109HOH     H1 6514   1.994   3.928   2.897
 2109HOH     H2 6515   2.104   4.022   2.941
 2110HOH      O 6516   3.280   1.281   0.155
 2110HOH     H1 6517   3.306   1.263   0.064
 2110HOH     H2 6518   3.247   1.371   0.153
 2111HOH      O 6519   0.024   2.115   2.542
 2111HOH     H1 6520   0.080   2.145   2.613
 2111HOH     H2 6521  -0.021   2.194   2.511
   4.02727   4.02727   4.02727   0.00000   0.00000   0.00000   0.00000   0.00000   0.00000
